<event>
 4    1  0.4487206E+000  0.1741539E+03  0.7818608E-02  0.1173584E+00
         21   -1    0    0  503  502  0.00000000000E+00  0.00000000000E+00  0.26173113482E+03  0.26173113482E+03  0.00000000000E+00 0.  1.
         21   -1    0    0  501  503 -0.00000000000E+00 -0.00000000000E+00 -0.25291304072E+03  0.25291304072E+03  0.00000000000E+00 0.  1.
          6    1    1    2  501    0 -0.72681148317E+01  0.26320504949E+02 -0.18500097227E+03  0.25407666996E+03  0.17200000000E+03 0.  1.
         -6    1    1    2    0  502  0.72681148317E+01 -0.26320504949E+02  0.19381906638E+03  0.26056750559E+03  0.17200000000E+03 0.  1.
</event>
<event>
 4    1  0.4487206E+000  0.2055627E+03  0.7818608E-02  0.1145129E+00
         21   -1    0    0  503  502  0.00000000000E+00  0.00000000000E+00  0.46030238067E+02  0.46030238067E+02  0.00000000000E+00 0.  1.
         21   -1    0    0  501  503 -0.00000000000E+00 -0.00000000000E+00 -0.97419656245E+03  0.97419656245E+03  0.00000000000E+00 0. -1.
          6    1    1    2  501    0  0.85859109731E+02  0.72802826971E+02 -0.58659408812E+03  0.62156951547E+03  0.17200000000E+03 0. -1.
         -6    1    1    2    0  502 -0.85859109731E+02 -0.72802826971E+02 -0.34157223626E+03  0.39865728505E+03  0.17200000000E+03 0.  1.
</event>
<event>
 4    1  0.4487206E+000  0.1793524E+03  0.7818608E-02  0.1168431E+00
         21   -1    0    0  503  502  0.00000000000E+00  0.00000000000E+00  0.95354371425E+02  0.95354371425E+02  0.00000000000E+00 0. -1.
         21   -1    0    0  501  503 -0.00000000000E+00 -0.00000000000E+00 -0.35481876402E+03  0.35481876402E+03  0.00000000000E+00 0. -1.
          6    1    1    2  501    0  0.63647315649E+00 -0.50822093053E+02 -0.17968311231E+03  0.25387656664E+03  0.17200000000E+03 0. -1.
         -6    1    1    2    0  502 -0.63647315649E+00  0.50822093053E+02 -0.79781280290E+02  0.19629656881E+03  0.17200000000E+03 0. -1.
</event>
<event>
 4    1  0.4487206E+000  0.1934565E+03  0.7818608E-02  0.1155380E+00
         21   -1    0    0  501  502  0.00000000000E+00  0.00000000000E+00  0.11932477660E+03  0.11932477660E+03  0.00000000000E+00 0.  1.
         21   -1    0    0  502  503 -0.00000000000E+00 -0.00000000000E+00 -0.99525282668E+03  0.99525282668E+03  0.00000000000E+00 0.  1.
          6    1    1    2  501    0 -0.65854035793E+02 -0.59200147967E+02  0.23227636011E+02  0.19484592535E+03  0.17200000000E+03 0.  1.
         -6    1    1    2    0  503  0.65854035793E+02  0.59200147967E+02 -0.89915568610E+03  0.91973167793E+03  0.17200000000E+03 0.  1.
</event>
<event>
 4    1  0.4487206E+000  0.2752649E+03  0.7818608E-02  0.1098304E+00
         21   -1    0    0  501  502  0.00000000000E+00  0.00000000000E+00  0.41833241412E+03  0.41833241412E+03  0.00000000000E+00 0. -1.
         21   -1    0    0  502  503 -0.00000000000E+00 -0.00000000000E+00 -0.20421743827E+03  0.20421743827E+03  0.00000000000E+00 0.  1.
          6    1    1    2  501    0  0.17072399414E+03  0.13053775440E+03  0.21172821170E+03  0.34727456447E+03  0.17200000000E+03 0. -1.
         -6    1    1    2    0  503 -0.17072399414E+03 -0.13053775440E+03  0.23867641452E+01  0.27527528792E+03  0.17200000000E+03 0.  1.
</event>
<event>
 4    1  0.4487206E+000  0.1883332E+03  0.7818608E-02  0.1159973E+00
         21   -1    0    0  501  502  0.00000000000E+00  0.00000000000E+00  0.38028606640E+02  0.38028606640E+02  0.00000000000E+00 0.  1.
         21   -1    0    0  502  503 -0.00000000000E+00 -0.00000000000E+00 -0.10319498254E+04  0.10319498254E+04  0.00000000000E+00 0.  1.
          6    1    1    2  501    0 -0.75152733119E+02  0.15409790707E+02 -0.33105002966E+03  0.38087204818E+03  0.17200000000E+03 0.  1.
         -6    1    1    2    0  503  0.75152733119E+02 -0.15409790707E+02 -0.66287118913E+03  0.68910638390E+03  0.17200000000E+03 0.  1.
</event>
<event>
 4    1  0.4487206E+000  0.2074884E+03  0.7818608E-02  0.1143570E+00
         21   -1    0    0  503  502  0.00000000000E+00  0.00000000000E+00  0.42315124466E+03  0.42315124466E+03  0.00000000000E+00 0. -1.
         21   -1    0    0  501  503 -0.00000000000E+00 -0.00000000000E+00 -0.10424625196E+03  0.10424625196E+03  0.00000000000E+00 0.  1.
          6    1    1    2  501    0  0.21132856261E+00 -0.11604910166E+03  0.20033936542E+03  0.28842208652E+03  0.17200000000E+03 0. -1.
         -6    1    1    2    0  502 -0.21132856261E+00  0.11604910166E+03  0.11856562728E+03  0.23897541009E+03  0.17200000000E+03 0.  1.
</event>
<event>
 4    1  0.4487206E+000  0.2359281E+03  0.7818608E-02  0.1122536E+00
         21   -1    0    0  501  502  0.00000000000E+00  0.00000000000E+00  0.65066425453E+03  0.65066425453E+03  0.00000000000E+00 0.  1.
         21   -1    0    0  502  503 -0.00000000000E+00 -0.00000000000E+00 -0.10804141670E+03  0.10804141670E+03  0.00000000000E+00 0.  1.
          6    1    1    2  501    0  0.10380277353E+03 -0.12370541893E+03  0.44440877781E+03  0.50315127770E+03  0.17200000000E+03 0.  1.
         -6    1    1    2    0  503 -0.10380277353E+03  0.12370541893E+03  0.98214060019E+02  0.25555439353E+03  0.17200000000E+03 0.  1.
</event>
<event>
 4    1  0.4487206E+000  0.1812282E+03  0.7818608E-02  0.1166620E+00
         21   -1    0    0  501  502  0.00000000000E+00  0.00000000000E+00  0.53639383878E+02  0.53639383878E+02  0.00000000000E+00 0. -1.
         21   -1    0    0  502  503 -0.00000000000E+00 -0.00000000000E+00 -0.62175958449E+03  0.62175958449E+03  0.00000000000E+00 0.  1.
          6    1    1    2  501    0 -0.54146261242E+02  0.18106216728E+02 -0.32570336481E+03  0.37272823148E+03  0.17200000000E+03 0. -1.
         -6    1    1    2    0  503  0.54146261242E+02 -0.18106216728E+02 -0.24241683580E+03  0.30267073689E+03  0.17200000000E+03 0. -1.
</event>
<event>
 4    1  0.4487206E+000  0.1843680E+03  0.7818608E-02  0.1163641E+00
         21   -1    0    0  501  502  0.00000000000E+00  0.00000000000E+00  0.12098252066E+03  0.12098252066E+03  0.00000000000E+00 0. -1.
         21   -1    0    0  502  503 -0.00000000000E+00 -0.00000000000E+00 -0.39649888238E+03  0.39649888238E+03  0.00000000000E+00 0. -1.
          6    1    1    2  501    0 -0.57772878014E+02 -0.32708569788E+02  0.19118020377E+01  0.18437790258E+03  0.17200000000E+03 0. -1.
         -6    1    1    2    0  503  0.57772878014E+02  0.32708569788E+02 -0.27742816376E+03  0.33310350046E+03  0.17200000000E+03 0. -1.
</event>
<event>
 4    1  0.4487206E+000  0.1850427E+03  0.7818608E-02  0.1163010E+00
         21   -1    0    0  503  502  0.00000000000E+00  0.00000000000E+00  0.15051961609E+03  0.15051961609E+03  0.00000000000E+00 0. -1.
         21   -1    0    0  501  503 -0.00000000000E+00 -0.00000000000E+00 -0.38083888734E+03  0.38083888734E+03  0.00000000000E+00 0. -1.
          6    1    1    2  501    0 -0.41655756823E+02  0.54051942262E+02 -0.28375114946E+03  0.33875585509E+03  0.17200000000E+03 0.  1.
         -6    1    1    2    0  502  0.41655756823E+02 -0.54051942262E+02  0.53431878204E+02  0.19260264834E+03  0.17200000000E+03 0.  1.
</event>
<event>
 4    1  0.4487206E+000  0.2634860E+03  0.7818608E-02  0.1105067E+00
         21   -1    0    0  501  502  0.00000000000E+00  0.00000000000E+00  0.88802370764E+02  0.88802370764E+02  0.00000000000E+00 0. -1.
         21   -1    0    0  502  503 -0.00000000000E+00 -0.00000000000E+00 -0.80159398159E+03  0.80159398159E+03  0.00000000000E+00 0.  1.
          6    1    1    2  501    0  0.35052738729E+02  0.19649977503E+03 -0.42637132897E+03  0.50121588787E+03  0.17200000000E+03 0.  1.
         -6    1    1    2    0  503 -0.35052738729E+02 -0.19649977503E+03 -0.28642028186E+03  0.38918046449E+03  0.17200000000E+03 0. -1.
</event>
<event>
 4    1  0.4487206E+000  0.1999849E+03  0.7818608E-02  0.1149752E+00
         21   -1    0    0  501  502  0.00000000000E+00  0.00000000000E+00  0.12648756654E+03  0.12648756654E+03  0.00000000000E+00 0. -1.
         21   -1    0    0  502  503 -0.00000000000E+00 -0.00000000000E+00 -0.31698475750E+03  0.31698475750E+03  0.00000000000E+00 0.  1.
          6    1    1    2  501    0 -0.94155018434E+02  0.39303824890E+02 -0.84137707843E+02  0.21696338868E+03  0.17200000000E+03 0.  1.
         -6    1    1    2    0  503  0.94155018434E+02 -0.39303824890E+02 -0.10635948312E+03  0.22650893536E+03  0.17200000000E+03 0. -1.
</event>
<event>
 4    1  0.4487206E+000  0.2081566E+03  0.7818608E-02  0.1143034E+00
         21   -1    0    0  503  502  0.00000000000E+00  0.00000000000E+00  0.35398707570E+03  0.35398707570E+03  0.00000000000E+00 0. -1.
         21   -1    0    0  501  503 -0.00000000000E+00 -0.00000000000E+00 -0.17741904220E+03  0.17741904220E+03  0.00000000000E+00 0.  1.
          6    1    1    2  501    0 -0.24190087605E+02 -0.11471700896E+03 -0.59674613971E+02  0.21654147879E+03  0.17200000000E+03 0.  1.
         -6    1    1    2    0  502  0.24190087605E+02  0.11471700896E+03  0.23624264747E+03  0.31486463912E+03  0.17200000000E+03 0. -1.
</event>
<event>
 4    1  0.4487206E+000  0.2292851E+03  0.7818608E-02  0.1127144E+00
         21   -1    0    0  501  502  0.00000000000E+00  0.00000000000E+00  0.58960002162E+03  0.58960002162E+03  0.00000000000E+00 0. -1.
         21   -1    0    0  502  503 -0.00000000000E+00 -0.00000000000E+00 -0.10977364043E+03  0.10977364043E+03  0.00000000000E+00 0.  1.
          6    1    1    2  501    0  0.13216868882E+03  0.74290602040E+02  0.39142812852E+03  0.45363822111E+03  0.17200000000E+03 0. -1.
         -6    1    1    2    0  503 -0.13216868882E+03 -0.74290602040E+02  0.88398252671E+02  0.24573544093E+03  0.17200000000E+03 0.  1.
</event>
<event>
 4    1  0.4487206E+000  0.1752984E+03  0.7818608E-02  0.1172432E+00
         21   -1    0    0  501  502  0.00000000000E+00  0.00000000000E+00  0.33684645650E+03  0.33684645650E+03  0.00000000000E+00 0.  1.
         21   -1    0    0  502  503 -0.00000000000E+00 -0.00000000000E+00 -0.17148906695E+03  0.17148906695E+03  0.00000000000E+00 0.  1.
          6    1    1    2  501    0  0.69408055698E+01 -0.33126218537E+02  0.25656171663E+03  0.31073048704E+03  0.17200000000E+03 0.  1.
         -6    1    1    2    0  503 -0.69408055698E+01  0.33126218537E+02 -0.91204327076E+02  0.19760503641E+03  0.17200000000E+03 0.  1.
</event>
<event>
 4    1  0.4487206E+000  0.2312920E+03  0.7818608E-02  0.1125734E+00
         21   -1    0    0  501  502  0.00000000000E+00  0.00000000000E+00  0.12445639329E+03  0.12445639329E+03  0.00000000000E+00 0. -1.
         21   -1    0    0  502  503 -0.00000000000E+00 -0.00000000000E+00 -0.43720636312E+03  0.43720636312E+03  0.00000000000E+00 0.  1.
          6    1    1    2  501    0 -0.20938520649E+02 -0.15321089810E+03 -0.19283428468E+03  0.30113296447E+03  0.17200000000E+03 0.  1.
         -6    1    1    2    0  503  0.20938520649E+02  0.15321089810E+03 -0.11991568515E+03  0.26052979194E+03  0.17200000000E+03 0. -1.
</event>
<event>
 4    1  0.4487206E+000  0.2541575E+03  0.7818608E-02  0.1110705E+00
         21   -1    0    0  501  502  0.00000000000E+00  0.00000000000E+00  0.98192799144E+03  0.98192799144E+03  0.00000000000E+00 0. -1.
         21   -1    0    0  502  503 -0.00000000000E+00 -0.00000000000E+00 -0.68097996826E+02  0.68097996826E+02  0.00000000000E+00 0. -1.
          6    1    1    2  501    0 -0.12548423218E+03 -0.13880109299E+03  0.36015414746E+03  0.44080272897E+03  0.17200000000E+03 0. -1.
         -6    1    1    2    0  503  0.12548423218E+03  0.13880109299E+03  0.55367584715E+03  0.60922325929E+03  0.17200000000E+03 0. -1.
</event>
<event>
 4    1  0.4487206E+000  0.2979749E+03  0.7818608E-02  0.1086257E+00
         21   -1    0    0  503  502  0.00000000000E+00  0.00000000000E+00  0.78582906227E+02  0.78582906227E+02  0.00000000000E+00 0.  1.
         21   -1    0    0  501  503 -0.00000000000E+00 -0.00000000000E+00 -0.13521070939E+04  0.13521070939E+04  0.00000000000E+00 0.  1.
          6    1    1    2  501    0 -0.14166718740E+03  0.19782684222E+03 -0.92677079143E+03  0.97349532681E+03  0.17200000000E+03 0.  1.
         -6    1    1    2    0  502  0.14166718740E+03 -0.19782684222E+03 -0.34675339621E+03  0.45719467327E+03  0.17200000000E+03 0.  1.
</event>
<event>
 4    1  0.4487206E+000  0.1901792E+03  0.7818608E-02  0.1158300E+00
         21   -1    0    0  503  502  0.00000000000E+00  0.00000000000E+00  0.10197151769E+04  0.10197151769E+04  0.00000000000E+00 0.  1.
         21   -1    0    0  501  503 -0.00000000000E+00 -0.00000000000E+00 -0.37111677718E+02  0.37111677718E+02  0.00000000000E+00 0.  1.
          6    1    1    2  501    0 -0.76341951321E+02  0.27496420943E+02  0.38012558075E+03  0.42504541385E+03  0.17200000000E+03 0.  1.
         -6    1    1    2    0  502  0.76341951321E+02 -0.27496420943E+02  0.60247791842E+03  0.63178144075E+03  0.17200000000E+03 0.  1.
</event>
<event>
 4    1  0.4487206E+000  0.1865496E+03  0.7818608E-02  0.1161611E+00
         21   -1    0    0  503  502  0.00000000000E+00  0.00000000000E+00  0.45634941739E+02  0.45634941739E+02  0.00000000000E+00 0.  1.
         21   -1    0    0  501  503 -0.00000000000E+00 -0.00000000000E+00 -0.16486685994E+04  0.16486685994E+04  0.00000000000E+00 0.  1.
          6    1    1    2  501    0  0.78117771857E+01 -0.71803487709E+02 -0.14225725768E+04  0.14347520695E+04  0.17200000000E+03 0.  1.
         -6    1    1    2    0  502 -0.78117771857E+01  0.71803487709E+02 -0.18046108082E+03  0.25955147158E+03  0.17200000000E+03 0.  1.
</event>
<event>
 4    1  0.4487206E+000  0.1744013E+03  0.7818608E-02  0.1173334E+00
         21   -1    0    0  503  502  0.00000000000E+00  0.00000000000E+00  0.57299688704E+02  0.57299688704E+02  0.00000000000E+00 0.  1.
         21   -1    0    0  501  503 -0.00000000000E+00 -0.00000000000E+00 -0.87064472628E+03  0.87064472628E+03  0.00000000000E+00 0.  1.
          6    1    1    2  501    0 -0.85620445628E+01 -0.27541063971E+02 -0.69653966129E+03  0.71804130700E+03  0.17200000000E+03 0.  1.
         -6    1    1    2    0  502  0.85620445628E+01  0.27541063971E+02 -0.11680537629E+03  0.20990310799E+03  0.17200000000E+03 0.  1.
</event>
<event>
 4    1  0.4487206E+000  0.1778427E+03  0.7818608E-02  0.1169907E+00
         21   -1    0    0  501  502  0.00000000000E+00  0.00000000000E+00  0.25223627047E+03  0.25223627047E+03  0.00000000000E+00 0.  1.
         21   -1    0    0  502  503 -0.00000000000E+00 -0.00000000000E+00 -0.12757898419E+03  0.12757898419E+03  0.00000000000E+00 0.  1.
          6    1    1    2  501    0  0.26983272414E+02  0.36275903912E+02  0.87201297603E+02  0.19807095824E+03  0.17200000000E+03 0.  1.
         -6    1    1    2    0  503 -0.26983272414E+02 -0.36275903912E+02  0.37455988681E+02  0.18174429642E+03  0.17200000000E+03 0.  1.
</event>
<event>
 4    1  0.4487206E+000  0.1722114E+03  0.7818608E-02  0.1175561E+00
         21   -1    0    0  501  502  0.00000000000E+00  0.00000000000E+00  0.42271743322E+03  0.42271743322E+03  0.00000000000E+00 0.  1.
         21   -1    0    0  502  503 -0.00000000000E+00 -0.00000000000E+00 -0.11008799498E+03  0.11008799498E+03  0.00000000000E+00 0.  1.
          6    1    1    2  501    0  0.59324505127E+01  0.61284115385E+01  0.31675802970E+03  0.36054458917E+03  0.17200000000E+03 0.  1.
         -6    1    1    2    0  503 -0.59324505127E+01 -0.61284115385E+01 -0.41285914643E+01  0.17226083903E+03  0.17200000000E+03 0.  1.
</event>
<event>
 4    1  0.4487206E+000  0.2397867E+03  0.7818608E-02  0.1119935E+00
         21   -1    0    0  501  502  0.00000000000E+00  0.00000000000E+00  0.68325650713E+03  0.68325650713E+03  0.00000000000E+00 0. -1.
         21   -1    0    0  502  503 -0.00000000000E+00 -0.00000000000E+00 -0.89677670988E+02  0.89677670988E+02  0.00000000000E+00 0. -1.
          6    1    1    2  501    0  0.48967216665E+02  0.15973691499E+03  0.39271786425E+03  0.46013583997E+03  0.17200000000E+03 0. -1.
         -6    1    1    2    0  503 -0.48967216665E+02 -0.15973691499E+03  0.20086097188E+03  0.31279833814E+03  0.17200000000E+03 0. -1.
</event>
<event>
 4    1  0.4487206E+000  0.2237847E+03  0.7818608E-02  0.1131092E+00
         21   -1    0    0  503  502  0.00000000000E+00  0.00000000000E+00  0.28313823435E+03  0.28313823435E+03  0.00000000000E+00 0.  1.
         21   -1    0    0  501  503 -0.00000000000E+00 -0.00000000000E+00 -0.45180775431E+03  0.45180775431E+03  0.00000000000E+00 0. -1.
          6    1    1    2  501    0  0.14185509685E+03 -0.19305794773E+02 -0.37099219112E+03  0.43326064683E+03  0.17200000000E+03 0. -1.
         -6    1    1    2    0  502 -0.14185509685E+03  0.19305794773E+02  0.20232267117E+03  0.30168534184E+03  0.17200000000E+03 0.  1.
</event>
<event>
 4    1  0.4487206E+000  0.2007315E+03  0.7818608E-02  0.1149123E+00
         21   -1    0    0  503  502  0.00000000000E+00  0.00000000000E+00  0.15975636819E+03  0.15975636819E+03  0.00000000000E+00 0.  1.
         21   -1    0    0  501  503 -0.00000000000E+00 -0.00000000000E+00 -0.42525595916E+03  0.42525595916E+03  0.00000000000E+00 0.  1.
          6    1    1    2  501    0  0.66730670616E+02  0.79095902491E+02 -0.31933739103E+03  0.37718631139E+03  0.17200000000E+03 0.  1.
         -6    1    1    2    0  502 -0.66730670616E+02 -0.79095902491E+02  0.53837800059E+02  0.20782601595E+03  0.17200000000E+03 0.  1.
</event>
<event>
 4    1  0.4487206E+000  0.1738833E+03  0.7818608E-02  0.1173858E+00
         21   -1    0    0  501  502  0.00000000000E+00  0.00000000000E+00  0.21942828557E+03  0.21942828557E+03  0.00000000000E+00 0.  1.
         21   -1    0    0  502  503 -0.00000000000E+00 -0.00000000000E+00 -0.17490296806E+03  0.17490296806E+03  0.00000000000E+00 0.  1.
          6    1    1    2  501    0 -0.15851649219E+02  0.20003292475E+02 -0.68558124817E+02  0.18691073530E+03  0.17200000000E+03 0.  1.
         -6    1    1    2    0  503  0.15851649219E+02 -0.20003292475E+02  0.11308344233E+03  0.20742051833E+03  0.17200000000E+03 0.  1.
</event>
<event>
 4    1  0.4487206E+000  0.1843128E+03  0.7818608E-02  0.1163693E+00
         21   -1    0    0  503  502  0.00000000000E+00  0.00000000000E+00  0.29594090822E+03  0.29594090822E+03  0.00000000000E+00 0.  1.
         21   -1    0    0  501  503 -0.00000000000E+00 -0.00000000000E+00 -0.12007708593E+03  0.12007708593E+03  0.00000000000E+00 0.  1.
          6    1    1    2  501    0 -0.61676183623E+02  0.24150948123E+02  0.44286599105E+02  0.18955875812E+03  0.17200000000E+03 0.  1.
         -6    1    1    2    0  502  0.61676183623E+02 -0.24150948123E+02  0.13157722319E+03  0.22645923603E+03  0.17200000000E+03 0.  1.
</event>
<event>
 4    1  0.4487206E+000  0.1811591E+03  0.7818608E-02  0.1166686E+00
         21   -1    0    0  501  502  0.00000000000E+00  0.00000000000E+00  0.69585047114E+03  0.69585047114E+03  0.00000000000E+00 0. -1.
         21   -1    0    0  502  503 -0.00000000000E+00 -0.00000000000E+00 -0.23953167037E+03  0.23953167037E+03  0.00000000000E+00 0. -1.
          6    1    1    2  501    0  0.50106114840E+02  0.26907047370E+02  0.64728523163E+03  0.67215830206E+03  0.17200000000E+03 0. -1.
         -6    1    1    2    0  503 -0.50106114840E+02 -0.26907047370E+02 -0.19096643086E+03  0.26322383945E+03  0.17200000000E+03 0. -1.
</event>
<event>
 4    1  0.4487206E+000  0.2375442E+03  0.7818608E-02  0.1121440E+00
         21   -1    0    0  503  502  0.00000000000E+00  0.00000000000E+00  0.11250602969E+03  0.11250602969E+03  0.00000000000E+00 0.  1.
         21   -1    0    0  501  503 -0.00000000000E+00 -0.00000000000E+00 -0.51320646984E+03  0.51320646984E+03  0.00000000000E+00 0. -1.
          6    1    1    2  501    0  0.11191400372E+03  0.11965985855E+03 -0.24750339882E+03  0.34305270500E+03  0.17200000000E+03 0. -1.
         -6    1    1    2    0  502 -0.11191400372E+03 -0.11965985855E+03 -0.15319704132E+03  0.28265979453E+03  0.17200000000E+03 0.  1.
</event>
<event>
 4    1  0.4487206E+000  0.1791460E+03  0.7818608E-02  0.1168632E+00
         21   -1    0    0  501  502  0.00000000000E+00  0.00000000000E+00  0.42854092089E+02  0.42854092089E+02  0.00000000000E+00 0. -1.
         21   -1    0    0  502  503 -0.00000000000E+00 -0.00000000000E+00 -0.17673203066E+04  0.17673203066E+04  0.00000000000E+00 0. -1.
          6    1    1    2  501    0 -0.31700250251E+02 -0.38786571286E+02 -0.17516950995E+03  0.25055470699E+03  0.17200000000E+03 0. -1.
         -6    1    1    2    0  503  0.31700250251E+02  0.38786571286E+02 -0.15492967045E+04  0.15596196917E+04  0.17200000000E+03 0. -1.
</event>
<event>
 4    1  0.4487206E+000  0.2099549E+03  0.7818608E-02  0.1141602E+00
         21   -1    0    0  503  502  0.00000000000E+00  0.00000000000E+00  0.53308267175E+03  0.53308267175E+03  0.00000000000E+00 0. -1.
         21   -1    0    0  501  503 -0.00000000000E+00 -0.00000000000E+00 -0.98852757884E+02  0.98852757884E+02  0.00000000000E+00 0.  1.
          6    1    1    2  501    0 -0.11010823308E+03  0.48715893314E+02  0.89355052823E+02  0.22817840984E+03  0.17200000000E+03 0.  1.
         -6    1    1    2    0  502  0.11010823308E+03 -0.48715893314E+02  0.34487486104E+03  0.40375701979E+03  0.17200000000E+03 0. -1.
</event>
<event>
 4    1  0.4487206E+000  0.2239618E+03  0.7818608E-02  0.1130963E+00
         21   -1    0    0  503  502  0.00000000000E+00  0.00000000000E+00  0.74639055007E+03  0.74639055007E+03  0.00000000000E+00 0. -1.
         21   -1    0    0  501  503 -0.00000000000E+00 -0.00000000000E+00 -0.18322384677E+03  0.18322384677E+03  0.00000000000E+00 0. -1.
          6    1    1    2  501    0  0.12464111444E+03  0.70989239141E+02 -0.88289009736E+02  0.24073601459E+03  0.17200000000E+03 0. -1.
         -6    1    1    2    0  502 -0.12464111444E+03 -0.70989239141E+02  0.65145571304E+03  0.68887838225E+03  0.17200000000E+03 0. -1.
</event>
<event>
 4    1  0.4487206E+000  0.2006546E+03  0.7818608E-02  0.1149188E+00
         21   -1    0    0  501  502  0.00000000000E+00  0.00000000000E+00  0.10196696272E+04  0.10196696272E+04  0.00000000000E+00 0. -1.
         21   -1    0    0  502  503 -0.00000000000E+00 -0.00000000000E+00 -0.11055074875E+03  0.11055074875E+03  0.00000000000E+00 0. -1.
          6    1    1    2  501    0  0.89616872826E+02  0.51449923228E+02  0.90764538719E+03  0.92956034090E+03  0.17200000000E+03 0. -1.
         -6    1    1    2    0  503 -0.89616872826E+02 -0.51449923228E+02  0.14734912837E+01  0.20066003506E+03  0.17200000000E+03 0. -1.
</event>
<event>
 4    1  0.4487206E+000  0.1891314E+03  0.7818608E-02  0.1159247E+00
         21   -1    0    0  501  502  0.00000000000E+00  0.00000000000E+00  0.64892955537E+02  0.64892955537E+02  0.00000000000E+00 0.  1.
         21   -1    0    0  502  503 -0.00000000000E+00 -0.00000000000E+00 -0.55607794902E+03  0.55607794902E+03  0.00000000000E+00 0.  1.
          6    1    1    2  501    0 -0.68975280569E+02  0.37803291773E+02 -0.27459501762E+03  0.33342630655E+03  0.17200000000E+03 0.  1.
         -6    1    1    2    0  503  0.68975280569E+02 -0.37803291773E+02 -0.21658997586E+03  0.28754459801E+03  0.17200000000E+03 0.  1.
</event>
<event>
 4    1  0.4487206E+000  0.1938278E+03  0.7818608E-02  0.1155054E+00
         21   -1    0    0  503  502  0.00000000000E+00  0.00000000000E+00  0.32177035017E+03  0.32177035017E+03  0.00000000000E+00 0.  1.
         21   -1    0    0  501  503 -0.00000000000E+00 -0.00000000000E+00 -0.17810147285E+03  0.17810147285E+03  0.00000000000E+00 0.  1.
          6    1    1    2  501    0 -0.21812603031E+02 -0.86656900929E+02 -0.74848527681E+02  0.20777754986E+03  0.17200000000E+03 0.  1.
         -6    1    1    2    0  502  0.21812603031E+02  0.86656900929E+02  0.21851740500E+03  0.29209427317E+03  0.17200000000E+03 0.  1.
</event>
<event>
 4    1  0.4487206E+000  0.1879599E+03  0.7818608E-02  0.1160314E+00
         21   -1    0    0  501  502  0.00000000000E+00  0.00000000000E+00  0.20862188219E+04  0.20862188219E+04  0.00000000000E+00 0.  1.
         21   -1    0    0  502  503 -0.00000000000E+00 -0.00000000000E+00 -0.35168639201E+02  0.35168639201E+02  0.00000000000E+00 0.  1.
          6    1    1    2  501    0  0.69511833739E+02  0.30216634877E+02  0.17892828051E+04  0.17991280934E+04  0.17200000000E+03 0.  1.
         -6    1    1    2    0  503 -0.69511833739E+02 -0.30216634877E+02  0.26176737757E+03  0.32225936761E+03  0.17200000000E+03 0.  1.
</event>
<event>
 4    1  0.4487206E+000  0.2359712E+03  0.7818608E-02  0.1122506E+00
         21   -1    0    0  503  502  0.00000000000E+00  0.00000000000E+00  0.39980437334E+03  0.39980437334E+03  0.00000000000E+00 0.  1.
         21   -1    0    0  501  503 -0.00000000000E+00 -0.00000000000E+00 -0.14342517395E+03  0.14342517395E+03  0.00000000000E+00 0.  1.
          6    1    1    2  501    0  0.13727837428E+03 -0.85164806399E+02  0.81981227864E+02  0.24980656119E+03  0.17200000000E+03 0.  1.
         -6    1    1    2    0  502 -0.13727837428E+03  0.85164806399E+02  0.17439797153E+03  0.29342298609E+03  0.17200000000E+03 0.  1.
</event>
<event>
 4    1  0.4487206E+000  0.1895657E+03  0.7818608E-02  0.1158854E+00
         21   -1    0    0  501  502  0.00000000000E+00  0.00000000000E+00  0.83056402330E+03  0.83056402330E+03  0.00000000000E+00 0.  1.
         21   -1    0    0  502  503 -0.00000000000E+00 -0.00000000000E+00 -0.91531191765E+02  0.91531191765E+02  0.00000000000E+00 0.  1.
          6    1    1    2  501    0 -0.55532847896E+02 -0.57159786615E+02  0.70431103849E+03  0.72937588206E+03  0.17200000000E+03 0.  1.
         -6    1    1    2    0  503  0.55532847896E+02  0.57159786615E+02  0.34721793052E+02  0.19271933301E+03  0.17200000000E+03 0.  1.
</event>
<event>
 4    1  0.4487206E+000  0.3225328E+03  0.7818608E-02  0.1074490E+00
         21   -1    0    0  503  502  0.00000000000E+00  0.00000000000E+00  0.43690680483E+03  0.43690680483E+03  0.00000000000E+00 0.  1.
         21   -1    0    0  501  503 -0.00000000000E+00 -0.00000000000E+00 -0.24916535524E+03  0.24916535524E+03  0.00000000000E+00 0. -1.
          6    1    1    2  501    0 -0.26757853792E+03  0.53339789745E+02  0.16616156698E+03  0.36281823751E+03  0.17200000000E+03 0.  1.
         -6    1    1    2    0  502  0.26757853792E+03 -0.53339789745E+02  0.21579882606E+02  0.32325392257E+03  0.17200000000E+03 0. -1.
</event>
<event>
 4    1  0.4487206E+000  0.2309069E+03  0.7818608E-02  0.1126003E+00
         21   -1    0    0  503  502  0.00000000000E+00  0.00000000000E+00  0.83971610210E+02  0.83971610210E+02  0.00000000000E+00 0. -1.
         21   -1    0    0  501  503 -0.00000000000E+00 -0.00000000000E+00 -0.70089893095E+03  0.70089893095E+03  0.00000000000E+00 0.  1.
          6    1    1    2  501    0 -0.11414070852E+03 -0.10346938403E+03 -0.42883823605E+03  0.48705261263E+03  0.17200000000E+03 0.  1.
         -6    1    1    2    0  502  0.11414070852E+03  0.10346938403E+03 -0.18808908469E+03  0.29781792853E+03  0.17200000000E+03 0.  1.
</event>
<event>
 4    1  0.4487206E+000  0.1790456E+03  0.7818608E-02  0.1168730E+00
         21   -1    0    0  501  502  0.00000000000E+00  0.00000000000E+00  0.66999554522E+02  0.66999554522E+02  0.00000000000E+00 0. -1.
         21   -1    0    0  502  503 -0.00000000000E+00 -0.00000000000E+00 -0.50219956789E+03  0.50219956789E+03  0.00000000000E+00 0.  1.
          6    1    1    2  501    0  0.47477257063E+02 -0.14806551862E+02 -0.15573649836E+03  0.23729976999E+03  0.17200000000E+03 0. -1.
         -6    1    1    2    0  503 -0.47477257063E+02  0.14806551862E+02 -0.27946351501E+03  0.33189935242E+03  0.17200000000E+03 0.  1.
</event>
<event>
 4    1  0.4487206E+000  0.1836804E+03  0.7818608E-02  0.1164288E+00
         21   -1    0    0  503  502  0.00000000000E+00  0.00000000000E+00  0.51636563152E+02  0.51636563152E+02  0.00000000000E+00 0. -1.
         21   -1    0    0  501  503 -0.00000000000E+00 -0.00000000000E+00 -0.76291892965E+03  0.76291892965E+03  0.00000000000E+00 0. -1.
          6    1    1    2  501    0  0.61028178690E+02  0.20737635258E+02 -0.50996338798E+03  0.54203426570E+03  0.17200000000E+03 0. -1.
         -6    1    1    2    0  502 -0.61028178690E+02 -0.20737635258E+02 -0.20131897851E+03  0.27252122710E+03  0.17200000000E+03 0. -1.
</event>
<event>
 4    1  0.4487206E+000  0.1841804E+03  0.7818608E-02  0.1163818E+00
         21   -1    0    0  503  502  0.00000000000E+00  0.00000000000E+00  0.18457744823E+04  0.18457744823E+04  0.00000000000E+00 0. -1.
         21   -1    0    0  501  503 -0.00000000000E+00 -0.00000000000E+00 -0.18398689444E+02  0.18398689444E+02  0.00000000000E+00 0.  1.
          6    1    1    2  501    0  0.60080837456E+02 -0.26994365458E+02  0.94463184908E+03  0.96241972813E+03  0.17200000000E+03 0. -1.
         -6    1    1    2    0  502 -0.60080837456E+02  0.26994365458E+02  0.88274394375E+03  0.90175344359E+03  0.17200000000E+03 0.  1.
</event>
<event>
 4    1  0.4487206E+000  0.1884772E+03  0.7818608E-02  0.1159842E+00
         21   -1    0    0  503  502  0.00000000000E+00  0.00000000000E+00  0.15806049678E+04  0.15806049678E+04  0.00000000000E+00 0. -1.
         21   -1    0    0  501  503 -0.00000000000E+00 -0.00000000000E+00 -0.24455440737E+02  0.24455440737E+02  0.00000000000E+00 0. -1.
          6    1    1    2  501    0 -0.10661137185E+02 -0.76328188014E+02  0.10064691360E+04  0.10239647327E+04  0.17200000000E+03 0. -1.
         -6    1    1    2    0  502  0.10661137185E+02  0.76328188014E+02  0.54968039101E+03  0.58109567577E+03  0.17200000000E+03 0. -1.
</event>
<event>
 4    1  0.4487206E+000  0.1780999E+03  0.7818608E-02  0.1169655E+00
         21   -1    0    0  503  502  0.00000000000E+00  0.00000000000E+00  0.64614071665E+03  0.64614071665E+03  0.00000000000E+00 0.  1.
         21   -1    0    0  501  503 -0.00000000000E+00 -0.00000000000E+00 -0.52105962144E+02  0.52105962144E+02  0.00000000000E+00 0.  1.
          6    1    1    2  501    0 -0.42925280437E+02 -0.17116823729E+02  0.21303456076E+03  0.27767479078E+03  0.17200000000E+03 0.  1.
         -6    1    1    2    0  502  0.42925280437E+02  0.17116823729E+02  0.38100019374E+03  0.42057188801E+03  0.17200000000E+03 0.  1.
</event>
<event>
 4    1  0.4487206E+000  0.2468037E+03  0.7818608E-02  0.1115342E+00
         21   -1    0    0  503  502  0.00000000000E+00  0.00000000000E+00  0.36718157296E+03  0.36718157296E+03  0.00000000000E+00 0. -1.
         21   -1    0    0  501  503 -0.00000000000E+00 -0.00000000000E+00 -0.20565848885E+03  0.20565848885E+03  0.00000000000E+00 0.  1.
          6    1    1    2  501    0  0.17568016259E+03 -0.21553144846E+02 -0.45187553831E+02  0.25090630244E+03  0.17200000000E+03 0. -1.
         -6    1    1    2    0  502 -0.17568016259E+03  0.21553144846E+02  0.20671063794E+03  0.32193375937E+03  0.17200000000E+03 0. -1.
</event>
<event>
 4    1  0.4487206E+000  0.1806631E+03  0.7818608E-02  0.1167163E+00
         21   -1    0    0  503  502  0.00000000000E+00  0.00000000000E+00  0.24811697228E+03  0.24811697228E+03  0.00000000000E+00 0. -1.
         21   -1    0    0  501  503 -0.00000000000E+00 -0.00000000000E+00 -0.21543555967E+03  0.21543555967E+03  0.00000000000E+00 0. -1.
          6    1    1    2  501    0  0.40064547811E+02 -0.38078592570E+02 -0.12829001519E+03  0.22157950086E+03  0.17200000000E+03 0. -1.
         -6    1    1    2    0  502 -0.40064547811E+02  0.38078592570E+02  0.16097142781E+03  0.24197303109E+03  0.17200000000E+03 0. -1.
</event>
<event>
 4    1  0.4487206E+000  0.2949909E+03  0.7818608E-02  0.1087772E+00
         21   -1    0    0  503  502  0.00000000000E+00  0.00000000000E+00  0.22900189598E+04  0.22900189598E+04  0.00000000000E+00 0.  1.
         21   -1    0    0  501  503 -0.00000000000E+00 -0.00000000000E+00 -0.52875266420E+02  0.52875266420E+02  0.00000000000E+00 0.  1.
          6    1    1    2  501    0  0.22989992707E+03  0.67687901142E+02  0.49722265213E+03  0.57814357578E+03  0.17200000000E+03 0.  1.
         -6    1    1    2    0  502 -0.22989992707E+03 -0.67687901142E+02  0.17399210412E+04  0.17647506504E+04  0.17200000000E+03 0.  1.
</event>
<event>
 4    1  0.4487206E+000  0.1730792E+03  0.7818608E-02  0.1174674E+00
         21   -1    0    0  501  502  0.00000000000E+00  0.00000000000E+00  0.14227511976E+03  0.14227511976E+03  0.00000000000E+00 0. -1.
         21   -1    0    0  502  503 -0.00000000000E+00 -0.00000000000E+00 -0.23044831841E+03  0.23044831841E+03  0.00000000000E+00 0. -1.
          6    1    1    2  501    0  0.19142837444E+02  0.24403053716E+01  0.10671607392E+02  0.17340786176E+03  0.17200000000E+03 0. -1.
         -6    1    1    2    0  503 -0.19142837444E+02 -0.24403053716E+01 -0.98844806043E+02  0.19931557640E+03  0.17200000000E+03 0. -1.
</event>
<event>
 4    1  0.4487206E+000  0.2186364E+03  0.7818608E-02  0.1134904E+00
         21   -1    0    0  503  502  0.00000000000E+00  0.00000000000E+00  0.69922093111E+02  0.69922093111E+02  0.00000000000E+00 0. -1.
         21   -1    0    0  501  503 -0.00000000000E+00 -0.00000000000E+00 -0.12386897407E+04  0.12386897407E+04  0.00000000000E+00 0.  1.
          6    1    1    2  501    0  0.59963838490E+01 -0.13484030525E+03 -0.10223733368E+04  0.10454898873E+04  0.17200000000E+03 0.  1.
         -6    1    1    2    0  502 -0.59963838490E+01  0.13484030525E+03 -0.14639431083E+03  0.26312194660E+03  0.17200000000E+03 0. -1.
</event>
<event>
 4    1  0.4487206E+000  0.2074198E+03  0.7818608E-02  0.1143626E+00
         21   -1    0    0  503  502  0.00000000000E+00  0.00000000000E+00  0.19514072016E+03  0.19514072016E+03  0.00000000000E+00 0.  1.
         21   -1    0    0  501  503 -0.00000000000E+00 -0.00000000000E+00 -0.22072347927E+03  0.22072347927E+03  0.00000000000E+00 0.  1.
          6    1    1    2  501    0  0.64680165318E+01 -0.11574598434E+03 -0.19816858723E+02  0.20836428681E+03  0.17200000000E+03 0. -1.
         -6    1    1    2    0  502 -0.64680165318E+01  0.11574598434E+03 -0.57659003879E+01  0.20749991262E+03  0.17200000000E+03 0. -1.
</event>
<event>
 4    1  0.4487206E+000  0.1738383E+03  0.7818608E-02  0.1173903E+00
         21   -1    0    0  503  502  0.00000000000E+00  0.00000000000E+00  0.46886623865E+02  0.46886623865E+02  0.00000000000E+00 0. -1.
         21   -1    0    0  501  503 -0.00000000000E+00 -0.00000000000E+00 -0.64948892904E+03  0.64948892904E+03  0.00000000000E+00 0. -1.
          6    1    1    2  501    0 -0.15385820597E+02 -0.19975641749E+02 -0.33173114468E+03  0.37452009571E+03  0.17200000000E+03 0. -1.
         -6    1    1    2    0  502  0.15385820597E+02  0.19975641749E+02 -0.27087116049E+03  0.32185545719E+03  0.17200000000E+03 0. -1.
</event>
<event>
 4    1  0.4487206E+000  0.2066687E+03  0.7818608E-02  0.1144231E+00
         21   -1    0    0  503  502  0.00000000000E+00  0.00000000000E+00  0.67231696303E+03  0.67231696303E+03  0.00000000000E+00 0. -1.
         21   -1    0    0  501  503 -0.00000000000E+00 -0.00000000000E+00 -0.69295059490E+02  0.69295059490E+02  0.00000000000E+00 0.  1.
          6    1    1    2  501    0  0.25690078358E+02  0.11166012521E+03  0.40846966768E+03  0.45777661922E+03  0.17200000000E+03 0. -1.
         -6    1    1    2    0  502 -0.25690078358E+02 -0.11166012521E+03  0.19455223585E+03  0.28383540329E+03  0.17200000000E+03 0.  1.
</event>
<event>
 4    1  0.4487206E+000  0.2192092E+03  0.7818608E-02  0.1134474E+00
         21   -1    0    0  503  502  0.00000000000E+00  0.00000000000E+00  0.16640760755E+04  0.16640760755E+04  0.00000000000E+00 0. -1.
         21   -1    0    0  501  503 -0.00000000000E+00 -0.00000000000E+00 -0.44705178719E+02  0.44705178719E+02  0.00000000000E+00 0.  1.
          6    1    1    2  501    0 -0.58126298321E+02 -0.12284142249E+03  0.30129195725E+03  0.37259834291E+03  0.17200000000E+03 0.  1.
         -6    1    1    2    0  502  0.58126298321E+02  0.12284142249E+03  0.13180789395E+04  0.13361829113E+04  0.17200000000E+03 0. -1.
</event>
<event>
 4    1  0.4487206E+000  0.2433269E+03  0.7818608E-02  0.1117596E+00
         21   -1    0    0  501  502  0.00000000000E+00  0.00000000000E+00  0.52182104128E+03  0.52182104128E+03  0.00000000000E+00 0.  1.
         21   -1    0    0  502  503 -0.00000000000E+00 -0.00000000000E+00 -0.11354224529E+03  0.11354224529E+03  0.00000000000E+00 0.  1.
          6    1    1    2  501    0  0.14651066567E+03  0.90324946466E+02  0.21247194854E+03  0.32303606614E+03  0.17200000000E+03 0.  1.
         -6    1    1    2    0  503 -0.14651066567E+03 -0.90324946466E+02  0.19580684746E+03  0.31232722043E+03  0.17200000000E+03 0.  1.
</event>
<event>
 4    1  0.4487206E+000  0.2070493E+03  0.7818608E-02  0.1143924E+00
         21   -1    0    0  503  502  0.00000000000E+00  0.00000000000E+00  0.52414993847E+02  0.52414993847E+02  0.00000000000E+00 0.  1.
         21   -1    0    0  501  503 -0.00000000000E+00 -0.00000000000E+00 -0.10750580581E+04  0.10750580581E+04  0.00000000000E+00 0.  1.
          6    1    1    2  501    0 -0.11523973324E+03 -0.22866702668E+01 -0.78704462886E+03  0.81382348995E+03  0.17200000000E+03 0.  1.
         -6    1    1    2    0  502  0.11523973324E+03  0.22866702668E+01 -0.23559843538E+03  0.31364956198E+03  0.17200000000E+03 0.  1.
</event>
<event>
 4    1  0.4487206E+000  0.1904456E+03  0.7818608E-02  0.1158060E+00
         21   -1    0    0  501  502  0.00000000000E+00  0.00000000000E+00  0.59263797352E+03  0.59263797352E+03  0.00000000000E+00 0.  1.
         21   -1    0    0  502  503 -0.00000000000E+00 -0.00000000000E+00 -0.70136999572E+02  0.70136999572E+02  0.00000000000E+00 0.  1.
          6    1    1    2  501    0  0.73997699759E+02  0.34783135397E+02  0.37954238934E+03  0.42464332255E+03  0.17200000000E+03 0.  1.
         -6    1    1    2    0  503 -0.73997699759E+02 -0.34783135397E+02  0.14295858461E+03  0.23813165054E+03  0.17200000000E+03 0.  1.
</event>
<event>
 4    1  0.4487206E+000  0.2302637E+03  0.7818608E-02  0.1126454E+00
         21   -1    0    0  501  502  0.00000000000E+00  0.00000000000E+00  0.27603306080E+03  0.27603306080E+03  0.00000000000E+00 0. -1.
         21   -1    0    0  502  503 -0.00000000000E+00 -0.00000000000E+00 -0.26513280536E+03  0.26513280536E+03  0.00000000000E+00 0.  1.
          6    1    1    2  501    0 -0.71936673103E+02  0.13513884997E+03  0.14747903352E+03  0.27344370360E+03  0.17200000000E+03 0. -1.
         -6    1    1    2    0  503  0.71936673103E+02 -0.13513884997E+03 -0.13657877808E+03  0.26772216257E+03  0.17200000000E+03 0.  1.
</event>
<event>
 4    1  0.4487206E+000  0.2411098E+03  0.7818608E-02  0.1119056E+00
         21   -1    0    0  501  502  0.00000000000E+00  0.00000000000E+00  0.75129600980E+03  0.75129600980E+03  0.00000000000E+00 0. -1.
         21   -1    0    0  502  503 -0.00000000000E+00 -0.00000000000E+00 -0.90914265017E+02  0.90914265017E+02  0.00000000000E+00 0. -1.
          6    1    1    2  501    0 -0.36659923903E+02 -0.16494236084E+03  0.49267866915E+03  0.54851271950E+03  0.17200000000E+03 0. -1.
         -6    1    1    2    0  503  0.36659923903E+02  0.16494236084E+03  0.16770307563E+03  0.29369755531E+03  0.17200000000E+03 0. -1.
</event>
<event>
 4    1  0.4487206E+000  0.2019606E+03  0.7818608E-02  0.1148095E+00
         21   -1    0    0  501  502  0.00000000000E+00  0.00000000000E+00  0.72554612054E+02  0.72554612054E+02  0.00000000000E+00 0. -1.
         21   -1    0    0  502  503 -0.00000000000E+00 -0.00000000000E+00 -0.56228060082E+03  0.56228060082E+03  0.00000000000E+00 0. -1.
          6    1    1    2  501    0 -0.88639944537E+02 -0.57853671751E+02 -0.24042812425E+03  0.31399644908E+03  0.17200000000E+03 0. -1.
         -6    1    1    2    0  503  0.88639944537E+02  0.57853671751E+02 -0.24929786451E+03  0.32083876380E+03  0.17200000000E+03 0. -1.
</event>
<event>
 4    1  0.4487206E+000  0.1959165E+03  0.7818608E-02  0.1153231E+00
         21   -1    0    0  503  502  0.00000000000E+00  0.00000000000E+00  0.23541936582E+03  0.23541936582E+03  0.00000000000E+00 0.  1.
         21   -1    0    0  501  503 -0.00000000000E+00 -0.00000000000E+00 -0.16625829730E+03  0.16625829730E+03  0.00000000000E+00 0.  1.
          6    1    1    2  501    0  0.22367873108E+02 -0.91098610850E+02  0.66471054714E+01  0.19602923929E+03  0.17200000000E+03 0. -1.
         -6    1    1    2    0  502 -0.22367873108E+02  0.91098610850E+02  0.62513963046E+02  0.20564842383E+03  0.17200000000E+03 0. -1.
</event>
<event>
 4    1  0.4487206E+000  0.1754181E+03  0.7818608E-02  0.1172313E+00
         21   -1    0    0  501  502  0.00000000000E+00  0.00000000000E+00  0.24713603894E+03  0.24713603894E+03  0.00000000000E+00 0. -1.
         21   -1    0    0  502  503 -0.00000000000E+00 -0.00000000000E+00 -0.25672524260E+03  0.25672524260E+03  0.00000000000E+00 0. -1.
          6    1    1    2  501    0  0.23871617447E+02 -0.24853007788E+02  0.17599912675E+03  0.24848987652E+03  0.17200000000E+03 0. -1.
         -6    1    1    2    0  503 -0.23871617447E+02  0.24853007788E+02 -0.18558833042E+03  0.25537140502E+03  0.17200000000E+03 0. -1.
</event>
<event>
 4    1  0.4487206E+000  0.3140610E+03  0.7818608E-02  0.1078416E+00
         21   -1    0    0  501  502  0.00000000000E+00  0.00000000000E+00  0.16178849190E+03  0.16178849190E+03  0.00000000000E+00 0. -1.
         21   -1    0    0  502  503 -0.00000000000E+00 -0.00000000000E+00 -0.70639740435E+03  0.70639740435E+03  0.00000000000E+00 0.  1.
          6    1    1    2  501    0  0.25847418156E+03 -0.47343437410E+02 -0.11165526453E+03  0.33331846888E+03  0.17200000000E+03 0. -1.
         -6    1    1    2    0  503 -0.25847418156E+03  0.47343437410E+02 -0.43295364793E+03  0.53486742737E+03  0.17200000000E+03 0.  1.
</event>
<event>
 4    1  0.4487206E+000  0.2055173E+03  0.7818608E-02  0.1145166E+00
         21   -1    0    0  501  502  0.00000000000E+00  0.00000000000E+00  0.81624255848E+03  0.81624255848E+03  0.00000000000E+00 0. -1.
         21   -1    0    0  502  503 -0.00000000000E+00 -0.00000000000E+00 -0.61811545205E+02  0.61811545205E+02  0.00000000000E+00 0. -1.
          6    1    1    2  501    0 -0.10701887577E+03 -0.34645902066E+02  0.55437838644E+03  0.59124679589E+03  0.17200000000E+03 0.  1.
         -6    1    1    2    0  503  0.10701887577E+03  0.34645902066E+02  0.20005262684E+03  0.28680730780E+03  0.17200000000E+03 0.  1.
</event>
<event>
 4    1  0.4487206E+000  0.1967850E+03  0.7818608E-02  0.1152480E+00
         21   -1    0    0  503  502  0.00000000000E+00  0.00000000000E+00  0.12932858301E+03  0.12932858301E+03  0.00000000000E+00 0. -1.
         21   -1    0    0  501  503 -0.00000000000E+00 -0.00000000000E+00 -0.36360776128E+03  0.36360776128E+03  0.00000000000E+00 0.  1.
          6    1    1    2  501    0 -0.31318302328E+02 -0.90329955057E+02 -0.22068960690E+03  0.29568266678E+03  0.17200000000E+03 0. -1.
         -6    1    1    2    0  502  0.31318302328E+02  0.90329955057E+02 -0.13589571381E+02  0.19725367751E+03  0.17200000000E+03 0.  1.
</event>
<event>
 4    1  0.4487206E+000  0.2648749E+03  0.7818608E-02  0.1104249E+00
         21   -1    0    0  503  502  0.00000000000E+00  0.00000000000E+00  0.23781734678E+03  0.23781734678E+03  0.00000000000E+00 0.  1.
         21   -1    0    0  501  503 -0.00000000000E+00 -0.00000000000E+00 -0.46852622433E+03  0.46852622433E+03  0.00000000000E+00 0.  1.
          6    1    1    2  501    0  0.18981958132E+03 -0.67403618566E+02 -0.33027991878E+03  0.42337164052E+03  0.17200000000E+03 0.  1.
         -6    1    1    2    0  502 -0.18981958132E+03  0.67403618566E+02  0.99571041228E+02  0.28297193059E+03  0.17200000000E+03 0.  1.
</event>
<event>
 4    1  0.4487206E+000  0.1921819E+03  0.7818608E-02  0.1156508E+00
         21   -1    0    0  503  502  0.00000000000E+00  0.00000000000E+00  0.44933232100E+03  0.44933232100E+03  0.00000000000E+00 0. -1.
         21   -1    0    0  501  503 -0.00000000000E+00 -0.00000000000E+00 -0.82217594565E+02  0.82217594565E+02  0.00000000000E+00 0. -1.
          6    1    1    2  501    0  0.85625781595E+02  0.42567047662E+01  0.17937954484E+03  0.26288954927E+03  0.17200000000E+03 0.  1.
         -6    1    1    2    0  502 -0.85625781595E+02 -0.42567047662E+01  0.18773518160E+03  0.26866036630E+03  0.17200000000E+03 0.  1.
</event>
<event>
 4    1  0.4487206E+000  0.1915876E+03  0.7818608E-02  0.1157037E+00
         21   -1    0    0  501  502  0.00000000000E+00  0.00000000000E+00  0.15838228893E+03  0.15838228893E+03  0.00000000000E+00 0. -1.
         21   -1    0    0  502  503 -0.00000000000E+00 -0.00000000000E+00 -0.55608168707E+03  0.55608168707E+03  0.00000000000E+00 0. -1.
          6    1    1    2  501    0  0.14226301089E+02 -0.83183014763E+02  0.73968130466E+02  0.20537060625E+03  0.17200000000E+03 0. -1.
         -6    1    1    2    0  503 -0.14226301089E+02  0.83183014763E+02 -0.47166752860E+03  0.50909336975E+03  0.17200000000E+03 0. -1.
</event>
<event>
 4    1  0.4487206E+000  0.1998506E+03  0.7818608E-02  0.1149865E+00
         21   -1    0    0  503  502  0.00000000000E+00  0.00000000000E+00  0.81409352202E+02  0.81409352202E+02  0.00000000000E+00 0.  1.
         21   -1    0    0  501  503 -0.00000000000E+00 -0.00000000000E+00 -0.78376884518E+03  0.78376884518E+03  0.00000000000E+00 0. -1.
          6    1    1    2  501    0 -0.33788037340E+01  0.10170964304E+03 -0.61574502188E+03  0.64736558433E+03  0.17200000000E+03 0. -1.
         -6    1    1    2    0  502  0.33788037340E+01 -0.10170964304E+03 -0.86614471095E+02  0.21781261305E+03  0.17200000000E+03 0.  1.
</event>
<event>
 4    1  0.4487206E+000  0.1721999E+03  0.7818608E-02  0.1175573E+00
         21   -1    0    0  503  502  0.00000000000E+00  0.00000000000E+00  0.94463741188E+02  0.94463741188E+02  0.00000000000E+00 0.  1.
         21   -1    0    0  501  503 -0.00000000000E+00 -0.00000000000E+00 -0.35587965163E+03  0.35587965163E+03  0.00000000000E+00 0.  1.
          6    1    1    2  501    0  0.76021375677E+01  0.33209608391E+01 -0.20803757608E+03  0.27006009394E+03  0.17200000000E+03 0.  1.
         -6    1    1    2    0  502 -0.76021375677E+01 -0.33209608391E+01 -0.53378334363E+02  0.18028329888E+03  0.17200000000E+03 0.  1.
</event>
<event>
 4    1  0.4487206E+000  0.2860509E+03  0.7818608E-02  0.1092429E+00
         21   -1    0    0  501  502  0.00000000000E+00  0.00000000000E+00  0.34226081408E+03  0.34226081408E+03  0.00000000000E+00 0.  1.
         21   -1    0    0  502  503 -0.00000000000E+00 -0.00000000000E+00 -0.35484741267E+03  0.35484741267E+03  0.00000000000E+00 0.  1.
          6    1    1    2  501    0  0.16880060094E+03  0.15410223266E+03  0.19280000883E+03  0.34495939529E+03  0.17200000000E+03 0.  1.
         -6    1    1    2    0  503 -0.16880060094E+03 -0.15410223266E+03 -0.20538660743E+03  0.35214883146E+03  0.17200000000E+03 0.  1.
</event>
<event>
 4    1  0.4487206E+000  0.2144968E+03  0.7818608E-02  0.1138054E+00
         21   -1    0    0  503  502  0.00000000000E+00  0.00000000000E+00  0.24322399570E+03  0.24322399570E+03  0.00000000000E+00 0.  1.
         21   -1    0    0  501  503 -0.00000000000E+00 -0.00000000000E+00 -0.30515214609E+03  0.30515214609E+03  0.00000000000E+00 0. -1.
          6    1    1    2  501    0  0.12181576255E+03  0.39822294263E+02 -0.20000804222E+03  0.29327821617E+03  0.17200000000E+03 0. -1.
         -6    1    1    2    0  502 -0.12181576255E+03 -0.39822294263E+02  0.13807989183E+03  0.25509792562E+03  0.17200000000E+03 0.  1.
</event>
<event>
 4    1  0.4487206E+000  0.2157488E+03  0.7818608E-02  0.1137093E+00
         21   -1    0    0  501  502  0.00000000000E+00  0.00000000000E+00  0.12032413731E+03  0.12032413731E+03  0.00000000000E+00 0.  1.
         21   -1    0    0  502  503 -0.00000000000E+00 -0.00000000000E+00 -0.51043520930E+03  0.51043520930E+03  0.00000000000E+00 0.  1.
          6    1    1    2  501    0  0.12866757925E+03  0.20203644075E+02 -0.39872379412E+02  0.21940223295E+03  0.17200000000E+03 0.  1.
         -6    1    1    2    0  503 -0.12866757925E+03 -0.20203644075E+02 -0.35023869258E+03  0.41135711366E+03  0.17200000000E+03 0.  1.
</event>
<event>
 4    1  0.4487206E+000  0.1941324E+03  0.7818608E-02  0.1154786E+00
         21   -1    0    0  501  502  0.00000000000E+00  0.00000000000E+00  0.60907627277E+02  0.60907627277E+02  0.00000000000E+00 0.  1.
         21   -1    0    0  502  503 -0.00000000000E+00 -0.00000000000E+00 -0.91043716604E+03  0.91043716604E+03  0.00000000000E+00 0.  1.
          6    1    1    2  501    0 -0.33470890753E+02 -0.83564893525E+02 -0.14986945107E+03  0.24525139005E+03  0.17200000000E+03 0.  1.
         -6    1    1    2    0  503  0.33470890753E+02  0.83564893525E+02 -0.69966008769E+03  0.72609340326E+03  0.17200000000E+03 0.  1.
</event>
<event>
 4    1  0.4487206E+000  0.1780229E+03  0.7818608E-02  0.1169730E+00
         21   -1    0    0  503  502  0.00000000000E+00  0.00000000000E+00  0.11718435075E+03  0.11718435075E+03  0.00000000000E+00 0. -1.
         21   -1    0    0  501  503 -0.00000000000E+00 -0.00000000000E+00 -0.63382010411E+03  0.63382010411E+03  0.00000000000E+00 0. -1.
          6    1    1    2  501    0  0.45400291404E+02 -0.68523166879E+01 -0.54263694039E+03  0.57109280312E+03  0.17200000000E+03 0. -1.
         -6    1    1    2    0  502 -0.45400291404E+02  0.68523166879E+01  0.26001187027E+02  0.17991165174E+03  0.17200000000E+03 0. -1.
</event>
<event>
 4    1  0.4487206E+000  0.2447496E+03  0.7818608E-02  0.1116669E+00
         21   -1    0    0  503  502  0.00000000000E+00  0.00000000000E+00  0.12157909226E+03  0.12157909226E+03  0.00000000000E+00 0.  1.
         21   -1    0    0  501  503 -0.00000000000E+00 -0.00000000000E+00 -0.55960724621E+03  0.55960724621E+03  0.00000000000E+00 0.  1.
          6    1    1    2  501    0  0.15909134067E+02  0.17339341616E+03 -0.33678044328E+03  0.41632132337E+03  0.17200000000E+03 0.  1.
         -6    1    1    2    0  502 -0.15909134067E+02 -0.17339341616E+03 -0.10124771067E+03  0.26486501511E+03  0.17200000000E+03 0.  1.
</event>
<event>
 4    1  0.4487206E+000  0.1897260E+03  0.7818608E-02  0.1158709E+00
         21   -1    0    0  501  502  0.00000000000E+00  0.00000000000E+00  0.16608750587E+03  0.16608750587E+03  0.00000000000E+00 0.  1.
         21   -1    0    0  502  503 -0.00000000000E+00 -0.00000000000E+00 -0.23940380679E+03  0.23940380679E+03  0.00000000000E+00 0.  1.
          6    1    1    2  501    0 -0.39616611657E+02 -0.69588016991E+02  0.25738096216E+02  0.19146388073E+03  0.17200000000E+03 0.  1.
         -6    1    1    2    0  503  0.39616611657E+02  0.69588016991E+02 -0.99054397139E+02  0.21402743193E+03  0.17200000000E+03 0.  1.
</event>
<event>
 4    1  0.4487206E+000  0.1767856E+03  0.7818608E-02  0.1170951E+00
         21   -1    0    0  503  502  0.00000000000E+00  0.00000000000E+00  0.13491736572E+04  0.13491736572E+04  0.00000000000E+00 0.  1.
         21   -1    0    0  501  503 -0.00000000000E+00 -0.00000000000E+00 -0.14696865543E+03  0.14696865543E+03  0.00000000000E+00 0. -1.
          6    1    1    2  501    0 -0.38872559116E+02 -0.12573042988E+02 -0.85488123834E+02  0.19637050842E+03  0.17200000000E+03 0. -1.
         -6    1    1    2    0  502  0.38872559116E+02  0.12573042988E+02  0.12876931256E+04  0.12997718042E+04  0.17200000000E+03 0.  1.
</event>
<event>
 4    1  0.4487206E+000  0.1756015E+03  0.7818608E-02  0.1172129E+00
         21   -1    0    0  501  502  0.00000000000E+00  0.00000000000E+00  0.17982527658E+03  0.17982527658E+03  0.00000000000E+00 0.  1.
         21   -1    0    0  502  503 -0.00000000000E+00 -0.00000000000E+00 -0.24814211651E+03  0.24814211651E+03  0.00000000000E+00 0. -1.
          6    1    1    2  501    0  0.28248357848E+02  0.21305480367E+02  0.84781991056E+02  0.19499712619E+03  0.17200000000E+03 0.  1.
         -6    1    1    2    0  503 -0.28248357848E+02 -0.21305480367E+02 -0.15309883098E+03  0.23297026691E+03  0.17200000000E+03 0. -1.
</event>
<event>
 4    1  0.4487206E+000  0.1746370E+03  0.7818608E-02  0.1173097E+00
         21   -1    0    0  501  502  0.00000000000E+00  0.00000000000E+00  0.35903105080E+03  0.35903105080E+03  0.00000000000E+00 0.  1.
         21   -1    0    0  502  503 -0.00000000000E+00 -0.00000000000E+00 -0.97158543066E+02  0.97158543066E+02  0.00000000000E+00 0.  1.
          6    1    1    2  501    0 -0.30210156851E+02 -0.11904719781E+01  0.21180615120E+03  0.27451760688E+03  0.17200000000E+03 0.  1.
         -6    1    1    2    0  503  0.30210156851E+02  0.11904719781E+01  0.50066356539E+02  0.18167198699E+03  0.17200000000E+03 0.  1.
</event>
<event>
 4    1  0.4487206E+000  0.1812397E+03  0.7818608E-02  0.1166609E+00
         21   -1    0    0  501  502  0.00000000000E+00  0.00000000000E+00  0.59561539093E+03  0.59561539093E+03  0.00000000000E+00 0. -1.
         21   -1    0    0  502  503 -0.00000000000E+00 -0.00000000000E+00 -0.99772436450E+02  0.99772436450E+02  0.00000000000E+00 0. -1.
          6    1    1    2  501    0  0.54096164399E+02  0.18369637091E+02  0.48044735955E+03  0.51349537863E+03  0.17200000000E+03 0. -1.
         -6    1    1    2    0  503 -0.54096164399E+02 -0.18369637091E+02  0.15395594925E+02  0.18189244875E+03  0.17200000000E+03 0. -1.
</event>
<event>
 4    1  0.4487206E+000  0.2616385E+03  0.7818608E-02  0.1106163E+00
         21   -1    0    0  503  502  0.00000000000E+00  0.00000000000E+00  0.58385114083E+02  0.58385114083E+02  0.00000000000E+00 0. -1.
         21   -1    0    0  501  503 -0.00000000000E+00 -0.00000000000E+00 -0.15858478405E+04  0.15858478405E+04  0.00000000000E+00 0. -1.
          6    1    1    2  501    0 -0.87777465364E+02 -0.17653838784E+03 -0.11834682829E+04  0.12120444969E+04  0.17200000000E+03 0. -1.
         -6    1    1    2    0  502  0.87777465364E+02  0.17653838784E+03 -0.34399444358E+03  0.43218845776E+03  0.17200000000E+03 0. -1.
</event>
<event>
 4    1  0.4487206E+000  0.1818758E+03  0.7818608E-02  0.1166000E+00
         21   -1    0    0  503  502  0.00000000000E+00  0.00000000000E+00  0.18403650901E+03  0.18403650901E+03  0.00000000000E+00 0.  1.
         21   -1    0    0  501  503 -0.00000000000E+00 -0.00000000000E+00 -0.30057204779E+03  0.30057204779E+03  0.00000000000E+00 0.  1.
          6    1    1    2  501    0  0.13861730670E+02 -0.57468692671E+02 -0.21189815209E+03  0.27924832153E+03  0.17200000000E+03 0.  1.
         -6    1    1    2    0  502 -0.13861730670E+02  0.57468692671E+02  0.95362613314E+02  0.20536023528E+03  0.17200000000E+03 0.  1.
</event>
<event>
 4    1  0.4487206E+000  0.2539018E+03  0.7818608E-02  0.1110863E+00
         21   -1    0    0  503  502  0.00000000000E+00  0.00000000000E+00  0.19950706880E+04  0.19950706880E+04  0.00000000000E+00 0. -1.
         21   -1    0    0  501  503 -0.00000000000E+00 -0.00000000000E+00 -0.32313471231E+02  0.32313471231E+02  0.00000000000E+00 0. -1.
          6    1    1    2  501    0  0.85236674477E+02 -0.16618316299E+03  0.98630878242E+03  0.10184650945E+04  0.17200000000E+03 0. -1.
         -6    1    1    2    0  502 -0.85236674477E+02  0.16618316299E+03  0.97644843438E+03  0.10089190648E+04  0.17200000000E+03 0. -1.
</event>
<event>
 4    1  0.4487206E+000  0.2582034E+03  0.7818608E-02  0.1108227E+00
         21   -1    0    0  503  502  0.00000000000E+00  0.00000000000E+00  0.10175042522E+03  0.10175042522E+03  0.00000000000E+00 0.  1.
         21   -1    0    0  501  503 -0.00000000000E+00 -0.00000000000E+00 -0.95769645402E+03  0.95769645402E+03  0.00000000000E+00 0. -1.
          6    1    1    2  501    0  0.37920483260E+02  0.18880419776E+03 -0.72567416375E+03  0.77024150763E+03  0.17200000000E+03 0. -1.
         -6    1    1    2    0  502 -0.37920483260E+02 -0.18880419776E+03 -0.13027186505E+03  0.28920537161E+03  0.17200000000E+03 0. -1.
</event>
<event>
 4    1  0.4487206E+000  0.5112571E+03  0.7818608E-02  0.1010882E+00
         21   -1    0    0  503  502  0.00000000000E+00  0.00000000000E+00  0.86868704446E+03  0.86868704446E+03  0.00000000000E+00 0.  1.
         21   -1    0    0  501  503 -0.00000000000E+00 -0.00000000000E+00 -0.35731551273E+03  0.35731551273E+03  0.00000000000E+00 0. -1.
          6    1    1    2  501    0  0.11553685399E+03  0.46738743121E+03  0.12099314023E+02  0.51140020422E+03  0.17200000000E+03 0.  1.
         -6    1    1    2    0  502 -0.11553685399E+03 -0.46738743121E+03  0.49927221771E+03  0.71460235296E+03  0.17200000000E+03 0. -1.
</event>
<event>
 4    1  0.4487206E+000  0.2853700E+03  0.7818608E-02  0.1092792E+00
         21   -1    0    0  503  502  0.00000000000E+00  0.00000000000E+00  0.61543668671E+03  0.61543668671E+03  0.00000000000E+00 0. -1.
         21   -1    0    0  501  503 -0.00000000000E+00 -0.00000000000E+00 -0.13286491553E+03  0.13286491553E+03  0.00000000000E+00 0.  1.
          6    1    1    2  501    0  0.20235353244E+03 -0.10442752592E+03  0.21737767521E+03  0.35873264967E+03  0.17200000000E+03 0. -1.
         -6    1    1    2    0  502 -0.20235353244E+03  0.10442752592E+03  0.26519409598E+03  0.38956895257E+03  0.17200000000E+03 0.  1.
</event>
<event>
 4    1  0.4487206E+000  0.2273501E+03  0.7818608E-02  0.1128519E+00
         21   -1    0    0  501  502  0.00000000000E+00  0.00000000000E+00  0.11495576443E+03  0.11495576443E+03  0.00000000000E+00 0.  1.
         21   -1    0    0  502  503 -0.00000000000E+00 -0.00000000000E+00 -0.69559751710E+03  0.69559751710E+03  0.00000000000E+00 0. -1.
          6    1    1    2  501    0  0.63376483173E+02  0.13448979167E+03 -0.49326211397E+02  0.23263954482E+03  0.17200000000E+03 0.  1.
         -6    1    1    2    0  503 -0.63376483173E+02 -0.13448979167E+03 -0.53131554127E+03  0.57791373671E+03  0.17200000000E+03 0. -1.
</event>
<event>
 4    1  0.4487206E+000  0.2174157E+03  0.7818608E-02  0.1135825E+00
         21   -1    0    0  503  502  0.00000000000E+00  0.00000000000E+00  0.22575662037E+03  0.22575662037E+03  0.00000000000E+00 0. -1.
         21   -1    0    0  501  503 -0.00000000000E+00 -0.00000000000E+00 -0.21110568604E+03  0.21110568604E+03  0.00000000000E+00 0. -1.
          6    1    1    2  501    0 -0.58228637409E+02 -0.11956166608E+03 -0.12407194813E+02  0.21776938419E+03  0.17200000000E+03 0. -1.
         -6    1    1    2    0  502  0.58228637409E+02  0.11956166608E+03  0.27058129141E+02  0.21909292221E+03  0.17200000000E+03 0. -1.
</event>
<event>
 4    1  0.4487206E+000  0.1976192E+03  0.7818608E-02  0.1151763E+00
         21   -1    0    0  501  502  0.00000000000E+00  0.00000000000E+00  0.52187524312E+03  0.52187524312E+03  0.00000000000E+00 0. -1.
         21   -1    0    0  502  503 -0.00000000000E+00 -0.00000000000E+00 -0.75111944138E+02  0.75111944138E+02  0.00000000000E+00 0. -1.
          6    1    1    2  501    0 -0.60746987900E+02 -0.76020707890E+02  0.24158100729E+03  0.31211332501E+03  0.17200000000E+03 0. -1.
         -6    1    1    2    0  503  0.60746987900E+02  0.76020707890E+02  0.20518229169E+03  0.28487386224E+03  0.17200000000E+03 0. -1.
</event>
<event>
 4    1  0.4487206E+000  0.2085133E+03  0.7818608E-02  0.1142749E+00
         21   -1    0    0  503  502  0.00000000000E+00  0.00000000000E+00  0.14121044817E+03  0.14121044817E+03  0.00000000000E+00 0.  1.
         21   -1    0    0  501  503 -0.00000000000E+00 -0.00000000000E+00 -0.67777375446E+03  0.67777375446E+03  0.00000000000E+00 0. -1.
          6    1    1    2  501    0 -0.53212976820E+02 -0.10517696968E+03 -0.57078736299E+03  0.60768086164E+03  0.17200000000E+03 0. -1.
         -6    1    1    2    0  502  0.53212976820E+02  0.10517696968E+03  0.34224056704E+02  0.21130334098E+03  0.17200000000E+03 0.  1.
</event>
<event>
 4    1  0.4487206E+000  0.2016593E+03  0.7818608E-02  0.1148347E+00
         21   -1    0    0  501  502  0.00000000000E+00  0.00000000000E+00  0.32309303177E+02  0.32309303177E+02  0.00000000000E+00 0. -1.
         21   -1    0    0  502  503 -0.00000000000E+00 -0.00000000000E+00 -0.13123003510E+04  0.13123003510E+04  0.00000000000E+00 0. -1.
          6    1    1    2  501    0 -0.78971186464E+02  0.69613396864E+02 -0.77591749911E+03  0.80169472914E+03  0.17200000000E+03 0. -1.
         -6    1    1    2    0  503  0.78971186464E+02 -0.69613396864E+02 -0.50407354876E+03  0.54291492508E+03  0.17200000000E+03 0. -1.
</event>
<event>
 4    1  0.4487206E+000  0.1921455E+03  0.7818608E-02  0.1156540E+00
         21   -1    0    0  503  502  0.00000000000E+00  0.00000000000E+00  0.12149977333E+03  0.12149977333E+03  0.00000000000E+00 0. -1.
         21   -1    0    0  501  503 -0.00000000000E+00 -0.00000000000E+00 -0.35012217730E+03  0.35012217730E+03  0.00000000000E+00 0. -1.
          6    1    1    2  501    0 -0.62092603247E+02  0.58995037912E+02 -0.28601656531E+02  0.19426260740E+03  0.17200000000E+03 0. -1.
         -6    1    1    2    0  502  0.62092603247E+02 -0.58995037912E+02 -0.20002074744E+03  0.27735934324E+03  0.17200000000E+03 0. -1.
</event>
<event>
 4    1  0.4487206E+000  0.1823360E+03  0.7818608E-02  0.1165561E+00
         21   -1    0    0  503  502  0.00000000000E+00  0.00000000000E+00  0.54717830812E+03  0.54717830812E+03  0.00000000000E+00 0. -1.
         21   -1    0    0  501  503 -0.00000000000E+00 -0.00000000000E+00 -0.68719916710E+02  0.68719916710E+02  0.00000000000E+00 0. -1.
          6    1    1    2  501    0  0.16929572441E+02 -0.58101664724E+02  0.13442011962E+03  0.22652854660E+03  0.17200000000E+03 0.  1.
         -6    1    1    2    0  502 -0.16929572441E+02  0.58101664724E+02  0.34403827179E+03  0.38936967823E+03  0.17200000000E+03 0.  1.
</event>
<event>
 4    1  0.4487206E+000  0.2039024E+03  0.7818608E-02  0.1146488E+00
         21   -1    0    0  501  502  0.00000000000E+00  0.00000000000E+00  0.34635532190E+03  0.34635532190E+03  0.00000000000E+00 0. -1.
         21   -1    0    0  502  503 -0.00000000000E+00 -0.00000000000E+00 -0.12034147317E+03  0.12034147317E+03  0.00000000000E+00 0. -1.
          6    1    1    2  501    0  0.78899677637E+02  0.75940830137E+02  0.12470445801E+03  0.23901332737E+03  0.17200000000E+03 0.  1.
         -6    1    1    2    0  503 -0.78899677637E+02 -0.75940830137E+02  0.10130939072E+03  0.22768346769E+03  0.17200000000E+03 0.  1.
</event>
<event>
 4    1  0.4487206E+000  0.1930026E+03  0.7818608E-02  0.1155781E+00
         21   -1    0    0  503  502  0.00000000000E+00  0.00000000000E+00  0.12567363509E+04  0.12567363509E+04  0.00000000000E+00 0. -1.
         21   -1    0    0  501  503 -0.00000000000E+00 -0.00000000000E+00 -0.36604860216E+02  0.36604860216E+02  0.00000000000E+00 0.  1.
          6    1    1    2  501    0  0.79468992494E+02 -0.36751404673E+02  0.32799244429E+03  0.38056409450E+03  0.17200000000E+03 0. -1.
         -6    1    1    2    0  502 -0.79468992494E+02  0.36751404673E+02  0.89213904642E+03  0.91277711664E+03  0.17200000000E+03 0. -1.
</event>
<event>
 4    1  0.4487206E+000  0.2151168E+03  0.7818608E-02  0.1137577E+00
         21   -1    0    0  501  502  0.00000000000E+00  0.00000000000E+00  0.68062124431E+03  0.68062124431E+03  0.00000000000E+00 0. -1.
         21   -1    0    0  502  503 -0.00000000000E+00 -0.00000000000E+00 -0.69245752544E+02  0.69245752544E+02  0.00000000000E+00 0.  1.
          6    1    1    2  501    0 -0.33470772968E+02 -0.12478359286E+03  0.35618417821E+03  0.41610384100E+03  0.17200000000E+03 0. -1.
         -6    1    1    2    0  503  0.33470772968E+02  0.12478359286E+03  0.25519131355E+03  0.33376315585E+03  0.17200000000E+03 0.  1.
</event>
<event>
 4    1  0.4487206E+000  0.1956708E+03  0.7818608E-02  0.1153444E+00
         21   -1    0    0  501  502  0.00000000000E+00  0.00000000000E+00  0.85946642035E+02  0.85946642035E+02  0.00000000000E+00 0. -1.
         21   -1    0    0  502  503 -0.00000000000E+00 -0.00000000000E+00 -0.65042366746E+03  0.65042366746E+03  0.00000000000E+00 0. -1.
          6    1    1    2  501    0  0.22848382943E+02 -0.90448931579E+02 -0.75562091348E+02  0.20975387357E+03  0.17200000000E+03 0. -1.
         -6    1    1    2    0  503 -0.22848382943E+02  0.90448931579E+02 -0.48891493407E+03  0.52661643593E+03  0.17200000000E+03 0. -1.
</event>
<event>
 4    1  0.4487206E+000  0.1943519E+03  0.7818608E-02  0.1154594E+00
         21   -1    0    0  501  502  0.00000000000E+00  0.00000000000E+00  0.97631524710E+02  0.97631524710E+02  0.00000000000E+00 0. -1.
         21   -1    0    0  502  503 -0.00000000000E+00 -0.00000000000E+00 -0.54014489091E+03  0.54014489091E+03  0.00000000000E+00 0.  1.
          6    1    1    2  501    0  0.11206518043E+02 -0.89794636197E+02 -0.51396939566E+02  0.20103310208E+03  0.17200000000E+03 0. -1.
         -6    1    1    2    0  503 -0.11206518043E+02  0.89794636197E+02 -0.39111642663E+03  0.43674331353E+03  0.17200000000E+03 0.  1.
</event>
<event>
 4    1  0.4487206E+000  0.1812467E+03  0.7818608E-02  0.1166602E+00
         21   -1    0    0  503  502  0.00000000000E+00  0.00000000000E+00  0.17016005439E+03  0.17016005439E+03  0.00000000000E+00 0.  1.
         21   -1    0    0  501  503 -0.00000000000E+00 -0.00000000000E+00 -0.39515417751E+03  0.39515417751E+03  0.00000000000E+00 0.  1.
          6    1    1    2  501    0  0.51152312625E+02  0.25491581550E+02 -0.31463977145E+03  0.36310957794E+03  0.17200000000E+03 0.  1.
         -6    1    1    2    0  502 -0.51152312625E+02 -0.25491581550E+02  0.89645648331E+02  0.20220465396E+03  0.17200000000E+03 0.  1.
</event>
<event>
 4    1  0.4487206E+000  0.2263567E+03  0.7818608E-02  0.1129231E+00
         21   -1    0    0  503  502  0.00000000000E+00  0.00000000000E+00  0.15251422183E+04  0.15251422183E+04  0.00000000000E+00 0.  1.
         21   -1    0    0  501  503 -0.00000000000E+00 -0.00000000000E+00 -0.84540814653E+02  0.84540814653E+02  0.00000000000E+00 0. -1.
          6    1    1    2  501    0  0.14498080620E+03  0.25177515959E+02  0.95515283887E+02  0.24568376204E+03  0.17200000000E+03 0. -1.
         -6    1    1    2    0  502 -0.14498080620E+03 -0.25177515959E+02  0.13450861198E+04  0.13639992709E+04  0.17200000000E+03 0.  1.
</event>
<event>
 4    1  0.4487206E+000  0.1927817E+03  0.7818608E-02  0.1155976E+00
         21   -1    0    0  501  502  0.00000000000E+00  0.00000000000E+00  0.66717481795E+03  0.66717481795E+03  0.00000000000E+00 0. -1.
         21   -1    0    0  502  503 -0.00000000000E+00 -0.00000000000E+00 -0.70694805898E+02  0.70694805898E+02  0.00000000000E+00 0.  1.
          6    1    1    2  501    0  0.63372192555E+02 -0.59705530966E+02  0.46812615434E+03  0.50626759880E+03  0.17200000000E+03 0. -1.
         -6    1    1    2    0  503 -0.63372192555E+02  0.59705530966E+02  0.12835385771E+03  0.23160202505E+03  0.17200000000E+03 0.  1.
</event>
<event>
 4    1  0.4487206E+000  0.2688826E+03  0.7818608E-02  0.1101921E+00
         21   -1    0    0  501  502  0.00000000000E+00  0.00000000000E+00  0.61648460090E+02  0.61648460090E+02  0.00000000000E+00 0.  1.
         21   -1    0    0  502  503 -0.00000000000E+00 -0.00000000000E+00 -0.19363013031E+04  0.19363013031E+04  0.00000000000E+00 0. -1.
          6    1    1    2  501    0  0.58133455266E+02 -0.19832893606E+03 -0.31000675981E+03  0.41036819641E+03  0.17200000000E+03 0.  1.
         -6    1    1    2    0  503 -0.58133455266E+02  0.19832893606E+03 -0.15646460832E+04  0.15875815668E+04  0.17200000000E+03 0. -1.
</event>
<event>
 4    1  0.4487206E+000  0.2598267E+03  0.7818608E-02  0.1107247E+00
         21   -1    0    0  503  502  0.00000000000E+00  0.00000000000E+00  0.16734092909E+04  0.16734092909E+04  0.00000000000E+00 0. -1.
         21   -1    0    0  501  503 -0.00000000000E+00 -0.00000000000E+00 -0.51020453362E+02  0.51020453362E+02  0.00000000000E+00 0.  1.
          6    1    1    2  501    0  0.18910784156E+03 -0.46520139065E+02  0.41675284133E+03  0.49111386646E+03  0.17200000000E+03 0.  1.
         -6    1    1    2    0  502 -0.18910784156E+03  0.46520139065E+02  0.12056359962E+04  0.12333158778E+04  0.17200000000E+03 0. -1.
</event>
<event>
 4    1  0.4487206E+000  0.1915634E+03  0.7818608E-02  0.1157059E+00
         21   -1    0    0  503  502  0.00000000000E+00  0.00000000000E+00  0.12238353671E+04  0.12238353671E+04  0.00000000000E+00 0.  1.
         21   -1    0    0  501  503 -0.00000000000E+00 -0.00000000000E+00 -0.31585685742E+02  0.31585685742E+02  0.00000000000E+00 0.  1.
          6    1    1    2  501    0  0.15397973064E+02 -0.82918261675E+02  0.45481061179E+03  0.49350707015E+03  0.17200000000E+03 0.  1.
         -6    1    1    2    0  502 -0.15397973064E+02  0.82918261675E+02  0.73743906956E+03  0.76191398269E+03  0.17200000000E+03 0.  1.
</event>
<event>
 4    1  0.4487206E+000  0.2326830E+03  0.7818608E-02  0.1124765E+00
         21   -1    0    0  503  502  0.00000000000E+00  0.00000000000E+00  0.53750139332E+02  0.53750139332E+02  0.00000000000E+00 0.  1.
         21   -1    0    0  501  503 -0.00000000000E+00 -0.00000000000E+00 -0.10426929369E+04  0.10426929369E+04  0.00000000000E+00 0.  1.
          6    1    1    2  501    0  0.15296210548E+03  0.34058411859E+02 -0.39343785044E+03  0.45709377953E+03  0.17200000000E+03 0.  1.
         -6    1    1    2    0  502 -0.15296210548E+03 -0.34058411859E+02 -0.59550494712E+03  0.63934929669E+03  0.17200000000E+03 0.  1.
</event>
<event>
 4    1  0.4487206E+000  0.3014272E+03  0.7818608E-02  0.1084529E+00
         21   -1    0    0  501  502  0.00000000000E+00  0.00000000000E+00  0.14236973197E+04  0.14236973197E+04  0.00000000000E+00 0.  1.
         21   -1    0    0  502  503 -0.00000000000E+00 -0.00000000000E+00 -0.75922088873E+02  0.75922088873E+02  0.00000000000E+00 0.  1.
          6    1    1    2  501    0  0.42408231100E+02 -0.24387683854E+03  0.97326725534E+03  0.10188756159E+04  0.17200000000E+03 0.  1.
         -6    1    1    2    0  503 -0.42408231100E+02  0.24387683854E+03  0.37450797545E+03  0.48074379259E+03  0.17200000000E+03 0.  1.
</event>
<event>
 4    1  0.4487206E+000  0.2102556E+03  0.7818608E-02  0.1141364E+00
         21   -1    0    0  501  502  0.00000000000E+00  0.00000000000E+00  0.18771118514E+03  0.18771118514E+03  0.00000000000E+00 0. -1.
         21   -1    0    0  502  503 -0.00000000000E+00 -0.00000000000E+00 -0.26772816621E+03  0.26772816621E+03  0.00000000000E+00 0.  1.
          6    1    1    2  501    0  0.21952323368E+02  0.11891800819E+03  0.38990327733E+02  0.21384022734E+03  0.17200000000E+03 0. -1.
         -6    1    1    2    0  503 -0.21952323368E+02 -0.11891800819E+03 -0.11900730881E+03  0.24159912401E+03  0.17200000000E+03 0. -1.
</event>
<event>
 4    1  0.4487206E+000  0.1740339E+03  0.7818608E-02  0.1173705E+00
         21   -1    0    0  501  502  0.00000000000E+00  0.00000000000E+00  0.73586881042E+03  0.73586881042E+03  0.00000000000E+00 0.  1.
         21   -1    0    0  502  503 -0.00000000000E+00 -0.00000000000E+00 -0.35752434045E+03  0.35752434045E+03  0.00000000000E+00 0.  1.
          6    1    1    2  501    0  0.26144589757E+02 -0.44994406029E+01  0.70343827469E+03  0.72464694220E+03  0.17200000000E+03 0.  1.
         -6    1    1    2    0  503 -0.26144589757E+02  0.44994406029E+01 -0.32509380472E+03  0.36874620867E+03  0.17200000000E+03 0.  1.
</event>
<event>
 4    1  0.4487206E+000  0.2321396E+03  0.7818608E-02  0.1125143E+00
         21   -1    0    0  503  502  0.00000000000E+00  0.00000000000E+00  0.15963506092E+03  0.15963506092E+03  0.00000000000E+00 0.  1.
         21   -1    0    0  501  503 -0.00000000000E+00 -0.00000000000E+00 -0.53862103572E+03  0.53862103572E+03  0.00000000000E+00 0. -1.
          6    1    1    2  501    0 -0.16593636009E+02  0.15501440785E+03 -0.40279294869E+03  0.46489888676E+03  0.17200000000E+03 0. -1.
         -6    1    1    2    0  502  0.16593636009E+02 -0.15501440785E+03  0.23806973901E+02  0.23335720988E+03  0.17200000000E+03 0.  1.
</event>
<event>
 4    1  0.4487206E+000  0.1789117E+03  0.7818608E-02  0.1168860E+00
         21   -1    0    0  501  502  0.00000000000E+00  0.00000000000E+00  0.69954637781E+02  0.69954637781E+02  0.00000000000E+00 0.  1.
         21   -1    0    0  502  503 -0.00000000000E+00 -0.00000000000E+00 -0.48310094016E+03  0.48310094016E+03  0.00000000000E+00 0. -1.
          6    1    1    2  501    0  0.48926256721E+02  0.56237965462E+01 -0.14300766433E+03  0.22904278583E+03  0.17200000000E+03 0.  1.
         -6    1    1    2    0  503 -0.48926256721E+02 -0.56237965462E+01 -0.27013863805E+03  0.32401279211E+03  0.17200000000E+03 0. -1.
</event>
<event>
 4    1  0.4487206E+000  0.1934608E+03  0.7818608E-02  0.1155376E+00
         21   -1    0    0  501  502  0.00000000000E+00  0.00000000000E+00  0.38481648144E+03  0.38481648144E+03  0.00000000000E+00 0.  1.
         21   -1    0    0  502  503 -0.00000000000E+00 -0.00000000000E+00 -0.12624816666E+03  0.12624816666E+03  0.00000000000E+00 0.  1.
          6    1    1    2  501    0 -0.57634040450E+02 -0.67241414660E+02  0.25173077819E+03  0.31748303128E+03  0.17200000000E+03 0.  1.
         -6    1    1    2    0  503  0.57634040450E+02  0.67241414660E+02  0.68375365941E+01  0.19358161682E+03  0.17200000000E+03 0.  1.
</event>
<event>
 4    1  0.4487206E+000  0.1939223E+03  0.7818608E-02  0.1154970E+00
         21   -1    0    0  501  502  0.00000000000E+00  0.00000000000E+00  0.10983369333E+03  0.10983369333E+03  0.00000000000E+00 0.  1.
         21   -1    0    0  502  503 -0.00000000000E+00 -0.00000000000E+00 -0.42188424963E+03  0.42188424963E+03  0.00000000000E+00 0. -1.
          6    1    1    2  501    0  0.73808605662E+02 -0.50736165988E+02 -0.27143031023E+03  0.33358699333E+03  0.17200000000E+03 0. -1.
         -6    1    1    2    0  503 -0.73808605662E+02  0.50736165988E+02 -0.40620246066E+02  0.19813094963E+03  0.17200000000E+03 0.  1.
</event>
<event>
 4    1  0.4487206E+000  0.2149693E+03  0.7818608E-02  0.1137690E+00
         21   -1    0    0  503  502  0.00000000000E+00  0.00000000000E+00  0.53485069499E+03  0.53485069499E+03  0.00000000000E+00 0.  1.
         21   -1    0    0  501  503 -0.00000000000E+00 -0.00000000000E+00 -0.11949128708E+03  0.11949128708E+03  0.00000000000E+00 0.  1.
          6    1    1    2  501    0 -0.70972035522E+02  0.10766043289E+03  0.35510715241E+02  0.21788255904E+03  0.17200000000E+03 0.  1.
         -6    1    1    2    0  502  0.70972035522E+02 -0.10766043289E+03  0.37984869267E+03  0.43645942304E+03  0.17200000000E+03 0.  1.
</event>
<event>
 4    1  0.4487206E+000  0.1841421E+03  0.7818608E-02  0.1163853E+00
         21   -1    0    0  503  502  0.00000000000E+00  0.00000000000E+00  0.50489251087E+02  0.50489251087E+02  0.00000000000E+00 0.  1.
         21   -1    0    0  501  503 -0.00000000000E+00 -0.00000000000E+00 -0.82090922530E+03  0.82090922530E+03  0.00000000000E+00 0.  1.
          6    1    1    2  501    0  0.28771141933E+02 -0.59131348915E+02 -0.57102927505E+03  0.59998560649E+03  0.17200000000E+03 0.  1.
         -6    1    1    2    0  502 -0.28771141933E+02  0.59131348915E+02 -0.19939069917E+03  0.27141286990E+03  0.17200000000E+03 0.  1.
</event>
<event>
 4    1  0.4487206E+000  0.1727325E+03  0.7818608E-02  0.1175028E+00
         21   -1    0    0  503  502  0.00000000000E+00  0.00000000000E+00  0.32091117743E+02  0.32091117743E+02  0.00000000000E+00 0. -1.
         21   -1    0    0  501  503 -0.00000000000E+00 -0.00000000000E+00 -0.93203955105E+03  0.93203955105E+03  0.00000000000E+00 0. -1.
          6    1    1    2  501    0  0.55128661225E+00  0.15881337200E+02 -0.42604975397E+03  0.45973352461E+03  0.17200000000E+03 0. -1.
         -6    1    1    2    0  502 -0.55128661225E+00 -0.15881337200E+02 -0.47389867934E+03  0.50439714419E+03  0.17200000000E+03 0. -1.
</event>
<event>
 4    1  0.4487206E+000  0.2109011E+03  0.7818608E-02  0.1140854E+00
         21   -1    0    0  501  502  0.00000000000E+00  0.00000000000E+00  0.18238289214E+03  0.18238289214E+03  0.00000000000E+00 0. -1.
         21   -1    0    0  502  503 -0.00000000000E+00 -0.00000000000E+00 -0.25110470317E+03  0.25110470317E+03  0.00000000000E+00 0. -1.
          6    1    1    2  501    0  0.93045489923E+02  0.78979751675E+02  0.24074862137E+01  0.21091481778E+03  0.17200000000E+03 0.  1.
         -6    1    1    2    0  503 -0.93045489923E+02 -0.78979751675E+02 -0.71129297248E+02  0.22257277753E+03  0.17200000000E+03 0.  1.
</event>
<event>
 4    1  0.4487206E+000  0.2360009E+03  0.7818608E-02  0.1122486E+00
         21   -1    0    0  501  502  0.00000000000E+00  0.00000000000E+00  0.20327377046E+03  0.20327377046E+03  0.00000000000E+00 0.  1.
         21   -1    0    0  502  503 -0.00000000000E+00 -0.00000000000E+00 -0.30689422355E+03  0.30689422355E+03  0.00000000000E+00 0. -1.
          6    1    1    2  501    0  0.78535736399E+02  0.14122529914E+03  0.31705268478E+02  0.23812112686E+03  0.17200000000E+03 0. -1.
         -6    1    1    2    0  503 -0.78535736399E+02 -0.14122529914E+03 -0.13532572156E+03  0.27204686715E+03  0.17200000000E+03 0. -1.
</event>
<event>
 4    1  0.4487206E+000  0.2162986E+03  0.7818608E-02  0.1136673E+00
         21   -1    0    0  503  502  0.00000000000E+00  0.00000000000E+00  0.21893202721E+03  0.21893202721E+03  0.00000000000E+00 0. -1.
         21   -1    0    0  501  503 -0.00000000000E+00 -0.00000000000E+00 -0.87618696588E+03  0.87618696588E+03  0.00000000000E+00 0.  1.
          6    1    1    2  501    0  0.58598793014E+02 -0.11733392948E+03 -0.80475428894E+03  0.83331538754E+03  0.17200000000E+03 0.  1.
         -6    1    1    2    0  502 -0.58598793014E+02  0.11733392948E+03  0.14749935027E+03  0.26180360555E+03  0.17200000000E+03 0. -1.
</event>
<event>
 4    1  0.4487206E+000  0.2087991E+03  0.7818608E-02  0.1142520E+00
         21   -1    0    0  503  502  0.00000000000E+00  0.00000000000E+00  0.98117369883E+03  0.98117369883E+03  0.00000000000E+00 0. -1.
         21   -1    0    0  501  503 -0.00000000000E+00 -0.00000000000E+00 -0.96774126403E+02  0.96774126403E+02  0.00000000000E+00 0. -1.
          6    1    1    2  501    0 -0.11616678023E+03  0.22767404232E+02  0.45823945843E+02  0.21376835485E+03  0.17200000000E+03 0. -1.
         -6    1    1    2    0  502  0.11616678023E+03 -0.22767404232E+02  0.83857562658E+03  0.86417947037E+03  0.17200000000E+03 0. -1.
</event>
<event>
 4    1  0.4487206E+000  0.2256230E+03  0.7818608E-02  0.1129759E+00
         21   -1    0    0  503  502  0.00000000000E+00  0.00000000000E+00  0.86158305906E+02  0.86158305906E+02  0.00000000000E+00 0. -1.
         21   -1    0    0  501  503 -0.00000000000E+00 -0.00000000000E+00 -0.68014079780E+03  0.68014079780E+03  0.00000000000E+00 0. -1.
          6    1    1    2  501    0  0.14472528286E+03 -0.19399419080E+02 -0.43582574017E+03  0.49076452679E+03  0.17200000000E+03 0. -1.
         -6    1    1    2    0  502 -0.14472528286E+03  0.19399419080E+02 -0.15815675172E+03  0.27553457691E+03  0.17200000000E+03 0. -1.
</event>
<event>
 4    1  0.4487206E+000  0.2174282E+03  0.7818608E-02  0.1135815E+00
         21   -1    0    0  501  502  0.00000000000E+00  0.00000000000E+00  0.67616070765E+02  0.67616070765E+02  0.00000000000E+00 0. -1.
         21   -1    0    0  502  503 -0.00000000000E+00 -0.00000000000E+00 -0.12495092863E+04  0.12495092863E+04  0.00000000000E+00 0.  1.
          6    1    1    2  501    0 -0.82854759425E+02  0.10404854788E+03 -0.15388434453E+03  0.26637455390E+03  0.17200000000E+03 0. -1.
         -6    1    1    2    0  503  0.82854759425E+02 -0.10404854788E+03 -0.10280088710E+04  0.10507508031E+04  0.17200000000E+03 0.  1.
</event>
<event>
 4    1  0.4487206E+000  0.1818306E+03  0.7818608E-02  0.1166043E+00
         21   -1    0    0  503  502  0.00000000000E+00  0.00000000000E+00  0.94498606688E+02  0.94498606688E+02  0.00000000000E+00 0. -1.
         21   -1    0    0  501  503 -0.00000000000E+00 -0.00000000000E+00 -0.10199354337E+04  0.10199354337E+04  0.00000000000E+00 0. -1.
          6    1    1    2  501    0  0.56570217967E+02  0.16678127743E+02 -0.91436239011E+03  0.93226655520E+03  0.17200000000E+03 0. -1.
         -6    1    1    2    0  502 -0.56570217967E+02 -0.16678127743E+02 -0.11074436903E+02  0.18216748518E+03  0.17200000000E+03 0. -1.
</event>
<event>
 4    1  0.4487206E+000  0.3025864E+03  0.7818608E-02  0.1083955E+00
         21   -1    0    0  503  502  0.00000000000E+00  0.00000000000E+00  0.24041501707E+04  0.24041501707E+04  0.00000000000E+00 0. -1.
         21   -1    0    0  501  503 -0.00000000000E+00 -0.00000000000E+00 -0.39188589160E+02  0.39188589160E+02  0.00000000000E+00 0. -1.
          6    1    1    2  501    0  0.10771039948E+03 -0.22443928368E+03  0.13876285979E+04  0.14202364760E+04  0.17200000000E+03 0. -1.
         -6    1    1    2    0  502 -0.10771039948E+03  0.22443928368E+03  0.97733298369E+03  0.10231022839E+04  0.17200000000E+03 0. -1.
</event>
<event>
 4    1  0.4487206E+000  0.2025532E+03  0.7818608E-02  0.1147603E+00
         21   -1    0    0  501  502  0.00000000000E+00  0.00000000000E+00  0.51060969499E+03  0.51060969499E+03  0.00000000000E+00 0. -1.
         21   -1    0    0  502  503 -0.00000000000E+00 -0.00000000000E+00 -0.82164486640E+02  0.82164486640E+02  0.00000000000E+00 0. -1.
          6    1    1    2  501    0 -0.72358507865E+02  0.78791023108E+02  0.25826045553E+03  0.32821676050E+03  0.17200000000E+03 0. -1.
         -6    1    1    2    0  503  0.72358507865E+02 -0.78791023108E+02  0.17018475283E+03  0.26455742113E+03  0.17200000000E+03 0. -1.
</event>
<event>
 4    1  0.4487206E+000  0.2025549E+03  0.7818608E-02  0.1147601E+00
         21   -1    0    0  501  502  0.00000000000E+00  0.00000000000E+00  0.15964306449E+03  0.15964306449E+03  0.00000000000E+00 0.  1.
         21   -1    0    0  502  503 -0.00000000000E+00 -0.00000000000E+00 -0.27551693931E+03  0.27551693931E+03  0.00000000000E+00 0. -1.
          6    1    1    2  501    0 -0.85284357931E+02  0.64583825686E+02 -0.15325456161E+01  0.20256070928E+03  0.17200000000E+03 0.  1.
         -6    1    1    2    0  503  0.85284357931E+02 -0.64583825686E+02 -0.11434132921E+03  0.23259929452E+03  0.17200000000E+03 0.  1.
</event>
<event>
 4    1  0.4487206E+000  0.1999760E+03  0.7818608E-02  0.1149759E+00
         21   -1    0    0  503  502  0.00000000000E+00  0.00000000000E+00  0.91651921178E+02  0.91651921178E+02  0.00000000000E+00 0. -1.
         21   -1    0    0  501  503 -0.00000000000E+00 -0.00000000000E+00 -0.80449213988E+03  0.80449213988E+03  0.00000000000E+00 0. -1.
          6    1    1    2  501    0  0.10047615899E+03 -0.17633429712E+02 -0.65953484623E+03  0.68918546833E+03  0.17200000000E+03 0. -1.
         -6    1    1    2    0  502 -0.10047615899E+03  0.17633429712E+02 -0.53305372468E+02  0.20695859272E+03  0.17200000000E+03 0. -1.
</event>
<event>
 4    1  0.4487206E+000  0.2028201E+03  0.7818608E-02  0.1147381E+00
         21   -1    0    0  501  502  0.00000000000E+00  0.00000000000E+00  0.28783854464E+03  0.28783854464E+03  0.00000000000E+00 0.  1.
         21   -1    0    0  502  503 -0.00000000000E+00 -0.00000000000E+00 -0.14294154077E+03  0.14294154077E+03  0.00000000000E+00 0. -1.
          6    1    1    2  501    0  0.10471349148E+03  0.24229766523E+02  0.75468434933E+02  0.21640582607E+03  0.17200000000E+03 0.  1.
         -6    1    1    2    0  503 -0.10471349148E+03 -0.24229766523E+02  0.69428568942E+02  0.21437425934E+03  0.17200000000E+03 0. -1.
</event>
<event>
 4    1  0.4487206E+000  0.3043047E+03  0.7818608E-02  0.1083108E+00
         21   -1    0    0  503  502  0.00000000000E+00  0.00000000000E+00  0.55394914619E+03  0.55394914619E+03  0.00000000000E+00 0.  1.
         21   -1    0    0  501  503 -0.00000000000E+00 -0.00000000000E+00 -0.44476431299E+03  0.44476431299E+03  0.00000000000E+00 0. -1.
          6    1    1    2  501    0  0.25083340790E+03  0.99967587121E+01 -0.33991442055E+03  0.45622707833E+03  0.17200000000E+03 0. -1.
         -6    1    1    2    0  502 -0.25083340790E+03 -0.99967587121E+01  0.44909925375E+03  0.54248638086E+03  0.17200000000E+03 0.  1.
</event>
<event>
 4    1  0.4487206E+000  0.1782762E+03  0.7818608E-02  0.1169482E+00
         21   -1    0    0  501  502  0.00000000000E+00  0.00000000000E+00  0.55823525826E+02  0.55823525826E+02  0.00000000000E+00 0.  1.
         21   -1    0    0  502  503 -0.00000000000E+00 -0.00000000000E+00 -0.58870364145E+03  0.58870364145E+03  0.00000000000E+00 0.  1.
          6    1    1    2  501    0 -0.34395484904E+02 -0.31864492743E+02 -0.20798922291E+03  0.27393778879E+03  0.17200000000E+03 0. -1.
         -6    1    1    2    0  503  0.34395484904E+02  0.31864492743E+02 -0.32489089271E+03  0.37058937848E+03  0.17200000000E+03 0. -1.
</event>
<event>
 4    1  0.4487206E+000  0.1977278E+03  0.7818608E-02  0.1151670E+00
         21   -1    0    0  503  502  0.00000000000E+00  0.00000000000E+00  0.72724496238E+03  0.72724496238E+03  0.00000000000E+00 0. -1.
         21   -1    0    0  501  503 -0.00000000000E+00 -0.00000000000E+00 -0.80339692071E+02  0.80339692071E+02  0.00000000000E+00 0. -1.
          6    1    1    2  501    0  0.82772761196E+02  0.51584307225E+02  0.91193580505E+02  0.21774420744E+03  0.17200000000E+03 0. -1.
         -6    1    1    2    0  502 -0.82772761196E+02 -0.51584307225E+02  0.55571168980E+03  0.58984044701E+03  0.17200000000E+03 0. -1.
</event>
<event>
 4    1  0.4487206E+000  0.1859930E+03  0.7818608E-02  0.1162126E+00
         21   -1    0    0  503  502  0.00000000000E+00  0.00000000000E+00  0.63065105372E+03  0.63065105372E+03  0.00000000000E+00 0. -1.
         21   -1    0    0  501  503 -0.00000000000E+00 -0.00000000000E+00 -0.59012341036E+02  0.59012341036E+02  0.00000000000E+00 0. -1.
          6    1    1    2  501    0  0.61674877487E+02 -0.34721862469E+02  0.19427669825E+03  0.26895507753E+03  0.17200000000E+03 0. -1.
         -6    1    1    2    0  502 -0.61674877487E+02  0.34721862469E+02  0.37736201443E+03  0.42070831722E+03  0.17200000000E+03 0. -1.
</event>
<event>
 4    1  0.4487206E+000  0.2402371E+03  0.7818608E-02  0.1119635E+00
         21   -1    0    0  501  502  0.00000000000E+00  0.00000000000E+00  0.91006907718E+02  0.91006907718E+02  0.00000000000E+00 0.  1.
         21   -1    0    0  502  503 -0.00000000000E+00 -0.00000000000E+00 -0.72289613028E+03  0.72289613028E+03  0.00000000000E+00 0. -1.
          6    1    1    2  501    0  0.64849502468E+01 -0.16759413863E+03 -0.17337383468E+03  0.29626396412E+03  0.17200000000E+03 0. -1.
         -6    1    1    2    0  503 -0.64849502468E+01  0.16759413863E+03 -0.45851538788E+03  0.51763907388E+03  0.17200000000E+03 0.  1.
</event>
<event>
 4    1  0.4487206E+000  0.1840974E+03  0.7818608E-02  0.1163895E+00
         21   -1    0    0  503  502  0.00000000000E+00  0.00000000000E+00  0.60869721426E+02  0.60869721426E+02  0.00000000000E+00 0. -1.
         21   -1    0    0  501  503 -0.00000000000E+00 -0.00000000000E+00 -0.11618510569E+04  0.11618510569E+04  0.00000000000E+00 0. -1.
          6    1    1    2  501    0 -0.48256410549E+01 -0.65456483414E+02 -0.99167550004E+03  0.10086189248E+04  0.17200000000E+03 0. -1.
         -6    1    1    2    0  502  0.48256410549E+01  0.65456483414E+02 -0.10930583543E+03  0.21410185354E+03  0.17200000000E+03 0. -1.
</event>
<event>
 4    1  0.4487206E+000  0.1959518E+03  0.7818608E-02  0.1153200E+00
         21   -1    0    0  501  502  0.00000000000E+00  0.00000000000E+00  0.49414496408E+02  0.49414496408E+02  0.00000000000E+00 0. -1.
         21   -1    0    0  502  503 -0.00000000000E+00 -0.00000000000E+00 -0.13085917483E+04  0.13085917483E+04  0.00000000000E+00 0. -1.
          6    1    1    2  501    0 -0.90096563957E+02  0.26376103158E+02 -0.19683367015E+03  0.27774193663E+03  0.17200000000E+03 0. -1.
         -6    1    1    2    0  503  0.90096563957E+02 -0.26376103158E+02 -0.10623435818E+04  0.10802643081E+04  0.17200000000E+03 0. -1.
</event>
<event>
 4    1  0.4487206E+000  0.1753268E+03  0.7818608E-02  0.1172404E+00
         21   -1    0    0  503  502  0.00000000000E+00  0.00000000000E+00  0.40793561596E+02  0.40793561596E+02  0.00000000000E+00 0.  1.
         21   -1    0    0  501  503 -0.00000000000E+00 -0.00000000000E+00 -0.75354445718E+03  0.75354445718E+03  0.00000000000E+00 0.  1.
          6    1    1    2  501    0  0.20354240012E+02 -0.27225014677E+02 -0.35754316155E+03  0.39821678629E+03  0.17200000000E+03 0.  1.
         -6    1    1    2    0  502 -0.20354240012E+02  0.27225014677E+02 -0.35520773403E+03  0.39612123249E+03  0.17200000000E+03 0.  1.
</event>
<event>
 4    1  0.4487206E+000  0.2245497E+03  0.7818608E-02  0.1130536E+00
         21   -1    0    0  503  502  0.00000000000E+00  0.00000000000E+00  0.12241846185E+03  0.12241846185E+03  0.00000000000E+00 0.  1.
         21   -1    0    0  501  503 -0.00000000000E+00 -0.00000000000E+00 -0.52103570658E+03  0.52103570658E+03  0.00000000000E+00 0. -1.
          6    1    1    2  501    0  0.82714381553E+02  0.11830842033E+03 -0.34656141171E+03  0.41294958933E+03  0.17200000000E+03 0. -1.
         -6    1    1    2    0  502 -0.82714381553E+02 -0.11830842033E+03 -0.52055833022E+02  0.23050457910E+03  0.17200000000E+03 0.  1.
</event>
<event>
 4    1  0.4487206E+000  0.1750845E+03  0.7818608E-02  0.1172647E+00
         21   -1    0    0  501  502  0.00000000000E+00  0.00000000000E+00  0.14889827930E+03  0.14889827930E+03  0.00000000000E+00 0.  1.
         21   -1    0    0  502  503 -0.00000000000E+00 -0.00000000000E+00 -0.26621970110E+03  0.26621970110E+03  0.00000000000E+00 0.  1.
          6    1    1    2  501    0  0.32640673778E+01 -0.32556400972E+02  0.40157647972E+02  0.17963076037E+03  0.17200000000E+03 0.  1.
         -6    1    1    2    0  503 -0.32640673778E+01  0.32556400972E+02 -0.15747906977E+03  0.23548722003E+03  0.17200000000E+03 0.  1.
</event>
<event>
 4    1  0.4487206E+000  0.2569506E+03  0.7818608E-02  0.1108989E+00
         21   -1    0    0  503  502  0.00000000000E+00  0.00000000000E+00  0.10058783686E+03  0.10058783686E+03  0.00000000000E+00 0. -1.
         21   -1    0    0  501  503 -0.00000000000E+00 -0.00000000000E+00 -0.10348562179E+04  0.10348562179E+04  0.00000000000E+00 0. -1.
          6    1    1    2  501    0 -0.18916593994E+03  0.25609615598E+02 -0.81046786356E+03  0.85022453688E+03  0.17200000000E+03 0. -1.
         -6    1    1    2    0  502  0.18916593994E+03 -0.25609615598E+02 -0.12380051746E+03  0.28521951786E+03  0.17200000000E+03 0. -1.
</event>
<event>
 4    1  0.4487206E+000  0.2349420E+03  0.7818608E-02  0.1123209E+00
         21   -1    0    0  503  502  0.00000000000E+00  0.00000000000E+00  0.51858502565E+03  0.51858502565E+03  0.00000000000E+00 0.  1.
         21   -1    0    0  501  503 -0.00000000000E+00 -0.00000000000E+00 -0.11338309064E+03  0.11338309064E+03  0.00000000000E+00 0. -1.
          6    1    1    2  501    0 -0.94532869703E+02 -0.12914052029E+03  0.12440312981E+03  0.26584558703E+03  0.17200000000E+03 0. -1.
         -6    1    1    2    0  502  0.94532869703E+02  0.12914052029E+03  0.28079880520E+03  0.36612252927E+03  0.17200000000E+03 0.  1.
</event>
<event>
 4    1  0.4487206E+000  0.1956175E+03  0.7818608E-02  0.1153490E+00
         21   -1    0    0  501  502  0.00000000000E+00  0.00000000000E+00  0.50732333111E+03  0.50732333111E+03  0.00000000000E+00 0.  1.
         21   -1    0    0  502  503 -0.00000000000E+00 -0.00000000000E+00 -0.87543619767E+02  0.87543619767E+02  0.00000000000E+00 0. -1.
          6    1    1    2  501    0 -0.92181850401E+02  0.13591407164E+02  0.32054107874E+03  0.37551671474E+03  0.17200000000E+03 0. -1.
         -6    1    1    2    0  503  0.92181850401E+02 -0.13591407164E+02  0.99238632611E+02  0.21935023614E+03  0.17200000000E+03 0.  1.
</event>
<event>
 4    1  0.4487206E+000  0.2022487E+03  0.7818608E-02  0.1147856E+00
         21   -1    0    0  501  502  0.00000000000E+00  0.00000000000E+00  0.25826210850E+03  0.25826210850E+03  0.00000000000E+00 0. -1.
         21   -1    0    0  502  503 -0.00000000000E+00 -0.00000000000E+00 -0.16198116232E+03  0.16198116232E+03  0.00000000000E+00 0. -1.
          6    1    1    2  501    0 -0.30719475015E+02 -0.10186678128E+03  0.79454016338E+02  0.21729580756E+03  0.17200000000E+03 0. -1.
         -6    1    1    2    0  503  0.30719475015E+02  0.10186678128E+03  0.16826929842E+02  0.20294746325E+03  0.17200000000E+03 0. -1.
</event>
<event>
 4    1  0.4487206E+000  0.1721725E+03  0.7818608E-02  0.1175601E+00
         21   -1    0    0  501  502  0.00000000000E+00  0.00000000000E+00  0.24711774067E+03  0.24711774067E+03  0.00000000000E+00 0. -1.
         21   -1    0    0  502  503 -0.00000000000E+00 -0.00000000000E+00 -0.34725945626E+03  0.34725945626E+03  0.00000000000E+00 0. -1.
          6    1    1    2  501    0  0.76447830384E+01 -0.95465434276E+00  0.19036970887E+03  0.25667874888E+03  0.17200000000E+03 0. -1.
         -6    1    1    2    0  503 -0.76447830384E+01  0.95465434276E+00 -0.29051142446E+03  0.33769844805E+03  0.17200000000E+03 0. -1.
</event>
<event>
 4    1  0.4487206E+000  0.1804166E+03  0.7818608E-02  0.1167400E+00
         21   -1    0    0  501  502  0.00000000000E+00  0.00000000000E+00  0.18811582416E+03  0.18811582416E+03  0.00000000000E+00 0.  1.
         21   -1    0    0  502  503 -0.00000000000E+00 -0.00000000000E+00 -0.17827579439E+03  0.17827579439E+03  0.00000000000E+00 0. -1.
          6    1    1    2  501    0 -0.28436553848E+02 -0.46449012495E+02  0.36337551011E+02  0.18403957718E+03  0.17200000000E+03 0.  1.
         -6    1    1    2    0  503  0.28436553848E+02  0.46449012495E+02 -0.26497521239E+02  0.18235204136E+03  0.17200000000E+03 0. -1.
</event>
<event>
 4    1  0.4487206E+000  0.2194774E+03  0.7818608E-02  0.1134273E+00
         21   -1    0    0  501  502  0.00000000000E+00  0.00000000000E+00  0.91674777008E+02  0.91674777008E+02  0.00000000000E+00 0. -1.
         21   -1    0    0  502  503 -0.00000000000E+00 -0.00000000000E+00 -0.68570509105E+03  0.68570509105E+03  0.00000000000E+00 0. -1.
          6    1    1    2  501    0 -0.13338449769E+03 -0.28194099642E+02 -0.10910805860E+03  0.24510181543E+03  0.17200000000E+03 0. -1.
         -6    1    1    2    0  503  0.13338449769E+03  0.28194099642E+02 -0.48492225545E+03  0.53227805263E+03  0.17200000000E+03 0. -1.
</event>
<event>
 4    1  0.4487206E+000  0.2623099E+03  0.7818608E-02  0.1105763E+00
         21   -1    0    0  501  502  0.00000000000E+00  0.00000000000E+00  0.57591050862E+03  0.57591050862E+03  0.00000000000E+00 0. -1.
         21   -1    0    0  502  503 -0.00000000000E+00 -0.00000000000E+00 -0.11947455820E+03  0.11947455820E+03  0.00000000000E+00 0.  1.
          6    1    1    2  501    0 -0.19558932010E+03  0.31101299050E+02  0.22878133965E+03  0.34806231384E+03  0.17200000000E+03 0.  1.
         -6    1    1    2    0  503  0.19558932010E+03 -0.31101299050E+02  0.22765461076E+03  0.34732275298E+03  0.17200000000E+03 0. -1.
</event>
<event>
 4    1  0.4487206E+000  0.1829112E+03  0.7818608E-02  0.1165015E+00
         21   -1    0    0  501  502  0.00000000000E+00  0.00000000000E+00  0.55879400934E+03  0.55879400934E+03  0.00000000000E+00 0.  1.
         21   -1    0    0  502  503 -0.00000000000E+00 -0.00000000000E+00 -0.13089449921E+03  0.13089449921E+03  0.00000000000E+00 0.  1.
          6    1    1    2  501    0 -0.62222223523E+02  0.95855351303E+00  0.46796397751E+03  0.50244085042E+03  0.17200000000E+03 0.  1.
         -6    1    1    2    0  503  0.62222223523E+02 -0.95855351303E+00 -0.40064467391E+02  0.18724765812E+03  0.17200000000E+03 0.  1.
</event>
<event>
 4    1  0.4487206E+000  0.2376128E+03  0.7818608E-02  0.1121393E+00
         21   -1    0    0  503  502  0.00000000000E+00  0.00000000000E+00  0.94530665679E+03  0.94530665679E+03  0.00000000000E+00 0. -1.
         21   -1    0    0  501  503 -0.00000000000E+00 -0.00000000000E+00 -0.13172981205E+03  0.13172981205E+03  0.00000000000E+00 0. -1.
          6    1    1    2  501    0 -0.56319379958E+02  0.15396100941E+03  0.80492730375E+03  0.83926624459E+03  0.17200000000E+03 0. -1.
         -6    1    1    2    0  502  0.56319379958E+02 -0.15396100941E+03  0.86495409854E+01  0.23777022424E+03  0.17200000000E+03 0. -1.
</event>
<event>
 4    1  0.4487206E+000  0.2827723E+03  0.7818608E-02  0.1094184E+00
         21   -1    0    0  503  502  0.00000000000E+00  0.00000000000E+00  0.97277338728E+03  0.97277338728E+03  0.00000000000E+00 0.  1.
         21   -1    0    0  501  503 -0.00000000000E+00 -0.00000000000E+00 -0.95521884049E+02  0.95521884049E+02  0.00000000000E+00 0.  1.
          6    1    1    2  501    0  0.12842387078E+03  0.18407462778E+03  0.23913485770E+03  0.37033179630E+03  0.17200000000E+03 0.  1.
         -6    1    1    2    0  502 -0.12842387078E+03 -0.18407462778E+03  0.63811664553E+03  0.69796347504E+03  0.17200000000E+03 0.  1.
</event>
<event>
 4    1  0.4487206E+000  0.2349904E+03  0.7818608E-02  0.1123176E+00
         21   -1    0    0  503  502  0.00000000000E+00  0.00000000000E+00  0.11223493283E+03  0.11223493283E+03  0.00000000000E+00 0.  1.
         21   -1    0    0  501  503 -0.00000000000E+00 -0.00000000000E+00 -0.74568712654E+03  0.74568712654E+03  0.00000000000E+00 0. -1.
          6    1    1    2  501    0 -0.29670987246E+02 -0.15734076676E+03 -0.56692297517E+03  0.61369548160E+03  0.17200000000E+03 0. -1.
         -6    1    1    2    0  502  0.29670987246E+02  0.15734076676E+03 -0.66529218539E+02  0.24422657777E+03  0.17200000000E+03 0.  1.
</event>
<event>
 4    1  0.4487206E+000  0.1872778E+03  0.7818608E-02  0.1160940E+00
         21   -1    0    0  503  502  0.00000000000E+00  0.00000000000E+00  0.19367096613E+03  0.19367096613E+03  0.00000000000E+00 0. -1.
         21   -1    0    0  501  503 -0.00000000000E+00 -0.00000000000E+00 -0.31638094294E+03  0.31638094294E+03  0.00000000000E+00 0. -1.
          6    1    1    2  501    0 -0.71201607644E+02 -0.20476584884E+02 -0.22811987025E+03  0.29514680189E+03  0.17200000000E+03 0. -1.
         -6    1    1    2    0  502  0.71201607644E+02  0.20476584884E+02  0.10540989344E+03  0.21490510719E+03  0.17200000000E+03 0. -1.
</event>
<event>
 4    1  0.4487206E+000  0.1827076E+03  0.7818608E-02  0.1165208E+00
         21   -1    0    0  503  502  0.00000000000E+00  0.00000000000E+00  0.15940903788E+03  0.15940903788E+03  0.00000000000E+00 0.  1.
         21   -1    0    0  501  503 -0.00000000000E+00 -0.00000000000E+00 -0.24544469152E+03  0.24544469152E+03  0.00000000000E+00 0.  1.
          6    1    1    2  501    0 -0.57422101825E+02  0.22377523345E+02  0.34543279015E+02  0.18594431816E+03  0.17200000000E+03 0.  1.
         -6    1    1    2    0  502  0.57422101825E+02 -0.22377523345E+02 -0.12057893266E+03  0.21890941124E+03  0.17200000000E+03 0.  1.
</event>
<event>
 4    1  0.4487206E+000  0.1742615E+03  0.7818608E-02  0.1173475E+00
         21   -1    0    0  501  502  0.00000000000E+00  0.00000000000E+00  0.18177160748E+04  0.18177160748E+04  0.00000000000E+00 0.  1.
         21   -1    0    0  502  503 -0.00000000000E+00 -0.00000000000E+00 -0.16967104871E+02  0.16967104871E+02  0.00000000000E+00 0.  1.
          6    1    1    2  501    0  0.76668105889E+00 -0.27972904202E+02  0.78661320822E+03  0.80568443606E+03  0.17200000000E+03 0.  1.
         -6    1    1    2    0  503 -0.76668105889E+00  0.27972904202E+02  0.10141357617E+04  0.10289987436E+04  0.17200000000E+03 0.  1.
</event>
<event>
 4    1  0.4487206E+000  0.2471620E+03  0.7818608E-02  0.1115112E+00
         21   -1    0    0  503  502  0.00000000000E+00  0.00000000000E+00  0.10325131343E+03  0.10325131343E+03  0.00000000000E+00 0. -1.
         21   -1    0    0  501  503 -0.00000000000E+00 -0.00000000000E+00 -0.64948062651E+03  0.64948062651E+03  0.00000000000E+00 0. -1.
          6    1    1    2  501    0 -0.17354369407E+03  0.37251224936E+02 -0.16081184365E+03  0.29487203423E+03  0.17200000000E+03 0. -1.
         -6    1    1    2    0  502  0.17354369407E+03 -0.37251224936E+02 -0.38541746943E+03  0.45785990571E+03  0.17200000000E+03 0. -1.
</event>
<event>
 4    1  0.4487206E+000  0.2344824E+03  0.7818608E-02  0.1123524E+00
         21   -1    0    0  503  502  0.00000000000E+00  0.00000000000E+00  0.29200409949E+03  0.29200409949E+03  0.00000000000E+00 0.  1.
         21   -1    0    0  501  503 -0.00000000000E+00 -0.00000000000E+00 -0.19076146330E+03  0.19076146330E+03  0.00000000000E+00 0.  1.
          6    1    1    2  501    0 -0.34938863513E+02 -0.15549038426E+03  0.23156422819E+02  0.23562301182E+03  0.17200000000E+03 0.  1.
         -6    1    1    2    0  502  0.34938863513E+02  0.15549038426E+03  0.78086213371E+02  0.24714255097E+03  0.17200000000E+03 0.  1.
</event>
<event>
 4    1  0.4487206E+000  0.2061360E+03  0.7818608E-02  0.1144663E+00
         21   -1    0    0  501  502  0.00000000000E+00  0.00000000000E+00  0.60177160201E+02  0.60177160201E+02  0.00000000000E+00 0.  1.
         21   -1    0    0  502  503 -0.00000000000E+00 -0.00000000000E+00 -0.77471241109E+03  0.77471241109E+03  0.00000000000E+00 0.  1.
          6    1    1    2  501    0 -0.97917158035E+02  0.57621788340E+02 -0.23305083973E+03  0.31113459182E+03  0.17200000000E+03 0.  1.
         -6    1    1    2    0  503  0.97917158035E+02 -0.57621788340E+02 -0.48148441115E+03  0.52375497946E+03  0.17200000000E+03 0.  1.
</event>
<event>
 4    1  0.4487206E+000  0.2788405E+03  0.7818608E-02  0.1096324E+00
         21   -1    0    0  501  502  0.00000000000E+00  0.00000000000E+00  0.10053591852E+03  0.10053591852E+03  0.00000000000E+00 0. -1.
         21   -1    0    0  502  503 -0.00000000000E+00 -0.00000000000E+00 -0.89432822567E+03  0.89432822567E+03  0.00000000000E+00 0.  1.
          6    1    1    2  501    0 -0.12120802374E+03  0.18296628639E+03 -0.57982938058E+03  0.64339269312E+03  0.17200000000E+03 0.  1.
         -6    1    1    2    0  503  0.12120802374E+03 -0.18296628639E+03 -0.21396292657E+03  0.35147145108E+03  0.17200000000E+03 0. -1.
</event>
<event>
 4    1  0.4487206E+000  0.1737722E+03  0.7818608E-02  0.1173970E+00
         21   -1    0    0  501  502  0.00000000000E+00  0.00000000000E+00  0.61126193566E+02  0.61126193566E+02  0.00000000000E+00 0. -1.
         21   -1    0    0  502  503 -0.00000000000E+00 -0.00000000000E+00 -0.10285679151E+04  0.10285679151E+04  0.00000000000E+00 0. -1.
          6    1    1    2  501    0 -0.14187633236E+02  0.20285043582E+02 -0.90934234579E+02  0.19612701739E+03  0.17200000000E+03 0. -1.
         -6    1    1    2    0  503  0.14187633236E+02 -0.20285043582E+02 -0.87650748692E+03  0.89356709124E+03  0.17200000000E+03 0. -1.
</event>
<event>
 4    1  0.4487206E+000  0.1738343E+03  0.7818608E-02  0.1173907E+00
         21   -1    0    0  501  502  0.00000000000E+00  0.00000000000E+00  0.22617691484E+03  0.22617691484E+03  0.00000000000E+00 0.  1.
         21   -1    0    0  502  503 -0.00000000000E+00 -0.00000000000E+00 -0.18569305248E+03  0.18569305248E+03  0.00000000000E+00 0.  1.
          6    1    1    2  501    0 -0.14620072943E+02  0.20508567125E+02  0.12931102610E+03  0.21665569305E+03  0.17200000000E+03 0.  1.
         -6    1    1    2    0  503  0.14620072943E+02 -0.20508567125E+02 -0.88827163743E+02  0.19521427427E+03  0.17200000000E+03 0.  1.
</event>
<event>
 4    1  0.4487206E+000  0.2094305E+03  0.7818608E-02  0.1142018E+00
         21   -1    0    0  501  502  0.00000000000E+00  0.00000000000E+00  0.64940310485E+03  0.64940310485E+03  0.00000000000E+00 0. -1.
         21   -1    0    0  502  503 -0.00000000000E+00 -0.00000000000E+00 -0.14320834169E+03  0.14320834169E+03  0.00000000000E+00 0. -1.
          6    1    1    2  501    0  0.11932939762E+03  0.61357303172E+01  0.54116950408E+03  0.58028060839E+03  0.17200000000E+03 0. -1.
         -6    1    1    2    0  503 -0.11932939762E+03 -0.61357303172E+01 -0.34974740924E+02  0.21233083814E+03  0.17200000000E+03 0. -1.
</event>
<event>
 4    1  0.4487206E+000  0.2973888E+03  0.7818608E-02  0.1086553E+00
         21   -1    0    0  501  502  0.00000000000E+00  0.00000000000E+00  0.30823071332E+03  0.30823071332E+03  0.00000000000E+00 0.  1.
         21   -1    0    0  502  503 -0.00000000000E+00 -0.00000000000E+00 -0.82015861879E+03  0.82015861879E+03  0.00000000000E+00 0.  1.
          6    1    1    2  501    0 -0.17914295136E+03  0.16359680892E+03  0.19895860168E+03  0.35780530752E+03  0.17200000000E+03 0.  1.
         -6    1    1    2    0  503  0.17914295136E+03 -0.16359680892E+03 -0.71088650714E+03  0.77058402459E+03  0.17200000000E+03 0.  1.
</event>
<event>
 4    1  0.4487206E+000  0.1793318E+03  0.7818608E-02  0.1168451E+00
         21   -1    0    0  501  502  0.00000000000E+00  0.00000000000E+00  0.18234361430E+03  0.18234361430E+03  0.00000000000E+00 0.  1.
         21   -1    0    0  502  503 -0.00000000000E+00 -0.00000000000E+00 -0.13124196467E+04  0.13124196467E+04  0.00000000000E+00 0.  1.
          6    1    1    2  501    0  0.32546495735E+02  0.38943772720E+02  0.13031407841E+03  0.22167916196E+03  0.17200000000E+03 0.  1.
         -6    1    1    2    0  503 -0.32546495735E+02 -0.38943772720E+02 -0.12603901108E+04  0.12730840990E+04  0.17200000000E+03 0.  1.
</event>
<event>
 4    1  0.4487206E+000  0.1945905E+03  0.7818608E-02  0.1154385E+00
         21   -1    0    0  503  502  0.00000000000E+00  0.00000000000E+00  0.43310117054E+03  0.43310117054E+03  0.00000000000E+00 0. -1.
         21   -1    0    0  501  503 -0.00000000000E+00 -0.00000000000E+00 -0.14336178324E+03  0.14336178324E+03  0.00000000000E+00 0. -1.
          6    1    1    2  501    0  0.77887842660E+02  0.47063036688E+02 -0.35166296065E+02  0.19774254432E+03  0.17200000000E+03 0. -1.
         -6    1    1    2    0  502 -0.77887842660E+02 -0.47063036688E+02  0.32490568337E+03  0.37872040946E+03  0.17200000000E+03 0. -1.
</event>
<event>
 4    1  0.4487206E+000  0.1960436E+03  0.7818608E-02  0.1153121E+00
         21   -1    0    0  501  502  0.00000000000E+00  0.00000000000E+00  0.13230683390E+04  0.13230683390E+04  0.00000000000E+00 0. -1.
         21   -1    0    0  502  503 -0.00000000000E+00 -0.00000000000E+00 -0.52440733827E+02  0.52440733827E+02  0.00000000000E+00 0. -1.
          6    1    1    2  501    0  0.92397609089E+02  0.17657580621E+02  0.10946548207E+04  0.11120711690E+04  0.17200000000E+03 0. -1.
         -6    1    1    2    0  503 -0.92397609089E+02 -0.17657580621E+02  0.17597278443E+03  0.26343790384E+03  0.17200000000E+03 0. -1.
</event>
<event>
 4    1  0.4487206E+000  0.5448877E+03  0.7818608E-02  0.1002684E+00
         21   -1    0    0  501  502  0.00000000000E+00  0.00000000000E+00  0.38620623012E+03  0.38620623012E+03  0.00000000000E+00 0. -1.
         21   -1    0    0  502  503 -0.00000000000E+00 -0.00000000000E+00 -0.78591322264E+03  0.78591322264E+03  0.00000000000E+00 0. -1.
          6    1    1    2  501    0  0.13702172440E+03  0.49854155244E+03 -0.11328937874E+03  0.55654030923E+03  0.17200000000E+03 0. -1.
         -6    1    1    2    0  503 -0.13702172440E+03 -0.49854155244E+03 -0.28641761378E+03  0.61557914353E+03  0.17200000000E+03 0. -1.
</event>
<event>
 4    1  0.4487206E+000  0.1752969E+03  0.7818608E-02  0.1172434E+00
         21   -1    0    0  503  502  0.00000000000E+00  0.00000000000E+00  0.13760183247E+04  0.13760183247E+04  0.00000000000E+00 0. -1.
         21   -1    0    0  501  503 -0.00000000000E+00 -0.00000000000E+00 -0.38231605699E+02  0.38231605699E+02  0.00000000000E+00 0. -1.
          6    1    1    2  501    0 -0.26001908587E+02  0.21653915055E+02  0.21287685742E+03  0.27576357213E+03  0.17200000000E+03 0. -1.
         -6    1    1    2    0  502  0.26001908587E+02 -0.21653915055E+02  0.11249098616E+04  0.11384863582E+04  0.17200000000E+03 0. -1.
</event>
<event>
 4    1  0.4487206E+000  0.1936021E+03  0.7818608E-02  0.1155252E+00
         21   -1    0    0  503  502  0.00000000000E+00  0.00000000000E+00  0.25454371833E+02  0.25454371833E+02  0.00000000000E+00 0.  1.
         21   -1    0    0  501  503 -0.00000000000E+00 -0.00000000000E+00 -0.19270019605E+04  0.19270019605E+04  0.00000000000E+00 0.  1.
          6    1    1    2  501    0 -0.34579177393E+01  0.88802152561E+02 -0.14248782790E+04  0.14379707541E+04  0.17200000000E+03 0.  1.
         -6    1    1    2    0  502  0.34579177393E+01 -0.88802152561E+02 -0.47666930962E+03  0.51448557825E+03  0.17200000000E+03 0.  1.
</event>
<event>
 4    1  0.4487206E+000  0.1817234E+03  0.7818608E-02  0.1166145E+00
         21   -1    0    0  501  502  0.00000000000E+00  0.00000000000E+00  0.70085283344E+03  0.70085283344E+03  0.00000000000E+00 0. -1.
         21   -1    0    0  502  503 -0.00000000000E+00 -0.00000000000E+00 -0.53582039962E+02  0.53582039962E+02  0.00000000000E+00 0.  1.
          6    1    1    2  501    0  0.56705673966E+02 -0.14962123915E+02  0.19262532537E+03  0.26481675662E+03  0.17200000000E+03 0. -1.
         -6    1    1    2    0  503 -0.56705673966E+02  0.14962123915E+02  0.45464546811E+03  0.48961811678E+03  0.17200000000E+03 0. -1.
</event>
<event>
 4    1  0.4487206E+000  0.1946177E+03  0.7818608E-02  0.1154361E+00
         21   -1    0    0  501  502  0.00000000000E+00  0.00000000000E+00  0.20601844793E+03  0.20601844793E+03  0.00000000000E+00 0.  1.
         21   -1    0    0  502  503 -0.00000000000E+00 -0.00000000000E+00 -0.18796445572E+03  0.18796445572E+03  0.00000000000E+00 0.  1.
          6    1    1    2  501    0 -0.89800215418E+02  0.15098660920E+02  0.38179728766E+02  0.19832735550E+03  0.17200000000E+03 0. -1.
         -6    1    1    2    0  503  0.89800215418E+02 -0.15098660920E+02 -0.20125736553E+02  0.19565554815E+03  0.17200000000E+03 0. -1.
</event>
<event>
 4    1  0.4487206E+000  0.1791459E+03  0.7818608E-02  0.1168632E+00
         21   -1    0    0  503  502  0.00000000000E+00  0.00000000000E+00  0.62017435194E+03  0.62017435194E+03  0.00000000000E+00 0.  1.
         21   -1    0    0  501  503 -0.00000000000E+00 -0.00000000000E+00 -0.51934979861E+02  0.51934979861E+02  0.00000000000E+00 0.  1.
          6    1    1    2  501    0 -0.12115106075E+02  0.48605459721E+02  0.26399779227E+03  0.31904247497E+03  0.17200000000E+03 0.  1.
         -6    1    1    2    0  502  0.12115106075E+02 -0.48605459721E+02  0.30424157981E+03  0.35306685683E+03  0.17200000000E+03 0.  1.
</event>
<event>
 4    1  0.4487206E+000  0.3029378E+03  0.7818608E-02  0.1083781E+00
         21   -1    0    0  501  502  0.00000000000E+00  0.00000000000E+00  0.23417722577E+03  0.23417722577E+03  0.00000000000E+00 0. -1.
         21   -1    0    0  502  503 -0.00000000000E+00 -0.00000000000E+00 -0.39293335422E+03  0.39293335422E+03  0.00000000000E+00 0.  1.
          6    1    1    2  501    0 -0.22715650458E+03  0.10289417837E+03 -0.63206701378E+02  0.30946142993E+03  0.17200000000E+03 0.  1.
         -6    1    1    2    0  503  0.22715650458E+03 -0.10289417837E+03 -0.95549427068E+02  0.31764915005E+03  0.17200000000E+03 0. -1.
</event>
<event>
 4    1  0.4487206E+000  0.1983931E+03  0.7818608E-02  0.1151102E+00
         21   -1    0    0  501  502  0.00000000000E+00  0.00000000000E+00  0.21564851932E+04  0.21564851932E+04  0.00000000000E+00 0.  1.
         21   -1    0    0  502  503 -0.00000000000E+00 -0.00000000000E+00 -0.19754420335E+02  0.19754420335E+02  0.00000000000E+00 0. -1.
          6    1    1    2  501    0  0.98799083751E+02  0.38159817637E+01  0.13684637019E+04  0.13827699462E+04  0.17200000000E+03 0.  1.
         -6    1    1    2    0  503 -0.98799083751E+02 -0.38159817637E+01  0.76826707093E+03  0.79346966731E+03  0.17200000000E+03 0. -1.
</event>
<event>
 4    1  0.4487206E+000  0.2713997E+03  0.7818608E-02  0.1100481E+00
         21   -1    0    0  503  502  0.00000000000E+00  0.00000000000E+00  0.46335958926E+03  0.46335958926E+03  0.00000000000E+00 0.  1.
         21   -1    0    0  501  503 -0.00000000000E+00 -0.00000000000E+00 -0.17649060974E+03  0.17649060974E+03  0.00000000000E+00 0. -1.
          6    1    1    2  501    0 -0.14806217593E+03 -0.14883335812E+03  0.42618617629E+02  0.27472554122E+03  0.17200000000E+03 0. -1.
         -6    1    1    2    0  502  0.14806217593E+03  0.14883335812E+03  0.24425036189E+03  0.36512465777E+03  0.17200000000E+03 0.  1.
</event>
<event>
 4    1  0.4487206E+000  0.1760231E+03  0.7818608E-02  0.1171708E+00
         21   -1    0    0  503  502  0.00000000000E+00  0.00000000000E+00  0.51292509773E+03  0.51292509773E+03  0.00000000000E+00 0.  1.
         21   -1    0    0  501  503 -0.00000000000E+00 -0.00000000000E+00 -0.33544034313E+03  0.33544034313E+03  0.00000000000E+00 0.  1.
          6    1    1    2  501    0  0.12106110300E+02  0.35405767657E+02 -0.29535223539E+03  0.34382709207E+03  0.17200000000E+03 0.  1.
         -6    1    1    2    0  502 -0.12106110300E+02 -0.35405767657E+02  0.47283699000E+03  0.50453834879E+03  0.17200000000E+03 0.  1.
</event>
<event>
 4    1  0.4487206E+000  0.1720619E+03  0.7818608E-02  0.1175715E+00
         21   -1    0    0  503  502  0.00000000000E+00  0.00000000000E+00  0.49466455719E+02  0.49466455719E+02  0.00000000000E+00 0.  1.
         21   -1    0    0  501  503 -0.00000000000E+00 -0.00000000000E+00 -0.64485521662E+03  0.64485521662E+03  0.00000000000E+00 0.  1.
          6    1    1    2  501    0 -0.45361091528E+00 -0.45926480859E+01 -0.39078040592E+03  0.42698316575E+03  0.17200000000E+03 0.  1.
         -6    1    1    2    0  502  0.45361091528E+00  0.45926480859E+01 -0.20460835498E+03  0.26733850659E+03  0.17200000000E+03 0.  1.
</event>
<event>
 4    1  0.4487206E+000  0.2111240E+03  0.7818608E-02  0.1140679E+00
         21   -1    0    0  503  502  0.00000000000E+00  0.00000000000E+00  0.56209963065E+02  0.56209963065E+02  0.00000000000E+00 0. -1.
         21   -1    0    0  501  503 -0.00000000000E+00 -0.00000000000E+00 -0.85233843897E+03  0.85233843897E+03  0.00000000000E+00 0. -1.
          6    1    1    2  501    0 -0.12044760753E+03 -0.21947707523E+02 -0.51794691351E+03  0.55932310272E+03  0.17200000000E+03 0.  1.
         -6    1    1    2    0  502  0.12044760753E+03  0.21947707523E+02 -0.27818156240E+03  0.34922529932E+03  0.17200000000E+03 0.  1.
</event>
<event>
 4    1  0.4487206E+000  0.2168153E+03  0.7818608E-02  0.1136280E+00
         21   -1    0    0  501  502  0.00000000000E+00  0.00000000000E+00  0.12928132960E+03  0.12928132960E+03  0.00000000000E+00 0.  1.
         21   -1    0    0  502  503 -0.00000000000E+00 -0.00000000000E+00 -0.41704477792E+03  0.41704477792E+03  0.00000000000E+00 0. -1.
          6    1    1    2  501    0  0.15202729746E+02 -0.13112487392E+03 -0.46109559602E+02  0.22166404093E+03  0.17200000000E+03 0. -1.
         -6    1    1    2    0  503 -0.15202729746E+02  0.13112487392E+03 -0.24165388871E+03  0.32466206659E+03  0.17200000000E+03 0.  1.
</event>
<event>
 4    1  0.4487206E+000  0.1894167E+03  0.7818608E-02  0.1158988E+00
         21   -1    0    0  501  502  0.00000000000E+00  0.00000000000E+00  0.48746858385E+03  0.48746858385E+03  0.00000000000E+00 0.  1.
         21   -1    0    0  502  503 -0.00000000000E+00 -0.00000000000E+00 -0.73611468368E+02  0.73611468368E+02  0.00000000000E+00 0.  1.
          6    1    1    2  501    0  0.75043323622E+02 -0.25752458599E+02  0.20375611778E+03  0.27820000912E+03  0.17200000000E+03 0.  1.
         -6    1    1    2    0  503 -0.75043323622E+02  0.25752458599E+02  0.21010099770E+03  0.28288004309E+03  0.17200000000E+03 0.  1.
</event>
<event>
 4    1  0.4487206E+000  0.2138897E+03  0.7818608E-02  0.1138522E+00
         21   -1    0    0  503  502  0.00000000000E+00  0.00000000000E+00  0.75683962662E+03  0.75683962662E+03  0.00000000000E+00 0.  1.
         21   -1    0    0  501  503 -0.00000000000E+00 -0.00000000000E+00 -0.61073236510E+02  0.61073236510E+02  0.00000000000E+00 0.  1.
          6    1    1    2  501    0 -0.16880331536E+01 -0.12712974798E+03  0.30647771516E+03  0.37373441395E+03  0.17200000000E+03 0.  1.
         -6    1    1    2    0  502  0.16880331536E+01  0.12712974798E+03  0.38928867494E+03  0.44417844918E+03  0.17200000000E+03 0.  1.
</event>
<event>
 4    1  0.4487206E+000  0.2359488E+03  0.7818608E-02  0.1122521E+00
         21   -1    0    0  503  502  0.00000000000E+00  0.00000000000E+00  0.23376649104E+03  0.23376649104E+03  0.00000000000E+00 0.  1.
         21   -1    0    0  501  503 -0.00000000000E+00 -0.00000000000E+00 -0.35648030438E+03  0.35648030438E+03  0.00000000000E+00 0.  1.
          6    1    1    2  501    0  0.15107105934E+03 -0.57143418453E+02 -0.23138909787E+03  0.33047352369E+03  0.17200000000E+03 0.  1.
         -6    1    1    2    0  502 -0.15107105934E+03  0.57143418453E+02  0.10867528453E+03  0.25977327174E+03  0.17200000000E+03 0.  1.
</event>
<event>
 4    1  0.4487206E+000  0.2192095E+03  0.7818608E-02  0.1134474E+00
         21   -1    0    0  501  502  0.00000000000E+00  0.00000000000E+00  0.17802900578E+03  0.17802900578E+03  0.00000000000E+00 0.  1.
         21   -1    0    0  502  503 -0.00000000000E+00 -0.00000000000E+00 -0.39878379706E+03  0.39878379706E+03  0.00000000000E+00 0.  1.
          6    1    1    2  501    0 -0.51557092786E+02 -0.12574055621E+03  0.53571642955E+02  0.22566067939E+03  0.17200000000E+03 0.  1.
         -6    1    1    2    0  503  0.51557092786E+02  0.12574055621E+03 -0.27432643423E+03  0.35115212346E+03  0.17200000000E+03 0.  1.
</event>
<event>
 4    1  0.4487206E+000  0.2320096E+03  0.7818608E-02  0.1125233E+00
         21   -1    0    0  503  502  0.00000000000E+00  0.00000000000E+00  0.66829709781E+03  0.66829709781E+03  0.00000000000E+00 0.  1.
         21   -1    0    0  501  503 -0.00000000000E+00 -0.00000000000E+00 -0.88732363710E+02  0.88732363710E+02  0.00000000000E+00 0.  1.
          6    1    1    2  501    0  0.42140750341E+02  0.14989531028E+03  0.17480942114E+03  0.29049402851E+03  0.17200000000E+03 0.  1.
         -6    1    1    2    0  502 -0.42140750341E+02 -0.14989531028E+03  0.40475531296E+03  0.46653543301E+03  0.17200000000E+03 0.  1.
</event>
<event>
 4    1  0.4487206E+000  0.2288396E+03  0.7818608E-02  0.1127459E+00
         21   -1    0    0  501  502  0.00000000000E+00  0.00000000000E+00  0.92596096961E+02  0.92596096961E+02  0.00000000000E+00 0. -1.
         21   -1    0    0  502  503 -0.00000000000E+00 -0.00000000000E+00 -0.57997039144E+03  0.57997039144E+03  0.00000000000E+00 0. -1.
          6    1    1    2  501    0 -0.10105721335E+03  0.11212050829E+03 -0.19065785064E+03  0.29785564416E+03  0.17200000000E+03 0. -1.
         -6    1    1    2    0  503  0.10105721335E+03 -0.11212050829E+03 -0.29671644383E+03  0.37471084424E+03  0.17200000000E+03 0. -1.
</event>
<event>
 4    1  0.4487206E+000  0.2066713E+03  0.7818608E-02  0.1144229E+00
         21   -1    0    0  503  502  0.00000000000E+00  0.00000000000E+00  0.11465696061E+04  0.11465696061E+04  0.00000000000E+00 0.  1.
         21   -1    0    0  501  503 -0.00000000000E+00 -0.00000000000E+00 -0.39780061476E+02  0.39780061476E+02  0.00000000000E+00 0.  1.
          6    1    1    2  501    0  0.65409735969E+01 -0.11439514888E+03  0.40388584611E+03  0.45369241906E+03  0.17200000000E+03 0.  1.
         -6    1    1    2    0  502 -0.65409735969E+01  0.11439514888E+03  0.70290369854E+03  0.73265724854E+03  0.17200000000E+03 0.  1.
</event>
<event>
 4    1  0.4487206E+000  0.1861308E+03  0.7818608E-02  0.1161998E+00
         21   -1    0    0  501  502  0.00000000000E+00  0.00000000000E+00  0.11718728398E+04  0.11718728398E+04  0.00000000000E+00 0. -1.
         21   -1    0    0  502  503 -0.00000000000E+00 -0.00000000000E+00 -0.39295165789E+02  0.39295165789E+02  0.00000000000E+00 0. -1.
          6    1    1    2  501    0  0.61752966519E+02 -0.35316381627E+02  0.86765755946E+03  0.88739749615E+03  0.17200000000E+03 0. -1.
         -6    1    1    2    0  503 -0.61752966519E+02  0.35316381627E+02  0.26492011452E+03  0.32377050941E+03  0.17200000000E+03 0. -1.
</event>
<event>
 4    1  0.4487206E+000  0.1881099E+03  0.7818608E-02  0.1160177E+00
         21   -1    0    0  503  502  0.00000000000E+00  0.00000000000E+00  0.15292908013E+04  0.15292908013E+04  0.00000000000E+00 0. -1.
         21   -1    0    0  501  503 -0.00000000000E+00 -0.00000000000E+00 -0.25506762189E+02  0.25506762189E+02  0.00000000000E+00 0. -1.
          6    1    1    2  501    0  0.59661822139E+02 -0.47347732572E+02  0.51500550546E+03  0.54828460808E+03  0.17200000000E+03 0. -1.
         -6    1    1    2    0  502 -0.59661822139E+02  0.47347732572E+02  0.98877853364E+03  0.10065129554E+04  0.17200000000E+03 0. -1.
</event>
<event>
 4    1  0.4487206E+000  0.2011571E+03  0.7818608E-02  0.1148766E+00
         21   -1    0    0  501  502  0.00000000000E+00  0.00000000000E+00  0.49478302567E+03  0.49478302567E+03  0.00000000000E+00 0. -1.
         21   -1    0    0  502  503 -0.00000000000E+00 -0.00000000000E+00 -0.24227898948E+03  0.24227898948E+03  0.00000000000E+00 0. -1.
          6    1    1    2  501    0 -0.79710785745E+02 -0.67278377345E+02  0.42620282152E+03  0.47128869548E+03  0.17200000000E+03 0. -1.
         -6    1    1    2    0  503  0.79710785745E+02  0.67278377345E+02 -0.17369878533E+03  0.26577331967E+03  0.17200000000E+03 0. -1.
</event>
<event>
 4    1  0.4487206E+000  0.2067255E+03  0.7818608E-02  0.1144186E+00
         21   -1    0    0  501  502  0.00000000000E+00  0.00000000000E+00  0.11375591187E+03  0.11375591187E+03  0.00000000000E+00 0. -1.
         21   -1    0    0  502  503 -0.00000000000E+00 -0.00000000000E+00 -0.59219242408E+03  0.59219242408E+03  0.00000000000E+00 0. -1.
          6    1    1    2  501    0 -0.82149923142E+02  0.80017541970E+02 -0.25787760264E+02  0.20832768773E+03  0.17200000000E+03 0. -1.
         -6    1    1    2    0  503  0.82149923142E+02 -0.80017541970E+02 -0.45264875195E+03  0.49762064822E+03  0.17200000000E+03 0. -1.
</event>
<event>
 4    1  0.4487206E+000  0.1935070E+03  0.7818608E-02  0.1155336E+00
         21   -1    0    0  501  502  0.00000000000E+00  0.00000000000E+00  0.57287206532E+02  0.57287206532E+02  0.00000000000E+00 0.  1.
         21   -1    0    0  502  503 -0.00000000000E+00 -0.00000000000E+00 -0.81006010150E+03  0.81006010150E+03  0.00000000000E+00 0. -1.
          6    1    1    2  501    0 -0.12197971408E+02  0.87818927524E+02 -0.18581541691E+03  0.26827658060E+03  0.17200000000E+03 0.  1.
         -6    1    1    2    0  503  0.12197971408E+02 -0.87818927524E+02 -0.56695747805E+03  0.59907072743E+03  0.17200000000E+03 0. -1.
</event>
<event>
 4    1  0.4487206E+000  0.1912069E+03  0.7818608E-02  0.1157377E+00
         21   -1    0    0  503  502  0.00000000000E+00  0.00000000000E+00  0.23945817698E+03  0.23945817698E+03  0.00000000000E+00 0.  1.
         21   -1    0    0  501  503 -0.00000000000E+00 -0.00000000000E+00 -0.17189564753E+03  0.17189564753E+03  0.00000000000E+00 0.  1.
          6    1    1    2  501    0  0.65073134961E+02 -0.52360119433E+02 -0.34988655791E+02  0.19438184338E+03  0.17200000000E+03 0.  1.
         -6    1    1    2    0  502 -0.65073134961E+02  0.52360119433E+02  0.10255118524E+03  0.21697198113E+03  0.17200000000E+03 0.  1.
</event>
<event>
 4    1  0.4487206E+000  0.1811825E+03  0.7818608E-02  0.1166663E+00
         21   -1    0    0  503  502  0.00000000000E+00  0.00000000000E+00  0.11272367825E+03  0.11272367825E+03  0.00000000000E+00 0.  1.
         21   -1    0    0  501  503 -0.00000000000E+00 -0.00000000000E+00 -0.29121749131E+03  0.29121749131E+03  0.00000000000E+00 0.  1.
          6    1    1    2  501    0  0.43943187320E+02 -0.36222953963E+02 -0.89217694610E+02  0.20195767660E+03  0.17200000000E+03 0.  1.
         -6    1    1    2    0  502 -0.43943187320E+02  0.36222953963E+02 -0.89276118448E+02  0.20198349297E+03  0.17200000000E+03 0.  1.
</event>
<event>
 4    1  0.4487206E+000  0.1892143E+03  0.7818608E-02  0.1159172E+00
         21   -1    0    0  503  502  0.00000000000E+00  0.00000000000E+00  0.36371910075E+03  0.36371910075E+03  0.00000000000E+00 0. -1.
         21   -1    0    0  501  503 -0.00000000000E+00 -0.00000000000E+00 -0.98650699503E+02  0.98650699503E+02  0.00000000000E+00 0. -1.
          6    1    1    2  501    0 -0.50515418582E+02  0.60549666071E+02  0.12168135684E+03  0.22496315738E+03  0.17200000000E+03 0. -1.
         -6    1    1    2    0  502  0.50515418582E+02 -0.60549666071E+02  0.14338704441E+03  0.23740664287E+03  0.17200000000E+03 0. -1.
</event>
<event>
 4    1  0.4487206E+000  0.1941526E+03  0.7818608E-02  0.1154768E+00
         21   -1    0    0  503  502  0.00000000000E+00  0.00000000000E+00  0.86727567575E+03  0.86727567575E+03  0.00000000000E+00 0. -1.
         21   -1    0    0  501  503 -0.00000000000E+00 -0.00000000000E+00 -0.70166948612E+02  0.70166948612E+02  0.00000000000E+00 0. -1.
          6    1    1    2  501    0  0.89285833898E+02  0.11801815699E+02  0.10940098673E+03  0.22285380608E+03  0.17200000000E+03 0. -1.
         -6    1    1    2    0  502 -0.89285833898E+02 -0.11801815699E+02  0.68770774041E+03  0.71458881828E+03  0.17200000000E+03 0. -1.
</event>
<event>
 4    1  0.4487206E+000  0.2101422E+03  0.7818608E-02  0.1141453E+00
         21   -1    0    0  501  502  0.00000000000E+00  0.00000000000E+00  0.59334760503E+03  0.59334760503E+03  0.00000000000E+00 0. -1.
         21   -1    0    0  502  503 -0.00000000000E+00 -0.00000000000E+00 -0.82476630750E+03  0.82476630750E+03  0.00000000000E+00 0.  1.
          6    1    1    2  501    0  0.58187394703E+02 -0.10578275583E+03  0.56059963539E+03  0.59869166983E+03  0.17200000000E+03 0. -1.
         -6    1    1    2    0  503 -0.58187394703E+02  0.10578275583E+03 -0.79201833785E+03  0.81942224270E+03  0.17200000000E+03 0.  1.
</event>
<event>
 4    1  0.4487206E+000  0.2240705E+03  0.7818608E-02  0.1130884E+00
         21   -1    0    0  501  502  0.00000000000E+00  0.00000000000E+00  0.29310925570E+03  0.29310925570E+03  0.00000000000E+00 0. -1.
         21   -1    0    0  502  503 -0.00000000000E+00 -0.00000000000E+00 -0.22154723099E+03  0.22154723099E+03  0.00000000000E+00 0. -1.
          6    1    1    2  501    0  0.15432583598E+02  0.14277748844E+03  0.15833866364E+03  0.27436965620E+03  0.17200000000E+03 0. -1.
         -6    1    1    2    0  503 -0.15432583598E+02 -0.14277748844E+03 -0.86776638925E+02  0.24028683048E+03  0.17200000000E+03 0. -1.
</event>
<event>
 4    1  0.4487206E+000  0.1834381E+03  0.7818608E-02  0.1164517E+00
         21   -1    0    0  503  502  0.00000000000E+00  0.00000000000E+00  0.59951912721E+02  0.59951912721E+02  0.00000000000E+00 0. -1.
         21   -1    0    0  501  503 -0.00000000000E+00 -0.00000000000E+00 -0.56127697808E+03  0.56127697808E+03  0.00000000000E+00 0.  1.
          6    1    1    2  501    0  0.55189800548E+02  0.31931505728E+02 -0.25117963682E+03  0.31103174290E+03  0.17200000000E+03 0. -1.
         -6    1    1    2    0  502 -0.55189800548E+02 -0.31931505728E+02 -0.25014542854E+03  0.31019714790E+03  0.17200000000E+03 0.  1.
</event>
<event>
 4    1  0.4487206E+000  0.1758123E+03  0.7818608E-02  0.1171919E+00
         21   -1    0    0  501  502  0.00000000000E+00  0.00000000000E+00  0.39186015795E+03  0.39186015795E+03  0.00000000000E+00 0. -1.
         21   -1    0    0  502  503 -0.00000000000E+00 -0.00000000000E+00 -0.20529680330E+03  0.20529680330E+03  0.00000000000E+00 0. -1.
          6    1    1    2  501    0 -0.34431497929E+02 -0.11850241477E+02  0.32758027750E+03  0.37177788325E+03  0.17200000000E+03 0. -1.
         -6    1    1    2    0  503  0.34431497929E+02  0.11850241477E+02 -0.14101692284E+03  0.22537907800E+03  0.17200000000E+03 0. -1.
</event>
<event>
 4    1  0.4487206E+000  0.3447289E+03  0.7818608E-02  0.1064800E+00
         21   -1    0    0  503  502  0.00000000000E+00  0.00000000000E+00  0.52040593731E+03  0.52040593731E+03  0.00000000000E+00 0. -1.
         21   -1    0    0  501  503 -0.00000000000E+00 -0.00000000000E+00 -0.25587395772E+03  0.25587395772E+03  0.00000000000E+00 0.  1.
          6    1    1    2  501    0 -0.19080188966E+03 -0.22988833163E+03  0.49800158913E+01  0.34476485708E+03  0.17200000000E+03 0.  1.
         -6    1    1    2    0  502  0.19080188966E+03  0.22988833163E+03  0.25955196370E+03  0.43151503795E+03  0.17200000000E+03 0. -1.
</event>
<event>
 4    1  0.4487206E+000  0.1855360E+03  0.7818608E-02  0.1162550E+00
         21   -1    0    0  503  502  0.00000000000E+00  0.00000000000E+00  0.32675714062E+02  0.32675714062E+02  0.00000000000E+00 0.  1.
         21   -1    0    0  501  503 -0.00000000000E+00 -0.00000000000E+00 -0.10603561871E+04  0.10603561871E+04  0.00000000000E+00 0.  1.
          6    1    1    2  501    0 -0.54983049384E+02 -0.42620236243E+02 -0.46987036967E+03  0.50517500389E+03  0.17200000000E+03 0.  1.
         -6    1    1    2    0  502  0.54983049384E+02  0.42620236243E+02 -0.55781010337E+03  0.58785689728E+03  0.17200000000E+03 0.  1.
</event>
<event>
 4    1  0.4487206E+000  0.2218645E+03  0.7818608E-02  0.1132501E+00
         21   -1    0    0  501  502  0.00000000000E+00  0.00000000000E+00  0.65531272745E+03  0.65531272745E+03  0.00000000000E+00 0.  1.
         21   -1    0    0  502  503 -0.00000000000E+00 -0.00000000000E+00 -0.77385521202E+02  0.77385521202E+02  0.00000000000E+00 0. -1.
          6    1    1    2  501    0  0.95795445838E+02  0.10228916881E+03  0.35171512913E+03  0.41584537217E+03  0.17200000000E+03 0.  1.
         -6    1    1    2    0  503 -0.95795445838E+02 -0.10228916881E+03  0.22621207711E+03  0.31685287648E+03  0.17200000000E+03 0.  1.
</event>
<event>
 4    1  0.4487206E+000  0.2269948E+03  0.7818608E-02  0.1128773E+00
         21   -1    0    0  503  502  0.00000000000E+00  0.00000000000E+00  0.20269433627E+04  0.20269433627E+04  0.00000000000E+00 0. -1.
         21   -1    0    0  501  503 -0.00000000000E+00 -0.00000000000E+00 -0.13722629547E+03  0.13722629547E+03  0.00000000000E+00 0.  1.
          6    1    1    2  501    0  0.80761705179E+02  0.12417797717E+03 -0.31870543591E+02  0.22922119140E+03  0.17200000000E+03 0.  1.
         -6    1    1    2    0  502 -0.80761705179E+02 -0.12417797717E+03  0.19215876108E+04  0.19349484667E+04  0.17200000000E+03 0. -1.
</event>
<event>
 4    1  0.4487206E+000  0.1850548E+03  0.7818608E-02  0.1162999E+00
         21   -1    0    0  501  502  0.00000000000E+00  0.00000000000E+00  0.33512756894E+02  0.33512756894E+02  0.00000000000E+00 0.  1.
         21   -1    0    0  502  503 -0.00000000000E+00 -0.00000000000E+00 -0.12215843784E+04  0.12215843784E+04  0.00000000000E+00 0.  1.
          6    1    1    2  501    0  0.15032210668E+02  0.66598168292E+02 -0.34028749378E+03  0.38735108339E+03  0.17200000000E+03 0.  1.
         -6    1    1    2    0  503 -0.15032210668E+02 -0.66598168292E+02 -0.84778412775E+03  0.86774605193E+03  0.17200000000E+03 0.  1.
</event>
<event>
 4    1  0.4487206E+000  0.2059559E+03  0.7818608E-02  0.1144809E+00
         21   -1    0    0  501  502  0.00000000000E+00  0.00000000000E+00  0.17435753482E+03  0.17435753482E+03  0.00000000000E+00 0. -1.
         21   -1    0    0  502  503 -0.00000000000E+00 -0.00000000000E+00 -0.24363125791E+03  0.24363125791E+03  0.00000000000E+00 0. -1.
          6    1    1    2  501    0 -0.93582735064E+02  0.63844321750E+02 -0.42564407810E+02  0.21030823696E+03  0.17200000000E+03 0. -1.
         -6    1    1    2    0  503  0.93582735064E+02 -0.63844321750E+02 -0.26709315279E+02  0.20768055577E+03  0.17200000000E+03 0. -1.
</event>
<event>
 4    1  0.4487206E+000  0.2285078E+03  0.7818608E-02  0.1127694E+00
         21   -1    0    0  501  502  0.00000000000E+00  0.00000000000E+00  0.26273198123E+03  0.26273198123E+03  0.00000000000E+00 0. -1.
         21   -1    0    0  502  503 -0.00000000000E+00 -0.00000000000E+00 -0.22967792889E+03  0.22967792889E+03  0.00000000000E+00 0.  1.
          6    1    1    2  501    0 -0.87102214112E+01 -0.15018632492E+03  0.10688590958E+03  0.25227048543E+03  0.17200000000E+03 0. -1.
         -6    1    1    2    0  503  0.87102214112E+01  0.15018632492E+03 -0.73831857236E+02  0.24013942470E+03  0.17200000000E+03 0.  1.
</event>
<event>
 4    1  0.4487206E+000  0.1846929E+03  0.7818608E-02  0.1163337E+00
         21   -1    0    0  501  502  0.00000000000E+00  0.00000000000E+00  0.11427103064E+04  0.11427103064E+04  0.00000000000E+00 0.  1.
         21   -1    0    0  502  503 -0.00000000000E+00 -0.00000000000E+00 -0.34595790883E+02  0.34595790883E+02  0.00000000000E+00 0.  1.
          6    1    1    2  501    0 -0.63438891402E+02  0.22426773661E+02  0.77204896499E+03  0.79383314208E+03  0.17200000000E+03 0.  1.
         -6    1    1    2    0  503  0.63438891402E+02 -0.22426773661E+02  0.33606555049E+03  0.38347295517E+03  0.17200000000E+03 0.  1.
</event>
<event>
 4    1  0.4487206E+000  0.1935771E+03  0.7818608E-02  0.1155274E+00
         21   -1    0    0  503  502  0.00000000000E+00  0.00000000000E+00  0.30012620245E+04  0.30012620245E+04  0.00000000000E+00 0. -1.
         21   -1    0    0  501  503 -0.00000000000E+00 -0.00000000000E+00 -0.13281196562E+02  0.13281196562E+02  0.00000000000E+00 0. -1.
          6    1    1    2  501    0  0.64843157943E+02 -0.60691542663E+02  0.11250458873E+04  0.11415780074E+04  0.17200000000E+03 0. -1.
         -6    1    1    2    0  502 -0.64843157943E+02  0.60691542663E+02  0.18629349406E+04  0.18729652136E+04  0.17200000000E+03 0. -1.
</event>
<event>
 4    1  0.4487206E+000  0.1747896E+03  0.7818608E-02  0.1172943E+00
         21   -1    0    0  501  502  0.00000000000E+00  0.00000000000E+00  0.40283584349E+03  0.40283584349E+03  0.00000000000E+00 0.  1.
         21   -1    0    0  502  503 -0.00000000000E+00 -0.00000000000E+00 -0.77974733563E+02  0.77974733563E+02  0.00000000000E+00 0.  1.
          6    1    1    2  501    0 -0.29119701015E+02 -0.10928602559E+02  0.20220076114E+03  0.26727614773E+03  0.17200000000E+03 0.  1.
         -6    1    1    2    0  503  0.29119701015E+02  0.10928602559E+02  0.12266034879E+03  0.21353442932E+03  0.17200000000E+03 0.  1.
</event>
<event>
 4    1  0.4487206E+000  0.1725990E+03  0.7818608E-02  0.1175164E+00
         21   -1    0    0  501  502  0.00000000000E+00  0.00000000000E+00  0.37223772024E+03  0.37223772024E+03  0.00000000000E+00 0.  1.
         21   -1    0    0  502  503 -0.00000000000E+00 -0.00000000000E+00 -0.24000340416E+03  0.24000340416E+03  0.00000000000E+00 0.  1.
          6    1    1    2  501    0  0.71854595335E+01  0.12440651378E+02  0.31604055053E+03  0.36010002807E+03  0.17200000000E+03 0.  1.
         -6    1    1    2    0  503 -0.71854595335E+01 -0.12440651378E+02 -0.18380623446E+03  0.25214109633E+03  0.17200000000E+03 0.  1.
</event>
<event>
 4    1  0.4487206E+000  0.1878933E+03  0.7818608E-02  0.1160375E+00
         21   -1    0    0  503  502  0.00000000000E+00  0.00000000000E+00  0.67224896271E+03  0.67224896271E+03  0.00000000000E+00 0. -1.
         21   -1    0    0  501  503 -0.00000000000E+00 -0.00000000000E+00 -0.80574714254E+02  0.80574714254E+02  0.00000000000E+00 0. -1.
          6    1    1    2  501    0 -0.64998934175E+02  0.38665485401E+02  0.73712277793E+02  0.20183503438E+03  0.17200000000E+03 0. -1.
         -6    1    1    2    0  502  0.64998934175E+02 -0.38665485401E+02  0.51796197066E+03  0.55098864258E+03  0.17200000000E+03 0. -1.
</event>
<event>
 4    1  0.4487206E+000  0.2092877E+03  0.7818608E-02  0.1142131E+00
         21   -1    0    0  501  502  0.00000000000E+00  0.00000000000E+00  0.13588669766E+03  0.13588669766E+03  0.00000000000E+00 0. -1.
         21   -1    0    0  502  503 -0.00000000000E+00 -0.00000000000E+00 -0.48876029960E+03  0.48876029960E+03  0.00000000000E+00 0. -1.
          6    1    1    2  501    0 -0.58213224340E+01  0.11909426363E+03  0.58115312269E+01  0.20936834842E+03  0.17200000000E+03 0. -1.
         -6    1    1    2    0  503  0.58213224340E+01 -0.11909426363E+03 -0.35868513316E+03  0.41527864883E+03  0.17200000000E+03 0. -1.
</event>
<event>
 4    1  0.4487206E+000  0.1843241E+03  0.7818608E-02  0.1163683E+00
         21   -1    0    0  501  502  0.00000000000E+00  0.00000000000E+00  0.23080210766E+03  0.23080210766E+03  0.00000000000E+00 0.  1.
         21   -1    0    0  502  503 -0.00000000000E+00 -0.00000000000E+00 -0.17823631595E+03  0.17823631595E+03  0.00000000000E+00 0.  1.
          6    1    1    2  501    0 -0.66058738495E+02  0.52555277270E+01  0.11161873475E+03  0.21548577552E+03  0.17200000000E+03 0.  1.
         -6    1    1    2    0  503  0.66058738495E+02 -0.52555277270E+01 -0.59052943043E+02  0.19355264810E+03  0.17200000000E+03 0.  1.
</event>
<event>
 4    1  0.4487206E+000  0.2337554E+03  0.7818608E-02  0.1124024E+00
         21   -1    0    0  501  502  0.00000000000E+00  0.00000000000E+00  0.47934390376E+03  0.47934390376E+03  0.00000000000E+00 0. -1.
         21   -1    0    0  502  503 -0.00000000000E+00 -0.00000000000E+00 -0.11429728281E+03  0.11429728281E+03  0.00000000000E+00 0.  1.
          6    1    1    2  501    0 -0.42668448744E+02 -0.15243679761E+03  0.16719391411E+03  0.28739411737E+03  0.17200000000E+03 0.  1.
         -6    1    1    2    0  503  0.42668448744E+02  0.15243679761E+03  0.19785270684E+03  0.30624706919E+03  0.17200000000E+03 0. -1.
</event>
<event>
 4    1  0.4487206E+000  0.1724388E+03  0.7818608E-02  0.1175328E+00
         21   -1    0    0  503  502  0.00000000000E+00  0.00000000000E+00  0.24964957454E+03  0.24964957454E+03  0.00000000000E+00 0. -1.
         21   -1    0    0  501  503 -0.00000000000E+00 -0.00000000000E+00 -0.22171302882E+03  0.22171302882E+03  0.00000000000E+00 0. -1.
          6    1    1    2  501    0  0.10782688147E+01 -0.12246700052E+02 -0.14636174375E+03  0.22617892112E+03  0.17200000000E+03 0. -1.
         -6    1    1    2    0  502 -0.10782688147E+01  0.12246700052E+02  0.17429828947E+03  0.24518368224E+03  0.17200000000E+03 0. -1.
</event>
<event>
 4    1  0.4487206E+000  0.2564680E+03  0.7818608E-02  0.1109284E+00
         21   -1    0    0  503  502  0.00000000000E+00  0.00000000000E+00  0.33155610694E+03  0.33155610694E+03  0.00000000000E+00 0.  1.
         21   -1    0    0  501  503 -0.00000000000E+00 -0.00000000000E+00 -0.30514850487E+03  0.30514850487E+03  0.00000000000E+00 0. -1.
          6    1    1    2  501    0  0.18301199909E+03  0.51946344608E+02 -0.17510188882E+03  0.31054224511E+03  0.17200000000E+03 0. -1.
         -6    1    1    2    0  502 -0.18301199909E+03 -0.51946344608E+02  0.20150949090E+03  0.32616236670E+03  0.17200000000E+03 0.  1.
</event>
<event>
 4    1  0.4487206E+000  0.1902131E+03  0.7818608E-02  0.1158269E+00
         21   -1    0    0  501  502  0.00000000000E+00  0.00000000000E+00  0.13717493484E+03  0.13717493484E+03  0.00000000000E+00 0. -1.
         21   -1    0    0  502  503 -0.00000000000E+00 -0.00000000000E+00 -0.27877459856E+03  0.27877459856E+03  0.00000000000E+00 0. -1.
          6    1    1    2  501    0 -0.77985523584E+02 -0.22699658250E+02 -0.22531012231E+02  0.19154284869E+03  0.17200000000E+03 0. -1.
         -6    1    1    2    0  503  0.77985523584E+02  0.22699658250E+02 -0.11906865149E+03  0.22440668471E+03  0.17200000000E+03 0. -1.
</event>
<event>
 4    1  0.4487206E+000  0.2005129E+03  0.7818608E-02  0.1149307E+00
         21   -1    0    0  501  502  0.00000000000E+00  0.00000000000E+00  0.42559322012E+03  0.42559322012E+03  0.00000000000E+00 0.  1.
         21   -1    0    0  502  503 -0.00000000000E+00 -0.00000000000E+00 -0.14958935271E+03  0.14958935271E+03  0.00000000000E+00 0.  1.
          6    1    1    2  501    0 -0.82248474776E+02  0.62101590364E+02  0.31257646445E+03  0.37136163676E+03  0.17200000000E+03 0.  1.
         -6    1    1    2    0  503  0.82248474776E+02 -0.62101590364E+02 -0.36572597035E+02  0.20382093608E+03  0.17200000000E+03 0.  1.
</event>
<event>
 4    1  0.4487206E+000  0.1738819E+03  0.7818608E-02  0.1173859E+00
         21   -1    0    0  503  502  0.00000000000E+00  0.00000000000E+00  0.34756655648E+03  0.34756655648E+03  0.00000000000E+00 0. -1.
         21   -1    0    0  501  503 -0.00000000000E+00 -0.00000000000E+00 -0.16050726878E+03  0.16050726878E+03  0.00000000000E+00 0. -1.
          6    1    1    2  501    0  0.12729052084E+02 -0.22110550319E+02 -0.78397079812E+02  0.19073805946E+03  0.17200000000E+03 0. -1.
         -6    1    1    2    0  502 -0.12729052084E+02  0.22110550319E+02  0.26545636752E+03  0.31733576580E+03  0.17200000000E+03 0. -1.
</event>
<event>
 4    1  0.4487206E+000  0.2314823E+03  0.7818608E-02  0.1125601E+00
         21   -1    0    0  501  502  0.00000000000E+00  0.00000000000E+00  0.47039372930E+03  0.47039372930E+03  0.00000000000E+00 0.  1.
         21   -1    0    0  502  503 -0.00000000000E+00 -0.00000000000E+00 -0.31012136571E+03  0.31012136571E+03  0.00000000000E+00 0. -1.
          6    1    1    2  501    0 -0.87942607070E+01 -0.15466966544E+03  0.39055213347E+03  0.45399891342E+03  0.17200000000E+03 0.  1.
         -6    1    1    2    0  503  0.87942607070E+01  0.15466966544E+03 -0.23027976988E+03  0.32651618160E+03  0.17200000000E+03 0. -1.
</event>
<event>
 4    1  0.4487206E+000  0.1973524E+03  0.7818608E-02  0.1151992E+00
         21   -1    0    0  501  502  0.00000000000E+00  0.00000000000E+00  0.92478132477E+03  0.92478132477E+03  0.00000000000E+00 0. -1.
         21   -1    0    0  502  503 -0.00000000000E+00 -0.00000000000E+00 -0.11287622548E+03  0.11287622548E+03  0.00000000000E+00 0.  1.
          6    1    1    2  501    0 -0.79226103677E+02 -0.55562362602E+02  0.81674067378E+03  0.84024596390E+03  0.17200000000E+03 0. -1.
         -6    1    1    2    0  503  0.79226103677E+02  0.55562362602E+02 -0.48355744987E+01  0.19741158634E+03  0.17200000000E+03 0.  1.
</event>
<event>
 4    1  0.4487206E+000  0.1819290E+03  0.7818608E-02  0.1165949E+00
         21   -1    0    0  503  502  0.00000000000E+00  0.00000000000E+00  0.59665261539E+02  0.59665261539E+02  0.00000000000E+00 0. -1.
         21   -1    0    0  501  503 -0.00000000000E+00 -0.00000000000E+00 -0.57134542438E+03  0.57134542438E+03  0.00000000000E+00 0. -1.
          6    1    1    2  501    0  0.57137919709E+02  0.15792773440E+02 -0.20203743532E+03  0.27187732313E+03  0.17200000000E+03 0.  1.
         -6    1    1    2    0  502 -0.57137919709E+02 -0.15792773440E+02 -0.30964272752E+03  0.35913336279E+03  0.17200000000E+03 0.  1.
</event>
<event>
 4    1  0.4487206E+000  0.2010825E+03  0.7818608E-02  0.1148829E+00
         21   -1    0    0  503  502  0.00000000000E+00  0.00000000000E+00  0.42867183050E+02  0.42867183050E+02  0.00000000000E+00 0. -1.
         21   -1    0    0  501  503 -0.00000000000E+00 -0.00000000000E+00 -0.11722425242E+04  0.11722425242E+04  0.00000000000E+00 0. -1.
          6    1    1    2  501    0  0.79825636579E+02 -0.66918186234E+02 -0.83321835934E+03  0.85713885121E+03  0.17200000000E+03 0. -1.
         -6    1    1    2    0  502 -0.79825636579E+02  0.66918186234E+02 -0.29615698182E+03  0.35797085605E+03  0.17200000000E+03 0. -1.
</event>
<event>
 4    1  0.4487206E+000  0.1866019E+03  0.7818608E-02  0.1161562E+00
         21   -1    0    0  503  502  0.00000000000E+00  0.00000000000E+00  0.17222799724E+02  0.17222799724E+02  0.00000000000E+00 0.  1.
         21   -1    0    0  501  503 -0.00000000000E+00 -0.00000000000E+00 -0.21441553265E+04  0.21441553265E+04  0.00000000000E+00 0.  1.
          6    1    1    2  501    0 -0.47045714054E+02  0.54981597448E+02 -0.13216712112E+04  0.13347790326E+04  0.17200000000E+03 0.  1.
         -6    1    1    2    0  502  0.47045714054E+02 -0.54981597448E+02 -0.80526131558E+03  0.82659909366E+03  0.17200000000E+03 0.  1.
</event>
<event>
 4    1  0.4487206E+000  0.1743410E+03  0.7818608E-02  0.1173395E+00
         21   -1    0    0  501  502  0.00000000000E+00  0.00000000000E+00  0.74681716636E+03  0.74681716636E+03  0.00000000000E+00 0. -1.
         21   -1    0    0  502  503 -0.00000000000E+00 -0.00000000000E+00 -0.13520256010E+03  0.13520256010E+03  0.00000000000E+00 0. -1.
          6    1    1    2  501    0  0.23794501669E+02  0.15640351728E+02  0.67451284203E+03  0.69667953391E+03  0.17200000000E+03 0. -1.
         -6    1    1    2    0  503 -0.23794501669E+02 -0.15640351728E+02 -0.62898235771E+02  0.18534019255E+03  0.17200000000E+03 0. -1.
</event>
<event>
 4    1  0.4487206E+000  0.2623857E+03  0.7818608E-02  0.1105718E+00
         21   -1    0    0  501  502  0.00000000000E+00  0.00000000000E+00  0.45901735415E+03  0.45901735415E+03  0.00000000000E+00 0.  1.
         21   -1    0    0  502  503 -0.00000000000E+00 -0.00000000000E+00 -0.39444778652E+03  0.39444778652E+03  0.00000000000E+00 0.  1.
          6    1    1    2  501    0 -0.69940575894E+02 -0.18539301124E+03  0.36822838527E+03  0.45214864424E+03  0.17200000000E+03 0.  1.
         -6    1    1    2    0  503  0.69940575894E+02  0.18539301124E+03 -0.30365881763E+03  0.40131649642E+03  0.17200000000E+03 0.  1.
</event>
<event>
 4    1  0.4487206E+000  0.2042198E+03  0.7818608E-02  0.1146227E+00
         21   -1    0    0  501  502  0.00000000000E+00  0.00000000000E+00  0.61297158511E+03  0.61297158511E+03  0.00000000000E+00 0. -1.
         21   -1    0    0  502  503 -0.00000000000E+00 -0.00000000000E+00 -0.71251545356E+02  0.71251545356E+02  0.00000000000E+00 0.  1.
          6    1    1    2  501    0 -0.10757232427E+03  0.23450232691E+02  0.34350797566E+03  0.39962913771E+03  0.17200000000E+03 0.  1.
         -6    1    1    2    0  503  0.10757232427E+03 -0.23450232691E+02  0.19821206410E+03  0.28459399276E+03  0.17200000000E+03 0.  1.
</event>
<event>
 4    1  0.4487206E+000  0.2859104E+03  0.7818608E-02  0.1092504E+00
         21   -1    0    0  503  502  0.00000000000E+00  0.00000000000E+00  0.77385382777E+02  0.77385382777E+02  0.00000000000E+00 0.  1.
         21   -1    0    0  501  503 -0.00000000000E+00 -0.00000000000E+00 -0.11102303106E+04  0.11102303106E+04  0.00000000000E+00 0.  1.
          6    1    1    2  501    0 -0.29215471320E+02  0.22651095259E+03 -0.38558810783E+03  0.48002389973E+03  0.17200000000E+03 0.  1.
         -6    1    1    2    0  502  0.29215471320E+02 -0.22651095259E+03 -0.64725681996E+03  0.70759179362E+03  0.17200000000E+03 0.  1.
</event>
<event>
 4    1  0.4487206E+000  0.1834649E+03  0.7818608E-02  0.1164491E+00
         21   -1    0    0  503  502  0.00000000000E+00  0.00000000000E+00  0.25662801289E+03  0.25662801289E+03  0.00000000000E+00 0. -1.
         21   -1    0    0  501  503 -0.00000000000E+00 -0.00000000000E+00 -0.17977275095E+03  0.17977275095E+03  0.00000000000E+00 0. -1.
          6    1    1    2  501    0  0.42958535436E+02  0.47222155029E+02 -0.75038963464E+02  0.19821759188E+03  0.17200000000E+03 0. -1.
         -6    1    1    2    0  502 -0.42958535436E+02 -0.47222155029E+02  0.15189422541E+03  0.23818317196E+03  0.17200000000E+03 0. -1.
</event>
<event>
 4    1  0.4487206E+000  0.2023572E+03  0.7818608E-02  0.1147765E+00
         21   -1    0    0  503  502  0.00000000000E+00  0.00000000000E+00  0.17478452498E+03  0.17478452498E+03  0.00000000000E+00 0.  1.
         21   -1    0    0  501  503 -0.00000000000E+00 -0.00000000000E+00 -0.55957952792E+03  0.55957952792E+03  0.00000000000E+00 0. -1.
          6    1    1    2  501    0 -0.80436333150E+02  0.69960346417E+02  0.87560232356E+02  0.22048865742E+03  0.17200000000E+03 0.  1.
         -6    1    1    2    0  502  0.80436333150E+02 -0.69960346417E+02 -0.47235523530E+03  0.51387539548E+03  0.17200000000E+03 0. -1.
</event>
<event>
 4    1  0.4487206E+000  0.1948826E+03  0.7818608E-02  0.1154130E+00
         21   -1    0    0  503  502  0.00000000000E+00  0.00000000000E+00  0.85388742210E+02  0.85388742210E+02  0.00000000000E+00 0.  1.
         21   -1    0    0  501  503 -0.00000000000E+00 -0.00000000000E+00 -0.45663728157E+03  0.45663728157E+03  0.00000000000E+00 0.  1.
          6    1    1    2  501    0 -0.11759946026E+02  0.90867578284E+02 -0.22929548064E+03  0.30092462604E+03  0.17200000000E+03 0.  1.
         -6    1    1    2    0  502  0.11759946026E+02 -0.90867578284E+02 -0.14195305872E+03  0.24110139774E+03  0.17200000000E+03 0.  1.
</event>
<event>
 4    1  0.4487206E+000  0.1938208E+03  0.7818608E-02  0.1155060E+00
         21   -1    0    0  503  502  0.00000000000E+00  0.00000000000E+00  0.22593964056E+03  0.22593964056E+03  0.00000000000E+00 0.  1.
         21   -1    0    0  501  503 -0.00000000000E+00 -0.00000000000E+00 -0.17132518829E+03  0.17132518829E+03  0.00000000000E+00 0.  1.
          6    1    1    2  501    0  0.79868975536E+02  0.40043322870E+02 -0.68196237713E+01  0.19394078537E+03  0.17200000000E+03 0.  1.
         -6    1    1    2    0  502 -0.79868975536E+02 -0.40043322870E+02  0.61434076045E+02  0.20332404349E+03  0.17200000000E+03 0.  1.
</event>
<event>
 4    1  0.4487206E+000  0.1767794E+03  0.7818608E-02  0.1170957E+00
         21   -1    0    0  503  502  0.00000000000E+00  0.00000000000E+00  0.10990180778E+03  0.10990180778E+03  0.00000000000E+00 0. -1.
         21   -1    0    0  501  503 -0.00000000000E+00 -0.00000000000E+00 -0.44288732866E+03  0.44288732866E+03  0.00000000000E+00 0. -1.
          6    1    1    2  501    0  0.22191264635E+02  0.34270997400E+02 -0.33185790610E+03  0.37600614799E+03  0.17200000000E+03 0. -1.
         -6    1    1    2    0  502 -0.22191264635E+02 -0.34270997400E+02 -0.11276147776E+01  0.17678298845E+03  0.17200000000E+03 0. -1.
</event>
<event>
 4    1  0.4487206E+000  0.1733704E+03  0.7818608E-02  0.1174378E+00
         21   -1    0    0  503  502  0.00000000000E+00  0.00000000000E+00  0.11788546755E+04  0.11788546755E+04  0.00000000000E+00 0. -1.
         21   -1    0    0  501  503 -0.00000000000E+00 -0.00000000000E+00 -0.26653809096E+02  0.26653809096E+02  0.00000000000E+00 0. -1.
          6    1    1    2  501    0 -0.21204891714E+02 -0.48613372759E+01  0.45052984766E+03  0.48273639148E+03  0.17200000000E+03 0. -1.
         -6    1    1    2    0  502  0.21204891714E+02  0.48613372759E+01  0.70167101878E+03  0.72277209314E+03  0.17200000000E+03 0. -1.
</event>
<event>
 4    1  0.4487206E+000  0.2535161E+03  0.7818608E-02  0.1111103E+00
         21   -1    0    0  503  502  0.00000000000E+00  0.00000000000E+00  0.38760551757E+04  0.38760551757E+04  0.00000000000E+00 0. -1.
         21   -1    0    0  501  503 -0.00000000000E+00 -0.00000000000E+00 -0.64308125476E+02  0.64308125476E+02  0.00000000000E+00 0. -1.
          6    1    1    2  501    0  0.64907674715E+02 -0.17456631168E+03  0.20859082377E+03  0.32829945960E+03  0.17200000000E+03 0. -1.
         -6    1    1    2    0  502 -0.64907674715E+02  0.17456631168E+03  0.36031562264E+04  0.36120638415E+04  0.17200000000E+03 0. -1.
</event>
<event>
 4    1  0.4487206E+000  0.1835009E+03  0.7818608E-02  0.1164457E+00
         21   -1    0    0  501  502  0.00000000000E+00  0.00000000000E+00  0.43908050579E+03  0.43908050579E+03  0.00000000000E+00 0. -1.
         21   -1    0    0  502  503 -0.00000000000E+00 -0.00000000000E+00 -0.45445926025E+03  0.45445926025E+03  0.00000000000E+00 0.  1.
          6    1    1    2  501    0 -0.32104532334E+02 -0.55298031664E+02  0.39964436507E+03  0.43975924304E+03  0.17200000000E+03 0. -1.
         -6    1    1    2    0  503  0.32104532334E+02  0.55298031664E+02 -0.41502311954E+03  0.45378052300E+03  0.17200000000E+03 0.  1.
</event>
<event>
 4    1  0.4487206E+000  0.2230192E+03  0.7818608E-02  0.1131652E+00
         21   -1    0    0  501  502  0.00000000000E+00  0.00000000000E+00  0.10799499015E+03  0.10799499015E+03  0.00000000000E+00 0.  1.
         21   -1    0    0  502  503 -0.00000000000E+00 -0.00000000000E+00 -0.63380569478E+03  0.63380569478E+03  0.00000000000E+00 0. -1.
          6    1    1    2  501    0  0.12129167118E+03  0.73769272909E+02 -0.68987708184E+02  0.23344566606E+03  0.17200000000E+03 0.  1.
         -6    1    1    2    0  503 -0.12129167118E+03 -0.73769272909E+02 -0.45682299645E+03  0.50835501887E+03  0.17200000000E+03 0.  1.
</event>
<event>
 4    1  0.4487206E+000  0.1984141E+03  0.7818608E-02  0.1151084E+00
         21   -1    0    0  503  502  0.00000000000E+00  0.00000000000E+00  0.19141751007E+03  0.19141751007E+03  0.00000000000E+00 0.  1.
         21   -1    0    0  501  503 -0.00000000000E+00 -0.00000000000E+00 -0.26303879280E+03  0.26303879280E+03  0.00000000000E+00 0. -1.
          6    1    1    2  501    0  0.51853493306E+02 -0.84233979350E+02 -0.14193223375E+03  0.24395267374E+03  0.17200000000E+03 0. -1.
         -6    1    1    2    0  502 -0.51853493306E+02  0.84233979350E+02  0.70310951015E+02  0.21050362913E+03  0.17200000000E+03 0.  1.
</event>
<event>
 4    1  0.4487206E+000  0.2999982E+03  0.7818608E-02  0.1085242E+00
         21   -1    0    0  501  502  0.00000000000E+00  0.00000000000E+00  0.24871311204E+03  0.24871311204E+03  0.00000000000E+00 0. -1.
         21   -1    0    0  502  503 -0.00000000000E+00 -0.00000000000E+00 -0.53927984210E+03  0.53927984210E+03  0.00000000000E+00 0.  1.
          6    1    1    2  501    0  0.23463765073E+03 -0.73212645668E+02  0.80706179853E+02  0.31066445901E+03  0.17200000000E+03 0. -1.
         -6    1    1    2    0  503 -0.23463765073E+03  0.73212645668E+02 -0.37127290992E+03  0.47732849513E+03  0.17200000000E+03 0.  1.
</event>
<event>
 4    1  0.4487206E+000  0.1928807E+03  0.7818608E-02  0.1155888E+00
         21   -1    0    0  501  502  0.00000000000E+00  0.00000000000E+00  0.27507201763E+02  0.27507201763E+02  0.00000000000E+00 0.  1.
         21   -1    0    0  502  503 -0.00000000000E+00 -0.00000000000E+00 -0.16295087582E+04  0.16295087582E+04  0.00000000000E+00 0.  1.
          6    1    1    2  501    0  0.63920373428E+01 -0.87052359775E+02 -0.45939132234E+03  0.49824026184E+03  0.17200000000E+03 0.  1.
         -6    1    1    2    0  503 -0.63920373428E+01  0.87052359775E+02 -0.11426102341E+04  0.11587756981E+04  0.17200000000E+03 0.  1.
</event>
<event>
 4    1  0.4487206E+000  0.2139075E+03  0.7818608E-02  0.1138509E+00
         21   -1    0    0  501  502  0.00000000000E+00  0.00000000000E+00  0.97356066397E+03  0.97356066397E+03  0.00000000000E+00 0.  1.
         21   -1    0    0  502  503 -0.00000000000E+00 -0.00000000000E+00 -0.12074431168E+03  0.12074431168E+03  0.00000000000E+00 0.  1.
          6    1    1    2  501    0  0.10009616795E+03 -0.78442090611E+02  0.85401257570E+03  0.88039416393E+03  0.17200000000E+03 0.  1.
         -6    1    1    2    0  503 -0.10009616795E+03  0.78442090611E+02 -0.11962234141E+01  0.21391081171E+03  0.17200000000E+03 0.  1.
</event>
<event>
 4    1  0.4487206E+000  0.2152723E+03  0.7818608E-02  0.1137458E+00
         21   -1    0    0  501  502  0.00000000000E+00  0.00000000000E+00  0.12196050836E+03  0.12196050836E+03  0.00000000000E+00 0.  1.
         21   -1    0    0  502  503 -0.00000000000E+00 -0.00000000000E+00 -0.38514539956E+03  0.38514539956E+03  0.00000000000E+00 0.  1.
          6    1    1    2  501    0  0.20113068613E+02 -0.12788126757E+03 -0.16096529350E+03  0.26879728391E+03  0.17200000000E+03 0.  1.
         -6    1    1    2    0  503 -0.20113068613E+02  0.12788126757E+03 -0.10221959769E+03  0.23830862401E+03  0.17200000000E+03 0.  1.
</event>
<event>
 4    1  0.4487206E+000  0.2061149E+03  0.7818608E-02  0.1144680E+00
         21   -1    0    0  503  502  0.00000000000E+00  0.00000000000E+00  0.82888970064E+03  0.82888970064E+03  0.00000000000E+00 0.  1.
         21   -1    0    0  501  503 -0.00000000000E+00 -0.00000000000E+00 -0.51342758843E+02  0.51342758843E+02  0.00000000000E+00 0. -1.
          6    1    1    2  501    0 -0.26224433040E+02  0.11050630462E+03  0.40714081702E+03  0.45634089136E+03  0.17200000000E+03 0. -1.
         -6    1    1    2    0  502  0.26224433040E+02 -0.11050630462E+03  0.37040612478E+03  0.42389156812E+03  0.17200000000E+03 0. -1.
</event>
<event>
 4    1  0.4487206E+000  0.2602135E+03  0.7818608E-02  0.1107015E+00
         21   -1    0    0  501  502  0.00000000000E+00  0.00000000000E+00  0.12899030717E+04  0.12899030717E+04  0.00000000000E+00 0. -1.
         21   -1    0    0  502  503 -0.00000000000E+00 -0.00000000000E+00 -0.66289472102E+02  0.66289472102E+02  0.00000000000E+00 0.  1.
          6    1    1    2  501    0 -0.18556733288E+03  0.60760494704E+02  0.92115726381E+03  0.95720519087E+03  0.17200000000E+03 0. -1.
         -6    1    1    2    0  503  0.18556733288E+03 -0.60760494704E+02  0.30245633580E+03  0.39898735295E+03  0.17200000000E+03 0.  1.
</event>
<event>
 4    1  0.4487206E+000  0.3072724E+03  0.7818608E-02  0.1081661E+00
         21   -1    0    0  501  502  0.00000000000E+00  0.00000000000E+00  0.12025750376E+04  0.12025750376E+04  0.00000000000E+00 0.  1.
         21   -1    0    0  502  503 -0.00000000000E+00 -0.00000000000E+00 -0.93360400253E+02  0.93360400253E+02  0.00000000000E+00 0.  1.
          6    1    1    2  501    0 -0.15993215566E+03 -0.19812627898E+03  0.29619396884E+03  0.42678704761E+03  0.17200000000E+03 0.  1.
         -6    1    1    2    0  503  0.15993215566E+03  0.19812627898E+03  0.81302066847E+03  0.86914839020E+03  0.17200000000E+03 0.  1.
</event>
<event>
 4    1  0.4487206E+000  0.2788217E+03  0.7818608E-02  0.1096334E+00
         21   -1    0    0  503  502  0.00000000000E+00  0.00000000000E+00  0.28870124647E+03  0.28870124647E+03  0.00000000000E+00 0. -1.
         21   -1    0    0  501  503 -0.00000000000E+00 -0.00000000000E+00 -0.29918505913E+03  0.29918505913E+03  0.00000000000E+00 0. -1.
          6    1    1    2  501    0 -0.21485956142E+03  0.44642198106E+02 -0.98173542516E+02  0.29560040838E+03  0.17200000000E+03 0. -1.
         -6    1    1    2    0  502  0.21485956142E+03 -0.44642198106E+02  0.87689729855E+02  0.29228589721E+03  0.17200000000E+03 0. -1.
</event>
<event>
 4    1  0.4487206E+000  0.2253669E+03  0.7818608E-02  0.1129944E+00
         21   -1    0    0  501  502  0.00000000000E+00  0.00000000000E+00  0.16497590286E+03  0.16497590286E+03  0.00000000000E+00 0. -1.
         21   -1    0    0  502  503 -0.00000000000E+00 -0.00000000000E+00 -0.64331584539E+03  0.64331584539E+03  0.00000000000E+00 0. -1.
          6    1    1    2  501    0  0.20961759413E+02  0.14410712190E+03  0.52667235844E+02  0.23143918353E+03  0.17200000000E+03 0. -1.
         -6    1    1    2    0  503 -0.20961759413E+02 -0.14410712190E+03 -0.53100717837E+03  0.57685256472E+03  0.17200000000E+03 0. -1.
</event>
<event>
 4    1  0.4487206E+000  0.2501549E+03  0.7818608E-02  0.1113207E+00
         21   -1    0    0  501  502  0.00000000000E+00  0.00000000000E+00  0.13272441209E+03  0.13272441209E+03  0.00000000000E+00 0.  1.
         21   -1    0    0  502  503 -0.00000000000E+00 -0.00000000000E+00 -0.56394537635E+03  0.56394537635E+03  0.00000000000E+00 0. -1.
          6    1    1    2  501    0  0.13340455889E+03  0.12327493776E+03 -0.74565462492E+02  0.26103159734E+03  0.17200000000E+03 0.  1.
         -6    1    1    2    0  503 -0.13340455889E+03 -0.12327493776E+03 -0.35665550177E+03  0.43563819111E+03  0.17200000000E+03 0. -1.
</event>
<event>
 4    1  0.4487206E+000  0.1960925E+03  0.7818608E-02  0.1153078E+00
         21   -1    0    0  501  502  0.00000000000E+00  0.00000000000E+00  0.51595745443E+03  0.51595745443E+03  0.00000000000E+00 0. -1.
         21   -1    0    0  502  503 -0.00000000000E+00 -0.00000000000E+00 -0.75344662781E+02  0.75344662781E+02  0.00000000000E+00 0. -1.
          6    1    1    2  501    0 -0.61168766356E+02  0.71600597549E+02  0.25112381802E+03  0.31861487022E+03  0.17200000000E+03 0. -1.
         -6    1    1    2    0  503  0.61168766356E+02 -0.71600597549E+02  0.18948897363E+03  0.27268724700E+03  0.17200000000E+03 0. -1.
</event>
<event>
 4    1  0.4487206E+000  0.4594170E+03  0.7818608E-02  0.1024950E+00
         21   -1    0    0  503  502  0.00000000000E+00  0.00000000000E+00  0.46432188448E+03  0.46432188448E+03  0.00000000000E+00 0. -1.
         21   -1    0    0  501  503 -0.00000000000E+00 -0.00000000000E+00 -0.54539643609E+03  0.54539643609E+03  0.00000000000E+00 0.  1.
          6    1    1    2  501    0  0.42191951784E+03  0.58855267379E+02 -0.24656920434E+03  0.52140233464E+03  0.17200000000E+03 0.  1.
         -6    1    1    2    0  502 -0.42191951784E+03 -0.58855267379E+02  0.16549465274E+03  0.48831598593E+03  0.17200000000E+03 0. -1.
</event>
<event>
 4    1  0.4487206E+000  0.1736343E+03  0.7818608E-02  0.1174110E+00
         21   -1    0    0  503  502  0.00000000000E+00  0.00000000000E+00  0.51432355054E+03  0.51432355054E+03  0.00000000000E+00 0.  1.
         21   -1    0    0  501  503 -0.00000000000E+00 -0.00000000000E+00 -0.62386158891E+02  0.62386158891E+02  0.00000000000E+00 0.  1.
          6    1    1    2  501    0 -0.12270902402E+02  0.20353927328E+02  0.15510547145E+03  0.23282303296E+03  0.17200000000E+03 0.  1.
         -6    1    1    2    0  502  0.12270902402E+02 -0.20353927328E+02  0.29683192020E+03  0.34388667647E+03  0.17200000000E+03 0.  1.
</event>
<event>
 4    1  0.4487206E+000  0.1753393E+03  0.7818608E-02  0.1172391E+00
         21   -1    0    0  501  502  0.00000000000E+00  0.00000000000E+00  0.11087281909E+03  0.11087281909E+03  0.00000000000E+00 0.  1.
         21   -1    0    0  502  503 -0.00000000000E+00 -0.00000000000E+00 -0.57437212036E+03  0.57437212036E+03  0.00000000000E+00 0.  1.
          6    1    1    2  501    0 -0.29034161446E+02 -0.17801776588E+02  0.14659978499E+02  0.17595113171E+03  0.17200000000E+03 0.  1.
         -6    1    1    2    0  503  0.29034161446E+02  0.17801776588E+02 -0.47815927976E+03  0.50929380774E+03  0.17200000000E+03 0.  1.
</event>
<event>
 4    1  0.4487206E+000  0.1935308E+03  0.7818608E-02  0.1155315E+00
         21   -1    0    0  503  502  0.00000000000E+00  0.00000000000E+00  0.38893008505E+02  0.38893008505E+02  0.00000000000E+00 0. -1.
         21   -1    0    0  501  503 -0.00000000000E+00 -0.00000000000E+00 -0.12814360778E+04  0.12814360778E+04  0.00000000000E+00 0. -1.
          6    1    1    2  501    0 -0.41995621463E+02 -0.78144298757E+02 -0.29218401682E+03  0.35046492454E+03  0.17200000000E+03 0. -1.
         -6    1    1    2    0  502  0.41995621463E+02  0.78144298757E+02 -0.95035905252E+03  0.96986416181E+03  0.17200000000E+03 0. -1.
</event>
<event>
 4    1  0.4487206E+000  0.2211998E+03  0.7818608E-02  0.1132992E+00
         21   -1    0    0  501  502  0.00000000000E+00  0.00000000000E+00  0.15565439164E+03  0.15565439164E+03  0.00000000000E+00 0. -1.
         21   -1    0    0  502  503 -0.00000000000E+00 -0.00000000000E+00 -0.56104187740E+03  0.56104187740E+03  0.00000000000E+00 0. -1.
          6    1    1    2  501    0 -0.10995370316E+03 -0.85179552981E+02  0.34929129447E+02  0.22394065546E+03  0.17200000000E+03 0. -1.
         -6    1    1    2    0  503  0.10995370316E+03  0.85179552981E+02 -0.44031661521E+03  0.49275561358E+03  0.17200000000E+03 0. -1.
</event>
<event>
 4    1  0.4487206E+000  0.2066859E+03  0.7818608E-02  0.1144218E+00
         21   -1    0    0  503  502  0.00000000000E+00  0.00000000000E+00  0.96338770305E+03  0.96338770305E+03  0.00000000000E+00 0. -1.
         21   -1    0    0  501  503 -0.00000000000E+00 -0.00000000000E+00 -0.51904402701E+02  0.51904402701E+02  0.00000000000E+00 0. -1.
          6    1    1    2  501    0 -0.90561889197E+02  0.70239606746E+02  0.26197755812E+03  0.33369342081E+03  0.17200000000E+03 0. -1.
         -6    1    1    2    0  502  0.90561889197E+02 -0.70239606746E+02  0.64950574222E+03  0.68159868494E+03  0.17200000000E+03 0. -1.
</event>
<event>
 4    1  0.4487206E+000  0.1802108E+03  0.7818608E-02  0.1167599E+00
         21   -1    0    0  503  502  0.00000000000E+00  0.00000000000E+00  0.61528292613E+03  0.61528292613E+03  0.00000000000E+00 0. -1.
         21   -1    0    0  501  503 -0.00000000000E+00 -0.00000000000E+00 -0.13028427734E+03  0.13028427734E+03  0.00000000000E+00 0.  1.
          6    1    1    2  501    0  0.42603280173E+02  0.32816274303E+02 -0.45020401473E+02  0.18574925004E+03  0.17200000000E+03 0.  1.
         -6    1    1    2    0  502 -0.42603280173E+02 -0.32816274303E+02  0.53001905027E+03  0.55981795343E+03  0.17200000000E+03 0. -1.
</event>
<event>
 4    1  0.4487206E+000  0.1901324E+03  0.7818608E-02  0.1158342E+00
         21   -1    0    0  501  502  0.00000000000E+00  0.00000000000E+00  0.14679495356E+04  0.14679495356E+04  0.00000000000E+00 0.  1.
         21   -1    0    0  502  503 -0.00000000000E+00 -0.00000000000E+00 -0.26270277596E+02  0.26270277596E+02  0.00000000000E+00 0.  1.
          6    1    1    2  501    0 -0.52448518415E+02  0.61769726331E+02  0.90772868367E+03  0.92742746850E+03  0.17200000000E+03 0.  1.
         -6    1    1    2    0  503  0.52448518415E+02 -0.61769726331E+02  0.53395057438E+03  0.56679234474E+03  0.17200000000E+03 0.  1.
</event>
<event>
 4    1  0.4487206E+000  0.2488526E+03  0.7818608E-02  0.1114032E+00
         21   -1    0    0  501  502  0.00000000000E+00  0.00000000000E+00  0.61010540469E+02  0.61010540469E+02  0.00000000000E+00 0.  1.
         21   -1    0    0  502  503 -0.00000000000E+00 -0.00000000000E+00 -0.10391295429E+04  0.10391295429E+04  0.00000000000E+00 0.  1.
          6    1    1    2  501    0 -0.17370691198E+02  0.17900242229E+03 -0.40529194389E+03  0.47559349016E+03  0.17200000000E+03 0.  1.
         -6    1    1    2    0  503  0.17370691198E+02 -0.17900242229E+03 -0.57282705857E+03  0.62454659324E+03  0.17200000000E+03 0.  1.
</event>
<event>
 4    1  0.4487206E+000  0.2087673E+03  0.7818608E-02  0.1142546E+00
         21   -1    0    0  501  502  0.00000000000E+00  0.00000000000E+00  0.36691934298E+03  0.36691934298E+03  0.00000000000E+00 0.  1.
         21   -1    0    0  502  503 -0.00000000000E+00 -0.00000000000E+00 -0.12996958894E+03  0.12996958894E+03  0.00000000000E+00 0. -1.
          6    1    1    2  501    0  0.10184184759E+03 -0.60233037342E+02  0.19136308521E+03  0.28320242069E+03  0.17200000000E+03 0. -1.
         -6    1    1    2    0  503 -0.10184184759E+03  0.60233037342E+02  0.45586668835E+02  0.21368651123E+03  0.17200000000E+03 0.  1.
</event>
<event>
 4    1  0.4487206E+000  0.2371856E+03  0.7818608E-02  0.1121682E+00
         21   -1    0    0  503  502  0.00000000000E+00  0.00000000000E+00  0.40366063728E+03  0.40366063728E+03  0.00000000000E+00 0. -1.
         21   -1    0    0  501  503 -0.00000000000E+00 -0.00000000000E+00 -0.14621793500E+03  0.14621793500E+03  0.00000000000E+00 0. -1.
          6    1    1    2  501    0 -0.13465349669E+02 -0.16276263819E+03  0.18823407540E+03  0.30280201316E+03  0.17200000000E+03 0.  1.
         -6    1    1    2    0  502  0.13465349669E+02  0.16276263819E+03  0.69208626888E+02  0.24707655912E+03  0.17200000000E+03 0.  1.
</event>
<event>
 4    1  0.4487206E+000  0.1964609E+03  0.7818608E-02  0.1152760E+00
         21   -1    0    0  501  502  0.00000000000E+00  0.00000000000E+00  0.75373491100E+02  0.75373491100E+02  0.00000000000E+00 0.  1.
         21   -1    0    0  502  503 -0.00000000000E+00 -0.00000000000E+00 -0.57582016416E+03  0.57582016416E+03  0.00000000000E+00 0.  1.
          6    1    1    2  501    0  0.79369254782E+02 -0.52090471940E+02 -0.14189061453E+03  0.24234240727E+03  0.17200000000E+03 0. -1.
         -6    1    1    2    0  503 -0.79369254782E+02  0.52090471940E+02 -0.35855605853E+03  0.40885124799E+03  0.17200000000E+03 0. -1.
</event>
<event>
 4    1  0.4487206E+000  0.1803967E+03  0.7818608E-02  0.1167420E+00
         21   -1    0    0  501  502  0.00000000000E+00  0.00000000000E+00  0.24188549206E+03  0.24188549206E+03  0.00000000000E+00 0.  1.
         21   -1    0    0  502  503 -0.00000000000E+00 -0.00000000000E+00 -0.22069444944E+03  0.22069444944E+03  0.00000000000E+00 0.  1.
          6    1    1    2  501    0  0.17571285174E+02 -0.51480298273E+02  0.15510725396E+03  0.23791013304E+03  0.17200000000E+03 0.  1.
         -6    1    1    2    0  503 -0.17571285174E+02  0.51480298273E+02 -0.13391621133E+03  0.22466980845E+03  0.17200000000E+03 0.  1.
</event>
<event>
 4    1  0.4487206E+000  0.2604827E+03  0.7818608E-02  0.1106854E+00
         21   -1    0    0  503  502  0.00000000000E+00  0.00000000000E+00  0.33613928030E+02  0.33613928030E+02  0.00000000000E+00 0. -1.
         21   -1    0    0  501  503 -0.00000000000E+00 -0.00000000000E+00 -0.20946207064E+04  0.20946207064E+04  0.00000000000E+00 0. -1.
          6    1    1    2  501    0  0.65677674593E+02 -0.18426530106E+03 -0.82770844913E+03  0.86772837621E+03  0.17200000000E+03 0. -1.
         -6    1    1    2    0  502 -0.65677674593E+02  0.18426530106E+03 -0.12332983293E+04  0.12605062583E+04  0.17200000000E+03 0. -1.
</event>
<event>
 4    1  0.4487206E+000  0.2429473E+03  0.7818608E-02  0.1117845E+00
         21   -1    0    0  503  502  0.00000000000E+00  0.00000000000E+00  0.96391155482E+02  0.96391155482E+02  0.00000000000E+00 0. -1.
         21   -1    0    0  501  503 -0.00000000000E+00 -0.00000000000E+00 -0.61266831841E+03  0.61266831841E+03  0.00000000000E+00 0.  1.
          6    1    1    2  501    0 -0.60203685772E+02  0.16067024681E+03 -0.24983507847E+03  0.34848382807E+03  0.17200000000E+03 0.  1.
         -6    1    1    2    0  502  0.60203685772E+02 -0.16067024681E+03 -0.26644208445E+03  0.36057564582E+03  0.17200000000E+03 0. -1.
</event>
<event>
 4    1  0.4487206E+000  0.2008283E+03  0.7818608E-02  0.1149042E+00
         21   -1    0    0  503  502  0.00000000000E+00  0.00000000000E+00  0.15890342090E+03  0.15890342090E+03  0.00000000000E+00 0.  1.
         21   -1    0    0  501  503 -0.00000000000E+00 -0.00000000000E+00 -0.36918341678E+03  0.36918341678E+03  0.00000000000E+00 0. -1.
          6    1    1    2  501    0 -0.11701676614E+02  0.10301001090E+03 -0.25274418296E+03  0.32281823617E+03  0.17200000000E+03 0. -1.
         -6    1    1    2    0  502  0.11701676614E+02 -0.10301001090E+03  0.42464187082E+02  0.20526860151E+03  0.17200000000E+03 0.  1.
</event>
<event>
 4    1  0.4487206E+000  0.2221740E+03  0.7818608E-02  0.1132273E+00
         21   -1    0    0  501  502  0.00000000000E+00  0.00000000000E+00  0.17983062622E+03  0.17983062622E+03  0.00000000000E+00 0.  1.
         21   -1    0    0  502  503 -0.00000000000E+00 -0.00000000000E+00 -0.45120348156E+03  0.45120348156E+03  0.00000000000E+00 0.  1.
          6    1    1    2  501    0 -0.11890161461E+03  0.75097981407E+02  0.61771350265E+02  0.23060138872E+03  0.17200000000E+03 0.  1.
         -6    1    1    2    0  503  0.11890161461E+03 -0.75097981407E+02 -0.33314420560E+03  0.40043271906E+03  0.17200000000E+03 0.  1.
</event>
<event>
 4    1  0.4487206E+000  0.1726022E+03  0.7818608E-02  0.1175161E+00
         21   -1    0    0  501  502  0.00000000000E+00  0.00000000000E+00  0.23871014133E+03  0.23871014133E+03  0.00000000000E+00 0.  1.
         21   -1    0    0  502  503 -0.00000000000E+00 -0.00000000000E+00 -0.13827457253E+03  0.13827457253E+03  0.00000000000E+00 0.  1.
          6    1    1    2  501    0 -0.37945693463E+01 -0.13896457638E+02  0.10905435613E+03  0.20416748733E+03  0.17200000000E+03 0.  1.
         -6    1    1    2    0  503  0.37945693463E+01  0.13896457638E+02 -0.86187873265E+01  0.17281722653E+03  0.17200000000E+03 0.  1.
</event>
<event>
 4    1  0.4487206E+000  0.1936935E+03  0.7818608E-02  0.1155172E+00
         21   -1    0    0  501  502  0.00000000000E+00  0.00000000000E+00  0.37949201966E+03  0.37949201966E+03  0.00000000000E+00 0.  1.
         21   -1    0    0  502  503 -0.00000000000E+00 -0.00000000000E+00 -0.24652831515E+03  0.24652831515E+03  0.00000000000E+00 0.  1.
          6    1    1    2  501    0  0.75428902570E+02 -0.47367336582E+02  0.30873329090E+03  0.36446320641E+03  0.17200000000E+03 0.  1.
         -6    1    1    2    0  503 -0.75428902570E+02  0.47367336582E+02 -0.17576958638E+03  0.26155712840E+03  0.17200000000E+03 0.  1.
</event>
<event>
 4    1  0.4487206E+000  0.1991468E+03  0.7818608E-02  0.1150461E+00
         21   -1    0    0  503  502  0.00000000000E+00  0.00000000000E+00  0.44890960055E+03  0.44890960055E+03  0.00000000000E+00 0. -1.
         21   -1    0    0  501  503 -0.00000000000E+00 -0.00000000000E+00 -0.94160049480E+02  0.94160049480E+02  0.00000000000E+00 0. -1.
          6    1    1    2  501    0 -0.30570460734E+02 -0.95607980199E+02  0.10990245901E+03  0.22745986337E+03  0.17200000000E+03 0. -1.
         -6    1    1    2    0  502  0.30570460734E+02  0.95607980199E+02  0.24484709206E+03  0.31560978666E+03  0.17200000000E+03 0. -1.
</event>
<event>
 4    1  0.4487206E+000  0.2060691E+03  0.7818608E-02  0.1144717E+00
         21   -1    0    0  501  502  0.00000000000E+00  0.00000000000E+00  0.53330462418E+03  0.53330462418E+03  0.00000000000E+00 0.  1.
         21   -1    0    0  502  503 -0.00000000000E+00 -0.00000000000E+00 -0.14823197355E+03  0.14823197355E+03  0.00000000000E+00 0.  1.
          6    1    1    2  501    0  0.92291600058E+02 -0.66050962592E+02  0.42436750603E+03  0.47175443748E+03  0.17200000000E+03 0.  1.
         -6    1    1    2    0  503 -0.92291600058E+02  0.66050962592E+02 -0.39294855406E+02  0.20978216026E+03  0.17200000000E+03 0.  1.
</event>
<event>
 4    1  0.4487206E+000  0.1930765E+03  0.7818608E-02  0.1155715E+00
         21   -1    0    0  501  502  0.00000000000E+00  0.00000000000E+00  0.96276254861E+03  0.96276254861E+03  0.00000000000E+00 0.  1.
         21   -1    0    0  502  503 -0.00000000000E+00 -0.00000000000E+00 -0.38969721487E+02  0.38969721487E+02  0.00000000000E+00 0.  1.
          6    1    1    2  501    0 -0.78690331800E+02 -0.38760268259E+02  0.42183190415E+03  0.46391883135E+03  0.17200000000E+03 0. -1.
         -6    1    1    2    0  503  0.78690331800E+02  0.38760268259E+02  0.50196092297E+03  0.53781343875E+03  0.17200000000E+03 0. -1.
</event>
<event>
 4    1  0.4487206E+000  0.1918343E+03  0.7818608E-02  0.1156817E+00
         21   -1    0    0  501  502  0.00000000000E+00  0.00000000000E+00  0.56750774891E+02  0.56750774891E+02  0.00000000000E+00 0.  1.
         21   -1    0    0  502  503 -0.00000000000E+00 -0.00000000000E+00 -0.10992436085E+04  0.10992436085E+04  0.00000000000E+00 0.  1.
          6    1    1    2  501    0 -0.35992264003E+02 -0.76947782427E+02 -0.15110768177E+03  0.24420060561E+03  0.17200000000E+03 0.  1.
         -6    1    1    2    0  503  0.35992264003E+02  0.76947782427E+02 -0.89138515185E+03  0.91179377780E+03  0.17200000000E+03 0.  1.
</event>
<event>
 4    1  0.4487206E+000  0.2087128E+03  0.7818608E-02  0.1142589E+00
         21   -1    0    0  501  502  0.00000000000E+00  0.00000000000E+00  0.37563834756E+03  0.37563834756E+03  0.00000000000E+00 0. -1.
         21   -1    0    0  502  503 -0.00000000000E+00 -0.00000000000E+00 -0.24573537134E+03  0.24573537134E+03  0.00000000000E+00 0.  1.
          6    1    1    2  501    0 -0.73881274677E+02 -0.92296260452E+02  0.29072666529E+03  0.35788690441E+03  0.17200000000E+03 0. -1.
         -6    1    1    2    0  503  0.73881274677E+02  0.92296260452E+02 -0.16082368907E+03  0.26348681448E+03  0.17200000000E+03 0.  1.
</event>
<event>
 4    1  0.4487206E+000  0.1766130E+03  0.7818608E-02  0.1171122E+00
         21   -1    0    0  503  502  0.00000000000E+00  0.00000000000E+00  0.73192693463E+02  0.73192693463E+02  0.00000000000E+00 0.  1.
         21   -1    0    0  501  503 -0.00000000000E+00 -0.00000000000E+00 -0.10354166448E+04  0.10354166448E+04  0.00000000000E+00 0.  1.
          6    1    1    2  501    0 -0.12618024200E+02 -0.38064728563E+02 -0.90630824769E+03  0.92335625732E+03  0.17200000000E+03 0.  1.
         -6    1    1    2    0  502  0.12618024200E+02  0.38064728563E+02 -0.55915703684E+02  0.18525308098E+03  0.17200000000E+03 0.  1.
</event>
<event>
 4    1  0.4487206E+000  0.1811666E+03  0.7818608E-02  0.1166679E+00
         21   -1    0    0  501  502  0.00000000000E+00  0.00000000000E+00  0.37703212891E+03  0.37703212891E+03  0.00000000000E+00 0. -1.
         21   -1    0    0  502  503 -0.00000000000E+00 -0.00000000000E+00 -0.10032835875E+03  0.10032835875E+03  0.00000000000E+00 0. -1.
          6    1    1    2  501    0  0.25947985855E+02  0.50636301924E+02  0.22517733685E+03  0.28900893770E+03  0.17200000000E+03 0. -1.
         -6    1    1    2    0  503 -0.25947985855E+02 -0.50636301924E+02  0.51526433311E+02  0.18835154996E+03  0.17200000000E+03 0. -1.
</event>
<event>
 4    1  0.4487206E+000  0.3192606E+03  0.7818608E-02  0.1075990E+00
         21   -1    0    0  501  502  0.00000000000E+00  0.00000000000E+00  0.61124884873E+03  0.61124884873E+03  0.00000000000E+00 0. -1.
         21   -1    0    0  502  503 -0.00000000000E+00 -0.00000000000E+00 -0.51649416549E+03  0.51649416549E+03  0.00000000000E+00 0.  1.
          6    1    1    2  501    0 -0.12154062144E+03 -0.23993998442E+03  0.51138065413E+03  0.60285777113E+03  0.17200000000E+03 0. -1.
         -6    1    1    2    0  503  0.12154062144E+03  0.23993998442E+03 -0.41662597089E+03  0.52488524308E+03  0.17200000000E+03 0.  1.
</event>
<event>
 4    1  0.4487206E+000  0.1901969E+03  0.7818608E-02  0.1158284E+00
         21   -1    0    0  501  502  0.00000000000E+00  0.00000000000E+00  0.11308168649E+03  0.11308168649E+03  0.00000000000E+00 0. -1.
         21   -1    0    0  502  503 -0.00000000000E+00 -0.00000000000E+00 -0.34838824412E+03  0.34838824412E+03  0.00000000000E+00 0.  1.
          6    1    1    2  501    0 -0.47961054948E+02 -0.65502523821E+02 -0.51673067186E+02  0.19709122074E+03  0.17200000000E+03 0. -1.
         -6    1    1    2    0  503  0.47961054948E+02  0.65502523821E+02 -0.18363349045E+03  0.26437870987E+03  0.17200000000E+03 0. -1.
</event>
<event>
 4    1  0.4487206E+000  0.1720151E+03  0.7818608E-02  0.1175763E+00
         21   -1    0    0  501  502  0.00000000000E+00  0.00000000000E+00  0.58096289776E+02  0.58096289776E+02  0.00000000000E+00 0. -1.
         21   -1    0    0  502  503 -0.00000000000E+00 -0.00000000000E+00 -0.59584202961E+03  0.59584202961E+03  0.00000000000E+00 0. -1.
          6    1    1    2  501    0 -0.63835559544E+00  0.21857217027E+01 -0.14427156077E+03  0.22450716720E+03  0.17200000000E+03 0. -1.
         -6    1    1    2    0  503  0.63835559544E+00 -0.21857217027E+01 -0.39347417907E+03  0.42943115219E+03  0.17200000000E+03 0. -1.
</event>
<event>
 4    1  0.4487206E+000  0.2134392E+03  0.7818608E-02  0.1138871E+00
         21   -1    0    0  501  502  0.00000000000E+00  0.00000000000E+00  0.20092791816E+02  0.20092791816E+02  0.00000000000E+00 0. -1.
         21   -1    0    0  502  503 -0.00000000000E+00 -0.00000000000E+00 -0.22922794674E+04  0.22922794674E+04  0.00000000000E+00 0. -1.
          6    1    1    2  501    0  0.74804147417E+02 -0.10186580374E+03 -0.10153892190E+04  0.10375796685E+04  0.17200000000E+03 0. -1.
         -6    1    1    2    0  503 -0.74804147417E+02  0.10186580374E+03 -0.12567974566E+04  0.12747925907E+04  0.17200000000E+03 0. -1.
</event>
<event>
 4    1  0.4487206E+000  0.1979598E+03  0.7818608E-02  0.1151472E+00
         21   -1    0    0  501  502  0.00000000000E+00  0.00000000000E+00  0.43087717664E+03  0.43087717664E+03  0.00000000000E+00 0.  1.
         21   -1    0    0  502  503 -0.00000000000E+00 -0.00000000000E+00 -0.36326535820E+03  0.36326535820E+03  0.00000000000E+00 0.  1.
          6    1    1    2  501    0 -0.97285539543E+02  0.11815356177E+02  0.37759564678E+03  0.42634088628E+03  0.17200000000E+03 0.  1.
         -6    1    1    2    0  503  0.97285539543E+02 -0.11815356177E+02 -0.30998382834E+03  0.36780164855E+03  0.17200000000E+03 0.  1.
</event>
<event>
 4    1  0.4487206E+000  0.2083621E+03  0.7818608E-02  0.1142870E+00
         21   -1    0    0  501  502  0.00000000000E+00  0.00000000000E+00  0.11917975699E+04  0.11917975699E+04  0.00000000000E+00 0.  1.
         21   -1    0    0  502  503 -0.00000000000E+00 -0.00000000000E+00 -0.11478824106E+03  0.11478824106E+03  0.00000000000E+00 0.  1.
          6    1    1    2  501    0  0.11119147649E+03  0.38304446231E+02  0.10782727284E+04  0.10982198559E+04  0.17200000000E+03 0.  1.
         -6    1    1    2    0  503 -0.11119147649E+03 -0.38304446231E+02 -0.12633995874E+01  0.20836595505E+03  0.17200000000E+03 0.  1.
</event>
<event>
 4    1  0.4487206E+000  0.1951360E+03  0.7818608E-02  0.1153909E+00
         21   -1    0    0  503  502  0.00000000000E+00  0.00000000000E+00  0.37250640029E+02  0.37250640029E+02  0.00000000000E+00 0. -1.
         21   -1    0    0  501  503 -0.00000000000E+00 -0.00000000000E+00 -0.19099029145E+04  0.19099029145E+04  0.00000000000E+00 0. -1.
          6    1    1    2  501    0 -0.25660936454E+02 -0.88518830856E+02 -0.27259018285E+03  0.33523644620E+03  0.17200000000E+03 0. -1.
         -6    1    1    2    0  502  0.25660936454E+02  0.88518830856E+02 -0.16000620917E+04  0.16119171084E+04  0.17200000000E+03 0. -1.
</event>
<event>
 4    1  0.4487206E+000  0.1765144E+03  0.7818608E-02  0.1171220E+00
         21   -1    0    0  503  502  0.00000000000E+00  0.00000000000E+00  0.14167593079E+03  0.14167593079E+03  0.00000000000E+00 0. -1.
         21   -1    0    0  501  503 -0.00000000000E+00 -0.00000000000E+00 -0.47876911612E+03  0.47876911612E+03  0.00000000000E+00 0. -1.
          6    1    1    2  501    0 -0.34989686458E+02  0.18683273940E+02 -0.39665104919E+03  0.43415365680E+03  0.17200000000E+03 0. -1.
         -6    1    1    2    0  502  0.34989686458E+02 -0.18683273940E+02  0.59557863854E+02  0.18629139011E+03  0.17200000000E+03 0. -1.
</event>
<event>
 4    1  0.4487206E+000  0.1795185E+03  0.7818608E-02  0.1168270E+00
         21   -1    0    0  501  502  0.00000000000E+00  0.00000000000E+00  0.18891415656E+03  0.18891415656E+03  0.00000000000E+00 0.  1.
         21   -1    0    0  502  503 -0.00000000000E+00 -0.00000000000E+00 -0.23219692320E+03  0.23219692320E+03  0.00000000000E+00 0.  1.
          6    1    1    2  501    0 -0.51402714886E+02 -0.79872904271E+00  0.86814469805E+02  0.19940819751E+03  0.17200000000E+03 0.  1.
         -6    1    1    2    0  503  0.51402714886E+02  0.79872904271E+00 -0.13009723645E+03  0.22170288225E+03  0.17200000000E+03 0.  1.
</event>
<event>
 4    1  0.4487206E+000  0.2339978E+03  0.7818608E-02  0.1123857E+00
         21   -1    0    0  501  502  0.00000000000E+00  0.00000000000E+00  0.92967297274E+02  0.92967297274E+02  0.00000000000E+00 0.  1.
         21   -1    0    0  502  503 -0.00000000000E+00 -0.00000000000E+00 -0.68954103556E+03  0.68954103556E+03  0.00000000000E+00 0. -1.
          6    1    1    2  501    0  0.14693027574E+03  0.59853761208E+02 -0.14886481899E+03  0.27733682228E+03  0.17200000000E+03 0.  1.
         -6    1    1    2    0  503 -0.14693027574E+03 -0.59853761208E+02 -0.44770891929E+03  0.50517151055E+03  0.17200000000E+03 0. -1.
</event>
<event>
 4    1  0.4487206E+000  0.1722947E+03  0.7818608E-02  0.1175476E+00
         21   -1    0    0  503  502  0.00000000000E+00  0.00000000000E+00  0.21212111905E+03  0.21212111905E+03  0.00000000000E+00 0.  1.
         21   -1    0    0  501  503 -0.00000000000E+00 -0.00000000000E+00 -0.24177426693E+03  0.24177426693E+03  0.00000000000E+00 0.  1.
          6    1    1    2  501    0  0.27338942843E+01  0.96949141234E+01 -0.16211047503E+03  0.23656980292E+03  0.17200000000E+03 0.  1.
         -6    1    1    2    0  502 -0.27338942843E+01 -0.96949141234E+01  0.13245732715E+03  0.21732558306E+03  0.17200000000E+03 0.  1.
</event>
<event>
 4    1  0.4487206E+000  0.3043745E+03  0.7818608E-02  0.1083074E+00
         21   -1    0    0  503  502  0.00000000000E+00  0.00000000000E+00  0.38379587491E+03  0.38379587491E+03  0.00000000000E+00 0.  1.
         21   -1    0    0  501  503 -0.00000000000E+00 -0.00000000000E+00 -0.24540547040E+03  0.24540547040E+03  0.00000000000E+00 0. -1.
          6    1    1    2  501    0  0.17678390313E+01 -0.25111100313E+03  0.10944593597E+03  0.32345366600E+03  0.17200000000E+03 0.  1.
         -6    1    1    2    0  502 -0.17678390313E+01  0.25111100313E+03  0.28944468545E+02  0.30574767932E+03  0.17200000000E+03 0. -1.
</event>
<event>
 4    1  0.4487206E+000  0.2841122E+03  0.7818608E-02  0.1093464E+00
         21   -1    0    0  501  502  0.00000000000E+00  0.00000000000E+00  0.17376974206E+03  0.17376974206E+03  0.00000000000E+00 0. -1.
         21   -1    0    0  502  503 -0.00000000000E+00 -0.00000000000E+00 -0.50015644842E+03  0.50015644842E+03  0.00000000000E+00 0. -1.
          6    1    1    2  501    0  0.84325352230E+02 -0.20982126171E+03 -0.25313676869E+03  0.38052325889E+03  0.17200000000E+03 0. -1.
         -6    1    1    2    0  503 -0.84325352230E+02  0.20982126171E+03 -0.73249937665E+02  0.29340293158E+03  0.17200000000E+03 0. -1.
</event>
<event>
 4    1  0.4487206E+000  0.1760309E+03  0.7818608E-02  0.1171701E+00
         21   -1    0    0  501  502  0.00000000000E+00  0.00000000000E+00  0.10478268997E+04  0.10478268997E+04  0.00000000000E+00 0.  1.
         21   -1    0    0  502  503 -0.00000000000E+00 -0.00000000000E+00 -0.29828840628E+02  0.29828840628E+02  0.00000000000E+00 0.  1.
          6    1    1    2  501    0 -0.58910721919E+01  0.36988655498E+02  0.45904885070E+03  0.49164287109E+03  0.17200000000E+03 0.  1.
         -6    1    1    2    0  503  0.58910721919E+01 -0.36988655498E+02  0.55894920833E+03  0.58601286919E+03  0.17200000000E+03 0.  1.
</event>
<event>
 4    1  0.4487206E+000  0.1900338E+03  0.7818608E-02  0.1158431E+00
         21   -1    0    0  501  502  0.00000000000E+00  0.00000000000E+00  0.38110420546E+02  0.38110420546E+02  0.00000000000E+00 0.  1.
         21   -1    0    0  502  503 -0.00000000000E+00 -0.00000000000E+00 -0.11998387274E+04  0.11998387274E+04  0.00000000000E+00 0.  1.
          6    1    1    2  501    0 -0.70895827911E+02 -0.38763780201E+02 -0.29705233308E+03  0.35263711895E+03  0.17200000000E+03 0.  1.
         -6    1    1    2    0  503  0.70895827911E+02  0.38763780201E+02 -0.86467597378E+03  0.88531202901E+03  0.17200000000E+03 0.  1.
</event>
<event>
 4    1  0.4487206E+000  0.1886949E+03  0.7818608E-02  0.1159644E+00
         21   -1    0    0  503  502  0.00000000000E+00  0.00000000000E+00  0.22082011160E+04  0.22082011160E+04  0.00000000000E+00 0. -1.
         21   -1    0    0  501  503 -0.00000000000E+00 -0.00000000000E+00 -0.16731543129E+02  0.16731543129E+02  0.00000000000E+00 0. -1.
          6    1    1    2  501    0  0.37858231960E+02 -0.67738646808E+02  0.13076628165E+04  0.13212069526E+04  0.17200000000E+03 0. -1.
         -6    1    1    2    0  502 -0.37858231960E+02  0.67738646808E+02  0.88380675643E+03  0.90372570656E+03  0.17200000000E+03 0. -1.
</event>
<event>
 4    1  0.4487206E+000  0.2211285E+03  0.7818608E-02  0.1133044E+00
         21   -1    0    0  503  502  0.00000000000E+00  0.00000000000E+00  0.17643131932E+03  0.17643131932E+03  0.00000000000E+00 0. -1.
         21   -1    0    0  501  503 -0.00000000000E+00 -0.00000000000E+00 -0.28376921718E+03  0.28376921718E+03  0.00000000000E+00 0. -1.
          6    1    1    2  501    0 -0.12720389541E+02  0.13839081458E+03 -0.88813584733E+02  0.23829745845E+03  0.17200000000E+03 0. -1.
         -6    1    1    2    0  502  0.12720389541E+02 -0.13839081458E+03 -0.18524313128E+02  0.22190307805E+03  0.17200000000E+03 0. -1.
</event>
<event>
 4    1  0.4487206E+000  0.1842672E+03  0.7818608E-02  0.1163736E+00
         21   -1    0    0  501  502  0.00000000000E+00  0.00000000000E+00  0.97735904141E+02  0.97735904141E+02  0.00000000000E+00 0.  1.
         21   -1    0    0  502  503 -0.00000000000E+00 -0.00000000000E+00 -0.51948808467E+03  0.51948808467E+03  0.00000000000E+00 0.  1.
          6    1    1    2  501    0 -0.29120210532E+02 -0.59349802548E+02 -0.33257521951E+02  0.18724435503E+03  0.17200000000E+03 0.  1.
         -6    1    1    2    0  503  0.29120210532E+02  0.59349802548E+02 -0.38849465857E+03  0.42997963378E+03  0.17200000000E+03 0.  1.
</event>
<event>
 4    1  0.4487206E+000  0.1816985E+03  0.7818608E-02  0.1166169E+00
         21   -1    0    0  501  502  0.00000000000E+00  0.00000000000E+00  0.24821279802E+03  0.24821279802E+03  0.00000000000E+00 0.  1.
         21   -1    0    0  502  503 -0.00000000000E+00 -0.00000000000E+00 -0.17057337249E+03  0.17057337249E+03  0.00000000000E+00 0.  1.
          6    1    1    2  501    0 -0.45004106494E+02  0.37483237118E+02 -0.59445279668E+02  0.19117558406E+03  0.17200000000E+03 0.  1.
         -6    1    1    2    0  503  0.45004106494E+02 -0.37483237118E+02  0.13708470520E+03  0.22761058645E+03  0.17200000000E+03 0.  1.
</event>
<event>
 4    1  0.4487206E+000  0.3421647E+03  0.7818608E-02  0.1065878E+00
         21   -1    0    0  501  502  0.00000000000E+00  0.00000000000E+00  0.12860486809E+04  0.12860486809E+04  0.00000000000E+00 0. -1.
         21   -1    0    0  502  503 -0.00000000000E+00 -0.00000000000E+00 -0.22401180300E+03  0.22401180300E+03  0.00000000000E+00 0.  1.
          6    1    1    2  501    0  0.28715911172E+03  0.70939099087E+02  0.11127400901E+04  0.11641594476E+04  0.17200000000E+03 0. -1.
         -6    1    1    2    0  503 -0.28715911172E+03 -0.70939099087E+02 -0.50703212196E+02  0.34590103635E+03  0.17200000000E+03 0.  1.
</event>
<event>
 4    1  0.4487206E+000  0.1829050E+03  0.7818608E-02  0.1165021E+00
         21   -1    0    0  503  502  0.00000000000E+00  0.00000000000E+00  0.45878080708E+02  0.45878080708E+02  0.00000000000E+00 0. -1.
         21   -1    0    0  501  503 -0.00000000000E+00 -0.00000000000E+00 -0.85273110539E+03  0.85273110539E+03  0.00000000000E+00 0. -1.
          6    1    1    2  501    0  0.61032329881E+02 -0.12053066035E+02 -0.57443821614E+03  0.60285444831E+03  0.17200000000E+03 0.  1.
         -6    1    1    2    0  502 -0.61032329881E+02  0.12053066035E+02 -0.23241480854E+03  0.29575473778E+03  0.17200000000E+03 0.  1.
</event>
<event>
 4    1  0.4487206E+000  0.2515368E+03  0.7818608E-02  0.1112337E+00
         21   -1    0    0  503  502  0.00000000000E+00  0.00000000000E+00  0.10503005982E+03  0.10503005982E+03  0.00000000000E+00 0. -1.
         21   -1    0    0  501  503 -0.00000000000E+00 -0.00000000000E+00 -0.63837035220E+03  0.63837035220E+03  0.00000000000E+00 0.  1.
          6    1    1    2  501    0  0.15507057210E+03 -0.98182930193E+02 -0.35489495678E+03  0.43499563269E+03  0.17200000000E+03 0.  1.
         -6    1    1    2    0  502 -0.15507057210E+03  0.98182930193E+02 -0.17844533561E+03  0.30840477933E+03  0.17200000000E+03 0. -1.
</event>
<event>
 4    1  0.4487206E+000  0.2520978E+03  0.7818608E-02  0.1111986E+00
         21   -1    0    0  501  502  0.00000000000E+00  0.00000000000E+00  0.66234973921E+02  0.66234973921E+02  0.00000000000E+00 0. -1.
         21   -1    0    0  502  503 -0.00000000000E+00 -0.00000000000E+00 -0.16743063291E+04  0.16743063291E+04  0.00000000000E+00 0.  1.
          6    1    1    2  501    0 -0.18428797674E+03  0.26873520437E+01 -0.23540891052E+03  0.34492120170E+03  0.17200000000E+03 0. -1.
         -6    1    1    2    0  503  0.18428797674E+03 -0.26873520437E+01 -0.13726624447E+04  0.13956201013E+04  0.17200000000E+03 0.  1.
</event>
<event>
 4    1  0.4487206E+000  0.1995422E+03  0.7818608E-02  0.1150126E+00
         21   -1    0    0  503  502  0.00000000000E+00  0.00000000000E+00  0.54843288802E+03  0.54843288802E+03  0.00000000000E+00 0.  1.
         21   -1    0    0  501  503 -0.00000000000E+00 -0.00000000000E+00 -0.42390836013E+03  0.42390836013E+03  0.00000000000E+00 0. -1.
          6    1    1    2  501    0  0.32160506173E+02 -0.95910392119E+02 -0.38032201238E+03  0.42949031954E+03  0.17200000000E+03 0. -1.
         -6    1    1    2    0  502 -0.32160506173E+02  0.95910392119E+02  0.50484654027E+03  0.54285092862E+03  0.17200000000E+03 0.  1.
</event>
<event>
 4    1  0.4487206E+000  0.3504091E+03  0.7818608E-02  0.1062447E+00
         21   -1    0    0  503  502  0.00000000000E+00  0.00000000000E+00  0.79187733460E+02  0.79187733460E+02  0.00000000000E+00 0.  1.
         21   -1    0    0  501  503 -0.00000000000E+00 -0.00000000000E+00 -0.18001243934E+04  0.18001243934E+04  0.00000000000E+00 0. -1.
          6    1    1    2  501    0 -0.58398604822E+02  0.29965331064E+03 -0.12103297859E+04  0.12600336084E+04  0.17200000000E+03 0. -1.
         -6    1    1    2    0  502  0.58398604822E+02 -0.29965331064E+03 -0.51060687401E+03  0.61927851844E+03  0.17200000000E+03 0.  1.
</event>
<event>
 4    1  0.4487206E+000  0.1893515E+03  0.7818608E-02  0.1159048E+00
         21   -1    0    0  501  502  0.00000000000E+00  0.00000000000E+00  0.55610339601E+03  0.55610339601E+03  0.00000000000E+00 0.  1.
         21   -1    0    0  502  503 -0.00000000000E+00 -0.00000000000E+00 -0.80236271590E+02  0.80236271590E+02  0.00000000000E+00 0.  1.
          6    1    1    2  501    0  0.47460125892E+02  0.63383851381E+02  0.37895620069E+03  0.42362929337E+03  0.17200000000E+03 0.  1.
         -6    1    1    2    0  503 -0.47460125892E+02 -0.63383851381E+02  0.96910923738E+02  0.21271037423E+03  0.17200000000E+03 0.  1.
</event>
<event>
 4    1  0.4487206E+000  0.1874386E+03  0.7818608E-02  0.1160792E+00
         21   -1    0    0  503  502  0.00000000000E+00  0.00000000000E+00  0.35613616749E+03  0.35613616749E+03  0.00000000000E+00 0.  1.
         21   -1    0    0  501  503 -0.00000000000E+00 -0.00000000000E+00 -0.25457402019E+03  0.25457402019E+03  0.00000000000E+00 0.  1.
          6    1    1    2  501    0 -0.70098898704E+02 -0.25206548193E+02 -0.18819427546E+03  0.26561308512E+03  0.17200000000E+03 0.  1.
         -6    1    1    2    0  502  0.70098898704E+02  0.25206548193E+02  0.28975642276E+03  0.34509710257E+03  0.17200000000E+03 0.  1.
</event>
<event>
 4    1  0.4487206E+000  0.2413520E+03  0.7818608E-02  0.1118895E+00
         21   -1    0    0  503  502  0.00000000000E+00  0.00000000000E+00  0.40075872386E+02  0.40075872386E+02  0.00000000000E+00 0.  1.
         21   -1    0    0  501  503 -0.00000000000E+00 -0.00000000000E+00 -0.14908222855E+04  0.14908222855E+04  0.00000000000E+00 0.  1.
          6    1    1    2  501    0 -0.46939356352E+02  0.16267601754E+03 -0.84646466880E+03  0.88020067336E+03  0.17200000000E+03 0.  1.
         -6    1    1    2    0  502  0.46939356352E+02 -0.16267601754E+03 -0.60428174433E+03  0.65069748454E+03  0.17200000000E+03 0.  1.
</event>
<event>
 4    1  0.4487206E+000  0.2590833E+03  0.7818608E-02  0.1107695E+00
         21   -1    0    0  501  502  0.00000000000E+00  0.00000000000E+00  0.31242858069E+03  0.31242858069E+03  0.00000000000E+00 0. -1.
         21   -1    0    0  502  503 -0.00000000000E+00 -0.00000000000E+00 -0.30081367088E+03  0.30081367088E+03  0.00000000000E+00 0.  1.
          6    1    1    2  501    0  0.15525776419E+02  0.19312978924E+03  0.16972286438E+03  0.30972571078E+03  0.17200000000E+03 0. -1.
         -6    1    1    2    0  503 -0.15525776419E+02 -0.19312978924E+03 -0.15810795458E+03  0.30351654078E+03  0.17200000000E+03 0.  1.
</event>
<event>
 4    1  0.4487206E+000  0.1869395E+03  0.7818608E-02  0.1161251E+00
         21   -1    0    0  503  502  0.00000000000E+00  0.00000000000E+00  0.32146329660E+03  0.32146329660E+03  0.00000000000E+00 0. -1.
         21   -1    0    0  501  503 -0.00000000000E+00 -0.00000000000E+00 -0.11336988453E+03  0.11336988453E+03  0.00000000000E+00 0. -1.
          6    1    1    2  501    0 -0.18103937512E+02 -0.70955198833E+02  0.59969472703E+02  0.19632302578E+03  0.17200000000E+03 0.  1.
         -6    1    1    2    0  502  0.18103937512E+02  0.70955198833E+02  0.14812393936E+03  0.23851015535E+03  0.17200000000E+03 0.  1.
</event>
<event>
 4    1  0.4487206E+000  0.2159466E+03  0.7818608E-02  0.1136942E+00
         21   -1    0    0  503  502  0.00000000000E+00  0.00000000000E+00  0.35972597503E+03  0.35972597503E+03  0.00000000000E+00 0.  1.
         21   -1    0    0  501  503 -0.00000000000E+00 -0.00000000000E+00 -0.15822319984E+03  0.15822319984E+03  0.00000000000E+00 0. -1.
          6    1    1    2  501    0  0.85909844086E+02 -0.98328168330E+02 -0.93311854333E+01  0.21614809974E+03  0.17200000000E+03 0. -1.
         -6    1    1    2    0  502 -0.85909844086E+02  0.98328168330E+02  0.21083396062E+03  0.30180107513E+03  0.17200000000E+03 0.  1.
</event>
<event>
 4    1  0.4487206E+000  0.1802004E+03  0.7818608E-02  0.1167609E+00
         21   -1    0    0  503  502  0.00000000000E+00  0.00000000000E+00  0.82854929089E+03  0.82854929089E+03  0.00000000000E+00 0.  1.
         21   -1    0    0  501  503 -0.00000000000E+00 -0.00000000000E+00 -0.70798216882E+02  0.70798216882E+02  0.00000000000E+00 0.  1.
          6    1    1    2  501    0 -0.47983331858E+02 -0.24203307193E+02  0.67932757577E+03  0.70282156727E+03  0.17200000000E+03 0.  1.
         -6    1    1    2    0  502  0.47983331858E+02  0.24203307193E+02  0.78423498238E+02  0.19652594050E+03  0.17200000000E+03 0.  1.
</event>
<event>
 4    1  0.4487206E+000  0.1777632E+03  0.7818608E-02  0.1169986E+00
         21   -1    0    0  503  502  0.00000000000E+00  0.00000000000E+00  0.83750078919E+03  0.83750078919E+03  0.00000000000E+00 0. -1.
         21   -1    0    0  501  503 -0.00000000000E+00 -0.00000000000E+00 -0.37768620689E+02  0.37768620689E+02  0.00000000000E+00 0. -1.
          6    1    1    2  501    0 -0.30383013204E+02 -0.33054946567E+02  0.38605721296E+03  0.42501756277E+03  0.17200000000E+03 0. -1.
         -6    1    1    2    0  502  0.30383013204E+02  0.33054946567E+02  0.41367495554E+03  0.45025184711E+03  0.17200000000E+03 0. -1.
</event>
<event>
 4    1  0.4487206E+000  0.1893265E+03  0.7818608E-02  0.1159070E+00
         21   -1    0    0  503  502  0.00000000000E+00  0.00000000000E+00  0.17536766112E+03  0.17536766112E+03  0.00000000000E+00 0.  1.
         21   -1    0    0  501  503 -0.00000000000E+00 -0.00000000000E+00 -0.66206133281E+03  0.66206133281E+03  0.00000000000E+00 0.  1.
          6    1    1    2  501    0  0.41786427098E+02 -0.67189288880E+02 -0.59147786838E+03  0.62103991402E+03  0.17200000000E+03 0.  1.
         -6    1    1    2    0  502 -0.41786427098E+02  0.67189288880E+02  0.10478419669E+03  0.21638907991E+03  0.17200000000E+03 0.  1.
</event>
<event>
 4    1  0.4487206E+000  0.2600079E+03  0.7818608E-02  0.1107138E+00
         21   -1    0    0  501  502  0.00000000000E+00  0.00000000000E+00  0.21869579684E+03  0.21869579684E+03  0.00000000000E+00 0.  1.
         21   -1    0    0  502  503 -0.00000000000E+00 -0.00000000000E+00 -0.33448008361E+03  0.33448008361E+03  0.00000000000E+00 0.  1.
          6    1    1    2  501    0  0.16995228096E+03  0.95584283867E+02  0.18261145208E+02  0.26064842710E+03  0.17200000000E+03 0.  1.
         -6    1    1    2    0  503 -0.16995228096E+03 -0.95584283867E+02 -0.13404543197E+03  0.29252745334E+03  0.17200000000E+03 0.  1.
</event>
<event>
 4    1  0.4487206E+000  0.2535071E+03  0.7818608E-02  0.1111108E+00
         21   -1    0    0  501  502  0.00000000000E+00  0.00000000000E+00  0.77012305150E+02  0.77012305150E+02  0.00000000000E+00 0.  1.
         21   -1    0    0  502  503 -0.00000000000E+00 -0.00000000000E+00 -0.90047033878E+03  0.90047033878E+03  0.00000000000E+00 0. -1.
          6    1    1    2  501    0 -0.12839648250E+03  0.13489322188E+03 -0.54402860200E+03  0.60019410012E+03  0.17200000000E+03 0. -1.
         -6    1    1    2    0  503  0.12839648250E+03 -0.13489322188E+03 -0.27942943163E+03  0.37728854381E+03  0.17200000000E+03 0. -1.
</event>
<event>
 4    1  0.4487206E+000  0.1993353E+03  0.7818608E-02  0.1150301E+00
         21   -1    0    0  501  502  0.00000000000E+00  0.00000000000E+00  0.17823445605E+03  0.17823445605E+03  0.00000000000E+00 0. -1.
         21   -1    0    0  502  503 -0.00000000000E+00 -0.00000000000E+00 -0.88416399269E+03  0.88416399269E+03  0.00000000000E+00 0. -1.
          6    1    1    2  501    0  0.88986146835E+01  0.10035619378E+03  0.10641010388E+03  0.22595942375E+03  0.17200000000E+03 0. -1.
         -6    1    1    2    0  503 -0.88986146835E+01 -0.10035619378E+03 -0.81233964052E+03  0.83643902499E+03  0.17200000000E+03 0. -1.
</event>
<event>
 4    1  0.4487206E+000  0.1814613E+03  0.7818608E-02  0.1166396E+00
         21   -1    0    0  503  502  0.00000000000E+00  0.00000000000E+00  0.62161274976E+02  0.62161274976E+02  0.00000000000E+00 0.  1.
         21   -1    0    0  501  503 -0.00000000000E+00 -0.00000000000E+00 -0.54665883948E+03  0.54665883948E+03  0.00000000000E+00 0.  1.
          6    1    1    2  501    0 -0.47134286700E+02  0.33504826564E+02 -0.29583004897E+03  0.34704989880E+03  0.17200000000E+03 0.  1.
         -6    1    1    2    0  502  0.47134286700E+02 -0.33504826564E+02 -0.18866751554E+03  0.26177021566E+03  0.17200000000E+03 0.  1.
</event>
<event>
 4    1  0.4487206E+000  0.3063415E+03  0.7818608E-02  0.1082113E+00
         21   -1    0    0  503  502  0.00000000000E+00  0.00000000000E+00  0.29918870183E+03  0.29918870183E+03  0.00000000000E+00 0.  1.
         21   -1    0    0  501  503 -0.00000000000E+00 -0.00000000000E+00 -0.66232221612E+03  0.66232221612E+03  0.00000000000E+00 0. -1.
          6    1    1    2  501    0 -0.86797820870E+02  0.23817483439E+03 -0.53037657967E+03  0.61249035071E+03  0.17200000000E+03 0. -1.
         -6    1    1    2    0  502  0.86797820870E+02 -0.23817483439E+03  0.16724306538E+03  0.34902056725E+03  0.17200000000E+03 0. -1.
</event>
<event>
 4    1  0.4487206E+000  0.2690740E+03  0.7818608E-02  0.1101811E+00
         21   -1    0    0  503  502  0.00000000000E+00  0.00000000000E+00  0.84482086218E+02  0.84482086218E+02  0.00000000000E+00 0.  1.
         21   -1    0    0  501  503 -0.00000000000E+00 -0.00000000000E+00 -0.15883314121E+04  0.15883314121E+04  0.00000000000E+00 0.  1.
          6    1    1    2  501    0 -0.20677186785E+03 -0.78875042845E+01 -0.13194761150E+04  0.13466321087E+04  0.17200000000E+03 0.  1.
         -6    1    1    2    0  502  0.20677186785E+03  0.78875042845E+01 -0.18437321089E+03  0.32618138965E+03  0.17200000000E+03 0.  1.
</event>
<event>
 4    1  0.4487206E+000  0.2359396E+03  0.7818608E-02  0.1122528E+00
         21   -1    0    0  501  502  0.00000000000E+00  0.00000000000E+00  0.77547705298E+02  0.77547705298E+02  0.00000000000E+00 0. -1.
         21   -1    0    0  502  503 -0.00000000000E+00 -0.00000000000E+00 -0.86499743759E+03  0.86499743759E+03  0.00000000000E+00 0. -1.
          6    1    1    2  501    0 -0.27591772846E+02  0.15912945512E+03 -0.19934843893E+03  0.30888070434E+03  0.17200000000E+03 0. -1.
         -6    1    1    2    0  503  0.27591772846E+02 -0.15912945512E+03 -0.58810129337E+03  0.63366443854E+03  0.17200000000E+03 0. -1.
</event>
<event>
 4    1  0.4487206E+000  0.3043916E+03  0.7818608E-02  0.1083066E+00
         21   -1    0    0  503  502  0.00000000000E+00  0.00000000000E+00  0.41257460587E+03  0.41257460587E+03  0.00000000000E+00 0. -1.
         21   -1    0    0  501  503 -0.00000000000E+00 -0.00000000000E+00 -0.22993240559E+03  0.22993240559E+03  0.00000000000E+00 0.  1.
          6    1    1    2  501    0 -0.16243650163E+03 -0.19153238894E+03  0.14035455912E+03  0.33519199773E+03  0.17200000000E+03 0. -1.
         -6    1    1    2    0  502  0.16243650163E+03  0.19153238894E+03  0.42287641163E+02  0.30731501374E+03  0.17200000000E+03 0.  1.
</event>
<event>
 4    1  0.4487206E+000  0.2013615E+03  0.7818608E-02  0.1148595E+00
         21   -1    0    0  503  502  0.00000000000E+00  0.00000000000E+00  0.60810886030E+03  0.60810886030E+03  0.00000000000E+00 0.  1.
         21   -1    0    0  501  503 -0.00000000000E+00 -0.00000000000E+00 -0.67475151349E+02  0.67475151349E+02  0.00000000000E+00 0.  1.
          6    1    1    2  501    0 -0.64019372118E+02 -0.82849097139E+02  0.23356251800E+03  0.30837947843E+03  0.17200000000E+03 0.  1.
         -6    1    1    2    0  502  0.64019372118E+02  0.82849097139E+02  0.30707119095E+03  0.36720453322E+03  0.17200000000E+03 0.  1.
</event>
<event>
 4    1  0.4487206E+000  0.2462909E+03  0.7818608E-02  0.1115672E+00
         21   -1    0    0  501  502  0.00000000000E+00  0.00000000000E+00  0.30073211559E+03  0.30073211559E+03  0.00000000000E+00 0.  1.
         21   -1    0    0  502  503 -0.00000000000E+00 -0.00000000000E+00 -0.39258716888E+03  0.39258716888E+03  0.00000000000E+00 0. -1.
          6    1    1    2  501    0 -0.17486888307E+03  0.22273098185E+02  0.19579534285E+03  0.31463476199E+03  0.17200000000E+03 0.  1.
         -6    1    1    2    0  503  0.17486888307E+03 -0.22273098185E+02 -0.28765039614E+03  0.37868452248E+03  0.17200000000E+03 0. -1.
</event>
<event>
 4    1  0.4487206E+000  0.2350483E+03  0.7818608E-02  0.1123136E+00
         21   -1    0    0  501  502  0.00000000000E+00  0.00000000000E+00  0.55707958517E+03  0.55707958517E+03  0.00000000000E+00 0.  1.
         21   -1    0    0  502  503 -0.00000000000E+00 -0.00000000000E+00 -0.10027194889E+03  0.10027194889E+03  0.00000000000E+00 0.  1.
          6    1    1    2  501    0 -0.46539907432E+02  0.15328974208E+03  0.26279962500E+03  0.35257814866E+03  0.17200000000E+03 0.  1.
         -6    1    1    2    0  503  0.46539907432E+02 -0.15328974208E+03  0.19400801127E+03  0.30477338540E+03  0.17200000000E+03 0.  1.
</event>
<event>
 4    1  0.4487206E+000  0.1947949E+03  0.7818608E-02  0.1154206E+00
         21   -1    0    0  501  502  0.00000000000E+00  0.00000000000E+00  0.14319462609E+03  0.14319462609E+03  0.00000000000E+00 0.  1.
         21   -1    0    0  502  503 -0.00000000000E+00 -0.00000000000E+00 -0.10343104417E+04  0.10343104417E+04  0.00000000000E+00 0. -1.
          6    1    1    2  501    0 -0.90577703593E+02 -0.12519157901E+02  0.62205215486E+02  0.20448603506E+03  0.17200000000E+03 0.  1.
         -6    1    1    2    0  503  0.90577703593E+02  0.12519157901E+02 -0.95332103114E+03  0.97301903276E+03  0.17200000000E+03 0. -1.
</event>
<event>
 4    1  0.4487206E+000  0.2109714E+03  0.7818608E-02  0.1140799E+00
         21   -1    0    0  501  502  0.00000000000E+00  0.00000000000E+00  0.23932500825E+03  0.23932500825E+03  0.00000000000E+00 0.  1.
         21   -1    0    0  502  503 -0.00000000000E+00 -0.00000000000E+00 -0.26020616358E+03  0.26020616358E+03  0.00000000000E+00 0. -1.
          6    1    1    2  501    0 -0.37760125263E+02  0.11618566909E+03  0.12296107753E+03  0.24418919581E+03  0.17200000000E+03 0.  1.
         -6    1    1    2    0  503  0.37760125263E+02 -0.11618566909E+03 -0.14384223286E+03  0.25534197602E+03  0.17200000000E+03 0. -1.
</event>
<event>
 4    1  0.4487206E+000  0.3808646E+03  0.7818608E-02  0.1050615E+00
         21   -1    0    0  501  502  0.00000000000E+00  0.00000000000E+00  0.12597742834E+03  0.12597742834E+03  0.00000000000E+00 0. -1.
         21   -1    0    0  502  503 -0.00000000000E+00 -0.00000000000E+00 -0.11824467884E+04  0.11824467884E+04  0.00000000000E+00 0. -1.
          6    1    1    2  501    0 -0.61901030629E+02 -0.33412887656E+03 -0.42232807140E+03  0.56869925587E+03  0.17200000000E+03 0. -1.
         -6    1    1    2    0  503  0.61901030629E+02  0.33412887656E+03 -0.63414128870E+03  0.73972496090E+03  0.17200000000E+03 0. -1.
</event>
<event>
 4    1  0.4487206E+000  0.1755489E+03  0.7818608E-02  0.1172182E+00
         21   -1    0    0  501  502  0.00000000000E+00  0.00000000000E+00  0.61280366766E+02  0.61280366766E+02  0.00000000000E+00 0.  1.
         21   -1    0    0  502  503 -0.00000000000E+00 -0.00000000000E+00 -0.54700828720E+03  0.54700828720E+03  0.00000000000E+00 0.  1.
          6    1    1    2  501    0  0.26947754717E+02  0.22521912947E+02 -0.32923761442E+03  0.37311502891E+03  0.17200000000E+03 0.  1.
         -6    1    1    2    0  503 -0.26947754717E+02 -0.22521912947E+02 -0.15649030601E+03  0.23517362506E+03  0.17200000000E+03 0.  1.
</event>
<event>
 4    1  0.4487206E+000  0.5263163E+03  0.7818608E-02  0.1007129E+00
         21   -1    0    0  501  502  0.00000000000E+00  0.00000000000E+00  0.40193242712E+03  0.40193242712E+03  0.00000000000E+00 0.  1.
         21   -1    0    0  502  503 -0.00000000000E+00 -0.00000000000E+00 -0.85745576565E+03  0.85745576565E+03  0.00000000000E+00 0. -1.
          6    1    1    2  501    0 -0.49104174080E+03 -0.79390400822E+02  0.51183198420E+02  0.52879915540E+03  0.17200000000E+03 0. -1.
         -6    1    1    2    0  503  0.49104174080E+03  0.79390400822E+02 -0.50670653695E+03  0.73058903738E+03  0.17200000000E+03 0. -1.
</event>
<event>
 4    1  0.4487206E+000  0.1937786E+03  0.7818608E-02  0.1155097E+00
         21   -1    0    0  501  502  0.00000000000E+00  0.00000000000E+00  0.80892097436E+03  0.80892097436E+03  0.00000000000E+00 0. -1.
         21   -1    0    0  502  503 -0.00000000000E+00 -0.00000000000E+00 -0.56384200511E+02  0.56384200511E+02  0.00000000000E+00 0. -1.
          6    1    1    2  501    0 -0.14244739631E+02 -0.88109293127E+02  0.19439024277E+03  0.27447718781E+03  0.17200000000E+03 0. -1.
         -6    1    1    2    0  503  0.14244739631E+02  0.88109293127E+02  0.55814653108E+03  0.59082798706E+03  0.17200000000E+03 0. -1.
</event>
<event>
 4    1  0.4487206E+000  0.3089269E+03  0.7818608E-02  0.1080861E+00
         21   -1    0    0  501  502  0.00000000000E+00  0.00000000000E+00  0.34964165719E+03  0.34964165719E+03  0.00000000000E+00 0.  1.
         21   -1    0    0  502  503 -0.00000000000E+00 -0.00000000000E+00 -0.27913923070E+03  0.27913923070E+03  0.00000000000E+00 0.  1.
          6    1    1    2  501    0 -0.91088445407E+02  0.23990562796E+03  0.82053204218E+02  0.31963814468E+03  0.17200000000E+03 0.  1.
         -6    1    1    2    0  503  0.91088445407E+02 -0.23990562796E+03 -0.11550777725E+02  0.30914274321E+03  0.17200000000E+03 0.  1.
</event>
<event>
 4    1  0.4487206E+000  0.1883194E+03  0.7818608E-02  0.1159986E+00
         21   -1    0    0  503  502  0.00000000000E+00  0.00000000000E+00  0.86778725177E+03  0.86778725177E+03  0.00000000000E+00 0. -1.
         21   -1    0    0  501  503 -0.00000000000E+00 -0.00000000000E+00 -0.50203546059E+02  0.50203546059E+02  0.00000000000E+00 0. -1.
          6    1    1    2  501    0  0.87368874754E+01  0.76182971077E+02  0.21085540607E+03  0.28270864959E+03  0.17200000000E+03 0. -1.
         -6    1    1    2    0  502 -0.87368874754E+01 -0.76182971077E+02  0.60672829964E+03  0.63528214823E+03  0.17200000000E+03 0. -1.
</event>
<event>
 4    1  0.4487206E+000  0.2032124E+03  0.7818608E-02  0.1147057E+00
         21   -1    0    0  503  502  0.00000000000E+00  0.00000000000E+00  0.10240781614E+03  0.10240781614E+03  0.00000000000E+00 0.  1.
         21   -1    0    0  501  503 -0.00000000000E+00 -0.00000000000E+00 -0.42189254687E+03  0.42189254687E+03  0.00000000000E+00 0.  1.
          6    1    1    2  501    0  0.65281242401E+02 -0.86311200015E+02 -0.21485867072E+03  0.29573554443E+03  0.17200000000E+03 0.  1.
         -6    1    1    2    0  502 -0.65281242401E+02  0.86311200015E+02 -0.10462606001E+03  0.22856481858E+03  0.17200000000E+03 0.  1.
</event>
<event>
 4    1  0.4487206E+000  0.2475335E+03  0.7818608E-02  0.1114874E+00
         21   -1    0    0  503  502  0.00000000000E+00  0.00000000000E+00  0.13922636015E+04  0.13922636015E+04  0.00000000000E+00 0.  1.
         21   -1    0    0  501  503 -0.00000000000E+00 -0.00000000000E+00 -0.44033663938E+02  0.44033663938E+02  0.00000000000E+00 0. -1.
          6    1    1    2  501    0  0.12526729424E+03  0.12647895756E+03  0.69093887461E+03  0.73394097185E+03  0.17200000000E+03 0.  1.
         -6    1    1    2    0  502 -0.12526729424E+03 -0.12647895756E+03  0.65729106299E+03  0.70235629363E+03  0.17200000000E+03 0.  1.
</event>
<event>
 4    1  0.4487206E+000  0.1757350E+03  0.7818608E-02  0.1171996E+00
         21   -1    0    0  501  502  0.00000000000E+00  0.00000000000E+00  0.22835620827E+03  0.22835620827E+03  0.00000000000E+00 0.  1.
         21   -1    0    0  502  503 -0.00000000000E+00 -0.00000000000E+00 -0.16002765285E+03  0.16002765285E+03  0.00000000000E+00 0.  1.
          6    1    1    2  501    0  0.35689133352E+02  0.50074527458E+01  0.11059278613E+03  0.20763803401E+03  0.17200000000E+03 0.  1.
         -6    1    1    2    0  503 -0.35689133352E+02 -0.50074527458E+01 -0.42264230704E+02  0.18074582711E+03  0.17200000000E+03 0.  1.
</event>
<event>
 4    1  0.4487206E+000  0.2140296E+03  0.7818608E-02  0.1138414E+00
         21   -1    0    0  501  502  0.00000000000E+00  0.00000000000E+00  0.13111713029E+03  0.13111713029E+03  0.00000000000E+00 0.  1.
         21   -1    0    0  502  503 -0.00000000000E+00 -0.00000000000E+00 -0.37142300640E+03  0.37142300640E+03  0.00000000000E+00 0. -1.
          6    1    1    2  501    0 -0.56969005729E+02 -0.11392626779E+03 -0.18137669266E+03  0.28054619360E+03  0.17200000000E+03 0.  1.
         -6    1    1    2    0  503  0.56969005729E+02  0.11392626779E+03 -0.58929183453E+02  0.22199394309E+03  0.17200000000E+03 0.  1.
</event>
<event>
 4    1  0.4487206E+000  0.2482792E+03  0.7818608E-02  0.1114397E+00
         21   -1    0    0  501  502  0.00000000000E+00  0.00000000000E+00  0.24105482498E+03  0.24105482498E+03  0.00000000000E+00 0.  1.
         21   -1    0    0  502  503 -0.00000000000E+00 -0.00000000000E+00 -0.53644054549E+03  0.53644054549E+03  0.00000000000E+00 0. -1.
          6    1    1    2  501    0 -0.11091442599E+03  0.14055801634E+03  0.13352573496E+03  0.28190723252E+03  0.17200000000E+03 0.  1.
         -6    1    1    2    0  503  0.11091442599E+03 -0.14055801634E+03 -0.42891145547E+03  0.49558813796E+03  0.17200000000E+03 0. -1.
</event>
<event>
 4    1  0.4487206E+000  0.1875099E+03  0.7818608E-02  0.1160727E+00
         21   -1    0    0  503  502  0.00000000000E+00  0.00000000000E+00  0.14991001867E+04  0.14991001867E+04  0.00000000000E+00 0. -1.
         21   -1    0    0  501  503 -0.00000000000E+00 -0.00000000000E+00 -0.29754926172E+02  0.29754926172E+02  0.00000000000E+00 0. -1.
          6    1    1    2  501    0 -0.63009090304E+02  0.40072865345E+02  0.38290396152E+03  0.42635129148E+03  0.17200000000E+03 0.  1.
         -6    1    1    2    0  502  0.63009090304E+02 -0.40072865345E+02  0.10864412990E+04  0.11025038214E+04  0.17200000000E+03 0.  1.
</event>
<event>
 4    1  0.4487206E+000  0.1940963E+03  0.7818608E-02  0.1154818E+00
         21   -1    0    0  503  502  0.00000000000E+00  0.00000000000E+00  0.52865180148E+03  0.52865180148E+03  0.00000000000E+00 0.  1.
         21   -1    0    0  501  503 -0.00000000000E+00 -0.00000000000E+00 -0.24872810045E+03  0.24872810045E+03  0.00000000000E+00 0.  1.
          6    1    1    2  501    0  0.47178164504E+02 -0.76574135198E+02 -0.18835805754E+03  0.27046651406E+03  0.17200000000E+03 0.  1.
         -6    1    1    2    0  502 -0.47178164504E+02  0.76574135198E+02  0.46828175857E+03  0.50691338786E+03  0.17200000000E+03 0.  1.
</event>
<event>
 4    1  0.4487206E+000  0.1827311E+03  0.7818608E-02  0.1165186E+00
         21   -1    0    0  501  502  0.00000000000E+00  0.00000000000E+00  0.16021700300E+02  0.16021700300E+02  0.00000000000E+00 0. -1.
         21   -1    0    0  502  503 -0.00000000000E+00 -0.00000000000E+00 -0.20909341838E+04  0.20909341838E+04  0.00000000000E+00 0. -1.
          6    1    1    2  501    0 -0.41561932391E+02 -0.45598885010E+02 -0.10977318386E+04  0.11128368443E+04  0.17200000000E+03 0. -1.
         -6    1    1    2    0  503  0.41561932391E+02  0.45598885010E+02 -0.97718064483E+03  0.99411903974E+03  0.17200000000E+03 0. -1.
</event>
<event>
 4    1  0.4487206E+000  0.1999186E+03  0.7818608E-02  0.1149808E+00
         21   -1    0    0  501  502  0.00000000000E+00  0.00000000000E+00  0.20892062915E+03  0.20892062915E+03  0.00000000000E+00 0.  1.
         21   -1    0    0  502  503 -0.00000000000E+00 -0.00000000000E+00 -0.81630272668E+03  0.81630272668E+03  0.00000000000E+00 0.  1.
          6    1    1    2  501    0  0.97197412548E+02 -0.30595659829E+02  0.14485011593E+03  0.24687848730E+03  0.17200000000E+03 0.  1.
         -6    1    1    2    0  503 -0.97197412548E+02  0.30595659829E+02 -0.75223221346E+03  0.77834486853E+03  0.17200000000E+03 0.  1.
</event>
<event>
 4    1  0.4487206E+000  0.1721099E+03  0.7818608E-02  0.1175665E+00
         21   -1    0    0  501  502  0.00000000000E+00  0.00000000000E+00  0.67248223248E+03  0.67248223248E+03  0.00000000000E+00 0.  1.
         21   -1    0    0  502  503 -0.00000000000E+00 -0.00000000000E+00 -0.44819399312E+02  0.44819399312E+02  0.00000000000E+00 0.  1.
          6    1    1    2  501    0 -0.36909635960E+01  0.49171147872E+01  0.36086967157E+03  0.39981085665E+03  0.17200000000E+03 0.  1.
         -6    1    1    2    0  503  0.36909635960E+01 -0.49171147872E+01  0.26679316159E+03  0.31749077515E+03  0.17200000000E+03 0.  1.
</event>
<event>
 4    1  0.4487206E+000  0.1888957E+03  0.7818608E-02  0.1159461E+00
         21   -1    0    0  503  502  0.00000000000E+00  0.00000000000E+00  0.14211455569E+03  0.14211455569E+03  0.00000000000E+00 0.  1.
         21   -1    0    0  501  503 -0.00000000000E+00 -0.00000000000E+00 -0.30309607782E+03  0.30309607782E+03  0.00000000000E+00 0. -1.
          6    1    1    2  501    0  0.26008369145E+02 -0.73628344408E+02 -0.17271189479E+03  0.25595110269E+03  0.17200000000E+03 0. -1.
         -6    1    1    2    0  502 -0.26008369145E+02  0.73628344408E+02  0.11730372665E+02  0.18925953083E+03  0.17200000000E+03 0.  1.
</event>
<event>
 4    1  0.4487206E+000  0.2171260E+03  0.7818608E-02  0.1136044E+00
         21   -1    0    0  501  502  0.00000000000E+00  0.00000000000E+00  0.56324568382E+03  0.56324568382E+03  0.00000000000E+00 0.  1.
         21   -1    0    0  502  503 -0.00000000000E+00 -0.00000000000E+00 -0.83961905932E+02  0.83961905932E+02  0.00000000000E+00 0. -1.
          6    1    1    2  501    0  0.83511130020E+02 -0.10288622230E+03  0.22156948516E+03  0.31022043829E+03  0.17200000000E+03 0. -1.
         -6    1    1    2    0  503 -0.83511130020E+02  0.10288622230E+03  0.25771429273E+03  0.33698715146E+03  0.17200000000E+03 0.  1.
</event>
<event>
 4    1  0.4487206E+000  0.1825578E+03  0.7818608E-02  0.1165350E+00
         21   -1    0    0  501  502  0.00000000000E+00  0.00000000000E+00  0.15863602186E+03  0.15863602186E+03  0.00000000000E+00 0.  1.
         21   -1    0    0  502  503 -0.00000000000E+00 -0.00000000000E+00 -0.82902842569E+03  0.82902842569E+03  0.00000000000E+00 0.  1.
          6    1    1    2  501    0  0.30808056852E+02  0.52860459550E+02  0.91500703211E+02  0.20420514988E+03  0.17200000000E+03 0.  1.
         -6    1    1    2    0  503 -0.30808056852E+02 -0.52860459550E+02 -0.76189310703E+03  0.78345929767E+03  0.17200000000E+03 0.  1.
</event>
<event>
 4    1  0.4487206E+000  0.2121064E+03  0.7818608E-02  0.1139909E+00
         21   -1    0    0  501  502  0.00000000000E+00  0.00000000000E+00  0.49117806861E+03  0.49117806861E+03  0.00000000000E+00 0. -1.
         21   -1    0    0  502  503 -0.00000000000E+00 -0.00000000000E+00 -0.12167486583E+03  0.12167486583E+03  0.00000000000E+00 0. -1.
          6    1    1    2  501    0  0.11837772676E+03  0.37307071434E+02  0.33711089431E+03  0.39828740733E+03  0.17200000000E+03 0. -1.
         -6    1    1    2    0  503 -0.11837772676E+03 -0.37307071434E+02  0.32392308467E+02  0.21456552710E+03  0.17200000000E+03 0. -1.
</event>
<event>
 4    1  0.4487206E+000  0.2044281E+03  0.7818608E-02  0.1146056E+00
         21   -1    0    0  503  502  0.00000000000E+00  0.00000000000E+00  0.29747380205E+03  0.29747380205E+03  0.00000000000E+00 0. -1.
         21   -1    0    0  501  503 -0.00000000000E+00 -0.00000000000E+00 -0.14049031383E+03  0.14049031383E+03  0.00000000000E+00 0. -1.
          6    1    1    2  501    0 -0.40085418618E+02  0.10295627390E+03  0.79737575438E+02  0.21942861267E+03  0.17200000000E+03 0. -1.
         -6    1    1    2    0  502  0.40085418618E+02 -0.10295627390E+03  0.77245912778E+02  0.21853550321E+03  0.17200000000E+03 0. -1.
</event>
<event>
 4    1  0.4487206E+000  0.1776714E+03  0.7818608E-02  0.1170076E+00
         21   -1    0    0  503  502  0.00000000000E+00  0.00000000000E+00  0.20720557804E+02  0.20720557804E+02  0.00000000000E+00 0.  1.
         21   -1    0    0  501  503 -0.00000000000E+00 -0.00000000000E+00 -0.15270312091E+04  0.15270312091E+04  0.00000000000E+00 0. -1.
          6    1    1    2  501    0  0.26017198604E+01 -0.44456244029E+02 -0.71577787320E+03  0.73749921379E+03  0.17200000000E+03 0.  1.
         -6    1    1    2    0  502 -0.26017198604E+01  0.44456244029E+02 -0.79053277805E+03  0.81025255307E+03  0.17200000000E+03 0.  1.
</event>
<event>
 4    1  0.4487206E+000  0.1966022E+03  0.7818608E-02  0.1152638E+00
         21   -1    0    0  503  502  0.00000000000E+00  0.00000000000E+00  0.35055672437E+03  0.35055672437E+03  0.00000000000E+00 0. -1.
         21   -1    0    0  501  503 -0.00000000000E+00 -0.00000000000E+00 -0.11606274538E+03  0.11606274538E+03  0.00000000000E+00 0. -1.
          6    1    1    2  501    0  0.90634616532E+02  0.29219704172E+02  0.65079626361E+02  0.20709365657E+03  0.17200000000E+03 0. -1.
         -6    1    1    2    0  502 -0.90634616532E+02 -0.29219704172E+02  0.16941435263E+03  0.25952581317E+03  0.17200000000E+03 0. -1.
</event>
<event>
 4    1  0.4487206E+000  0.2355684E+03  0.7818608E-02  0.1122781E+00
         21   -1    0    0  501  502  0.00000000000E+00  0.00000000000E+00  0.12390474029E+04  0.12390474029E+04  0.00000000000E+00 0.  1.
         21   -1    0    0  502  503 -0.00000000000E+00 -0.00000000000E+00 -0.45122434147E+02  0.45122434147E+02  0.00000000000E+00 0.  1.
          6    1    1    2  501    0 -0.10200592890E+03 -0.12451216794E+03  0.54155363832E+03  0.59056992192E+03  0.17200000000E+03 0.  1.
         -6    1    1    2    0  503  0.10200592890E+03  0.12451216794E+03  0.65237133042E+03  0.69359991511E+03  0.17200000000E+03 0.  1.
</event>
<event>
 4    1  0.4487206E+000  0.1791291E+03  0.7818608E-02  0.1168649E+00
         21   -1    0    0  503  502  0.00000000000E+00  0.00000000000E+00  0.41348284582E+03  0.41348284582E+03  0.00000000000E+00 0. -1.
         21   -1    0    0  501  503 -0.00000000000E+00 -0.00000000000E+00 -0.12417565214E+03  0.12417565214E+03  0.00000000000E+00 0. -1.
          6    1    1    2  501    0 -0.46651107686E+02  0.18080657472E+02 -0.19983182002E+02  0.18024029401E+03  0.17200000000E+03 0. -1.
         -6    1    1    2    0  502  0.46651107686E+02 -0.18080657472E+02  0.30929037568E+03  0.35741820395E+03  0.17200000000E+03 0. -1.
</event>
<event>
 4    1  0.4487206E+000  0.2016372E+03  0.7818608E-02  0.1148365E+00
         21   -1    0    0  501  502  0.00000000000E+00  0.00000000000E+00  0.51956833420E+03  0.51956833420E+03  0.00000000000E+00 0. -1.
         21   -1    0    0  502  503 -0.00000000000E+00 -0.00000000000E+00 -0.82096557034E+02  0.82096557034E+02  0.00000000000E+00 0.  1.
          6    1    1    2  501    0 -0.83036985325E+02  0.64640794754E+02  0.28383145907E+03  0.34816356851E+03  0.17200000000E+03 0. -1.
         -6    1    1    2    0  503  0.83036985325E+02 -0.64640794754E+02  0.15364031809E+03  0.25350132272E+03  0.17200000000E+03 0.  1.
</event>
<event>
 4    1  0.4487206E+000  0.1779067E+03  0.7818608E-02  0.1169844E+00
         21   -1    0    0  501  502  0.00000000000E+00  0.00000000000E+00  0.22418647438E+04  0.22418647438E+04  0.00000000000E+00 0.  1.
         21   -1    0    0  502  503 -0.00000000000E+00 -0.00000000000E+00 -0.20427510017E+02  0.20427510017E+02  0.00000000000E+00 0.  1.
          6    1    1    2  501    0  0.45202071891E+02  0.48530435240E+01  0.17393655105E+04  0.17484402073E+04  0.17200000000E+03 0.  1.
         -6    1    1    2    0  503 -0.45202071891E+02 -0.48530435240E+01  0.48207172327E+03  0.51385204652E+03  0.17200000000E+03 0.  1.
</event>
<event>
 4    1  0.4487206E+000  0.1752066E+03  0.7818608E-02  0.1172524E+00
         21   -1    0    0  503  502  0.00000000000E+00  0.00000000000E+00  0.18062934507E+03  0.18062934507E+03  0.00000000000E+00 0.  1.
         21   -1    0    0  501  503 -0.00000000000E+00 -0.00000000000E+00 -0.17054102180E+03  0.17054102180E+03  0.00000000000E+00 0.  1.
          6    1    1    2  501    0  0.11917192657E+02  0.31166234829E+02 -0.53215547087E+01  0.17528740006E+03  0.17200000000E+03 0.  1.
         -6    1    1    2    0  502 -0.11917192657E+02 -0.31166234829E+02  0.15409877978E+02  0.17588296681E+03  0.17200000000E+03 0.  1.
</event>
<event>
 4    1  0.4487206E+000  0.1803744E+03  0.7818608E-02  0.1167441E+00
         21   -1    0    0  501  502  0.00000000000E+00  0.00000000000E+00  0.19653387509E+04  0.19653387509E+04  0.00000000000E+00 0. -1.
         21   -1    0    0  502  503 -0.00000000000E+00 -0.00000000000E+00 -0.16562000371E+02  0.16562000371E+02  0.00000000000E+00 0. -1.
          6    1    1    2  501    0  0.40442860288E+02  0.36267106037E+02  0.95310633123E+03  0.97002402371E+03  0.17200000000E+03 0. -1.
         -6    1    1    2    0  503 -0.40442860288E+02 -0.36267106037E+02  0.99567041929E+03  0.10118767276E+04  0.17200000000E+03 0. -1.
</event>
<event>
 4    1  0.4487206E+000  0.2283419E+03  0.7818608E-02  0.1127812E+00
         21   -1    0    0  501  502  0.00000000000E+00  0.00000000000E+00  0.11202974643E+04  0.11202974643E+04  0.00000000000E+00 0.  1.
         21   -1    0    0  502  503 -0.00000000000E+00 -0.00000000000E+00 -0.92762975141E+02  0.92762975141E+02  0.00000000000E+00 0.  1.
          6    1    1    2  501    0 -0.40571621945E+02 -0.14460271247E+03  0.94190977029E+03  0.96919245578E+03  0.17200000000E+03 0.  1.
         -6    1    1    2    0  503  0.40571621945E+02  0.14460271247E+03  0.85624718817E+02  0.24386798362E+03  0.17200000000E+03 0.  1.
</event>
<event>
 4    1  0.4487206E+000  0.1784932E+03  0.7818608E-02  0.1169269E+00
         21   -1    0    0  501  502  0.00000000000E+00  0.00000000000E+00  0.67321641694E+02  0.67321641694E+02  0.00000000000E+00 0.  1.
         21   -1    0    0  502  503 -0.00000000000E+00 -0.00000000000E+00 -0.70955505024E+03  0.70955505024E+03  0.00000000000E+00 0.  1.
          6    1    1    2  501    0 -0.21511768501E+02  0.42580103907E+02 -0.96951843056E+02  0.20312430013E+03  0.17200000000E+03 0.  1.
         -6    1    1    2    0  503  0.21511768501E+02 -0.42580103907E+02 -0.54528156549E+03  0.57375239180E+03  0.17200000000E+03 0.  1.
</event>
<event>
 4    1  0.4487206E+000  0.1848590E+03  0.7818608E-02  0.1163182E+00
         21   -1    0    0  503  502  0.00000000000E+00  0.00000000000E+00  0.18306103437E+02  0.18306103437E+02  0.00000000000E+00 0. -1.
         21   -1    0    0  501  503 -0.00000000000E+00 -0.00000000000E+00 -0.28553796422E+04  0.28553796422E+04  0.00000000000E+00 0. -1.
          6    1    1    2  501    0  0.20801554530E+02 -0.64468239624E+02 -0.22640003069E+04  0.22715347782E+04  0.17200000000E+03 0. -1.
         -6    1    1    2    0  502 -0.20801554530E+02  0.64468239624E+02 -0.57307323177E+03  0.60215096742E+03  0.17200000000E+03 0. -1.
</event>
<event>
 4    1  0.4487206E+000  0.2095556E+03  0.7818608E-02  0.1141918E+00
         21   -1    0    0  501  502  0.00000000000E+00  0.00000000000E+00  0.95897283075E+03  0.95897283075E+03  0.00000000000E+00 0. -1.
         21   -1    0    0  502  503 -0.00000000000E+00 -0.00000000000E+00 -0.47509420462E+02  0.47509420462E+02  0.00000000000E+00 0. -1.
          6    1    1    2  501    0 -0.40528667177E+02 -0.11263653863E+03  0.36005905399E+03  0.41660063017E+03  0.17200000000E+03 0. -1.
         -6    1    1    2    0  503  0.40528667177E+02  0.11263653863E+03  0.55140435630E+03  0.58988162104E+03  0.17200000000E+03 0. -1.
</event>
<event>
 4    1  0.4487206E+000  0.3828757E+03  0.7818608E-02  0.1049876E+00
         21   -1    0    0  501  502  0.00000000000E+00  0.00000000000E+00  0.37261159295E+03  0.37261159295E+03  0.00000000000E+00 0.  1.
         21   -1    0    0  502  503 -0.00000000000E+00 -0.00000000000E+00 -0.47410644823E+03  0.47410644823E+03  0.00000000000E+00 0. -1.
          6    1    1    2  501    0  0.15166825472E+03  0.30660491715E+03  0.12390076456E+03  0.40242419680E+03  0.17200000000E+03 0.  1.
         -6    1    1    2    0  503 -0.15166825472E+03 -0.30660491715E+03 -0.22539561984E+03  0.44429384438E+03  0.17200000000E+03 0. -1.
</event>
<event>
 4    1  0.4487206E+000  0.2271687E+03  0.7818608E-02  0.1128649E+00
         21   -1    0    0  503  502  0.00000000000E+00  0.00000000000E+00  0.23734184921E+03  0.23734184921E+03  0.00000000000E+00 0. -1.
         21   -1    0    0  501  503 -0.00000000000E+00 -0.00000000000E+00 -0.21762485212E+03  0.21762485212E+03  0.00000000000E+00 0. -1.
          6    1    1    2  501    0  0.12150770043E+03 -0.85190942646E+02  0.30796218711E+01  0.22718957292E+03  0.17200000000E+03 0. -1.
         -6    1    1    2    0  502 -0.12150770043E+03  0.85190942646E+02  0.16637375222E+02  0.22777712841E+03  0.17200000000E+03 0. -1.
</event>
<event>
 4    1  0.4487206E+000  0.1782773E+03  0.7818608E-02  0.1169481E+00
         21   -1    0    0  501  502  0.00000000000E+00  0.00000000000E+00  0.12362841815E+03  0.12362841815E+03  0.00000000000E+00 0. -1.
         21   -1    0    0  502  503 -0.00000000000E+00 -0.00000000000E+00 -0.25726549268E+03  0.25726549268E+03  0.00000000000E+00 0. -1.
          6    1    1    2  501    0  0.39750677510E+02 -0.24873355435E+02 -0.71886851922E+02  0.19222517955E+03  0.17200000000E+03 0. -1.
         -6    1    1    2    0  503 -0.39750677510E+02  0.24873355435E+02 -0.61750222604E+02  0.18866873129E+03  0.17200000000E+03 0. -1.
</event>
<event>
 4    1  0.4487206E+000  0.1928927E+03  0.7818608E-02  0.1155878E+00
         21   -1    0    0  501  502  0.00000000000E+00  0.00000000000E+00  0.36377223221E+03  0.36377223221E+03  0.00000000000E+00 0.  1.
         21   -1    0    0  502  503 -0.00000000000E+00 -0.00000000000E+00 -0.10774146589E+03  0.10774146589E+03  0.00000000000E+00 0.  1.
          6    1    1    2  501    0  0.61568799062E+01 -0.87095864838E+02  0.18108196625E+03  0.26457187179E+03  0.17200000000E+03 0.  1.
         -6    1    1    2    0  503 -0.61568799062E+01  0.87095864838E+02  0.74948800073E+02  0.20694182630E+03  0.17200000000E+03 0.  1.
</event>
<event>
 4    1  0.4487206E+000  0.1837867E+03  0.7818608E-02  0.1164188E+00
         21   -1    0    0  503  502  0.00000000000E+00  0.00000000000E+00  0.40202132459E+03  0.40202132459E+03  0.00000000000E+00 0. -1.
         21   -1    0    0  501  503 -0.00000000000E+00 -0.00000000000E+00 -0.56011020449E+03  0.56011020449E+03  0.00000000000E+00 0. -1.
          6    1    1    2  501    0  0.58631447694E+02 -0.27493620824E+02 -0.52256387546E+03  0.55394092625E+03  0.17200000000E+03 0. -1.
         -6    1    1    2    0  502 -0.58631447694E+02  0.27493620824E+02  0.36447499556E+03  0.40819060282E+03  0.17200000000E+03 0. -1.
</event>
<event>
 4    1  0.4487206E+000  0.2678999E+03  0.7818608E-02  0.1102488E+00
         21   -1    0    0  503  502  0.00000000000E+00  0.00000000000E+00  0.10830479234E+03  0.10830479234E+03  0.00000000000E+00 0.  1.
         21   -1    0    0  501  503 -0.00000000000E+00 -0.00000000000E+00 -0.66360128751E+03  0.66360128751E+03  0.00000000000E+00 0. -1.
          6    1    1    2  501    0  0.15699947606E+03  0.13242921920E+03 -0.29210695767E+03  0.39635439736E+03  0.17200000000E+03 0. -1.
         -6    1    1    2    0  502 -0.15699947606E+03 -0.13242921920E+03 -0.26318953749E+03  0.37555168250E+03  0.17200000000E+03 0.  1.
</event>
<event>
 4    1  0.4487206E+000  0.2385749E+03  0.7818608E-02  0.1120746E+00
         21   -1    0    0  503  502  0.00000000000E+00  0.00000000000E+00  0.16709470102E+04  0.16709470102E+04  0.00000000000E+00 0. -1.
         21   -1    0    0  501  503 -0.00000000000E+00 -0.00000000000E+00 -0.39916520623E+02  0.39916520623E+02  0.00000000000E+00 0. -1.
          6    1    1    2  501    0  0.12291646830E+03  0.11056915744E+03  0.48794392439E+03  0.54314571719E+03  0.17200000000E+03 0. -1.
         -6    1    1    2    0  502 -0.12291646830E+03 -0.11056915744E+03  0.11430865651E+04  0.11677178136E+04  0.17200000000E+03 0. -1.
</event>
<event>
 4    1  0.4487206E+000  0.1964129E+03  0.7818608E-02  0.1152801E+00
         21   -1    0    0  501  502  0.00000000000E+00  0.00000000000E+00  0.38796262554E+02  0.38796262554E+02  0.00000000000E+00 0. -1.
         21   -1    0    0  502  503 -0.00000000000E+00 -0.00000000000E+00 -0.12108814203E+04  0.12108814203E+04  0.00000000000E+00 0. -1.
          6    1    1    2  501    0 -0.89560903096E+02 -0.31190833216E+02 -0.32183038177E+03  0.37703158763E+03  0.17200000000E+03 0. -1.
         -6    1    1    2    0  503  0.89560903096E+02  0.31190833216E+02 -0.85025477596E+03  0.87264609520E+03  0.17200000000E+03 0. -1.
</event>
<event>
 4    1  0.4487206E+000  0.2213412E+03  0.7818608E-02  0.1132887E+00
         21   -1    0    0  501  502  0.00000000000E+00  0.00000000000E+00  0.52304784868E+03  0.52304784868E+03  0.00000000000E+00 0.  1.
         21   -1    0    0  502  503 -0.00000000000E+00 -0.00000000000E+00 -0.97553655459E+02  0.97553655459E+02  0.00000000000E+00 0.  1.
          6    1    1    2  501    0  0.56935902604E+02  0.12714649080E+03  0.27468996901E+03  0.35276976373E+03  0.17200000000E+03 0.  1.
         -6    1    1    2    0  503 -0.56935902604E+02 -0.12714649080E+03  0.15080422421E+03  0.26783174040E+03  0.17200000000E+03 0.  1.
</event>
<event>
 4    1  0.4487206E+000  0.3022785E+03  0.7818608E-02  0.1084107E+00
         21   -1    0    0  501  502  0.00000000000E+00  0.00000000000E+00  0.10410083188E+04  0.10410083188E+04  0.00000000000E+00 0.  1.
         21   -1    0    0  502  503 -0.00000000000E+00 -0.00000000000E+00 -0.14922901687E+03  0.14922901687E+03  0.00000000000E+00 0. -1.
          6    1    1    2  501    0 -0.16045138866E+03  0.18985156469E+03  0.82779846092E+03  0.88126191149E+03  0.17200000000E+03 0.  1.
         -6    1    1    2    0  503  0.16045138866E+03 -0.18985156469E+03  0.63980841015E+02  0.30897542419E+03  0.17200000000E+03 0. -1.
</event>
<event>
 4    1  0.4487206E+000  0.1878168E+03  0.7818608E-02  0.1160445E+00
         21   -1    0    0  503  502  0.00000000000E+00  0.00000000000E+00  0.41422595440E+02  0.41422595440E+02  0.00000000000E+00 0.  1.
         21   -1    0    0  501  503 -0.00000000000E+00 -0.00000000000E+00 -0.94963056771E+03  0.94963056771E+03  0.00000000000E+00 0. -1.
          6    1    1    2  501    0  0.68021661375E+02 -0.32621994128E+02 -0.61332068894E+03  0.64143386908E+03  0.17200000000E+03 0. -1.
         -6    1    1    2    0  502 -0.68021661375E+02  0.32621994128E+02 -0.29488728332E+03  0.34961929406E+03  0.17200000000E+03 0.  1.
</event>
<event>
 4    1  0.4487206E+000  0.1979490E+03  0.7818608E-02  0.1151481E+00
         21   -1    0    0  501  502  0.00000000000E+00  0.00000000000E+00  0.48117126227E+02  0.48117126227E+02  0.00000000000E+00 0. -1.
         21   -1    0    0  502  503 -0.00000000000E+00 -0.00000000000E+00 -0.86956346354E+03  0.86956346354E+03  0.00000000000E+00 0. -1.
          6    1    1    2  501    0 -0.75369962141E+02 -0.62603427597E+02 -0.29509518794E+03  0.35533785372E+03  0.17200000000E+03 0. -1.
         -6    1    1    2    0  503  0.75369962141E+02  0.62603427597E+02 -0.52635114938E+03  0.56234273606E+03  0.17200000000E+03 0. -1.
</event>
<event>
 4    1  0.4487206E+000  0.2157245E+03  0.7818608E-02  0.1137111E+00
         21   -1    0    0  503  502  0.00000000000E+00  0.00000000000E+00  0.34887092370E+02  0.34887092370E+02  0.00000000000E+00 0.  1.
         21   -1    0    0  501  503 -0.00000000000E+00 -0.00000000000E+00 -0.22711941942E+04  0.22711941942E+04  0.00000000000E+00 0.  1.
          6    1    1    2  501    0 -0.35397983318E+01  0.13015584332E+03 -0.18588625150E+04  0.18713382707E+04  0.17200000000E+03 0.  1.
         -6    1    1    2    0  502  0.35397983318E+01 -0.13015584332E+03 -0.37744458687E+03  0.43474301591E+03  0.17200000000E+03 0.  1.
</event>
<event>
 4    1  0.4487206E+000  0.1786615E+03  0.7818608E-02  0.1169105E+00
         21   -1    0    0  503  502  0.00000000000E+00  0.00000000000E+00  0.49169760050E+02  0.49169760050E+02  0.00000000000E+00 0. -1.
         21   -1    0    0  501  503 -0.00000000000E+00 -0.00000000000E+00 -0.13250222210E+04  0.13250222210E+04  0.00000000000E+00 0.  1.
          6    1    1    2  501    0 -0.96380042750E+01 -0.47360578929E+02 -0.11286410877E+04  0.11426944562E+04  0.17200000000E+03 0.  1.
         -6    1    1    2    0  502  0.96380042750E+01  0.47360578929E+02 -0.14721137326E+03  0.23149752478E+03  0.17200000000E+03 0. -1.
</event>
<event>
 4    1  0.4487206E+000  0.2717899E+03  0.7818608E-02  0.1100260E+00
         21   -1    0    0  501  502  0.00000000000E+00  0.00000000000E+00  0.28921506904E+03  0.28921506904E+03  0.00000000000E+00 0.  1.
         21   -1    0    0  502  503 -0.00000000000E+00 -0.00000000000E+00 -0.25627577103E+03  0.25627577103E+03  0.00000000000E+00 0.  1.
          6    1    1    2  501    0 -0.20763335612E+03  0.34265799787E+02  0.32280109882E+02  0.27370012989E+03  0.17200000000E+03 0.  1.
         -6    1    1    2    0  503  0.20763335612E+03 -0.34265799787E+02  0.65918812699E+00  0.27179071017E+03  0.17200000000E+03 0.  1.
</event>
<event>
 4    1  0.4487206E+000  0.1955342E+03  0.7818608E-02  0.1153562E+00
         21   -1    0    0  501  502  0.00000000000E+00  0.00000000000E+00  0.26791225427E+03  0.26791225427E+03  0.00000000000E+00 0. -1.
         21   -1    0    0  502  503 -0.00000000000E+00 -0.00000000000E+00 -0.81731114939E+03  0.81731114939E+03  0.00000000000E+00 0. -1.
          6    1    1    2  501    0  0.47025212281E+02  0.80238703285E+02  0.21826902771E+03  0.29304434571E+03  0.17200000000E+03 0. -1.
         -6    1    1    2    0  503 -0.47025212281E+02 -0.80238703285E+02 -0.76766792284E+03  0.79217905795E+03  0.17200000000E+03 0. -1.
</event>
<event>
 4    1  0.4487206E+000  0.1805726E+03  0.7818608E-02  0.1167250E+00
         21   -1    0    0  503  502  0.00000000000E+00  0.00000000000E+00  0.45204705363E+03  0.45204705363E+03  0.00000000000E+00 0. -1.
         21   -1    0    0  501  503 -0.00000000000E+00 -0.00000000000E+00 -0.16440536864E+03  0.16440536864E+03  0.00000000000E+00 0. -1.
          6    1    1    2  501    0 -0.54974593812E+02  0.52227094955E+00 -0.87094491848E+02  0.20047924891E+03  0.17200000000E+03 0. -1.
         -6    1    1    2    0  502  0.54974593812E+02 -0.52227094955E+00  0.37473617683E+03  0.41597317336E+03  0.17200000000E+03 0. -1.
</event>
<event>
 4    1  0.4487206E+000  0.2406822E+03  0.7818608E-02  0.1119339E+00
         21   -1    0    0  503  502  0.00000000000E+00  0.00000000000E+00  0.30411070385E+03  0.30411070385E+03  0.00000000000E+00 0. -1.
         21   -1    0    0  501  503 -0.00000000000E+00 -0.00000000000E+00 -0.26227125866E+03  0.26227125866E+03  0.00000000000E+00 0.  1.
          6    1    1    2  501    0  0.16355636818E+03 -0.39915423148E+02 -0.12724018696E+03  0.27224619695E+03  0.17200000000E+03 0.  1.
         -6    1    1    2    0  502 -0.16355636818E+03  0.39915423148E+02  0.16907963215E+03  0.29413576556E+03  0.17200000000E+03 0. -1.
</event>
<event>
 4    1  0.4487206E+000  0.1988498E+03  0.7818608E-02  0.1150713E+00
         21   -1    0    0  503  502  0.00000000000E+00  0.00000000000E+00  0.81034456453E+03  0.81034456453E+03  0.00000000000E+00 0. -1.
         21   -1    0    0  501  503 -0.00000000000E+00 -0.00000000000E+00 -0.58013452218E+02  0.58013452218E+02  0.00000000000E+00 0. -1.
          6    1    1    2  501    0  0.85054974047E+02 -0.52181190617E+02  0.20309625706E+03  0.28423461242E+03  0.17200000000E+03 0. -1.
         -6    1    1    2    0  502 -0.85054974047E+02  0.52181190617E+02  0.54923485525E+03  0.58412340433E+03  0.17200000000E+03 0. -1.
</event>
<event>
 4    1  0.4487206E+000  0.1784701E+03  0.7818608E-02  0.1169292E+00
         21   -1    0    0  503  502  0.00000000000E+00  0.00000000000E+00  0.28739658110E+03  0.28739658110E+03  0.00000000000E+00 0.  1.
         21   -1    0    0  501  503 -0.00000000000E+00 -0.00000000000E+00 -0.11151349670E+03  0.11151349670E+03  0.00000000000E+00 0.  1.
          6    1    1    2  501    0  0.46190067890E+02  0.11578028875E+02  0.10358024385E+03  0.20635028481E+03  0.17200000000E+03 0.  1.
         -6    1    1    2    0  502 -0.46190067890E+02 -0.11578028875E+02  0.72302840555E+02  0.19255979299E+03  0.17200000000E+03 0.  1.
</event>
<event>
 4    1  0.4487206E+000  0.1965985E+03  0.7818608E-02  0.1152641E+00
         21   -1    0    0  503  502  0.00000000000E+00  0.00000000000E+00  0.65246555431E+02  0.65246555431E+02  0.00000000000E+00 0.  1.
         21   -1    0    0  501  503 -0.00000000000E+00 -0.00000000000E+00 -0.74985175670E+03  0.74985175670E+03  0.00000000000E+00 0. -1.
          6    1    1    2  501    0 -0.10951550527E+02 -0.94588864545E+02 -0.52906466071E+03  0.56441155637E+03  0.17200000000E+03 0. -1.
         -6    1    1    2    0  502  0.10951550527E+02  0.94588864545E+02 -0.15554054056E+03  0.25068675576E+03  0.17200000000E+03 0.  1.
</event>
<event>
 4    1  0.4487206E+000  0.2086922E+03  0.7818608E-02  0.1142606E+00
         21   -1    0    0  501  502  0.00000000000E+00  0.00000000000E+00  0.24250802459E+03  0.24250802459E+03  0.00000000000E+00 0. -1.
         21   -1    0    0  502  503 -0.00000000000E+00 -0.00000000000E+00 -0.33352144579E+03  0.33352144579E+03  0.00000000000E+00 0. -1.
          6    1    1    2  501    0  0.10888484164E+03  0.45962435226E+02  0.15015865154E+03  0.25709934815E+03  0.17200000000E+03 0. -1.
         -6    1    1    2    0  503 -0.10888484164E+03 -0.45962435226E+02 -0.24117207274E+03  0.31893012222E+03  0.17200000000E+03 0. -1.
</event>
<event>
 4    1  0.4487206E+000  0.2048341E+03  0.7818608E-02  0.1145723E+00
         21   -1    0    0  503  502  0.00000000000E+00  0.00000000000E+00  0.92503620185E+03  0.92503620185E+03  0.00000000000E+00 0. -1.
         21   -1    0    0  501  503 -0.00000000000E+00 -0.00000000000E+00 -0.57871666054E+02  0.57871666054E+02  0.00000000000E+00 0. -1.
          6    1    1    2  501    0  0.52776566554E+02 -0.97916448478E+02  0.20504500588E+03  0.28982831348E+03  0.17200000000E+03 0. -1.
         -6    1    1    2    0  502 -0.52776566554E+02  0.97916448478E+02  0.66211952992E+03  0.69307955442E+03  0.17200000000E+03 0. -1.
</event>
<event>
 4    1  0.4487206E+000  0.1948758E+03  0.7818608E-02  0.1154136E+00
         21   -1    0    0  503  502  0.00000000000E+00  0.00000000000E+00  0.67826893855E+03  0.67826893855E+03  0.00000000000E+00 0.  1.
         21   -1    0    0  501  503 -0.00000000000E+00 -0.00000000000E+00 -0.56864785414E+02  0.56864785414E+02  0.00000000000E+00 0.  1.
          6    1    1    2  501    0  0.15450161794E+02 -0.90298828412E+02  0.35627980221E+03  0.40609344168E+03  0.17200000000E+03 0.  1.
         -6    1    1    2    0  502 -0.15450161794E+02  0.90298828412E+02  0.26512435092E+03  0.32904028228E+03  0.17200000000E+03 0.  1.
</event>
<event>
 4    1  0.4487206E+000  0.1900797E+03  0.7818608E-02  0.1158390E+00
         21   -1    0    0  501  502  0.00000000000E+00  0.00000000000E+00  0.16141463410E+04  0.16141463410E+04  0.00000000000E+00 0. -1.
         21   -1    0    0  502  503 -0.00000000000E+00 -0.00000000000E+00 -0.25944252992E+02  0.25944252992E+02  0.00000000000E+00 0.  1.
          6    1    1    2  501    0  0.64368118404E+02  0.49020658453E+02  0.10979004068E+04  0.11142331815E+04  0.17200000000E+03 0. -1.
         -6    1    1    2    0  503 -0.64368118404E+02 -0.49020658453E+02  0.49030168122E+03  0.52585741245E+03  0.17200000000E+03 0.  1.
</event>
<event>
 4    1  0.4487206E+000  0.2861651E+03  0.7818608E-02  0.1092369E+00
         21   -1    0    0  501  502  0.00000000000E+00  0.00000000000E+00  0.12692575810E+04  0.12692575810E+04  0.00000000000E+00 0. -1.
         21   -1    0    0  502  503 -0.00000000000E+00 -0.00000000000E+00 -0.86985623703E+02  0.86985623703E+02  0.00000000000E+00 0.  1.
          6    1    1    2  501    0 -0.18570659434E+03  0.13348976158E+03  0.93577039079E+03  0.97854825119E+03  0.17200000000E+03 0. -1.
         -6    1    1    2    0  503  0.18570659434E+03 -0.13348976158E+03  0.24650156655E+03  0.37769495356E+03  0.17200000000E+03 0.  1.
</event>
<event>
 4    1  0.4487206E+000  0.1960904E+03  0.7818608E-02  0.1153080E+00
         21   -1    0    0  501  502  0.00000000000E+00  0.00000000000E+00  0.86884052056E+03  0.86884052056E+03  0.00000000000E+00 0. -1.
         21   -1    0    0  502  503 -0.00000000000E+00 -0.00000000000E+00 -0.65266677600E+02  0.65266677600E+02  0.00000000000E+00 0. -1.
          6    1    1    2  501    0 -0.92665302097E+02  0.16750175839E+02  0.66678379833E+03  0.69501946758E+03  0.17200000000E+03 0. -1.
         -6    1    1    2    0  503  0.92665302097E+02 -0.16750175839E+02  0.13679004463E+03  0.23908773058E+03  0.17200000000E+03 0. -1.
</event>
<event>
 4    1  0.4487206E+000  0.1909944E+03  0.7818608E-02  0.1157568E+00
         21   -1    0    0  503  502  0.00000000000E+00  0.00000000000E+00  0.27491061970E+02  0.27491061970E+02  0.00000000000E+00 0. -1.
         21   -1    0    0  501  503 -0.00000000000E+00 -0.00000000000E+00 -0.13582628120E+04  0.13582628120E+04  0.00000000000E+00 0. -1.
          6    1    1    2  501    0  0.82042260087E+02 -0.12803280087E+02 -0.77061311926E+03  0.79392911271E+03  0.17200000000E+03 0. -1.
         -6    1    1    2    0  502 -0.82042260087E+02  0.12803280087E+02 -0.56015863076E+03  0.59182476125E+03  0.17200000000E+03 0. -1.
</event>
<event>
 4    1  0.4487206E+000  0.2197039E+03  0.7818608E-02  0.1134104E+00
         21   -1    0    0  501  502  0.00000000000E+00  0.00000000000E+00  0.21045888103E+03  0.21045888103E+03  0.00000000000E+00 0. -1.
         21   -1    0    0  502  503 -0.00000000000E+00 -0.00000000000E+00 -0.44814942478E+03  0.44814942478E+03  0.00000000000E+00 0.  1.
          6    1    1    2  501    0  0.52709087904E+01 -0.13659438618E+03  0.11124796538E+03  0.24626392065E+03  0.17200000000E+03 0. -1.
         -6    1    1    2    0  503 -0.52709087904E+01  0.13659438618E+03 -0.34893850913E+03  0.41234438516E+03  0.17200000000E+03 0.  1.
</event>
<event>
 4    1  0.4487206E+000  0.1788936E+03  0.7818608E-02  0.1168878E+00
         21   -1    0    0  501  502  0.00000000000E+00  0.00000000000E+00  0.71013757648E+02  0.71013757648E+02  0.00000000000E+00 0. -1.
         21   -1    0    0  502  503 -0.00000000000E+00 -0.00000000000E+00 -0.82524779928E+03  0.82524779928E+03  0.00000000000E+00 0.  1.
          6    1    1    2  501    0  0.22944859733E+02  0.43502392155E+02 -0.75197979261E+02  0.19405581876E+03  0.17200000000E+03 0. -1.
         -6    1    1    2    0  503 -0.22944859733E+02 -0.43502392155E+02 -0.67903606237E+03  0.70220573816E+03  0.17200000000E+03 0.  1.
</event>
<event>
 4    1  0.4487206E+000  0.2176491E+03  0.7818608E-02  0.1135648E+00
         21   -1    0    0  501  502  0.00000000000E+00  0.00000000000E+00  0.35431806582E+02  0.35431806582E+02  0.00000000000E+00 0.  1.
         21   -1    0    0  502  503 -0.00000000000E+00 -0.00000000000E+00 -0.13780420490E+04  0.13780420490E+04  0.00000000000E+00 0. -1.
          6    1    1    2  501    0 -0.35846763225E+02  0.12846059063E+03 -0.79332256327E+03  0.82263710297E+03  0.17200000000E+03 0. -1.
         -6    1    1    2    0  503  0.35846763225E+02 -0.12846059063E+03 -0.54928767909E+03  0.59083675257E+03  0.17200000000E+03 0.  1.
</event>
<event>
 4    1  0.4487206E+000  0.3178440E+03  0.7818608E-02  0.1076646E+00
         21   -1    0    0  501  502  0.00000000000E+00  0.00000000000E+00  0.10593841839E+04  0.10593841839E+04  0.00000000000E+00 0.  1.
         21   -1    0    0  502  503 -0.00000000000E+00 -0.00000000000E+00 -0.21332347604E+03  0.21332347604E+03  0.00000000000E+00 0. -1.
          6    1    1    2  501    0 -0.23266887411E+03  0.13155239854E+03  0.89623576994E+03  0.95092764912E+03  0.17200000000E+03 0.  1.
         -6    1    1    2    0  503  0.23266887411E+03 -0.13155239854E+03 -0.50175062032E+02  0.32178001086E+03  0.17200000000E+03 0.  1.
</event>
<event>
 4    1  0.4487206E+000  0.2418960E+03  0.7818608E-02  0.1118536E+00
         21   -1    0    0  501  502  0.00000000000E+00  0.00000000000E+00  0.78705588922E+03  0.78705588922E+03  0.00000000000E+00 0.  1.
         21   -1    0    0  502  503 -0.00000000000E+00 -0.00000000000E+00 -0.76503864336E+02  0.76503864336E+02  0.00000000000E+00 0. -1.
          6    1    1    2  501    0  0.73105768874E+02  0.15357486808E+03  0.42780813541E+03  0.49146057244E+03  0.17200000000E+03 0.  1.
         -6    1    1    2    0  503 -0.73105768874E+02 -0.15357486808E+03  0.28274388948E+03  0.37209918111E+03  0.17200000000E+03 0.  1.
</event>
<event>
 4    1  0.4487206E+000  0.2087493E+03  0.7818608E-02  0.1142560E+00
         21   -1    0    0  501  502  0.00000000000E+00  0.00000000000E+00  0.17662090873E+03  0.17662090873E+03  0.00000000000E+00 0. -1.
         21   -1    0    0  502  503 -0.00000000000E+00 -0.00000000000E+00 -0.40302740515E+03  0.40302740515E+03  0.00000000000E+00 0. -1.
          6    1    1    2  501    0  0.10837546832E+03  0.47403019200E+02  0.67287147633E+02  0.21932589587E+03  0.17200000000E+03 0. -1.
         -6    1    1    2    0  503 -0.10837546832E+03 -0.47403019200E+02 -0.29369364406E+03  0.36032241801E+03  0.17200000000E+03 0. -1.
</event>
<event>
 4    1  0.4487206E+000  0.1838149E+03  0.7818608E-02  0.1164161E+00
         21   -1    0    0  501  502  0.00000000000E+00  0.00000000000E+00  0.10643877181E+04  0.10643877181E+04  0.00000000000E+00 0. -1.
         21   -1    0    0  502  503 -0.00000000000E+00 -0.00000000000E+00 -0.42580951020E+02  0.42580951020E+02  0.00000000000E+00 0. -1.
          6    1    1    2  501    0  0.27188624484E+02  0.58861732694E+02  0.79012638329E+03  0.81122600208E+03  0.17200000000E+03 0. -1.
         -6    1    1    2    0  503 -0.27188624484E+02 -0.58861732694E+02  0.23168038380E+03  0.29574266705E+03  0.17200000000E+03 0. -1.
</event>
<event>
 4    1  0.4487206E+000  0.2119890E+03  0.7818608E-02  0.1140001E+00
         21   -1    0    0  501  502  0.00000000000E+00  0.00000000000E+00  0.70833878027E+02  0.70833878027E+02  0.00000000000E+00 0.  1.
         21   -1    0    0  502  503 -0.00000000000E+00 -0.00000000000E+00 -0.64188698303E+03  0.64188698303E+03  0.00000000000E+00 0. -1.
          6    1    1    2  501    0  0.27548727347E+02 -0.12081553586E+03 -0.32392946105E+03  0.38712998052E+03  0.17200000000E+03 0.  1.
         -6    1    1    2    0  503 -0.27548727347E+02  0.12081553586E+03 -0.24712364395E+03  0.32559088053E+03  0.17200000000E+03 0. -1.
</event>
<event>
 4    1  0.4487206E+000  0.1922470E+03  0.7818608E-02  0.1156450E+00
         21   -1    0    0  501  502  0.00000000000E+00  0.00000000000E+00  0.80100290745E+02  0.80100290745E+02  0.00000000000E+00 0. -1.
         21   -1    0    0  502  503 -0.00000000000E+00 -0.00000000000E+00 -0.48121272501E+03  0.48121272501E+03  0.00000000000E+00 0. -1.
          6    1    1    2  501    0 -0.78992493832E+02 -0.33691356341E+02 -0.14361980881E+03  0.23996993782E+03  0.17200000000E+03 0. -1.
         -6    1    1    2    0  503  0.78992493832E+02  0.33691356341E+02 -0.25749262546E+03  0.32134307794E+03  0.17200000000E+03 0. -1.
</event>
<event>
 4    1  0.4487206E+000  0.2474427E+03  0.7818608E-02  0.1114932E+00
         21   -1    0    0  501  502  0.00000000000E+00  0.00000000000E+00  0.28412281369E+03  0.28412281369E+03  0.00000000000E+00 0. -1.
         21   -1    0    0  502  503 -0.00000000000E+00 -0.00000000000E+00 -0.43445376187E+03  0.43445376187E+03  0.00000000000E+00 0.  1.
          6    1    1    2  501    0  0.59615597212E+02 -0.16760025697E+03  0.17989877002E+03  0.30592716947E+03  0.17200000000E+03 0. -1.
         -6    1    1    2    0  503 -0.59615597212E+02  0.16760025697E+03 -0.33022971819E+03  0.41264940609E+03  0.17200000000E+03 0.  1.
</event>
<event>
 4    1  0.4487206E+000  0.1781481E+03  0.7818608E-02  0.1169607E+00
         21   -1    0    0  501  502  0.00000000000E+00  0.00000000000E+00  0.49898022347E+03  0.49898022347E+03  0.00000000000E+00 0. -1.
         21   -1    0    0  502  503 -0.00000000000E+00 -0.00000000000E+00 -0.63693745057E+02  0.63693745057E+02  0.00000000000E+00 0. -1.
          6    1    1    2  501    0 -0.18033602419E+02  0.42749803478E+02  0.22824862264E+03  0.28954134463E+03  0.17200000000E+03 0. -1.
         -6    1    1    2    0  503  0.18033602419E+02 -0.42749803478E+02  0.20703785577E+03  0.27313262390E+03  0.17200000000E+03 0. -1.
</event>
<event>
 4    1  0.4487206E+000  0.1891857E+03  0.7818608E-02  0.1159198E+00
         21   -1    0    0  501  502  0.00000000000E+00  0.00000000000E+00  0.33594142011E+03  0.33594142011E+03  0.00000000000E+00 0. -1.
         21   -1    0    0  502  503 -0.00000000000E+00 -0.00000000000E+00 -0.13119727571E+03  0.13119727571E+03  0.00000000000E+00 0. -1.
          6    1    1    2  501    0 -0.78352022640E+02 -0.82584889460E+01  0.20362902485E+03  0.27794967504E+03  0.17200000000E+03 0. -1.
         -6    1    1    2    0  503  0.78352022640E+02  0.82584889460E+01  0.11151195487E+01  0.18918902078E+03  0.17200000000E+03 0. -1.
</event>
<event>
 4    1  0.4487206E+000  0.2267735E+03  0.7818608E-02  0.1128932E+00
         21   -1    0    0  503  502  0.00000000000E+00  0.00000000000E+00  0.17908801819E+04  0.17908801819E+04  0.00000000000E+00 0. -1.
         21   -1    0    0  501  503 -0.00000000000E+00 -0.00000000000E+00 -0.34985681843E+02  0.34985681843E+02  0.00000000000E+00 0.  1.
          6    1    1    2  501    0  0.12595572862E+03  0.77313491103E+02  0.49146471644E+03  0.54126129456E+03  0.17200000000E+03 0. -1.
         -6    1    1    2    0  502 -0.12595572862E+03 -0.77313491103E+02  0.12644297836E+04  0.12846045692E+04  0.17200000000E+03 0.  1.
</event>
<event>
 4    1  0.4487206E+000  0.1754544E+03  0.7818608E-02  0.1172276E+00
         21   -1    0    0  501  502  0.00000000000E+00  0.00000000000E+00  0.42401804732E+03  0.42401804732E+03  0.00000000000E+00 0.  1.
         21   -1    0    0  502  503 -0.00000000000E+00 -0.00000000000E+00 -0.11429647892E+03  0.11429647892E+03  0.00000000000E+00 0.  1.
          6    1    1    2  501    0 -0.39011620383E+01  0.34424386460E+02  0.31742788027E+03  0.36269093816E+03  0.17200000000E+03 0.  1.
         -6    1    1    2    0  503  0.39011620383E+01 -0.34424386460E+02 -0.77063118664E+01  0.17562358808E+03  0.17200000000E+03 0.  1.
</event>
<event>
 4    1  0.4487206E+000  0.2156217E+03  0.7818608E-02  0.1137190E+00
         21   -1    0    0  503  502  0.00000000000E+00  0.00000000000E+00  0.15634897715E+03  0.15634897715E+03  0.00000000000E+00 0.  1.
         21   -1    0    0  501  503 -0.00000000000E+00 -0.00000000000E+00 -0.49617415374E+03  0.49617415374E+03  0.00000000000E+00 0. -1.
          6    1    1    2  501    0 -0.22986240053E+02  0.12798582109E+03 -0.37643484747E+03  0.43381555069E+03  0.17200000000E+03 0. -1.
         -6    1    1    2    0  502  0.22986240053E+02 -0.12798582109E+03  0.36609670878E+02  0.21870758019E+03  0.17200000000E+03 0.  1.
</event>
<event>
 4    1  0.4487206E+000  0.2042706E+03  0.7818608E-02  0.1146185E+00
         21   -1    0    0  501  502  0.00000000000E+00  0.00000000000E+00  0.66725504138E+02  0.66725504138E+02  0.00000000000E+00 0.  1.
         21   -1    0    0  502  503 -0.00000000000E+00 -0.00000000000E+00 -0.99617065210E+03  0.99617065210E+03  0.00000000000E+00 0. -1.
          6    1    1    2  501    0 -0.21025191297E+02  0.10816843580E+03 -0.14047347585E+03  0.24790979527E+03  0.17200000000E+03 0.  1.
         -6    1    1    2    0  503  0.21025191297E+02 -0.10816843580E+03 -0.78897167211E+03  0.81498636097E+03  0.17200000000E+03 0. -1.
</event>
<event>
 4    1  0.4487206E+000  0.2232856E+03  0.7818608E-02  0.1131457E+00
         21   -1    0    0  503  502  0.00000000000E+00  0.00000000000E+00  0.14019461415E+04  0.14019461415E+04  0.00000000000E+00 0. -1.
         21   -1    0    0  501  503 -0.00000000000E+00 -0.00000000000E+00 -0.38227983233E+02  0.38227983233E+02  0.00000000000E+00 0. -1.
          6    1    1    2  501    0 -0.13911225555E+03  0.30335082399E+02  0.49170828509E+03  0.54003099401E+03  0.17200000000E+03 0. -1.
         -6    1    1    2    0  502  0.13911225555E+03 -0.30335082399E+02  0.87200987320E+03  0.90014313075E+03  0.17200000000E+03 0. -1.
</event>
<event>
 4    1  0.4487206E+000  0.2146030E+03  0.7818608E-02  0.1137972E+00
         21   -1    0    0  501  502  0.00000000000E+00  0.00000000000E+00  0.45476735345E+02  0.45476735345E+02  0.00000000000E+00 0. -1.
         21   -1    0    0  502  503 -0.00000000000E+00 -0.00000000000E+00 -0.10147462829E+04  0.10147462829E+04  0.00000000000E+00 0.  1.
          6    1    1    2  501    0 -0.12821271310E+03  0.56506667473E+01 -0.46084750842E+03  0.50836488456E+03  0.17200000000E+03 0.  1.
         -6    1    1    2    0  503  0.12821271310E+03 -0.56506667473E+01 -0.50842203910E+03  0.55185813365E+03  0.17200000000E+03 0. -1.
</event>
<event>
 4    1  0.4487206E+000  0.1996394E+03  0.7818608E-02  0.1150044E+00
         21   -1    0    0  503  502  0.00000000000E+00  0.00000000000E+00  0.70246634882E+03  0.70246634882E+03  0.00000000000E+00 0.  1.
         21   -1    0    0  501  503 -0.00000000000E+00 -0.00000000000E+00 -0.56930510451E+02  0.56930510451E+02  0.00000000000E+00 0. -1.
          6    1    1    2  501    0  0.75732683488E+02  0.67353280685E+02  0.34489916037E+03  0.39851139832E+03  0.17200000000E+03 0. -1.
         -6    1    1    2    0  502 -0.75732683488E+02 -0.67353280685E+02  0.30063667800E+03  0.36088546095E+03  0.17200000000E+03 0. -1.
</event>
<event>
 4    1  0.4487206E+000  0.2150739E+03  0.7818608E-02  0.1137610E+00
         21   -1    0    0  503  502  0.00000000000E+00  0.00000000000E+00  0.35724021380E+03  0.35724021380E+03  0.00000000000E+00 0.  1.
         21   -1    0    0  501  503 -0.00000000000E+00 -0.00000000000E+00 -0.19749839552E+03  0.19749839552E+03  0.00000000000E+00 0.  1.
          6    1    1    2  501    0 -0.12375865825E+03  0.36831736911E+02 -0.82900458254E+02  0.23049787052E+03  0.17200000000E+03 0.  1.
         -6    1    1    2    0  502  0.12375865825E+03 -0.36831736911E+02  0.24264227653E+03  0.32424073880E+03  0.17200000000E+03 0.  1.
</event>
<event>
 4    1  0.4487206E+000  0.2100642E+03  0.7818608E-02  0.1141515E+00
         21   -1    0    0  501  502  0.00000000000E+00  0.00000000000E+00  0.55084975318E+03  0.55084975318E+03  0.00000000000E+00 0. -1.
         21   -1    0    0  502  503 -0.00000000000E+00 -0.00000000000E+00 -0.86881308268E+02  0.86881308268E+02  0.00000000000E+00 0. -1.
          6    1    1    2  501    0  0.11414505877E+03  0.38908356182E+02  0.14294631797E+03  0.25408778885E+03  0.17200000000E+03 0. -1.
         -6    1    1    2    0  503 -0.11414505877E+03 -0.38908356182E+02  0.32102212695E+03  0.38364327260E+03  0.17200000000E+03 0. -1.
</event>
<event>
 4    1  0.4487206E+000  0.1830845E+03  0.7818608E-02  0.1164851E+00
         21   -1    0    0  501  502  0.00000000000E+00  0.00000000000E+00  0.22900629650E+03  0.22900629650E+03  0.00000000000E+00 0. -1.
         21   -1    0    0  502  503 -0.00000000000E+00 -0.00000000000E+00 -0.55427331499E+03  0.55427331499E+03  0.00000000000E+00 0. -1.
          6    1    1    2  501    0  0.20691483434E+02 -0.59226772221E+02  0.17333824705E+03  0.25212317610E+03  0.17200000000E+03 0. -1.
         -6    1    1    2    0  503 -0.20691483434E+02  0.59226772221E+02 -0.49860526554E+03  0.53115643539E+03  0.17200000000E+03 0. -1.
</event>
<event>
 4    1  0.4487206E+000  0.2101787E+03  0.7818608E-02  0.1141425E+00
         21   -1    0    0  503  502  0.00000000000E+00  0.00000000000E+00  0.80130319507E+03  0.80130319507E+03  0.00000000000E+00 0. -1.
         21   -1    0    0  501  503 -0.00000000000E+00 -0.00000000000E+00 -0.99587323205E+02  0.99587323205E+02  0.00000000000E+00 0. -1.
          6    1    1    2  501    0 -0.11538311896E+03 -0.35746821144E+02  0.49892798398E+02  0.21601942203E+03  0.17200000000E+03 0. -1.
         -6    1    1    2    0  502  0.11538311896E+03  0.35746821144E+02  0.65182307346E+03  0.68487109624E+03  0.17200000000E+03 0. -1.
</event>
<event>
 4    1  0.4487206E+000  0.1976189E+03  0.7818608E-02  0.1151764E+00
         21   -1    0    0  503  502  0.00000000000E+00  0.00000000000E+00  0.14338455849E+04  0.14338455849E+04  0.00000000000E+00 0.  1.
         21   -1    0    0  501  503 -0.00000000000E+00 -0.00000000000E+00 -0.14591061789E+03  0.14591061789E+03  0.00000000000E+00 0.  1.
          6    1    1    2  501    0 -0.56263079401E+02 -0.79395790734E+02 -0.68383881504E+02  0.20911619005E+03  0.17200000000E+03 0.  1.
         -6    1    1    2    0  502  0.56263079401E+02  0.79395790734E+02  0.13563188485E+04  0.13706400127E+04  0.17200000000E+03 0.  1.
</event>
<event>
 4    1  0.4487206E+000  0.2237416E+03  0.7818608E-02  0.1131124E+00
         21   -1    0    0  501  502  0.00000000000E+00  0.00000000000E+00  0.78133895001E+03  0.78133895001E+03  0.00000000000E+00 0. -1.
         21   -1    0    0  502  503 -0.00000000000E+00 -0.00000000000E+00 -0.64129275587E+02  0.64129275587E+02  0.00000000000E+00 0. -1.
          6    1    1    2  501    0 -0.46542225966E+02 -0.13531487070E+03  0.37146999082E+03  0.43364760706E+03  0.17200000000E+03 0. -1.
         -6    1    1    2    0  503  0.46542225966E+02  0.13531487070E+03  0.34573968360E+03  0.41182061853E+03  0.17200000000E+03 0. -1.
</event>
<event>
 4    1  0.4487206E+000  0.2070153E+03  0.7818608E-02  0.1143952E+00
         21   -1    0    0  501  502  0.00000000000E+00  0.00000000000E+00  0.81120618745E+03  0.81120618745E+03  0.00000000000E+00 0.  1.
         21   -1    0    0  502  503 -0.00000000000E+00 -0.00000000000E+00 -0.53582877139E+02  0.53582877139E+02  0.00000000000E+00 0. -1.
          6    1    1    2  501    0 -0.10946053054E+03  0.35912557325E+02  0.43009533373E+03  0.47732307258E+03  0.17200000000E+03 0.  1.
         -6    1    1    2    0  503  0.10946053054E+03 -0.35912557325E+02  0.32752797658E+03  0.38746599201E+03  0.17200000000E+03 0. -1.
</event>
<event>
 4    1  0.4487206E+000  0.1799206E+03  0.7818608E-02  0.1167880E+00
         21   -1    0    0  503  502  0.00000000000E+00  0.00000000000E+00  0.23339760775E+03  0.23339760775E+03  0.00000000000E+00 0.  1.
         21   -1    0    0  501  503 -0.00000000000E+00 -0.00000000000E+00 -0.14568153005E+03  0.14568153005E+03  0.00000000000E+00 0.  1.
          6    1    1    2  501    0  0.51084276978E+02 -0.13335533433E+02  0.23549281786E+01  0.17993605946E+03  0.17200000000E+03 0.  1.
         -6    1    1    2    0  502 -0.51084276978E+02  0.13335533433E+02  0.85361149524E+02  0.19914307835E+03  0.17200000000E+03 0.  1.
</event>
<event>
 4    1  0.4487206E+000  0.1960718E+03  0.7818608E-02  0.1153096E+00
         21   -1    0    0  501  502  0.00000000000E+00  0.00000000000E+00  0.17509243975E+03  0.17509243975E+03  0.00000000000E+00 0. -1.
         21   -1    0    0  502  503 -0.00000000000E+00 -0.00000000000E+00 -0.79477033185E+03  0.79477033185E+03  0.00000000000E+00 0. -1.
          6    1    1    2  501    0  0.22890065896E+02  0.91302753925E+02  0.10270571624E+03  0.22134274810E+03  0.17200000000E+03 0. -1.
         -6    1    1    2    0  503 -0.22890065896E+02 -0.91302753925E+02 -0.72238360834E+03  0.74852002350E+03  0.17200000000E+03 0. -1.
</event>
<event>
 4    1  0.4487206E+000  0.2520381E+03  0.7818608E-02  0.1112023E+00
         21   -1    0    0  503  502  0.00000000000E+00  0.00000000000E+00  0.15801549735E+03  0.15801549735E+03  0.00000000000E+00 0. -1.
         21   -1    0    0  501  503 -0.00000000000E+00 -0.00000000000E+00 -0.42260932920E+03  0.42260932920E+03  0.00000000000E+00 0.  1.
          6    1    1    2  501    0  0.19494127637E+02 -0.18319171325E+03 -0.19639744973E+03  0.31952336859E+03  0.17200000000E+03 0. -1.
         -6    1    1    2    0  502 -0.19494127637E+02  0.18319171325E+03 -0.68196382124E+02  0.26110145797E+03  0.17200000000E+03 0. -1.
</event>
<event>
 4    1  0.4487206E+000  0.1867069E+03  0.7818608E-02  0.1161466E+00
         21   -1    0    0  501  502  0.00000000000E+00  0.00000000000E+00  0.12564431150E+03  0.12564431150E+03  0.00000000000E+00 0. -1.
         21   -1    0    0  502  503 -0.00000000000E+00 -0.00000000000E+00 -0.34596652250E+03  0.34596652250E+03  0.00000000000E+00 0. -1.
          6    1    1    2  501    0 -0.12720813964E+02  0.71509641447E+02 -0.52192642901E+01  0.18677978651E+03  0.17200000000E+03 0. -1.
         -6    1    1    2    0  503  0.12720813964E+02 -0.71509641447E+02 -0.21510294671E+03  0.28483104749E+03  0.17200000000E+03 0. -1.
</event>
<event>
 4    1  0.4487206E+000  0.2321525E+03  0.7818608E-02  0.1125134E+00
         21   -1    0    0  503  502  0.00000000000E+00  0.00000000000E+00  0.89558187785E+02  0.89558187785E+02  0.00000000000E+00 0.  1.
         21   -1    0    0  501  503 -0.00000000000E+00 -0.00000000000E+00 -0.61294519035E+03  0.61294519035E+03  0.00000000000E+00 0.  1.
          6    1    1    2  501    0  0.11763715243E+03 -0.10233418277E+03 -0.30908943761E+03  0.38656314496E+03  0.17200000000E+03 0.  1.
         -6    1    1    2    0  502 -0.11763715243E+03  0.10233418277E+03 -0.21429756495E+03  0.31594023317E+03  0.17200000000E+03 0.  1.
</event>
<event>
 4    1  0.4487206E+000  0.2239115E+03  0.7818608E-02  0.1131000E+00
         21   -1    0    0  501  502  0.00000000000E+00  0.00000000000E+00  0.16616690883E+03  0.16616690883E+03  0.00000000000E+00 0. -1.
         21   -1    0    0  502  503 -0.00000000000E+00 -0.00000000000E+00 -0.31729054689E+03  0.31729054689E+03  0.00000000000E+00 0. -1.
          6    1    1    2  501    0  0.57881448290E+02  0.13115671701E+03 -0.22017616206E+02  0.22499138183E+03  0.17200000000E+03 0.  1.
         -6    1    1    2    0  503 -0.57881448290E+02 -0.13115671701E+03 -0.12910602185E+03  0.25846607389E+03  0.17200000000E+03 0.  1.
</event>
<event>
 4    1  0.4487206E+000  0.2293805E+03  0.7818608E-02  0.1127077E+00
         21   -1    0    0  501  502  0.00000000000E+00  0.00000000000E+00  0.21149501902E+03  0.21149501902E+03  0.00000000000E+00 0. -1.
         21   -1    0    0  502  503 -0.00000000000E+00 -0.00000000000E+00 -0.47022707807E+03  0.47022707807E+03  0.00000000000E+00 0.  1.
          6    1    1    2  501    0  0.58792707044E+02 -0.13991006075E+03  0.10455002747E+03  0.25208354913E+03  0.17200000000E+03 0. -1.
         -6    1    1    2    0  503 -0.58792707044E+02  0.13991006075E+03 -0.36328208652E+03  0.42963854795E+03  0.17200000000E+03 0.  1.
</event>
<event>
 4    1  0.4487206E+000  0.2095063E+03  0.7818608E-02  0.1141958E+00
         21   -1    0    0  501  502  0.00000000000E+00  0.00000000000E+00  0.96419263112E+03  0.96419263112E+03  0.00000000000E+00 0. -1.
         21   -1    0    0  502  503 -0.00000000000E+00 -0.00000000000E+00 -0.63194169743E+02  0.63194169743E+02  0.00000000000E+00 0. -1.
          6    1    1    2  501    0  0.60656266873E+02  0.10310054092E+03  0.72214228165E+03  0.75191913076E+03  0.17200000000E+03 0. -1.
         -6    1    1    2    0  503 -0.60656266873E+02 -0.10310054092E+03  0.17885617973E+03  0.27546767011E+03  0.17200000000E+03 0. -1.
</event>
<event>
 4    1  0.4487206E+000  0.1879657E+03  0.7818608E-02  0.1160309E+00
         21   -1    0    0  503  502  0.00000000000E+00  0.00000000000E+00  0.11072710488E+03  0.11072710488E+03  0.00000000000E+00 0.  1.
         21   -1    0    0  501  503 -0.00000000000E+00 -0.00000000000E+00 -0.76793817557E+03  0.76793817557E+03  0.00000000000E+00 0.  1.
          6    1    1    2  501    0 -0.74040065715E+02  0.16284284373E+02 -0.66448509918E+03  0.69055887243E+03  0.17200000000E+03 0.  1.
         -6    1    1    2    0  502  0.74040065715E+02 -0.16284284373E+02  0.72740284871E+01  0.18810640802E+03  0.17200000000E+03 0.  1.
</event>
<event>
 4    1  0.4487206E+000  0.1989750E+03  0.7818608E-02  0.1150607E+00
         21   -1    0    0  503  502  0.00000000000E+00  0.00000000000E+00  0.54968437421E+03  0.54968437421E+03  0.00000000000E+00 0.  1.
         21   -1    0    0  501  503 -0.00000000000E+00 -0.00000000000E+00 -0.72209121302E+02  0.72209121302E+02  0.00000000000E+00 0. -1.
          6    1    1    2  501    0  0.32769727184E+02  0.94515494261E+02  0.22303738468E+03  0.29889247003E+03  0.17200000000E+03 0.  1.
         -6    1    1    2    0  502 -0.32769727184E+02 -0.94515494261E+02  0.25443786823E+03  0.32300102549E+03  0.17200000000E+03 0. -1.
</event>
<event>
 4    1  0.4487206E+000  0.2702256E+03  0.7818608E-02  0.1101151E+00
         21   -1    0    0  503  502  0.00000000000E+00  0.00000000000E+00  0.54102740366E+03  0.54102740366E+03  0.00000000000E+00 0. -1.
         21   -1    0    0  501  503 -0.00000000000E+00 -0.00000000000E+00 -0.17463493158E+03  0.17463493158E+03  0.00000000000E+00 0.  1.
          6    1    1    2  501    0  0.99217861087E+01  0.20818121779E+03  0.12657866269E+02  0.27052187131E+03  0.17200000000E+03 0. -1.
         -6    1    1    2    0  502 -0.99217861087E+01 -0.20818121779E+03  0.35373460581E+03  0.44514046393E+03  0.17200000000E+03 0. -1.
</event>
<event>
 4    1  0.4487206E+000  0.2180489E+03  0.7818608E-02  0.1135346E+00
         21   -1    0    0  503  502  0.00000000000E+00  0.00000000000E+00  0.16009623706E+03  0.16009623706E+03  0.00000000000E+00 0.  1.
         21   -1    0    0  501  503 -0.00000000000E+00 -0.00000000000E+00 -0.43535641430E+03  0.43535641430E+03  0.00000000000E+00 0. -1.
          6    1    1    2  501    0 -0.21274860506E+02 -0.13232046660E+03 -0.30548201835E+03  0.37531931619E+03  0.17200000000E+03 0. -1.
         -6    1    1    2    0  502  0.21274860506E+02  0.13232046660E+03  0.30221841122E+02  0.22013333517E+03  0.17200000000E+03 0.  1.
</event>
<event>
 4    1  0.4487206E+000  0.2066117E+03  0.7818608E-02  0.1144278E+00
         21   -1    0    0  503  502  0.00000000000E+00  0.00000000000E+00  0.76023384484E+02  0.76023384484E+02  0.00000000000E+00 0. -1.
         21   -1    0    0  501  503 -0.00000000000E+00 -0.00000000000E+00 -0.56949935552E+03  0.56949935552E+03  0.00000000000E+00 0.  1.
          6    1    1    2  501    0  0.10649754363E+03 -0.41984139394E+02 -0.28495092911E+03  0.35197361657E+03  0.17200000000E+03 0.  1.
         -6    1    1    2    0  502 -0.10649754363E+03  0.41984139394E+02 -0.20852504193E+03  0.29354912344E+03  0.17200000000E+03 0. -1.
</event>
<event>
 4    1  0.4487206E+000  0.2112185E+03  0.7818608E-02  0.1140605E+00
         21   -1    0    0  501  502  0.00000000000E+00  0.00000000000E+00  0.76550697350E+03  0.76550697350E+03  0.00000000000E+00 0. -1.
         21   -1    0    0  502  503 -0.00000000000E+00 -0.00000000000E+00 -0.65082077959E+02  0.65082077959E+02  0.00000000000E+00 0. -1.
          6    1    1    2  501    0  0.12127295314E+03  0.17947541062E+02  0.48447882778E+03  0.52851960981E+03  0.17200000000E+03 0. -1.
         -6    1    1    2    0  503 -0.12127295314E+03 -0.17947541062E+02  0.21594606776E+03  0.30206944164E+03  0.17200000000E+03 0. -1.
</event>
<event>
 4    1  0.4487206E+000  0.1798086E+03  0.7818608E-02  0.1167988E+00
         21   -1    0    0  503  502  0.00000000000E+00  0.00000000000E+00  0.38066791239E+03  0.38066791239E+03  0.00000000000E+00 0.  1.
         21   -1    0    0  501  503 -0.00000000000E+00 -0.00000000000E+00 -0.14137128261E+03  0.14137128261E+03  0.00000000000E+00 0.  1.
          6    1    1    2  501    0  0.23762617455E+02  0.46717104926E+02 -0.45274448612E+02  0.18542094158E+03  0.17200000000E+03 0.  1.
         -6    1    1    2    0  502 -0.23762617455E+02 -0.46717104926E+02  0.28457107838E+03  0.33661825342E+03  0.17200000000E+03 0.  1.
</event>
<event>
 4    1  0.4487206E+000  0.2242996E+03  0.7818608E-02  0.1130718E+00
         21   -1    0    0  501  502  0.00000000000E+00  0.00000000000E+00  0.46961396855E+02  0.46961396855E+02  0.00000000000E+00 0.  1.
         21   -1    0    0  502  503 -0.00000000000E+00 -0.00000000000E+00 -0.13238569217E+04  0.13238569217E+04  0.00000000000E+00 0.  1.
          6    1    1    2  501    0  0.94266562490E+02  0.10881234274E+03 -0.33908440001E+03  0.40655693460E+03  0.17200000000E+03 0.  1.
         -6    1    1    2    0  503 -0.94266562490E+02 -0.10881234274E+03 -0.93781112480E+03  0.96426138393E+03  0.17200000000E+03 0.  1.
</event>
<event>
 4    1  0.4487206E+000  0.1725609E+03  0.7818608E-02  0.1175203E+00
         21   -1    0    0  503  502  0.00000000000E+00  0.00000000000E+00  0.49492763506E+02  0.49492763506E+02  0.00000000000E+00 0.  1.
         21   -1    0    0  501  503 -0.00000000000E+00 -0.00000000000E+00 -0.61547326269E+03  0.61547326269E+03  0.00000000000E+00 0.  1.
          6    1    1    2  501    0  0.30199389820E+01 -0.13570540834E+02 -0.33281938309E+03  0.37489468037E+03  0.17200000000E+03 0.  1.
         -6    1    1    2    0  502 -0.30199389820E+01  0.13570540834E+02 -0.23316111609E+03  0.29007134582E+03  0.17200000000E+03 0.  1.
</event>
<event>
 4    1  0.4487206E+000  0.2002965E+03  0.7818608E-02  0.1149489E+00
         21   -1    0    0  503  502  0.00000000000E+00  0.00000000000E+00  0.14274815327E+04  0.14274815327E+04  0.00000000000E+00 0.  1.
         21   -1    0    0  501  503 -0.00000000000E+00 -0.00000000000E+00 -0.33800628645E+02  0.33800628645E+02  0.00000000000E+00 0.  1.
          6    1    1    2  501    0 -0.72147617541E+02  0.73002713836E+02  0.39690275466E+03  0.44457898241E+03  0.17200000000E+03 0.  1.
         -6    1    1    2    0  502  0.72147617541E+02 -0.73002713836E+02  0.99677814936E+03  0.10167031789E+04  0.17200000000E+03 0.  1.
</event>
<event>
 4    1  0.4487206E+000  0.1772123E+03  0.7818608E-02  0.1170529E+00
         21   -1    0    0  501  502  0.00000000000E+00  0.00000000000E+00  0.23107085962E+03  0.23107085962E+03  0.00000000000E+00 0. -1.
         21   -1    0    0  502  503 -0.00000000000E+00 -0.00000000000E+00 -0.13607168798E+03  0.13607168798E+03  0.00000000000E+00 0. -1.
          6    1    1    2  501    0  0.79603867921E+01  0.41914427945E+02  0.41116582328E+02  0.18191965361E+03  0.17200000000E+03 0. -1.
         -6    1    1    2    0  503 -0.79603867921E+01 -0.41914427945E+02  0.53882589307E+02  0.18522289399E+03  0.17200000000E+03 0. -1.
</event>
<event>
 4    1  0.4487206E+000  0.6486766E+03  0.7818608E-02  0.9809266E-01
         21   -1    0    0  503  502  0.00000000000E+00  0.00000000000E+00  0.43425345388E+03  0.43425345388E+03  0.00000000000E+00 0. -1.
         21   -1    0    0  501  503 -0.00000000000E+00 -0.00000000000E+00 -0.16750700155E+04  0.16750700155E+04  0.00000000000E+00 0.  1.
          6    1    1    2  501    0 -0.56013588136E+03  0.27828956518E+03 -0.13051517396E+04  0.14574643567E+04  0.17200000000E+03 0. -1.
         -6    1    1    2    0  502  0.56013588136E+03 -0.27828956518E+03  0.64335177951E+02  0.65185911269E+03  0.17200000000E+03 0.  1.
</event>
<event>
 4    1  0.4487206E+000  0.2519142E+03  0.7818608E-02  0.1112101E+00
         21   -1    0    0  503  502  0.00000000000E+00  0.00000000000E+00  0.21403482954E+03  0.21403482954E+03  0.00000000000E+00 0. -1.
         21   -1    0    0  501  503 -0.00000000000E+00 -0.00000000000E+00 -0.53306516921E+03  0.53306516921E+03  0.00000000000E+00 0.  1.
          6    1    1    2  501    0  0.26473819186E+01  0.18403738325E+03 -0.40836444994E+03  0.47981485079E+03  0.17200000000E+03 0.  1.
         -6    1    1    2    0  502 -0.26473819186E+01 -0.18403738325E+03  0.89334110272E+02  0.26728514796E+03  0.17200000000E+03 0. -1.
</event>
<event>
 4    1  0.4487206E+000  0.2029605E+03  0.7818608E-02  0.1147265E+00
         21   -1    0    0  501  502  0.00000000000E+00  0.00000000000E+00  0.20740649407E+03  0.20740649407E+03  0.00000000000E+00 0.  1.
         21   -1    0    0  502  503 -0.00000000000E+00 -0.00000000000E+00 -0.21403701344E+03  0.21403701344E+03  0.00000000000E+00 0. -1.
          6    1    1    2  501    0  0.10746313895E+03  0.77869058484E+01  0.53257672192E+02  0.20983169871E+03  0.17200000000E+03 0.  1.
         -6    1    1    2    0  503 -0.10746313895E+03 -0.77869058484E+01 -0.59888191561E+02  0.21161180880E+03  0.17200000000E+03 0. -1.
</event>
<event>
 4    1  0.4487206E+000  0.1815727E+03  0.7818608E-02  0.1166290E+00
         21   -1    0    0  503  502  0.00000000000E+00  0.00000000000E+00  0.89958686130E+03  0.89958686130E+03  0.00000000000E+00 0.  1.
         21   -1    0    0  501  503 -0.00000000000E+00 -0.00000000000E+00 -0.61950775898E+02  0.61950775898E+02  0.00000000000E+00 0.  1.
          6    1    1    2  501    0 -0.58176858464E+02 -0.28565018481E+00  0.11156826850E+03  0.21311055111E+03  0.17200000000E+03 0.  1.
         -6    1    1    2    0  502  0.58176858464E+02  0.28565018481E+00  0.72606781690E+03  0.74842708609E+03  0.17200000000E+03 0.  1.
</event>
<event>
 4    1  0.4487206E+000  0.1864669E+03  0.7818608E-02  0.1161687E+00
         21   -1    0    0  503  502  0.00000000000E+00  0.00000000000E+00  0.29058508017E+03  0.29058508017E+03  0.00000000000E+00 0. -1.
         21   -1    0    0  501  503 -0.00000000000E+00 -0.00000000000E+00 -0.12047397997E+03  0.12047397997E+03  0.00000000000E+00 0.  1.
          6    1    1    2  501    0 -0.38147320693E+02  0.61079206102E+02  0.68107163941E+02  0.19851567513E+03  0.17200000000E+03 0. -1.
         -6    1    1    2    0  502  0.38147320693E+02 -0.61079206102E+02  0.10200393626E+03  0.21254338500E+03  0.17200000000E+03 0. -1.
</event>
<event>
 4    1  0.4487206E+000  0.2178135E+03  0.7818608E-02  0.1135524E+00
         21   -1    0    0  501  502  0.00000000000E+00  0.00000000000E+00  0.20131097173E+03  0.20131097173E+03  0.00000000000E+00 0. -1.
         21   -1    0    0  502  503 -0.00000000000E+00 -0.00000000000E+00 -0.29506429846E+03  0.29506429846E+03  0.00000000000E+00 0.  1.
          6    1    1    2  501    0  0.16097460110E+02 -0.13266341760E+03  0.64475499382E+02  0.22715589495E+03  0.17200000000E+03 0. -1.
         -6    1    1    2    0  503 -0.16097460110E+02  0.13266341760E+03 -0.15822882611E+03  0.26921937524E+03  0.17200000000E+03 0.  1.
</event>
<event>
 4    1  0.4487206E+000  0.2020517E+03  0.7818608E-02  0.1148019E+00
         21   -1    0    0  503  502  0.00000000000E+00  0.00000000000E+00  0.21319658426E+04  0.21319658426E+04  0.00000000000E+00 0. -1.
         21   -1    0    0  501  503 -0.00000000000E+00 -0.00000000000E+00 -0.57561808522E+02  0.57561808522E+02  0.00000000000E+00 0. -1.
          6    1    1    2  501    0 -0.92465426467E+02 -0.51875366742E+02  0.14288492127E+03  0.24746920918E+03  0.17200000000E+03 0. -1.
         -6    1    1    2    0  502  0.92465426467E+02  0.51875366742E+02  0.19315191128E+04  0.19420584420E+04  0.17200000000E+03 0. -1.
</event>
<event>
 4    1  0.4487206E+000  0.2426625E+03  0.7818608E-02  0.1118032E+00
         21   -1    0    0  503  502  0.00000000000E+00  0.00000000000E+00  0.69404112219E+02  0.69404112219E+02  0.00000000000E+00 0. -1.
         21   -1    0    0  501  503 -0.00000000000E+00 -0.00000000000E+00 -0.14272265598E+04  0.14272265598E+04  0.00000000000E+00 0. -1.
          6    1    1    2  501    0 -0.12843096737E+03  0.11316615830E+03 -0.11554498624E+04  0.11806563756E+04  0.17200000000E+03 0. -1.
         -6    1    1    2    0  502  0.12843096737E+03 -0.11316615830E+03 -0.20237258523E+03  0.31597429645E+03  0.17200000000E+03 0. -1.
</event>
<event>
 4    1  0.4487206E+000  0.2136963E+03  0.7818608E-02  0.1138672E+00
         21   -1    0    0  503  502  0.00000000000E+00  0.00000000000E+00  0.19490896173E+03  0.19490896173E+03  0.00000000000E+00 0. -1.
         21   -1    0    0  501  503 -0.00000000000E+00 -0.00000000000E+00 -0.35841281942E+03  0.35841281942E+03  0.00000000000E+00 0.  1.
          6    1    1    2  501    0 -0.48115692623E+02  0.11733279252E+03 -0.24455923468E+03  0.32476964658E+03  0.17200000000E+03 0.  1.
         -6    1    1    2    0  502  0.48115692623E+02 -0.11733279252E+03  0.81055376991E+02  0.22855213457E+03  0.17200000000E+03 0. -1.
</event>
<event>
 4    1  0.4487206E+000  0.2111522E+03  0.7818608E-02  0.1140657E+00
         21   -1    0    0  503  502  0.00000000000E+00  0.00000000000E+00  0.51878153812E+03  0.51878153812E+03  0.00000000000E+00 0.  1.
         21   -1    0    0  501  503 -0.00000000000E+00 -0.00000000000E+00 -0.39446259849E+03  0.39446259849E+03  0.00000000000E+00 0. -1.
          6    1    1    2  501    0 -0.12595889706E+02 -0.12183024324E+03 -0.34166801278E+03  0.40164946852E+03  0.17200000000E+03 0. -1.
         -6    1    1    2    0  502  0.12595889706E+02  0.12183024324E+03  0.46598695241E+03  0.51159466809E+03  0.17200000000E+03 0.  1.
</event>
<event>
 4    1  0.4487206E+000  0.1953580E+03  0.7818608E-02  0.1153716E+00
         21   -1    0    0  503  502  0.00000000000E+00  0.00000000000E+00  0.11443670836E+03  0.11443670836E+03  0.00000000000E+00 0.  1.
         21   -1    0    0  501  503 -0.00000000000E+00 -0.00000000000E+00 -0.35676541822E+03  0.35676541822E+03  0.00000000000E+00 0.  1.
          6    1    1    2  501    0 -0.29740918674E+02 -0.87728161021E+02 -0.61000963310E+02  0.20466037722E+03  0.17200000000E+03 0.  1.
         -6    1    1    2    0  502  0.29740918674E+02  0.87728161021E+02 -0.18132774655E+03  0.26654174935E+03  0.17200000000E+03 0.  1.
</event>
<event>
 4    1  0.4487206E+000  0.1928750E+03  0.7818608E-02  0.1155894E+00
         21   -1    0    0  501  502  0.00000000000E+00  0.00000000000E+00  0.49800408275E+02  0.49800408275E+02  0.00000000000E+00 0. -1.
         21   -1    0    0  502  503 -0.00000000000E+00 -0.00000000000E+00 -0.75981100288E+03  0.75981100288E+03  0.00000000000E+00 0. -1.
          6    1    1    2  501    0 -0.84211061258E+02  0.22918383688E+02 -0.40757510535E+03  0.45090821866E+03  0.17200000000E+03 0. -1.
         -6    1    1    2    0  503  0.84211061258E+02 -0.22918383688E+02 -0.30243548925E+03  0.35870319250E+03  0.17200000000E+03 0. -1.
</event>
<event>
 4    1  0.4487206E+000  0.2787922E+03  0.7818608E-02  0.1096350E+00
         21   -1    0    0  503  502  0.00000000000E+00  0.00000000000E+00  0.43744537194E+03  0.43744537194E+03  0.00000000000E+00 0. -1.
         21   -1    0    0  501  503 -0.00000000000E+00 -0.00000000000E+00 -0.60299684846E+03  0.60299684846E+03  0.00000000000E+00 0.  1.
          6    1    1    2  501    0  0.21887344846E+03  0.15345415981E+02 -0.51968073047E+03  0.58973988322E+03  0.17200000000E+03 0.  1.
         -6    1    1    2    0  502 -0.21887344846E+03 -0.15345415981E+02  0.35412925395E+03  0.45070233718E+03  0.17200000000E+03 0. -1.
</event>
<event>
 4    1  0.4487206E+000  0.1779720E+03  0.7818608E-02  0.1169780E+00
         21   -1    0    0  503  502  0.00000000000E+00  0.00000000000E+00  0.88060960924E+03  0.88060960924E+03  0.00000000000E+00 0. -1.
         21   -1    0    0  501  503 -0.00000000000E+00 -0.00000000000E+00 -0.41438121135E+02  0.41438121135E+02  0.00000000000E+00 0. -1.
          6    1    1    2  501    0 -0.43847868881E+02  0.12937575494E+02  0.25208737611E+03  0.30858072147E+03  0.17200000000E+03 0. -1.
         -6    1    1    2    0  502  0.43847868881E+02 -0.12937575494E+02  0.58708411199E+03  0.61346700891E+03  0.17200000000E+03 0. -1.
</event>
<event>
 4    1  0.4487206E+000  0.1761842E+03  0.7818608E-02  0.1171548E+00
         21   -1    0    0  501  502  0.00000000000E+00  0.00000000000E+00  0.64299680645E+02  0.64299680645E+02  0.00000000000E+00 0.  1.
         21   -1    0    0  502  503 -0.00000000000E+00 -0.00000000000E+00 -0.57313925613E+03  0.57313925613E+03  0.00000000000E+00 0. -1.
          6    1    1    2  501    0 -0.20067706605E+02  0.32467721001E+02 -0.12785012064E+03  0.21768444847E+03  0.17200000000E+03 0.  1.
         -6    1    1    2    0  503  0.20067706605E+02 -0.32467721001E+02 -0.38098945485E+03  0.41975448831E+03  0.17200000000E+03 0. -1.
</event>
<event>
 4    1  0.4487206E+000  0.1931184E+03  0.7818608E-02  0.1155678E+00
         21   -1    0    0  501  502  0.00000000000E+00  0.00000000000E+00  0.11222475997E+04  0.11222475997E+04  0.00000000000E+00 0.  1.
         21   -1    0    0  502  503 -0.00000000000E+00 -0.00000000000E+00 -0.59914472825E+02  0.59914472825E+02  0.00000000000E+00 0. -1.
          6    1    1    2  501    0 -0.79651564604E+02  0.36963944491E+02  0.92561745352E+03  0.94554871646E+03  0.17200000000E+03 0.  1.
         -6    1    1    2    0  503  0.79651564604E+02 -0.36963944491E+02  0.13671567340E+03  0.23661335611E+03  0.17200000000E+03 0. -1.
</event>
<event>
 4    1  0.4487206E+000  0.1910071E+03  0.7818608E-02  0.1157556E+00
         21   -1    0    0  503  502  0.00000000000E+00  0.00000000000E+00  0.92837916795E+02  0.92837916795E+02  0.00000000000E+00 0.  1.
         21   -1    0    0  501  503 -0.00000000000E+00 -0.00000000000E+00 -0.42616872748E+03  0.42616872748E+03  0.00000000000E+00 0.  1.
          6    1    1    2  501    0  0.33047642169E+02  0.76207487443E+02 -0.23908022782E+03  0.30601157352E+03  0.17200000000E+03 0.  1.
         -6    1    1    2    0  502 -0.33047642169E+02 -0.76207487443E+02 -0.94250582869E+02  0.21299507076E+03  0.17200000000E+03 0.  1.
</event>
<event>
 4    1  0.4487206E+000  0.1797430E+03  0.7818608E-02  0.1168052E+00
         21   -1    0    0  503  502  0.00000000000E+00  0.00000000000E+00  0.67004139187E+03  0.67004139187E+03  0.00000000000E+00 0.  1.
         21   -1    0    0  501  503 -0.00000000000E+00 -0.00000000000E+00 -0.83496132581E+02  0.83496132581E+02  0.00000000000E+00 0. -1.
          6    1    1    2  501    0 -0.49587317505E+02  0.16268126853E+02  0.48366806036E+02  0.18613678286E+03  0.17200000000E+03 0. -1.
         -6    1    1    2    0  502  0.49587317505E+02 -0.16268126853E+02  0.53817845326E+03  0.56740074159E+03  0.17200000000E+03 0.  1.
</event>
<event>
 4    1  0.4487206E+000  0.1778921E+03  0.7818608E-02  0.1169859E+00
         21   -1    0    0  501  502  0.00000000000E+00  0.00000000000E+00  0.13970334682E+03  0.13970334682E+03  0.00000000000E+00 0. -1.
         21   -1    0    0  502  503 -0.00000000000E+00 -0.00000000000E+00 -0.35285214523E+03  0.35285214523E+03  0.00000000000E+00 0. -1.
          6    1    1    2  501    0 -0.34530547279E+02  0.29482942382E+02  0.40787672622E+02  0.18250818290E+03  0.17200000000E+03 0. -1.
         -6    1    1    2    0  503  0.34530547279E+02 -0.29482942382E+02 -0.25393647103E+03  0.31004730914E+03  0.17200000000E+03 0. -1.
</event>
<event>
 4    1  0.4487206E+000  0.1896245E+03  0.7818608E-02  0.1158800E+00
         21   -1    0    0  501  502  0.00000000000E+00  0.00000000000E+00  0.11538759275E+03  0.11538759275E+03  0.00000000000E+00 0. -1.
         21   -1    0    0  502  503 -0.00000000000E+00 -0.00000000000E+00 -0.59614960921E+03  0.59614960921E+03  0.00000000000E+00 0. -1.
          6    1    1    2  501    0 -0.90477661498E+01 -0.79319451548E+02  0.54017221652E+01  0.18970138658E+03  0.17200000000E+03 0. -1.
         -6    1    1    2    0  503  0.90477661498E+01  0.79319451548E+02 -0.48616373863E+03  0.52183581539E+03  0.17200000000E+03 0. -1.
</event>
<event>
 4    1  0.4487206E+000  0.2767279E+03  0.7818608E-02  0.1097490E+00
         21   -1    0    0  501  502  0.00000000000E+00  0.00000000000E+00  0.36036993764E+03  0.36036993764E+03  0.00000000000E+00 0.  1.
         21   -1    0    0  502  503 -0.00000000000E+00 -0.00000000000E+00 -0.21252404475E+03  0.21252404475E+03  0.00000000000E+00 0.  1.
          6    1    1    2  501    0  0.46947866476E+02 -0.21163704433E+03  0.70828814640E+02  0.28564849323E+03  0.17200000000E+03 0.  1.
         -6    1    1    2    0  503 -0.46947866476E+02  0.21163704433E+03  0.77017078242E+02  0.28724548916E+03  0.17200000000E+03 0.  1.
</event>
<event>
 4    1  0.4487206E+000  0.1798216E+03  0.7818608E-02  0.1167976E+00
         21   -1    0    0  503  502  0.00000000000E+00  0.00000000000E+00  0.19374138766E+03  0.19374138766E+03  0.00000000000E+00 0. -1.
         21   -1    0    0  501  503 -0.00000000000E+00 -0.00000000000E+00 -0.26339710843E+03  0.26339710843E+03  0.00000000000E+00 0. -1.
          6    1    1    2  501    0 -0.45783029529E+02  0.25607012316E+02 -0.17317340649E+03  0.24964942136E+03  0.17200000000E+03 0. -1.
         -6    1    1    2    0  502  0.45783029529E+02 -0.25607012316E+02  0.10351768572E+03  0.20748907472E+03  0.17200000000E+03 0. -1.
</event>
<event>
 4    1  0.4487206E+000  0.1753391E+03  0.7818608E-02  0.1172392E+00
         21   -1    0    0  501  502  0.00000000000E+00  0.00000000000E+00  0.52828639780E+03  0.52828639780E+03  0.00000000000E+00 0. -1.
         21   -1    0    0  502  503 -0.00000000000E+00 -0.00000000000E+00 -0.85239562307E+02  0.85239562307E+02  0.00000000000E+00 0.  1.
          6    1    1    2  501    0  0.30808152757E+02 -0.14514310408E+02  0.39431380454E+03  0.43154047775E+03  0.17200000000E+03 0. -1.
         -6    1    1    2    0  503 -0.30808152757E+02  0.14514310408E+02  0.48733030948E+02  0.18198548236E+03  0.17200000000E+03 0.  1.
</event>
<event>
 4    1  0.4487206E+000  0.2026648E+03  0.7818608E-02  0.1147510E+00
         21   -1    0    0  503  502  0.00000000000E+00  0.00000000000E+00  0.14479152164E+03  0.14479152164E+03  0.00000000000E+00 0.  1.
         21   -1    0    0  501  503 -0.00000000000E+00 -0.00000000000E+00 -0.36103456922E+03  0.36103456922E+03  0.00000000000E+00 0.  1.
          6    1    1    2  501    0 -0.10167528047E+03 -0.33928999935E+02 -0.22519737815E+03  0.30296352721E+03  0.17200000000E+03 0.  1.
         -6    1    1    2    0  502  0.10167528047E+03  0.33928999935E+02  0.89543305790E+01  0.20286256365E+03  0.17200000000E+03 0.  1.
</event>
<event>
 4    1  0.4487206E+000  0.2614352E+03  0.7818608E-02  0.1106284E+00
         21   -1    0    0  501  502  0.00000000000E+00  0.00000000000E+00  0.13402900243E+04  0.13402900243E+04  0.00000000000E+00 0.  1.
         21   -1    0    0  502  503 -0.00000000000E+00 -0.00000000000E+00 -0.52963353347E+02  0.52963353347E+02  0.00000000000E+00 0. -1.
          6    1    1    2  501    0 -0.84188753382E+01 -0.19670658916E+03  0.77795272127E+03  0.82070627889E+03  0.17200000000E+03 0.  1.
         -6    1    1    2    0  503  0.84188753382E+01  0.19670658916E+03  0.50937394973E+03  0.57254709880E+03  0.17200000000E+03 0. -1.
</event>
<event>
 4    1  0.4487206E+000  0.2151368E+03  0.7818608E-02  0.1137562E+00
         21   -1    0    0  503  502  0.00000000000E+00  0.00000000000E+00  0.24371304918E+04  0.24371304918E+04  0.00000000000E+00 0.  1.
         21   -1    0    0  501  503 -0.00000000000E+00 -0.00000000000E+00 -0.23282315192E+02  0.23282315192E+02  0.00000000000E+00 0. -1.
          6    1    1    2  501    0 -0.28933702754E+02 -0.12594716747E+03  0.67877830422E+03  0.71205606130E+03  0.17200000000E+03 0. -1.
         -6    1    1    2    0  502  0.28933702754E+02  0.12594716747E+03  0.17350698724E+04  0.17483567457E+04  0.17200000000E+03 0. -1.
</event>
<event>
 4    1  0.4487206E+000  0.1804097E+03  0.7818608E-02  0.1167407E+00
         21   -1    0    0  501  502  0.00000000000E+00  0.00000000000E+00  0.10965226501E+03  0.10965226501E+03  0.00000000000E+00 0. -1.
         21   -1    0    0  502  503 -0.00000000000E+00 -0.00000000000E+00 -0.49295630029E+03  0.49295630029E+03  0.00000000000E+00 0. -1.
          6    1    1    2  501    0  0.54003997325E+02 -0.68723810599E+01 -0.15996617913E+01  0.18041679597E+03  0.17200000000E+03 0. -1.
         -6    1    1    2    0  503 -0.54003997325E+02  0.68723810599E+01 -0.38170437349E+03  0.42219176933E+03  0.17200000000E+03 0. -1.
</event>
<event>
 4    1  0.4487206E+000  0.2443512E+03  0.7818608E-02  0.1116928E+00
         21   -1    0    0  501  502  0.00000000000E+00  0.00000000000E+00  0.46653177540E+03  0.46653177540E+03  0.00000000000E+00 0.  1.
         21   -1    0    0  502  503 -0.00000000000E+00 -0.00000000000E+00 -0.21712092305E+03  0.21712092305E+03  0.00000000000E+00 0.  1.
          6    1    1    2  501    0  0.10354352304E+03 -0.13929193366E+03  0.34372819007E+03  0.42173045017E+03  0.17200000000E+03 0.  1.
         -6    1    1    2    0  503 -0.10354352304E+03  0.13929193366E+03 -0.94317337721E+02  0.26192224828E+03  0.17200000000E+03 0.  1.
</event>
<event>
 4    1  0.4487206E+000  0.1800850E+03  0.7818608E-02  0.1167721E+00
         21   -1    0    0  503  502  0.00000000000E+00  0.00000000000E+00  0.93899730736E+02  0.93899730736E+02  0.00000000000E+00 0.  1.
         21   -1    0    0  501  503 -0.00000000000E+00 -0.00000000000E+00 -0.34539806059E+03  0.34539806059E+03  0.00000000000E+00 0.  1.
          6    1    1    2  501    0  0.19197943365E+02  0.49780038085E+02 -0.12754651780E+03  0.22067788159E+03  0.17200000000E+03 0.  1.
         -6    1    1    2    0  502 -0.19197943365E+02 -0.49780038085E+02 -0.12395181205E+03  0.21861990973E+03  0.17200000000E+03 0.  1.
</event>
<event>
 4    1  0.4487206E+000  0.2331891E+03  0.7818608E-02  0.1124415E+00
         21   -1    0    0  503  502  0.00000000000E+00  0.00000000000E+00  0.90321422556E+02  0.90321422556E+02  0.00000000000E+00 0.  1.
         21   -1    0    0  501  503 -0.00000000000E+00 -0.00000000000E+00 -0.93640448979E+03  0.93640448979E+03  0.00000000000E+00 0. -1.
          6    1    1    2  501    0  0.12004788840E+03 -0.10189043702E+03 -0.72980420887E+03  0.76615360076E+03  0.17200000000E+03 0. -1.
         -6    1    1    2    0  502 -0.12004788840E+03  0.10189043702E+03 -0.11627885836E+03  0.26057231159E+03  0.17200000000E+03 0.  1.
</event>
<event>
 4    1  0.4487206E+000  0.2211179E+03  0.7818608E-02  0.1133052E+00
         21   -1    0    0  503  502  0.00000000000E+00  0.00000000000E+00  0.16510345791E+04  0.16510345791E+04  0.00000000000E+00 0. -1.
         21   -1    0    0  501  503 -0.00000000000E+00 -0.00000000000E+00 -0.32371331168E+02  0.32371331168E+02  0.00000000000E+00 0. -1.
          6    1    1    2  501    0 -0.11883115971E+03 -0.72029776304E+02  0.56366175984E+03  0.60548138922E+03  0.17200000000E+03 0. -1.
         -6    1    1    2    0  502  0.11883115971E+03  0.72029776304E+02  0.10550014881E+04  0.10779245211E+04  0.17200000000E+03 0. -1.
</event>
<event>
 4    1  0.4487206E+000  0.4296351E+03  0.7818608E-02  0.1033975E+00
         21   -1    0    0  501  502  0.00000000000E+00  0.00000000000E+00  0.81454854273E+02  0.81454854273E+02  0.00000000000E+00 0.  1.
         21   -1    0    0  502  503 -0.00000000000E+00 -0.00000000000E+00 -0.35315819714E+04  0.35315819714E+04  0.00000000000E+00 0.  1.
          6    1    1    2  501    0 -0.37381528040E+03 -0.12354927436E+03 -0.64367270789E+03  0.77388684052E+03  0.17200000000E+03 0.  1.
         -6    1    1    2    0  503  0.37381528040E+03  0.12354927436E+03 -0.28064544092E+04  0.28391499851E+04  0.17200000000E+03 0.  1.
</event>
<event>
 4    1  0.4487206E+000  0.1927696E+03  0.7818608E-02  0.1155987E+00
         21   -1    0    0  503  502  0.00000000000E+00  0.00000000000E+00  0.17345527788E+03  0.17345527788E+03  0.00000000000E+00 0.  1.
         21   -1    0    0  501  503 -0.00000000000E+00 -0.00000000000E+00 -0.22290127145E+03  0.22290127145E+03  0.00000000000E+00 0.  1.
          6    1    1    2  501    0  0.28666383514E+02 -0.82184995847E+02 -0.63800252525E+02  0.20305321300E+03  0.17200000000E+03 0.  1.
         -6    1    1    2    0  502 -0.28666383514E+02  0.82184995847E+02  0.14354258949E+02  0.19330333633E+03  0.17200000000E+03 0.  1.
</event>
<event>
 4    1  0.4487206E+000  0.1961311E+03  0.7818608E-02  0.1153045E+00
         21   -1    0    0  503  502  0.00000000000E+00  0.00000000000E+00  0.10514117513E+04  0.10514117513E+04  0.00000000000E+00 0.  1.
         21   -1    0    0  501  503 -0.00000000000E+00 -0.00000000000E+00 -0.14917476385E+03  0.14917476385E+03  0.00000000000E+00 0.  1.
          6    1    1    2  501    0 -0.96611293695E+01 -0.93755284831E+02 -0.70391341554E+02  0.20838025775E+03  0.17200000000E+03 0.  1.
         -6    1    1    2    0  502  0.96611293695E+01  0.93755284831E+02  0.97262832900E+03  0.99220625741E+03  0.17200000000E+03 0.  1.
</event>
<event>
 4    1  0.4487206E+000  0.2463182E+03  0.7818608E-02  0.1115654E+00
         21   -1    0    0  503  502  0.00000000000E+00  0.00000000000E+00  0.16169130564E+03  0.16169130564E+03  0.00000000000E+00 0. -1.
         21   -1    0    0  501  503 -0.00000000000E+00 -0.00000000000E+00 -0.39313307739E+03  0.39313307739E+03  0.00000000000E+00 0. -1.
          6    1    1    2  501    0 -0.16606628617E+03 -0.59250680822E+02 -0.17490806083E+03  0.30210177808E+03  0.17200000000E+03 0. -1.
         -6    1    1    2    0  502  0.16606628617E+03  0.59250680822E+02 -0.56533710919E+02  0.25272260495E+03  0.17200000000E+03 0. -1.
</event>
<event>
 4    1  0.4487206E+000  0.2189469E+03  0.7818608E-02  0.1134671E+00
         21   -1    0    0  501  502  0.00000000000E+00  0.00000000000E+00  0.17126448866E+03  0.17126448866E+03  0.00000000000E+00 0. -1.
         21   -1    0    0  502  503 -0.00000000000E+00 -0.00000000000E+00 -0.47887782888E+03  0.47887782888E+03  0.00000000000E+00 0.  1.
          6    1    1    2  501    0  0.13329525236E+03  0.24210148348E+02  0.55731506142E+02  0.22592865326E+03  0.17200000000E+03 0. -1.
         -6    1    1    2    0  503 -0.13329525236E+03 -0.24210148348E+02 -0.36334484636E+03  0.42421366428E+03  0.17200000000E+03 0.  1.
</event>
<event>
 4    1  0.4487206E+000  0.2394435E+03  0.7818608E-02  0.1120164E+00
         21   -1    0    0  503  502  0.00000000000E+00  0.00000000000E+00  0.21310465544E+03  0.21310465544E+03  0.00000000000E+00 0. -1.
         21   -1    0    0  501  503 -0.00000000000E+00 -0.00000000000E+00 -0.26973412479E+03  0.26973412479E+03  0.00000000000E+00 0. -1.
          6    1    1    2  501    0  0.16654333452E+03 -0.35385533285E+01 -0.40581104032E+02  0.24285804421E+03  0.17200000000E+03 0. -1.
         -6    1    1    2    0  502 -0.16654333452E+03  0.35385533285E+01 -0.16048365317E+02  0.23998073602E+03  0.17200000000E+03 0. -1.
</event>
<event>
 4    1  0.4487206E+000  0.1870834E+03  0.7818608E-02  0.1161118E+00
         21   -1    0    0  501  502  0.00000000000E+00  0.00000000000E+00  0.64049914319E+02  0.64049914319E+02  0.00000000000E+00 0. -1.
         21   -1    0    0  502  503 -0.00000000000E+00 -0.00000000000E+00 -0.59320781664E+03  0.59320781664E+03  0.00000000000E+00 0. -1.
          6    1    1    2  501    0 -0.60681897121E+02  0.41640309733E+02 -0.17231760437E+03  0.25434929685E+03  0.17200000000E+03 0. -1.
         -6    1    1    2    0  503  0.60681897121E+02 -0.41640309733E+02 -0.35684029795E+03  0.40290843410E+03  0.17200000000E+03 0. -1.
</event>
<event>
 4    1  0.4487206E+000  0.1817470E+03  0.7818608E-02  0.1166123E+00
         21   -1    0    0  503  502  0.00000000000E+00  0.00000000000E+00  0.11606296439E+04  0.11606296439E+04  0.00000000000E+00 0. -1.
         21   -1    0    0  501  503 -0.00000000000E+00 -0.00000000000E+00 -0.37156940030E+02  0.37156940030E+02  0.00000000000E+00 0. -1.
          6    1    1    2  501    0  0.57489138787E+02 -0.11956562088E+02  0.27199983640E+03  0.32713280400E+03  0.17200000000E+03 0. -1.
         -6    1    1    2    0  502 -0.57489138787E+02  0.11956562088E+02  0.85147286745E+03  0.87065377990E+03  0.17200000000E+03 0. -1.
</event>
<event>
 4    1  0.4487206E+000  0.2089464E+03  0.7818608E-02  0.1142403E+00
         21   -1    0    0  501  502  0.00000000000E+00  0.00000000000E+00  0.25746064165E+03  0.25746064165E+03  0.00000000000E+00 0.  1.
         21   -1    0    0  502  503 -0.00000000000E+00 -0.00000000000E+00 -0.17076530471E+03  0.17076530471E+03  0.00000000000E+00 0.  1.
          6    1    1    2  501    0 -0.89424859103E+02 -0.77960109481E+02  0.25462720185E+02  0.21049212388E+03  0.17200000000E+03 0.  1.
         -6    1    1    2    0  503  0.89424859103E+02  0.77960109481E+02  0.61232616762E+02  0.21773382248E+03  0.17200000000E+03 0.  1.
</event>
<event>
 4    1  0.4487206E+000  0.2107201E+03  0.7818608E-02  0.1140997E+00
         21   -1    0    0  503  502  0.00000000000E+00  0.00000000000E+00  0.14466114811E+03  0.14466114811E+03  0.00000000000E+00 0. -1.
         21   -1    0    0  501  503 -0.00000000000E+00 -0.00000000000E+00 -0.12503790401E+04  0.12503790401E+04  0.00000000000E+00 0. -1.
          6    1    1    2  501    0 -0.11250609549E+03 -0.46490283263E+02 -0.11587460772E+04  0.11777501600E+04  0.17200000000E+03 0. -1.
         -6    1    1    2    0  502  0.11250609549E+03  0.46490283263E+02  0.53028185160E+02  0.21729002826E+03  0.17200000000E+03 0. -1.
</event>
<event>
 4    1  0.4487206E+000  0.1744193E+03  0.7818608E-02  0.1173316E+00
         21   -1    0    0  503  502  0.00000000000E+00  0.00000000000E+00  0.88446261584E+02  0.88446261584E+02  0.00000000000E+00 0. -1.
         21   -1    0    0  501  503 -0.00000000000E+00 -0.00000000000E+00 -0.58265714384E+03  0.58265714384E+03  0.00000000000E+00 0. -1.
          6    1    1    2  501    0 -0.92697988607E+01  0.27425344619E+02 -0.46187635515E+03  0.49371231112E+03  0.17200000000E+03 0. -1.
         -6    1    1    2    0  502  0.92697988607E+01 -0.27425344619E+02 -0.32334527109E+02  0.17739109431E+03  0.17200000000E+03 0. -1.
</event>
<event>
 4    1  0.4487206E+000  0.2801916E+03  0.7818608E-02  0.1095584E+00
         21   -1    0    0  501  502  0.00000000000E+00  0.00000000000E+00  0.92575483276E+03  0.92575483276E+03  0.00000000000E+00 0. -1.
         21   -1    0    0  502  503 -0.00000000000E+00 -0.00000000000E+00 -0.13654845630E+03  0.13654845630E+03  0.00000000000E+00 0.  1.
          6    1    1    2  501    0  0.20377681507E+03  0.86013573620E+02  0.72157386352E+03  0.77406470383E+03  0.17200000000E+03 0. -1.
         -6    1    1    2    0  503 -0.20377681507E+03 -0.86013573620E+02  0.67632512950E+02  0.28823858523E+03  0.17200000000E+03 0.  1.
</event>
<event>
 4    1  0.4487206E+000  0.1802746E+03  0.7818608E-02  0.1167538E+00
         21   -1    0    0  501  502  0.00000000000E+00  0.00000000000E+00  0.18245966589E+03  0.18245966589E+03  0.00000000000E+00 0.  1.
         21   -1    0    0  502  503 -0.00000000000E+00 -0.00000000000E+00 -0.44823963810E+03  0.44823963810E+03  0.00000000000E+00 0.  1.
          6    1    1    2  501    0  0.40067804756E+02  0.36187244572E+02  0.11191412054E+03  0.21218792620E+03  0.17200000000E+03 0.  1.
         -6    1    1    2    0  503 -0.40067804756E+02 -0.36187244572E+02 -0.37769409275E+03  0.41851137780E+03  0.17200000000E+03 0.  1.
</event>
<event>
 4    1  0.4487206E+000  0.1956918E+03  0.7818608E-02  0.1153426E+00
         21   -1    0    0  501  502  0.00000000000E+00  0.00000000000E+00  0.34098355203E+03  0.34098355203E+03  0.00000000000E+00 0. -1.
         21   -1    0    0  502  503 -0.00000000000E+00 -0.00000000000E+00 -0.27907277863E+03  0.27907277863E+03  0.00000000000E+00 0. -1.
          6    1    1    2  501    0 -0.93326120382E+02  0.12302461376E+01  0.27061464194E+03  0.33395742645E+03  0.17200000000E+03 0. -1.
         -6    1    1    2    0  503  0.93326120382E+02 -0.12302461376E+01 -0.20870386853E+03  0.28609890421E+03  0.17200000000E+03 0. -1.
</event>
<event>
 4    1  0.4487206E+000  0.2124401E+03  0.7818608E-02  0.1139648E+00
         21   -1    0    0  503  502  0.00000000000E+00  0.00000000000E+00  0.13067981759E+04  0.13067981759E+04  0.00000000000E+00 0.  1.
         21   -1    0    0  501  503 -0.00000000000E+00 -0.00000000000E+00 -0.60139648131E+02  0.60139648131E+02  0.00000000000E+00 0.  1.
          6    1    1    2  501    0  0.12329636061E+03 -0.18569044553E+02  0.17737090355E+03  0.27675122291E+03  0.17200000000E+03 0.  1.
         -6    1    1    2    0  502 -0.12329636061E+03  0.18569044553E+02  0.10692876242E+04  0.10901866011E+04  0.17200000000E+03 0.  1.
</event>
<event>
 4    1  0.4487206E+000  0.1791415E+03  0.7818608E-02  0.1168637E+00
         21   -1    0    0  503  502  0.00000000000E+00  0.00000000000E+00  0.25427860153E+03  0.25427860153E+03  0.00000000000E+00 0.  1.
         21   -1    0    0  501  503 -0.00000000000E+00 -0.00000000000E+00 -0.16153180026E+03  0.16153180026E+03  0.00000000000E+00 0.  1.
          6    1    1    2  501    0  0.30292863127E+02 -0.39874988811E+02 -0.50851569481E+02  0.18621910323E+03  0.17200000000E+03 0.  1.
         -6    1    1    2    0  502 -0.30292863127E+02  0.39874988811E+02  0.14359837075E+03  0.22959129855E+03  0.17200000000E+03 0.  1.
</event>
<event>
 4    1  0.4487206E+000  0.1929320E+03  0.7818608E-02  0.1155843E+00
         21   -1    0    0  501  502  0.00000000000E+00  0.00000000000E+00  0.25444174378E+03  0.25444174378E+03  0.00000000000E+00 0.  1.
         21   -1    0    0  502  503 -0.00000000000E+00 -0.00000000000E+00 -0.15676803363E+03  0.15676803363E+03  0.00000000000E+00 0.  1.
          6    1    1    2  501    0 -0.26534568212E+02 -0.83274729817E+02  0.10198711287E+03  0.21822954687E+03  0.17200000000E+03 0. -1.
         -6    1    1    2    0  503  0.26534568212E+02  0.83274729817E+02 -0.43134027111E+01  0.19298023054E+03  0.17200000000E+03 0. -1.
</event>
<event>
 4    1  0.4487206E+000  0.3081042E+03  0.7818608E-02  0.1081258E+00
         21   -1    0    0  503  502  0.00000000000E+00  0.00000000000E+00  0.35448715570E+03  0.35448715570E+03  0.00000000000E+00 0. -1.
         21   -1    0    0  501  503 -0.00000000000E+00 -0.00000000000E+00 -0.47983738467E+03  0.47983738467E+03  0.00000000000E+00 0.  1.
          6    1    1    2  501    0  0.15393507705E+03 -0.20407880968E+03 -0.33999070650E+03  0.45882660016E+03  0.17200000000E+03 0.  1.
         -6    1    1    2    0  502 -0.15393507705E+03  0.20407880968E+03  0.21464047754E+03  0.37549794021E+03  0.17200000000E+03 0. -1.
</event>
<event>
 4    1  0.4487206E+000  0.1741631E+03  0.7818608E-02  0.1173575E+00
         21   -1    0    0  501  502  0.00000000000E+00  0.00000000000E+00  0.53814648779E+03  0.53814648779E+03  0.00000000000E+00 0.  1.
         21   -1    0    0  502  503 -0.00000000000E+00 -0.00000000000E+00 -0.96984015902E+02  0.96984015902E+02  0.00000000000E+00 0.  1.
          6    1    1    2  501    0 -0.27361711275E+02 -0.34434804355E+00  0.42609743181E+03  0.46031706813E+03  0.17200000000E+03 0.  1.
         -6    1    1    2    0  503  0.27361711275E+02  0.34434804355E+00  0.15065040078E+02  0.17481343556E+03  0.17200000000E+03 0.  1.
</event>
<event>
 4    1  0.4487206E+000  0.2807631E+03  0.7818608E-02  0.1095273E+00
         21   -1    0    0  503  502  0.00000000000E+00  0.00000000000E+00  0.16469895359E+03  0.16469895359E+03  0.00000000000E+00 0.  1.
         21   -1    0    0  501  503 -0.00000000000E+00 -0.00000000000E+00 -0.48254082160E+03  0.48254082160E+03  0.00000000000E+00 0.  1.
          6    1    1    2  501    0  0.75279502262E+01  0.22178195532E+03 -0.12974262843E+03  0.30929121451E+03  0.17200000000E+03 0.  1.
         -6    1    1    2    0  502 -0.75279502262E+01 -0.22178195532E+03 -0.18809923958E+03  0.33794856069E+03  0.17200000000E+03 0.  1.
</event>
<event>
 4    1  0.4487206E+000  0.1726873E+03  0.7818608E-02  0.1175074E+00
         21   -1    0    0  503  502  0.00000000000E+00  0.00000000000E+00  0.19768746224E+03  0.19768746224E+03  0.00000000000E+00 0.  1.
         21   -1    0    0  501  503 -0.00000000000E+00 -0.00000000000E+00 -0.37265433128E+03  0.37265433128E+03  0.00000000000E+00 0.  1.
          6    1    1    2  501    0  0.97214302343E+01 -0.11932636264E+02 -0.30749140353E+03  0.35266394380E+03  0.17200000000E+03 0.  1.
         -6    1    1    2    0  502 -0.97214302343E+01  0.11932636264E+02  0.13252453450E+03  0.21767784972E+03  0.17200000000E+03 0.  1.
</event>
<event>
 4    1  0.4487206E+000  0.2170226E+03  0.7818608E-02  0.1136122E+00
         21   -1    0    0  501  502  0.00000000000E+00  0.00000000000E+00  0.75903389614E+02  0.75903389614E+02  0.00000000000E+00 0.  1.
         21   -1    0    0  502  503 -0.00000000000E+00 -0.00000000000E+00 -0.63017570629E+03  0.63017570629E+03  0.00000000000E+00 0. -1.
          6    1    1    2  501    0 -0.12536705749E+03 -0.42401936439E+02 -0.32085876668E+03  0.38736180952E+03  0.17200000000E+03 0. -1.
         -6    1    1    2    0  503  0.12536705749E+03  0.42401936439E+02 -0.23341355000E+03  0.31871728639E+03  0.17200000000E+03 0. -1.
</event>
<event>
 4    1  0.4487206E+000  0.1865929E+03  0.7818608E-02  0.1161571E+00
         21   -1    0    0  503  502  0.00000000000E+00  0.00000000000E+00  0.14268386329E+03  0.14268386329E+03  0.00000000000E+00 0. -1.
         21   -1    0    0  501  503 -0.00000000000E+00 -0.00000000000E+00 -0.24497199033E+03  0.24497199033E+03  0.00000000000E+00 0. -1.
          6    1    1    2  501    0 -0.46908050875E+02 -0.55068431301E+02 -0.63263423347E+02  0.19702578028E+03  0.17200000000E+03 0. -1.
         -6    1    1    2    0  502  0.46908050875E+02  0.55068431301E+02 -0.39024703693E+02  0.19063007334E+03  0.17200000000E+03 0. -1.
</event>
<event>
 4    1  0.4487206E+000  0.1944367E+03  0.7818608E-02  0.1154519E+00
         21   -1    0    0  501  502  0.00000000000E+00  0.00000000000E+00  0.46551581500E+02  0.46551581500E+02  0.00000000000E+00 0. -1.
         21   -1    0    0  502  503 -0.00000000000E+00 -0.00000000000E+00 -0.82235241778E+03  0.82235241778E+03  0.00000000000E+00 0. -1.
          6    1    1    2  501    0  0.36084308672E+02 -0.83183866743E+02 -0.43635421173E+03  0.47771396370E+03  0.17200000000E+03 0. -1.
         -6    1    1    2    0  503 -0.36084308672E+02  0.83183866743E+02 -0.33944662455E+03  0.39119003558E+03  0.17200000000E+03 0. -1.
</event>
<event>
 4    1  0.4487206E+000  0.1866750E+03  0.7818608E-02  0.1161495E+00
         21   -1    0    0  503  502  0.00000000000E+00  0.00000000000E+00  0.10096107195E+03  0.10096107195E+03  0.00000000000E+00 0.  1.
         21   -1    0    0  501  503 -0.00000000000E+00 -0.00000000000E+00 -0.39031681156E+03  0.39031681156E+03  0.00000000000E+00 0.  1.
          6    1    1    2  501    0  0.37317028430E+01 -0.72454269092E+02 -0.22823021575E+03  0.29485009428E+03  0.17200000000E+03 0.  1.
         -6    1    1    2    0  502 -0.37317028430E+01  0.72454269092E+02 -0.61125523854E+02  0.19642778923E+03  0.17200000000E+03 0.  1.
</event>
<event>
 4    1  0.4487206E+000  0.2643850E+03  0.7818608E-02  0.1104537E+00
         21   -1    0    0  501  502  0.00000000000E+00  0.00000000000E+00  0.19815886808E+03  0.19815886808E+03  0.00000000000E+00 0. -1.
         21   -1    0    0  502  503 -0.00000000000E+00 -0.00000000000E+00 -0.35604355939E+03  0.35604355939E+03  0.00000000000E+00 0. -1.
          6    1    1    2  501    0 -0.95013716317E+02  0.17688368527E+03 -0.52268596245E+02  0.26950222737E+03  0.17200000000E+03 0. -1.
         -6    1    1    2    0  503  0.95013716317E+02 -0.17688368527E+03 -0.10561609507E+03  0.28470020010E+03  0.17200000000E+03 0. -1.
</event>
<event>
 4    1  0.4487206E+000  0.2801848E+03  0.7818608E-02  0.1095588E+00
         21   -1    0    0  503  502  0.00000000000E+00  0.00000000000E+00  0.32862520814E+03  0.32862520814E+03  0.00000000000E+00 0. -1.
         21   -1    0    0  501  503 -0.00000000000E+00 -0.00000000000E+00 -0.33347421569E+03  0.33347421569E+03  0.00000000000E+00 0.  1.
          6    1    1    2  501    0 -0.18632103344E+03  0.11918050829E+03  0.17388822926E+03  0.32975845301E+03  0.17200000000E+03 0. -1.
         -6    1    1    2    0  502  0.18632103344E+03 -0.11918050829E+03 -0.17873723682E+03  0.33234097082E+03  0.17200000000E+03 0.  1.
</event>
<event>
 4    1  0.4487206E+000  0.2123210E+03  0.7818608E-02  0.1139741E+00
         21   -1    0    0  503  502  0.00000000000E+00  0.00000000000E+00  0.27714488897E+03  0.27714488897E+03  0.00000000000E+00 0. -1.
         21   -1    0    0  501  503 -0.00000000000E+00 -0.00000000000E+00 -0.27001541786E+03  0.27001541786E+03  0.00000000000E+00 0.  1.
          6    1    1    2  501    0  0.65984346259E+02 -0.10555703418E+03 -0.16894098588E+03  0.27133241260E+03  0.17200000000E+03 0.  1.
         -6    1    1    2    0  502 -0.65984346259E+02  0.10555703418E+03  0.17607045698E+03  0.27582789424E+03  0.17200000000E+03 0. -1.
</event>
<event>
 4    1  0.4487206E+000  0.1781975E+03  0.7818608E-02  0.1169559E+00
         21   -1    0    0  503  502  0.00000000000E+00  0.00000000000E+00  0.22282412125E+03  0.22282412125E+03  0.00000000000E+00 0.  1.
         21   -1    0    0  501  503 -0.00000000000E+00 -0.00000000000E+00 -0.30240773486E+03  0.30240773486E+03  0.00000000000E+00 0. -1.
          6    1    1    2  501    0 -0.45771365183E+02  0.86783814653E+01 -0.23075417987E+03  0.29155072235E+03  0.17200000000E+03 0. -1.
         -6    1    1    2    0  502  0.45771365183E+02 -0.86783814653E+01  0.15117056626E+03  0.23368113377E+03  0.17200000000E+03 0.  1.
</event>
<event>
 4    1  0.4487206E+000  0.1977276E+03  0.7818608E-02  0.1151670E+00
         21   -1    0    0  501  502  0.00000000000E+00  0.00000000000E+00  0.50883858554E+02  0.50883858554E+02  0.00000000000E+00 0. -1.
         21   -1    0    0  502  503 -0.00000000000E+00 -0.00000000000E+00 -0.89055555761E+03  0.89055555761E+03  0.00000000000E+00 0. -1.
          6    1    1    2  501    0 -0.13957093984E+02  0.96526750992E+02 -0.24545801920E+03  0.31519177229E+03  0.17200000000E+03 0. -1.
         -6    1    1    2    0  503  0.13957093984E+02 -0.96526750992E+02 -0.59421367986E+03  0.62624764388E+03  0.17200000000E+03 0. -1.
</event>
<event>
 4    1  0.4487206E+000  0.2280998E+03  0.7818608E-02  0.1127984E+00
         21   -1    0    0  503  502  0.00000000000E+00  0.00000000000E+00  0.36315156747E+03  0.36315156747E+03  0.00000000000E+00 0. -1.
         21   -1    0    0  501  503 -0.00000000000E+00 -0.00000000000E+00 -0.75381979575E+03  0.75381979575E+03  0.00000000000E+00 0.  1.
          6    1    1    2  501    0 -0.12351225091E+03  0.84795232193E+02 -0.69795213184E+03  0.73427970547E+03  0.17200000000E+03 0.  1.
         -6    1    1    2    0  502  0.12351225091E+03 -0.84795232193E+02  0.30728390356E+03  0.38269165775E+03  0.17200000000E+03 0. -1.
</event>
<event>
 4    1  0.4487206E+000  0.1808078E+03  0.7818608E-02  0.1167024E+00
         21   -1    0    0  503  502  0.00000000000E+00  0.00000000000E+00  0.81119194371E+03  0.81119194371E+03  0.00000000000E+00 0.  1.
         21   -1    0    0  501  503 -0.00000000000E+00 -0.00000000000E+00 -0.21334761343E+03  0.21334761343E+03  0.00000000000E+00 0.  1.
          6    1    1    2  501    0 -0.59309748571E+01  0.55428243699E+02 -0.16243469281E+03  0.24305656973E+03  0.17200000000E+03 0.  1.
         -6    1    1    2    0  502  0.59309748571E+01 -0.55428243699E+02  0.76027902309E+03  0.78148298741E+03  0.17200000000E+03 0.  1.
</event>
<event>
 4    1  0.4487206E+000  0.2845800E+03  0.7818608E-02  0.1093213E+00
         21   -1    0    0  501  502  0.00000000000E+00  0.00000000000E+00  0.74357010224E+03  0.74357010224E+03  0.00000000000E+00 0. -1.
         21   -1    0    0  502  503 -0.00000000000E+00 -0.00000000000E+00 -0.29033289413E+03  0.29033289413E+03  0.00000000000E+00 0.  1.
          6    1    1    2  501    0  0.16713674412E+03 -0.15318971917E+03  0.63525965180E+03  0.69608951041E+03  0.17200000000E+03 0. -1.
         -6    1    1    2    0  503 -0.16713674412E+03  0.15318971917E+03 -0.18202244368E+03  0.33781348596E+03  0.17200000000E+03 0.  1.
</event>
<event>
 4    1  0.4487206E+000  0.1801485E+03  0.7818608E-02  0.1167659E+00
         21   -1    0    0  501  502  0.00000000000E+00  0.00000000000E+00  0.32341462873E+03  0.32341462873E+03  0.00000000000E+00 0. -1.
         21   -1    0    0  502  503 -0.00000000000E+00 -0.00000000000E+00 -0.20766881306E+03  0.20766881306E+03  0.00000000000E+00 0. -1.
          6    1    1    2  501    0 -0.46159353598E+02 -0.27180972442E+02  0.24876694168E+03  0.30714570233E+03  0.17200000000E+03 0. -1.
         -6    1    1    2    0  503  0.46159353598E+02  0.27180972442E+02 -0.13302112601E+03  0.22393773945E+03  0.17200000000E+03 0. -1.
</event>
<event>
 4    1  0.4487206E+000  0.2081581E+03  0.7818608E-02  0.1143033E+00
         21   -1    0    0  501  502  0.00000000000E+00  0.00000000000E+00  0.19707120300E+02  0.19707120300E+02  0.00000000000E+00 0.  1.
         21   -1    0    0  502  503 -0.00000000000E+00 -0.00000000000E+00 -0.35773442354E+04  0.35773442354E+04  0.00000000000E+00 0.  1.
          6    1    1    2  501    0  0.65838244370E+02  0.97010931743E+02 -0.66230402601E+03  0.69424521473E+03  0.17200000000E+03 0.  1.
         -6    1    1    2    0  503 -0.65838244370E+02 -0.97010931743E+02 -0.28953330891E+04  0.29028061410E+04  0.17200000000E+03 0.  1.
</event>
<event>
 4    1  0.4487206E+000  0.1806203E+03  0.7818608E-02  0.1167204E+00
         21   -1    0    0  503  502  0.00000000000E+00  0.00000000000E+00  0.49949825768E+02  0.49949825768E+02  0.00000000000E+00 0. -1.
         21   -1    0    0  501  503 -0.00000000000E+00 -0.00000000000E+00 -0.99212592947E+03  0.99212592947E+03  0.00000000000E+00 0. -1.
          6    1    1    2  501    0  0.50584827328E+02 -0.21928958874E+02 -0.16652061569E+03  0.24566810831E+03  0.17200000000E+03 0.  1.
         -6    1    1    2    0  502 -0.50584827328E+02  0.21928958874E+02 -0.77565548802E+03  0.79640764693E+03  0.17200000000E+03 0.  1.
</event>
<event>
 4    1  0.4487206E+000  0.1963297E+03  0.7818608E-02  0.1152873E+00
         21   -1    0    0  503  502  0.00000000000E+00  0.00000000000E+00  0.19963245468E+03  0.19963245468E+03  0.00000000000E+00 0. -1.
         21   -1    0    0  501  503 -0.00000000000E+00 -0.00000000000E+00 -0.61483652006E+03  0.61483652006E+03  0.00000000000E+00 0. -1.
          6    1    1    2  501    0  0.73690239011E+01  0.94377158817E+02 -0.54488530979E+03  0.57917644241E+03  0.17200000000E+03 0. -1.
         -6    1    1    2    0  502 -0.73690239011E+01 -0.94377158817E+02  0.12968124441E+03  0.23529253233E+03  0.17200000000E+03 0. -1.
</event>
<event>
 4    1  0.4487206E+000  0.2569415E+03  0.7818608E-02  0.1108995E+00
         21   -1    0    0  503  502  0.00000000000E+00  0.00000000000E+00  0.26830607563E+04  0.26830607563E+04  0.00000000000E+00 0.  1.
         21   -1    0    0  501  503 -0.00000000000E+00 -0.00000000000E+00 -0.25630431961E+02  0.25630431961E+02  0.00000000000E+00 0. -1.
          6    1    1    2  501    0  0.70105638731E+02 -0.17753905063E+03  0.10579262688E+04  0.10886812689E+04  0.17200000000E+03 0. -1.
         -6    1    1    2    0  502 -0.70105638731E+02  0.17753905063E+03  0.15995040555E+04  0.16200099193E+04  0.17200000000E+03 0.  1.
</event>
<event>
 4    1  0.4487206E+000  0.2104608E+03  0.7818608E-02  0.1141202E+00
         21   -1    0    0  503  502  0.00000000000E+00  0.00000000000E+00  0.28568338666E+03  0.28568338666E+03  0.00000000000E+00 0. -1.
         21   -1    0    0  501  503 -0.00000000000E+00 -0.00000000000E+00 -0.15742917985E+03  0.15742917985E+03  0.00000000000E+00 0. -1.
          6    1    1    2  501    0  0.28823416670E+02  0.11780905918E+03  0.91392784592E+02  0.22944804390E+03  0.17200000000E+03 0. -1.
         -6    1    1    2    0  502 -0.28823416670E+02 -0.11780905918E+03  0.36861422224E+02  0.21366452261E+03  0.17200000000E+03 0. -1.
</event>
<event>
 4    1  0.4487206E+000  0.1809837E+03  0.7818608E-02  0.1166854E+00
         21   -1    0    0  501  502  0.00000000000E+00  0.00000000000E+00  0.76265451901E+02  0.76265451901E+02  0.00000000000E+00 0.  1.
         21   -1    0    0  502  503 -0.00000000000E+00 -0.00000000000E+00 -0.47618879997E+03  0.47618879997E+03  0.00000000000E+00 0.  1.
          6    1    1    2  501    0 -0.50618667092E+02  0.24674886636E+02 -0.11345717238E+03  0.21360624863E+03  0.17200000000E+03 0. -1.
         -6    1    1    2    0  503  0.50618667092E+02 -0.24674886636E+02 -0.28646617569E+03  0.33884800325E+03  0.17200000000E+03 0. -1.
</event>
<event>
 4    1  0.4487206E+000  0.1873641E+03  0.7818608E-02  0.1160860E+00
         21   -1    0    0  501  502  0.00000000000E+00  0.00000000000E+00  0.13419765600E+04  0.13419765600E+04  0.00000000000E+00 0.  1.
         21   -1    0    0  502  503 -0.00000000000E+00 -0.00000000000E+00 -0.26922157058E+02  0.26922157058E+02  0.00000000000E+00 0.  1.
          6    1    1    2  501    0  0.63041605573E+02 -0.39332611894E+02  0.77273455405E+03  0.79512514072E+03  0.17200000000E+03 0.  1.
         -6    1    1    2    0  503 -0.63041605573E+02  0.39332611894E+02  0.54231984885E+03  0.57377357629E+03  0.17200000000E+03 0.  1.
</event>
<event>
 4    1  0.4487206E+000  0.3652278E+03  0.7818608E-02  0.1056533E+00
         21   -1    0    0  503  502  0.00000000000E+00  0.00000000000E+00  0.33062563137E+03  0.33062563137E+03  0.00000000000E+00 0. -1.
         21   -1    0    0  501  503 -0.00000000000E+00 -0.00000000000E+00 -0.42437986908E+03  0.42437986908E+03  0.00000000000E+00 0.  1.
          6    1    1    2  501    0  0.31672214703E+03  0.59113628537E+02 -0.13070964272E+03  0.38791281262E+03  0.17200000000E+03 0. -1.
         -6    1    1    2    0  502 -0.31672214703E+03 -0.59113628537E+02  0.36955405008E+02  0.36709268783E+03  0.17200000000E+03 0.  1.
</event>
<event>
 4    1  0.4487206E+000  0.2127014E+03  0.7818608E-02  0.1139444E+00
         21   -1    0    0  503  502  0.00000000000E+00  0.00000000000E+00  0.32352099524E+03  0.32352099524E+03  0.00000000000E+00 0.  1.
         21   -1    0    0  501  503 -0.00000000000E+00 -0.00000000000E+00 -0.23255602892E+03  0.23255602892E+03  0.00000000000E+00 0. -1.
          6    1    1    2  501    0 -0.96395555799E+02  0.79785972072E+02 -0.13007255243E+03  0.24932062372E+03  0.17200000000E+03 0. -1.
         -6    1    1    2    0  502  0.96395555799E+02 -0.79785972072E+02  0.22103751875E+03  0.30675640044E+03  0.17200000000E+03 0.  1.
</event>
<event>
 4    1  0.4487206E+000  0.3706799E+03  0.7818608E-02  0.1054433E+00
         21   -1    0    0  503  502  0.00000000000E+00  0.00000000000E+00  0.17422129436E+03  0.17422129436E+03  0.00000000000E+00 0. -1.
         21   -1    0    0  501  503 -0.00000000000E+00 -0.00000000000E+00 -0.10641669135E+04  0.10641669135E+04  0.00000000000E+00 0.  1.
          6    1    1    2  501    0 -0.25242143836E+03  0.21000724255E+03 -0.76002171103E+03  0.84559838322E+03  0.17200000000E+03 0.  1.
         -6    1    1    2    0  502  0.25242143836E+03 -0.21000724255E+03 -0.12992390816E+03  0.39278982468E+03  0.17200000000E+03 0. -1.
</event>
<event>
 4    1  0.4487206E+000  0.2139125E+03  0.7818608E-02  0.1138505E+00
         21   -1    0    0  501  502  0.00000000000E+00  0.00000000000E+00  0.26293669646E+03  0.26293669646E+03  0.00000000000E+00 0. -1.
         21   -1    0    0  502  503 -0.00000000000E+00 -0.00000000000E+00 -0.23857121193E+03  0.23857121193E+03  0.00000000000E+00 0. -1.
          6    1    1    2  501    0 -0.52479054120E+02  0.11584697783E+03  0.14260783892E+03  0.25709058543E+03  0.17200000000E+03 0. -1.
         -6    1    1    2    0  503  0.52479054120E+02 -0.11584697783E+03 -0.11824235438E+03  0.24441732296E+03  0.17200000000E+03 0. -1.
</event>
<event>
 4    1  0.4487206E+000  0.1975490E+03  0.7818608E-02  0.1151824E+00
         21   -1    0    0  503  502  0.00000000000E+00  0.00000000000E+00  0.62223412852E+02  0.62223412852E+02  0.00000000000E+00 0. -1.
         21   -1    0    0  501  503 -0.00000000000E+00 -0.00000000000E+00 -0.63004039910E+03  0.63004039910E+03  0.00000000000E+00 0.  1.
          6    1    1    2  501    0  0.93455542125E+02  0.26602331656E+02 -0.26060866637E+03  0.32702064062E+03  0.17200000000E+03 0.  1.
         -6    1    1    2    0  502 -0.93455542125E+02 -0.26602331656E+02 -0.30720831988E+03  0.36524317133E+03  0.17200000000E+03 0. -1.
</event>
<event>
 4    1  0.4487206E+000  0.2194794E+03  0.7818608E-02  0.1134272E+00
         21   -1    0    0  503  502  0.00000000000E+00  0.00000000000E+00  0.51400192581E+03  0.51400192581E+03  0.00000000000E+00 0.  1.
         21   -1    0    0  501  503 -0.00000000000E+00 -0.00000000000E+00 -0.10525503085E+03  0.10525503085E+03  0.00000000000E+00 0. -1.
          6    1    1    2  501    0  0.13619653521E+03  0.61408093540E+01  0.10186315487E+03  0.24196551007E+03  0.17200000000E+03 0. -1.
         -6    1    1    2    0  502 -0.13619653521E+03 -0.61408093540E+01  0.30688374009E+03  0.37729144660E+03  0.17200000000E+03 0.  1.
</event>
<event>
 4    1  0.4487206E+000  0.1749768E+03  0.7818608E-02  0.1172755E+00
         21   -1    0    0  503  502  0.00000000000E+00  0.00000000000E+00  0.33906153054E+03  0.33906153054E+03  0.00000000000E+00 0.  1.
         21   -1    0    0  501  503 -0.00000000000E+00 -0.00000000000E+00 -0.93691216746E+02  0.93691216746E+02  0.00000000000E+00 0.  1.
          6    1    1    2  501    0  0.27917983242E+02 -0.15920374069E+02  0.81512328710E+02  0.19303142705E+03  0.17200000000E+03 0. -1.
         -6    1    1    2    0  502 -0.27917983242E+02  0.15920374069E+02  0.16385798509E+03  0.23972132024E+03  0.17200000000E+03 0. -1.
</event>
<event>
 4    1  0.4487206E+000  0.1992080E+03  0.7818608E-02  0.1150409E+00
         21   -1    0    0  501  502  0.00000000000E+00  0.00000000000E+00  0.22369587639E+03  0.22369587639E+03  0.00000000000E+00 0. -1.
         21   -1    0    0  502  503 -0.00000000000E+00 -0.00000000000E+00 -0.19739928450E+03  0.19739928450E+03  0.00000000000E+00 0. -1.
          6    1    1    2  501    0  0.99469510908E+02 -0.14339976065E+02  0.80163978221E+02  0.21473258234E+03  0.17200000000E+03 0. -1.
         -6    1    1    2    0  503 -0.99469510908E+02  0.14339976065E+02 -0.53867386337E+02  0.20636257855E+03  0.17200000000E+03 0. -1.
</event>
<event>
 4    1  0.4487206E+000  0.1732095E+03  0.7818608E-02  0.1174542E+00
         21   -1    0    0  503  502  0.00000000000E+00  0.00000000000E+00  0.23296954479E+03  0.23296954479E+03  0.00000000000E+00 0.  1.
         21   -1    0    0  501  503 -0.00000000000E+00 -0.00000000000E+00 -0.38161476802E+03  0.38161476802E+03  0.00000000000E+00 0.  1.
          6    1    1    2  501    0 -0.23125635084E+01  0.20301991764E+02 -0.32444835295E+03  0.36778832574E+03  0.17200000000E+03 0.  1.
         -6    1    1    2    0  502  0.23125635084E+01 -0.20301991764E+02  0.17580312972E+03  0.24679598708E+03  0.17200000000E+03 0.  1.
</event>
<event>
 4    1  0.4487206E+000  0.2162168E+03  0.7818608E-02  0.1136735E+00
         21   -1    0    0  501  502  0.00000000000E+00  0.00000000000E+00  0.61184944711E+03  0.61184944711E+03  0.00000000000E+00 0.  1.
         21   -1    0    0  502  503 -0.00000000000E+00 -0.00000000000E+00 -0.78166897532E+02  0.78166897532E+02  0.00000000000E+00 0. -1.
          6    1    1    2  501    0 -0.12158454196E+03  0.48815024847E+02  0.31860625666E+03  0.38504500292E+03  0.17200000000E+03 0. -1.
         -6    1    1    2    0  503  0.12158454196E+03 -0.48815024847E+02  0.21507629292E+03  0.30497134172E+03  0.17200000000E+03 0. -1.
</event>
<event>
 4    1  0.4487206E+000  0.2058563E+03  0.7818608E-02  0.1144890E+00
         21   -1    0    0  501  502  0.00000000000E+00  0.00000000000E+00  0.14792476185E+04  0.14792476185E+04  0.00000000000E+00 0. -1.
         21   -1    0    0  502  503 -0.00000000000E+00 -0.00000000000E+00 -0.68072611295E+02  0.68072611295E+02  0.00000000000E+00 0. -1.
          6    1    1    2  501    0 -0.49642474356E+02 -0.10162897115E+03  0.12943636142E+04  0.13106311414E+04  0.17200000000E+03 0. -1.
         -6    1    1    2    0  503  0.49642474356E+02  0.10162897115E+03  0.11681139303E+03  0.23668908842E+03  0.17200000000E+03 0. -1.
</event>
<event>
 4    1  0.4487206E+000  0.2204520E+03  0.7818608E-02  0.1133547E+00
         21   -1    0    0  501  502  0.00000000000E+00  0.00000000000E+00  0.16263026821E+04  0.16263026821E+04  0.00000000000E+00 0. -1.
         21   -1    0    0  502  503 -0.00000000000E+00 -0.00000000000E+00 -0.41100347513E+02  0.41100347513E+02  0.00000000000E+00 0.  1.
          6    1    1    2  501    0 -0.39765596214E+02  0.13203701079E+03  0.12281428207E+04  0.12477715588E+04  0.17200000000E+03 0. -1.
         -6    1    1    2    0  503  0.39765596214E+02 -0.13203701079E+03  0.35705951391E+03  0.41963147086E+03  0.17200000000E+03 0.  1.
</event>
<event>
 4    1  0.4487206E+000  0.2079660E+03  0.7818608E-02  0.1143187E+00
         21   -1    0    0  503  502  0.00000000000E+00  0.00000000000E+00  0.59090357533E+02  0.59090357533E+02  0.00000000000E+00 0.  1.
         21   -1    0    0  501  503 -0.00000000000E+00 -0.00000000000E+00 -0.79236589561E+03  0.79236589561E+03  0.00000000000E+00 0.  1.
          6    1    1    2  501    0 -0.89279931552E+02 -0.75464797507E+02 -0.48421598924E+03  0.52698668491E+03  0.17200000000E+03 0. -1.
         -6    1    1    2    0  502  0.89279931552E+02  0.75464797507E+02 -0.24905954884E+03  0.32446956824E+03  0.17200000000E+03 0. -1.
</event>
<event>
 4    1  0.4487206E+000  0.2535390E+03  0.7818608E-02  0.1111088E+00
         21   -1    0    0  501  502  0.00000000000E+00  0.00000000000E+00  0.55121092345E+03  0.55121092345E+03  0.00000000000E+00 0.  1.
         21   -1    0    0  502  503 -0.00000000000E+00 -0.00000000000E+00 -0.41968718794E+03  0.41968718794E+03  0.00000000000E+00 0. -1.
          6    1    1    2  501    0  0.18145352984E+03 -0.42102514519E+02  0.47828712237E+03  0.54133222391E+03  0.17200000000E+03 0.  1.
         -6    1    1    2    0  503 -0.18145352984E+03  0.42102514519E+02 -0.34676338686E+03  0.42956588748E+03  0.17200000000E+03 0. -1.
</event>
<event>
 4    1  0.4487206E+000  0.3549040E+03  0.7818608E-02  0.1060620E+00
         21   -1    0    0  503  502  0.00000000000E+00  0.00000000000E+00  0.46390983781E+03  0.46390983781E+03  0.00000000000E+00 0.  1.
         21   -1    0    0  501  503 -0.00000000000E+00 -0.00000000000E+00 -0.29783703113E+03  0.29783703113E+03  0.00000000000E+00 0. -1.
          6    1    1    2  501    0 -0.16602447209E+03  0.26231414143E+03 -0.30198494806E+02  0.35618644446E+03  0.17200000000E+03 0.  1.
         -6    1    1    2    0  502  0.16602447209E+03 -0.26231414143E+03  0.19627130148E+03  0.40556042449E+03  0.17200000000E+03 0. -1.
</event>
<event>
 4    1  0.4487206E+000  0.2057547E+03  0.7818608E-02  0.1144973E+00
         21   -1    0    0  501  502  0.00000000000E+00  0.00000000000E+00  0.26736119596E+03  0.26736119596E+03  0.00000000000E+00 0. -1.
         21   -1    0    0  502  503 -0.00000000000E+00 -0.00000000000E+00 -0.17287535650E+03  0.17287535650E+03  0.00000000000E+00 0. -1.
          6    1    1    2  501    0  0.78961862933E+02 -0.80721874272E+02  0.11106120349E+03  0.23381528544E+03  0.17200000000E+03 0. -1.
         -6    1    1    2    0  503 -0.78961862933E+02  0.80721874272E+02 -0.16575364030E+02  0.20642126702E+03  0.17200000000E+03 0. -1.
</event>
<event>
 4    1  0.4487206E+000  0.1918314E+03  0.7818608E-02  0.1156820E+00
         21   -1    0    0  501  502  0.00000000000E+00  0.00000000000E+00  0.23339532387E+03  0.23339532387E+03  0.00000000000E+00 0. -1.
         21   -1    0    0  502  503 -0.00000000000E+00 -0.00000000000E+00 -0.47848361619E+03  0.47848361619E+03  0.00000000000E+00 0.  1.
          6    1    1    2  501    0  0.84631744159E+02 -0.72631470994E+01  0.16890947818E+03  0.25559674733E+03  0.17200000000E+03 0. -1.
         -6    1    1    2    0  503 -0.84631744159E+02  0.72631470994E+01 -0.41399777050E+03  0.45628219273E+03  0.17200000000E+03 0.  1.
</event>
<event>
 4    1  0.4487206E+000  0.1766214E+03  0.7818608E-02  0.1171113E+00
         21   -1    0    0  501  502  0.00000000000E+00  0.00000000000E+00  0.15159910261E+03  0.15159910261E+03  0.00000000000E+00 0.  1.
         21   -1    0    0  502  503 -0.00000000000E+00 -0.00000000000E+00 -0.36723435379E+03  0.36723435379E+03  0.00000000000E+00 0.  1.
          6    1    1    2  501    0  0.36599223474E+01 -0.39971608175E+02  0.64194687616E+02  0.18792573642E+03  0.17200000000E+03 0.  1.
         -6    1    1    2    0  503 -0.36599223474E+01  0.39971608175E+02 -0.27982993880E+03  0.33090771998E+03  0.17200000000E+03 0.  1.
</event>
<event>
 4    1  0.4487206E+000  0.2949014E+03  0.7818608E-02  0.1087818E+00
         21   -1    0    0  501  502  0.00000000000E+00  0.00000000000E+00  0.22203891799E+04  0.22203891799E+04  0.00000000000E+00 0.  1.
         21   -1    0    0  502  503 -0.00000000000E+00 -0.00000000000E+00 -0.83441162733E+02  0.83441162733E+02  0.00000000000E+00 0. -1.
          6    1    1    2  501    0  0.19867877363E+03  0.13382658936E+03  0.19075545966E+04  0.19302153637E+04  0.17200000000E+03 0.  1.
         -6    1    1    2    0  503 -0.19867877363E+03 -0.13382658936E+03  0.22939342057E+03  0.37361497897E+03  0.17200000000E+03 0. -1.
</event>
<event>
 4    1  0.4487206E+000  0.1831991E+03  0.7818608E-02  0.1164742E+00
         21   -1    0    0  501  502  0.00000000000E+00  0.00000000000E+00  0.86158828389E+03  0.86158828389E+03  0.00000000000E+00 0. -1.
         21   -1    0    0  502  503 -0.00000000000E+00 -0.00000000000E+00 -0.38970122395E+02  0.38970122395E+02  0.00000000000E+00 0. -1.
          6    1    1    2  501    0 -0.29728661336E+02 -0.55624659456E+02  0.42060318425E+03  0.45876893383E+03  0.17200000000E+03 0.  1.
         -6    1    1    2    0  503  0.29728661336E+02  0.55624659456E+02  0.40201497725E+03  0.44178947246E+03  0.17200000000E+03 0.  1.
</event>
<event>
 4    1  0.4487206E+000  0.1918511E+03  0.7818608E-02  0.1156802E+00
         21   -1    0    0  501  502  0.00000000000E+00  0.00000000000E+00  0.51011874959E+02  0.51011874959E+02  0.00000000000E+00 0. -1.
         21   -1    0    0  502  503 -0.00000000000E+00 -0.00000000000E+00 -0.72156830075E+03  0.72156830075E+03  0.00000000000E+00 0. -1.
          6    1    1    2  501    0  0.39412705962E+02 -0.75295944478E+02 -0.33791212067E+03  0.38857617264E+03  0.17200000000E+03 0. -1.
         -6    1    1    2    0  503 -0.39412705962E+02  0.75295944478E+02 -0.33264430513E+03  0.38400400308E+03  0.17200000000E+03 0. -1.
</event>
<event>
 4    1  0.4487206E+000  0.2125993E+03  0.7818608E-02  0.1139524E+00
         21   -1    0    0  501  502  0.00000000000E+00  0.00000000000E+00  0.67528614689E+02  0.67528614689E+02  0.00000000000E+00 0.  1.
         21   -1    0    0  502  503 -0.00000000000E+00 -0.00000000000E+00 -0.81599687720E+03  0.81599687720E+03  0.00000000000E+00 0.  1.
          6    1    1    2  501    0  0.35367015674E+02 -0.11984831424E+03 -0.18694116743E+03  0.28309970735E+03  0.17200000000E+03 0.  1.
         -6    1    1    2    0  503 -0.35367015674E+02  0.11984831424E+03 -0.56152709508E+03  0.60042578454E+03  0.17200000000E+03 0.  1.
</event>
<event>
 4    1  0.4487206E+000  0.1742652E+03  0.7818608E-02  0.1173472E+00
         21   -1    0    0  503  502  0.00000000000E+00  0.00000000000E+00  0.23046031180E+03  0.23046031180E+03  0.00000000000E+00 0.  1.
         21   -1    0    0  501  503 -0.00000000000E+00 -0.00000000000E+00 -0.25727178131E+03  0.25727178131E+03  0.00000000000E+00 0.  1.
          6    1    1    2  501    0  0.27545547789E+02  0.50597901900E+01 -0.18372966731E+03  0.25322904519E+03  0.17200000000E+03 0.  1.
         -6    1    1    2    0  502 -0.27545547789E+02 -0.50597901900E+01  0.15691819780E+03  0.23450304792E+03  0.17200000000E+03 0.  1.
</event>
<event>
 4    1  0.4487206E+000  0.1960966E+03  0.7818608E-02  0.1153075E+00
         21   -1    0    0  503  502  0.00000000000E+00  0.00000000000E+00  0.61839937040E+02  0.61839937040E+02  0.00000000000E+00 0. -1.
         21   -1    0    0  501  503 -0.00000000000E+00 -0.00000000000E+00 -0.72485961657E+03  0.72485961657E+03  0.00000000000E+00 0.  1.
          6    1    1    2  501    0  0.52996464813E+02 -0.77854122027E+02 -0.47980750301E+03  0.51833302957E+03  0.17200000000E+03 0.  1.
         -6    1    1    2    0  502 -0.52996464813E+02  0.77854122027E+02 -0.18321217652E+03  0.26836652404E+03  0.17200000000E+03 0. -1.
</event>
<event>
 4    1  0.4487206E+000  0.1974270E+03  0.7818608E-02  0.1151928E+00
         21   -1    0    0  501  502  0.00000000000E+00  0.00000000000E+00  0.27918013021E+03  0.27918013021E+03  0.00000000000E+00 0.  1.
         21   -1    0    0  502  503 -0.00000000000E+00 -0.00000000000E+00 -0.16289335592E+03  0.16289335592E+03  0.00000000000E+00 0. -1.
          6    1    1    2  501    0  0.61815755327E+02  0.74647257069E+02  0.14170370344E+03  0.24301716022E+03  0.17200000000E+03 0.  1.
         -6    1    1    2    0  503 -0.61815755327E+02 -0.74647257069E+02 -0.25416929155E+02  0.19905632590E+03  0.17200000000E+03 0.  1.
</event>
<event>
 4    1  0.4487206E+000  0.1840845E+03  0.7818608E-02  0.1163908E+00
         21   -1    0    0  501  502  0.00000000000E+00  0.00000000000E+00  0.32474924961E+03  0.32474924961E+03  0.00000000000E+00 0.  1.
         21   -1    0    0  502  503 -0.00000000000E+00 -0.00000000000E+00 -0.11316860223E+03  0.11316860223E+03  0.00000000000E+00 0.  1.
          6    1    1    2  501    0 -0.61947309323E+02 -0.21578654460E+02  0.16691769217E+03  0.24849270295E+03  0.17200000000E+03 0.  1.
         -6    1    1    2    0  503  0.61947309323E+02  0.21578654460E+02  0.44662955209E+02  0.18942514888E+03  0.17200000000E+03 0.  1.
</event>
<event>
 4    1  0.4487206E+000  0.1722930E+03  0.7818608E-02  0.1175478E+00
         21   -1    0    0  503  502  0.00000000000E+00  0.00000000000E+00  0.46771318139E+03  0.46771318139E+03  0.00000000000E+00 0. -1.
         21   -1    0    0  501  503 -0.00000000000E+00 -0.00000000000E+00 -0.78333403794E+02  0.78333403794E+02  0.00000000000E+00 0. -1.
          6    1    1    2  501    0 -0.81454426318E+01  0.58748449807E+01  0.75753910495E+02  0.18821136255E+03  0.17200000000E+03 0. -1.
         -6    1    1    2    0  502  0.81454426318E+01 -0.58748449807E+01  0.31362586710E+03  0.35783522263E+03  0.17200000000E+03 0. -1.
</event>
<event>
 4    1  0.4487206E+000  0.1865829E+03  0.7818608E-02  0.1161580E+00
         21   -1    0    0  501  502  0.00000000000E+00  0.00000000000E+00  0.55098122388E+02  0.55098122388E+02  0.00000000000E+00 0.  1.
         21   -1    0    0  502  503 -0.00000000000E+00 -0.00000000000E+00 -0.13037511509E+04  0.13037511509E+04  0.00000000000E+00 0.  1.
          6    1    1    2  501    0  0.14628723521E+02  0.70817889066E+02 -0.13657344888E+03  0.23122603638E+03  0.17200000000E+03 0.  1.
         -6    1    1    2    0  503 -0.14628723521E+02 -0.70817889066E+02 -0.11120795796E+04  0.11276232369E+04  0.17200000000E+03 0.  1.
</event>
<event>
 4    1  0.4487206E+000  0.1825904E+03  0.7818608E-02  0.1165319E+00
         21   -1    0    0  501  502  0.00000000000E+00  0.00000000000E+00  0.25625124787E+03  0.25625124787E+03  0.00000000000E+00 0. -1.
         21   -1    0    0  502  503 -0.00000000000E+00 -0.00000000000E+00 -0.30719796353E+03  0.30719796353E+03  0.00000000000E+00 0. -1.
          6    1    1    2  501    0 -0.37608505440E+02  0.48382536653E+02  0.18843004693E+03  0.26238359728E+03  0.17200000000E+03 0. -1.
         -6    1    1    2    0  503  0.37608505440E+02 -0.48382536653E+02 -0.23937676259E+03  0.30106561411E+03  0.17200000000E+03 0. -1.
</event>
<event>
 4    1  0.4487206E+000  0.1742474E+03  0.7818608E-02  0.1173489E+00
         21   -1    0    0  503  502  0.00000000000E+00  0.00000000000E+00  0.33947858911E+03  0.33947858911E+03  0.00000000000E+00 0. -1.
         21   -1    0    0  501  503 -0.00000000000E+00 -0.00000000000E+00 -0.93018335302E+02  0.93018335302E+02  0.00000000000E+00 0. -1.
          6    1    1    2  501    0  0.26688390651E+02 -0.81169844876E+01  0.80801996422E+02  0.19207060748E+03  0.17200000000E+03 0.  1.
         -6    1    1    2    0  502 -0.26688390651E+02  0.81169844876E+01  0.16565825739E+03  0.24042631693E+03  0.17200000000E+03 0.  1.
</event>
<event>
 4    1  0.4487206E+000  0.8660427E+03  0.7818608E-02  0.9469054E-01
         21   -1    0    0  503  502  0.00000000000E+00  0.00000000000E+00  0.14189967602E+04  0.14189967602E+04  0.00000000000E+00 0.  1.
         21   -1    0    0  501  503 -0.00000000000E+00 -0.00000000000E+00 -0.88993727749E+03  0.88993727749E+03  0.00000000000E+00 0. -1.
          6    1    1    2  501    0 -0.59753349955E+03  0.60282643582E+03 -0.47113527816E+03  0.98589981496E+03  0.17200000000E+03 0. -1.
         -6    1    1    2    0  502  0.59753349955E+03 -0.60282643582E+03  0.10001947609E+04  0.13230342227E+04  0.17200000000E+03 0.  1.
</event>
<event>
 4    1  0.4487206E+000  0.2126211E+03  0.7818608E-02  0.1139507E+00
         21   -1    0    0  501  502  0.00000000000E+00  0.00000000000E+00  0.23426844264E+03  0.23426844264E+03  0.00000000000E+00 0.  1.
         21   -1    0    0  502  503 -0.00000000000E+00 -0.00000000000E+00 -0.26832927542E+03  0.26832927542E+03  0.00000000000E+00 0. -1.
          6    1    1    2  501    0 -0.28485809306E+02 -0.12170575989E+03  0.11614164909E+03  0.24227384501E+03  0.17200000000E+03 0.  1.
         -6    1    1    2    0  503  0.28485809306E+02  0.12170575989E+03 -0.15020248187E+03  0.26032387305E+03  0.17200000000E+03 0. -1.
</event>
<event>
 4    1  0.4487206E+000  0.3102351E+03  0.7818608E-02  0.1080233E+00
         21   -1    0    0  503  502  0.00000000000E+00  0.00000000000E+00  0.17206089938E+04  0.17206089938E+04  0.00000000000E+00 0.  1.
         21   -1    0    0  501  503 -0.00000000000E+00 -0.00000000000E+00 -0.12386397775E+03  0.12386397775E+03  0.00000000000E+00 0.  1.
          6    1    1    2  501    0  0.21017959573E+03  0.14995443650E+03  0.11541958680E+03  0.33100978310E+03  0.17200000000E+03 0.  1.
         -6    1    1    2    0  502 -0.21017959573E+03 -0.14995443650E+03  0.14813254293E+04  0.15134631885E+04  0.17200000000E+03 0.  1.
</event>
<event>
 4    1  0.4487206E+000  0.2090150E+03  0.7818608E-02  0.1142348E+00
         21   -1    0    0  501  502  0.00000000000E+00  0.00000000000E+00  0.12735774293E+04  0.12735774293E+04  0.00000000000E+00 0. -1.
         21   -1    0    0  502  503 -0.00000000000E+00 -0.00000000000E+00 -0.41573169308E+02  0.41573169308E+02  0.00000000000E+00 0. -1.
          6    1    1    2  501    0 -0.84283927430E+02  0.83662996679E+02  0.89099221110E+03  0.91517998103E+03  0.17200000000E+03 0. -1.
         -6    1    1    2    0  503  0.84283927430E+02 -0.83662996679E+02  0.34101204889E+03  0.39997061758E+03  0.17200000000E+03 0. -1.
</event>
<event>
 4    1  0.4487206E+000  0.1900253E+03  0.7818608E-02  0.1158439E+00
         21   -1    0    0  501  502  0.00000000000E+00  0.00000000000E+00  0.80180476245E+02  0.80180476245E+02  0.00000000000E+00 0. -1.
         21   -1    0    0  502  503 -0.00000000000E+00 -0.00000000000E+00 -0.94554110597E+03  0.94554110597E+03  0.00000000000E+00 0.  1.
          6    1    1    2  501    0  0.21834795073E+02 -0.77774288522E+02 -0.61535023890E+02  0.19974022478E+03  0.17200000000E+03 0. -1.
         -6    1    1    2    0  503 -0.21834795073E+02  0.77774288522E+02 -0.80382560583E+03  0.82598135743E+03  0.17200000000E+03 0.  1.
</event>
<event>
 4    1  0.4487206E+000  0.2016846E+03  0.7818608E-02  0.1148325E+00
         21   -1    0    0  501  502  0.00000000000E+00  0.00000000000E+00  0.98879096066E+03  0.98879096066E+03  0.00000000000E+00 0. -1.
         21   -1    0    0  502  503 -0.00000000000E+00 -0.00000000000E+00 -0.52996001359E+02  0.52996001359E+02  0.00000000000E+00 0. -1.
          6    1    1    2  501    0  0.26939977373E+02 -0.10181801964E+03  0.71429539389E+03  0.74222273021E+03  0.17200000000E+03 0. -1.
         -6    1    1    2    0  503 -0.26939977373E+02  0.10181801964E+03  0.22149956541E+03  0.29956423181E+03  0.17200000000E+03 0. -1.
</event>
<event>
 4    1  0.4487206E+000  0.2095168E+03  0.7818608E-02  0.1141949E+00
         21   -1    0    0  503  502  0.00000000000E+00  0.00000000000E+00  0.54649445659E+03  0.54649445659E+03  0.00000000000E+00 0.  1.
         21   -1    0    0  501  503 -0.00000000000E+00 -0.00000000000E+00 -0.29375333557E+03  0.29375333557E+03  0.00000000000E+00 0.  1.
          6    1    1    2  501    0 -0.24869536386E+02  0.11702476509E+03 -0.23173559988E+03  0.31240787080E+03  0.17200000000E+03 0.  1.
         -6    1    1    2    0  502  0.24869536386E+02 -0.11702476509E+03  0.48447672090E+03  0.52783992136E+03  0.17200000000E+03 0.  1.
</event>
<event>
 4    1  0.4487206E+000  0.2081549E+03  0.7818608E-02  0.1143036E+00
         21   -1    0    0  503  502  0.00000000000E+00  0.00000000000E+00  0.37103904289E+03  0.37103904289E+03  0.00000000000E+00 0. -1.
         21   -1    0    0  501  503 -0.00000000000E+00 -0.00000000000E+00 -0.22282536301E+03  0.22282536301E+03  0.00000000000E+00 0.  1.
          6    1    1    2  501    0 -0.11582076083E+03  0.18166088334E+02 -0.13073988287E+03  0.24580759219E+03  0.17200000000E+03 0.  1.
         -6    1    1    2    0  502  0.11582076083E+03 -0.18166088334E+02  0.27895356275E+03  0.34805681372E+03  0.17200000000E+03 0. -1.
</event>
<event>
 4    1  0.4487206E+000  0.1778151E+03  0.7818608E-02  0.1169934E+00
         21   -1    0    0  503  502  0.00000000000E+00  0.00000000000E+00  0.16820632430E+04  0.16820632430E+04  0.00000000000E+00 0. -1.
         21   -1    0    0  501  503 -0.00000000000E+00 -0.00000000000E+00 -0.47154033341E+02  0.47154033341E+02  0.00000000000E+00 0. -1.
          6    1    1    2  501    0  0.32937704286E+02  0.30811014291E+02  0.14697061415E+03  0.23069150914E+03  0.17200000000E+03 0. -1.
         -6    1    1    2    0  502 -0.32937704286E+02 -0.30811014291E+02  0.14879385955E+04  0.14985257672E+04  0.17200000000E+03 0. -1.
</event>
<event>
 4    1  0.4487206E+000  0.1817884E+03  0.7818608E-02  0.1166083E+00
         21   -1    0    0  503  502  0.00000000000E+00  0.00000000000E+00  0.96797258826E+02  0.96797258826E+02  0.00000000000E+00 0.  1.
         21   -1    0    0  501  503 -0.00000000000E+00 -0.00000000000E+00 -0.35176338606E+03  0.35176338606E+03  0.00000000000E+00 0.  1.
          6    1    1    2  501    0 -0.11225421154E+02 -0.57766790210E+02 -0.16597094749E+03  0.24615720087E+03  0.17200000000E+03 0.  1.
         -6    1    1    2    0  502  0.11225421154E+02  0.57766790210E+02 -0.88995179749E+02  0.20240344402E+03  0.17200000000E+03 0.  1.
</event>
<event>
 4    1  0.4487206E+000  0.1810425E+03  0.7818608E-02  0.1166798E+00
         21   -1    0    0  501  502  0.00000000000E+00  0.00000000000E+00  0.12243291216E+03  0.12243291216E+03  0.00000000000E+00 0. -1.
         21   -1    0    0  502  503 -0.00000000000E+00 -0.00000000000E+00 -0.37861339187E+03  0.37861339187E+03  0.00000000000E+00 0. -1.
          6    1    1    2  501    0 -0.43672117894E+02  0.35848783300E+02  0.74987132052E+01  0.18119773687E+03  0.17200000000E+03 0. -1.
         -6    1    1    2    0  503  0.43672117894E+02 -0.35848783300E+02 -0.26367919291E+03  0.31984856717E+03  0.17200000000E+03 0. -1.
</event>
<event>
 4    1  0.4487206E+000  0.2096328E+03  0.7818608E-02  0.1141857E+00
         21   -1    0    0  503  502  0.00000000000E+00  0.00000000000E+00  0.20520012401E+03  0.20520012401E+03  0.00000000000E+00 0. -1.
         21   -1    0    0  501  503 -0.00000000000E+00 -0.00000000000E+00 -0.21422997320E+03  0.21422997320E+03  0.00000000000E+00 0. -1.
          6    1    1    2  501    0  0.10264386367E+03  0.61855704086E+02 -0.82742784633E+01  0.20979598319E+03  0.17200000000E+03 0.  1.
         -6    1    1    2    0  502 -0.10264386367E+03 -0.61855704086E+02 -0.75557072816E+00  0.20963411403E+03  0.17200000000E+03 0.  1.
</event>
<event>
 4    1  0.4487206E+000  0.1991161E+03  0.7818608E-02  0.1150487E+00
         21   -1    0    0  501  502  0.00000000000E+00  0.00000000000E+00  0.22496748741E+03  0.22496748741E+03  0.00000000000E+00 0.  1.
         21   -1    0    0  502  503 -0.00000000000E+00 -0.00000000000E+00 -0.17627598533E+03  0.17627598533E+03  0.00000000000E+00 0.  1.
          6    1    1    2  501    0 -0.96645616229E+02  0.26886059888E+02  0.21301639030E+02  0.20025232877E+03  0.17200000000E+03 0.  1.
         -6    1    1    2    0  503  0.96645616229E+02 -0.26886059888E+02  0.27389863050E+02  0.20099114396E+03  0.17200000000E+03 0.  1.
</event>
<event>
 4    1  0.4487206E+000  0.1758830E+03  0.7818608E-02  0.1171848E+00
         21   -1    0    0  501  502  0.00000000000E+00  0.00000000000E+00  0.14892692038E+03  0.14892692038E+03  0.00000000000E+00 0.  1.
         21   -1    0    0  502  503 -0.00000000000E+00 -0.00000000000E+00 -0.22391086829E+03  0.22391086829E+03  0.00000000000E+00 0.  1.
          6    1    1    2  501    0  0.14375031079E+02 -0.33825602988E+02  0.12639820688E+02  0.17633654755E+03  0.17200000000E+03 0.  1.
         -6    1    1    2    0  503 -0.14375031079E+02  0.33825602988E+02 -0.87623768595E+02  0.19650124111E+03  0.17200000000E+03 0.  1.
</event>
<event>
 4    1  0.4487206E+000  0.1863233E+03  0.7818608E-02  0.1161820E+00
         21   -1    0    0  501  502  0.00000000000E+00  0.00000000000E+00  0.12974757764E+03  0.12974757764E+03  0.00000000000E+00 0.  1.
         21   -1    0    0  502  503 -0.00000000000E+00 -0.00000000000E+00 -0.28170739607E+03  0.28170739607E+03  0.00000000000E+00 0.  1.
          6    1    1    2  501    0 -0.48238209860E+02 -0.52966478213E+02 -0.12206919762E+03  0.22274932483E+03  0.17200000000E+03 0. -1.
         -6    1    1    2    0  503  0.48238209860E+02  0.52966478213E+02 -0.29890620814E+02  0.18870564888E+03  0.17200000000E+03 0. -1.
</event>
<event>
 4    1  0.4487206E+000  0.1967789E+03  0.7818608E-02  0.1152485E+00
         21   -1    0    0  503  502  0.00000000000E+00  0.00000000000E+00  0.16663712500E+04  0.16663712500E+04  0.00000000000E+00 0.  1.
         21   -1    0    0  501  503 -0.00000000000E+00 -0.00000000000E+00 -0.29880654047E+02  0.29880654047E+02  0.00000000000E+00 0.  1.
          6    1    1    2  501    0 -0.10767710776E+02  0.94984117389E+02  0.41833753431E+03  0.46230749373E+03  0.17200000000E+03 0.  1.
         -6    1    1    2    0  502  0.10767710776E+02 -0.94984117389E+02  0.12181530617E+04  0.12339444104E+04  0.17200000000E+03 0.  1.
</event>
<event>
 4    1  0.4487206E+000  0.1983797E+03  0.7818608E-02  0.1151113E+00
         21   -1    0    0  501  502  0.00000000000E+00  0.00000000000E+00  0.86266256970E+03  0.86266256970E+03  0.00000000000E+00 0. -1.
         21   -1    0    0  502  503 -0.00000000000E+00 -0.00000000000E+00 -0.53332535764E+02  0.53332535764E+02  0.00000000000E+00 0.  1.
          6    1    1    2  501    0 -0.27651066995E+02  0.94899554212E+02  0.57883401080E+03  0.61188505371E+03  0.17200000000E+03 0.  1.
         -6    1    1    2    0  503  0.27651066995E+02 -0.94899554212E+02  0.23049602313E+03  0.30411005175E+03  0.17200000000E+03 0.  1.
</event>
<event>
 4    1  0.4487206E+000  0.2099418E+03  0.7818608E-02  0.1141612E+00
         21   -1    0    0  501  502  0.00000000000E+00  0.00000000000E+00  0.70377886953E+02  0.70377886953E+02  0.00000000000E+00 0. -1.
         21   -1    0    0  502  503 -0.00000000000E+00 -0.00000000000E+00 -0.63221123500E+03  0.63221123500E+03  0.00000000000E+00 0. -1.
          6    1    1    2  501    0 -0.71536313206E+02  0.96820067261E+02 -0.31497108344E+03  0.37852655512E+03  0.17200000000E+03 0. -1.
         -6    1    1    2    0  503  0.71536313206E+02 -0.96820067261E+02 -0.24686226461E+03  0.32406256683E+03  0.17200000000E+03 0. -1.
</event>
<event>
 4    1  0.4487206E+000  0.2237541E+03  0.7818608E-02  0.1131115E+00
         21   -1    0    0  501  502  0.00000000000E+00  0.00000000000E+00  0.14734305352E+03  0.14734305352E+03  0.00000000000E+00 0. -1.
         21   -1    0    0  502  503 -0.00000000000E+00 -0.00000000000E+00 -0.56985220280E+03  0.56985220280E+03  0.00000000000E+00 0.  1.
          6    1    1    2  501    0  0.13550321470E+03  0.46052112033E+02  0.16594627102E+02  0.22436866953E+03  0.17200000000E+03 0. -1.
         -6    1    1    2    0  503 -0.13550321470E+03 -0.46052112033E+02 -0.43910377638E+03  0.49282658679E+03  0.17200000000E+03 0.  1.
</event>
<event>
 4    1  0.4487206E+000  0.2053118E+03  0.7818608E-02  0.1145333E+00
         21   -1    0    0  501  502  0.00000000000E+00  0.00000000000E+00  0.22947058562E+03  0.22947058562E+03  0.00000000000E+00 0.  1.
         21   -1    0    0  502  503 -0.00000000000E+00 -0.00000000000E+00 -0.47526025004E+03  0.47526025004E+03  0.00000000000E+00 0. -1.
          6    1    1    2  501    0 -0.91750757720E+01  0.11173513483E+03  0.15309581498E+03  0.25610788925E+03  0.17200000000E+03 0.  1.
         -6    1    1    2    0  503  0.91750757720E+01 -0.11173513483E+03 -0.39888547940E+03  0.44862294642E+03  0.17200000000E+03 0. -1.
</event>
<event>
 4    1  0.4487206E+000  0.1793766E+03  0.7818608E-02  0.1168408E+00
         21   -1    0    0  503  502  0.00000000000E+00  0.00000000000E+00  0.79469629402E+02  0.79469629402E+02  0.00000000000E+00 0. -1.
         21   -1    0    0  501  503 -0.00000000000E+00 -0.00000000000E+00 -0.70958406835E+03  0.70958406835E+03  0.00000000000E+00 0.  1.
          6    1    1    2  501    0  0.47318925510E+02 -0.18785150007E+02 -0.57358729951E+03  0.60098115838E+03  0.17200000000E+03 0.  1.
         -6    1    1    2    0  502 -0.47318925510E+02  0.18785150007E+02 -0.56527139439E+02  0.18807253937E+03  0.17200000000E+03 0. -1.
</event>
<event>
 4    1  0.4487206E+000  0.2271345E+03  0.7818608E-02  0.1128673E+00
         21   -1    0    0  501  502  0.00000000000E+00  0.00000000000E+00  0.63318205968E+03  0.63318205968E+03  0.00000000000E+00 0.  1.
         21   -1    0    0  502  503 -0.00000000000E+00 -0.00000000000E+00 -0.86089112717E+02  0.86089112717E+02  0.00000000000E+00 0. -1.
          6    1    1    2  501    0 -0.10829158187E+03 -0.10138549398E+03  0.35678328128E+03  0.42294727200E+03  0.17200000000E+03 0. -1.
         -6    1    1    2    0  503  0.10829158187E+03  0.10138549398E+03  0.19030966568E+03  0.29632390039E+03  0.17200000000E+03 0.  1.
</event>
<event>
 4    1  0.4487206E+000  0.2785239E+03  0.7818608E-02  0.1096498E+00
         21   -1    0    0  503  502  0.00000000000E+00  0.00000000000E+00  0.14246565832E+03  0.14246565832E+03  0.00000000000E+00 0. -1.
         21   -1    0    0  501  503 -0.00000000000E+00 -0.00000000000E+00 -0.58343862108E+03  0.58343862108E+03  0.00000000000E+00 0. -1.
          6    1    1    2  501    0  0.20480239975E+03 -0.77765798349E+02 -0.31422647770E+03  0.41989739416E+03  0.17200000000E+03 0. -1.
         -6    1    1    2    0  502 -0.20480239975E+03  0.77765798349E+02 -0.12674648507E+03  0.30600688524E+03  0.17200000000E+03 0. -1.
</event>
<event>
 4    1  0.4487206E+000  0.2663762E+03  0.7818608E-02  0.1103372E+00
         21   -1    0    0  503  502  0.00000000000E+00  0.00000000000E+00  0.52280339708E+03  0.52280339708E+03  0.00000000000E+00 0. -1.
         21   -1    0    0  501  503 -0.00000000000E+00 -0.00000000000E+00 -0.21328780190E+03  0.21328780190E+03  0.00000000000E+00 0.  1.
          6    1    1    2  501    0 -0.19586752288E+03 -0.54847089709E+02 -0.67190489547E+02  0.27471958732E+03  0.17200000000E+03 0.  1.
         -6    1    1    2    0  502  0.19586752288E+03  0.54847089709E+02  0.37670608474E+03  0.46137161166E+03  0.17200000000E+03 0. -1.
</event>
<event>
 4    1  0.4487206E+000  0.1724171E+03  0.7818608E-02  0.1175350E+00
         21   -1    0    0  501  502  0.00000000000E+00  0.00000000000E+00  0.25913512597E+03  0.25913512597E+03  0.00000000000E+00 0.  1.
         21   -1    0    0  502  503 -0.00000000000E+00 -0.00000000000E+00 -0.19762754878E+03  0.19762754878E+03  0.00000000000E+00 0.  1.
          6    1    1    2  501    0  0.47109029777E+01  0.11021267267E+02  0.17867728001E+03  0.24830068733E+03  0.17200000000E+03 0.  1.
         -6    1    1    2    0  503 -0.47109029777E+01 -0.11021267267E+02 -0.11716970281E+03  0.20846198741E+03  0.17200000000E+03 0.  1.
</event>
<event>
 4    1  0.4487206E+000  0.3329178E+03  0.7818608E-02  0.1069853E+00
         21   -1    0    0  503  502  0.00000000000E+00  0.00000000000E+00  0.25494221741E+03  0.25494221741E+03  0.00000000000E+00 0.  1.
         21   -1    0    0  501  503 -0.00000000000E+00 -0.00000000000E+00 -0.12552726594E+04  0.12552726594E+04  0.00000000000E+00 0.  1.
          6    1    1    2  501    0  0.24381626578E+03 -0.14766142654E+03 -0.11106670010E+04  0.11594893080E+04  0.17200000000E+03 0.  1.
         -6    1    1    2    0  502 -0.24381626578E+03  0.14766142654E+03  0.11033655900E+03  0.35072556878E+03  0.17200000000E+03 0.  1.
</event>
<event>
 4    1  0.4487206E+000  0.1902811E+03  0.7818608E-02  0.1158208E+00
         21   -1    0    0  503  502  0.00000000000E+00  0.00000000000E+00  0.37886576244E+03  0.37886576244E+03  0.00000000000E+00 0. -1.
         21   -1    0    0  501  503 -0.00000000000E+00 -0.00000000000E+00 -0.11055708748E+03  0.11055708748E+03  0.00000000000E+00 0. -1.
          6    1    1    2  501    0 -0.38594321705E+02 -0.71647619341E+02  0.44045123350E+02  0.19531225234E+03  0.17200000000E+03 0. -1.
         -6    1    1    2    0  502  0.38594321705E+02  0.71647619341E+02  0.22426355161E+03  0.29411059757E+03  0.17200000000E+03 0. -1.
</event>
<event>
 4    1  0.4487206E+000  0.2240602E+03  0.7818608E-02  0.1130892E+00
         21   -1    0    0  501  502  0.00000000000E+00  0.00000000000E+00  0.96808023187E+02  0.96808023187E+02  0.00000000000E+00 0. -1.
         21   -1    0    0  502  503 -0.00000000000E+00 -0.00000000000E+00 -0.52020717288E+03  0.52020717288E+03  0.00000000000E+00 0. -1.
          6    1    1    2  501    0  0.94417169879E+02  0.10818666637E+03 -0.22893995222E+03  0.32033803781E+03  0.17200000000E+03 0. -1.
         -6    1    1    2    0  503 -0.94417169879E+02 -0.10818666637E+03 -0.19445919747E+03  0.29667715825E+03  0.17200000000E+03 0. -1.
</event>
<event>
 4    1  0.4487206E+000  0.3264353E+03  0.7818608E-02  0.1072725E+00
         21   -1    0    0  501  502  0.00000000000E+00  0.00000000000E+00  0.12426864300E+03  0.12426864300E+03  0.00000000000E+00 0.  1.
         21   -1    0    0  502  503 -0.00000000000E+00 -0.00000000000E+00 -0.85772024667E+03  0.85772024667E+03  0.00000000000E+00 0. -1.
          6    1    1    2  501    0  0.94867518001E+02  0.26072234173E+03 -0.35880406062E+03  0.48507766323E+03  0.17200000000E+03 0. -1.
         -6    1    1    2    0  503 -0.94867518001E+02 -0.26072234173E+03 -0.37464754305E+03  0.49691122644E+03  0.17200000000E+03 0.  1.
</event>
<event>
 4    1  0.4487206E+000  0.1839500E+03  0.7818608E-02  0.1164034E+00
         21   -1    0    0  501  502  0.00000000000E+00  0.00000000000E+00  0.53177385785E+03  0.53177385785E+03  0.00000000000E+00 0.  1.
         21   -1    0    0  502  503 -0.00000000000E+00 -0.00000000000E+00 -0.19363638062E+03  0.19363638062E+03  0.00000000000E+00 0.  1.
          6    1    1    2  501    0 -0.65219720683E+02 -0.87847559241E-01  0.46626262681E+03  0.50123692685E+03  0.17200000000E+03 0.  1.
         -6    1    1    2    0  503  0.65219720683E+02  0.87847559241E-01 -0.12812514958E+03  0.22417331161E+03  0.17200000000E+03 0.  1.
</event>
<event>
 4    1  0.4487206E+000  0.2570097E+03  0.7818608E-02  0.1108953E+00
         21   -1    0    0  501  502  0.00000000000E+00  0.00000000000E+00  0.11554413207E+04  0.11554413207E+04  0.00000000000E+00 0.  1.
         21   -1    0    0  502  503 -0.00000000000E+00 -0.00000000000E+00 -0.60055937566E+02  0.60055937566E+02  0.00000000000E+00 0. -1.
          6    1    1    2  501    0 -0.15535855209E+03 -0.11105716099E+03  0.68097092261E+03  0.72785669617E+03  0.17200000000E+03 0. -1.
         -6    1    1    2    0  503  0.15535855209E+03  0.11105716099E+03  0.41441446053E+03  0.48764056211E+03  0.17200000000E+03 0.  1.
</event>
<event>
 4    1  0.4487206E+000  0.1851691E+03  0.7818608E-02  0.1162892E+00
         21   -1    0    0  501  502  0.00000000000E+00  0.00000000000E+00  0.34179647618E+02  0.34179647618E+02  0.00000000000E+00 0.  1.
         21   -1    0    0  502  503 -0.00000000000E+00 -0.00000000000E+00 -0.10259896481E+04  0.10259896481E+04  0.00000000000E+00 0.  1.
          6    1    1    2  501    0 -0.64518505704E+02  0.23258378901E+02 -0.41682956646E+03  0.45610796665E+03  0.17200000000E+03 0.  1.
         -6    1    1    2    0  503  0.64518505704E+02 -0.23258378901E+02 -0.57498043406E+03  0.60406132911E+03  0.17200000000E+03 0.  1.
</event>
<event>
 4    1  0.4487206E+000  0.1723573E+03  0.7818608E-02  0.1175412E+00
         21   -1    0    0  501  502  0.00000000000E+00  0.00000000000E+00  0.68871385460E+03  0.68871385460E+03  0.00000000000E+00 0.  1.
         21   -1    0    0  502  503 -0.00000000000E+00 -0.00000000000E+00 -0.74056086959E+02  0.74056086959E+02  0.00000000000E+00 0.  1.
          6    1    1    2  501    0 -0.94144782281E+01  0.58668929526E+01  0.55377210980E+03  0.57997465671E+03  0.17200000000E+03 0.  1.
         -6    1    1    2    0  503  0.94144782281E+01 -0.58668929526E+01  0.60885657845E+02  0.18279528485E+03  0.17200000000E+03 0.  1.
</event>
<event>
 4    1  0.4487206E+000  0.1993322E+03  0.7818608E-02  0.1150304E+00
         21   -1    0    0  503  502  0.00000000000E+00  0.00000000000E+00  0.36317023557E+03  0.36317023557E+03  0.00000000000E+00 0.  1.
         21   -1    0    0  501  503 -0.00000000000E+00 -0.00000000000E+00 -0.12059654696E+03  0.12059654696E+03  0.00000000000E+00 0.  1.
          6    1    1    2  501    0  0.28892577497E+02 -0.96511968109E+02  0.47607424589E+02  0.20493854664E+03  0.17200000000E+03 0.  1.
         -6    1    1    2    0  502 -0.28892577497E+02  0.96511968109E+02  0.19496626402E+03  0.27882823589E+03  0.17200000000E+03 0.  1.
</event>
<event>
 4    1  0.4487206E+000  0.3163061E+03  0.7818608E-02  0.1077362E+00
         21   -1    0    0  503  502  0.00000000000E+00  0.00000000000E+00  0.42876681476E+03  0.42876681476E+03  0.00000000000E+00 0. -1.
         21   -1    0    0  501  503 -0.00000000000E+00 -0.00000000000E+00 -0.51156869947E+03  0.51156869947E+03  0.00000000000E+00 0.  1.
          6    1    1    2  501    0 -0.13866362045E+03 -0.22635798864E+03 -0.38813766470E+03  0.50069989556E+03  0.17200000000E+03 0.  1.
         -6    1    1    2    0  502  0.13866362045E+03  0.22635798864E+03  0.30533577999E+03  0.43963561867E+03  0.17200000000E+03 0. -1.
</event>
<event>
 4    1  0.4487206E+000  0.1847416E+03  0.7818608E-02  0.1163291E+00
         21   -1    0    0  503  502  0.00000000000E+00  0.00000000000E+00  0.35917920788E+02  0.35917920788E+02  0.00000000000E+00 0. -1.
         21   -1    0    0  501  503 -0.00000000000E+00 -0.00000000000E+00 -0.97058785347E+03  0.97058785347E+03  0.00000000000E+00 0. -1.
          6    1    1    2  501    0  0.65904511268E+02  0.14215135516E+02 -0.54025982651E+03  0.57097298958E+03  0.17200000000E+03 0. -1.
         -6    1    1    2    0  502 -0.65904511268E+02 -0.14215135516E+02 -0.39441010617E+03  0.43553278468E+03  0.17200000000E+03 0. -1.
</event>
<event>
 4    1  0.4487206E+000  0.2365032E+03  0.7818608E-02  0.1122144E+00
         21   -1    0    0  503  502  0.00000000000E+00  0.00000000000E+00  0.23596046398E+03  0.23596046398E+03  0.00000000000E+00 0.  1.
         21   -1    0    0  501  503 -0.00000000000E+00 -0.00000000000E+00 -0.42084934689E+03  0.42084934689E+03  0.00000000000E+00 0.  1.
          6    1    1    2  501    0 -0.20559591094E+02 -0.16101876700E+03 -0.30947542216E+03  0.38949810916E+03  0.17200000000E+03 0. -1.
         -6    1    1    2    0  502  0.20559591094E+02  0.16101876700E+03  0.12458653926E+03  0.26731170172E+03  0.17200000000E+03 0. -1.
</event>
<event>
 4    1  0.4487206E+000  0.1924837E+03  0.7818608E-02  0.1156240E+00
         21   -1    0    0  503  502  0.00000000000E+00  0.00000000000E+00  0.13282742232E+04  0.13282742232E+04  0.00000000000E+00 0. -1.
         21   -1    0    0  501  503 -0.00000000000E+00 -0.00000000000E+00 -0.29004867074E+02  0.29004867074E+02  0.00000000000E+00 0. -1.
          6    1    1    2  501    0 -0.83071093512E+02 -0.23772980218E+02  0.51678205843E+03  0.55146500984E+03  0.17200000000E+03 0. -1.
         -6    1    1    2    0  502  0.83071093512E+02  0.23772980218E+02  0.78248729772E+03  0.80581408046E+03  0.17200000000E+03 0. -1.
</event>
<event>
 4    1  0.4487206E+000  0.2534925E+03  0.7818608E-02  0.1111117E+00
         21   -1    0    0  503  502  0.00000000000E+00  0.00000000000E+00  0.26876616590E+03  0.26876616590E+03  0.00000000000E+00 0.  1.
         21   -1    0    0  501  503 -0.00000000000E+00 -0.00000000000E+00 -0.24232257528E+03  0.24232257528E+03  0.00000000000E+00 0.  1.
          6    1    1    2  501    0 -0.17976008059E+03 -0.48587773544E+02 -0.16307604643E+02  0.25401652757E+03  0.17200000000E+03 0.  1.
         -6    1    1    2    0  502  0.17976008059E+03  0.48587773544E+02  0.42751195260E+02  0.25707221360E+03  0.17200000000E+03 0.  1.
</event>
<event>
 4    1  0.4487206E+000  0.1815734E+03  0.7818608E-02  0.1166289E+00
         21   -1    0    0  503  502  0.00000000000E+00  0.00000000000E+00  0.84423859404E+03  0.84423859404E+03  0.00000000000E+00 0.  1.
         21   -1    0    0  501  503 -0.00000000000E+00 -0.00000000000E+00 -0.41555645191E+02  0.41555645191E+02  0.00000000000E+00 0.  1.
          6    1    1    2  501    0  0.55692328497E+02 -0.16830730917E+02  0.29262266124E+03  0.34437905109E+03  0.17200000000E+03 0.  1.
         -6    1    1    2    0  502 -0.55692328497E+02  0.16830730917E+02  0.51006028761E+03  0.54141518814E+03  0.17200000000E+03 0.  1.
</event>
<event>
 4    1  0.4487206E+000  0.2491726E+03  0.7818608E-02  0.1113829E+00
         21   -1    0    0  501  502  0.00000000000E+00  0.00000000000E+00  0.43454236652E+03  0.43454236652E+03  0.00000000000E+00 0. -1.
         21   -1    0    0  502  503 -0.00000000000E+00 -0.00000000000E+00 -0.25386246110E+03  0.25386246110E+03  0.00000000000E+00 0. -1.
          6    1    1    2  501    0  0.46423206283E+02 -0.17420646973E+03  0.31792497048E+03  0.40393476582E+03  0.17200000000E+03 0. -1.
         -6    1    1    2    0  503 -0.46423206283E+02  0.17420646973E+03 -0.13724506506E+03  0.28447006180E+03  0.17200000000E+03 0. -1.
</event>
<event>
 4    1  0.4487206E+000  0.1909779E+03  0.7818608E-02  0.1157582E+00
         21   -1    0    0  501  502  0.00000000000E+00  0.00000000000E+00  0.35900766599E+03  0.35900766599E+03  0.00000000000E+00 0. -1.
         21   -1    0    0  502  503 -0.00000000000E+00 -0.00000000000E+00 -0.25907791852E+03  0.25907791852E+03  0.00000000000E+00 0.  1.
          6    1    1    2  501    0 -0.73569677968E+02  0.38419665260E+02  0.29091284803E+03  0.34799835250E+03  0.17200000000E+03 0. -1.
         -6    1    1    2    0  503  0.73569677968E+02 -0.38419665260E+02 -0.19098310056E+03  0.27008723201E+03  0.17200000000E+03 0.  1.
</event>
<event>
 4    1  0.4487206E+000  0.1741394E+03  0.7818608E-02  0.1173599E+00
         21   -1    0    0  503  502  0.00000000000E+00  0.00000000000E+00  0.25703283915E+03  0.25703283915E+03  0.00000000000E+00 0.  1.
         21   -1    0    0  501  503 -0.00000000000E+00 -0.00000000000E+00 -0.65897232291E+03  0.65897232291E+03  0.00000000000E+00 0.  1.
          6    1    1    2  501    0 -0.26887750921E+02  0.41942901465E+01 -0.61595262896E+03  0.64009544940E+03  0.17200000000E+03 0.  1.
         -6    1    1    2    0  502  0.26887750921E+02 -0.41942901465E+01  0.21401314521E+03  0.27590971266E+03  0.17200000000E+03 0.  1.
</event>
<event>
 4    1  0.4487206E+000  0.3520872E+03  0.7818608E-02  0.1061762E+00
         21   -1    0    0  503  502  0.00000000000E+00  0.00000000000E+00  0.85163713965E+03  0.85163713965E+03  0.00000000000E+00 0.  1.
         21   -1    0    0  501  503 -0.00000000000E+00 -0.00000000000E+00 -0.27172776197E+03  0.27172776197E+03  0.00000000000E+00 0. -1.
          6    1    1    2  501    0 -0.27880036208E+02 -0.30594782078E+03 -0.92778302453E+02  0.36410599949E+03  0.17200000000E+03 0. -1.
         -6    1    1    2    0  502  0.27880036208E+02  0.30594782078E+03  0.67268768014E+03  0.75925890213E+03  0.17200000000E+03 0.  1.
</event>
<event>
 4    1  0.4487206E+000  0.2251891E+03  0.7818608E-02  0.1130072E+00
         21   -1    0    0  501  502  0.00000000000E+00  0.00000000000E+00  0.39534706924E+03  0.39534706924E+03  0.00000000000E+00 0.  1.
         21   -1    0    0  502  503 -0.00000000000E+00 -0.00000000000E+00 -0.34383429684E+03  0.34383429684E+03  0.00000000000E+00 0.  1.
          6    1    1    2  501    0 -0.14384006361E+03  0.20884559458E+02  0.31839894312E+03  0.38998463522E+03  0.17200000000E+03 0.  1.
         -6    1    1    2    0  503  0.14384006361E+03 -0.20884559458E+02 -0.26688617072E+03  0.34919673086E+03  0.17200000000E+03 0.  1.
</event>
<event>
 4    1  0.4487206E+000  0.2308822E+03  0.7818608E-02  0.1126020E+00
         21   -1    0    0  503  502  0.00000000000E+00  0.00000000000E+00  0.14139847028E+04  0.14139847028E+04  0.00000000000E+00 0. -1.
         21   -1    0    0  501  503 -0.00000000000E+00 -0.00000000000E+00 -0.37785491112E+02  0.37785491112E+02  0.00000000000E+00 0.  1.
          6    1    1    2  501    0  0.20038870274E+02  0.15271225047E+03  0.65348140697E+03  0.69306892660E+03  0.17200000000E+03 0.  1.
         -6    1    1    2    0  502 -0.20038870274E+02 -0.15271225047E+03  0.72271780475E+03  0.75870126734E+03  0.17200000000E+03 0. -1.
</event>
<event>
 4    1  0.4487206E+000  0.1967610E+03  0.7818608E-02  0.1152501E+00
         21   -1    0    0  501  502  0.00000000000E+00  0.00000000000E+00  0.35923846594E+03  0.35923846594E+03  0.00000000000E+00 0.  1.
         21   -1    0    0  502  503 -0.00000000000E+00 -0.00000000000E+00 -0.19305731082E+03  0.19305731082E+03  0.00000000000E+00 0.  1.
          6    1    1    2  501    0  0.65373783923E+01 -0.95331869149E+02  0.26663551867E+03  0.33137501778E+03  0.17200000000E+03 0.  1.
         -6    1    1    2    0  503 -0.65373783923E+01  0.95331869149E+02 -0.10045436356E+03  0.22092075898E+03  0.17200000000E+03 0.  1.
</event>
<event>
 4    1  0.4487206E+000  0.3089920E+03  0.7818608E-02  0.1080830E+00
         21   -1    0    0  503  502  0.00000000000E+00  0.00000000000E+00  0.53760077090E+03  0.53760077090E+03  0.00000000000E+00 0.  1.
         21   -1    0    0  501  503 -0.00000000000E+00 -0.00000000000E+00 -0.17988703756E+03  0.17988703756E+03  0.00000000000E+00 0. -1.
          6    1    1    2  501    0 -0.20249194116E+03 -0.15776275697E+03  0.21933709968E+03  0.37892589911E+03  0.17200000000E+03 0.  1.
         -6    1    1    2    0  502  0.20249194116E+03  0.15776275697E+03  0.13837663366E+03  0.33856190935E+03  0.17200000000E+03 0.  1.
</event>
<event>
 4    1  0.4487206E+000  0.1814536E+03  0.7818608E-02  0.1166404E+00
         21   -1    0    0  501  502  0.00000000000E+00  0.00000000000E+00  0.17388014158E+03  0.17388014158E+03  0.00000000000E+00 0.  1.
         21   -1    0    0  502  503 -0.00000000000E+00 -0.00000000000E+00 -0.35134730767E+03  0.35134730767E+03  0.00000000000E+00 0.  1.
          6    1    1    2  501    0 -0.57636564907E+02 -0.44065046625E+01  0.89583872724E+02  0.20236269703E+03  0.17200000000E+03 0.  1.
         -6    1    1    2    0  503  0.57636564907E+02  0.44065046625E+01 -0.26705103882E+03  0.32286475223E+03  0.17200000000E+03 0.  1.
</event>
<event>
 4    1  0.4487206E+000  0.1958287E+03  0.7818608E-02  0.1153307E+00
         21   -1    0    0  501  502  0.00000000000E+00  0.00000000000E+00  0.57497195913E+02  0.57497195913E+02  0.00000000000E+00 0. -1.
         21   -1    0    0  502  503 -0.00000000000E+00 -0.00000000000E+00 -0.98370395662E+03  0.98370395662E+03  0.00000000000E+00 0.  1.
          6    1    1    2  501    0  0.83727341564E+02 -0.41888001053E+02 -0.16769682075E+03  0.25781989071E+03  0.17200000000E+03 0. -1.
         -6    1    1    2    0  503 -0.83727341564E+02  0.41888001053E+02 -0.75850993996E+03  0.78338126182E+03  0.17200000000E+03 0.  1.
</event>
<event>
 4    1  0.4487206E+000  0.3239820E+03  0.7818608E-02  0.1073831E+00
         21   -1    0    0  501  502  0.00000000000E+00  0.00000000000E+00  0.50985902243E+03  0.50985902243E+03  0.00000000000E+00 0.  1.
         21   -1    0    0  502  503 -0.00000000000E+00 -0.00000000000E+00 -0.21518066725E+03  0.21518066725E+03  0.00000000000E+00 0. -1.
          6    1    1    2  501    0  0.24144119692E+03  0.13071520577E+03  0.71927770085E+02  0.33187033718E+03  0.17200000000E+03 0. -1.
         -6    1    1    2    0  503 -0.24144119692E+03 -0.13071520577E+03  0.22275058509E+03  0.39316935250E+03  0.17200000000E+03 0. -1.
</event>
<event>
 4    1  0.4487206E+000  0.1796518E+03  0.7818608E-02  0.1168140E+00
         21   -1    0    0  503  502  0.00000000000E+00  0.00000000000E+00  0.10608045245E+03  0.10608045245E+03  0.00000000000E+00 0.  1.
         21   -1    0    0  501  503 -0.00000000000E+00 -0.00000000000E+00 -0.37262843361E+03  0.37262843361E+03  0.00000000000E+00 0.  1.
          6    1    1    2  501    0 -0.11178755320E+02 -0.50653861964E+02 -0.23580825967E+03  0.29644613951E+03  0.17200000000E+03 0.  1.
         -6    1    1    2    0  502  0.11178755320E+02  0.50653861964E+02 -0.30739721486E+02  0.18226274655E+03  0.17200000000E+03 0.  1.
</event>
<event>
 4    1  0.4487206E+000  0.2428451E+03  0.7818608E-02  0.1117912E+00
         21   -1    0    0  503  502  0.00000000000E+00  0.00000000000E+00  0.10098320326E+03  0.10098320326E+03  0.00000000000E+00 0. -1.
         21   -1    0    0  501  503 -0.00000000000E+00 -0.00000000000E+00 -0.92093682769E+03  0.92093682769E+03  0.00000000000E+00 0.  1.
          6    1    1    2  501    0  0.14357341564E+03 -0.93682405205E+02 -0.71904140177E+03  0.75894285436E+03  0.17200000000E+03 0.  1.
         -6    1    1    2    0  502 -0.14357341564E+03  0.93682405205E+02 -0.10091222266E+03  0.26297717659E+03  0.17200000000E+03 0. -1.
</event>
<event>
 4    1  0.4487206E+000  0.2262978E+03  0.7818608E-02  0.1129273E+00
         21   -1    0    0  503  502  0.00000000000E+00  0.00000000000E+00  0.44599318981E+02  0.44599318981E+02  0.00000000000E+00 0.  1.
         21   -1    0    0  501  503 -0.00000000000E+00 -0.00000000000E+00 -0.12395078945E+04  0.12395078945E+04  0.00000000000E+00 0.  1.
          6    1    1    2  501    0 -0.13548961284E+03 -0.57177247008E+02 -0.77167841005E+03  0.80417550404E+03  0.17200000000E+03 0.  1.
         -6    1    1    2    0  502  0.13548961284E+03  0.57177247008E+02 -0.42323016549E+03  0.47993170946E+03  0.17200000000E+03 0.  1.
</event>
<event>
 4    1  0.4487206E+000  0.1887540E+03  0.7818608E-02  0.1159590E+00
         21   -1    0    0  501  502  0.00000000000E+00  0.00000000000E+00  0.67324177931E+02  0.67324177931E+02  0.00000000000E+00 0.  1.
         21   -1    0    0  502  503 -0.00000000000E+00 -0.00000000000E+00 -0.53271782983E+03  0.53271782983E+03  0.00000000000E+00 0. -1.
          6    1    1    2  501    0  0.52318616111E+02  0.57505077300E+02 -0.20832244620E+03  0.28111619145E+03  0.17200000000E+03 0. -1.
         -6    1    1    2    0  503 -0.52318616111E+02 -0.57505077300E+02 -0.25707120570E+03  0.31892581631E+03  0.17200000000E+03 0. -1.
</event>
<event>
 4    1  0.4487206E+000  0.1868006E+03  0.7818608E-02  0.1161379E+00
         21   -1    0    0  503  502  0.00000000000E+00  0.00000000000E+00  0.57583796825E+03  0.57583796825E+03  0.00000000000E+00 0.  1.
         21   -1    0    0  501  503 -0.00000000000E+00 -0.00000000000E+00 -0.65046701412E+02  0.65046701412E+02  0.00000000000E+00 0.  1.
          6    1    1    2  501    0  0.58728651350E+02 -0.43144059486E+02  0.17159103490E+03  0.25364926102E+03  0.17200000000E+03 0.  1.
         -6    1    1    2    0  502 -0.58728651350E+02  0.43144059486E+02  0.33920023193E+03  0.38723540864E+03  0.17200000000E+03 0.  1.
</event>
<event>
 4    1  0.4487206E+000  0.1902141E+03  0.7818608E-02  0.1158268E+00
         21   -1    0    0  503  502  0.00000000000E+00  0.00000000000E+00  0.38273134897E+03  0.38273134897E+03  0.00000000000E+00 0.  1.
         21   -1    0    0  501  503 -0.00000000000E+00 -0.00000000000E+00 -0.33254479260E+03  0.33254479260E+03  0.00000000000E+00 0. -1.
          6    1    1    2  501    0  0.79901759145E+02  0.14597775041E+02 -0.27747010754E+03  0.33640904674E+03  0.17200000000E+03 0. -1.
         -6    1    1    2    0  502 -0.79901759145E+02 -0.14597775041E+02  0.32765666391E+03  0.37886709484E+03  0.17200000000E+03 0.  1.
</event>
<event>
 4    1  0.4487206E+000  0.2030670E+03  0.7818608E-02  0.1147177E+00
         21   -1    0    0  503  502  0.00000000000E+00  0.00000000000E+00  0.76482236664E+03  0.76482236664E+03  0.00000000000E+00 0. -1.
         21   -1    0    0  501  503 -0.00000000000E+00 -0.00000000000E+00 -0.21344131102E+03  0.21344131102E+03  0.00000000000E+00 0.  1.
          6    1    1    2  501    0  0.10729245632E+03 -0.11854184621E+02 -0.14717417899E+03  0.25079161038E+03  0.17200000000E+03 0.  1.
         -6    1    1    2    0  502 -0.10729245632E+03  0.11854184621E+02  0.69855523461E+03  0.72747206728E+03  0.17200000000E+03 0. -1.
</event>
<event>
 4    1  0.4487206E+000  0.2137682E+03  0.7818608E-02  0.1138616E+00
         21   -1    0    0  501  502  0.00000000000E+00  0.00000000000E+00  0.20254233610E+04  0.20254233610E+04  0.00000000000E+00 0.  1.
         21   -1    0    0  502  503 -0.00000000000E+00 -0.00000000000E+00 -0.23868103043E+02  0.23868103043E+02  0.00000000000E+00 0. -1.
          6    1    1    2  501    0 -0.11588874577E+03 -0.51794407553E+02  0.12405031235E+04  0.12587870596E+04  0.17200000000E+03 0.  1.
         -6    1    1    2    0  503  0.11588874577E+03  0.51794407553E+02  0.76105213442E+03  0.79050440439E+03  0.17200000000E+03 0. -1.
</event>
<event>
 4    1  0.4487206E+000  0.1806234E+03  0.7818608E-02  0.1167201E+00
         21   -1    0    0  503  502  0.00000000000E+00  0.00000000000E+00  0.80409738110E+03  0.80409738110E+03  0.00000000000E+00 0. -1.
         21   -1    0    0  501  503 -0.00000000000E+00 -0.00000000000E+00 -0.43263730423E+02  0.43263730423E+02  0.00000000000E+00 0. -1.
          6    1    1    2  501    0  0.12583674558E+02  0.53688671970E+02  0.27476095110E+03  0.32881362900E+03  0.17200000000E+03 0. -1.
         -6    1    1    2    0  502 -0.12583674558E+02 -0.53688671970E+02  0.48607269958E+03  0.51854748253E+03  0.17200000000E+03 0. -1.
</event>
<event>
 4    1  0.4487206E+000  0.1780966E+03  0.7818608E-02  0.1169658E+00
         21   -1    0    0  503  502  0.00000000000E+00  0.00000000000E+00  0.19037121933E+02  0.19037121933E+02  0.00000000000E+00 0. -1.
         21   -1    0    0  501  503 -0.00000000000E+00 -0.00000000000E+00 -0.16722569996E+04  0.16722569996E+04  0.00000000000E+00 0.  1.
          6    1    1    2  501    0  0.91736962306E+01 -0.45279583476E+02 -0.87778017086E+03  0.89566535366E+03  0.17200000000E+03 0. -1.
         -6    1    1    2    0  502 -0.91736962306E+01  0.45279583476E+02 -0.77543970678E+03  0.79562876785E+03  0.17200000000E+03 0. -1.
</event>
<event>
 4    1  0.4487206E+000  0.2127839E+03  0.7818608E-02  0.1139380E+00
         21   -1    0    0  501  502  0.00000000000E+00  0.00000000000E+00  0.10506863268E+03  0.10506863268E+03  0.00000000000E+00 0.  1.
         21   -1    0    0  502  503 -0.00000000000E+00 -0.00000000000E+00 -0.53123226536E+03  0.53123226536E+03  0.00000000000E+00 0.  1.
          6    1    1    2  501    0 -0.29588408932E+02 -0.12172714013E+03 -0.74836333648E+02  0.22556029664E+03  0.17200000000E+03 0.  1.
         -6    1    1    2    0  503  0.29588408932E+02  0.12172714013E+03 -0.35132729904E+03  0.41074060140E+03  0.17200000000E+03 0.  1.
</event>
<event>
 4    1  0.4487206E+000  0.1846012E+03  0.7818608E-02  0.1163423E+00
         21   -1    0    0  503  502  0.00000000000E+00  0.00000000000E+00  0.16286429855E+04  0.16286429855E+04  0.00000000000E+00 0.  1.
         21   -1    0    0  501  503 -0.00000000000E+00 -0.00000000000E+00 -0.22196348213E+02  0.22196348213E+02  0.00000000000E+00 0.  1.
          6    1    1    2  501    0 -0.57929052420E+02  0.33731892438E+02  0.60559527029E+03  0.63310603147E+03  0.17200000000E+03 0.  1.
         -6    1    1    2    0  502  0.57929052420E+02 -0.33731892438E+02  0.10008513670E+04  0.10177333023E+04  0.17200000000E+03 0.  1.
</event>
<event>
 4    1  0.4487206E+000  0.1735347E+03  0.7818608E-02  0.1174211E+00
         21   -1    0    0  503  502  0.00000000000E+00  0.00000000000E+00  0.74956626000E+03  0.74956626000E+03  0.00000000000E+00 0. -1.
         21   -1    0    0  501  503 -0.00000000000E+00 -0.00000000000E+00 -0.24113095687E+03  0.24113095687E+03  0.00000000000E+00 0. -1.
          6    1    1    2  501    0  0.22869307774E+02  0.27024060589E+01 -0.19798614823E+03  0.26327328601E+03  0.17200000000E+03 0. -1.
         -6    1    1    2    0  502 -0.22869307774E+02 -0.27024060589E+01  0.70642145136E+03  0.72742393085E+03  0.17200000000E+03 0. -1.
</event>
<event>
 4    1  0.4487206E+000  0.2117460E+03  0.7818608E-02  0.1140191E+00
         21   -1    0    0  501  502  0.00000000000E+00  0.00000000000E+00  0.34958137509E+02  0.34958137509E+02  0.00000000000E+00 0.  1.
         21   -1    0    0  502  503 -0.00000000000E+00 -0.00000000000E+00 -0.12841864751E+04  0.12841864751E+04  0.00000000000E+00 0.  1.
          6    1    1    2  501    0  0.64583762678E+02  0.10526768483E+03 -0.60123177962E+03  0.63742921230E+03  0.17200000000E+03 0.  1.
         -6    1    1    2    0  503 -0.64583762678E+02 -0.10526768483E+03 -0.64799655794E+03  0.68171540028E+03  0.17200000000E+03 0.  1.
</event>
<event>
 4    1  0.4487206E+000  0.1915029E+03  0.7818608E-02  0.1157113E+00
         21   -1    0    0  501  502  0.00000000000E+00  0.00000000000E+00  0.43113190924E+02  0.43113190924E+02  0.00000000000E+00 0. -1.
         21   -1    0    0  502  503 -0.00000000000E+00 -0.00000000000E+00 -0.91665170134E+03  0.91665170134E+03  0.00000000000E+00 0. -1.
          6    1    1    2  501    0  0.76208357766E+02  0.35800292868E+02 -0.30798108992E+03  0.36266475775E+03  0.17200000000E+03 0.  1.
         -6    1    1    2    0  503 -0.76208357766E+02 -0.35800292868E+02 -0.56555742050E+03  0.59710013452E+03  0.17200000000E+03 0.  1.
</event>
<event>
 4    1  0.4487206E+000  0.1739984E+03  0.7818608E-02  0.1173741E+00
         21   -1    0    0  501  502  0.00000000000E+00  0.00000000000E+00  0.11256676748E+04  0.11256676748E+04  0.00000000000E+00 0. -1.
         21   -1    0    0  502  503 -0.00000000000E+00 -0.00000000000E+00 -0.26897838584E+02  0.26897838584E+02  0.00000000000E+00 0. -1.
          6    1    1    2  501    0 -0.25328807532E+02 -0.70642947060E+01  0.54407078830E+03  0.57121666242E+03  0.17200000000E+03 0. -1.
         -6    1    1    2    0  503  0.25328807532E+02  0.70642947060E+01  0.55469904791E+03  0.58134885095E+03  0.17200000000E+03 0. -1.
</event>
<event>
 4    1  0.4487206E+000  0.2515217E+03  0.7818608E-02  0.1112347E+00
         21   -1    0    0  501  502  0.00000000000E+00  0.00000000000E+00  0.21014995912E+03  0.21014995912E+03  0.00000000000E+00 0. -1.
         21   -1    0    0  502  503 -0.00000000000E+00 -0.00000000000E+00 -0.31578349490E+03  0.31578349490E+03  0.00000000000E+00 0. -1.
          6    1    1    2  501    0  0.15464458099E+03  0.98814141743E+02  0.40072220249E+01  0.25155365008E+03  0.17200000000E+03 0. -1.
         -6    1    1    2    0  503 -0.15464458099E+03 -0.98814141743E+02 -0.10964075781E+03  0.27437980394E+03  0.17200000000E+03 0. -1.
</event>
<event>
 4    1  0.4487206E+000  0.2238964E+03  0.7818608E-02  0.1131011E+00
         21   -1    0    0  503  502  0.00000000000E+00  0.00000000000E+00  0.70719881687E+03  0.70719881687E+03  0.00000000000E+00 0.  1.
         21   -1    0    0  501  503 -0.00000000000E+00 -0.00000000000E+00 -0.12021728716E+03  0.12021728716E+03  0.00000000000E+00 0.  1.
          6    1    1    2  501    0 -0.14205938337E+03  0.19097831794E+02  0.28471566564E+02  0.22569941445E+03  0.17200000000E+03 0.  1.
         -6    1    1    2    0  502  0.14205938337E+03 -0.19097831794E+02  0.55850996315E+03  0.60171668958E+03  0.17200000000E+03 0.  1.
</event>
<event>
 4    1  0.4487206E+000  0.2117198E+03  0.7818608E-02  0.1140211E+00
         21   -1    0    0  503  502  0.00000000000E+00  0.00000000000E+00  0.10440764329E+03  0.10440764329E+03  0.00000000000E+00 0. -1.
         21   -1    0    0  501  503 -0.00000000000E+00 -0.00000000000E+00 -0.43432589344E+03  0.43432589344E+03  0.00000000000E+00 0. -1.
          6    1    1    2  501    0 -0.79423618790E+02 -0.94515506930E+02 -0.19384994703E+03  0.28705939148E+03  0.17200000000E+03 0. -1.
         -6    1    1    2    0  502  0.79423618790E+02  0.94515506930E+02 -0.13606830312E+03  0.25167414525E+03  0.17200000000E+03 0. -1.
</event>
<event>
 4    1  0.4487206E+000  0.2271030E+03  0.7818608E-02  0.1128696E+00
         21   -1    0    0  503  502  0.00000000000E+00  0.00000000000E+00  0.23145172568E+03  0.23145172568E+03  0.00000000000E+00 0. -1.
         21   -1    0    0  501  503 -0.00000000000E+00 -0.00000000000E+00 -0.27682691508E+03  0.27682691508E+03  0.00000000000E+00 0. -1.
          6    1    1    2  501    0 -0.14180630566E+03  0.43390802758E+02 -0.13492246781E+03  0.26415878257E+03  0.17200000000E+03 0. -1.
         -6    1    1    2    0  502  0.14180630566E+03 -0.43390802758E+02  0.89547278418E+02  0.24411985819E+03  0.17200000000E+03 0. -1.
</event>
<event>
 4    1  0.4487206E+000  0.1857544E+03  0.7818608E-02  0.1162347E+00
         21   -1    0    0  503  502  0.00000000000E+00  0.00000000000E+00  0.13548102436E+03  0.13548102436E+03  0.00000000000E+00 0.  1.
         21   -1    0    0  501  503 -0.00000000000E+00 -0.00000000000E+00 -0.86956994471E+03  0.86956994471E+03  0.00000000000E+00 0.  1.
          6    1    1    2  501    0  0.62027294554E+02  0.32761567266E+02 -0.78961915651E+03  0.81117391347E+03  0.17200000000E+03 0.  1.
         -6    1    1    2    0  502 -0.62027294554E+02 -0.32761567266E+02  0.55530236166E+02  0.19387705560E+03  0.17200000000E+03 0.  1.
</event>
<event>
 4    1  0.4487206E+000  0.2064863E+03  0.7818608E-02  0.1144379E+00
         21   -1    0    0  501  502  0.00000000000E+00  0.00000000000E+00  0.51245845880E+03  0.51245845880E+03  0.00000000000E+00 0.  1.
         21   -1    0    0  502  503 -0.00000000000E+00 -0.00000000000E+00 -0.21321411347E+03  0.21321411347E+03  0.00000000000E+00 0.  1.
          6    1    1    2  501    0  0.86184630097E+02  0.74998790985E+02  0.43295557390E+03  0.47967399146E+03  0.17200000000E+03 0.  1.
         -6    1    1    2    0  503 -0.86184630097E+02 -0.74998790985E+02 -0.13371122857E+03  0.24599858081E+03  0.17200000000E+03 0.  1.
</event>
<event>
 4    1  0.4487206E+000  0.2410035E+03  0.7818608E-02  0.1119126E+00
         21   -1    0    0  501  502  0.00000000000E+00  0.00000000000E+00  0.31916715697E+02  0.31916715697E+02  0.00000000000E+00 0. -1.
         21   -1    0    0  502  503 -0.00000000000E+00 -0.00000000000E+00 -0.18226022878E+04  0.18226022878E+04  0.00000000000E+00 0. -1.
          6    1    1    2  501    0  0.43047704007E+02  0.16323472339E+03 -0.85911422980E+03  0.89227794974E+03  0.17200000000E+03 0. -1.
         -6    1    1    2    0  503 -0.43047704007E+02 -0.16323472339E+03 -0.93157134227E+03  0.96224105373E+03  0.17200000000E+03 0. -1.
</event>
<event>
 4    1  0.4487206E+000  0.1750787E+03  0.7818608E-02  0.1172653E+00
         21   -1    0    0  501  502  0.00000000000E+00  0.00000000000E+00  0.71830600945E+03  0.71830600945E+03  0.00000000000E+00 0. -1.
         21   -1    0    0  502  503 -0.00000000000E+00 -0.00000000000E+00 -0.75437070443E+02  0.75437070443E+02  0.00000000000E+00 0. -1.
          6    1    1    2  501    0 -0.26014564212E+02 -0.19794168707E+02  0.58298388808E+03  0.60870582421E+03  0.17200000000E+03 0. -1.
         -6    1    1    2    0  503  0.26014564212E+02  0.19794168707E+02  0.59885050926E+02  0.18503725568E+03  0.17200000000E+03 0. -1.
</event>
<event>
 4    1  0.4487206E+000  0.2023099E+03  0.7818608E-02  0.1147805E+00
         21   -1    0    0  503  502  0.00000000000E+00  0.00000000000E+00  0.44928471423E+03  0.44928471423E+03  0.00000000000E+00 0.  1.
         21   -1    0    0  501  503 -0.00000000000E+00 -0.00000000000E+00 -0.10340712565E+03  0.10340712565E+03  0.00000000000E+00 0. -1.
          6    1    1    2  501    0 -0.12824650574E+02  0.10573933812E+03  0.77598154885E+02  0.21668122422E+03  0.17200000000E+03 0.  1.
         -6    1    1    2    0  502  0.12824650574E+02 -0.10573933812E+03  0.26827943370E+03  0.33601061566E+03  0.17200000000E+03 0.  1.
</event>
<event>
 4    1  0.4487206E+000  0.1903003E+03  0.7818608E-02  0.1158191E+00
         21   -1    0    0  501  502  0.00000000000E+00  0.00000000000E+00  0.62602374077E+03  0.62602374077E+03  0.00000000000E+00 0.  1.
         21   -1    0    0  502  503 -0.00000000000E+00 -0.00000000000E+00 -0.87335430306E+02  0.87335430306E+02  0.00000000000E+00 0.  1.
          6    1    1    2  501    0  0.24884725961E+02  0.77530337973E+02  0.47659757344E+03  0.51318559011E+03  0.17200000000E+03 0.  1.
         -6    1    1    2    0  503 -0.24884725961E+02 -0.77530337973E+02  0.62090737031E+02  0.20017358097E+03  0.17200000000E+03 0.  1.
</event>
<event>
 4    1  0.4487206E+000  0.1877002E+03  0.7818608E-02  0.1160552E+00
         21   -1    0    0  501  502  0.00000000000E+00  0.00000000000E+00  0.23546071114E+03  0.23546071114E+03  0.00000000000E+00 0.  1.
         21   -1    0    0  502  503 -0.00000000000E+00 -0.00000000000E+00 -0.22731364070E+03  0.22731364070E+03  0.00000000000E+00 0.  1.
          6    1    1    2  501    0 -0.95494907717E+01 -0.74539842984E+02  0.13934260614E+03  0.23376856686E+03  0.17200000000E+03 0.  1.
         -6    1    1    2    0  503  0.95494907717E+01  0.74539842984E+02 -0.13119553570E+03  0.22900578498E+03  0.17200000000E+03 0.  1.
</event>
<event>
 4    1  0.4487206E+000  0.1913951E+03  0.7818608E-02  0.1157209E+00
         21   -1    0    0  503  502  0.00000000000E+00  0.00000000000E+00  0.76229586757E+03  0.76229586757E+03  0.00000000000E+00 0.  1.
         21   -1    0    0  501  503 -0.00000000000E+00 -0.00000000000E+00 -0.68224756930E+02  0.68224756930E+02  0.00000000000E+00 0. -1.
          6    1    1    2  501    0 -0.56787127346E+02  0.61832849759E+02  0.12124776740E+03  0.22656809184E+03  0.17200000000E+03 0. -1.
         -6    1    1    2    0  502  0.56787127346E+02 -0.61832849759E+02  0.57282334325E+03  0.60395253266E+03  0.17200000000E+03 0.  1.
</event>
<event>
 4    1  0.4487206E+000  0.3844230E+03  0.7818608E-02  0.1049311E+00
         21   -1    0    0  503  502  0.00000000000E+00  0.00000000000E+00  0.10742643095E+04  0.10742643095E+04  0.00000000000E+00 0. -1.
         21   -1    0    0  501  503 -0.00000000000E+00 -0.00000000000E+00 -0.54013745686E+03  0.54013745686E+03  0.00000000000E+00 0.  1.
          6    1    1    2  501    0  0.21418864094E+03 -0.26892433739E+03 -0.42980623605E+03  0.57664067988E+03  0.17200000000E+03 0.  1.
         -6    1    1    2    0  502 -0.21418864094E+03  0.26892433739E+03  0.96393308872E+03  0.10377610865E+04  0.17200000000E+03 0. -1.
</event>
<event>
 4    1  0.4487206E+000  0.1943862E+03  0.7818608E-02  0.1154564E+00
         21   -1    0    0  503  502  0.00000000000E+00  0.00000000000E+00  0.15518807612E+04  0.15518807612E+04  0.00000000000E+00 0.  1.
         21   -1    0    0  501  503 -0.00000000000E+00 -0.00000000000E+00 -0.25121430958E+02  0.25121430958E+02  0.00000000000E+00 0.  1.
          6    1    1    2  501    0 -0.61919219441E+00  0.90562842119E+02  0.90168619043E+03  0.92240121302E+03  0.17200000000E+03 0.  1.
         -6    1    1    2    0  502  0.61919219441E+00 -0.90562842119E+02  0.62507313980E+03  0.65460097912E+03  0.17200000000E+03 0.  1.
</event>
<event>
 4    1  0.4487206E+000  0.1961283E+03  0.7818608E-02  0.1153047E+00
         21   -1    0    0  501  502  0.00000000000E+00  0.00000000000E+00  0.43264058696E+02  0.43264058696E+02  0.00000000000E+00 0.  1.
         21   -1    0    0  502  503 -0.00000000000E+00 -0.00000000000E+00 -0.12273733958E+04  0.12273733958E+04  0.00000000000E+00 0.  1.
          6    1    1    2  501    0  0.75728852688E+02  0.56102125984E+02 -0.25852554080E+03  0.32450233114E+03  0.17200000000E+03 0.  1.
         -6    1    1    2    0  503 -0.75728852688E+02 -0.56102125984E+02 -0.92558379630E+03  0.94613512335E+03  0.17200000000E+03 0.  1.
</event>
<event>
 4    1  0.4487206E+000  0.1808582E+03  0.7818608E-02  0.1166975E+00
         21   -1    0    0  503  502  0.00000000000E+00  0.00000000000E+00  0.12468969169E+03  0.12468969169E+03  0.00000000000E+00 0.  1.
         21   -1    0    0  501  503 -0.00000000000E+00 -0.00000000000E+00 -0.43747838396E+03  0.43747838396E+03  0.00000000000E+00 0.  1.
          6    1    1    2  501    0 -0.54364275754E+02 -0.13047001551E+02 -0.33424784929E+03  0.38004121287E+03  0.17200000000E+03 0.  1.
         -6    1    1    2    0  502  0.54364275754E+02  0.13047001551E+02  0.21459157020E+02  0.18212686278E+03  0.17200000000E+03 0.  1.
</event>
<event>
 4    1  0.4487206E+000  0.3356462E+03  0.7818608E-02  0.1068666E+00
         21   -1    0    0  501  502  0.00000000000E+00  0.00000000000E+00  0.15127698079E+03  0.15127698079E+03  0.00000000000E+00 0.  1.
         21   -1    0    0  502  503 -0.00000000000E+00 -0.00000000000E+00 -0.76972314846E+03  0.76972314846E+03  0.00000000000E+00 0. -1.
          6    1    1    2  501    0  0.89861347495E+01 -0.28808618634E+03 -0.22622009304E+03  0.40476404469E+03  0.17200000000E+03 0.  1.
         -6    1    1    2    0  503 -0.89861347495E+01  0.28808618634E+03 -0.39222607463E+03  0.51623608456E+03  0.17200000000E+03 0.  1.
</event>
<event>
 4    1  0.4487206E+000  0.1877474E+03  0.7818608E-02  0.1160509E+00
         21   -1    0    0  503  502  0.00000000000E+00  0.00000000000E+00  0.35952196247E+02  0.35952196247E+02  0.00000000000E+00 0.  1.
         21   -1    0    0  501  503 -0.00000000000E+00 -0.00000000000E+00 -0.12570825036E+04  0.12570825036E+04  0.00000000000E+00 0.  1.
          6    1    1    2  501    0 -0.31960446597E+02 -0.68143958132E+02 -0.91385342035E+03  0.93294005331E+03  0.17200000000E+03 0.  1.
         -6    1    1    2    0  502  0.31960446597E+02  0.68143958132E+02 -0.30727688696E+03  0.36009464650E+03  0.17200000000E+03 0.  1.
</event>
<event>
 4    1  0.4487206E+000  0.1999473E+03  0.7818608E-02  0.1149783E+00
         21   -1    0    0  501  502  0.00000000000E+00  0.00000000000E+00  0.62932551153E+03  0.62932551153E+03  0.00000000000E+00 0.  1.
         21   -1    0    0  502  503 -0.00000000000E+00 -0.00000000000E+00 -0.63789142748E+02  0.63789142748E+02  0.00000000000E+00 0.  1.
          6    1    1    2  501    0  0.25907252109E+02 -0.98609084212E+02  0.30499954366E+03  0.36469666688E+03  0.17200000000E+03 0.  1.
         -6    1    1    2    0  503 -0.25907252109E+02  0.98609084212E+02  0.26053682512E+03  0.32841798740E+03  0.17200000000E+03 0.  1.
</event>
<event>
 4    1  0.4487206E+000  0.2081965E+03  0.7818608E-02  0.1143002E+00
         21   -1    0    0  503  502  0.00000000000E+00  0.00000000000E+00  0.10287448694E+04  0.10287448694E+04  0.00000000000E+00 0.  1.
         21   -1    0    0  501  503 -0.00000000000E+00 -0.00000000000E+00 -0.43722442785E+02  0.43722442785E+02  0.00000000000E+00 0. -1.
          6    1    1    2  501    0  0.68361784808E+02 -0.95333306453E+02  0.39032247557E+03  0.44237699746E+03  0.17200000000E+03 0. -1.
         -6    1    1    2    0  502 -0.68361784808E+02  0.95333306453E+02  0.59469995100E+03  0.63009031469E+03  0.17200000000E+03 0.  1.
</event>
<event>
 4    1  0.4487206E+000  0.2011475E+03  0.7818608E-02  0.1148774E+00
         21   -1    0    0  501  502  0.00000000000E+00  0.00000000000E+00  0.47437820733E+02  0.47437820733E+02  0.00000000000E+00 0.  1.
         21   -1    0    0  502  503 -0.00000000000E+00 -0.00000000000E+00 -0.90471005865E+03  0.90471005865E+03  0.00000000000E+00 0.  1.
          6    1    1    2  501    0  0.10192756448E+03 -0.22070281188E+02 -0.54254903796E+03  0.57863614155E+03  0.17200000000E+03 0.  1.
         -6    1    1    2    0  503 -0.10192756448E+03  0.22070281188E+02 -0.31472319996E+03  0.37351173784E+03  0.17200000000E+03 0.  1.
</event>
<event>
 4    1  0.4487206E+000  0.2143277E+03  0.7818608E-02  0.1138184E+00
         21   -1    0    0  503  502  0.00000000000E+00  0.00000000000E+00  0.14435223151E+03  0.14435223151E+03  0.00000000000E+00 0.  1.
         21   -1    0    0  501  503 -0.00000000000E+00 -0.00000000000E+00 -0.32878578888E+03  0.32878578888E+03  0.00000000000E+00 0.  1.
          6    1    1    2  501    0  0.42162449059E+02 -0.12072559863E+03 -0.13461722174E+03  0.25309709335E+03  0.17200000000E+03 0. -1.
         -6    1    1    2    0  502 -0.42162449059E+02  0.12072559863E+03 -0.49816335631E+02  0.22004092703E+03  0.17200000000E+03 0. -1.
</event>
<event>
 4    1  0.4487206E+000  0.2378045E+03  0.7818608E-02  0.1121264E+00
         21   -1    0    0  503  502  0.00000000000E+00  0.00000000000E+00  0.25869188373E+03  0.25869188373E+03  0.00000000000E+00 0.  1.
         21   -1    0    0  501  503 -0.00000000000E+00 -0.00000000000E+00 -0.58977477495E+03  0.58977477495E+03  0.00000000000E+00 0.  1.
          6    1    1    2  501    0  0.11939338431E+03 -0.11274845464E+03 -0.50209080679E+03  0.55555933302E+03  0.17200000000E+03 0.  1.
         -6    1    1    2    0  502 -0.11939338431E+03  0.11274845464E+03  0.17100791557E+03  0.29290732567E+03  0.17200000000E+03 0.  1.
</event>
<event>
 4    1  0.4487206E+000  0.3003236E+03  0.7818608E-02  0.1085079E+00
         21   -1    0    0  503  502  0.00000000000E+00  0.00000000000E+00  0.19372517728E+03  0.19372517728E+03  0.00000000000E+00 0. -1.
         21   -1    0    0  501  503 -0.00000000000E+00 -0.00000000000E+00 -0.50523482918E+03  0.50523482918E+03  0.00000000000E+00 0.  1.
          6    1    1    2  501    0  0.12612475949E+03 -0.21143034343E+03 -0.25366613580E+03  0.39311671744E+03  0.17200000000E+03 0. -1.
         -6    1    1    2    0  502 -0.12612475949E+03  0.21143034343E+03 -0.57843516098E+02  0.30584328901E+03  0.17200000000E+03 0.  1.
</event>
<event>
 4    1  0.4487206E+000  0.2874569E+03  0.7818608E-02  0.1091684E+00
         21   -1    0    0  503  502  0.00000000000E+00  0.00000000000E+00  0.68221531627E+02  0.68221531627E+02  0.00000000000E+00 0. -1.
         21   -1    0    0  501  503 -0.00000000000E+00 -0.00000000000E+00 -0.12503527517E+04  0.12503527517E+04  0.00000000000E+00 0.  1.
          6    1    1    2  501    0  0.17810873395E+03  0.14602988316E+03 -0.70769692010E+03  0.76384970944E+03  0.17200000000E+03 0. -1.
         -6    1    1    2    0  502 -0.17810873395E+03 -0.14602988316E+03 -0.47443429995E+03  0.55472457387E+03  0.17200000000E+03 0.  1.
</event>
<event>
 4    1  0.4487206E+000  0.1943557E+03  0.7818608E-02  0.1154590E+00
         21   -1    0    0  501  502  0.00000000000E+00  0.00000000000E+00  0.52503663379E+03  0.52503663379E+03  0.00000000000E+00 0.  1.
         21   -1    0    0  502  503 -0.00000000000E+00 -0.00000000000E+00 -0.76076247424E+02  0.76076247424E+02  0.00000000000E+00 0.  1.
          6    1    1    2  501    0 -0.68548225508E+02 -0.59087052277E+02  0.29451343344E+03  0.35286300662E+03  0.17200000000E+03 0. -1.
         -6    1    1    2    0  503  0.68548225508E+02  0.59087052277E+02  0.15444695293E+03  0.24824987460E+03  0.17200000000E+03 0. -1.
</event>
<event>
 4    1  0.4487206E+000  0.1733996E+03  0.7818608E-02  0.1174348E+00
         21   -1    0    0  503  502  0.00000000000E+00  0.00000000000E+00  0.12200038138E+03  0.12200038138E+03  0.00000000000E+00 0. -1.
         21   -1    0    0  501  503 -0.00000000000E+00 -0.00000000000E+00 -0.24646871737E+03  0.24646871737E+03  0.00000000000E+00 0. -1.
          6    1    1    2  501    0  0.17808759149E+02 -0.12894018045E+02 -0.60781319037E+02  0.18374377907E+03  0.17200000000E+03 0. -1.
         -6    1    1    2    0  502 -0.17808759149E+02  0.12894018045E+02 -0.63687016955E+02  0.18472531968E+03  0.17200000000E+03 0. -1.
</event>
<event>
 4    1  0.4487206E+000  0.1954883E+03  0.7818608E-02  0.1153602E+00
         21   -1    0    0  501  502  0.00000000000E+00  0.00000000000E+00  0.17531084269E+03  0.17531084269E+03  0.00000000000E+00 0.  1.
         21   -1    0    0  502  503 -0.00000000000E+00 -0.00000000000E+00 -0.17184683871E+04  0.17184683871E+04  0.00000000000E+00 0.  1.
          6    1    1    2  501    0 -0.39960290037E+02  0.83873968772E+02  0.11321841877E+03  0.22590723266E+03  0.17200000000E+03 0.  1.
         -6    1    1    2    0  503  0.39960290037E+02 -0.83873968772E+02 -0.16563759632E+04  0.16678719972E+04  0.17200000000E+03 0.  1.
</event>
<event>
 4    1  0.4487206E+000  0.1791792E+03  0.7818608E-02  0.1168600E+00
         21   -1    0    0  503  502  0.00000000000E+00  0.00000000000E+00  0.42258364242E+03  0.42258364242E+03  0.00000000000E+00 0. -1.
         21   -1    0    0  501  503 -0.00000000000E+00 -0.00000000000E+00 -0.10555470980E+03  0.10555470980E+03  0.00000000000E+00 0.  1.
          6    1    1    2  501    0  0.43666390420E+02 -0.24787478645E+02  0.18721082252E+02  0.18015452165E+03  0.17200000000E+03 0.  1.
         -6    1    1    2    0  502 -0.43666390420E+02  0.24787478645E+02  0.29830785037E+03  0.34798383057E+03  0.17200000000E+03 0. -1.
</event>
<event>
 4    1  0.4487206E+000  0.1968900E+03  0.7818608E-02  0.1152390E+00
         21   -1    0    0  501  502  0.00000000000E+00  0.00000000000E+00  0.11372265977E+03  0.11372265977E+03  0.00000000000E+00 0. -1.
         21   -1    0    0  502  503 -0.00000000000E+00 -0.00000000000E+00 -0.39318109073E+03  0.39318109073E+03  0.00000000000E+00 0. -1.
          6    1    1    2  501    0 -0.20436400876E+02  0.93616358766E+02 -0.47289493983E+02  0.20248942034E+03  0.17200000000E+03 0. -1.
         -6    1    1    2    0  503  0.20436400876E+02 -0.93616358766E+02 -0.23216893697E+03  0.30441433016E+03  0.17200000000E+03 0. -1.
</event>
<event>
 4    1  0.4487206E+000  0.2516112E+03  0.7818608E-02  0.1112291E+00
         21   -1    0    0  503  502  0.00000000000E+00  0.00000000000E+00  0.28707097745E+03  0.28707097745E+03  0.00000000000E+00 0. -1.
         21   -1    0    0  501  503 -0.00000000000E+00 -0.00000000000E+00 -0.33498757260E+03  0.33498757260E+03  0.00000000000E+00 0.  1.
          6    1    1    2  501    0  0.18359427415E+03 -0.41631190393E+01 -0.20576352560E+03  0.32503356370E+03  0.17200000000E+03 0.  1.
         -6    1    1    2    0  502 -0.18359427415E+03  0.41631190393E+01  0.15784693045E+03  0.29702498635E+03  0.17200000000E+03 0. -1.
</event>
<event>
 4    1  0.4487206E+000  0.2711485E+03  0.7818608E-02  0.1100624E+00
         21   -1    0    0  501  502  0.00000000000E+00  0.00000000000E+00  0.55451423440E+03  0.55451423440E+03  0.00000000000E+00 0.  1.
         21   -1    0    0  502  503 -0.00000000000E+00 -0.00000000000E+00 -0.14487812435E+03  0.14487812435E+03  0.00000000000E+00 0. -1.
          6    1    1    2  501    0  0.20952092130E+03 -0.62058534290E+01  0.30667261996E+03  0.40935269013E+03  0.17200000000E+03 0.  1.
         -6    1    1    2    0  503 -0.20952092130E+03  0.62058534290E+01  0.10296349010E+03  0.29003966862E+03  0.17200000000E+03 0. -1.
</event>
<event>
 4    1  0.4487206E+000  0.1914976E+03  0.7818608E-02  0.1157117E+00
         21   -1    0    0  503  502  0.00000000000E+00  0.00000000000E+00  0.61061089135E+03  0.61061089135E+03  0.00000000000E+00 0.  1.
         21   -1    0    0  501  503 -0.00000000000E+00 -0.00000000000E+00 -0.62683267046E+02  0.62683267046E+02  0.00000000000E+00 0.  1.
          6    1    1    2  501    0 -0.84173100106E+02  0.14949104883E+01  0.20505357417E+03  0.28056784174E+03  0.17200000000E+03 0. -1.
         -6    1    1    2    0  502  0.84173100106E+02 -0.14949104883E+01  0.34287405013E+03  0.39272631665E+03  0.17200000000E+03 0. -1.
</event>
<event>
 4    1  0.4487206E+000  0.1853116E+03  0.7818608E-02  0.1162759E+00
         21   -1    0    0  501  502  0.00000000000E+00  0.00000000000E+00  0.61164265507E+02  0.61164265507E+02  0.00000000000E+00 0.  1.
         21   -1    0    0  502  503 -0.00000000000E+00 -0.00000000000E+00 -0.11630627990E+04  0.11630627990E+04  0.00000000000E+00 0.  1.
          6    1    1    2  501    0  0.21294492406E+01 -0.68933718566E+02 -0.11070813907E+03  0.21586265116E+03  0.17200000000E+03 0.  1.
         -6    1    1    2    0  503 -0.21294492406E+01  0.68933718566E+02 -0.99119039446E+03  0.10083644134E+04  0.17200000000E+03 0.  1.
</event>
<event>
 4    1  0.4487206E+000  0.1721510E+03  0.7818608E-02  0.1175623E+00
         21   -1    0    0  503  502  0.00000000000E+00  0.00000000000E+00  0.12173159127E+03  0.12173159127E+03  0.00000000000E+00 0. -1.
         21   -1    0    0  501  503 -0.00000000000E+00 -0.00000000000E+00 -0.14222920025E+04  0.14222920025E+04  0.00000000000E+00 0. -1.
          6    1    1    2  501    0  0.18455996517E+00  0.72063061677E+01 -0.13531206336E+04  0.13640276441E+04  0.17200000000E+03 0. -1.
         -6    1    1    2    0  502 -0.18455996517E+00 -0.72063061677E+01  0.52560222363E+02  0.17999594964E+03  0.17200000000E+03 0. -1.
</event>
<event>
 4    1  0.4487206E+000  0.2189137E+03  0.7818608E-02  0.1134696E+00
         21   -1    0    0  503  502  0.00000000000E+00  0.00000000000E+00  0.19460280197E+02  0.19460280197E+02  0.00000000000E+00 0. -1.
         21   -1    0    0  501  503 -0.00000000000E+00 -0.00000000000E+00 -0.26428064092E+04  0.26428064092E+04  0.00000000000E+00 0. -1.
          6    1    1    2  501    0 -0.13539388096E+03  0.27735553840E+01 -0.16592531070E+04  0.16736319992E+04  0.17200000000E+03 0. -1.
         -6    1    1    2    0  502  0.13539388096E+03 -0.27735553840E+01 -0.96409302197E+03  0.98863469018E+03  0.17200000000E+03 0. -1.
</event>
<event>
 4    1  0.4487206E+000  0.1767034E+03  0.7818608E-02  0.1171032E+00
         21   -1    0    0  501  502  0.00000000000E+00  0.00000000000E+00  0.65166918089E+03  0.65166918089E+03  0.00000000000E+00 0.  1.
         21   -1    0    0  502  503 -0.00000000000E+00 -0.00000000000E+00 -0.16366302484E+03  0.16366302484E+03  0.00000000000E+00 0.  1.
          6    1    1    2  501    0 -0.28913790901E+02 -0.28356613009E+02  0.58684025132E+03  0.61286669462E+03  0.17200000000E+03 0.  1.
         -6    1    1    2    0  503  0.28913790901E+02  0.28356613009E+02 -0.98834095261E+02  0.20246551112E+03  0.17200000000E+03 0.  1.
</event>
<event>
 4    1  0.4487206E+000  0.2452389E+03  0.7818608E-02  0.1116351E+00
         21   -1    0    0  501  502  0.00000000000E+00  0.00000000000E+00  0.64910862088E+03  0.64910862088E+03  0.00000000000E+00 0. -1.
         21   -1    0    0  502  503 -0.00000000000E+00 -0.00000000000E+00 -0.28173658710E+03  0.28173658710E+03  0.00000000000E+00 0.  1.
          6    1    1    2  501    0  0.14125185226E+03 -0.10298564165E+03  0.56497327373E+03  0.61590334321E+03  0.17200000000E+03 0. -1.
         -6    1    1    2    0  503 -0.14125185226E+03  0.10298564165E+03 -0.19760123995E+03  0.31494186476E+03  0.17200000000E+03 0.  1.
</event>
<event>
 4    1  0.4487206E+000  0.1876419E+03  0.7818608E-02  0.1160606E+00
         21   -1    0    0  501  502  0.00000000000E+00  0.00000000000E+00  0.22281616709E+03  0.22281616709E+03  0.00000000000E+00 0. -1.
         21   -1    0    0  502  503 -0.00000000000E+00 -0.00000000000E+00 -0.16640839955E+03  0.16640839955E+03  0.00000000000E+00 0. -1.
          6    1    1    2  501    0  0.27985448153E+02  0.69586501216E+02  0.71897270123E+02  0.20094447967E+03  0.17200000000E+03 0. -1.
         -6    1    1    2    0  503 -0.27985448153E+02 -0.69586501216E+02 -0.15489502585E+02  0.18828008697E+03  0.17200000000E+03 0. -1.
</event>
<event>
 4    1  0.4487206E+000  0.1861512E+03  0.7818608E-02  0.1161979E+00
         21   -1    0    0  503  502  0.00000000000E+00  0.00000000000E+00  0.13751487388E+04  0.13751487388E+04  0.00000000000E+00 0.  1.
         21   -1    0    0  501  503 -0.00000000000E+00 -0.00000000000E+00 -0.25333745356E+02  0.25333745356E+02  0.00000000000E+00 0.  1.
          6    1    1    2  501    0 -0.71108814152E+02  0.34384986125E+01  0.62382688901E+03  0.65100865906E+03  0.17200000000E+03 0.  1.
         -6    1    1    2    0  502  0.71108814152E+02 -0.34384986125E+01  0.72598810448E+03  0.74947382514E+03  0.17200000000E+03 0.  1.
</event>
<event>
 4    1  0.4487206E+000  0.1820607E+03  0.7818608E-02  0.1165823E+00
         21   -1    0    0  503  502  0.00000000000E+00  0.00000000000E+00  0.17669142976E+03  0.17669142976E+03  0.00000000000E+00 0. -1.
         21   -1    0    0  501  503 -0.00000000000E+00 -0.00000000000E+00 -0.25469806960E+03  0.25469806960E+03  0.00000000000E+00 0. -1.
          6    1    1    2  501    0  0.56111946590E+02 -0.20336285892E+02 -0.14971761159E+03  0.23571482409E+03  0.17200000000E+03 0. -1.
         -6    1    1    2    0  502 -0.56111946590E+02  0.20336285892E+02  0.71710971749E+02  0.19567467527E+03  0.17200000000E+03 0. -1.
</event>
<event>
 4    1  0.4487206E+000  0.2457665E+03  0.7818608E-02  0.1116010E+00
         21   -1    0    0  501  502  0.00000000000E+00  0.00000000000E+00  0.13634355549E+03  0.13634355549E+03  0.00000000000E+00 0.  1.
         21   -1    0    0  502  503 -0.00000000000E+00 -0.00000000000E+00 -0.44745280887E+03  0.44745280887E+03  0.00000000000E+00 0.  1.
          6    1    1    2  501    0 -0.44731707995E+02 -0.16975355974E+03 -0.18464948425E+03  0.30740303964E+03  0.17200000000E+03 0.  1.
         -6    1    1    2    0  503  0.44731707995E+02  0.16975355974E+03 -0.12645976913E+03  0.27639332472E+03  0.17200000000E+03 0.  1.
</event>
<event>
 4    1  0.4487206E+000  0.3003329E+03  0.7818608E-02  0.1085074E+00
         21   -1    0    0  501  502  0.00000000000E+00  0.00000000000E+00  0.15253019714E+03  0.15253019714E+03  0.00000000000E+00 0.  1.
         21   -1    0    0  502  503 -0.00000000000E+00 -0.00000000000E+00 -0.63090278503E+03  0.63090278503E+03  0.00000000000E+00 0. -1.
          6    1    1    2  501    0 -0.22185792429E+03  0.10674693419E+03 -0.14111564452E+03  0.33183349991E+03  0.17200000000E+03 0.  1.
         -6    1    1    2    0  503  0.22185792429E+03 -0.10674693419E+03 -0.33725694336E+03  0.45159948226E+03  0.17200000000E+03 0. -1.
</event>
<event>
 4    1  0.4487206E+000  0.2147348E+03  0.7818608E-02  0.1137870E+00
         21   -1    0    0  503  502  0.00000000000E+00  0.00000000000E+00  0.10383372927E+03  0.10383372927E+03  0.00000000000E+00 0.  1.
         21   -1    0    0  501  503 -0.00000000000E+00 -0.00000000000E+00 -0.11922952080E+04  0.11922952080E+04  0.00000000000E+00 0. -1.
          6    1    1    2  501    0  0.78175493116E+02  0.10205690519E+03 -0.10576097116E+04  0.10791891964E+04  0.17200000000E+03 0. -1.
         -6    1    1    2    0  502 -0.78175493116E+02 -0.10205690519E+03 -0.30851767127E+02  0.21693974084E+03  0.17200000000E+03 0.  1.
</event>
<event>
 4    1  0.4487206E+000  0.1927670E+03  0.7818608E-02  0.1155989E+00
         21   -1    0    0  501  502  0.00000000000E+00  0.00000000000E+00  0.33842175721E+02  0.33842175721E+02  0.00000000000E+00 0. -1.
         21   -1    0    0  502  503 -0.00000000000E+00 -0.00000000000E+00 -0.11334820404E+04  0.11334820404E+04  0.00000000000E+00 0. -1.
          6    1    1    2  501    0 -0.80818728212E+02 -0.32302335936E+02 -0.65306904836E+03  0.68092458442E+03  0.17200000000E+03 0. -1.
         -6    1    1    2    0  503  0.80818728212E+02  0.32302335936E+02 -0.44657081634E+03  0.48639963173E+03  0.17200000000E+03 0. -1.
</event>
<event>
 4    1  0.4487206E+000  0.1773448E+03  0.7818608E-02  0.1170398E+00
         21   -1    0    0  501  502  0.00000000000E+00  0.00000000000E+00  0.42195358288E+02  0.42195358288E+02  0.00000000000E+00 0. -1.
         21   -1    0    0  502  503 -0.00000000000E+00 -0.00000000000E+00 -0.78127344705E+03  0.78127344705E+03  0.00000000000E+00 0. -1.
          6    1    1    2  501    0  0.35431487210E+02  0.24734605217E+02 -0.45780199187E+03  0.49095198823E+03  0.17200000000E+03 0. -1.
         -6    1    1    2    0  503 -0.35431487210E+02 -0.24734605217E+02 -0.28127609689E+03  0.33251681711E+03  0.17200000000E+03 0. -1.
</event>
<event>
 4    1  0.4487206E+000  0.2489770E+03  0.7818608E-02  0.1113953E+00
         21   -1    0    0  503  502  0.00000000000E+00  0.00000000000E+00  0.14285452041E+04  0.14285452041E+04  0.00000000000E+00 0. -1.
         21   -1    0    0  501  503 -0.00000000000E+00 -0.00000000000E+00 -0.49617943576E+02  0.49617943576E+02  0.00000000000E+00 0. -1.
          6    1    1    2  501    0  0.12282630852E+03  0.13160260090E+03  0.42769115076E+03  0.49488308424E+03  0.17200000000E+03 0. -1.
         -6    1    1    2    0  502 -0.12282630852E+03 -0.13160260090E+03  0.95123610979E+03  0.98328006346E+03  0.17200000000E+03 0. -1.
</event>
<event>
 4    1  0.4487206E+000  0.2021479E+03  0.7818608E-02  0.1147939E+00
         21   -1    0    0  501  502  0.00000000000E+00  0.00000000000E+00  0.33631634646E+03  0.33631634646E+03  0.00000000000E+00 0.  1.
         21   -1    0    0  502  503 -0.00000000000E+00 -0.00000000000E+00 -0.18229580360E+03  0.18229580360E+03  0.00000000000E+00 0.  1.
          6    1    1    2  501    0 -0.64395808014E+02  0.84456861571E+02  0.22675338808E+03  0.30377768279E+03  0.17200000000E+03 0.  1.
         -6    1    1    2    0  503  0.64395808014E+02 -0.84456861571E+02 -0.72732845214E+02  0.21483446727E+03  0.17200000000E+03 0.  1.
</event>
<event>
 4    1  0.4487206E+000  0.2896143E+03  0.7818608E-02  0.1090551E+00
         21   -1    0    0  503  502  0.00000000000E+00  0.00000000000E+00  0.62278366720E+02  0.62278366720E+02  0.00000000000E+00 0.  1.
         21   -1    0    0  501  503 -0.00000000000E+00 -0.00000000000E+00 -0.13593898013E+04  0.13593898013E+04  0.00000000000E+00 0. -1.
          6    1    1    2  501    0 -0.17300330966E+03 -0.15608435368E+03 -0.71696499518E+03  0.77324981405E+03  0.17200000000E+03 0.  1.
         -6    1    1    2    0  502  0.17300330966E+03  0.15608435368E+03 -0.58014643937E+03  0.64841835394E+03  0.17200000000E+03 0.  1.
</event>
<event>
 4    1  0.4487206E+000  0.2205916E+03  0.7818608E-02  0.1133443E+00
         21   -1    0    0  503  502  0.00000000000E+00  0.00000000000E+00  0.42523831106E+02  0.42523831106E+02  0.00000000000E+00 0.  1.
         21   -1    0    0  501  503 -0.00000000000E+00 -0.00000000000E+00 -0.11456415952E+04  0.11456415952E+04  0.00000000000E+00 0. -1.
          6    1    1    2  501    0 -0.13803423702E+03  0.48169846006E+01 -0.57177541123E+03  0.61285216391E+03  0.17200000000E+03 0. -1.
         -6    1    1    2    0  502  0.13803423702E+03 -0.48169846006E+01 -0.53134235285E+03  0.57531326237E+03  0.17200000000E+03 0.  1.
</event>
<event>
 4    1  0.4487206E+000  0.2115771E+03  0.7818608E-02  0.1140323E+00
         21   -1    0    0  503  502  0.00000000000E+00  0.00000000000E+00  0.10565138282E+03  0.10565138282E+03  0.00000000000E+00 0. -1.
         21   -1    0    0  501  503 -0.00000000000E+00 -0.00000000000E+00 -0.46910286360E+03  0.46910286360E+03  0.00000000000E+00 0. -1.
          6    1    1    2  501    0  0.93917800433E+02  0.79751682703E+02 -0.27112665703E+03  0.34391066905E+03  0.17200000000E+03 0. -1.
         -6    1    1    2    0  502 -0.93917800433E+02 -0.79751682703E+02 -0.92324823751E+02  0.23084357737E+03  0.17200000000E+03 0. -1.
</event>
<event>
 4    1  0.4487206E+000  0.3967643E+03  0.7818608E-02  0.1044906E+00
         21   -1    0    0  501  502  0.00000000000E+00  0.00000000000E+00  0.26249143564E+03  0.26249143564E+03  0.00000000000E+00 0. -1.
         21   -1    0    0  502  503 -0.00000000000E+00 -0.00000000000E+00 -0.13923803907E+04  0.13923803907E+04  0.00000000000E+00 0. -1.
          6    1    1    2  501    0  0.28508922503E+02  0.35640593394E+03  0.59362783169E+02  0.40118061822E+03  0.17200000000E+03 0. -1.
         -6    1    1    2    0  503 -0.28508922503E+02 -0.35640593394E+03 -0.11892517382E+04  0.12536912081E+04  0.17200000000E+03 0. -1.
</event>
<event>
 4    1  0.4487206E+000  0.2884400E+03  0.7818608E-02  0.1091166E+00
         21   -1    0    0  503  502  0.00000000000E+00  0.00000000000E+00  0.77749077605E+03  0.77749077605E+03  0.00000000000E+00 0. -1.
         21   -1    0    0  501  503 -0.00000000000E+00 -0.00000000000E+00 -0.10878810753E+03  0.10878810753E+03  0.00000000000E+00 0.  1.
          6    1    1    2  501    0 -0.19889815564E+03  0.11854599648E+03  0.27766360891E+03  0.40036821716E+03  0.17200000000E+03 0.  1.
         -6    1    1    2    0  502  0.19889815564E+03 -0.11854599648E+03  0.39103905961E+03  0.48591066642E+03  0.17200000000E+03 0. -1.
</event>
<event>
 4    1  0.4487206E+000  0.1743912E+03  0.7818608E-02  0.1173344E+00
         21   -1    0    0  501  502  0.00000000000E+00  0.00000000000E+00  0.55664652573E+03  0.55664652573E+03  0.00000000000E+00 0.  1.
         21   -1    0    0  502  503 -0.00000000000E+00 -0.00000000000E+00 -0.72471547810E+02  0.72471547810E+02  0.00000000000E+00 0. -1.
          6    1    1    2  501    0  0.18243341841E+02 -0.22259501794E+02  0.39814170444E+03  0.43465977702E+03  0.17200000000E+03 0.  1.
         -6    1    1    2    0  503 -0.18243341841E+02  0.22259501794E+02  0.86033273480E+02  0.19445829652E+03  0.17200000000E+03 0. -1.
</event>
<event>
 4    1  0.4487206E+000  0.2481076E+03  0.7818608E-02  0.1114507E+00
         21   -1    0    0  503  502  0.00000000000E+00  0.00000000000E+00  0.10189618543E+04  0.10189618543E+04  0.00000000000E+00 0. -1.
         21   -1    0    0  501  503 -0.00000000000E+00 -0.00000000000E+00 -0.80920948841E+02  0.80920948841E+02  0.00000000000E+00 0. -1.
          6    1    1    2  501    0  0.16216828439E+03  0.75331333272E+02  0.19216102943E+03  0.31382036815E+03  0.17200000000E+03 0.  1.
         -6    1    1    2    0  502 -0.16216828439E+03 -0.75331333272E+02  0.74587987603E+03  0.78606243499E+03  0.17200000000E+03 0.  1.
</event>
<event>
 4    1  0.4487206E+000  0.1912544E+03  0.7818608E-02  0.1157335E+00
         21   -1    0    0  501  502  0.00000000000E+00  0.00000000000E+00  0.44227257209E+03  0.44227257209E+03  0.00000000000E+00 0. -1.
         21   -1    0    0  502  503 -0.00000000000E+00 -0.00000000000E+00 -0.12427135946E+03  0.12427135946E+03  0.00000000000E+00 0. -1.
          6    1    1    2  501    0  0.66894947355E+02 -0.50192886547E+02  0.32282848395E+03  0.37522858352E+03  0.17200000000E+03 0. -1.
         -6    1    1    2    0  503 -0.66894947355E+02  0.50192886547E+02 -0.48272713172E+01  0.19131534803E+03  0.17200000000E+03 0. -1.
</event>
<event>
 4    1  0.4487206E+000  0.2130320E+03  0.7818608E-02  0.1139187E+00
         21   -1    0    0  503  502  0.00000000000E+00  0.00000000000E+00  0.41212071609E+03  0.41212071609E+03  0.00000000000E+00 0. -1.
         21   -1    0    0  501  503 -0.00000000000E+00 -0.00000000000E+00 -0.13252644997E+03  0.13252644997E+03  0.00000000000E+00 0. -1.
          6    1    1    2  501    0 -0.10933684071E+03 -0.62000627292E+02  0.27821609711E+02  0.21484102143E+03  0.17200000000E+03 0. -1.
         -6    1    1    2    0  502  0.10933684071E+03  0.62000627292E+02  0.25177265641E+03  0.32980614463E+03  0.17200000000E+03 0. -1.
</event>
<event>
 4    1  0.4487206E+000  0.2006221E+03  0.7818608E-02  0.1149215E+00
         21   -1    0    0  501  502  0.00000000000E+00  0.00000000000E+00  0.16280643020E+03  0.16280643020E+03  0.00000000000E+00 0.  1.
         21   -1    0    0  502  503 -0.00000000000E+00 -0.00000000000E+00 -0.27581260502E+03  0.27581260502E+03  0.00000000000E+00 0. -1.
          6    1    1    2  501    0  0.93057920232E+02 -0.44782213425E+02  0.14107063823E+02  0.20111745923E+03  0.17200000000E+03 0. -1.
         -6    1    1    2    0  503 -0.93057920232E+02  0.44782213425E+02 -0.12711323864E+03  0.23750157598E+03  0.17200000000E+03 0.  1.
</event>
<event>
 4    1  0.4487206E+000  0.2340502E+03  0.7818608E-02  0.1123821E+00
         21   -1    0    0  501  502  0.00000000000E+00  0.00000000000E+00  0.18626395999E+03  0.18626395999E+03  0.00000000000E+00 0. -1.
         21   -1    0    0  502  503 -0.00000000000E+00 -0.00000000000E+00 -0.47836090634E+03  0.47836090634E+03  0.00000000000E+00 0. -1.
          6    1    1    2  501    0  0.55593199420E+02 -0.14867708909E+03  0.60199693535E+02  0.24166812728E+03  0.17200000000E+03 0. -1.
         -6    1    1    2    0  503 -0.55593199420E+02  0.14867708909E+03 -0.35229663988E+03  0.42295673905E+03  0.17200000000E+03 0. -1.
</event>
<event>
 4    1  0.4487206E+000  0.2000599E+03  0.7818608E-02  0.1149689E+00
         21   -1    0    0  503  502  0.00000000000E+00  0.00000000000E+00  0.10194330316E+03  0.10194330316E+03  0.00000000000E+00 0. -1.
         21   -1    0    0  501  503 -0.00000000000E+00 -0.00000000000E+00 -0.51729048140E+03  0.51729048140E+03  0.00000000000E+00 0. -1.
          6    1    1    2  501    0 -0.81673444695E+02 -0.61395440934E+02 -0.55668970404E+02  0.20766074738E+03  0.17200000000E+03 0. -1.
         -6    1    1    2    0  502  0.81673444695E+02  0.61395440934E+02 -0.35967820784E+03  0.41157303718E+03  0.17200000000E+03 0. -1.
</event>
<event>
 4    1  0.4487206E+000  0.5011339E+03  0.7818608E-02  0.1013483E+00
         21   -1    0    0  501  502  0.00000000000E+00  0.00000000000E+00  0.16383180946E+04  0.16383180946E+04  0.00000000000E+00 0. -1.
         21   -1    0    0  502  503 -0.00000000000E+00 -0.00000000000E+00 -0.19298735808E+03  0.19298735808E+03  0.00000000000E+00 0.  1.
          6    1    1    2  501    0  0.42334180693E+03  0.20574972342E+03  0.11379593783E+04  0.12434173800E+04  0.17200000000E+03 0. -1.
         -6    1    1    2    0  503 -0.42334180693E+03 -0.20574972342E+03  0.30737135824E+03  0.58788807272E+03  0.17200000000E+03 0.  1.
</event>
<event>
 4    1  0.4487206E+000  0.1893142E+03  0.7818608E-02  0.1159081E+00
         21   -1    0    0  501  502  0.00000000000E+00  0.00000000000E+00  0.26086052943E+03  0.26086052943E+03  0.00000000000E+00 0. -1.
         21   -1    0    0  502  503 -0.00000000000E+00 -0.00000000000E+00 -0.19066385493E+03  0.19066385493E+03  0.00000000000E+00 0.  1.
          6    1    1    2  501    0 -0.27907935795E+02  0.74006880244E+02  0.15443401187E+03  0.24431482809E+03  0.17200000000E+03 0.  1.
         -6    1    1    2    0  503  0.27907935795E+02 -0.74006880244E+02 -0.84237337372E+02  0.20720955627E+03  0.17200000000E+03 0.  1.
</event>
<event>
 4    1  0.4487206E+000  0.2315680E+03  0.7818608E-02  0.1125541E+00
         21   -1    0    0  501  502  0.00000000000E+00  0.00000000000E+00  0.35638736060E+02  0.35638736060E+02  0.00000000000E+00 0. -1.
         21   -1    0    0  502  503 -0.00000000000E+00 -0.00000000000E+00 -0.15939735090E+04  0.15939735090E+04  0.00000000000E+00 0.  1.
          6    1    1    2  501    0 -0.38389174986E+02 -0.15021993167E+03 -0.58628115330E+03  0.63035652399E+03  0.17200000000E+03 0. -1.
         -6    1    1    2    0  503  0.38389174986E+02  0.15021993167E+03 -0.97205361960E+03  0.99925572103E+03  0.17200000000E+03 0.  1.
</event>
<event>
 4    1  0.4487206E+000  0.1777476E+03  0.7818608E-02  0.1170001E+00
         21   -1    0    0  501  502  0.00000000000E+00  0.00000000000E+00  0.41938723449E+03  0.41938723449E+03  0.00000000000E+00 0. -1.
         21   -1    0    0  502  503 -0.00000000000E+00 -0.00000000000E+00 -0.10477122479E+03  0.10477122479E+03  0.00000000000E+00 0. -1.
          6    1    1    2  501    0  0.43019623441E+02 -0.12630777589E+02  0.29622588575E+03  0.34546200939E+03  0.17200000000E+03 0.  1.
         -6    1    1    2    0  503 -0.43019623441E+02  0.12630777589E+02  0.18390123947E+02  0.17869644989E+03  0.17200000000E+03 0.  1.
</event>
<event>
 4    1  0.4487206E+000  0.1857521E+03  0.7818608E-02  0.1162349E+00
         21   -1    0    0  501  502  0.00000000000E+00  0.00000000000E+00  0.65109269013E+03  0.65109269013E+03  0.00000000000E+00 0.  1.
         21   -1    0    0  502  503 -0.00000000000E+00 -0.00000000000E+00 -0.53150014159E+02  0.53150014159E+02  0.00000000000E+00 0.  1.
          6    1    1    2  501    0  0.19832945991E+02 -0.67279180331E+02  0.31806505180E+03  0.36833301648E+03  0.17200000000E+03 0.  1.
         -6    1    1    2    0  503 -0.19832945991E+02  0.67279180331E+02  0.27987762417E+03  0.33590968781E+03  0.17200000000E+03 0.  1.
</event>
<event>
 4    1  0.4487206E+000  0.1874964E+03  0.7818608E-02  0.1160739E+00
         21   -1    0    0  501  502  0.00000000000E+00  0.00000000000E+00  0.14147069574E+03  0.14147069574E+03  0.00000000000E+00 0. -1.
         21   -1    0    0  502  503 -0.00000000000E+00 -0.00000000000E+00 -0.27103088206E+03  0.27103088206E+03  0.00000000000E+00 0.  1.
          6    1    1    2  501    0  0.92135239834E+01  0.74067529045E+02 -0.53077792588E+01  0.18757148078E+03  0.17200000000E+03 0. -1.
         -6    1    1    2    0  503 -0.92135239834E+01 -0.74067529045E+02 -0.12425240706E+03  0.22493009702E+03  0.17200000000E+03 0. -1.
</event>
<event>
 4    1  0.4487206E+000  0.1775826E+03  0.7818608E-02  0.1170163E+00
         21   -1    0    0  501  502  0.00000000000E+00  0.00000000000E+00  0.15307209252E+04  0.15307209252E+04  0.00000000000E+00 0.  1.
         21   -1    0    0  502  503 -0.00000000000E+00 -0.00000000000E+00 -0.54251419262E+02  0.54251419262E+02  0.00000000000E+00 0.  1.
          6    1    1    2  501    0  0.31400761738E+02 -0.31073404324E+02  0.13623666750E+04  0.13738917430E+04  0.17200000000E+03 0.  1.
         -6    1    1    2    0  503 -0.31400761738E+02  0.31073404324E+02  0.11410283095E+03  0.21108060149E+03  0.17200000000E+03 0.  1.
</event>
<event>
 4    1  0.4487206E+000  0.2279080E+03  0.7818608E-02  0.1128121E+00
         21   -1    0    0  501  502  0.00000000000E+00  0.00000000000E+00  0.18961106334E+04  0.18961106334E+04  0.00000000000E+00 0. -1.
         21   -1    0    0  502  503 -0.00000000000E+00 -0.00000000000E+00 -0.27741209712E+02  0.27741209712E+02  0.00000000000E+00 0.  1.
          6    1    1    2  501    0 -0.65600875728E+02 -0.13436735121E+03  0.10417997891E+04  0.10664374621E+04  0.17200000000E+03 0. -1.
         -6    1    1    2    0  503  0.65600875728E+02  0.13436735121E+03  0.82656963451E+03  0.85741438095E+03  0.17200000000E+03 0. -1.
</event>
<event>
 4    1  0.4487206E+000  0.1791327E+03  0.7818608E-02  0.1168645E+00
         21   -1    0    0  503  502  0.00000000000E+00  0.00000000000E+00  0.26684460451E+04  0.26684460451E+04  0.00000000000E+00 0.  1.
         21   -1    0    0  501  503 -0.00000000000E+00 -0.00000000000E+00 -0.46473740442E+02  0.46473740442E+02  0.00000000000E+00 0. -1.
          6    1    1    2  501    0  0.41729761086E+02  0.27625319673E+02  0.14227076500E+03  0.22875642466E+03  0.17200000000E+03 0. -1.
         -6    1    1    2    0  502 -0.41729761086E+02 -0.27625319673E+02  0.24797015396E+04  0.24861633608E+04  0.17200000000E+03 0.  1.
</event>
<event>
 4    1  0.4487206E+000  0.1880571E+03  0.7818608E-02  0.1160225E+00
         21   -1    0    0  501  502  0.00000000000E+00  0.00000000000E+00  0.11075459193E+03  0.11075459193E+03  0.00000000000E+00 0. -1.
         21   -1    0    0  502  503 -0.00000000000E+00 -0.00000000000E+00 -0.92243040560E+03  0.92243040560E+03  0.00000000000E+00 0. -1.
          6    1    1    2  501    0  0.20946666722E+02  0.73093771719E+02  0.11878907702E+02  0.18843187299E+03  0.17200000000E+03 0. -1.
         -6    1    1    2    0  503 -0.20946666722E+02 -0.73093771719E+02 -0.82355472137E+03  0.84475312453E+03  0.17200000000E+03 0. -1.
</event>
<event>
 4    1  0.4487206E+000  0.3187134E+03  0.7818608E-02  0.1076243E+00
         21   -1    0    0  501  502  0.00000000000E+00  0.00000000000E+00  0.30978494658E+03  0.30978494658E+03  0.00000000000E+00 0. -1.
         21   -1    0    0  502  503 -0.00000000000E+00 -0.00000000000E+00 -0.32818018681E+03  0.32818018681E+03  0.00000000000E+00 0.  1.
          6    1    1    2  501    0  0.21575649935E+03  0.15950973329E+03  0.13683498037E+00  0.31871341477E+03  0.17200000000E+03 0. -1.
         -6    1    1    2    0  503 -0.21575649935E+03 -0.15950973329E+03 -0.18532075211E+02  0.31925171862E+03  0.17200000000E+03 0.  1.
</event>
<event>
 4    1  0.4487206E+000  0.2533903E+03  0.7818608E-02  0.1111181E+00
         21   -1    0    0  501  502  0.00000000000E+00  0.00000000000E+00  0.15894951380E+03  0.15894951380E+03  0.00000000000E+00 0.  1.
         21   -1    0    0  502  503 -0.00000000000E+00 -0.00000000000E+00 -0.52112213002E+03  0.52112213002E+03  0.00000000000E+00 0. -1.
          6    1    1    2  501    0 -0.10579618778E+03  0.15306807627E+03 -0.19844158140E+02  0.25416620534E+03  0.17200000000E+03 0.  1.
         -6    1    1    2    0  503  0.10579618778E+03 -0.15306807627E+03 -0.34232845808E+03  0.42590543849E+03  0.17200000000E+03 0. -1.
</event>
<event>
 4    1  0.4487206E+000  0.1737566E+03  0.7818608E-02  0.1173986E+00
         21   -1    0    0  501  502  0.00000000000E+00  0.00000000000E+00  0.91086993606E+02  0.91086993606E+02  0.00000000000E+00 0.  1.
         21   -1    0    0  502  503 -0.00000000000E+00 -0.00000000000E+00 -0.34837524448E+03  0.34837524448E+03  0.00000000000E+00 0.  1.
          6    1    1    2  501    0  0.20181377828E+02  0.14145096291E+02 -0.80221024123E+02  0.19138125423E+03  0.17200000000E+03 0.  1.
         -6    1    1    2    0  503 -0.20181377828E+02 -0.14145096291E+02 -0.17706722675E+03  0.24808098385E+03  0.17200000000E+03 0.  1.
</event>
<event>
 4    1  0.4487206E+000  0.2034318E+03  0.7818608E-02  0.1146875E+00
         21   -1    0    0  503  502  0.00000000000E+00  0.00000000000E+00  0.17238921816E+03  0.17238921816E+03  0.00000000000E+00 0. -1.
         21   -1    0    0  501  503 -0.00000000000E+00 -0.00000000000E+00 -0.49801449449E+03  0.49801449449E+03  0.00000000000E+00 0. -1.
          6    1    1    2  501    0  0.10182021835E+03  0.37857096203E+02 -0.40405482557E+03  0.45237685470E+03  0.17200000000E+03 0. -1.
         -6    1    1    2    0  502 -0.10182021835E+03 -0.37857096203E+02  0.78429549237E+02  0.21802685796E+03  0.17200000000E+03 0. -1.
</event>
<event>
 4    1  0.4487206E+000  0.2042390E+03  0.7818608E-02  0.1146211E+00
         21   -1    0    0  501  502  0.00000000000E+00  0.00000000000E+00  0.10684939723E+03  0.10684939723E+03  0.00000000000E+00 0. -1.
         21   -1    0    0  502  503 -0.00000000000E+00 -0.00000000000E+00 -0.40185879820E+03  0.40185879820E+03  0.00000000000E+00 0. -1.
          6    1    1    2  501    0 -0.68706337845E+02 -0.86075516290E+02 -0.19046340806E+03  0.27926665604E+03  0.17200000000E+03 0. -1.
         -6    1    1    2    0  503  0.68706337845E+02  0.86075516290E+02 -0.10454599292E+03  0.22944153939E+03  0.17200000000E+03 0. -1.
</event>
<event>
 4    1  0.4487206E+000  0.1821389E+03  0.7818608E-02  0.1165749E+00
         21   -1    0    0  503  502  0.00000000000E+00  0.00000000000E+00  0.16329285820E+03  0.16329285820E+03  0.00000000000E+00 0. -1.
         21   -1    0    0  501  503 -0.00000000000E+00 -0.00000000000E+00 -0.81740902877E+03  0.81740902877E+03  0.00000000000E+00 0. -1.
          6    1    1    2  501    0 -0.14740225748E+02  0.58080090036E+02 -0.75212720162E+03  0.77386684806E+03  0.17200000000E+03 0. -1.
         -6    1    1    2    0  502  0.14740225748E+02 -0.58080090036E+02  0.98011031050E+02  0.20683503891E+03  0.17200000000E+03 0. -1.
</event>
<event>
 4    1  0.4487206E+000  0.1805422E+03  0.7818608E-02  0.1167279E+00
         21   -1    0    0  501  502  0.00000000000E+00  0.00000000000E+00  0.89816022056E+03  0.89816022056E+03  0.00000000000E+00 0.  1.
         21   -1    0    0  502  503 -0.00000000000E+00 -0.00000000000E+00 -0.61390289974E+02  0.61390289974E+02  0.00000000000E+00 0. -1.
          6    1    1    2  501    0  0.11433126052E+02  0.53672687609E+02  0.72515676499E+03  0.74729365552E+03  0.17200000000E+03 0.  1.
         -6    1    1    2    0  503 -0.11433126052E+02 -0.53672687609E+02  0.11161316560E+03  0.21225685501E+03  0.17200000000E+03 0. -1.
</event>
<event>
 4    1  0.4487206E+000  0.2288412E+03  0.7818608E-02  0.1127458E+00
         21   -1    0    0  501  502  0.00000000000E+00  0.00000000000E+00  0.14199815392E+04  0.14199815392E+04  0.00000000000E+00 0. -1.
         21   -1    0    0  502  503 -0.00000000000E+00 -0.00000000000E+00 -0.61545180348E+02  0.61545180348E+02  0.00000000000E+00 0.  1.
          6    1    1    2  501    0  0.12155265108E+03  0.89494385534E+02  0.11481703003E+04  0.11707533175E+04  0.17200000000E+03 0. -1.
         -6    1    1    2    0  503 -0.12155265108E+03 -0.89494385534E+02  0.21026605858E+03  0.31077340204E+03  0.17200000000E+03 0.  1.
</event>
<event>
 4    1  0.4487206E+000  0.2357178E+03  0.7818608E-02  0.1122679E+00
         21   -1    0    0  503  502  0.00000000000E+00  0.00000000000E+00  0.13669225148E+03  0.13669225148E+03  0.00000000000E+00 0.  1.
         21   -1    0    0  501  503 -0.00000000000E+00 -0.00000000000E+00 -0.46601466582E+03  0.46601466582E+03  0.00000000000E+00 0.  1.
          6    1    1    2  501    0 -0.15767219676E+03 -0.33441695492E+02 -0.56951225642E+02  0.24250012522E+03  0.17200000000E+03 0.  1.
         -6    1    1    2    0  502  0.15767219676E+03  0.33441695492E+02 -0.27237118870E+03  0.36020679208E+03  0.17200000000E+03 0.  1.
</event>
<event>
 4    1  0.4487206E+000  0.2071341E+03  0.7818608E-02  0.1143856E+00
         21   -1    0    0  501  502  0.00000000000E+00  0.00000000000E+00  0.44493199736E+03  0.44493199736E+03  0.00000000000E+00 0. -1.
         21   -1    0    0  502  503 -0.00000000000E+00 -0.00000000000E+00 -0.13053590487E+03  0.13053590487E+03  0.00000000000E+00 0. -1.
          6    1    1    2  501    0 -0.10615949622E+03 -0.45284847452E+02  0.30427488587E+03  0.36808662325E+03  0.17200000000E+03 0. -1.
         -6    1    1    2    0  503  0.10615949622E+03  0.45284847452E+02  0.10121206620E+02  0.20738127897E+03  0.17200000000E+03 0. -1.
</event>
<event>
 4    1  0.4487206E+000  0.2260189E+03  0.7818608E-02  0.1129474E+00
         21   -1    0    0  501  502  0.00000000000E+00  0.00000000000E+00  0.33524674556E+03  0.33524674556E+03  0.00000000000E+00 0. -1.
         21   -1    0    0  502  503 -0.00000000000E+00 -0.00000000000E+00 -0.16395082809E+03  0.16395082809E+03  0.00000000000E+00 0. -1.
          6    1    1    2  501    0 -0.14601186777E+03 -0.13457228171E+02  0.15195913372E+03  0.27235297105E+03  0.17200000000E+03 0. -1.
         -6    1    1    2    0  503  0.14601186777E+03  0.13457228171E+02  0.19336783753E+02  0.22684460260E+03  0.17200000000E+03 0. -1.
</event>
<event>
 4    1  0.4487206E+000  0.2312204E+03  0.7818608E-02  0.1125784E+00
         21   -1    0    0  501  502  0.00000000000E+00  0.00000000000E+00  0.59571486822E+02  0.59571486822E+02  0.00000000000E+00 0.  1.
         21   -1    0    0  502  503 -0.00000000000E+00 -0.00000000000E+00 -0.10426308060E+04  0.10426308060E+04  0.00000000000E+00 0.  1.
          6    1    1    2  501    0  0.11472654183E+03  0.10352149576E+03 -0.28588881674E+03  0.36768912823E+03  0.17200000000E+03 0.  1.
         -6    1    1    2    0  503 -0.11472654183E+03 -0.10352149576E+03 -0.69717050247E+03  0.73451316462E+03  0.17200000000E+03 0.  1.
</event>
<event>
 4    1  0.4487206E+000  0.1913116E+03  0.7818608E-02  0.1157284E+00
         21   -1    0    0  501  502  0.00000000000E+00  0.00000000000E+00  0.20468615690E+03  0.20468615690E+03  0.00000000000E+00 0. -1.
         21   -1    0    0  502  503 -0.00000000000E+00 -0.00000000000E+00 -0.18455310168E+03  0.18455310168E+03  0.00000000000E+00 0. -1.
          6    1    1    2  501    0  0.46963525096E+02  0.69358055372E+02  0.44395896177E+02  0.19639528541E+03  0.17200000000E+03 0. -1.
         -6    1    1    2    0  503 -0.46963525096E+02 -0.69358055372E+02 -0.24262840954E+02  0.19284397316E+03  0.17200000000E+03 0. -1.
</event>
<event>
 4    1  0.4487206E+000  0.2682109E+03  0.7818608E-02  0.1102308E+00
         21   -1    0    0  501  502  0.00000000000E+00  0.00000000000E+00  0.43369685742E+02  0.43369685742E+02  0.00000000000E+00 0. -1.
         21   -1    0    0  502  503 -0.00000000000E+00 -0.00000000000E+00 -0.29861655062E+04  0.29861655062E+04  0.00000000000E+00 0.  1.
          6    1    1    2  501    0 -0.20405523376E+03  0.26730814596E+02 -0.46144405376E+03  0.53372997819E+03  0.17200000000E+03 0. -1.
         -6    1    1    2    0  503  0.20405523376E+03 -0.26730814596E+02 -0.24813517667E+04  0.24958052137E+04  0.17200000000E+03 0.  1.
</event>
<event>
 4    1  0.4487206E+000  0.2267736E+03  0.7818608E-02  0.1128931E+00
         21   -1    0    0  503  502  0.00000000000E+00  0.00000000000E+00  0.37584806980E+03  0.37584806980E+03  0.00000000000E+00 0. -1.
         21   -1    0    0  501  503 -0.00000000000E+00 -0.00000000000E+00 -0.17748410579E+03  0.17748410579E+03  0.00000000000E+00 0.  1.
          6    1    1    2  501    0 -0.91916543132E+01  0.14750525234E+03 -0.33234696483E+02  0.22919605369E+03  0.17200000000E+03 0.  1.
         -6    1    1    2    0  502  0.91916543132E+01 -0.14750525234E+03  0.23159866050E+03  0.32413612190E+03  0.17200000000E+03 0. -1.
</event>
<event>
 4    1  0.4487206E+000  0.1725561E+03  0.7818608E-02  0.1175208E+00
         21   -1    0    0  501  502  0.00000000000E+00  0.00000000000E+00  0.80763468985E+03  0.80763468985E+03  0.00000000000E+00 0. -1.
         21   -1    0    0  502  503 -0.00000000000E+00 -0.00000000000E+00 -0.62985400358E+02  0.62985400358E+02  0.00000000000E+00 0. -1.
          6    1    1    2  501    0 -0.12083511851E+02  0.67526831460E+01  0.65263971761E+03  0.67506607898E+03  0.17200000000E+03 0. -1.
         -6    1    1    2    0  503  0.12083511851E+02 -0.67526831460E+01  0.92009571877E+02  0.19555401122E+03  0.17200000000E+03 0. -1.
</event>
<event>
 4    1  0.4487206E+000  0.2391555E+03  0.7818608E-02  0.1120357E+00
         21   -1    0    0  501  502  0.00000000000E+00  0.00000000000E+00  0.53962349940E+03  0.53962349940E+03  0.00000000000E+00 0. -1.
         21   -1    0    0  502  503 -0.00000000000E+00 -0.00000000000E+00 -0.10629870742E+03  0.10629870742E+03  0.00000000000E+00 0. -1.
          6    1    1    2  501    0  0.77769401693E+02 -0.14684440019E+03  0.19929263667E+03  0.31130838848E+03  0.17200000000E+03 0. -1.
         -6    1    1    2    0  503 -0.77769401693E+02  0.14684440019E+03  0.23403215530E+03  0.33461381834E+03  0.17200000000E+03 0. -1.
</event>
<event>
 4    1  0.4487206E+000  0.2295790E+03  0.7818608E-02  0.1126936E+00
         21   -1    0    0  503  502  0.00000000000E+00  0.00000000000E+00  0.37441583994E+03  0.37441583994E+03  0.00000000000E+00 0. -1.
         21   -1    0    0  501  503 -0.00000000000E+00 -0.00000000000E+00 -0.36319634514E+03  0.36319634514E+03  0.00000000000E+00 0.  1.
          6    1    1    2  501    0 -0.12216730786E+03 -0.90541075476E+02 -0.28300625938E+03  0.36441608130E+03  0.17200000000E+03 0.  1.
         -6    1    1    2    0  502  0.12216730786E+03  0.90541075476E+02  0.29422575418E+03  0.37319610378E+03  0.17200000000E+03 0. -1.
</event>
<event>
 4    1  0.4487206E+000  0.1911845E+03  0.7818608E-02  0.1157397E+00
         21   -1    0    0  501  502  0.00000000000E+00  0.00000000000E+00  0.50229975387E+03  0.50229975387E+03  0.00000000000E+00 0.  1.
         21   -1    0    0  502  503 -0.00000000000E+00 -0.00000000000E+00 -0.78251455784E+02  0.78251455784E+02  0.00000000000E+00 0.  1.
          6    1    1    2  501    0 -0.81856805240E+02  0.16339586959E+02  0.28886250813E+03  0.34640015484E+03  0.17200000000E+03 0.  1.
         -6    1    1    2    0  503  0.81856805240E+02 -0.16339586959E+02  0.13518578995E+03  0.23415105481E+03  0.17200000000E+03 0.  1.
</event>
<event>
 4    1  0.4487206E+000  0.2482113E+03  0.7818608E-02  0.1114440E+00
         21   -1    0    0  501  502  0.00000000000E+00  0.00000000000E+00  0.19867680757E+03  0.19867680757E+03  0.00000000000E+00 0.  1.
         21   -1    0    0  502  503 -0.00000000000E+00 -0.00000000000E+00 -0.32068282797E+03  0.32068282797E+03  0.00000000000E+00 0. -1.
          6    1    1    2  501    0 -0.14181872019E+03 -0.10914353791E+03 -0.13820010246E+02  0.24859576414E+03  0.17200000000E+03 0.  1.
         -6    1    1    2    0  503  0.14181872019E+03  0.10914353791E+03 -0.10818601015E+03  0.27076387140E+03  0.17200000000E+03 0. -1.
</event>
<event>
 4    1  0.4487206E+000  0.2656569E+03  0.7818608E-02  0.1103791E+00
         21   -1    0    0  501  502  0.00000000000E+00  0.00000000000E+00  0.57438217695E+03  0.57438217695E+03  0.00000000000E+00 0. -1.
         21   -1    0    0  502  503 -0.00000000000E+00 -0.00000000000E+00 -0.12433626838E+03  0.12433626838E+03  0.00000000000E+00 0. -1.
          6    1    1    2  501    0  0.67626679493E+02 -0.19083033794E+03  0.26297838689E+03  0.37380639057E+03  0.17200000000E+03 0. -1.
         -6    1    1    2    0  503 -0.67626679493E+02  0.19083033794E+03  0.18706752168E+03  0.32491205475E+03  0.17200000000E+03 0. -1.
</event>
<event>
 4    1  0.4487206E+000  0.1731825E+03  0.7818608E-02  0.1174569E+00
         21   -1    0    0  503  502  0.00000000000E+00  0.00000000000E+00  0.17472732865E+03  0.17472732865E+03  0.00000000000E+00 0.  1.
         21   -1    0    0  501  503 -0.00000000000E+00 -0.00000000000E+00 -0.17525621247E+03  0.17525621247E+03  0.00000000000E+00 0.  1.
          6    1    1    2  501    0  0.12184964854E+02 -0.16115623511E+02  0.24832661171E+02  0.17495384463E+03  0.17200000000E+03 0.  1.
         -6    1    1    2    0  502 -0.12184964854E+02  0.16115623511E+02 -0.25361544995E+02  0.17502969649E+03  0.17200000000E+03 0.  1.
</event>
<event>
 4    1  0.4487206E+000  0.2861123E+03  0.7818608E-02  0.1092397E+00
         21   -1    0    0  501  502  0.00000000000E+00  0.00000000000E+00  0.27975903078E+03  0.27975903078E+03  0.00000000000E+00 0.  1.
         21   -1    0    0  502  503 -0.00000000000E+00 -0.00000000000E+00 -0.31959290950E+03  0.31959290950E+03  0.00000000000E+00 0.  1.
          6    1    1    2  501    0 -0.15168666638E+02  0.22813622807E+03  0.67159277572E+02  0.29388874692E+03  0.17200000000E+03 0.  1.
         -6    1    1    2    0  503  0.15168666638E+02 -0.22813622807E+03 -0.10699315629E+03  0.30546319336E+03  0.17200000000E+03 0.  1.
</event>
<event>
 4    1  0.4487206E+000  0.2044045E+03  0.7818608E-02  0.1146075E+00
         21   -1    0    0  501  502  0.00000000000E+00  0.00000000000E+00  0.18337579997E+03  0.18337579997E+03  0.00000000000E+00 0. -1.
         21   -1    0    0  502  503 -0.00000000000E+00 -0.00000000000E+00 -0.22785988139E+03  0.22785988139E+03  0.00000000000E+00 0. -1.
          6    1    1    2  501    0  0.11042892196E+03  0.16243659276E+01 -0.23926036640E+02  0.20580000146E+03  0.17200000000E+03 0. -1.
         -6    1    1    2    0  503 -0.11042892196E+03 -0.16243659276E+01 -0.20558044775E+02  0.20543567990E+03  0.17200000000E+03 0. -1.
</event>
<event>
 4    1  0.4487206E+000  0.1731191E+03  0.7818608E-02  0.1174634E+00
         21   -1    0    0  501  502  0.00000000000E+00  0.00000000000E+00  0.39847503630E+03  0.39847503630E+03  0.00000000000E+00 0.  1.
         21   -1    0    0  502  503 -0.00000000000E+00 -0.00000000000E+00 -0.72893207773E+03  0.72893207773E+03  0.00000000000E+00 0.  1.
          6    1    1    2  501    0 -0.19230903078E+02 -0.40494771067E+01  0.36860157536E+03  0.40723131910E+03  0.17200000000E+03 0.  1.
         -6    1    1    2    0  503  0.19230903078E+02  0.40494771067E+01 -0.69905861679E+03  0.72017579493E+03  0.17200000000E+03 0.  1.
</event>
<event>
 4    1  0.4487206E+000  0.1782809E+03  0.7818608E-02  0.1169477E+00
         21   -1    0    0  503  502  0.00000000000E+00  0.00000000000E+00  0.19706756788E+03  0.19706756788E+03  0.00000000000E+00 0.  1.
         21   -1    0    0  501  503 -0.00000000000E+00 -0.00000000000E+00 -0.16149225901E+03  0.16149225901E+03  0.00000000000E+00 0.  1.
          6    1    1    2  501    0 -0.46050781487E+02  0.89105645639E+01  0.24207923059E+02  0.17991691464E+03  0.17200000000E+03 0.  1.
         -6    1    1    2    0  502  0.46050781487E+02 -0.89105645639E+01  0.11367385817E+02  0.17864291225E+03  0.17200000000E+03 0.  1.
</event>
<event>
 4    1  0.4487206E+000  0.1778088E+03  0.7818608E-02  0.1169941E+00
         21   -1    0    0  503  502  0.00000000000E+00  0.00000000000E+00  0.25790650114E+03  0.25790650114E+03  0.00000000000E+00 0. -1.
         21   -1    0    0  501  503 -0.00000000000E+00 -0.00000000000E+00 -0.12261418599E+03  0.12261418599E+03  0.00000000000E+00 0. -1.
          6    1    1    2  501    0  0.11834541661E+01  0.45061943412E+02  0.70480182753E+02  0.19126796770E+03  0.17200000000E+03 0. -1.
         -6    1    1    2    0  502 -0.11834541661E+01 -0.45061943412E+02  0.64812132393E+02  0.18925271943E+03  0.17200000000E+03 0. -1.
</event>
<event>
 4    1  0.4487206E+000  0.2175827E+03  0.7818608E-02  0.1135698E+00
         21   -1    0    0  503  502  0.00000000000E+00  0.00000000000E+00  0.23443764659E+02  0.23443764659E+02  0.00000000000E+00 0.  1.
         21   -1    0    0  501  503 -0.00000000000E+00 -0.00000000000E+00 -0.22575128936E+04  0.22575128936E+04  0.00000000000E+00 0. -1.
          6    1    1    2  501    0  0.58951966540E+02  0.11951112532E+03 -0.14874312282E+04  0.15032610891E+04  0.17200000000E+03 0. -1.
         -6    1    1    2    0  502 -0.58951966540E+02 -0.11951112532E+03 -0.74663790069E+03  0.77769556909E+03  0.17200000000E+03 0.  1.
</event>
<event>
 4    1  0.4487206E+000  0.2451427E+03  0.7818608E-02  0.1116414E+00
         21   -1    0    0  501  502  0.00000000000E+00  0.00000000000E+00  0.27959202700E+03  0.27959202700E+03  0.00000000000E+00 0. -1.
         21   -1    0    0  502  503 -0.00000000000E+00 -0.00000000000E+00 -0.21539120617E+03  0.21539120617E+03  0.00000000000E+00 0.  1.
          6    1    1    2  501    0 -0.14805152122E+03 -0.92691297398E+02  0.20746869095E+02  0.24601902798E+03  0.17200000000E+03 0.  1.
         -6    1    1    2    0  503  0.14805152122E+03  0.92691297398E+02  0.43453951736E+02  0.24896420520E+03  0.17200000000E+03 0. -1.
</event>
<event>
 4    1  0.4487206E+000  0.1961904E+03  0.7818608E-02  0.1152994E+00
         21   -1    0    0  501  502  0.00000000000E+00  0.00000000000E+00  0.18654577329E+04  0.18654577329E+04  0.00000000000E+00 0. -1.
         21   -1    0    0  502  503 -0.00000000000E+00 -0.00000000000E+00 -0.20954352992E+02  0.20954352992E+02  0.00000000000E+00 0. -1.
          6    1    1    2  501    0  0.76036892075E+02 -0.55902371807E+02  0.80551461094E+03  0.82906240572E+03  0.17200000000E+03 0. -1.
         -6    1    1    2    0  503 -0.76036892075E+02  0.55902371807E+02  0.10389887689E+04  0.10573496802E+04  0.17200000000E+03 0. -1.
</event>
<event>
 4    1  0.4487206E+000  0.1951876E+03  0.7818608E-02  0.1153864E+00
         21   -1    0    0  501  502  0.00000000000E+00  0.00000000000E+00  0.68182227313E+02  0.68182227313E+02  0.00000000000E+00 0. -1.
         21   -1    0    0  502  503 -0.00000000000E+00 -0.00000000000E+00 -0.59669514167E+03  0.59669514167E+03  0.00000000000E+00 0. -1.
          6    1    1    2  501    0 -0.83530592290E+02 -0.39202477684E+02 -0.34806687207E+03  0.39905982200E+03  0.17200000000E+03 0. -1.
         -6    1    1    2    0  503  0.83530592290E+02  0.39202477684E+02 -0.18044604229E+03  0.26581754698E+03  0.17200000000E+03 0. -1.
</event>
<event>
 4    1  0.4487206E+000  0.2324510E+03  0.7818608E-02  0.1124926E+00
         21   -1    0    0  503  502  0.00000000000E+00  0.00000000000E+00  0.28701189614E+03  0.28701189614E+03  0.00000000000E+00 0.  1.
         21   -1    0    0  501  503 -0.00000000000E+00 -0.00000000000E+00 -0.32483999644E+03  0.32483999644E+03  0.00000000000E+00 0. -1.
          6    1    1    2  501    0  0.11938312821E+03 -0.10098081454E+03 -0.21728213800E+03  0.31819016908E+03  0.17200000000E+03 0. -1.
         -6    1    1    2    0  502 -0.11938312821E+03  0.10098081454E+03  0.17945403770E+03  0.29366172351E+03  0.17200000000E+03 0.  1.
</event>
<event>
 4    1  0.4487206E+000  0.1936385E+03  0.7818608E-02  0.1155220E+00
         21   -1    0    0  501  502  0.00000000000E+00  0.00000000000E+00  0.25345849422E+03  0.25345849422E+03  0.00000000000E+00 0.  1.
         21   -1    0    0  502  503 -0.00000000000E+00 -0.00000000000E+00 -0.16413562060E+03  0.16413562060E+03  0.00000000000E+00 0.  1.
          6    1    1    2  501    0  0.85119386603E+02 -0.25817597299E+02  0.11025535999E+03  0.22282751785E+03  0.17200000000E+03 0.  1.
         -6    1    1    2    0  503 -0.85119386603E+02  0.25817597299E+02 -0.20932486370E+02  0.19476659696E+03  0.17200000000E+03 0.  1.
</event>
<event>
 4    1  0.4487206E+000  0.1755930E+03  0.7818608E-02  0.1172138E+00
         21   -1    0    0  501  502  0.00000000000E+00  0.00000000000E+00  0.15254592122E+04  0.15254592122E+04  0.00000000000E+00 0. -1.
         21   -1    0    0  502  503 -0.00000000000E+00 -0.00000000000E+00 -0.54022000641E+02  0.54022000641E+02  0.00000000000E+00 0.  1.
          6    1    1    2  501    0  0.14803829690E+02  0.32089418545E+02  0.13604890159E+04  0.13717737593E+04  0.17200000000E+03 0. -1.
         -6    1    1    2    0  503 -0.14803829690E+02 -0.32089418545E+02  0.11094819563E+03  0.20770745357E+03  0.17200000000E+03 0.  1.
</event>
<event>
 4    1  0.4487206E+000  0.1752216E+03  0.7818608E-02  0.1172509E+00
         21   -1    0    0  503  502  0.00000000000E+00  0.00000000000E+00  0.54990773534E+03  0.54990773534E+03  0.00000000000E+00 0. -1.
         21   -1    0    0  501  503 -0.00000000000E+00 -0.00000000000E+00 -0.55894834947E+02  0.55894834947E+02  0.00000000000E+00 0.  1.
          6    1    1    2  501    0 -0.11013866586E+02  0.31580386334E+02  0.23687670983E+03  0.29464080118E+03  0.17200000000E+03 0. -1.
         -6    1    1    2    0  502  0.11013866586E+02 -0.31580386334E+02  0.25713619056E+03  0.31116176911E+03  0.17200000000E+03 0. -1.
</event>
<event>
 4    1  0.4487206E+000  0.1776193E+03  0.7818608E-02  0.1170127E+00
         21   -1    0    0  501  502  0.00000000000E+00  0.00000000000E+00  0.31072235713E+02  0.31072235713E+02  0.00000000000E+00 0.  1.
         21   -1    0    0  502  503 -0.00000000000E+00 -0.00000000000E+00 -0.10960757347E+04  0.10960757347E+04  0.00000000000E+00 0.  1.
          6    1    1    2  501    0 -0.18883727892E+02 -0.40100336191E+02 -0.37953912023E+03  0.41904483761E+03  0.17200000000E+03 0.  1.
         -6    1    1    2    0  503  0.18883727892E+02  0.40100336191E+02 -0.68546437878E+03  0.70810313283E+03  0.17200000000E+03 0.  1.
</event>
<event>
 4    1  0.4487206E+000  0.2503286E+03  0.7818608E-02  0.1113097E+00
         21   -1    0    0  503  502  0.00000000000E+00  0.00000000000E+00  0.54137608979E+02  0.54137608979E+02  0.00000000000E+00 0. -1.
         21   -1    0    0  501  503 -0.00000000000E+00 -0.00000000000E+00 -0.11610000772E+04  0.11610000772E+04  0.00000000000E+00 0. -1.
          6    1    1    2  501    0  0.97513169542E+02  0.15353037190E+03 -0.58678086330E+03  0.63794684329E+03  0.17200000000E+03 0. -1.
         -6    1    1    2    0  502 -0.97513169542E+02 -0.15353037190E+03 -0.52008160488E+03  0.57719084285E+03  0.17200000000E+03 0. -1.
</event>
<event>
 4    1  0.4487206E+000  0.2084973E+03  0.7818608E-02  0.1142762E+00
         21   -1    0    0  501  502  0.00000000000E+00  0.00000000000E+00  0.45349849885E+02  0.45349849885E+02  0.00000000000E+00 0.  1.
         21   -1    0    0  502  503 -0.00000000000E+00 -0.00000000000E+00 -0.12890633280E+04  0.12890633280E+04  0.00000000000E+00 0. -1.
          6    1    1    2  501    0  0.11098665940E+03 -0.39611429485E+02 -0.95969055882E+03  0.98207793612E+03  0.17200000000E+03 0. -1.
         -6    1    1    2    0  503 -0.11098665940E+03  0.39611429485E+02 -0.28402291929E+03  0.35233524177E+03  0.17200000000E+03 0.  1.
</event>
<event>
 4    1  0.4487206E+000  0.1951216E+03  0.7818608E-02  0.1153921E+00
         21   -1    0    0  503  502  0.00000000000E+00  0.00000000000E+00  0.10165971348E+04  0.10165971348E+04  0.00000000000E+00 0.  1.
         21   -1    0    0  501  503 -0.00000000000E+00 -0.00000000000E+00 -0.20201751475E+03  0.20201751475E+03  0.00000000000E+00 0.  1.
          6    1    1    2  501    0  0.84907707773E+02 -0.35765042546E+02 -0.14264698889E+03  0.24170357992E+03  0.17200000000E+03 0.  1.
         -6    1    1    2    0  502 -0.84907707773E+02  0.35765042546E+02  0.95722660891E+03  0.97691106960E+03  0.17200000000E+03 0.  1.
</event>
<event>
 4    1  0.4487206E+000  0.1756833E+03  0.7818608E-02  0.1172047E+00
         21   -1    0    0  501  502  0.00000000000E+00  0.00000000000E+00  0.11242937873E+04  0.11242937873E+04  0.00000000000E+00 0.  1.
         21   -1    0    0  502  503 -0.00000000000E+00 -0.00000000000E+00 -0.40203962262E+02  0.40203962262E+02  0.00000000000E+00 0.  1.
          6    1    1    2  501    0 -0.35523211503E+02  0.43258202211E+01  0.86995531389E+03  0.88751724459E+03  0.17200000000E+03 0.  1.
         -6    1    1    2    0  503  0.35523211503E+02 -0.43258202211E+01  0.21413451119E+03  0.27698050502E+03  0.17200000000E+03 0.  1.
</event>
<event>
 4    1  0.4487206E+000  0.2592945E+03  0.7818608E-02  0.1107568E+00
         21   -1    0    0  501  502  0.00000000000E+00  0.00000000000E+00  0.19142818319E+04  0.19142818319E+04  0.00000000000E+00 0. -1.
         21   -1    0    0  502  503 -0.00000000000E+00 -0.00000000000E+00 -0.90446155294E+02  0.90446155294E+02  0.00000000000E+00 0. -1.
          6    1    1    2  501    0 -0.27466998844E+02 -0.19208125307E+03  0.16958659381E+04  0.17155742257E+04  0.17200000000E+03 0. -1.
         -6    1    1    2    0  503  0.27466998844E+02  0.19208125307E+03  0.12796973845E+03  0.28915376146E+03  0.17200000000E+03 0. -1.
</event>
<event>
 4    1  0.4487206E+000  0.1732928E+03  0.7818608E-02  0.1174457E+00
         21   -1    0    0  501  502  0.00000000000E+00  0.00000000000E+00  0.55880650524E+03  0.55880650524E+03  0.00000000000E+00 0. -1.
         21   -1    0    0  502  503 -0.00000000000E+00 -0.00000000000E+00 -0.87749563561E+02  0.87749563561E+02  0.00000000000E+00 0. -1.
          6    1    1    2  501    0 -0.19211886965E+02 -0.87917958887E+01  0.43678628450E+03  0.46990706592E+03  0.17200000000E+03 0. -1.
         -6    1    1    2    0  503  0.19211886965E+02  0.87917958887E+01  0.34270657181E+02  0.17664900288E+03  0.17200000000E+03 0. -1.
</event>
<event>
 4    1  0.4487206E+000  0.1967788E+03  0.7818608E-02  0.1152486E+00
         21   -1    0    0  501  502  0.00000000000E+00  0.00000000000E+00  0.88438736613E+03  0.88438736613E+03  0.00000000000E+00 0. -1.
         21   -1    0    0  502  503 -0.00000000000E+00 -0.00000000000E+00 -0.45419465606E+02  0.45419465606E+02  0.00000000000E+00 0.  1.
          6    1    1    2  501    0  0.95585053308E+02 -0.11783052220E+01  0.50770684291E+03  0.54450723518E+03  0.17200000000E+03 0.  1.
         -6    1    1    2    0  503 -0.95585053308E+02  0.11783052220E+01  0.33126105761E+03  0.38529959656E+03  0.17200000000E+03 0. -1.
</event>
<event>
 4    1  0.4487206E+000  0.2359578E+03  0.7818608E-02  0.1122515E+00
         21   -1    0    0  503  502  0.00000000000E+00  0.00000000000E+00  0.66294050539E+02  0.66294050539E+02  0.00000000000E+00 0.  1.
         21   -1    0    0  501  503 -0.00000000000E+00 -0.00000000000E+00 -0.11419267430E+04  0.11419267430E+04  0.00000000000E+00 0.  1.
          6    1    1    2  501    0 -0.11219584122E+03 -0.11620747462E+03 -0.84853433610E+03  0.88073072133E+03  0.17200000000E+03 0.  1.
         -6    1    1    2    0  502  0.11219584122E+03  0.11620747462E+03 -0.22709835641E+03  0.32749007226E+03  0.17200000000E+03 0.  1.
</event>
<event>
 4    1  0.4487206E+000  0.2210278E+03  0.7818608E-02  0.1133119E+00
         21   -1    0    0  503  502  0.00000000000E+00  0.00000000000E+00  0.21250344958E+04  0.21250344958E+04  0.00000000000E+00 0. -1.
         21   -1    0    0  501  503 -0.00000000000E+00 -0.00000000000E+00 -0.27339114419E+03  0.27339114419E+03  0.00000000000E+00 0. -1.
          6    1    1    2  501    0 -0.88415476395E+02  0.10701403924E+03 -0.22186331662E+03  0.31317188942E+03  0.17200000000E+03 0. -1.
         -6    1    1    2    0  502  0.88415476395E+02 -0.10701403924E+03  0.20735066682E+04  0.20852537505E+04  0.17200000000E+03 0. -1.
</event>
<event>
 4    1  0.4487206E+000  0.2285624E+03  0.7818608E-02  0.1127656E+00
         21   -1    0    0  503  502  0.00000000000E+00  0.00000000000E+00  0.12655727784E+03  0.12655727784E+03  0.00000000000E+00 0. -1.
         21   -1    0    0  501  503 -0.00000000000E+00 -0.00000000000E+00 -0.41293855837E+03  0.41293855837E+03  0.00000000000E+00 0. -1.
          6    1    1    2  501    0  0.64731620944E+01 -0.15038237510E+03 -0.13796410971E+03  0.26697351205E+03  0.17200000000E+03 0. -1.
         -6    1    1    2    0  502 -0.64731620944E+01  0.15038237510E+03 -0.14841717083E+03  0.27252232416E+03  0.17200000000E+03 0. -1.
</event>
<event>
 4    1  0.4487206E+000  0.2002156E+03  0.7818608E-02  0.1149557E+00
         21   -1    0    0  503  502  0.00000000000E+00  0.00000000000E+00  0.57688885725E+02  0.57688885725E+02  0.00000000000E+00 0. -1.
         21   -1    0    0  501  503 -0.00000000000E+00 -0.00000000000E+00 -0.70999252839E+03  0.70999252839E+03  0.00000000000E+00 0. -1.
          6    1    1    2  501    0 -0.94610709606E+02  0.39383806684E+02 -0.38217112361E+03  0.43144065446E+03  0.17200000000E+03 0. -1.
         -6    1    1    2    0  502  0.94610709606E+02 -0.39383806684E+02 -0.27013251905E+03  0.33624075965E+03  0.17200000000E+03 0. -1.
</event>
<event>
 4    1  0.4487206E+000  0.1772285E+03  0.7818608E-02  0.1170513E+00
         21   -1    0    0  503  502  0.00000000000E+00  0.00000000000E+00  0.31547875691E+03  0.31547875691E+03  0.00000000000E+00 0.  1.
         21   -1    0    0  501  503 -0.00000000000E+00 -0.00000000000E+00 -0.12611759467E+03  0.12611759467E+03  0.00000000000E+00 0.  1.
          6    1    1    2  501    0 -0.34907957088E+02 -0.24645104207E+02 -0.66356813876E+01  0.17735269633E+03  0.17200000000E+03 0.  1.
         -6    1    1    2    0  502  0.34907957088E+02  0.24645104207E+02  0.19599684362E+03  0.26424365525E+03  0.17200000000E+03 0.  1.
</event>
<event>
 4    1  0.4487206E+000  0.1779007E+03  0.7818608E-02  0.1169850E+00
         21   -1    0    0  503  502  0.00000000000E+00  0.00000000000E+00  0.16547357572E+03  0.16547357572E+03  0.00000000000E+00 0.  1.
         21   -1    0    0  501  503 -0.00000000000E+00 -0.00000000000E+00 -0.19143105414E+03  0.19143105414E+03  0.00000000000E+00 0.  1.
          6    1    1    2  501    0  0.41630011942E+02 -0.18210028878E+02 -0.18295459036E+02  0.17883899705E+03  0.17200000000E+03 0.  1.
         -6    1    1    2    0  502 -0.41630011942E+02  0.18210028878E+02 -0.76620193883E+01  0.17806563281E+03  0.17200000000E+03 0.  1.
</event>
<event>
 4    1  0.4487206E+000  0.3194125E+03  0.7818608E-02  0.1075920E+00
         21   -1    0    0  501  502  0.00000000000E+00  0.00000000000E+00  0.16927098667E+04  0.16927098667E+04  0.00000000000E+00 0.  1.
         21   -1    0    0  502  503 -0.00000000000E+00 -0.00000000000E+00 -0.66374165981E+02  0.66374165981E+02  0.00000000000E+00 0. -1.
          6    1    1    2  501    0  0.14070793247E+03  0.22943766411E+03  0.10798356488E+04  0.11260858726E+04  0.17200000000E+03 0.  1.
         -6    1    1    2    0  503 -0.14070793247E+03 -0.22943766411E+03  0.54650005198E+03  0.63299816018E+03  0.17200000000E+03 0. -1.
</event>
<event>
 4    1  0.4487206E+000  0.1748866E+03  0.7818608E-02  0.1172846E+00
         21   -1    0    0  501  502  0.00000000000E+00  0.00000000000E+00  0.24994882811E+03  0.24994882811E+03  0.00000000000E+00 0. -1.
         21   -1    0    0  502  503 -0.00000000000E+00 -0.00000000000E+00 -0.26514306579E+03  0.26514306579E+03  0.00000000000E+00 0. -1.
          6    1    1    2  501    0 -0.30531123888E+02 -0.83180412499E+01  0.18139478256E+03  0.25197104293E+03  0.17200000000E+03 0. -1.
         -6    1    1    2    0  503  0.30531123888E+02  0.83180412499E+01 -0.19658902023E+03  0.26312085097E+03  0.17200000000E+03 0. -1.
</event>
<event>
 4    1  0.4487206E+000  0.2244129E+03  0.7818608E-02  0.1130635E+00
         21   -1    0    0  501  502  0.00000000000E+00  0.00000000000E+00  0.33165245713E+03  0.33165245713E+03  0.00000000000E+00 0. -1.
         21   -1    0    0  502  503 -0.00000000000E+00 -0.00000000000E+00 -0.28513265918E+03  0.28513265918E+03  0.00000000000E+00 0. -1.
          6    1    1    2  501    0 -0.13075315682E+03  0.60669429697E+02  0.23410741970E+03  0.32429531554E+03  0.17200000000E+03 0. -1.
         -6    1    1    2    0  503  0.13075315682E+03 -0.60669429697E+02 -0.18758762176E+03  0.29248980077E+03  0.17200000000E+03 0. -1.
</event>
<event>
 4    1  0.4487206E+000  0.2013378E+03  0.7818608E-02  0.1148615E+00
         21   -1    0    0  501  502  0.00000000000E+00  0.00000000000E+00  0.27692463417E+03  0.27692463417E+03  0.00000000000E+00 0. -1.
         21   -1    0    0  502  503 -0.00000000000E+00 -0.00000000000E+00 -0.14640156608E+03  0.14640156608E+03  0.00000000000E+00 0. -1.
          6    1    1    2  501    0  0.64871570940E+02  0.82125437666E+02  0.62843305384E+02  0.21091749396E+03  0.17200000000E+03 0. -1.
         -6    1    1    2    0  503 -0.64871570940E+02 -0.82125437666E+02  0.67679762705E+02  0.21240870629E+03  0.17200000000E+03 0. -1.
</event>
<event>
 4    1  0.4487206E+000  0.2309090E+03  0.7818608E-02  0.1126002E+00
         21   -1    0    0  503  502  0.00000000000E+00  0.00000000000E+00  0.19150878523E+03  0.19150878523E+03  0.00000000000E+00 0.  1.
         21   -1    0    0  501  503 -0.00000000000E+00 -0.00000000000E+00 -0.35322312262E+03  0.35322312262E+03  0.00000000000E+00 0.  1.
          6    1    1    2  501    0 -0.94027850731E+02 -0.12203995781E+03 -0.20620060013E+03  0.30957660685E+03  0.17200000000E+03 0.  1.
         -6    1    1    2    0  502  0.94027850731E+02  0.12203995781E+03  0.44486262745E+02  0.23515530100E+03  0.17200000000E+03 0.  1.
</event>
<event>
 4    1  0.4487206E+000  0.2150885E+03  0.7818608E-02  0.1137599E+00
         21   -1    0    0  501  502  0.00000000000E+00  0.00000000000E+00  0.10761772558E+04  0.10761772558E+04  0.00000000000E+00 0. -1.
         21   -1    0    0  502  503 -0.00000000000E+00 -0.00000000000E+00 -0.13614449080E+03  0.13614449080E+03  0.00000000000E+00 0.  1.
          6    1    1    2  501    0  0.12667308019E+03 -0.25158938821E+02  0.97142720271E+03  0.99495419574E+03  0.17200000000E+03 0. -1.
         -6    1    1    2    0  503 -0.12667308019E+03  0.25158938821E+02 -0.31394437709E+02  0.21736755086E+03  0.17200000000E+03 0.  1.
</event>
<event>
 4    1  0.4487206E+000  0.2433638E+03  0.7818608E-02  0.1117572E+00
         21   -1    0    0  503  502  0.00000000000E+00  0.00000000000E+00  0.48229412051E+03  0.48229412051E+03  0.00000000000E+00 0.  1.
         21   -1    0    0  501  503 -0.00000000000E+00 -0.00000000000E+00 -0.17935966835E+03  0.17935966835E+03  0.00000000000E+00 0.  1.
          6    1    1    2  501    0 -0.93890569017E+02 -0.14431381262E+03 -0.34309056026E+02  0.24577027239E+03  0.17200000000E+03 0.  1.
         -6    1    1    2    0  502  0.93890569017E+02  0.14431381262E+03  0.33724350818E+03  0.41588351647E+03  0.17200000000E+03 0.  1.
</event>
<event>
 4    1  0.4487206E+000  0.1806401E+03  0.7818608E-02  0.1167185E+00
         21   -1    0    0  501  502  0.00000000000E+00  0.00000000000E+00  0.10263899472E+04  0.10263899472E+04  0.00000000000E+00 0. -1.
         21   -1    0    0  502  503 -0.00000000000E+00 -0.00000000000E+00 -0.13337711632E+03  0.13337711632E+03  0.00000000000E+00 0.  1.
          6    1    1    2  501    0 -0.25938969922E+02 -0.48723709842E+02  0.95258211724E+03  0.96955841503E+03  0.17200000000E+03 0. -1.
         -6    1    1    2    0  503  0.25938969922E+02  0.48723709842E+02 -0.59569286399E+02  0.19020864845E+03  0.17200000000E+03 0.  1.
</event>
<event>
 4    1  0.4487206E+000  0.2663160E+03  0.7818608E-02  0.1103407E+00
         21   -1    0    0  501  502  0.00000000000E+00  0.00000000000E+00  0.11813854305E+03  0.11813854305E+03  0.00000000000E+00 0. -1.
         21   -1    0    0  502  503 -0.00000000000E+00 -0.00000000000E+00 -0.66340248381E+03  0.66340248381E+03  0.00000000000E+00 0. -1.
          6    1    1    2  501    0 -0.81077191374E+02  0.18645824668E+03 -0.15215815509E+03  0.30671858906E+03  0.17200000000E+03 0. -1.
         -6    1    1    2    0  503  0.81077191374E+02 -0.18645824668E+03 -0.39310578566E+03  0.47482243780E+03  0.17200000000E+03 0. -1.
</event>
<event>
 4    1  0.4487206E+000  0.2113354E+03  0.7818608E-02  0.1140513E+00
         21   -1    0    0  501  502  0.00000000000E+00  0.00000000000E+00  0.38002871203E+03  0.38002871203E+03  0.00000000000E+00 0. -1.
         21   -1    0    0  502  503 -0.00000000000E+00 -0.00000000000E+00 -0.21213465551E+03  0.21213465551E+03  0.00000000000E+00 0. -1.
          6    1    1    2  501    0  0.62420499339E+02 -0.10574661930E+03  0.28167800788E+03  0.35214367289E+03  0.17200000000E+03 0. -1.
         -6    1    1    2    0  503 -0.62420499339E+02  0.10574661930E+03 -0.11378395136E+03  0.24001969465E+03  0.17200000000E+03 0. -1.
</event>
<event>
 4    1  0.4487206E+000  0.2089660E+03  0.7818608E-02  0.1142387E+00
         21   -1    0    0  503  502  0.00000000000E+00  0.00000000000E+00  0.68363670568E+03  0.68363670568E+03  0.00000000000E+00 0. -1.
         21   -1    0    0  501  503 -0.00000000000E+00 -0.00000000000E+00 -0.63962082640E+02  0.63962082640E+02  0.00000000000E+00 0. -1.
          6    1    1    2  501    0  0.99049547803E+00  0.11866677508E+03  0.29598585809E+03  0.36231810993E+03  0.17200000000E+03 0. -1.
         -6    1    1    2    0  502 -0.99049547803E+00 -0.11866677508E+03  0.32368876495E+03  0.38528067839E+03  0.17200000000E+03 0. -1.
</event>
<event>
 4    1  0.4487206E+000  0.2074930E+03  0.7818608E-02  0.1143567E+00
         21   -1    0    0  501  502  0.00000000000E+00  0.00000000000E+00  0.15897341922E+03  0.15897341922E+03  0.00000000000E+00 0.  1.
         21   -1    0    0  502  503 -0.00000000000E+00 -0.00000000000E+00 -0.29040138583E+03  0.29040138583E+03  0.00000000000E+00 0. -1.
          6    1    1    2  501    0 -0.28664269927E+02 -0.11246204757E+03 -0.12405703703E+03  0.24175090682E+03  0.17200000000E+03 0. -1.
         -6    1    1    2    0  503  0.28664269927E+02  0.11246204757E+03 -0.73709295859E+01  0.20762389823E+03  0.17200000000E+03 0.  1.
</event>
<event>
 4    1  0.4487206E+000  0.2073031E+03  0.7818608E-02  0.1143720E+00
         21   -1    0    0  503  502  0.00000000000E+00  0.00000000000E+00  0.11964535999E+04  0.11964535999E+04  0.00000000000E+00 0. -1.
         21   -1    0    0  501  503 -0.00000000000E+00 -0.00000000000E+00 -0.36347680019E+02  0.36347680019E+02  0.00000000000E+00 0. -1.
          6    1    1    2  501    0 -0.70715641498E+02  0.91596314534E+02  0.51305794336E+03  0.55335616020E+03  0.17200000000E+03 0. -1.
         -6    1    1    2    0  502  0.70715641498E+02 -0.91596314534E+02  0.64704797654E+03  0.67944511974E+03  0.17200000000E+03 0. -1.
</event>
<event>
 4    1  0.4487206E+000  0.2157776E+03  0.7818608E-02  0.1137071E+00
         21   -1    0    0  501  502  0.00000000000E+00  0.00000000000E+00  0.55615154740E+02  0.55615154740E+02  0.00000000000E+00 0. -1.
         21   -1    0    0  502  503 -0.00000000000E+00 -0.00000000000E+00 -0.14207147312E+04  0.14207147312E+04  0.00000000000E+00 0.  1.
          6    1    1    2  501    0 -0.11496459924E+03  0.61311643190E+02 -0.20947175344E+03  0.30072976600E+03  0.17200000000E+03 0. -1.
         -6    1    1    2    0  503  0.11496459924E+03 -0.61311643190E+02 -0.11556278230E+04  0.11756001199E+04  0.17200000000E+03 0.  1.
</event>
<event>
 4    1  0.4487206E+000  0.1962431E+03  0.7818608E-02  0.1152948E+00
         21   -1    0    0  503  502  0.00000000000E+00  0.00000000000E+00  0.33812255818E+03  0.33812255818E+03  0.00000000000E+00 0.  1.
         21   -1    0    0  501  503 -0.00000000000E+00 -0.00000000000E+00 -0.12003088639E+03  0.12003088639E+03  0.00000000000E+00 0. -1.
          6    1    1    2  501    0  0.23687831911E+02  0.91467166381E+02  0.57263667115E+02  0.20442720826E+03  0.17200000000E+03 0. -1.
         -6    1    1    2    0  502 -0.23687831911E+02 -0.91467166381E+02  0.16082800467E+03  0.25372623631E+03  0.17200000000E+03 0. -1.
</event>
<event>
 4    1  0.4487206E+000  0.1860760E+03  0.7818608E-02  0.1162049E+00
         21   -1    0    0  503  502  0.00000000000E+00  0.00000000000E+00  0.84199281016E+02  0.84199281016E+02  0.00000000000E+00 0.  1.
         21   -1    0    0  501  503 -0.00000000000E+00 -0.00000000000E+00 -0.65017587574E+03  0.65017587574E+03  0.00000000000E+00 0.  1.
          6    1    1    2  501    0  0.70878853838E+02  0.40564593577E+01 -0.50559239575E+03  0.53874663565E+03  0.17200000000E+03 0.  1.
         -6    1    1    2    0  502 -0.70878853838E+02 -0.40564593577E+01 -0.60384198974E+02  0.19562852110E+03  0.17200000000E+03 0.  1.
</event>
<event>
 4    1  0.4487206E+000  0.2279869E+03  0.7818608E-02  0.1128065E+00
         21   -1    0    0  501  502  0.00000000000E+00  0.00000000000E+00  0.51780603454E+02  0.51780603454E+02  0.00000000000E+00 0. -1.
         21   -1    0    0  502  503 -0.00000000000E+00 -0.00000000000E+00 -0.22611346743E+04  0.22611346743E+04  0.00000000000E+00 0. -1.
          6    1    1    2  501    0  0.21362421806E+02  0.14811376483E+03 -0.24231481190E+03  0.33270784250E+03  0.17200000000E+03 0. -1.
         -6    1    1    2    0  503 -0.21362421806E+02 -0.14811376483E+03 -0.19670392589E+04  0.19802074352E+04  0.17200000000E+03 0. -1.
</event>
<event>
 4    1  0.4487206E+000  0.2226777E+03  0.7818608E-02  0.1131902E+00
         21   -1    0    0  501  502  0.00000000000E+00  0.00000000000E+00  0.50614279343E+03  0.50614279343E+03  0.00000000000E+00 0.  1.
         21   -1    0    0  502  503 -0.00000000000E+00 -0.00000000000E+00 -0.13457309699E+03  0.13457309699E+03  0.00000000000E+00 0.  1.
          6    1    1    2  501    0 -0.72805559462E+02 -0.12124646220E+03  0.35286788114E+03  0.41725423380E+03  0.17200000000E+03 0.  1.
         -6    1    1    2    0  503  0.72805559462E+02  0.12124646220E+03  0.18701815289E+02  0.22346165662E+03  0.17200000000E+03 0.  1.
</event>
<event>
 4    1  0.4487206E+000  0.2139474E+03  0.7818608E-02  0.1138478E+00
         21   -1    0    0  501  502  0.00000000000E+00  0.00000000000E+00  0.63504866940E+02  0.63504866940E+02  0.00000000000E+00 0.  1.
         21   -1    0    0  502  503 -0.00000000000E+00 -0.00000000000E+00 -0.73486384777E+03  0.73486384777E+03  0.00000000000E+00 0.  1.
          6    1    1    2  501    0 -0.12605572266E+03 -0.17304532240E+02 -0.28043099357E+03  0.35272515392E+03  0.17200000000E+03 0.  1.
         -6    1    1    2    0  503  0.12605572266E+03  0.17304532240E+02 -0.39092798726E+03  0.44564356079E+03  0.17200000000E+03 0.  1.
</event>
<event>
 4    1  0.4487206E+000  0.1724471E+03  0.7818608E-02  0.1175320E+00
         21   -1    0    0  501  502  0.00000000000E+00  0.00000000000E+00  0.81402201426E+02  0.81402201426E+02  0.00000000000E+00 0. -1.
         21   -1    0    0  502  503 -0.00000000000E+00 -0.00000000000E+00 -0.43544379728E+03  0.43544379728E+03  0.00000000000E+00 0. -1.
          6    1    1    2  501    0 -0.12404751973E+02 -0.35461815105E+00 -0.28072397500E+03  0.32946009434E+03  0.17200000000E+03 0.  1.
         -6    1    1    2    0  503  0.12404751973E+02  0.35461815105E+00 -0.73317620854E+02  0.18738590436E+03  0.17200000000E+03 0.  1.
</event>
<event>
 4    1  0.4487206E+000  0.1936655E+03  0.7818608E-02  0.1155196E+00
         21   -1    0    0  503  502  0.00000000000E+00  0.00000000000E+00  0.57657174544E+02  0.57657174544E+02  0.00000000000E+00 0.  1.
         21   -1    0    0  501  503 -0.00000000000E+00 -0.00000000000E+00 -0.11224744624E+04  0.11224744624E+04  0.00000000000E+00 0.  1.
          6    1    1    2  501    0  0.88863415887E+02  0.50599684872E+01 -0.91502976174E+03  0.93529983152E+03  0.17200000000E+03 0.  1.
         -6    1    1    2    0  502 -0.88863415887E+02 -0.50599684872E+01 -0.14978752609E+03  0.24483180540E+03  0.17200000000E+03 0.  1.
</event>
<event>
 4    1  0.4487206E+000  0.2120101E+03  0.7818608E-02  0.1139984E+00
         21   -1    0    0  501  502  0.00000000000E+00  0.00000000000E+00  0.29615239478E+02  0.29615239478E+02  0.00000000000E+00 0.  1.
         21   -1    0    0  502  503 -0.00000000000E+00 -0.00000000000E+00 -0.19215722856E+04  0.19215722856E+04  0.00000000000E+00 0. -1.
          6    1    1    2  501    0 -0.62201758241E+02 -0.10721586893E+03 -0.49873924184E+03  0.54193092976E+03  0.17200000000E+03 0.  1.
         -6    1    1    2    0  503  0.62201758241E+02  0.10721586893E+03 -0.13932178043E+04  0.14092565953E+04  0.17200000000E+03 0. -1.
</event>
<event>
 4    1  0.4487206E+000  0.1903204E+03  0.7818608E-02  0.1158173E+00
         21   -1    0    0  503  502  0.00000000000E+00  0.00000000000E+00  0.18804821466E+03  0.18804821466E+03  0.00000000000E+00 0.  1.
         21   -1    0    0  501  503 -0.00000000000E+00 -0.00000000000E+00 -0.19373077092E+03  0.19373077092E+03  0.00000000000E+00 0.  1.
          6    1    1    2  501    0 -0.39035669381E+02 -0.71512761349E+02 -0.17295113618E+02  0.19110462965E+03  0.17200000000E+03 0.  1.
         -6    1    1    2    0  502  0.39035669381E+02  0.71512761349E+02  0.11612557352E+02  0.19067435593E+03  0.17200000000E+03 0.  1.
</event>
<event>
 4    1  0.4487206E+000  0.1868158E+03  0.7818608E-02  0.1161365E+00
         21   -1    0    0  503  502  0.00000000000E+00  0.00000000000E+00  0.13621305137E+03  0.13621305137E+03  0.00000000000E+00 0.  1.
         21   -1    0    0  501  503 -0.00000000000E+00 -0.00000000000E+00 -0.26423058120E+03  0.26423058120E+03  0.00000000000E+00 0.  1.
          6    1    1    2  501    0  0.53288763463E+02  0.49763928475E+02 -0.98876594946E+02  0.21136868717E+03  0.17200000000E+03 0.  1.
         -6    1    1    2    0  502 -0.53288763463E+02 -0.49763928475E+02 -0.29140934887E+02  0.18907494539E+03  0.17200000000E+03 0.  1.
</event>
<event>
 4    1  0.4487206E+000  0.1951214E+03  0.7818608E-02  0.1153922E+00
         21   -1    0    0  503  502  0.00000000000E+00  0.00000000000E+00  0.25913590479E+03  0.25913590479E+03  0.00000000000E+00 0.  1.
         21   -1    0    0  501  503 -0.00000000000E+00 -0.00000000000E+00 -0.21014653829E+03  0.21014653829E+03  0.00000000000E+00 0.  1.
          6    1    1    2  501    0  0.67807678104E+02 -0.62373643154E+02 -0.10420915404E+03  0.22120556131E+03  0.17200000000E+03 0.  1.
         -6    1    1    2    0  502 -0.67807678104E+02  0.62373643154E+02  0.15319852054E+03  0.24807688177E+03  0.17200000000E+03 0.  1.
</event>
<event>
 4    1  0.4487206E+000  0.2702469E+03  0.7818608E-02  0.1101138E+00
         21   -1    0    0  501  502  0.00000000000E+00  0.00000000000E+00  0.11994151130E+04  0.11994151130E+04  0.00000000000E+00 0. -1.
         21   -1    0    0  502  503 -0.00000000000E+00 -0.00000000000E+00 -0.14307426793E+03  0.14307426793E+03  0.00000000000E+00 0. -1.
          6    1    1    2  501    0  0.83583274527E+02 -0.19095342540E+03  0.10369061821E+04  0.10715445884E+04  0.17200000000E+03 0. -1.
         -6    1    1    2    0  503 -0.83583274527E+02  0.19095342540E+03  0.19434662914E+02  0.27094479248E+03  0.17200000000E+03 0. -1.
</event>
<event>
 4    1  0.4487206E+000  0.2169119E+03  0.7818608E-02  0.1136207E+00
         21   -1    0    0  503  502  0.00000000000E+00  0.00000000000E+00  0.84998629562E+03  0.84998629562E+03  0.00000000000E+00 0. -1.
         21   -1    0    0  501  503 -0.00000000000E+00 -0.00000000000E+00 -0.11950590910E+03  0.11950590910E+03  0.00000000000E+00 0.  1.
          6    1    1    2  501    0  0.53420549451E+02  0.12088430074E+03  0.10081926398E+02  0.21714606722E+03  0.17200000000E+03 0.  1.
         -6    1    1    2    0  502 -0.53420549451E+02 -0.12088430074E+03  0.72039846012E+03  0.75234613750E+03  0.17200000000E+03 0. -1.
</event>
<event>
 4    1  0.4487206E+000  0.2501366E+03  0.7818608E-02  0.1113219E+00
         21   -1    0    0  501  502  0.00000000000E+00  0.00000000000E+00  0.13817723526E+03  0.13817723526E+03  0.00000000000E+00 0.  1.
         21   -1    0    0  502  503 -0.00000000000E+00 -0.00000000000E+00 -0.67023118431E+03  0.67023118431E+03  0.00000000000E+00 0. -1.
          6    1    1    2  501    0  0.17775091857E+03  0.37268330428E+02 -0.35809971650E+02  0.25268690424E+03  0.17200000000E+03 0.  1.
         -6    1    1    2    0  503 -0.17775091857E+03 -0.37268330428E+02 -0.49624397739E+03  0.55572151533E+03  0.17200000000E+03 0. -1.
</event>
<event>
 4    1  0.4487206E+000  0.2108279E+03  0.7818608E-02  0.1140912E+00
         21   -1    0    0  501  502  0.00000000000E+00  0.00000000000E+00  0.26524840198E+03  0.26524840198E+03  0.00000000000E+00 0. -1.
         21   -1    0    0  502  503 -0.00000000000E+00 -0.00000000000E+00 -0.16938003809E+03  0.16938003809E+03  0.00000000000E+00 0.  1.
          6    1    1    2  501    0 -0.45733359998E+02 -0.11301712153E+03  0.25486676350E+02  0.21236285138E+03  0.17200000000E+03 0. -1.
         -6    1    1    2    0  503  0.45733359998E+02  0.11301712153E+03  0.70381687538E+02  0.22226558869E+03  0.17200000000E+03 0. -1.
</event>
<event>
 4    1  0.4487206E+000  0.1877364E+03  0.7818608E-02  0.1160519E+00
         21   -1    0    0  503  502  0.00000000000E+00  0.00000000000E+00  0.25683535057E+03  0.25683535057E+03  0.00000000000E+00 0. -1.
         21   -1    0    0  501  503 -0.00000000000E+00 -0.00000000000E+00 -0.24670272504E+03  0.24670272504E+03  0.00000000000E+00 0. -1.
          6    1    1    2  501    0  0.38954327166E+02 -0.64370052354E+02  0.17278163007E+03  0.25514394944E+03  0.17200000000E+03 0. -1.
         -6    1    1    2    0  502 -0.38954327166E+02  0.64370052354E+02 -0.16264900454E+03  0.24839412618E+03  0.17200000000E+03 0. -1.
</event>
<event>
 4    1  0.4487206E+000  0.2485390E+03  0.7818608E-02  0.1114232E+00
         21   -1    0    0  501  502  0.00000000000E+00  0.00000000000E+00  0.10477861369E+04  0.10477861369E+04  0.00000000000E+00 0. -1.
         21   -1    0    0  502  503 -0.00000000000E+00 -0.00000000000E+00 -0.13882771668E+03  0.13882771668E+03  0.00000000000E+00 0.  1.
          6    1    1    2  501    0  0.17382298883E+03  0.44420473895E+02  0.90450993949E+03  0.93803509561E+03  0.17200000000E+03 0. -1.
         -6    1    1    2    0  503 -0.17382298883E+03 -0.44420473895E+02  0.44484807609E+01  0.24857875800E+03  0.17200000000E+03 0.  1.
</event>
<event>
 4    1  0.4487206E+000  0.1750197E+03  0.7818608E-02  0.1172712E+00
         21   -1    0    0  503  502  0.00000000000E+00  0.00000000000E+00  0.19855984910E+03  0.19855984910E+03  0.00000000000E+00 0.  1.
         21   -1    0    0  501  503 -0.00000000000E+00 -0.00000000000E+00 -0.28420607278E+03  0.28420607278E+03  0.00000000000E+00 0.  1.
          6    1    1    2  501    0 -0.26704004032E+02 -0.18297424963E+02 -0.20603590551E+03  0.27033811043E+03  0.17200000000E+03 0.  1.
         -6    1    1    2    0  502  0.26704004032E+02  0.18297424963E+02  0.12038968182E+03  0.21242781146E+03  0.17200000000E+03 0.  1.
</event>
<event>
 4    1  0.4487206E+000  0.1801361E+03  0.7818608E-02  0.1167671E+00
         21   -1    0    0  503  502  0.00000000000E+00  0.00000000000E+00  0.38499227357E+03  0.38499227357E+03  0.00000000000E+00 0.  1.
         21   -1    0    0  501  503 -0.00000000000E+00 -0.00000000000E+00 -0.42277474128E+03  0.42277474128E+03  0.00000000000E+00 0.  1.
          6    1    1    2  501    0 -0.55841857520E+01 -0.53233863130E+02 -0.38027982317E+03  0.42078708539E+03  0.17200000000E+03 0.  1.
         -6    1    1    2    0  502  0.55841857520E+01  0.53233863130E+02  0.34249735546E+03  0.38697992947E+03  0.17200000000E+03 0.  1.
</event>
<event>
 4    1  0.4487206E+000  0.2034255E+03  0.7818608E-02  0.1146881E+00
         21   -1    0    0  501  502  0.00000000000E+00  0.00000000000E+00  0.19409813482E+03  0.19409813482E+03  0.00000000000E+00 0.  1.
         21   -1    0    0  502  503 -0.00000000000E+00 -0.00000000000E+00 -0.33432109055E+03  0.33432109055E+03  0.00000000000E+00 0. -1.
          6    1    1    2  501    0  0.10364592036E+03  0.32488053637E+02  0.88916855098E+02  0.22200936367E+03  0.17200000000E+03 0.  1.
         -6    1    1    2    0  503 -0.10364592036E+03 -0.32488053637E+02 -0.22913981083E+03  0.30640986169E+03  0.17200000000E+03 0. -1.
</event>
<event>
 4    1  0.4487206E+000  0.1971737E+03  0.7818608E-02  0.1152146E+00
         21   -1    0    0  503  502  0.00000000000E+00  0.00000000000E+00  0.69368416502E+03  0.69368416502E+03  0.00000000000E+00 0. -1.
         21   -1    0    0  501  503 -0.00000000000E+00 -0.00000000000E+00 -0.75227354070E+02  0.75227354070E+02  0.00000000000E+00 0. -1.
          6    1    1    2  501    0  0.78649544396E+02  0.55746923435E+02  0.11509047853E+03  0.22830525302E+03  0.17200000000E+03 0. -1.
         -6    1    1    2    0  502 -0.78649544396E+02 -0.55746923435E+02  0.50336633242E+03  0.54060626608E+03  0.17200000000E+03 0. -1.
</event>
<event>
 4    1  0.4487206E+000  0.2004176E+03  0.7818608E-02  0.1149387E+00
         21   -1    0    0  501  502  0.00000000000E+00  0.00000000000E+00  0.89516409685E+02  0.89516409685E+02  0.00000000000E+00 0.  1.
         21   -1    0    0  502  503 -0.00000000000E+00 -0.00000000000E+00 -0.51178406777E+03  0.51178406777E+03  0.00000000000E+00 0.  1.
          6    1    1    2  501    0  0.10272098843E+03  0.56212640057E+01 -0.10559011654E+03  0.22653139470E+03  0.17200000000E+03 0.  1.
         -6    1    1    2    0  503 -0.10272098843E+03 -0.56212640057E+01 -0.31667754154E+03  0.37476908276E+03  0.17200000000E+03 0.  1.
</event>
<event>
 4    1  0.4487206E+000  0.1864347E+03  0.7818608E-02  0.1161717E+00
         21   -1    0    0  503  502  0.00000000000E+00  0.00000000000E+00  0.11532742549E+03  0.11532742549E+03  0.00000000000E+00 0.  1.
         21   -1    0    0  501  503 -0.00000000000E+00 -0.00000000000E+00 -0.35040444444E+03  0.35040444444E+03  0.00000000000E+00 0.  1.
          6    1    1    2  501    0 -0.34359707793E+02 -0.63192546003E+02 -0.20463647121E+03  0.27682841751E+03  0.17200000000E+03 0.  1.
         -6    1    1    2    0  502  0.34359707793E+02  0.63192546003E+02 -0.30440547741E+02  0.18890345242E+03  0.17200000000E+03 0.  1.
</event>
<event>
 4    1  0.4487206E+000  0.1803277E+03  0.7818608E-02  0.1167486E+00
         21   -1    0    0  503  502  0.00000000000E+00  0.00000000000E+00  0.19002495644E+03  0.19002495644E+03  0.00000000000E+00 0. -1.
         21   -1    0    0  501  503 -0.00000000000E+00 -0.00000000000E+00 -0.20187004669E+03  0.20187004669E+03  0.00000000000E+00 0. -1.
          6    1    1    2  501    0 -0.53424894743E+02  0.89356853555E+01 -0.82392298194E+02  0.19825881230E+03  0.17200000000E+03 0. -1.
         -6    1    1    2    0  502  0.53424894743E+02 -0.89356853555E+01  0.70547207951E+02  0.19363619083E+03  0.17200000000E+03 0. -1.
</event>
<event>
 4    1  0.4487206E+000  0.1761347E+03  0.7818608E-02  0.1171597E+00
         21   -1    0    0  501  502  0.00000000000E+00  0.00000000000E+00  0.88463669355E+03  0.88463669355E+03  0.00000000000E+00 0. -1.
         21   -1    0    0  502  503 -0.00000000000E+00 -0.00000000000E+00 -0.58787457074E+02  0.58787457074E+02  0.00000000000E+00 0. -1.
          6    1    1    2  501    0  0.13803348207E+02 -0.35339998108E+02  0.71254861545E+03  0.73399521610E+03  0.17200000000E+03 0. -1.
         -6    1    1    2    0  503 -0.13803348207E+02  0.35339998108E+02  0.11330062102E+03  0.20942893452E+03  0.17200000000E+03 0. -1.
</event>
<event>
 4    1  0.4487206E+000  0.2233836E+03  0.7818608E-02  0.1131385E+00
         21   -1    0    0  503  502  0.00000000000E+00  0.00000000000E+00  0.34135346468E+03  0.34135346468E+03  0.00000000000E+00 0.  1.
         21   -1    0    0  501  503 -0.00000000000E+00 -0.00000000000E+00 -0.17538767991E+03  0.17538767991E+03  0.00000000000E+00 0.  1.
          6    1    1    2  501    0  0.10016110652E+03 -0.10140988774E+03 -0.22447713382E+02  0.22450860212E+03  0.17200000000E+03 0.  1.
         -6    1    1    2    0  502 -0.10016110652E+03  0.10140988774E+03  0.18841349815E+03  0.29223254247E+03  0.17200000000E+03 0.  1.
</event>
<event>
 4    1  0.4487206E+000  0.2125418E+03  0.7818608E-02  0.1139569E+00
         21   -1    0    0  501  502  0.00000000000E+00  0.00000000000E+00  0.16060464586E+03  0.16060464586E+03  0.00000000000E+00 0.  1.
         21   -1    0    0  502  503 -0.00000000000E+00 -0.00000000000E+00 -0.32048012036E+03  0.32048012036E+03  0.00000000000E+00 0.  1.
          6    1    1    2  501    0 -0.20578036913E+02 -0.12315266974E+03  0.41947449713E+01  0.21258323441E+03  0.17200000000E+03 0.  1.
         -6    1    1    2    0  503  0.20578036913E+02  0.12315266974E+03 -0.16407021947E+03  0.26850153181E+03  0.17200000000E+03 0.  1.
</event>
<event>
 4    1  0.4487206E+000  0.1820229E+03  0.7818608E-02  0.1165860E+00
         21   -1    0    0  501  502  0.00000000000E+00  0.00000000000E+00  0.34054031934E+03  0.34054031934E+03  0.00000000000E+00 0. -1.
         21   -1    0    0  502  503 -0.00000000000E+00 -0.00000000000E+00 -0.12955613900E+03  0.12955613900E+03  0.00000000000E+00 0. -1.
          6    1    1    2  501    0  0.15074387199E+02  0.57628825023E+02  0.22278688466E+03  0.28769135301E+03  0.17200000000E+03 0. -1.
         -6    1    1    2    0  503 -0.15074387199E+02 -0.57628825023E+02 -0.11802704315E+02  0.18240510533E+03  0.17200000000E+03 0. -1.
</event>
<event>
 4    1  0.4487206E+000  0.1954865E+03  0.7818608E-02  0.1153604E+00
         21   -1    0    0  501  502  0.00000000000E+00  0.00000000000E+00  0.30117443063E+03  0.30117443063E+03  0.00000000000E+00 0. -1.
         21   -1    0    0  502  503 -0.00000000000E+00 -0.00000000000E+00 -0.18987624427E+03  0.18987624427E+03  0.00000000000E+00 0. -1.
          6    1    1    2  501    0  0.19995112417E+02 -0.90725879465E+02  0.19706416228E+03  0.27757750950E+03  0.17200000000E+03 0. -1.
         -6    1    1    2    0  503 -0.19995112417E+02  0.90725879465E+02 -0.85765975913E+02  0.21347316541E+03  0.17200000000E+03 0. -1.
</event>
<event>
 4    1  0.4487206E+000  0.1897119E+03  0.7818608E-02  0.1158721E+00
         21   -1    0    0  503  502  0.00000000000E+00  0.00000000000E+00  0.15735574886E+03  0.15735574886E+03  0.00000000000E+00 0.  1.
         21   -1    0    0  501  503 -0.00000000000E+00 -0.00000000000E+00 -0.27426428476E+03  0.27426428476E+03  0.00000000000E+00 0.  1.
          6    1    1    2  501    0  0.63528062800E+02  0.48690723632E+02 -0.14639660880E+03  0.23963006572E+03  0.17200000000E+03 0.  1.
         -6    1    1    2    0  502 -0.63528062800E+02 -0.48690723632E+02  0.29488072888E+02  0.19198996790E+03  0.17200000000E+03 0.  1.
</event>
<event>
 4    1  0.4487206E+000  0.2032399E+03  0.7818608E-02  0.1147034E+00
         21   -1    0    0  503  502  0.00000000000E+00  0.00000000000E+00  0.42405102044E+03  0.42405102044E+03  0.00000000000E+00 0.  1.
         21   -1    0    0  501  503 -0.00000000000E+00 -0.00000000000E+00 -0.10368877149E+03  0.10368877149E+03  0.00000000000E+00 0.  1.
          6    1    1    2  501    0 -0.10336904339E+03 -0.32207253677E+02  0.95244555270E+02  0.22445042132E+03  0.17200000000E+03 0.  1.
         -6    1    1    2    0  502  0.10336904339E+03  0.32207253677E+02  0.22511769367E+03  0.30328937061E+03  0.17200000000E+03 0.  1.
</event>
<event>
 4    1  0.4487206E+000  0.2351104E+03  0.7818608E-02  0.1123094E+00
         21   -1    0    0  503  502  0.00000000000E+00  0.00000000000E+00  0.22879480366E+03  0.22879480366E+03  0.00000000000E+00 0. -1.
         21   -1    0    0  501  503 -0.00000000000E+00 -0.00000000000E+00 -0.26167674777E+03  0.26167674777E+03  0.00000000000E+00 0. -1.
          6    1    1    2  501    0 -0.46123833552E+02 -0.15351049350E+03 -0.84368426182E+02  0.24978973352E+03  0.17200000000E+03 0. -1.
         -6    1    1    2    0  502  0.46123833552E+02  0.15351049350E+03  0.51486482064E+02  0.24068181791E+03  0.17200000000E+03 0. -1.
</event>
<event>
 4    1  0.4487206E+000  0.2102916E+03  0.7818608E-02  0.1141335E+00
         21   -1    0    0  503  502  0.00000000000E+00  0.00000000000E+00  0.39327645389E+03  0.39327645389E+03  0.00000000000E+00 0.  1.
         21   -1    0    0  501  503 -0.00000000000E+00 -0.00000000000E+00 -0.16511742601E+03  0.16511742601E+03  0.00000000000E+00 0. -1.
          6    1    1    2  501    0  0.10704827136E+03 -0.56384600983E+02 -0.43608879991E+02  0.21476566309E+03  0.17200000000E+03 0. -1.
         -6    1    1    2    0  502 -0.10704827136E+03  0.56384600983E+02  0.27176790788E+03  0.34362821680E+03  0.17200000000E+03 0.  1.
</event>
<event>
 4    1  0.4487206E+000  0.2050232E+03  0.7818608E-02  0.1145569E+00
         21   -1    0    0  501  502  0.00000000000E+00  0.00000000000E+00  0.14719239588E+02  0.14719239588E+02  0.00000000000E+00 0. -1.
         21   -1    0    0  502  503 -0.00000000000E+00 -0.00000000000E+00 -0.29144238064E+04  0.29144238064E+04  0.00000000000E+00 0. -1.
          6    1    1    2  501    0  0.97619638337E+02 -0.54045561189E+02 -0.16576516840E+04  0.16702824976E+04  0.17200000000E+03 0. -1.
         -6    1    1    2    0  503 -0.97619638337E+02  0.54045561189E+02 -0.12420528828E+04  0.12588605484E+04  0.17200000000E+03 0. -1.
</event>
<event>
 4    1  0.4487206E+000  0.2285449E+03  0.7818608E-02  0.1127668E+00
         21   -1    0    0  503  502  0.00000000000E+00  0.00000000000E+00  0.53535383262E+02  0.53535383262E+02  0.00000000000E+00 0.  1.
         21   -1    0    0  501  503 -0.00000000000E+00 -0.00000000000E+00 -0.97806044170E+03  0.97806044170E+03  0.00000000000E+00 0.  1.
          6    1    1    2  501    0  0.10342190678E+03 -0.10932827796E+03 -0.48777265405E+03  0.53866030595E+03  0.17200000000E+03 0.  1.
         -6    1    1    2    0  502 -0.10342190678E+03  0.10932827796E+03 -0.43675240438E+03  0.49293551900E+03  0.17200000000E+03 0.  1.
</event>
<event>
 4    1  0.4487206E+000  0.1926491E+03  0.7818608E-02  0.1156094E+00
         21   -1    0    0  503  502  0.00000000000E+00  0.00000000000E+00  0.86920015395E+03  0.86920015395E+03  0.00000000000E+00 0. -1.
         21   -1    0    0  501  503 -0.00000000000E+00 -0.00000000000E+00 -0.44704821248E+02  0.44704821248E+02  0.00000000000E+00 0. -1.
          6    1    1    2  501    0 -0.27436372836E+02 -0.82321963352E+02  0.31544674789E+03  0.36962184860E+03  0.17200000000E+03 0. -1.
         -6    1    1    2    0  502  0.27436372836E+02  0.82321963352E+02  0.50904858481E+03  0.54428312660E+03  0.17200000000E+03 0. -1.
</event>
<event>
 4    1  0.4487206E+000  0.1923444E+03  0.7818608E-02  0.1156364E+00
         21   -1    0    0  503  502  0.00000000000E+00  0.00000000000E+00  0.17644735444E+03  0.17644735444E+03  0.00000000000E+00 0. -1.
         21   -1    0    0  501  503 -0.00000000000E+00 -0.00000000000E+00 -0.21459279024E+03  0.21459279024E+03  0.00000000000E+00 0. -1.
          6    1    1    2  501    0 -0.82411156913E+02  0.24915305633E+02 -0.48675040421E+02  0.19840773876E+03  0.17200000000E+03 0. -1.
         -6    1    1    2    0  502  0.82411156913E+02 -0.24915305633E+02  0.10529604615E+02  0.19263240592E+03  0.17200000000E+03 0. -1.
</event>
<event>
 4    1  0.4487206E+000  0.2680778E+03  0.7818608E-02  0.1102385E+00
         21   -1    0    0  501  502  0.00000000000E+00  0.00000000000E+00  0.75791978621E+03  0.75791978621E+03  0.00000000000E+00 0.  1.
         21   -1    0    0  502  503 -0.00000000000E+00 -0.00000000000E+00 -0.15364210917E+03  0.15364210917E+03  0.00000000000E+00 0. -1.
          6    1    1    2  501    0  0.15023909004E+03  0.14039210575E+03  0.58415398689E+03  0.64272980943E+03  0.17200000000E+03 0.  1.
         -6    1    1    2    0  503 -0.15023909004E+03 -0.14039210575E+03  0.20123690148E+02  0.26883208595E+03  0.17200000000E+03 0. -1.
</event>
<event>
 4    1  0.4487206E+000  0.1754051E+03  0.7818608E-02  0.1172326E+00
         21   -1    0    0  501  502  0.00000000000E+00  0.00000000000E+00  0.42457613390E+03  0.42457613390E+03  0.00000000000E+00 0. -1.
         21   -1    0    0  502  503 -0.00000000000E+00 -0.00000000000E+00 -0.55194137890E+03  0.55194137890E+03  0.00000000000E+00 0. -1.
          6    1    1    2  501    0  0.20830930682E+02  0.27368071683E+02  0.39139673941E+03  0.42890365660E+03  0.17200000000E+03 0. -1.
         -6    1    1    2    0  503 -0.20830930682E+02 -0.27368071683E+02 -0.51876198442E+03  0.54761385619E+03  0.17200000000E+03 0. -1.
</event>
<event>
 4    1  0.4487206E+000  0.1787258E+03  0.7818608E-02  0.1169042E+00
         21   -1    0    0  501  502  0.00000000000E+00  0.00000000000E+00  0.74907470377E+02  0.74907470377E+02  0.00000000000E+00 0. -1.
         21   -1    0    0  502  503 -0.00000000000E+00 -0.00000000000E+00 -0.13638380367E+04  0.13638380367E+04  0.00000000000E+00 0. -1.
          6    1    1    2  501    0  0.70665529419E+01 -0.48051873236E+02 -0.48066797812E+02  0.18507656725E+03  0.17200000000E+03 0. -1.
         -6    1    1    2    0  503 -0.70665529419E+01  0.48051873236E+02 -0.12408637685E+04  0.12536689398E+04  0.17200000000E+03 0. -1.
</event>
<event>
 4    1  0.4487206E+000  0.1816040E+03  0.7818608E-02  0.1166260E+00
         21   -1    0    0  501  502  0.00000000000E+00  0.00000000000E+00  0.10758304493E+03  0.10758304493E+03  0.00000000000E+00 0.  1.
         21   -1    0    0  502  503 -0.00000000000E+00 -0.00000000000E+00 -0.30744444554E+03  0.30744444554E+03  0.00000000000E+00 0.  1.
          6    1    1    2  501    0 -0.39406312673E+02 -0.42931915438E+02 -0.88762565995E+02  0.20213559796E+03  0.17200000000E+03 0.  1.
         -6    1    1    2    0  503  0.39406312673E+02  0.42931915438E+02 -0.11109883461E+03  0.21289189250E+03  0.17200000000E+03 0.  1.
</event>
<event>
 4    1  0.4487206E+000  0.1875733E+03  0.7818608E-02  0.1160668E+00
         21   -1    0    0  503  502  0.00000000000E+00  0.00000000000E+00  0.55324308854E+02  0.55324308854E+02  0.00000000000E+00 0.  1.
         21   -1    0    0  501  503 -0.00000000000E+00 -0.00000000000E+00 -0.63673702196E+03  0.63673702196E+03  0.00000000000E+00 0.  1.
          6    1    1    2  501    0  0.74762902336E+02 -0.32010542258E+01 -0.27857506088E+03  0.33583895375E+03  0.17200000000E+03 0.  1.
         -6    1    1    2    0  502 -0.74762902336E+02  0.32010542258E+01 -0.30283765223E+03  0.35622237707E+03  0.17200000000E+03 0.  1.
</event>
<event>
 4    1  0.4487206E+000  0.2234307E+03  0.7818608E-02  0.1131351E+00
         21   -1    0    0  503  502  0.00000000000E+00  0.00000000000E+00  0.63911736252E+03  0.63911736252E+03  0.00000000000E+00 0.  1.
         21   -1    0    0  501  503 -0.00000000000E+00 -0.00000000000E+00 -0.79722305296E+02  0.79722305296E+02  0.00000000000E+00 0. -1.
          6    1    1    2  501    0  0.14260870859E+03  0.11422681187E+00  0.22857904341E+03  0.31963985343E+03  0.17200000000E+03 0. -1.
         -6    1    1    2    0  502 -0.14260870859E+03 -0.11422681187E+00  0.33081601381E+03  0.39919981439E+03  0.17200000000E+03 0. -1.
</event>
<event>
 4    1  0.4487206E+000  0.2430926E+03  0.7818608E-02  0.1117750E+00
         21   -1    0    0  503  502  0.00000000000E+00  0.00000000000E+00  0.13251566968E+03  0.13251566968E+03  0.00000000000E+00 0. -1.
         21   -1    0    0  501  503 -0.00000000000E+00 -0.00000000000E+00 -0.45112552544E+03  0.45112552544E+03  0.00000000000E+00 0.  1.
          6    1    1    2  501    0  0.14363464236E+03  0.94228905077E+02 -0.19059283314E+03  0.30890067187E+03  0.17200000000E+03 0. -1.
         -6    1    1    2    0  502 -0.14363464236E+03 -0.94228905077E+02 -0.12801702262E+03  0.27474052326E+03  0.17200000000E+03 0. -1.
</event>
<event>
 4    1  0.4487206E+000  0.2851468E+03  0.7818608E-02  0.1092911E+00
         21   -1    0    0  503  502  0.00000000000E+00  0.00000000000E+00  0.41225685135E+03  0.41225685135E+03  0.00000000000E+00 0.  1.
         21   -1    0    0  501  503 -0.00000000000E+00 -0.00000000000E+00 -0.23746886399E+03  0.23746886399E+03  0.00000000000E+00 0. -1.
          6    1    1    2  501    0 -0.21648714625E+03  0.69699428119E+02 -0.46336071378E+02  0.28888704762E+03  0.17200000000E+03 0. -1.
         -6    1    1    2    0  502  0.21648714625E+03 -0.69699428119E+02  0.22112405874E+03  0.36083866772E+03  0.17200000000E+03 0.  1.
</event>
<event>
 4    1  0.4487206E+000  0.1806011E+03  0.7818608E-02  0.1167223E+00
         21   -1    0    0  503  502  0.00000000000E+00  0.00000000000E+00  0.66920722937E+03  0.66920722937E+03  0.00000000000E+00 0.  1.
         21   -1    0    0  501  503 -0.00000000000E+00 -0.00000000000E+00 -0.51039174964E+02  0.51039174964E+02  0.00000000000E+00 0.  1.
          6    1    1    2  501    0  0.31792347148E+02 -0.44966731516E+02  0.38552773566E+03  0.42573277445E+03  0.17200000000E+03 0.  1.
         -6    1    1    2    0  502 -0.31792347148E+02  0.44966731516E+02  0.23264031875E+03  0.29451362989E+03  0.17200000000E+03 0.  1.
</event>
<event>
 4    1  0.4487206E+000  0.2027540E+03  0.7818608E-02  0.1147436E+00
         21   -1    0    0  503  502  0.00000000000E+00  0.00000000000E+00  0.67171173011E+02  0.67171173011E+02  0.00000000000E+00 0. -1.
         21   -1    0    0  501  503 -0.00000000000E+00 -0.00000000000E+00 -0.66566630706E+03  0.66566630706E+03  0.00000000000E+00 0.  1.
          6    1    1    2  501    0 -0.76298083066E+02 -0.75523540308E+02 -0.40328112535E+03  0.45138106815E+03  0.17200000000E+03 0.  1.
         -6    1    1    2    0  502  0.76298083066E+02  0.75523540308E+02 -0.19521400870E+03  0.28145641193E+03  0.17200000000E+03 0. -1.
</event>
<event>
 4    1  0.4487206E+000  0.2528766E+03  0.7818608E-02  0.1111500E+00
         21   -1    0    0  503  502  0.00000000000E+00  0.00000000000E+00  0.99526595944E+02  0.99526595944E+02  0.00000000000E+00 0.  1.
         21   -1    0    0  501  503 -0.00000000000E+00 -0.00000000000E+00 -0.79129820674E+03  0.79129820674E+03  0.00000000000E+00 0.  1.
          6    1    1    2  501    0 -0.15879684517E+03 -0.95635332065E+02 -0.53902950719E+03  0.59539849210E+03  0.17200000000E+03 0.  1.
         -6    1    1    2    0  502  0.15879684517E+03  0.95635332065E+02 -0.15274210361E+03  0.29542631059E+03  0.17200000000E+03 0.  1.
</event>
<event>
 4    1  0.4487206E+000  0.1861556E+03  0.7818608E-02  0.1161975E+00
         21   -1    0    0  501  502  0.00000000000E+00  0.00000000000E+00  0.10831595699E+03  0.10831595699E+03  0.00000000000E+00 0. -1.
         21   -1    0    0  502  503 -0.00000000000E+00 -0.00000000000E+00 -0.40527107416E+03  0.40527107416E+03  0.00000000000E+00 0.  1.
          6    1    1    2  501    0  0.41941959978E+02  0.57539271679E+02 -0.30640587569E+02  0.18866038641E+03  0.17200000000E+03 0. -1.
         -6    1    1    2    0  503 -0.41941959978E+02 -0.57539271679E+02 -0.26631452960E+03  0.32492664475E+03  0.17200000000E+03 0.  1.
</event>
<event>
 4    1  0.4487206E+000  0.1948164E+03  0.7818608E-02  0.1154188E+00
         21   -1    0    0  501  502  0.00000000000E+00  0.00000000000E+00  0.46928843289E+02  0.46928843289E+02  0.00000000000E+00 0. -1.
         21   -1    0    0  502  503 -0.00000000000E+00 -0.00000000000E+00 -0.12935427420E+04  0.12935427420E+04  0.00000000000E+00 0. -1.
          6    1    1    2  501    0  0.10784404223E+02 -0.90846821181E+02 -0.21299165896E+03  0.28865012572E+03  0.17200000000E+03 0. -1.
         -6    1    1    2    0  503 -0.10784404223E+02  0.90846821181E+02 -0.10336222398E+04  0.10518214596E+04  0.17200000000E+03 0. -1.
</event>
<event>
 4    1  0.4487206E+000  0.2201251E+03  0.7818608E-02  0.1133790E+00
         21   -1    0    0  503  502  0.00000000000E+00  0.00000000000E+00  0.26130538345E+03  0.26130538345E+03  0.00000000000E+00 0.  1.
         21   -1    0    0  501  503 -0.00000000000E+00 -0.00000000000E+00 -0.42701619342E+03  0.42701619342E+03  0.00000000000E+00 0. -1.
          6    1    1    2  501    0  0.95996719257E+02  0.98263290606E+02 -0.34171912471E+03  0.40648124752E+03  0.17200000000E+03 0. -1.
         -6    1    1    2    0  502 -0.95996719257E+02 -0.98263290606E+02  0.17600831474E+03  0.28184032935E+03  0.17200000000E+03 0.  1.
</event>
<event>
 4    1  0.4487206E+000  0.2173581E+03  0.7818608E-02  0.1135868E+00
         21   -1    0    0  503  502  0.00000000000E+00  0.00000000000E+00  0.81294210020E+03  0.81294210020E+03  0.00000000000E+00 0. -1.
         21   -1    0    0  501  503 -0.00000000000E+00 -0.00000000000E+00 -0.58866799073E+02  0.58866799073E+02  0.00000000000E+00 0.  1.
          6    1    1    2  501    0 -0.11608203167E+03  0.64695405203E+02  0.32779248323E+03  0.39330960526E+03  0.17200000000E+03 0.  1.
         -6    1    1    2    0  502  0.11608203167E+03 -0.64695405203E+02  0.42628281790E+03  0.47849929401E+03  0.17200000000E+03 0.  1.
</event>
<event>
 4    1  0.4487206E+000  0.2125351E+03  0.7818608E-02  0.1139574E+00
         21   -1    0    0  503  502  0.00000000000E+00  0.00000000000E+00  0.17027446654E+03  0.17027446654E+03  0.00000000000E+00 0. -1.
         21   -1    0    0  501  503 -0.00000000000E+00 -0.00000000000E+00 -0.30607586294E+03  0.30607586294E+03  0.00000000000E+00 0. -1.
          6    1    1    2  501    0  0.11664774956E+03  0.44502453676E+02 -0.15485005640E+03  0.26296331650E+03  0.17200000000E+03 0. -1.
         -6    1    1    2    0  502 -0.11664774956E+03 -0.44502453676E+02  0.19048660004E+02  0.21338701298E+03  0.17200000000E+03 0. -1.
</event>
<event>
 4    1  0.4487206E+000  0.1926025E+03  0.7818608E-02  0.1156135E+00
         21   -1    0    0  501  502  0.00000000000E+00  0.00000000000E+00  0.68179067296E+02  0.68179067296E+02  0.00000000000E+00 0.  1.
         21   -1    0    0  502  503 -0.00000000000E+00 -0.00000000000E+00 -0.56437981013E+03  0.56437981013E+03  0.00000000000E+00 0. -1.
          6    1    1    2  501    0  0.68572092868E+02 -0.53005619050E+02 -0.18813560580E+03  0.26924103280E+03  0.17200000000E+03 0.  1.
         -6    1    1    2    0  503 -0.68572092868E+02  0.53005619050E+02 -0.30806513704E+03  0.36331784463E+03  0.17200000000E+03 0. -1.
</event>
<event>
 4    1  0.4487206E+000  0.2201583E+03  0.7818608E-02  0.1133765E+00
         21   -1    0    0  503  502  0.00000000000E+00  0.00000000000E+00  0.29883241247E+03  0.29883241247E+03  0.00000000000E+00 0. -1.
         21   -1    0    0  501  503 -0.00000000000E+00 -0.00000000000E+00 -0.31428997967E+03  0.31428997967E+03  0.00000000000E+00 0. -1.
          6    1    1    2  501    0 -0.92122918464E+02 -0.10197571077E+03  0.20552989040E+03  0.30118468344E+03  0.17200000000E+03 0. -1.
         -6    1    1    2    0  502  0.92122918464E+02  0.10197571077E+03 -0.22098745759E+03  0.31193770870E+03  0.17200000000E+03 0. -1.
</event>
<event>
 4    1  0.4487206E+000  0.1725201E+03  0.7818608E-02  0.1175245E+00
         21   -1    0    0  503  502  0.00000000000E+00  0.00000000000E+00  0.15143023067E+04  0.15143023067E+04  0.00000000000E+00 0. -1.
         21   -1    0    0  501  503 -0.00000000000E+00 -0.00000000000E+00 -0.19956014453E+02  0.19956014453E+02  0.00000000000E+00 0. -1.
          6    1    1    2  501    0 -0.17499956620E+01 -0.13270864888E+02  0.84143406582E+03  0.85893798697E+03  0.17200000000E+03 0. -1.
         -6    1    1    2    0  502  0.17499956620E+01  0.13270864888E+02  0.65291222640E+03  0.67532033415E+03  0.17200000000E+03 0. -1.
</event>
<event>
 4    1  0.4487206E+000  0.2299002E+03  0.7818608E-02  0.1126710E+00
         21   -1    0    0  501  502  0.00000000000E+00  0.00000000000E+00  0.19023086991E+03  0.19023086991E+03  0.00000000000E+00 0. -1.
         21   -1    0    0  502  503 -0.00000000000E+00 -0.00000000000E+00 -0.28961215247E+03  0.28961215247E+03  0.00000000000E+00 0. -1.
          6    1    1    2  501    0 -0.14684242431E+03 -0.41320860547E+02 -0.13231875181E+01  0.22990402763E+03  0.17200000000E+03 0. -1.
         -6    1    1    2    0  503  0.14684242431E+03  0.41320860547E+02 -0.98058095042E+02  0.24993899475E+03  0.17200000000E+03 0. -1.
</event>
<event>
 4    1  0.4487206E+000  0.1774470E+03  0.7818608E-02  0.1170297E+00
         21   -1    0    0  503  502  0.00000000000E+00  0.00000000000E+00  0.48871057912E+03  0.48871057912E+03  0.00000000000E+00 0. -1.
         21   -1    0    0  501  503 -0.00000000000E+00 -0.00000000000E+00 -0.12071232519E+03  0.12071232519E+03  0.00000000000E+00 0. -1.
          6    1    1    2  501    0 -0.18489050536E+02 -0.39517197358E+02 -0.24066489145E+02  0.17907163309E+03  0.17200000000E+03 0. -1.
         -6    1    1    2    0  502  0.18489050536E+02  0.39517197358E+02  0.39206474307E+03  0.43035127122E+03  0.17200000000E+03 0. -1.
</event>
<event>
 4    1  0.4487206E+000  0.1838626E+03  0.7818608E-02  0.1164116E+00
         21   -1    0    0  503  502  0.00000000000E+00  0.00000000000E+00  0.11458901187E+03  0.11458901187E+03  0.00000000000E+00 0.  1.
         21   -1    0    0  501  503 -0.00000000000E+00 -0.00000000000E+00 -0.37876114355E+03  0.37876114355E+03  0.00000000000E+00 0.  1.
          6    1    1    2  501    0 -0.61067447865E+02  0.22186355043E+02 -0.24807730669E+03  0.30878441935E+03  0.17200000000E+03 0.  1.
         -6    1    1    2    0  502  0.61067447865E+02 -0.22186355043E+02 -0.16094824989E+02  0.18456573607E+03  0.17200000000E+03 0.  1.
</event>
<event>
 4    1  0.4487206E+000  0.1865765E+03  0.7818608E-02  0.1161586E+00
         21   -1    0    0  501  502  0.00000000000E+00  0.00000000000E+00  0.37997920324E+03  0.37997920324E+03  0.00000000000E+00 0. -1.
         21   -1    0    0  502  503 -0.00000000000E+00 -0.00000000000E+00 -0.32616340396E+03  0.32616340396E+03  0.00000000000E+00 0. -1.
          6    1    1    2  501    0 -0.70918452981E+02 -0.14048642064E+02  0.32631596244E+03  0.37588947665E+03  0.17200000000E+03 0. -1.
         -6    1    1    2    0  503  0.70918452981E+02  0.14048642064E+02 -0.27250016316E+03  0.33025313055E+03  0.17200000000E+03 0. -1.
</event>
<event>
 4    1  0.4487206E+000  0.1741375E+03  0.7818608E-02  0.1173601E+00
         21   -1    0    0  503  502  0.00000000000E+00  0.00000000000E+00  0.21762736194E+04  0.21762736194E+04  0.00000000000E+00 0.  1.
         21   -1    0    0  501  503 -0.00000000000E+00 -0.00000000000E+00 -0.19477262771E+02  0.19477262771E+02  0.00000000000E+00 0.  1.
          6    1    1    2  501    0  0.10149247932E+02 -0.25236126172E+02  0.49269479428E+03  0.52256294320E+03  0.17200000000E+03 0.  1.
         -6    1    1    2    0  502 -0.10149247932E+02  0.25236126172E+02  0.16641015624E+04  0.16731879390E+04  0.17200000000E+03 0.  1.
</event>
<event>
 4    1  0.4487206E+000  0.3386592E+03  0.7818608E-02  0.1067368E+00
         21   -1    0    0  501  502  0.00000000000E+00  0.00000000000E+00  0.72565843828E+03  0.72565843828E+03  0.00000000000E+00 0. -1.
         21   -1    0    0  502  503 -0.00000000000E+00 -0.00000000000E+00 -0.15827648039E+03  0.15827648039E+03  0.00000000000E+00 0.  1.
          6    1    1    2  501    0 -0.26113946882E+03  0.13004713290E+03  0.30042154400E+03  0.45270650873E+03  0.17200000000E+03 0.  1.
         -6    1    1    2    0  503  0.26113946882E+03 -0.13004713290E+03  0.26696041389E+03  0.43122840994E+03  0.17200000000E+03 0. -1.
</event>
<event>
 4    1  0.4487206E+000  0.1940476E+03  0.7818608E-02  0.1154861E+00
         21   -1    0    0  503  502  0.00000000000E+00  0.00000000000E+00  0.43760485496E+03  0.43760485496E+03  0.00000000000E+00 0. -1.
         21   -1    0    0  501  503 -0.00000000000E+00 -0.00000000000E+00 -0.15375276068E+03  0.15375276068E+03  0.00000000000E+00 0. -1.
          6    1    1    2  501    0  0.64946937543E+02 -0.62067341944E+02 -0.54284553227E+02  0.20149757406E+03  0.17200000000E+03 0. -1.
         -6    1    1    2    0  502 -0.64946937543E+02  0.62067341944E+02  0.33813664751E+03  0.38986004158E+03  0.17200000000E+03 0. -1.
</event>
<event>
 4    1  0.4487206E+000  0.1892803E+03  0.7818608E-02  0.1159112E+00
         21   -1    0    0  503  502  0.00000000000E+00  0.00000000000E+00  0.17658690152E+04  0.17658690152E+04  0.00000000000E+00 0.  1.
         21   -1    0    0  501  503 -0.00000000000E+00 -0.00000000000E+00 -0.10398470800E+03  0.10398470800E+03  0.00000000000E+00 0.  1.
          6    1    1    2  501    0  0.35889712090E+02  0.70391383416E+02 -0.78329261584E+01  0.18944226832E+03  0.17200000000E+03 0.  1.
         -6    1    1    2    0  502 -0.35889712090E+02 -0.70391383416E+02  0.16697172334E+04  0.16804114549E+04  0.17200000000E+03 0.  1.
</event>
<event>
 4    1  0.4487206E+000  0.1817244E+03  0.7818608E-02  0.1166145E+00
         21   -1    0    0  501  502  0.00000000000E+00  0.00000000000E+00  0.51292057586E+03  0.51292057586E+03  0.00000000000E+00 0.  1.
         21   -1    0    0  502  503 -0.00000000000E+00 -0.00000000000E+00 -0.10760299230E+03  0.10760299230E+03  0.00000000000E+00 0. -1.
          6    1    1    2  501    0  0.45748647410E+02  0.36699131714E+02  0.39929094715E+03  0.43869924263E+03  0.17200000000E+03 0.  1.
         -6    1    1    2    0  503 -0.45748647410E+02 -0.36699131714E+02  0.60266364117E+01  0.18182432553E+03  0.17200000000E+03 0. -1.
</event>
<event>
 4    1  0.4487206E+000  0.2482603E+03  0.7818608E-02  0.1114409E+00
         21   -1    0    0  503  502  0.00000000000E+00  0.00000000000E+00  0.28893865364E+03  0.28893865364E+03  0.00000000000E+00 0. -1.
         21   -1    0    0  501  503 -0.00000000000E+00 -0.00000000000E+00 -0.28228247946E+03  0.28228247946E+03  0.00000000000E+00 0. -1.
          6    1    1    2  501    0  0.17490917820E+03  0.38157283407E+02 -0.13785203560E+03  0.28396546025E+03  0.17200000000E+03 0. -1.
         -6    1    1    2    0  502 -0.17490917820E+03 -0.38157283407E+02  0.14450820977E+03  0.28725567285E+03  0.17200000000E+03 0. -1.
</event>
<event>
 4    1  0.4487206E+000  0.2812794E+03  0.7818608E-02  0.1094992E+00
         21   -1    0    0  501  502  0.00000000000E+00  0.00000000000E+00  0.19036547753E+03  0.19036547753E+03  0.00000000000E+00 0.  1.
         21   -1    0    0  502  503 -0.00000000000E+00 -0.00000000000E+00 -0.44331885293E+03  0.44331885293E+03  0.00000000000E+00 0. -1.
          6    1    1    2  501    0 -0.21401998554E+03  0.61070168943E+02 -0.47266540090E+02  0.28522315046E+03  0.17200000000E+03 0. -1.
         -6    1    1    2    0  503  0.21401998554E+03 -0.61070168943E+02 -0.20568683531E+03  0.34846118000E+03  0.17200000000E+03 0.  1.
</event>
<event>
 4    1  0.4487206E+000  0.2345821E+03  0.7818608E-02  0.1123456E+00
         21   -1    0    0  501  502  0.00000000000E+00  0.00000000000E+00  0.91370885810E+02  0.91370885810E+02  0.00000000000E+00 0.  1.
         21   -1    0    0  502  503 -0.00000000000E+00 -0.00000000000E+00 -0.64336702352E+03  0.64336702352E+03  0.00000000000E+00 0. -1.
          6    1    1    2  501    0 -0.68970273583E+02  0.14383272473E+03 -0.18313411698E+03  0.29760184163E+03  0.17200000000E+03 0.  1.
         -6    1    1    2    0  503  0.68970273583E+02 -0.14383272473E+03 -0.36886202073E+03  0.43713606770E+03  0.17200000000E+03 0.  1.
</event>
<event>
 4    1  0.4487206E+000  0.1720786E+03  0.7818608E-02  0.1175697E+00
         21   -1    0    0  503  502  0.00000000000E+00  0.00000000000E+00  0.16750550973E+03  0.16750550973E+03  0.00000000000E+00 0.  1.
         21   -1    0    0  501  503 -0.00000000000E+00 -0.00000000000E+00 -0.21023509036E+03  0.21023509036E+03  0.00000000000E+00 0.  1.
          6    1    1    2  501    0  0.46737767592E+00  0.51792557066E+01  0.53981986423E+02  0.18034715964E+03  0.17200000000E+03 0.  1.
         -6    1    1    2    0  502 -0.46737767592E+00 -0.51792557066E+01 -0.96711567054E+02  0.19739344045E+03  0.17200000000E+03 0.  1.
</event>
<event>
 4    1  0.4487206E+000  0.1786091E+03  0.7818608E-02  0.1169156E+00
         21   -1    0    0  503  502  0.00000000000E+00  0.00000000000E+00  0.11360128158E+04  0.11360128158E+04  0.00000000000E+00 0.  1.
         21   -1    0    0  501  503 -0.00000000000E+00 -0.00000000000E+00 -0.29850089584E+02  0.29850089584E+02  0.00000000000E+00 0.  1.
          6    1    1    2  501    0 -0.92660707627E+01  0.47237283442E+02  0.41119905431E+03  0.44831449149E+03  0.17200000000E+03 0.  1.
         -6    1    1    2    0  502  0.92660707627E+01 -0.47237283442E+02  0.69496367191E+03  0.71754841390E+03  0.17200000000E+03 0.  1.
</event>
<event>
 4    1  0.4487206E+000  0.2171302E+03  0.7818608E-02  0.1136041E+00
         21   -1    0    0  501  502  0.00000000000E+00  0.00000000000E+00  0.12921096204E+03  0.12921096204E+03  0.00000000000E+00 0. -1.
         21   -1    0    0  502  503 -0.00000000000E+00 -0.00000000000E+00 -0.68617239602E+03  0.68617239602E+03  0.00000000000E+00 0. -1.
          6    1    1    2  501    0 -0.92773527666E+02 -0.94628839611E+02  0.49758375373E+00  0.21713081843E+03  0.17200000000E+03 0. -1.
         -6    1    1    2    0  503  0.92773527666E+02  0.94628839611E+02 -0.55745901773E+03  0.59825253963E+03  0.17200000000E+03 0. -1.
</event>
<event>
 4    1  0.4487206E+000  0.1866126E+03  0.7818608E-02  0.1161552E+00
         21   -1    0    0  501  502  0.00000000000E+00  0.00000000000E+00  0.66819694939E+02  0.66819694939E+02  0.00000000000E+00 0. -1.
         21   -1    0    0  502  503 -0.00000000000E+00 -0.00000000000E+00 -0.53322399585E+03  0.53322399585E+03  0.00000000000E+00 0. -1.
          6    1    1    2  501    0  0.14634306946E+01 -0.72374936126E+02 -0.18808898614E+03  0.26495610904E+03  0.17200000000E+03 0. -1.
         -6    1    1    2    0  503 -0.14634306946E+01  0.72374936126E+02 -0.27831531476E+03  0.33508758175E+03  0.17200000000E+03 0. -1.
</event>
<event>
 4    1  0.4487206E+000  0.2028038E+03  0.7818608E-02  0.1147395E+00
         21   -1    0    0  501  502  0.00000000000E+00  0.00000000000E+00  0.46689476371E+02  0.46689476371E+02  0.00000000000E+00 0.  1.
         21   -1    0    0  502  503 -0.00000000000E+00 -0.00000000000E+00 -0.92866944618E+03  0.92866944618E+03  0.00000000000E+00 0.  1.
          6    1    1    2  501    0 -0.10553040830E+03 -0.20216948680E+02 -0.55158038130E+03  0.58768214974E+03  0.17200000000E+03 0.  1.
         -6    1    1    2    0  503  0.10553040830E+03  0.20216948680E+02 -0.33039958851E+03  0.38767677281E+03  0.17200000000E+03 0.  1.
</event>
<event>
 4    1  0.4487206E+000  0.1953928E+03  0.7818608E-02  0.1153685E+00
         21   -1    0    0  503  502  0.00000000000E+00  0.00000000000E+00  0.32311980894E+02  0.32311980894E+02  0.00000000000E+00 0. -1.
         21   -1    0    0  501  503 -0.00000000000E+00 -0.00000000000E+00 -0.24628799273E+04  0.24628799273E+04  0.00000000000E+00 0. -1.
          6    1    1    2  501    0  0.92507159945E+02  0.60639474880E+01 -0.21151589326E+04  0.21241646961E+04  0.17200000000E+03 0. -1.
         -6    1    1    2    0  502 -0.92507159945E+02 -0.60639474880E+01 -0.31540901375E+03  0.37102721201E+03  0.17200000000E+03 0. -1.
</event>
<event>
 4    1  0.4487206E+000  0.2327761E+03  0.7818608E-02  0.1124701E+00
         21   -1    0    0  503  502  0.00000000000E+00  0.00000000000E+00  0.59221683895E+02  0.59221683895E+02  0.00000000000E+00 0.  1.
         21   -1    0    0  501  503 -0.00000000000E+00 -0.00000000000E+00 -0.91546107811E+03  0.91546107811E+03  0.00000000000E+00 0.  1.
          6    1    1    2  501    0  0.91938792953E+02  0.12707466481E+03 -0.41657304559E+03  0.47719787761E+03  0.17200000000E+03 0.  1.
         -6    1    1    2    0  502 -0.91938792953E+02 -0.12707466481E+03 -0.43966634862E+03  0.49748488439E+03  0.17200000000E+03 0.  1.
</event>
<event>
 4    1  0.4487206E+000  0.2403161E+03  0.7818608E-02  0.1119582E+00
         21   -1    0    0  501  502  0.00000000000E+00  0.00000000000E+00  0.47438366861E+03  0.47438366861E+03  0.00000000000E+00 0. -1.
         21   -1    0    0  502  503 -0.00000000000E+00 -0.00000000000E+00 -0.13328395612E+03  0.13328395612E+03  0.00000000000E+00 0.  1.
          6    1    1    2  501    0 -0.16621877583E+03 -0.23219568179E+02  0.25996480784E+03  0.35402476057E+03  0.17200000000E+03 0. -1.
         -6    1    1    2    0  503  0.16621877583E+03  0.23219568179E+02  0.81134904646E+02  0.25364286416E+03  0.17200000000E+03 0.  1.
</event>
<event>
 4    1  0.4487206E+000  0.2143170E+03  0.7818608E-02  0.1138192E+00
         21   -1    0    0  503  502  0.00000000000E+00  0.00000000000E+00  0.51651653944E+02  0.51651653944E+02  0.00000000000E+00 0.  1.
         21   -1    0    0  501  503 -0.00000000000E+00 -0.00000000000E+00 -0.96007635971E+03  0.96007635971E+03  0.00000000000E+00 0. -1.
          6    1    1    2  501    0  0.12777708679E+03  0.45586231432E+01 -0.31682498909E+03  0.38250469103E+03  0.17200000000E+03 0.  1.
         -6    1    1    2    0  502 -0.12777708679E+03 -0.45586231432E+01 -0.59159971668E+03  0.62922332262E+03  0.17200000000E+03 0.  1.
</event>
<event>
 4    1  0.4487206E+000  0.1916615E+03  0.7818608E-02  0.1156971E+00
         21   -1    0    0  501  502  0.00000000000E+00  0.00000000000E+00  0.20202122224E+03  0.20202122224E+03  0.00000000000E+00 0.  1.
         21   -1    0    0  502  503 -0.00000000000E+00 -0.00000000000E+00 -0.19040221920E+03  0.19040221920E+03  0.00000000000E+00 0. -1.
          6    1    1    2  501    0  0.82513524295E+02 -0.18483879138E+02  0.47434884580E+02  0.19744417883E+03  0.17200000000E+03 0.  1.
         -6    1    1    2    0  503 -0.82513524295E+02  0.18483879138E+02 -0.35815881537E+02  0.19497926261E+03  0.17200000000E+03 0. -1.
</event>
<event>
 4    1  0.4487206E+000  0.2232872E+03  0.7818608E-02  0.1131456E+00
         21   -1    0    0  501  502  0.00000000000E+00  0.00000000000E+00  0.40327189479E+03  0.40327189479E+03  0.00000000000E+00 0. -1.
         21   -1    0    0  502  503 -0.00000000000E+00 -0.00000000000E+00 -0.12414207518E+03  0.12414207518E+03  0.00000000000E+00 0.  1.
          6    1    1    2  501    0 -0.14223897891E+03 -0.64212417822E+01  0.15647473150E+03  0.27265637910E+03  0.17200000000E+03 0. -1.
         -6    1    1    2    0  503  0.14223897891E+03  0.64212417822E+01  0.12265508811E+03  0.25475759087E+03  0.17200000000E+03 0.  1.
</event>
<event>
 4    1  0.4487206E+000  0.2774918E+03  0.7818608E-02  0.1097067E+00
         21   -1    0    0  503  502  0.00000000000E+00  0.00000000000E+00  0.33622922843E+03  0.33622922843E+03  0.00000000000E+00 0.  1.
         21   -1    0    0  501  503 -0.00000000000E+00 -0.00000000000E+00 -0.77923562297E+03  0.77923562297E+03  0.00000000000E+00 0.  1.
          6    1    1    2  501    0  0.72894637546E+02  0.20519272219E+03 -0.69016521466E+03  0.74386134793E+03  0.17200000000E+03 0.  1.
         -6    1    1    2    0  502 -0.72894637546E+02 -0.20519272219E+03  0.24715882012E+03  0.37160350346E+03  0.17200000000E+03 0.  1.
</event>
<event>
 4    1  0.4487206E+000  0.1807429E+03  0.7818608E-02  0.1167086E+00
         21   -1    0    0  503  502  0.00000000000E+00  0.00000000000E+00  0.27267859210E+03  0.27267859210E+03  0.00000000000E+00 0.  1.
         21   -1    0    0  501  503 -0.00000000000E+00 -0.00000000000E+00 -0.12208961234E+03  0.12208961234E+03  0.00000000000E+00 0.  1.
          6    1    1    2  501    0  0.55317991730E+02  0.48914126055E+01  0.48288064546E+02  0.18708218329E+03  0.17200000000E+03 0.  1.
         -6    1    1    2    0  502 -0.55317991730E+02 -0.48914126055E+01  0.10230091521E+03  0.20768602115E+03  0.17200000000E+03 0.  1.
</event>
<event>
 4    1  0.4487206E+000  0.2313042E+03  0.7818608E-02  0.1125725E+00
         21   -1    0    0  503  502  0.00000000000E+00  0.00000000000E+00  0.10828986019E+03  0.10828986019E+03  0.00000000000E+00 0. -1.
         21   -1    0    0  501  503 -0.00000000000E+00 -0.00000000000E+00 -0.10291512454E+04  0.10291512454E+04  0.00000000000E+00 0.  1.
          6    1    1    2  501    0 -0.14877786690E+03 -0.42223086015E+02 -0.87051524991E+03  0.90072106836E+03  0.17200000000E+03 0.  1.
         -6    1    1    2    0  502  0.14877786690E+03  0.42223086015E+02 -0.50346135278E+02  0.23672003720E+03  0.17200000000E+03 0. -1.
</event>
<event>
 4    1  0.4487206E+000  0.3705202E+03  0.7818608E-02  0.1054494E+00
         21   -1    0    0  503  502  0.00000000000E+00  0.00000000000E+00  0.37026073938E+03  0.37026073938E+03  0.00000000000E+00 0.  1.
         21   -1    0    0  501  503 -0.00000000000E+00 -0.00000000000E+00 -0.42169829282E+03  0.42169829282E+03  0.00000000000E+00 0. -1.
          6    1    1    2  501    0 -0.13045936106E+03 -0.30113381125E+03 -0.16331591603E+03  0.40491641804E+03  0.17200000000E+03 0. -1.
         -6    1    1    2    0  502  0.13045936106E+03  0.30113381125E+03  0.11187836259E+03  0.38704261417E+03  0.17200000000E+03 0.  1.
</event>
<event>
 4    1  0.4487206E+000  0.2727467E+03  0.7818608E-02  0.1099718E+00
         21   -1    0    0  503  502  0.00000000000E+00  0.00000000000E+00  0.58963683813E+03  0.58963683813E+03  0.00000000000E+00 0.  1.
         21   -1    0    0  501  503 -0.00000000000E+00 -0.00000000000E+00 -0.16103275367E+03  0.16103275367E+03  0.00000000000E+00 0. -1.
          6    1    1    2  501    0  0.12025947020E+03 -0.17419644042E+03  0.39646623517E+02  0.27561312520E+03  0.17200000000E+03 0. -1.
         -6    1    1    2    0  502 -0.12025947020E+03  0.17419644042E+03  0.38895746095E+03  0.47505646660E+03  0.17200000000E+03 0. -1.
</event>
<event>
 4    1  0.4487206E+000  0.1897269E+03  0.7818608E-02  0.1158708E+00
         21   -1    0    0  503  502  0.00000000000E+00  0.00000000000E+00  0.10160382935E+03  0.10160382935E+03  0.00000000000E+00 0.  1.
         21   -1    0    0  501  503 -0.00000000000E+00 -0.00000000000E+00 -0.63860860363E+03  0.63860860363E+03  0.00000000000E+00 0. -1.
          6    1    1    2  501    0 -0.80020291072E+02 -0.30113707498E+01 -0.51545773842E+03  0.54926586954E+03  0.17200000000E+03 0. -1.
         -6    1    1    2    0  502  0.80020291072E+02  0.30113707498E+01 -0.21547035860E+02  0.19094656344E+03  0.17200000000E+03 0.  1.
</event>
<event>
 4    1  0.4487206E+000  0.2379515E+03  0.7818608E-02  0.1121165E+00
         21   -1    0    0  501  502  0.00000000000E+00  0.00000000000E+00  0.57167105087E+03  0.57167105087E+03  0.00000000000E+00 0. -1.
         21   -1    0    0  502  503 -0.00000000000E+00 -0.00000000000E+00 -0.10942195608E+03  0.10942195608E+03  0.00000000000E+00 0. -1.
          6    1    1    2  501    0 -0.24908402292E+01  0.16441016987E+03  0.33599867597E+03  0.41172323045E+03  0.17200000000E+03 0. -1.
         -6    1    1    2    0  503  0.24908402292E+01 -0.16441016987E+03  0.12625041881E+03  0.26936977650E+03  0.17200000000E+03 0. -1.
</event>
<event>
 4    1  0.4487206E+000  0.1771977E+03  0.7818608E-02  0.1170543E+00
         21   -1    0    0  501  502  0.00000000000E+00  0.00000000000E+00  0.50792405265E+03  0.50792405265E+03  0.00000000000E+00 0. -1.
         21   -1    0    0  502  503 -0.00000000000E+00 -0.00000000000E+00 -0.30318681237E+03  0.30318681237E+03  0.00000000000E+00 0. -1.
          6    1    1    2  501    0  0.23309526926E+02 -0.35660793261E+02  0.46422424907E+03  0.49689352949E+03  0.17200000000E+03 0. -1.
         -6    1    1    2    0  503 -0.23309526926E+02  0.35660793261E+02 -0.25948700879E+03  0.31421733554E+03  0.17200000000E+03 0. -1.
</event>
<event>
 4    1  0.4487206E+000  0.1831483E+03  0.7818608E-02  0.1164790E+00
         21   -1    0    0  501  502  0.00000000000E+00  0.00000000000E+00  0.29897739167E+02  0.29897739167E+02  0.00000000000E+00 0. -1.
         21   -1    0    0  502  503 -0.00000000000E+00 -0.00000000000E+00 -0.13894672554E+04  0.13894672554E+04  0.00000000000E+00 0. -1.
          6    1    1    2  501    0  0.51697249513E+02 -0.35870292646E+02 -0.36837730523E+03  0.41139412066E+03  0.17200000000E+03 0. -1.
         -6    1    1    2    0  503 -0.51697249513E+02  0.35870292646E+02 -0.99119221105E+03  0.10079708740E+04  0.17200000000E+03 0. -1.
</event>
<event>
 4    1  0.4487206E+000  0.1855511E+03  0.7818608E-02  0.1162536E+00
         21   -1    0    0  501  502  0.00000000000E+00  0.00000000000E+00  0.11975349461E+03  0.11975349461E+03  0.00000000000E+00 0. -1.
         21   -1    0    0  502  503 -0.00000000000E+00 -0.00000000000E+00 -0.32299430834E+03  0.32299430834E+03  0.00000000000E+00 0.  1.
          6    1    1    2  501    0 -0.17352426314E+02 -0.67410011961E+02 -0.28235978877E+02  0.18768720498E+03  0.17200000000E+03 0.  1.
         -6    1    1    2    0  503  0.17352426314E+02  0.67410011961E+02 -0.17500483485E+03  0.25506059796E+03  0.17200000000E+03 0.  1.
</event>
<event>
 4    1  0.4487206E+000  0.1781975E+03  0.7818608E-02  0.1169559E+00
         21   -1    0    0  503  502  0.00000000000E+00  0.00000000000E+00  0.56506834326E+03  0.56506834326E+03  0.00000000000E+00 0. -1.
         21   -1    0    0  501  503 -0.00000000000E+00 -0.00000000000E+00 -0.62703763983E+02  0.62703763983E+02  0.00000000000E+00 0. -1.
          6    1    1    2  501    0  0.44443303488E+02  0.13969128331E+02  0.15005809019E+03  0.23296303184E+03  0.17200000000E+03 0. -1.
         -6    1    1    2    0  502 -0.44443303488E+02 -0.13969128331E+02  0.35230648908E+03  0.39480907540E+03  0.17200000000E+03 0. -1.
</event>
<event>
 4    1  0.4487206E+000  0.2118766E+03  0.7818608E-02  0.1140088E+00
         21   -1    0    0  503  502  0.00000000000E+00  0.00000000000E+00  0.90492369870E+02  0.90492369870E+02  0.00000000000E+00 0. -1.
         21   -1    0    0  501  503 -0.00000000000E+00 -0.00000000000E+00 -0.16217715136E+04  0.16217715136E+04  0.00000000000E+00 0. -1.
          6    1    1    2  501    0 -0.10715891254E+03  0.61843963986E+02 -0.14789113196E+04  0.14940115125E+04  0.17200000000E+03 0. -1.
         -6    1    1    2    0  502  0.10715891254E+03 -0.61843963986E+02 -0.52367824176E+02  0.21825237096E+03  0.17200000000E+03 0. -1.
</event>
<event>
 4    1  0.4487206E+000  0.1919672E+03  0.7818608E-02  0.1156699E+00
         21   -1    0    0  501  502  0.00000000000E+00  0.00000000000E+00  0.59618800573E+03  0.59618800573E+03  0.00000000000E+00 0. -1.
         21   -1    0    0  502  503 -0.00000000000E+00 -0.00000000000E+00 -0.25522214984E+03  0.25522214984E+03  0.00000000000E+00 0. -1.
          6    1    1    2  501    0 -0.24970990638E+02  0.81509958662E+02  0.54106939935E+03  0.57411455185E+03  0.17200000000E+03 0. -1.
         -6    1    1    2    0  503  0.24970990638E+02 -0.81509958662E+02 -0.20010354346E+03  0.27729560372E+03  0.17200000000E+03 0. -1.
</event>
<event>
 4    1  0.4487206E+000  0.1980735E+03  0.7818608E-02  0.1151375E+00
         21   -1    0    0  501  502  0.00000000000E+00  0.00000000000E+00  0.79432490376E+02  0.79432490376E+02  0.00000000000E+00 0.  1.
         21   -1    0    0  502  503 -0.00000000000E+00 -0.00000000000E+00 -0.81349861801E+03  0.81349861801E+03  0.00000000000E+00 0.  1.
          6    1    1    2  501    0  0.74716103869E+02 -0.63770051474E+02 -0.87199408832E+02  0.21641823524E+03  0.17200000000E+03 0.  1.
         -6    1    1    2    0  503 -0.74716103869E+02  0.63770051474E+02 -0.64686671880E+03  0.67651287315E+03  0.17200000000E+03 0.  1.
</event>
<event>
 4    1  0.4487206E+000  0.1930598E+03  0.7818608E-02  0.1155730E+00
         21   -1    0    0  501  502  0.00000000000E+00  0.00000000000E+00  0.72391505048E+02  0.72391505048E+02  0.00000000000E+00 0. -1.
         21   -1    0    0  502  503 -0.00000000000E+00 -0.00000000000E+00 -0.90987502280E+03  0.90987502280E+03  0.00000000000E+00 0.  1.
          6    1    1    2  501    0 -0.31880693494E+02  0.81680515872E+02 -0.95140080254E+02  0.21522945933E+03  0.17200000000E+03 0. -1.
         -6    1    1    2    0  503  0.31880693494E+02 -0.81680515872E+02 -0.74234343750E+03  0.76703706852E+03  0.17200000000E+03 0.  1.
</event>
<event>
 4    1  0.4487206E+000  0.2143342E+03  0.7818608E-02  0.1138179E+00
         21   -1    0    0  503  502  0.00000000000E+00  0.00000000000E+00  0.28232276745E+03  0.28232276745E+03  0.00000000000E+00 0.  1.
         21   -1    0    0  501  503 -0.00000000000E+00 -0.00000000000E+00 -0.16832862145E+03  0.16832862145E+03  0.00000000000E+00 0. -1.
          6    1    1    2  501    0 -0.12708306979E+03  0.14319341780E+02  0.98132507845E+02  0.23573107405E+03  0.17200000000E+03 0.  1.
         -6    1    1    2    0  502  0.12708306979E+03 -0.14319341780E+02  0.15861638155E+02  0.21492031486E+03  0.17200000000E+03 0. -1.
</event>
<event>
 4    1  0.4487206E+000  0.1856293E+03  0.7818608E-02  0.1162464E+00
         21   -1    0    0  503  502  0.00000000000E+00  0.00000000000E+00  0.36182313218E+03  0.36182313218E+03  0.00000000000E+00 0.  1.
         21   -1    0    0  501  503 -0.00000000000E+00 -0.00000000000E+00 -0.95803754446E+02  0.95803754446E+02  0.00000000000E+00 0.  1.
          6    1    1    2  501    0 -0.35452982428E+02 -0.60144182962E+02  0.11538013309E+03  0.21856534908E+03  0.17200000000E+03 0.  1.
         -6    1    1    2    0  502  0.35452982428E+02  0.60144182962E+02  0.15063924464E+03  0.23906153754E+03  0.17200000000E+03 0.  1.
</event>
<event>
 4    1  0.4487206E+000  0.1790292E+03  0.7818608E-02  0.1168746E+00
         21   -1    0    0  501  502  0.00000000000E+00  0.00000000000E+00  0.33689679868E+03  0.33689679868E+03  0.00000000000E+00 0. -1.
         21   -1    0    0  502  503 -0.00000000000E+00 -0.00000000000E+00 -0.13995584689E+03  0.13995584689E+03  0.00000000000E+00 0. -1.
          6    1    1    2  501    0  0.81803301664E+01 -0.48995182705E+02  0.23339399211E+03  0.29414996393E+03  0.17200000000E+03 0. -1.
         -6    1    1    2    0  503 -0.81803301664E+01  0.48995182705E+02 -0.36453040320E+02  0.18270268164E+03  0.17200000000E+03 0. -1.
</event>
<event>
 4    1  0.4487206E+000  0.1789291E+03  0.7818608E-02  0.1168844E+00
         21   -1    0    0  503  502  0.00000000000E+00  0.00000000000E+00  0.53389317486E+03  0.53389317486E+03  0.00000000000E+00 0. -1.
         21   -1    0    0  501  503 -0.00000000000E+00 -0.00000000000E+00 -0.79798385775E+02  0.79798385775E+02  0.00000000000E+00 0. -1.
          6    1    1    2  501    0 -0.32223644023E+02 -0.37326275182E+02  0.74077145037E+02  0.19365700987E+03  0.17200000000E+03 0.  1.
         -6    1    1    2    0  502  0.32223644023E+02  0.37326275182E+02  0.38001764404E+03  0.42003455077E+03  0.17200000000E+03 0.  1.
</event>
<event>
 4    1  0.4487206E+000  0.2036607E+03  0.7818608E-02  0.1146687E+00
         21   -1    0    0  503  502  0.00000000000E+00  0.00000000000E+00  0.15054040118E+03  0.15054040118E+03  0.00000000000E+00 0.  1.
         21   -1    0    0  501  503 -0.00000000000E+00 -0.00000000000E+00 -0.28233650882E+03  0.28233650882E+03  0.00000000000E+00 0.  1.
          6    1    1    2  501    0 -0.10824544034E+03  0.13288590507E+02 -0.99515813173E+02  0.22667390468E+03  0.17200000000E+03 0. -1.
         -6    1    1    2    0  502  0.10824544034E+03 -0.13288590507E+02 -0.32280294467E+02  0.20620300532E+03  0.17200000000E+03 0. -1.
</event>
<event>
 4    1  0.4487206E+000  0.4748070E+03  0.7818608E-02  0.1020572E+00
         21   -1    0    0  503  502  0.00000000000E+00  0.00000000000E+00  0.17887078752E+04  0.17887078752E+04  0.00000000000E+00 0. -1.
         21   -1    0    0  501  503 -0.00000000000E+00 -0.00000000000E+00 -0.12613455316E+03  0.12613455316E+03  0.00000000000E+00 0.  1.
          6    1    1    2  501    0 -0.27990139199E+03  0.34280154126E+03  0.85804122358E+03  0.98065102217E+03  0.17200000000E+03 0. -1.
         -6    1    1    2    0  502  0.27990139199E+03 -0.34280154126E+03  0.80453209846E+03  0.93419140618E+03  0.17200000000E+03 0.  1.
</event>
<event>
 4    1  0.4487206E+000  0.2591391E+03  0.7818608E-02  0.1107662E+00
         21   -1    0    0  503  502  0.00000000000E+00  0.00000000000E+00  0.30489278863E+03  0.30489278863E+03  0.00000000000E+00 0.  1.
         21   -1    0    0  501  503 -0.00000000000E+00 -0.00000000000E+00 -0.22320620018E+03  0.22320620018E+03  0.00000000000E+00 0.  1.
          6    1    1    2  501    0 -0.11414415629E+02 -0.19349106045E+03  0.10462966110E+02  0.25935025162E+03  0.17200000000E+03 0.  1.
         -6    1    1    2    0  502  0.11414415629E+02  0.19349106045E+03  0.71223622336E+02  0.26874873718E+03  0.17200000000E+03 0.  1.
</event>
<event>
 4    1  0.4487206E+000  0.1756643E+03  0.7818608E-02  0.1172066E+00
         21   -1    0    0  501  502  0.00000000000E+00  0.00000000000E+00  0.98753860848E+03  0.98753860848E+03  0.00000000000E+00 0. -1.
         21   -1    0    0  502  503 -0.00000000000E+00 -0.00000000000E+00 -0.59378475611E+02  0.59378475611E+02  0.00000000000E+00 0. -1.
          6    1    1    2  501    0  0.29779008235E+02  0.19675902868E+02  0.82437784989E+03  0.84288597679E+03  0.17200000000E+03 0. -1.
         -6    1    1    2    0  503 -0.29779008235E+02 -0.19675902868E+02  0.10378228298E+03  0.20403110730E+03  0.17200000000E+03 0. -1.
</event>
<event>
 4    1  0.4487206E+000  0.1742891E+03  0.7818608E-02  0.1173447E+00
         21   -1    0    0  503  502  0.00000000000E+00  0.00000000000E+00  0.13062777208E+04  0.13062777208E+04  0.00000000000E+00 0. -1.
         21   -1    0    0  501  503 -0.00000000000E+00 -0.00000000000E+00 -0.23442741165E+02  0.23442741165E+02  0.00000000000E+00 0. -1.
          6    1    1    2  501    0 -0.11296928626E+02 -0.25788996249E+02  0.58182258672E+03  0.60736662350E+03  0.17200000000E+03 0. -1.
         -6    1    1    2    0  502  0.11296928626E+02  0.25788996249E+02  0.70101239286E+03  0.72235383841E+03  0.17200000000E+03 0. -1.
</event>
<event>
 4    1  0.4487206E+000  0.2420582E+03  0.7818608E-02  0.1118429E+00
         21   -1    0    0  501  502  0.00000000000E+00  0.00000000000E+00  0.14737669083E+03  0.14737669083E+03  0.00000000000E+00 0. -1.
         21   -1    0    0  502  503 -0.00000000000E+00 -0.00000000000E+00 -0.39886291161E+03  0.39886291161E+03  0.00000000000E+00 0.  1.
          6    1    1    2  501    0  0.13571820403E+03  0.10290162216E+03 -0.11017793188E+03  0.26595366405E+03  0.17200000000E+03 0. -1.
         -6    1    1    2    0  503 -0.13571820403E+03 -0.10290162216E+03 -0.14130828889E+03  0.28028593839E+03  0.17200000000E+03 0.  1.
</event>
<event>
 4    1  0.4487206E+000  0.2097691E+03  0.7818608E-02  0.1141749E+00
         21   -1    0    0  501  502  0.00000000000E+00  0.00000000000E+00  0.60275183513E+03  0.60275183513E+03  0.00000000000E+00 0.  1.
         21   -1    0    0  502  503 -0.00000000000E+00 -0.00000000000E+00 -0.87096367898E+02  0.87096367898E+02  0.00000000000E+00 0.  1.
          6    1    1    2  501    0  0.78776677328E+02 -0.90627377944E+02  0.39657384959E+03  0.44863560347E+03  0.17200000000E+03 0.  1.
         -6    1    1    2    0  503 -0.78776677328E+02  0.90627377944E+02  0.11908161764E+03  0.24121259955E+03  0.17200000000E+03 0.  1.
</event>
<event>
 4    1  0.4487206E+000  0.2047730E+03  0.7818608E-02  0.1145773E+00
         21   -1    0    0  501  502  0.00000000000E+00  0.00000000000E+00  0.66333328910E+02  0.66333328910E+02  0.00000000000E+00 0.  1.
         21   -1    0    0  502  503 -0.00000000000E+00 -0.00000000000E+00 -0.64292087393E+03  0.64292087393E+03  0.00000000000E+00 0. -1.
          6    1    1    2  501    0 -0.10899727519E+03 -0.21623172967E+02 -0.24237238947E+03  0.31729535575E+03  0.17200000000E+03 0.  1.
         -6    1    1    2    0  503  0.10899727519E+03  0.21623172967E+02 -0.33421515556E+03  0.39195884709E+03  0.17200000000E+03 0. -1.
</event>
<event>
 4    1  0.4487206E+000  0.1754368E+03  0.7818608E-02  0.1172294E+00
         21   -1    0    0  501  502  0.00000000000E+00  0.00000000000E+00  0.12447513558E+04  0.12447513558E+04  0.00000000000E+00 0.  1.
         21   -1    0    0  502  503 -0.00000000000E+00 -0.00000000000E+00 -0.37847069186E+02  0.37847069186E+02  0.00000000000E+00 0.  1.
          6    1    1    2  501    0  0.27609536517E+02 -0.20779311878E+02  0.98104573476E+03  0.99660864937E+03  0.17200000000E+03 0.  1.
         -6    1    1    2    0  503 -0.27609536517E+02  0.20779311878E+02  0.22585855183E+03  0.28598977560E+03  0.17200000000E+03 0.  1.
</event>
<event>
 4    1  0.4487206E+000  0.1823054E+03  0.7818608E-02  0.1165590E+00
         21   -1    0    0  503  502  0.00000000000E+00  0.00000000000E+00  0.26432544656E+03  0.26432544656E+03  0.00000000000E+00 0. -1.
         21   -1    0    0  501  503 -0.00000000000E+00 -0.00000000000E+00 -0.55434142539E+03  0.55434142539E+03  0.00000000000E+00 0. -1.
          6    1    1    2  501    0  0.60354622458E+02  0.29273601189E+01 -0.50493740148E+03  0.53683985443E+03  0.17200000000E+03 0. -1.
         -6    1    1    2    0  502 -0.60354622458E+02 -0.29273601189E+01  0.21492142265E+03  0.28182701752E+03  0.17200000000E+03 0. -1.
</event>
<event>
 4    1  0.4487206E+000  0.1872444E+03  0.7818608E-02  0.1160970E+00
         21   -1    0    0  503  502  0.00000000000E+00  0.00000000000E+00  0.96706382082E+03  0.96706382082E+03  0.00000000000E+00 0.  1.
         21   -1    0    0  501  503 -0.00000000000E+00 -0.00000000000E+00 -0.38720365195E+03  0.38720365195E+03  0.00000000000E+00 0. -1.
          6    1    1    2  501    0  0.61355477739E+02 -0.41376185303E+02 -0.35472406827E+03  0.40111051840E+03  0.17200000000E+03 0. -1.
         -6    1    1    2    0  502 -0.61355477739E+02  0.41376185303E+02  0.93458423714E+03  0.95315695437E+03  0.17200000000E+03 0.  1.
</event>
<event>
 4    1  0.4487206E+000  0.2797925E+03  0.7818608E-02  0.1095802E+00
         21   -1    0    0  503  502  0.00000000000E+00  0.00000000000E+00  0.39855786409E+03  0.39855786409E+03  0.00000000000E+00 0.  1.
         21   -1    0    0  501  503 -0.00000000000E+00 -0.00000000000E+00 -0.60295546827E+03  0.60295546827E+03  0.00000000000E+00 0. -1.
          6    1    1    2  501    0 -0.21848125776E+03 -0.31077153214E+02 -0.51338121323E+03  0.58467437052E+03  0.17200000000E+03 0. -1.
         -6    1    1    2    0  502  0.21848125776E+03  0.31077153214E+02  0.30898360905E+03  0.41683896184E+03  0.17200000000E+03 0.  1.
</event>
<event>
 4    1  0.4487206E+000  0.1727088E+03  0.7818608E-02  0.1175052E+00
         21   -1    0    0  501  502  0.00000000000E+00  0.00000000000E+00  0.64957738569E+03  0.64957738569E+03  0.00000000000E+00 0. -1.
         21   -1    0    0  502  503 -0.00000000000E+00 -0.00000000000E+00 -0.63149720676E+02  0.63149720676E+02  0.00000000000E+00 0. -1.
          6    1    1    2  501    0  0.15515180303E+02 -0.19036373284E+01  0.47935889069E+03  0.50952261062E+03  0.17200000000E+03 0. -1.
         -6    1    1    2    0  503 -0.15515180303E+02  0.19036373284E+01  0.10706877433E+03  0.20320449575E+03  0.17200000000E+03 0. -1.
</event>
<event>
 4    1  0.4487206E+000  0.1881287E+03  0.7818608E-02  0.1160160E+00
         21   -1    0    0  503  502  0.00000000000E+00  0.00000000000E+00  0.12630470647E+03  0.12630470647E+03  0.00000000000E+00 0.  1.
         21   -1    0    0  501  503 -0.00000000000E+00 -0.00000000000E+00 -0.30720569502E+03  0.30720569502E+03  0.00000000000E+00 0. -1.
          6    1    1    2  501    0 -0.39933694742E+02  0.64912956192E+02 -0.15469960463E+03  0.24356592440E+03  0.17200000000E+03 0. -1.
         -6    1    1    2    0  502  0.39933694742E+02 -0.64912956192E+02 -0.26201383912E+02  0.18994447709E+03  0.17200000000E+03 0.  1.
</event>
<event>
 4    1  0.4487206E+000  0.2012249E+03  0.7818608E-02  0.1148710E+00
         21   -1    0    0  503  502  0.00000000000E+00  0.00000000000E+00  0.54418622102E+03  0.54418622102E+03  0.00000000000E+00 0. -1.
         21   -1    0    0  501  503 -0.00000000000E+00 -0.00000000000E+00 -0.16465747793E+03  0.16465747793E+03  0.00000000000E+00 0. -1.
          6    1    1    2  501    0  0.92729627424E+02 -0.48048860394E+02 -0.72629430889E+02  0.21393108942E+03  0.17200000000E+03 0. -1.
         -6    1    1    2    0  502 -0.92729627424E+02  0.48048860394E+02  0.45215817397E+03  0.49491260953E+03  0.17200000000E+03 0. -1.
</event>
<event>
 4    1  0.4487206E+000  0.1796560E+03  0.7818608E-02  0.1168136E+00
         21   -1    0    0  503  502  0.00000000000E+00  0.00000000000E+00  0.25274049943E+03  0.25274049943E+03  0.00000000000E+00 0. -1.
         21   -1    0    0  501  503 -0.00000000000E+00 -0.00000000000E+00 -0.62699240408E+03  0.62699240408E+03  0.00000000000E+00 0.  1.
          6    1    1    2  501    0  0.16176808789E+02 -0.49300876800E+02 -0.57964879571E+03  0.60685170508E+03  0.17200000000E+03 0.  1.
         -6    1    1    2    0  502 -0.16176808789E+02  0.49300876800E+02  0.20539689106E+03  0.27288119842E+03  0.17200000000E+03 0. -1.
</event>
<event>
 4    1  0.4487206E+000  0.2630357E+03  0.7818608E-02  0.1105333E+00
         21   -1    0    0  501  502  0.00000000000E+00  0.00000000000E+00  0.47514077056E+03  0.47514077056E+03  0.00000000000E+00 0. -1.
         21   -1    0    0  502  503 -0.00000000000E+00 -0.00000000000E+00 -0.15696605087E+03  0.15696605087E+03  0.00000000000E+00 0.  1.
          6    1    1    2  501    0  0.40983061677E+02  0.19474131545E+03  0.74097152860E+02  0.27327308567E+03  0.17200000000E+03 0.  1.
         -6    1    1    2    0  503 -0.40983061677E+02 -0.19474131545E+03  0.24407756683E+03  0.35883373576E+03  0.17200000000E+03 0. -1.
</event>
<event>
 4    1  0.4487206E+000  0.2268892E+03  0.7818608E-02  0.1128849E+00
         21   -1    0    0  501  502  0.00000000000E+00  0.00000000000E+00  0.52032190415E+03  0.52032190415E+03  0.00000000000E+00 0.  1.
         21   -1    0    0  502  503 -0.00000000000E+00 -0.00000000000E+00 -0.10789663667E+03  0.10789663667E+03  0.00000000000E+00 0.  1.
          6    1    1    2  501    0  0.61870381570E+02 -0.13441258711E+03  0.29673182309E+03  0.37353508874E+03  0.17200000000E+03 0.  1.
         -6    1    1    2    0  503 -0.61870381570E+02  0.13441258711E+03  0.11569344439E+03  0.25468345208E+03  0.17200000000E+03 0.  1.
</event>
<event>
 4    1  0.4487206E+000  0.2685337E+03  0.7818608E-02  0.1102122E+00
         21   -1    0    0  503  502  0.00000000000E+00  0.00000000000E+00  0.50055748393E+03  0.50055748393E+03  0.00000000000E+00 0.  1.
         21   -1    0    0  501  503 -0.00000000000E+00 -0.00000000000E+00 -0.14655305682E+03  0.14655305682E+03  0.00000000000E+00 0. -1.
          6    1    1    2  501    0 -0.24687903904E+02  0.20473608365E+03  0.13480252717E+03  0.30046976201E+03  0.17200000000E+03 0. -1.
         -6    1    1    2    0  502  0.24687903904E+02 -0.20473608365E+03  0.21920189994E+03  0.34664077874E+03  0.17200000000E+03 0. -1.
</event>
<event>
 4    1  0.4487206E+000  0.1857427E+03  0.7818608E-02  0.1162358E+00
         21   -1    0    0  501  502  0.00000000000E+00  0.00000000000E+00  0.22101053606E+03  0.22101053606E+03  0.00000000000E+00 0.  1.
         21   -1    0    0  502  503 -0.00000000000E+00 -0.00000000000E+00 -0.17328902641E+03  0.17328902641E+03  0.00000000000E+00 0.  1.
          6    1    1    2  501    0  0.63449139641E+02  0.29842250583E+02  0.85947889854E+02  0.20466409800E+03  0.17200000000E+03 0.  1.
         -6    1    1    2    0  503 -0.63449139641E+02 -0.29842250583E+02 -0.38226380202E+02  0.18963546447E+03  0.17200000000E+03 0.  1.
</event>
<event>
 4    1  0.4487206E+000  0.2063987E+03  0.7818608E-02  0.1144450E+00
         21   -1    0    0  503  502  0.00000000000E+00  0.00000000000E+00  0.99934665805E+03  0.99934665805E+03  0.00000000000E+00 0. -1.
         21   -1    0    0  501  503 -0.00000000000E+00 -0.00000000000E+00 -0.46760806137E+02  0.46760806137E+02  0.00000000000E+00 0. -1.
          6    1    1    2  501    0  0.10516609982E+03 -0.44232461955E+02  0.32079892575E+03  0.38146083679E+03  0.17200000000E+03 0. -1.
         -6    1    1    2    0  502 -0.10516609982E+03  0.44232461955E+02  0.63178692617E+03  0.66464662740E+03  0.17200000000E+03 0. -1.
</event>
<event>
 4    1  0.4487206E+000  0.2304020E+03  0.7818608E-02  0.1126357E+00
         21   -1    0    0  503  502  0.00000000000E+00  0.00000000000E+00  0.29497297880E+03  0.29497297880E+03  0.00000000000E+00 0. -1.
         21   -1    0    0  501  503 -0.00000000000E+00 -0.00000000000E+00 -0.18423405153E+03  0.18423405153E+03  0.00000000000E+00 0. -1.
          6    1    1    2  501    0  0.59701363719E+02  0.14119786183E+03  0.91838658952E+02  0.24803110348E+03  0.17200000000E+03 0. -1.
         -6    1    1    2    0  502 -0.59701363719E+02 -0.14119786183E+03  0.18900268314E+02  0.23117592686E+03  0.17200000000E+03 0. -1.
</event>
<event>
 4    1  0.4487206E+000  0.1770921E+03  0.7818608E-02  0.1170647E+00
         21   -1    0    0  501  502  0.00000000000E+00  0.00000000000E+00  0.15407281142E+03  0.15407281142E+03  0.00000000000E+00 0.  1.
         21   -1    0    0  502  503 -0.00000000000E+00 -0.00000000000E+00 -0.37495298461E+03  0.37495298461E+03  0.00000000000E+00 0.  1.
          6    1    1    2  501    0  0.30565482696E+01  0.42050783798E+02  0.68400833273E+02  0.18984278995E+03  0.17200000000E+03 0.  1.
         -6    1    1    2    0  503 -0.30565482696E+01 -0.42050783798E+02 -0.28928100646E+03  0.33918300607E+03  0.17200000000E+03 0.  1.
</event>
<event>
 4    1  0.4487206E+000  0.1931592E+03  0.7818608E-02  0.1155642E+00
         21   -1    0    0  503  502  0.00000000000E+00  0.00000000000E+00  0.54092551468E+02  0.54092551468E+02  0.00000000000E+00 0. -1.
         21   -1    0    0  501  503 -0.00000000000E+00 -0.00000000000E+00 -0.11768976031E+04  0.11768976031E+04  0.00000000000E+00 0. -1.
          6    1    1    2  501    0 -0.23958958446E+02  0.84572166777E+02 -0.95739262631E+03  0.97668373796E+03  0.17200000000E+03 0. -1.
         -6    1    1    2    0  502  0.23958958446E+02 -0.84572166777E+02 -0.16541242536E+03  0.25430641664E+03  0.17200000000E+03 0. -1.
</event>
<event>
 4    1  0.4487206E+000  0.1792952E+03  0.7818608E-02  0.1168487E+00
         21   -1    0    0  501  502  0.00000000000E+00  0.00000000000E+00  0.20946681101E+03  0.20946681101E+03  0.00000000000E+00 0. -1.
         21   -1    0    0  502  503 -0.00000000000E+00 -0.00000000000E+00 -0.15883940677E+03  0.15883940677E+03  0.00000000000E+00 0. -1.
          6    1    1    2  501    0  0.42899557708E+02  0.26877237322E+02  0.59173549901E+02  0.18880748647E+03  0.17200000000E+03 0. -1.
         -6    1    1    2    0  503 -0.42899557708E+02 -0.26877237322E+02 -0.85461456678E+01  0.17949873131E+03  0.17200000000E+03 0. -1.
</event>
<event>
 4    1  0.4487206E+000  0.2407323E+03  0.7818608E-02  0.1119306E+00
         21   -1    0    0  503  502  0.00000000000E+00  0.00000000000E+00  0.64294829124E+02  0.64294829124E+02  0.00000000000E+00 0.  1.
         21   -1    0    0  501  503 -0.00000000000E+00 -0.00000000000E+00 -0.17425469734E+04  0.17425469734E+04  0.00000000000E+00 0. -1.
          6    1    1    2  501    0 -0.11435641379E+03 -0.12365540959E+03 -0.14668188290E+04  0.14864419016E+04  0.17200000000E+03 0. -1.
         -6    1    1    2    0  502  0.11435641379E+03  0.12365540959E+03 -0.21143331522E+03  0.32039990088E+03  0.17200000000E+03 0.  1.
</event>
<event>
 4    1  0.4487206E+000  0.1890746E+03  0.7818608E-02  0.1159299E+00
         21   -1    0    0  503  502  0.00000000000E+00  0.00000000000E+00  0.10150301629E+03  0.10150301629E+03  0.00000000000E+00 0.  1.
         21   -1    0    0  501  503 -0.00000000000E+00 -0.00000000000E+00 -0.39534123560E+03  0.39534123560E+03  0.00000000000E+00 0. -1.
          6    1    1    2  501    0  0.78120426160E+02  0.79006997050E+01 -0.64854206143E+02  0.19988819398E+03  0.17200000000E+03 0.  1.
         -6    1    1    2    0  502 -0.78120426160E+02 -0.79006997050E+01 -0.22898401317E+03  0.29695605790E+03  0.17200000000E+03 0. -1.
</event>
<event>
 4    1  0.4487206E+000  0.1763561E+03  0.7818608E-02  0.1171377E+00
         21   -1    0    0  503  502  0.00000000000E+00  0.00000000000E+00  0.12672424660E+04  0.12672424660E+04  0.00000000000E+00 0. -1.
         21   -1    0    0  501  503 -0.00000000000E+00 -0.00000000000E+00 -0.57616408792E+02  0.57616408792E+02  0.00000000000E+00 0. -1.
          6    1    1    2  501    0  0.27390007999E+02 -0.27699603959E+02  0.10292325319E+03  0.20419274386E+03  0.17200000000E+03 0. -1.
         -6    1    1    2    0  502 -0.27390007999E+02  0.27699603959E+02  0.11067028040E+04  0.11206661309E+04  0.17200000000E+03 0. -1.
</event>
<event>
 4    1  0.4487206E+000  0.2659026E+03  0.7818608E-02  0.1103648E+00
         21   -1    0    0  501  502  0.00000000000E+00  0.00000000000E+00  0.13366026009E+04  0.13366026009E+04  0.00000000000E+00 0. -1.
         21   -1    0    0  502  503 -0.00000000000E+00 -0.00000000000E+00 -0.57492546289E+02  0.57492546289E+02  0.00000000000E+00 0.  1.
          6    1    1    2  501    0 -0.20265472996E+03 -0.71575655102E+01  0.83659663914E+03  0.87783717565E+03  0.17200000000E+03 0.  1.
         -6    1    1    2    0  503  0.20265472996E+03  0.71575655102E+01  0.44251341551E+03  0.51625797159E+03  0.17200000000E+03 0.  1.
</event>
<event>
 4    1  0.4487206E+000  0.2022747E+03  0.7818608E-02  0.1147834E+00
         21   -1    0    0  503  502  0.00000000000E+00  0.00000000000E+00  0.36107026820E+03  0.36107026820E+03  0.00000000000E+00 0. -1.
         21   -1    0    0  501  503 -0.00000000000E+00 -0.00000000000E+00 -0.14114157956E+03  0.14114157956E+03  0.00000000000E+00 0. -1.
          6    1    1    2  501    0  0.97045738633E+02  0.43740003265E+02 -0.15295399348E+01  0.20228050515E+03  0.17200000000E+03 0. -1.
         -6    1    1    2    0  502 -0.97045738633E+02 -0.43740003265E+02  0.22145822858E+03  0.29993134261E+03  0.17200000000E+03 0. -1.
</event>
<event>
 4    1  0.4487206E+000  0.1896801E+03  0.7818608E-02  0.1158750E+00
         21   -1    0    0  501  502  0.00000000000E+00  0.00000000000E+00  0.28083349691E+03  0.28083349691E+03  0.00000000000E+00 0. -1.
         21   -1    0    0  502  503 -0.00000000000E+00 -0.00000000000E+00 -0.21767569442E+03  0.21767569442E+03  0.00000000000E+00 0. -1.
          6    1    1    2  501    0 -0.63642062153E+02 -0.48417368913E+02  0.19146129491E+03  0.26951063270E+03  0.17200000000E+03 0. -1.
         -6    1    1    2    0  503  0.63642062153E+02  0.48417368913E+02 -0.12830349243E+03  0.22899855864E+03  0.17200000000E+03 0. -1.
</event>
<event>
 4    1  0.4487206E+000  0.3230514E+03  0.7818608E-02  0.1074253E+00
         21   -1    0    0  501  502  0.00000000000E+00  0.00000000000E+00  0.25059447025E+03  0.25059447025E+03  0.00000000000E+00 0.  1.
         21   -1    0    0  502  503 -0.00000000000E+00 -0.00000000000E+00 -0.45718117642E+03  0.45718117642E+03  0.00000000000E+00 0. -1.
          6    1    1    2  501    0 -0.55932312588E+01  0.27339886259E+03  0.23249222353E+01  0.32305978946E+03  0.17200000000E+03 0.  1.
         -6    1    1    2    0  503  0.55932312588E+01 -0.27339886259E+03 -0.20891162841E+03  0.38471585721E+03  0.17200000000E+03 0. -1.
</event>
<event>
 4    1  0.4487206E+000  0.1802177E+03  0.7818608E-02  0.1167592E+00
         21   -1    0    0  501  502  0.00000000000E+00  0.00000000000E+00  0.41143606705E+02  0.41143606705E+02  0.00000000000E+00 0.  1.
         21   -1    0    0  502  503 -0.00000000000E+00 -0.00000000000E+00 -0.10832268635E+04  0.10832268635E+04  0.00000000000E+00 0. -1.
          6    1    1    2  501    0 -0.75608637759E+01  0.53265967294E+02 -0.22824136773E+03  0.29081360332E+03  0.17200000000E+03 0.  1.
         -6    1    1    2    0  503  0.75608637759E+01 -0.53265967294E+02 -0.81384188910E+03  0.83355686692E+03  0.17200000000E+03 0. -1.
</event>
<event>
 4    1  0.4487206E+000  0.2197186E+03  0.7818608E-02  0.1134093E+00
         21   -1    0    0  501  502  0.00000000000E+00  0.00000000000E+00  0.27236333191E+03  0.27236333191E+03  0.00000000000E+00 0.  1.
         21   -1    0    0  502  503 -0.00000000000E+00 -0.00000000000E+00 -0.22995122793E+03  0.22995122793E+03  0.00000000000E+00 0.  1.
          6    1    1    2  501    0  0.46867348707E+02 -0.12843570288E+03 -0.99031499503E+02  0.24100521995E+03  0.17200000000E+03 0.  1.
         -6    1    1    2    0  503 -0.46867348707E+02  0.12843570288E+03  0.14144360349E+03  0.26130933989E+03  0.17200000000E+03 0.  1.
</event>
<event>
 4    1  0.4487206E+000  0.2081598E+03  0.7818608E-02  0.1143032E+00
         21   -1    0    0  503  502  0.00000000000E+00  0.00000000000E+00  0.87204878716E+02  0.87204878716E+02  0.00000000000E+00 0. -1.
         21   -1    0    0  501  503 -0.00000000000E+00 -0.00000000000E+00 -0.61773887890E+03  0.61773887890E+03  0.00000000000E+00 0. -1.
          6    1    1    2  501    0 -0.11561189052E+03  0.19504022253E+02 -0.42117129259E+03  0.46980397382E+03  0.17200000000E+03 0. -1.
         -6    1    1    2    0  502  0.11561189052E+03 -0.19504022253E+02 -0.10936270759E+03  0.23513978380E+03  0.17200000000E+03 0. -1.
</event>
<event>
 4    1  0.4487206E+000  0.1749444E+03  0.7818608E-02  0.1172788E+00
         21   -1    0    0  501  502  0.00000000000E+00  0.00000000000E+00  0.37431685440E+02  0.37431685440E+02  0.00000000000E+00 0. -1.
         21   -1    0    0  502  503 -0.00000000000E+00 -0.00000000000E+00 -0.82434430308E+03  0.82434430308E+03  0.00000000000E+00 0. -1.
          6    1    1    2  501    0  0.10549308425E+02 -0.30170399811E+02 -0.43232280916E+03  0.46637812154E+03  0.17200000000E+03 0. -1.
         -6    1    1    2    0  503 -0.10549308425E+02  0.30170399811E+02 -0.35458980849E+03  0.39539786698E+03  0.17200000000E+03 0. -1.
</event>
<event>
 4    1  0.4487206E+000  0.3911271E+03  0.7818608E-02  0.1046896E+00
         21   -1    0    0  501  502  0.00000000000E+00  0.00000000000E+00  0.27743271058E+03  0.27743271058E+03  0.00000000000E+00 0.  1.
         21   -1    0    0  502  503 -0.00000000000E+00 -0.00000000000E+00 -0.11733918953E+04  0.11733918953E+04  0.00000000000E+00 0. -1.
          6    1    1    2  501    0 -0.32121949285E+03  0.14217761705E+03  0.80162343309E+02  0.39925735893E+03  0.17200000000E+03 0.  1.
         -6    1    1    2    0  503  0.32121949285E+03 -0.14217761705E+03 -0.97612152802E+03  0.10515672469E+04  0.17200000000E+03 0. -1.
</event>
<event>
 4    1  0.4487206E+000  0.1883013E+03  0.7818608E-02  0.1160002E+00
         21   -1    0    0  501  502  0.00000000000E+00  0.00000000000E+00  0.19017884214E+04  0.19017884214E+04  0.00000000000E+00 0.  1.
         21   -1    0    0  502  503 -0.00000000000E+00 -0.00000000000E+00 -0.18719392906E+03  0.18719392906E+03  0.00000000000E+00 0.  1.
          6    1    1    2  501    0  0.75001353251E+02  0.15754001819E+02  0.18484095749E+04  0.18579761431E+04  0.17200000000E+03 0.  1.
         -6    1    1    2    0  503 -0.75001353251E+02 -0.15754001819E+02 -0.13381508253E+03  0.23100620744E+03  0.17200000000E+03 0.  1.
</event>
<event>
 4    1  0.4487206E+000  0.2573264E+03  0.7818608E-02  0.1108760E+00
         21   -1    0    0  503  502  0.00000000000E+00  0.00000000000E+00  0.19416709666E+03  0.19416709666E+03  0.00000000000E+00 0.  1.
         21   -1    0    0  501  503 -0.00000000000E+00 -0.00000000000E+00 -0.46689986289E+03  0.46689986289E+03  0.00000000000E+00 0. -1.
          6    1    1    2  501    0  0.62596930668E+02 -0.18087153080E+03 -0.30798473969E+03  0.40133712296E+03  0.17200000000E+03 0. -1.
         -6    1    1    2    0  502 -0.62596930668E+02  0.18087153080E+03  0.35251973460E+02  0.25972983659E+03  0.17200000000E+03 0.  1.
</event>
<event>
 4    1  0.4487206E+000  0.2394057E+03  0.7818608E-02  0.1120189E+00
         21   -1    0    0  501  502  0.00000000000E+00  0.00000000000E+00  0.18579747292E+03  0.18579747292E+03  0.00000000000E+00 0.  1.
         21   -1    0    0  502  503 -0.00000000000E+00 -0.00000000000E+00 -0.32602021295E+03  0.32602021295E+03  0.00000000000E+00 0.  1.
          6    1    1    2  501    0  0.11431575444E+03  0.12109078356E+03 -0.10755620426E+02  0.23964714258E+03  0.17200000000E+03 0.  1.
         -6    1    1    2    0  503 -0.11431575444E+03 -0.12109078356E+03 -0.12946711961E+03  0.27217054329E+03  0.17200000000E+03 0.  1.
</event>
<event>
 4    1  0.4487206E+000  0.2105733E+03  0.7818608E-02  0.1141113E+00
         21   -1    0    0  503  502  0.00000000000E+00  0.00000000000E+00  0.15358773228E+03  0.15358773228E+03  0.00000000000E+00 0. -1.
         21   -1    0    0  501  503 -0.00000000000E+00 -0.00000000000E+00 -0.37037768807E+03  0.37037768807E+03  0.00000000000E+00 0. -1.
          6    1    1    2  501    0 -0.11807623005E+03  0.28550204155E+02 -0.23142077692E+03  0.31288446150E+03  0.17200000000E+03 0. -1.
         -6    1    1    2    0  502  0.11807623005E+03 -0.28550204155E+02  0.14630821127E+02  0.21108095884E+03  0.17200000000E+03 0. -1.
</event>
<event>
 4    1  0.4487206E+000  0.1962835E+03  0.7818608E-02  0.1152913E+00
         21   -1    0    0  501  502  0.00000000000E+00  0.00000000000E+00  0.43664997497E+02  0.43664997497E+02  0.00000000000E+00 0.  1.
         21   -1    0    0  502  503 -0.00000000000E+00 -0.00000000000E+00 -0.12936753622E+04  0.12936753622E+04  0.00000000000E+00 0.  1.
          6    1    1    2  501    0 -0.19726021708E+01 -0.94548071272E+02 -0.24795506686E+03  0.31624190760E+03  0.17200000000E+03 0.  1.
         -6    1    1    2    0  503  0.19726021708E+01  0.94548071272E+02 -0.10020552978E+04  0.10210984521E+04  0.17200000000E+03 0.  1.
</event>
<event>
 4    1  0.4487206E+000  0.2538968E+03  0.7818608E-02  0.1110867E+00
         21   -1    0    0  501  502  0.00000000000E+00  0.00000000000E+00  0.20492204309E+03  0.20492204309E+03  0.00000000000E+00 0. -1.
         21   -1    0    0  502  503 -0.00000000000E+00 -0.00000000000E+00 -0.33154072480E+03  0.33154072480E+03  0.00000000000E+00 0.  1.
          6    1    1    2  501    0  0.15112632716E+03  0.10972894683E+03 -0.26341269231E+01  0.25391051014E+03  0.17200000000E+03 0. -1.
         -6    1    1    2    0  503 -0.15112632716E+03 -0.10972894683E+03 -0.12398455479E+03  0.28255225775E+03  0.17200000000E+03 0. -1.
</event>
<event>
 4    1  0.4487206E+000  0.3225273E+03  0.7818608E-02  0.1074492E+00
         21   -1    0    0  501  502  0.00000000000E+00  0.00000000000E+00  0.85060498693E+03  0.85060498693E+03  0.00000000000E+00 0. -1.
         21   -1    0    0  502  503 -0.00000000000E+00 -0.00000000000E+00 -0.12248151639E+03  0.12248151639E+03  0.00000000000E+00 0.  1.
          6    1    1    2  501    0  0.23657922124E+02 -0.27180901794E+03  0.34502162592E+03  0.47229626492E+03  0.17200000000E+03 0.  1.
         -6    1    1    2    0  503 -0.23657922124E+02  0.27180901794E+03  0.38310184462E+03  0.50079023839E+03  0.17200000000E+03 0. -1.
</event>
<event>
 4    1  0.4487206E+000  0.2084590E+03  0.7818608E-02  0.1142792E+00
         21   -1    0    0  501  502  0.00000000000E+00  0.00000000000E+00  0.16787273417E+03  0.16787273417E+03  0.00000000000E+00 0. -1.
         21   -1    0    0  502  503 -0.00000000000E+00 -0.00000000000E+00 -0.26463419113E+03  0.26463419113E+03  0.00000000000E+00 0.  1.
          6    1    1    2  501    0 -0.89766500898E+02  0.76243842570E+02 -0.16430606770E+02  0.20910550699E+03  0.17200000000E+03 0. -1.
         -6    1    1    2    0  503  0.89766500898E+02 -0.76243842570E+02 -0.80330850191E+02  0.22340141832E+03  0.17200000000E+03 0.  1.
</event>
<event>
 4    1  0.4487206E+000  0.1997231E+03  0.7818608E-02  0.1149973E+00
         21   -1    0    0  501  502  0.00000000000E+00  0.00000000000E+00  0.87273415418E+03  0.87273415418E+03  0.00000000000E+00 0. -1.
         21   -1    0    0  502  503 -0.00000000000E+00 -0.00000000000E+00 -0.56351081344E+02  0.56351081344E+02  0.00000000000E+00 0.  1.
          6    1    1    2  501    0  0.45358627651E+02  0.90818087671E+02  0.61009584552E+03  0.64195503804E+03  0.17200000000E+03 0. -1.
         -6    1    1    2    0  503 -0.45358627651E+02 -0.90818087671E+02  0.20628722731E+03  0.28713019748E+03  0.17200000000E+03 0.  1.
</event>
<event>
 4    1  0.4487206E+000  0.2142784E+03  0.7818608E-02  0.1138222E+00
         21   -1    0    0  503  502  0.00000000000E+00  0.00000000000E+00  0.16889418817E+03  0.16889418817E+03  0.00000000000E+00 0. -1.
         21   -1    0    0  501  503 -0.00000000000E+00 -0.00000000000E+00 -0.70117119823E+03  0.70117119823E+03  0.00000000000E+00 0.  1.
          6    1    1    2  501    0  0.90190237314E+02  0.90536999002E+02 -0.60654435034E+03  0.64328164596E+03  0.17200000000E+03 0.  1.
         -6    1    1    2    0  502 -0.90190237314E+02 -0.90536999002E+02  0.74267340277E+02  0.22678374044E+03  0.17200000000E+03 0. -1.
</event>
<event>
 4    1  0.4487206E+000  0.2482310E+03  0.7818608E-02  0.1114428E+00
         21   -1    0    0  503  502  0.00000000000E+00  0.00000000000E+00  0.65129241928E+03  0.65129241928E+03  0.00000000000E+00 0.  1.
         21   -1    0    0  501  503 -0.00000000000E+00 -0.00000000000E+00 -0.24843113768E+03  0.24843113768E+03  0.00000000000E+00 0. -1.
          6    1    1    2  501    0 -0.17084768845E+03  0.53345185845E+02 -0.15255397045E+03  0.29136121121E+03  0.17200000000E+03 0. -1.
         -6    1    1    2    0  502  0.17084768845E+03 -0.53345185845E+02  0.55541525205E+03  0.60836234574E+03  0.17200000000E+03 0.  1.
</event>
<event>
 4    1  0.4487206E+000  0.2541409E+03  0.7818608E-02  0.1110715E+00
         21   -1    0    0  501  502  0.00000000000E+00  0.00000000000E+00  0.53976711630E+03  0.53976711630E+03  0.00000000000E+00 0. -1.
         21   -1    0    0  502  503 -0.00000000000E+00 -0.00000000000E+00 -0.15397896557E+03  0.15397896557E+03  0.00000000000E+00 0.  1.
          6    1    1    2  501    0 -0.14049584781E+03  0.12354965548E+03  0.35665786295E+03  0.43794112827E+03  0.17200000000E+03 0. -1.
         -6    1    1    2    0  503  0.14049584781E+03 -0.12354965548E+03  0.29130287774E+02  0.25580495360E+03  0.17200000000E+03 0.  1.
</event>
<event>
 4    1  0.4487206E+000  0.2797788E+03  0.7818608E-02  0.1095810E+00
         21   -1    0    0  503  502  0.00000000000E+00  0.00000000000E+00  0.58945643165E+03  0.58945643165E+03  0.00000000000E+00 0. -1.
         21   -1    0    0  501  503 -0.00000000000E+00 -0.00000000000E+00 -0.48930519941E+03  0.48930519941E+03  0.00000000000E+00 0. -1.
          6    1    1    2  501    0 -0.17500312760E+03  0.13441015422E+03 -0.41033175193E+03  0.49663702125E+03  0.17200000000E+03 0. -1.
         -6    1    1    2    0  502  0.17500312760E+03 -0.13441015422E+03  0.51048298417E+03  0.58212460981E+03  0.17200000000E+03 0. -1.
</event>
<event>
 4    1  0.4487206E+000  0.1877614E+03  0.7818608E-02  0.1160496E+00
         21   -1    0    0  501  502  0.00000000000E+00  0.00000000000E+00  0.67082179895E+02  0.67082179895E+02  0.00000000000E+00 0.  1.
         21   -1    0    0  502  503 -0.00000000000E+00 -0.00000000000E+00 -0.53781387949E+03  0.53781387949E+03  0.00000000000E+00 0.  1.
          6    1    1    2  501    0 -0.39578975366E+02 -0.64061176875E+02 -0.18967428742E+03  0.26689073603E+03  0.17200000000E+03 0.  1.
         -6    1    1    2    0  503  0.39578975366E+02  0.64061176875E+02 -0.28105741218E+03  0.33800532336E+03  0.17200000000E+03 0.  1.
</event>
<event>
 4    1  0.4487206E+000  0.1780480E+03  0.7818608E-02  0.1169706E+00
         21   -1    0    0  503  502  0.00000000000E+00  0.00000000000E+00  0.83425831984E+02  0.83425831984E+02  0.00000000000E+00 0. -1.
         21   -1    0    0  501  503 -0.00000000000E+00 -0.00000000000E+00 -0.55678193919E+03  0.55678193919E+03  0.00000000000E+00 0.  1.
          6    1    1    2  501    0 -0.43625530431E+02  0.14625218178E+02 -0.41705378455E+03  0.45346989219E+03  0.17200000000E+03 0.  1.
         -6    1    1    2    0  502  0.43625530431E+02 -0.14625218178E+02 -0.56302322655E+02  0.18673787899E+03  0.17200000000E+03 0. -1.
</event>
<event>
 4    1  0.4487206E+000  0.1854048E+03  0.7818608E-02  0.1162672E+00
         21   -1    0    0  503  502  0.00000000000E+00  0.00000000000E+00  0.62554975023E+03  0.62554975023E+03  0.00000000000E+00 0.  1.
         21   -1    0    0  501  503 -0.00000000000E+00 -0.00000000000E+00 -0.65024543697E+02  0.65024543697E+02  0.00000000000E+00 0.  1.
          6    1    1    2  501    0 -0.53033763512E+02 -0.44478565993E+02  0.14436204980E+03  0.23497941256E+03  0.17200000000E+03 0.  1.
         -6    1    1    2    0  502  0.53033763512E+02  0.44478565993E+02  0.41616315673E+03  0.45559488137E+03  0.17200000000E+03 0.  1.
</event>
<event>
 4    1  0.4487206E+000  0.1739701E+03  0.7818608E-02  0.1173770E+00
         21   -1    0    0  503  502  0.00000000000E+00  0.00000000000E+00  0.11687625077E+03  0.11687625077E+03  0.00000000000E+00 0.  1.
         21   -1    0    0  501  503 -0.00000000000E+00 -0.00000000000E+00 -0.31976108715E+03  0.31976108715E+03  0.00000000000E+00 0.  1.
          6    1    1    2  501    0 -0.25541750498E+02  0.54036040907E+01 -0.19664636334E+03  0.26255546494E+03  0.17200000000E+03 0.  1.
         -6    1    1    2    0  502  0.25541750498E+02 -0.54036040907E+01 -0.62384730421E+01  0.17408187298E+03  0.17200000000E+03 0.  1.
</event>
<event>
 4    1  0.4487206E+000  0.2069977E+03  0.7818608E-02  0.1143966E+00
         21   -1    0    0  503  502  0.00000000000E+00  0.00000000000E+00  0.30931501650E+02  0.30931501650E+02  0.00000000000E+00 0.  1.
         21   -1    0    0  501  503 -0.00000000000E+00 -0.00000000000E+00 -0.13869977515E+04  0.13869977515E+04  0.00000000000E+00 0. -1.
          6    1    1    2  501    0 -0.39658224618E+02  0.10812615813E+03 -0.70315832961E+03  0.73299364073E+03  0.17200000000E+03 0. -1.
         -6    1    1    2    0  502  0.39658224618E+02 -0.10812615813E+03 -0.65290792028E+03  0.68493561246E+03  0.17200000000E+03 0. -1.
</event>
<event>
 4    1  0.4487206E+000  0.1975680E+03  0.7818608E-02  0.1151807E+00
         21   -1    0    0  503  502  0.00000000000E+00  0.00000000000E+00  0.27947853680E+03  0.27947853680E+03  0.00000000000E+00 0. -1.
         21   -1    0    0  501  503 -0.00000000000E+00 -0.00000000000E+00 -0.16040941741E+03  0.16040941741E+03  0.00000000000E+00 0.  1.
          6    1    1    2  501    0  0.96974015696E+02  0.67198779787E+01 -0.19561937978E+02  0.19853409253E+03  0.17200000000E+03 0. -1.
         -6    1    1    2    0  502 -0.96974015696E+02 -0.67198779787E+01  0.13863105737E+03  0.24135386168E+03  0.17200000000E+03 0.  1.
</event>
<event>
 4    1  0.4487206E+000  0.2783664E+03  0.7818608E-02  0.1096585E+00
         21   -1    0    0  501  502  0.00000000000E+00  0.00000000000E+00  0.22325817087E+03  0.22325817087E+03  0.00000000000E+00 0. -1.
         21   -1    0    0  502  503 -0.00000000000E+00 -0.00000000000E+00 -0.49438062881E+03  0.49438062881E+03  0.00000000000E+00 0. -1.
          6    1    1    2  501    0  0.20720127905E+02 -0.21788650691E+03  0.60301320991E+02  0.28482293255E+03  0.17200000000E+03 0. -1.
         -6    1    1    2    0  503 -0.20720127905E+02  0.21788650691E+03 -0.33142377894E+03  0.43281586713E+03  0.17200000000E+03 0. -1.
</event>
<event>
 4    1  0.4487206E+000  0.2287464E+03  0.7818608E-02  0.1127525E+00
         21   -1    0    0  503  502  0.00000000000E+00  0.00000000000E+00  0.46194569744E+03  0.46194569744E+03  0.00000000000E+00 0.  1.
         21   -1    0    0  501  503 -0.00000000000E+00 -0.00000000000E+00 -0.12401810618E+03  0.12401810618E+03  0.00000000000E+00 0.  1.
          6    1    1    2  501    0  0.56432341299E+02 -0.13984380385E+03  0.82715467539E+02  0.24324215751E+03  0.17200000000E+03 0.  1.
         -6    1    1    2    0  502 -0.56432341299E+02  0.13984380385E+03  0.25521212371E+03  0.34272164611E+03  0.17200000000E+03 0.  1.
</event>
<event>
 4    1  0.4487206E+000  0.3712913E+03  0.7818608E-02  0.1054200E+00
         21   -1    0    0  501  502  0.00000000000E+00  0.00000000000E+00  0.32773088285E+03  0.32773088285E+03  0.00000000000E+00 0. -1.
         21   -1    0    0  502  503 -0.00000000000E+00 -0.00000000000E+00 -0.42064195069E+03  0.42064195069E+03  0.00000000000E+00 0.  1.
          6    1    1    2  501    0  0.13614279105E+03  0.29956360253E+03 -0.46841073331E+02  0.37423428179E+03  0.17200000000E+03 0. -1.
         -6    1    1    2    0  503 -0.13614279105E+03 -0.29956360253E+03 -0.46069994511E+02  0.37413855175E+03  0.17200000000E+03 0.  1.
</event>
<event>
 4    1  0.4487206E+000  0.2049706E+03  0.7818608E-02  0.1145612E+00
         21   -1    0    0  503  502  0.00000000000E+00  0.00000000000E+00  0.10616613586E+03  0.10616613586E+03  0.00000000000E+00 0.  1.
         21   -1    0    0  501  503 -0.00000000000E+00 -0.00000000000E+00 -0.55537356631E+03  0.55537356631E+03  0.00000000000E+00 0.  1.
          6    1    1    2  501    0 -0.50325360786E+02 -0.99480204308E+02 -0.40194556283E+03  0.45119085592E+03  0.17200000000E+03 0.  1.
         -6    1    1    2    0  502  0.50325360786E+02  0.99480204308E+02 -0.47261867629E+02  0.21034884625E+03  0.17200000000E+03 0.  1.
</event>
<event>
 4    1  0.4487206E+000  0.2170820E+03  0.7818608E-02  0.1136077E+00
         21   -1    0    0  503  502  0.00000000000E+00  0.00000000000E+00  0.86378963072E+02  0.86378963072E+02  0.00000000000E+00 0.  1.
         21   -1    0    0  501  503 -0.00000000000E+00 -0.00000000000E+00 -0.10876991655E+04  0.10876991655E+04  0.00000000000E+00 0. -1.
          6    1    1    2  501    0  0.11796974202E+03 -0.60197526482E+02 -0.91510749179E+03  0.94050322900E+03  0.17200000000E+03 0. -1.
         -6    1    1    2    0  502 -0.11796974202E+03  0.60197526482E+02 -0.86212710614E+02  0.23357489955E+03  0.17200000000E+03 0.  1.
</event>
<event>
 4    1  0.4487206E+000  0.2393291E+03  0.7818608E-02  0.1120241E+00
         21   -1    0    0  501  502  0.00000000000E+00  0.00000000000E+00  0.52462813533E+02  0.52462813533E+02  0.00000000000E+00 0.  1.
         21   -1    0    0  502  503 -0.00000000000E+00 -0.00000000000E+00 -0.11247023915E+04  0.11247023915E+04  0.00000000000E+00 0.  1.
          6    1    1    2  501    0  0.17632062099E+02 -0.16547974453E+03 -0.63680385615E+03  0.68029228033E+03  0.17200000000E+03 0.  1.
         -6    1    1    2    0  503 -0.17632062099E+02  0.16547974453E+03 -0.43543572177E+03  0.49687292465E+03  0.17200000000E+03 0.  1.
</event>
<event>
 4    1  0.4487206E+000  0.1887693E+03  0.7818608E-02  0.1159576E+00
         21   -1    0    0  501  502  0.00000000000E+00  0.00000000000E+00  0.47152418249E+03  0.47152418249E+03  0.00000000000E+00 0. -1.
         21   -1    0    0  502  503 -0.00000000000E+00 -0.00000000000E+00 -0.81974682641E+02  0.81974682641E+02  0.00000000000E+00 0.  1.
          6    1    1    2  501    0 -0.68294441814E+02  0.37225167216E+02  0.27212129529E+03  0.33118551177E+03  0.17200000000E+03 0. -1.
         -6    1    1    2    0  503  0.68294441814E+02 -0.37225167216E+02  0.11742820457E+03  0.22231335337E+03  0.17200000000E+03 0.  1.
</event>
<event>
 4    1  0.4487206E+000  0.2038119E+03  0.7818608E-02  0.1146562E+00
         21   -1    0    0  503  502  0.00000000000E+00  0.00000000000E+00  0.91431122933E+03  0.91431122933E+03  0.00000000000E+00 0. -1.
         21   -1    0    0  501  503 -0.00000000000E+00 -0.00000000000E+00 -0.11774436286E+03  0.11774436286E+03  0.00000000000E+00 0.  1.
          6    1    1    2  501    0 -0.74434879388E+02  0.80092018070E+02 -0.61139546344E+01  0.20390356316E+03  0.17200000000E+03 0.  1.
         -6    1    1    2    0  502  0.74434879388E+02 -0.80092018070E+02  0.80268082110E+03  0.82815202903E+03  0.17200000000E+03 0. -1.
</event>
<event>
 4    1  0.4487206E+000  0.1936591E+03  0.7818608E-02  0.1155202E+00
         21   -1    0    0  503  502  0.00000000000E+00  0.00000000000E+00  0.17586028650E+04  0.17586028650E+04  0.00000000000E+00 0. -1.
         21   -1    0    0  501  503 -0.00000000000E+00 -0.00000000000E+00 -0.40675486315E+02  0.40675486315E+02  0.00000000000E+00 0. -1.
          6    1    1    2  501    0  0.24436545171E+02  0.85572720905E+02  0.23846977323E+03  0.30719972013E+03  0.17200000000E+03 0. -1.
         -6    1    1    2    0  502 -0.24436545171E+02 -0.85572720905E+02  0.14794576054E+04  0.14920786312E+04  0.17200000000E+03 0. -1.
</event>
<event>
 4    1  0.4487206E+000  0.1778384E+03  0.7818608E-02  0.1169912E+00
         21   -1    0    0  501  502  0.00000000000E+00  0.00000000000E+00  0.55774418662E+03  0.55774418662E+03  0.00000000000E+00 0. -1.
         21   -1    0    0  502  503 -0.00000000000E+00 -0.00000000000E+00 -0.67476260070E+02  0.67476260070E+02  0.00000000000E+00 0. -1.
          6    1    1    2  501    0  0.22468949955E+02 -0.39212882576E+02  0.37003748224E+03  0.41055358010E+03  0.17200000000E+03 0. -1.
         -6    1    1    2    0  503 -0.22468949955E+02  0.39212882576E+02  0.12023044431E+03  0.21466686659E+03  0.17200000000E+03 0. -1.
</event>
<event>
 4    1  0.4487206E+000  0.1829841E+03  0.7818608E-02  0.1164946E+00
         21   -1    0    0  503  502  0.00000000000E+00  0.00000000000E+00  0.77221581213E+02  0.77221581213E+02  0.00000000000E+00 0. -1.
         21   -1    0    0  501  503 -0.00000000000E+00 -0.00000000000E+00 -0.53438525739E+03  0.53438525739E+03  0.00000000000E+00 0. -1.
          6    1    1    2  501    0 -0.61508473129E+02 -0.10765976682E+02 -0.36138726259E+03  0.40507277381E+03  0.17200000000E+03 0. -1.
         -6    1    1    2    0  502  0.61508473129E+02  0.10765976682E+02 -0.95776413589E+02  0.20653406479E+03  0.17200000000E+03 0. -1.
</event>
<event>
 4    1  0.4487206E+000  0.1948525E+03  0.7818608E-02  0.1154156E+00
         21   -1    0    0  503  502  0.00000000000E+00  0.00000000000E+00  0.18632008470E+03  0.18632008470E+03  0.00000000000E+00 0.  1.
         21   -1    0    0  501  503 -0.00000000000E+00 -0.00000000000E+00 -0.20747833262E+03  0.20747833262E+03  0.00000000000E+00 0.  1.
          6    1    1    2  501    0 -0.90749743857E+02  0.12164376059E+02 -0.36882921685E+02  0.19831247557E+03  0.17200000000E+03 0.  1.
         -6    1    1    2    0  502  0.90749743857E+02 -0.12164376059E+02  0.15724673770E+02  0.19548594175E+03  0.17200000000E+03 0.  1.
</event>
<event>
 4    1  0.4487206E+000  0.1723614E+03  0.7818608E-02  0.1175407E+00
         21   -1    0    0  501  502  0.00000000000E+00  0.00000000000E+00  0.42579348849E+02  0.42579348849E+02  0.00000000000E+00 0. -1.
         21   -1    0    0  502  503 -0.00000000000E+00 -0.00000000000E+00 -0.69816617324E+03  0.69816617324E+03  0.00000000000E+00 0. -1.
          6    1    1    2  501    0  0.97642536334E+01 -0.53962324658E+01 -0.33715714847E+03  0.37866000943E+03  0.17200000000E+03 0. -1.
         -6    1    1    2    0  503 -0.97642536334E+01  0.53962324658E+01 -0.31842967593E+03  0.36208551267E+03  0.17200000000E+03 0. -1.
</event>
<event>
 4    1  0.4487206E+000  0.2295162E+03  0.7818608E-02  0.1126981E+00
         21   -1    0    0  501  502  0.00000000000E+00  0.00000000000E+00  0.38893967706E+03  0.38893967706E+03  0.00000000000E+00 0. -1.
         21   -1    0    0  502  503 -0.00000000000E+00 -0.00000000000E+00 -0.16492193816E+03  0.16492193816E+03  0.00000000000E+00 0.  1.
          6    1    1    2  501    0  0.12635754819E+02  0.15143976769E+03  0.22909790111E+03  0.32428924409E+03  0.17200000000E+03 0. -1.
         -6    1    1    2    0  503 -0.12635754819E+02 -0.15143976769E+03 -0.50801622092E+01  0.22957237113E+03  0.17200000000E+03 0.  1.
</event>
<event>
 4    1  0.4487206E+000  0.1880900E+03  0.7818608E-02  0.1160195E+00
         21   -1    0    0  503  502  0.00000000000E+00  0.00000000000E+00  0.11232618462E+04  0.11232618462E+04  0.00000000000E+00 0.  1.
         21   -1    0    0  501  503 -0.00000000000E+00 -0.00000000000E+00 -0.31515319482E+02  0.31515319482E+02  0.00000000000E+00 0.  1.
          6    1    1    2  501    0 -0.27984478079E+02 -0.70786343329E+02  0.56030587629E+03  0.59103342750E+03  0.17200000000E+03 0.  1.
         -6    1    1    2    0  502  0.27984478079E+02  0.70786343329E+02  0.53144065045E+03  0.56374373820E+03  0.17200000000E+03 0.  1.
</event>
<event>
 4    1  0.4487206E+000  0.2018956E+03  0.7818608E-02  0.1148150E+00
         21   -1    0    0  503  502  0.00000000000E+00  0.00000000000E+00  0.57794960317E+02  0.57794960317E+02  0.00000000000E+00 0. -1.
         21   -1    0    0  501  503 -0.00000000000E+00 -0.00000000000E+00 -0.81465413434E+03  0.81465413434E+03  0.00000000000E+00 0. -1.
          6    1    1    2  501    0  0.35300156353E+02 -0.99657986705E+02 -0.21859366100E+03  0.29756512562E+03  0.17200000000E+03 0. -1.
         -6    1    1    2    0  502 -0.35300156353E+02  0.99657986705E+02 -0.53826551302E+03  0.57488396904E+03  0.17200000000E+03 0. -1.
</event>
<event>
 4    1  0.4487206E+000  0.2078265E+03  0.7818608E-02  0.1143299E+00
         21   -1    0    0  503  502  0.00000000000E+00  0.00000000000E+00  0.55214053112E+02  0.55214053112E+02  0.00000000000E+00 0.  1.
         21   -1    0    0  501  503 -0.00000000000E+00 -0.00000000000E+00 -0.13010471041E+04  0.13010471041E+04  0.00000000000E+00 0.  1.
          6    1    1    2  501    0 -0.32146531608E+02 -0.11213590844E+03 -0.10511301909E+04  0.10714786697E+04  0.17200000000E+03 0.  1.
         -6    1    1    2    0  502  0.32146531608E+02  0.11213590844E+03 -0.19470286010E+03  0.28478248750E+03  0.17200000000E+03 0.  1.
</event>
<event>
 4    1  0.4487206E+000  0.1874463E+03  0.7818608E-02  0.1160785E+00
         21   -1    0    0  501  502  0.00000000000E+00  0.00000000000E+00  0.21369725879E+03  0.21369725879E+03  0.00000000000E+00 0. -1.
         21   -1    0    0  502  503 -0.00000000000E+00 -0.00000000000E+00 -0.16710529931E+03  0.16710529931E+03  0.00000000000E+00 0. -1.
          6    1    1    2  501    0 -0.68851143367E+02 -0.28489073234E+02 -0.84025978014E+00  0.18744816156E+03  0.17200000000E+03 0. -1.
         -6    1    1    2    0  503  0.68851143367E+02  0.28489073234E+02  0.47432219263E+02  0.19335439654E+03  0.17200000000E+03 0. -1.
</event>
<event>
 4    1  0.4487206E+000  0.1977396E+03  0.7818608E-02  0.1151660E+00
         21   -1    0    0  503  502  0.00000000000E+00  0.00000000000E+00  0.18428519141E+03  0.18428519141E+03  0.00000000000E+00 0. -1.
         21   -1    0    0  501  503 -0.00000000000E+00 -0.00000000000E+00 -0.25335104277E+03  0.25335104277E+03  0.00000000000E+00 0. -1.
          6    1    1    2  501    0 -0.75722350572E+02 -0.61506571332E+02 -0.12274699831E+03  0.23273967923E+03  0.17200000000E+03 0.  1.
         -6    1    1    2    0  502  0.75722350572E+02  0.61506571332E+02  0.53681146957E+02  0.20489655495E+03  0.17200000000E+03 0.  1.
</event>
<event>
 4    1  0.4487206E+000  0.1785999E+03  0.7818608E-02  0.1169165E+00
         21   -1    0    0  503  502  0.00000000000E+00  0.00000000000E+00  0.25556036022E+03  0.25556036022E+03  0.00000000000E+00 0. -1.
         21   -1    0    0  501  503 -0.00000000000E+00 -0.00000000000E+00 -0.18056593338E+03  0.18056593338E+03  0.00000000000E+00 0. -1.
          6    1    1    2  501    0  0.46517464385E+02 -0.12249831204E+02 -0.83670775619E+02  0.19722761356E+03  0.17200000000E+03 0. -1.
         -6    1    1    2    0  502 -0.46517464385E+02  0.12249831204E+02  0.15866520246E+03  0.23889868005E+03  0.17200000000E+03 0. -1.
</event>
<event>
 4    1  0.4487206E+000  0.1798454E+03  0.7818608E-02  0.1167953E+00
         21   -1    0    0  503  502  0.00000000000E+00  0.00000000000E+00  0.54606583095E+03  0.54606583095E+03  0.00000000000E+00 0. -1.
         21   -1    0    0  501  503 -0.00000000000E+00 -0.00000000000E+00 -0.60659065456E+02  0.60659065456E+02  0.00000000000E+00 0. -1.
          6    1    1    2  501    0  0.49654803271E+02 -0.17169130699E+02  0.19616732206E+03  0.26613154037E+03  0.17200000000E+03 0. -1.
         -6    1    1    2    0  502 -0.49654803271E+02  0.17169130699E+02  0.28923944343E+03  0.34059335604E+03  0.17200000000E+03 0. -1.
</event>
<event>
 4    1  0.4487206E+000  0.2449869E+03  0.7818608E-02  0.1116515E+00
         21   -1    0    0  503  502  0.00000000000E+00  0.00000000000E+00  0.26569362358E+03  0.26569362358E+03  0.00000000000E+00 0. -1.
         21   -1    0    0  501  503 -0.00000000000E+00 -0.00000000000E+00 -0.26554769837E+03  0.26554769837E+03  0.00000000000E+00 0. -1.
          6    1    1    2  501    0 -0.16535261367E+03  0.55615545983E+02 -0.10257086432E+03  0.26559246603E+03  0.17200000000E+03 0. -1.
         -6    1    1    2    0  502  0.16535261367E+03 -0.55615545983E+02  0.10271678953E+03  0.26564885593E+03  0.17200000000E+03 0. -1.
</event>
<event>
 4    1  0.4487206E+000  0.1913314E+03  0.7818608E-02  0.1157266E+00
         21   -1    0    0  501  502  0.00000000000E+00  0.00000000000E+00  0.10465693347E+03  0.10465693347E+03  0.00000000000E+00 0. -1.
         21   -1    0    0  502  503 -0.00000000000E+00 -0.00000000000E+00 -0.35107111030E+03  0.35107111030E+03  0.00000000000E+00 0. -1.
          6    1    1    2  501    0 -0.10597992429E+02 -0.83134708883E+02 -0.13698484170E+03  0.23531371426E+03  0.17200000000E+03 0. -1.
         -6    1    1    2    0  503  0.10597992429E+02  0.83134708883E+02 -0.10942933513E+03  0.22041432951E+03  0.17200000000E+03 0. -1.
</event>
<event>
 4    1  0.4487206E+000  0.1940586E+03  0.7818608E-02  0.1154851E+00
         21   -1    0    0  501  502  0.00000000000E+00  0.00000000000E+00  0.19624623740E+03  0.19624623740E+03  0.00000000000E+00 0. -1.
         21   -1    0    0  502  503 -0.00000000000E+00 -0.00000000000E+00 -0.22645438827E+03  0.22645438827E+03  0.00000000000E+00 0. -1.
          6    1    1    2  501    0  0.56044860670E+02 -0.70240401876E+02  0.67460423004E+02  0.20544987013E+03  0.17200000000E+03 0. -1.
         -6    1    1    2    0  503 -0.56044860670E+02  0.70240401876E+02 -0.97668573871E+02  0.21725075555E+03  0.17200000000E+03 0. -1.
</event>
<event>
 4    1  0.4487206E+000  0.1972323E+03  0.7818608E-02  0.1152095E+00
         21   -1    0    0  501  502  0.00000000000E+00  0.00000000000E+00  0.70647449871E+02  0.70647449871E+02  0.00000000000E+00 0. -1.
         21   -1    0    0  502  503 -0.00000000000E+00 -0.00000000000E+00 -0.61588484559E+03  0.61588484559E+03  0.00000000000E+00 0. -1.
          6    1    1    2  501    0 -0.71405838873E+02 -0.64944622495E+02 -0.16088402702E+03  0.25452753872E+03  0.17200000000E+03 0. -1.
         -6    1    1    2    0  503  0.71405838873E+02  0.64944622495E+02 -0.38435336870E+03  0.43200475674E+03  0.17200000000E+03 0. -1.
</event>
<event>
 4    1  0.4487206E+000  0.1805500E+03  0.7818608E-02  0.1167272E+00
         21   -1    0    0  503  502  0.00000000000E+00  0.00000000000E+00  0.28068666295E+02  0.28068666295E+02  0.00000000000E+00 0.  1.
         21   -1    0    0  501  503 -0.00000000000E+00 -0.00000000000E+00 -0.11620851814E+04  0.11620851814E+04  0.00000000000E+00 0.  1.
          6    1    1    2  501    0  0.50823990992E+02 -0.20765887989E+02 -0.55231688641E+03  0.58107851722E+03  0.17200000000E+03 0.  1.
         -6    1    1    2    0  502 -0.50823990992E+02  0.20765887989E+02 -0.58169962867E+03  0.60907533044E+03  0.17200000000E+03 0.  1.
</event>
<event>
 4    1  0.4487206E+000  0.3352553E+03  0.7818608E-02  0.1068835E+00
         21   -1    0    0  503  502  0.00000000000E+00  0.00000000000E+00  0.57782913714E+02  0.57782913714E+02  0.00000000000E+00 0. -1.
         21   -1    0    0  501  503 -0.00000000000E+00 -0.00000000000E+00 -0.19773223985E+04  0.19773223985E+04  0.00000000000E+00 0.  1.
          6    1    1    2  501    0  0.16025520981E+03  0.23901969741E+03 -0.82996416829E+03  0.89511824284E+03  0.17200000000E+03 0. -1.
         -6    1    1    2    0  502 -0.16025520981E+03 -0.23901969741E+03 -0.10895753165E+04  0.11399870694E+04  0.17200000000E+03 0.  1.
</event>
<event>
 4    1  0.4487206E+000  0.2232348E+03  0.7818608E-02  0.1131494E+00
         21   -1    0    0  501  502  0.00000000000E+00  0.00000000000E+00  0.81588730028E+03  0.81588730028E+03  0.00000000000E+00 0.  1.
         21   -1    0    0  502  503 -0.00000000000E+00 -0.00000000000E+00 -0.18668207887E+03  0.18668207887E+03  0.00000000000E+00 0.  1.
          6    1    1    2  501    0 -0.34486324476E+02 -0.13805968583E+03  0.72578342155E+03  0.75933876394E+03  0.17200000000E+03 0.  1.
         -6    1    1    2    0  503  0.34486324476E+02  0.13805968583E+03 -0.96578200145E+02  0.24323061520E+03  0.17200000000E+03 0.  1.
</event>
<event>
 4    1  0.4487206E+000  0.2546752E+03  0.7818608E-02  0.1110385E+00
         21   -1    0    0  503  502  0.00000000000E+00  0.00000000000E+00  0.25864065528E+03  0.25864065528E+03  0.00000000000E+00 0.  1.
         21   -1    0    0  501  503 -0.00000000000E+00 -0.00000000000E+00 -0.25136979768E+03  0.25136979768E+03  0.00000000000E+00 0. -1.
          6    1    1    2  501    0  0.28522085288E+01 -0.18779598505E+03 -0.88150171144E+01  0.25482772930E+03  0.17200000000E+03 0.  1.
         -6    1    1    2    0  502 -0.28522085288E+01  0.18779598505E+03  0.16085874717E+02  0.25518272367E+03  0.17200000000E+03 0. -1.
</event>
<event>
 4    1  0.4487206E+000  0.1901639E+03  0.7818608E-02  0.1158314E+00
         21   -1    0    0  503  502  0.00000000000E+00  0.00000000000E+00  0.23328308282E+03  0.23328308282E+03  0.00000000000E+00 0.  1.
         21   -1    0    0  501  503 -0.00000000000E+00 -0.00000000000E+00 -0.43570557013E+03  0.43570557013E+03  0.00000000000E+00 0.  1.
          6    1    1    2  501    0  0.71882885167E+02 -0.37565243305E+02 -0.36968780566E+03  0.41572992475E+03  0.17200000000E+03 0.  1.
         -6    1    1    2    0  502 -0.71882885167E+02  0.37565243305E+02  0.16726531835E+03  0.25325872820E+03  0.17200000000E+03 0.  1.
</event>
<event>
 4    1  0.4487206E+000  0.1775624E+03  0.7818608E-02  0.1170183E+00
         21   -1    0    0  501  502  0.00000000000E+00  0.00000000000E+00  0.37006726213E+03  0.37006726213E+03  0.00000000000E+00 0.  1.
         21   -1    0    0  502  503 -0.00000000000E+00 -0.00000000000E+00 -0.30294198995E+03  0.30294198995E+03  0.00000000000E+00 0.  1.
          6    1    1    2  501    0 -0.42846063091E+02  0.10421629965E+02  0.31885227156E+03  0.36495913000E+03  0.17200000000E+03 0.  1.
         -6    1    1    2    0  503  0.42846063091E+02 -0.10421629965E+02 -0.25172699938E+03  0.30805012207E+03  0.17200000000E+03 0.  1.
</event>
<event>
 4    1  0.4487206E+000  0.1818054E+03  0.7818608E-02  0.1166067E+00
         21   -1    0    0  501  502  0.00000000000E+00  0.00000000000E+00  0.91508388458E+02  0.91508388458E+02  0.00000000000E+00 0.  1.
         21   -1    0    0  502  503 -0.00000000000E+00 -0.00000000000E+00 -0.37542715892E+03  0.37542715892E+03  0.00000000000E+00 0.  1.
          6    1    1    2  501    0  0.91748557826E+01  0.58180909592E+02 -0.96516899033E+02  0.20583660515E+03  0.17200000000E+03 0. -1.
         -6    1    1    2    0  503 -0.91748557826E+01 -0.58180909592E+02 -0.18740187143E+03  0.26109894223E+03  0.17200000000E+03 0. -1.
</event>
<event>
 4    1  0.4487206E+000  0.1783978E+03  0.7818608E-02  0.1169363E+00
         21   -1    0    0  503  502  0.00000000000E+00  0.00000000000E+00  0.18417041120E+03  0.18417041120E+03  0.00000000000E+00 0. -1.
         21   -1    0    0  501  503 -0.00000000000E+00 -0.00000000000E+00 -0.24331686569E+03  0.24331686569E+03  0.00000000000E+00 0. -1.
          6    1    1    2  501    0  0.13740587971E+00  0.47347105039E+02 -0.14463600681E+03  0.22966354021E+03  0.17200000000E+03 0. -1.
         -6    1    1    2    0  502 -0.13740587971E+00 -0.47347105039E+02  0.85489552326E+02  0.19782373668E+03  0.17200000000E+03 0. -1.
</event>
<event>
 4    1  0.4487206E+000  0.1853655E+03  0.7818608E-02  0.1162709E+00
         21   -1    0    0  501  502  0.00000000000E+00  0.00000000000E+00  0.69608993193E+03  0.69608993193E+03  0.00000000000E+00 0.  1.
         21   -1    0    0  502  503 -0.00000000000E+00 -0.00000000000E+00 -0.50107098163E+02  0.50107098163E+02  0.00000000000E+00 0.  1.
          6    1    1    2  501    0  0.19849622678E+02  0.66199295298E+02  0.27749301613E+03  0.33371054556E+03  0.17200000000E+03 0.  1.
         -6    1    1    2    0  503 -0.19849622678E+02 -0.66199295298E+02  0.36848981764E+03  0.41248648453E+03  0.17200000000E+03 0.  1.
</event>
<event>
 4    1  0.4487206E+000  0.1885652E+03  0.7818608E-02  0.1159762E+00
         21   -1    0    0  503  502  0.00000000000E+00  0.00000000000E+00  0.62861670945E+03  0.62861670945E+03  0.00000000000E+00 0. -1.
         21   -1    0    0  501  503 -0.00000000000E+00 -0.00000000000E+00 -0.69848849022E+02  0.69848849022E+02  0.00000000000E+00 0.  1.
          6    1    1    2  501    0 -0.59210760884E+02 -0.49668217883E+02  0.12707700466E+03  0.22738823889E+03  0.17200000000E+03 0.  1.
         -6    1    1    2    0  502  0.59210760884E+02  0.49668217883E+02  0.43169085576E+03  0.47107731958E+03  0.17200000000E+03 0. -1.
</event>
<event>
 4    1  0.4487206E+000  0.2796579E+03  0.7818608E-02  0.1095876E+00
         21   -1    0    0  501  502  0.00000000000E+00  0.00000000000E+00  0.26369329090E+03  0.26369329090E+03  0.00000000000E+00 0. -1.
         21   -1    0    0  502  503 -0.00000000000E+00 -0.00000000000E+00 -0.79503410626E+03  0.79503410626E+03  0.00000000000E+00 0.  1.
          6    1    1    2  501    0  0.97551804494E+02  0.19775791138E+03  0.15348002308E+03  0.31900574220E+03  0.17200000000E+03 0. -1.
         -6    1    1    2    0  503 -0.97551804494E+02 -0.19775791138E+03 -0.68482083843E+03  0.73972165496E+03  0.17200000000E+03 0.  1.
</event>
<event>
 4    1  0.4487206E+000  0.1944146E+03  0.7818608E-02  0.1154539E+00
         21   -1    0    0  501  502  0.00000000000E+00  0.00000000000E+00  0.25912072744E+03  0.25912072744E+03  0.00000000000E+00 0.  1.
         21   -1    0    0  502  503 -0.00000000000E+00 -0.00000000000E+00 -0.27292618799E+03  0.27292618799E+03  0.00000000000E+00 0.  1.
          6    1    1    2  501    0  0.82453278232E+02 -0.37609919426E+02  0.17460750474E+03  0.26131366180E+03  0.17200000000E+03 0.  1.
         -6    1    1    2    0  503 -0.82453278232E+02  0.37609919426E+02 -0.18841296530E+03  0.27073325363E+03  0.17200000000E+03 0.  1.
</event>
<event>
 4    1  0.4487206E+000  0.1787342E+03  0.7818608E-02  0.1169034E+00
         21   -1    0    0  503  502  0.00000000000E+00  0.00000000000E+00  0.74096472350E+02  0.74096472350E+02  0.00000000000E+00 0.  1.
         21   -1    0    0  501  503 -0.00000000000E+00 -0.00000000000E+00 -0.94718711721E+03  0.94718711721E+03  0.00000000000E+00 0.  1.
          6    1    1    2  501    0  0.40967519206E+02 -0.26145634663E+02 -0.81346018713E+03  0.83286457956E+03  0.17200000000E+03 0.  1.
         -6    1    1    2    0  502 -0.40967519206E+02  0.26145634663E+02 -0.59630457737E+02  0.18841901001E+03  0.17200000000E+03 0.  1.
</event>
<event>
 4    1  0.4487206E+000  0.3702439E+03  0.7818608E-02  0.1054600E+00
         21   -1    0    0  503  502  0.00000000000E+00  0.00000000000E+00  0.39992118586E+03  0.39992118586E+03  0.00000000000E+00 0. -1.
         21   -1    0    0  501  503 -0.00000000000E+00 -0.00000000000E+00 -0.14015779916E+04  0.14015779916E+04  0.00000000000E+00 0.  1.
          6    1    1    2  501    0 -0.31424539310E+03  0.93522239963E+02 -0.12837247245E+04  0.13360500532E+04  0.17200000000E+03 0.  1.
         -6    1    1    2    0  502  0.31424539310E+03 -0.93522239963E+02  0.28206791876E+03  0.46544912423E+03  0.17200000000E+03 0. -1.
</event>
<event>
 4    1  0.4487206E+000  0.1827958E+03  0.7818608E-02  0.1165124E+00
         21   -1    0    0  503  502  0.00000000000E+00  0.00000000000E+00  0.90143924620E+02  0.90143924620E+02  0.00000000000E+00 0. -1.
         21   -1    0    0  501  503 -0.00000000000E+00 -0.00000000000E+00 -0.54529179759E+03  0.54529179759E+03  0.00000000000E+00 0. -1.
          6    1    1    2  501    0 -0.28563136963E+02  0.54904030822E+02 -0.40736467385E+03  0.44649779719E+03  0.17200000000E+03 0. -1.
         -6    1    1    2    0  502  0.28563136963E+02 -0.54904030822E+02 -0.47783199121E+02  0.18893792502E+03  0.17200000000E+03 0. -1.
</event>
<event>
 4    1  0.4487206E+000  0.2263461E+03  0.7818608E-02  0.1129238E+00
         21   -1    0    0  501  502  0.00000000000E+00  0.00000000000E+00  0.95538666504E+03  0.95538666504E+03  0.00000000000E+00 0. -1.
         21   -1    0    0  502  503 -0.00000000000E+00 -0.00000000000E+00 -0.54392228212E+02  0.54392228212E+02  0.00000000000E+00 0.  1.
          6    1    1    2  501    0 -0.12267184513E+03 -0.81241543036E+02  0.39053164339E+03  0.45138402098E+03  0.17200000000E+03 0. -1.
         -6    1    1    2    0  503  0.12267184513E+03  0.81241543036E+02  0.51046279343E+03  0.55839487227E+03  0.17200000000E+03 0.  1.
</event>
<event>
 4    1  0.4487206E+000  0.1969600E+03  0.7818608E-02  0.1152330E+00
         21   -1    0    0  503  502  0.00000000000E+00  0.00000000000E+00  0.14000200692E+03  0.14000200692E+03  0.00000000000E+00 0.  1.
         21   -1    0    0  501  503 -0.00000000000E+00 -0.00000000000E+00 -0.31422833699E+03  0.31422833699E+03  0.00000000000E+00 0.  1.
          6    1    1    2  501    0 -0.95852691574E+02  0.46367987134E+01 -0.16519162948E+03  0.25706324676E+03  0.17200000000E+03 0.  1.
         -6    1    1    2    0  502  0.95852691574E+02 -0.46367987134E+01 -0.90347005960E+01  0.19716709715E+03  0.17200000000E+03 0.  1.
</event>
<event>
 4    1  0.4487206E+000  0.1874539E+03  0.7818608E-02  0.1160778E+00
         21   -1    0    0  503  502  0.00000000000E+00  0.00000000000E+00  0.27109185683E+03  0.27109185683E+03  0.00000000000E+00 0.  1.
         21   -1    0    0  501  503 -0.00000000000E+00 -0.00000000000E+00 -0.14459314974E+03  0.14459314974E+03  0.00000000000E+00 0.  1.
          6    1    1    2  501    0 -0.73308864542E+01  0.74170249790E+02 -0.36335126674E+01  0.18748912039E+03  0.17200000000E+03 0.  1.
         -6    1    1    2    0  502  0.73308864542E+01 -0.74170249790E+02  0.13013221975E+03  0.22819588618E+03  0.17200000000E+03 0.  1.
</event>
<event>
 4    1  0.4487206E+000  0.1864982E+03  0.7818608E-02  0.1161658E+00
         21   -1    0    0  503  502  0.00000000000E+00  0.00000000000E+00  0.24066252761E+02  0.24066252761E+02  0.00000000000E+00 0.  1.
         21   -1    0    0  501  503 -0.00000000000E+00 -0.00000000000E+00 -0.16991996762E+04  0.16991996762E+04  0.00000000000E+00 0. -1.
          6    1    1    2  501    0  0.14197979391E+02 -0.70682410707E+02 -0.50446272753E+03  0.53783290088E+03  0.17200000000E+03 0.  1.
         -6    1    1    2    0  502 -0.14197979391E+02  0.70682410707E+02 -0.11706706959E+04  0.11854330281E+04  0.17200000000E+03 0. -1.
</event>
<event>
 4    1  0.4487206E+000  0.1899837E+03  0.7818608E-02  0.1158476E+00
         21   -1    0    0  501  502  0.00000000000E+00  0.00000000000E+00  0.14557926356E+04  0.14557926356E+04  0.00000000000E+00 0.  1.
         21   -1    0    0  502  503 -0.00000000000E+00 -0.00000000000E+00 -0.24826354324E+02  0.24826354324E+02  0.00000000000E+00 0.  1.
          6    1    1    2  501    0  0.32453412576E+02  0.73868646867E+02  0.68844147983E+03  0.71417467901E+03  0.17200000000E+03 0.  1.
         -6    1    1    2    0  503 -0.32453412576E+02 -0.73868646867E+02  0.74252480140E+03  0.76644431087E+03  0.17200000000E+03 0.  1.
</event>
<event>
 4    1  0.4487206E+000  0.2730205E+03  0.7818608E-02  0.1099563E+00
         21   -1    0    0  503  502  0.00000000000E+00  0.00000000000E+00  0.11665461060E+04  0.11665461060E+04  0.00000000000E+00 0.  1.
         21   -1    0    0  501  503 -0.00000000000E+00 -0.00000000000E+00 -0.74161120215E+02  0.74161120215E+02  0.00000000000E+00 0.  1.
          6    1    1    2  501    0 -0.19964700826E+03 -0.71395273315E+02  0.77696621307E+03  0.82353913642E+03  0.17200000000E+03 0.  1.
         -6    1    1    2    0  502  0.19964700826E+03  0.71395273315E+02  0.31541877268E+03  0.41716808976E+03  0.17200000000E+03 0.  1.
</event>
<event>
 4    1  0.4487206E+000  0.2196385E+03  0.7818608E-02  0.1134153E+00
         21   -1    0    0  501  502  0.00000000000E+00  0.00000000000E+00  0.85700812572E+02  0.85700812572E+02  0.00000000000E+00 0. -1.
         21   -1    0    0  502  503 -0.00000000000E+00 -0.00000000000E+00 -0.60054546024E+03  0.60054546024E+03  0.00000000000E+00 0.  1.
          6    1    1    2  501    0 -0.13644779656E+03 -0.62506228649E+01 -0.17151549148E+03  0.27867298988E+03  0.17200000000E+03 0. -1.
         -6    1    1    2    0  503  0.13644779656E+03  0.62506228649E+01 -0.34332915619E+03  0.40757328293E+03  0.17200000000E+03 0.  1.
</event>
<event>
 4    1  0.4487206E+000  0.1737851E+03  0.7818608E-02  0.1173957E+00
         21   -1    0    0  503  502  0.00000000000E+00  0.00000000000E+00  0.23194245740E+03  0.23194245740E+03  0.00000000000E+00 0.  1.
         21   -1    0    0  501  503 -0.00000000000E+00 -0.00000000000E+00 -0.13676619883E+03  0.13676619883E+03  0.00000000000E+00 0.  1.
          6    1    1    2  501    0 -0.17751188461E+01 -0.24781362185E+02  0.72250439900E+01  0.17393524145E+03  0.17200000000E+03 0.  1.
         -6    1    1    2    0  502  0.17751188461E+01  0.24781362185E+02  0.87951214577E+02  0.19477341478E+03  0.17200000000E+03 0.  1.
</event>
<event>
 4    1  0.4487206E+000  0.2226579E+03  0.7818608E-02  0.1131917E+00
         21   -1    0    0  503  502  0.00000000000E+00  0.00000000000E+00  0.15405111624E+03  0.15405111624E+03  0.00000000000E+00 0. -1.
         21   -1    0    0  501  503 -0.00000000000E+00 -0.00000000000E+00 -0.32400972036E+03  0.32400972036E+03  0.00000000000E+00 0. -1.
          6    1    1    2  501    0 -0.10760790535E+03  0.91722876610E+02 -0.65323709174E+02  0.23204252707E+03  0.17200000000E+03 0. -1.
         -6    1    1    2    0  502  0.10760790535E+03 -0.91722876610E+02 -0.10463489495E+03  0.24601830954E+03  0.17200000000E+03 0. -1.
</event>
<event>
 4    1  0.4487206E+000  0.1762372E+03  0.7818608E-02  0.1171495E+00
         21   -1    0    0  503  502  0.00000000000E+00  0.00000000000E+00  0.87506457424E+02  0.87506457424E+02  0.00000000000E+00 0.  1.
         21   -1    0    0  501  503 -0.00000000000E+00 -0.00000000000E+00 -0.86989413160E+03  0.86989413160E+03  0.00000000000E+00 0.  1.
          6    1    1    2  501    0  0.11794358475E+02 -0.36557388929E+02 -0.75950487218E+03  0.77968403885E+03  0.17200000000E+03 0.  1.
         -6    1    1    2    0  502 -0.11794358475E+02  0.36557388929E+02 -0.22882801996E+02  0.17771655017E+03  0.17200000000E+03 0.  1.
</event>
<event>
 4    1  0.4487206E+000  0.1935164E+03  0.7818608E-02  0.1155327E+00
         21   -1    0    0  503  502  0.00000000000E+00  0.00000000000E+00  0.30180578090E+03  0.30180578090E+03  0.00000000000E+00 0. -1.
         21   -1    0    0  501  503 -0.00000000000E+00 -0.00000000000E+00 -0.13401359101E+03  0.13401359101E+03  0.00000000000E+00 0. -1.
          6    1    1    2  501    0  0.68078155377E+02  0.56832799267E+02  0.24574057271E+02  0.19507046574E+03  0.17200000000E+03 0. -1.
         -6    1    1    2    0  502 -0.68078155377E+02 -0.56832799267E+02  0.14321813263E+03  0.24074890618E+03  0.17200000000E+03 0. -1.
</event>
<event>
 4    1  0.4487206E+000  0.1820195E+03  0.7818608E-02  0.1165863E+00
         21   -1    0    0  503  502  0.00000000000E+00  0.00000000000E+00  0.81365928625E+03  0.81365928625E+03  0.00000000000E+00 0.  1.
         21   -1    0    0  501  503 -0.00000000000E+00 -0.00000000000E+00 -0.40932407180E+02  0.40932407180E+02  0.00000000000E+00 0.  1.
          6    1    1    2  501    0 -0.49043365432E+02 -0.33790984627E+02  0.35548274597E+03  0.39937334040E+03  0.17200000000E+03 0. -1.
         -6    1    1    2    0  502  0.49043365432E+02  0.33790984627E+02  0.41724413309E+03  0.45521835303E+03  0.17200000000E+03 0. -1.
</event>
<event>
 4    1  0.4487206E+000  0.1804329E+03  0.7818608E-02  0.1167385E+00
         21   -1    0    0  501  502  0.00000000000E+00  0.00000000000E+00  0.28728940105E+03  0.28728940105E+03  0.00000000000E+00 0. -1.
         21   -1    0    0  502  503 -0.00000000000E+00 -0.00000000000E+00 -0.11590194167E+03  0.11590194167E+03  0.00000000000E+00 0.  1.
          6    1    1    2  501    0  0.53159465187E+02 -0.12087815299E+02  0.55612937544E+02  0.18880901154E+03  0.17200000000E+03 0.  1.
         -6    1    1    2    0  503 -0.53159465187E+02  0.12087815299E+02  0.11577452183E+03  0.21438233118E+03  0.17200000000E+03 0. -1.
</event>
<event>
 4    1  0.4487206E+000  0.2839737E+03  0.7818608E-02  0.1093538E+00
         21   -1    0    0  503  502  0.00000000000E+00  0.00000000000E+00  0.39246688894E+03  0.39246688894E+03  0.00000000000E+00 0.  1.
         21   -1    0    0  501  503 -0.00000000000E+00 -0.00000000000E+00 -0.32846545442E+03  0.32846545442E+03  0.00000000000E+00 0. -1.
          6    1    1    2  501    0  0.22506605230E+03 -0.20057907849E+02 -0.18857629733E+03  0.34088424352E+03  0.17200000000E+03 0. -1.
         -6    1    1    2    0  502 -0.22506605230E+03  0.20057907849E+02  0.25257773185E+03  0.38004809984E+03  0.17200000000E+03 0.  1.
</event>
<event>
 4    1  0.4487206E+000  0.2526512E+03  0.7818608E-02  0.1111641E+00
         21   -1    0    0  503  502  0.00000000000E+00  0.00000000000E+00  0.94614951207E+03  0.94614951207E+03  0.00000000000E+00 0.  1.
         21   -1    0    0  501  503 -0.00000000000E+00 -0.00000000000E+00 -0.17643831974E+03  0.17643831974E+03  0.00000000000E+00 0.  1.
          6    1    1    2  501    0 -0.17446853238E+03  0.61720149678E+02 -0.56260149437E+02  0.25883942915E+03  0.17200000000E+03 0.  1.
         -6    1    1    2    0  502  0.17446853238E+03 -0.61720149678E+02  0.82597134177E+03  0.86374840266E+03  0.17200000000E+03 0.  1.
</event>
<event>
 4    1  0.4487206E+000  0.2095001E+03  0.7818608E-02  0.1141962E+00
         21   -1    0    0  501  502  0.00000000000E+00  0.00000000000E+00  0.30698113390E+03  0.30698113390E+03  0.00000000000E+00 0.  1.
         21   -1    0    0  502  503 -0.00000000000E+00 -0.00000000000E+00 -0.17028451164E+03  0.17028451164E+03  0.00000000000E+00 0.  1.
          6    1    1    2  501    0  0.87394555284E+01 -0.11928918465E+03  0.16391540441E+03  0.26600478841E+03  0.17200000000E+03 0.  1.
         -6    1    1    2    0  503 -0.87394555284E+01  0.11928918465E+03 -0.27218782148E+02  0.21126085714E+03  0.17200000000E+03 0.  1.
</event>
<event>
 4    1  0.4487206E+000  0.3007990E+03  0.7818608E-02  0.1084842E+00
         21   -1    0    0  503  502  0.00000000000E+00  0.00000000000E+00  0.72854301770E+02  0.72854301770E+02  0.00000000000E+00 0. -1.
         21   -1    0    0  501  503 -0.00000000000E+00 -0.00000000000E+00 -0.17128733119E+04  0.17128733119E+04  0.00000000000E+00 0. -1.
          6    1    1    2  501    0 -0.24114250458E+03  0.52405521255E+02 -0.12881823944E+04  0.13228355632E+04  0.17200000000E+03 0. -1.
         -6    1    1    2    0  502  0.24114250458E+03 -0.52405521255E+02 -0.35183661576E+03  0.46289205045E+03  0.17200000000E+03 0. -1.
</event>
<event>
 4    1  0.4487206E+000  0.1731418E+03  0.7818608E-02  0.1174611E+00
         21   -1    0    0  501  502  0.00000000000E+00  0.00000000000E+00  0.77023637036E+03  0.77023637036E+03  0.00000000000E+00 0.  1.
         21   -1    0    0  502  503 -0.00000000000E+00 -0.00000000000E+00 -0.74012480126E+02  0.74012480126E+02  0.00000000000E+00 0.  1.
          6    1    1    2  501    0  0.12947223638E+02 -0.15048030438E+02  0.63877593089E+03  0.66182532718E+03  0.17200000000E+03 0.  1.
         -6    1    1    2    0  503 -0.12947223638E+02  0.15048030438E+02  0.57447959341E+02  0.18242352330E+03  0.17200000000E+03 0.  1.
</event>
<event>
 4    1  0.4487206E+000  0.2019390E+03  0.7818608E-02  0.1148113E+00
         21   -1    0    0  503  502  0.00000000000E+00  0.00000000000E+00  0.86112300926E+03  0.86112300926E+03  0.00000000000E+00 0.  1.
         21   -1    0    0  501  503 -0.00000000000E+00 -0.00000000000E+00 -0.63214489994E+02  0.63214489994E+02  0.00000000000E+00 0. -1.
          6    1    1    2  501    0 -0.10196461533E+03 -0.28258837060E+02  0.16746911855E+03  0.26234566953E+03  0.17200000000E+03 0. -1.
         -6    1    1    2    0  502  0.10196461533E+03  0.28258837060E+02  0.63043940071E+03  0.66199182972E+03  0.17200000000E+03 0. -1.
</event>
<event>
 4    1  0.4487206E+000  0.1755507E+03  0.7818608E-02  0.1172180E+00
         21   -1    0    0  501  502  0.00000000000E+00  0.00000000000E+00  0.11425257703E+04  0.11425257703E+04  0.00000000000E+00 0.  1.
         21   -1    0    0  502  503 -0.00000000000E+00 -0.00000000000E+00 -0.47600970148E+02  0.47600970148E+02  0.00000000000E+00 0.  1.
          6    1    1    2  501    0  0.14067789358E+02 -0.32189485651E+02  0.93918348295E+03  0.95544946508E+03  0.17200000000E+03 0.  1.
         -6    1    1    2    0  503 -0.14067789358E+02  0.32189485651E+02  0.15574131718E+03  0.23467727534E+03  0.17200000000E+03 0.  1.
</event>
<event>
 4    1  0.4487206E+000  0.4014189E+03  0.7818608E-02  0.1043289E+00
         21   -1    0    0  501  502  0.00000000000E+00  0.00000000000E+00  0.23849405629E+04  0.23849405629E+04  0.00000000000E+00 0.  1.
         21   -1    0    0  502  503 -0.00000000000E+00 -0.00000000000E+00 -0.68949001652E+02  0.68949001652E+02  0.00000000000E+00 0. -1.
          6    1    1    2  501    0 -0.35319213867E+03  0.82513215790E+02  0.13318642604E+04  0.13910426039E+04  0.17200000000E+03 0. -1.
         -6    1    1    2    0  503  0.35319213867E+03 -0.82513215790E+02  0.98412730080E+03  0.10628469607E+04  0.17200000000E+03 0. -1.
</event>
<event>
 4    1  0.4487206E+000  0.2069728E+03  0.7818608E-02  0.1143986E+00
         21   -1    0    0  501  502  0.00000000000E+00  0.00000000000E+00  0.70367590777E+03  0.70367590777E+03  0.00000000000E+00 0.  1.
         21   -1    0    0  502  503 -0.00000000000E+00 -0.00000000000E+00 -0.74790237548E+02  0.74790237548E+02  0.00000000000E+00 0.  1.
          6    1    1    2  501    0 -0.99551161135E+02  0.57821337300E+02  0.48232323395E+03  0.52485563991E+03  0.17200000000E+03 0.  1.
         -6    1    1    2    0  503  0.99551161135E+02 -0.57821337300E+02  0.14656243627E+03  0.25361050541E+03  0.17200000000E+03 0.  1.
</event>
<event>
 4    1  0.4487206E+000  0.2143296E+03  0.7818608E-02  0.1138183E+00
         21   -1    0    0  503  502  0.00000000000E+00  0.00000000000E+00  0.39637531162E+02  0.39637531162E+02  0.00000000000E+00 0.  1.
         21   -1    0    0  501  503 -0.00000000000E+00 -0.00000000000E+00 -0.14269055918E+04  0.14269055918E+04  0.00000000000E+00 0.  1.
          6    1    1    2  501    0 -0.10821049822E+03  0.68144541611E+02 -0.10114044608E+04  0.10338646787E+04  0.17200000000E+03 0.  1.
         -6    1    1    2    0  502  0.10821049822E+03 -0.68144541611E+02 -0.37586359988E+03  0.43267844433E+03  0.17200000000E+03 0.  1.
</event>
<event>
 4    1  0.4487206E+000  0.1793181E+03  0.7818608E-02  0.1168465E+00
         21   -1    0    0  503  502  0.00000000000E+00  0.00000000000E+00  0.13134923678E+03  0.13134923678E+03  0.00000000000E+00 0.  1.
         21   -1    0    0  501  503 -0.00000000000E+00 -0.00000000000E+00 -0.35375525708E+03  0.35375525708E+03  0.00000000000E+00 0.  1.
          6    1    1    2  501    0 -0.59565195544E+01  0.50353701837E+02 -0.24580999415E+03  0.30426555611E+03  0.17200000000E+03 0.  1.
         -6    1    1    2    0  502  0.59565195544E+01 -0.50353701837E+02  0.23403973842E+02  0.18083893775E+03  0.17200000000E+03 0.  1.
</event>
<event>
 4    1  0.4487206E+000  0.2292710E+03  0.7818608E-02  0.1127154E+00
         21   -1    0    0  503  502  0.00000000000E+00  0.00000000000E+00  0.59409161908E+03  0.59409161908E+03  0.00000000000E+00 0.  1.
         21   -1    0    0  501  503 -0.00000000000E+00 -0.00000000000E+00 -0.16729628414E+03  0.16729628414E+03  0.00000000000E+00 0.  1.
          6    1    1    2  501    0 -0.13437737025E+03  0.70170591057E+02 -0.47903276612E+02  0.23422193193E+03  0.17200000000E+03 0.  1.
         -6    1    1    2    0  502  0.13437737025E+03 -0.70170591057E+02  0.47469861155E+03  0.52716597129E+03  0.17200000000E+03 0.  1.
</event>
<event>
 4    1  0.4487206E+000  0.1790304E+03  0.7818608E-02  0.1168745E+00
         21   -1    0    0  503  502  0.00000000000E+00  0.00000000000E+00  0.41275711577E+03  0.41275711577E+03  0.00000000000E+00 0.  1.
         21   -1    0    0  501  503 -0.00000000000E+00 -0.00000000000E+00 -0.84769223653E+02  0.84769223653E+02  0.00000000000E+00 0.  1.
          6    1    1    2  501    0  0.42569905899E+02  0.25606146945E+02  0.91918295754E+02  0.20124821675E+03  0.17200000000E+03 0.  1.
         -6    1    1    2    0  502 -0.42569905899E+02 -0.25606146945E+02  0.23606959636E+03  0.29627812268E+03  0.17200000000E+03 0.  1.
</event>
<event>
 4    1  0.4487206E+000  0.1794369E+03  0.7818608E-02  0.1168349E+00
         21   -1    0    0  501  502  0.00000000000E+00  0.00000000000E+00  0.55149325741E+03  0.55149325741E+03  0.00000000000E+00 0.  1.
         21   -1    0    0  502  503 -0.00000000000E+00 -0.00000000000E+00 -0.93006919504E+03  0.93006919504E+03  0.00000000000E+00 0.  1.
          6    1    1    2  501    0  0.29713689044E+02 -0.41601853309E+02  0.52786618407E+03  0.55753056042E+03  0.17200000000E+03 0.  1.
         -6    1    1    2    0  503 -0.29713689044E+02  0.41601853309E+02 -0.90644212169E+03  0.92403189203E+03  0.17200000000E+03 0.  1.
</event>
<event>
 4    1  0.4487206E+000  0.1855030E+03  0.7818608E-02  0.1162581E+00
         21   -1    0    0  501  502  0.00000000000E+00  0.00000000000E+00  0.19135643779E+03  0.19135643779E+03  0.00000000000E+00 0.  1.
         21   -1    0    0  502  503 -0.00000000000E+00 -0.00000000000E+00 -0.39462461838E+03  0.39462461838E+03  0.00000000000E+00 0.  1.
          6    1    1    2  501    0  0.13026757013E+00 -0.69479037806E+02  0.11452556620E+03  0.21800793329E+03  0.17200000000E+03 0.  1.
         -6    1    1    2    0  503 -0.13026757013E+00  0.69479037806E+02 -0.31779374679E+03  0.36797312288E+03  0.17200000000E+03 0.  1.
</event>
<event>
 4    1  0.4487206E+000  0.1814907E+03  0.7818608E-02  0.1166368E+00
         21   -1    0    0  503  502  0.00000000000E+00  0.00000000000E+00  0.32154167647E+03  0.32154167647E+03  0.00000000000E+00 0. -1.
         21   -1    0    0  501  503 -0.00000000000E+00 -0.00000000000E+00 -0.23932945421E+03  0.23932945421E+03  0.00000000000E+00 0. -1.
          6    1    1    2  501    0 -0.49614207302E+02 -0.29888413776E+02  0.25319564348E+03  0.31152354762E+03  0.17200000000E+03 0. -1.
         -6    1    1    2    0  502  0.49614207302E+02  0.29888413776E+02 -0.17098342122E+03  0.24934758305E+03  0.17200000000E+03 0. -1.
</event>
<event>
 4    1  0.4487206E+000  0.2906688E+03  0.7818608E-02  0.1090000E+00
         21   -1    0    0  501  502  0.00000000000E+00  0.00000000000E+00  0.29822386889E+03  0.29822386889E+03  0.00000000000E+00 0.  1.
         21   -1    0    0  502  503 -0.00000000000E+00 -0.00000000000E+00 -0.56973707316E+03  0.56973707316E+03  0.00000000000E+00 0. -1.
          6    1    1    2  501    0 -0.15134688025E+03 -0.17888110990E+03  0.17195489842E+03  0.33772298816E+03  0.17200000000E+03 0.  1.
         -6    1    1    2    0  503  0.15134688025E+03  0.17888110990E+03 -0.44346810269E+03  0.53023795389E+03  0.17200000000E+03 0. -1.
</event>
<event>
 4    1  0.4487206E+000  0.1734062E+03  0.7818608E-02  0.1174342E+00
         21   -1    0    0  501  502  0.00000000000E+00  0.00000000000E+00  0.38839471953E+02  0.38839471953E+02  0.00000000000E+00 0. -1.
         21   -1    0    0  502  503 -0.00000000000E+00 -0.00000000000E+00 -0.77500801452E+03  0.77500801452E+03  0.00000000000E+00 0. -1.
          6    1    1    2  501    0  0.45619029416E+01  0.21561396212E+02 -0.35498395956E+03  0.39507381122E+03  0.17200000000E+03 0.  1.
         -6    1    1    2    0  503 -0.45619029416E+01 -0.21561396212E+02 -0.38118458301E+03  0.41877367526E+03  0.17200000000E+03 0.  1.
</event>
<event>
 4    1  0.4487206E+000  0.2173008E+03  0.7818608E-02  0.1135912E+00
         21   -1    0    0  503  502  0.00000000000E+00  0.00000000000E+00  0.24272762418E+03  0.24272762418E+03  0.00000000000E+00 0.  1.
         21   -1    0    0  501  503 -0.00000000000E+00 -0.00000000000E+00 -0.21079854801E+03  0.21079854801E+03  0.00000000000E+00 0. -1.
          6    1    1    2  501    0 -0.36395721374E+02  0.12771451893E+03 -0.47016762391E+02  0.22232908677E+03  0.17200000000E+03 0. -1.
         -6    1    1    2    0  502  0.36395721374E+02 -0.12771451893E+03  0.78945838555E+02  0.23119708542E+03  0.17200000000E+03 0.  1.
</event>
<event>
 4    1  0.4487206E+000  0.2694398E+03  0.7818608E-02  0.1101601E+00
         21   -1    0    0  501  502  0.00000000000E+00  0.00000000000E+00  0.79725263833E+03  0.79725263833E+03  0.00000000000E+00 0. -1.
         21   -1    0    0  502  503 -0.00000000000E+00 -0.00000000000E+00 -0.18950858262E+03  0.18950858262E+03  0.00000000000E+00 0.  1.
          6    1    1    2  501    0 -0.15015790338E+03  0.14306082043E+03 -0.51736736348E+02  0.27436195833E+03  0.17200000000E+03 0.  1.
         -6    1    1    2    0  503  0.15015790338E+03 -0.14306082043E+03  0.65948079206E+03  0.71239926262E+03  0.17200000000E+03 0. -1.
</event>
<event>
 4    1  0.4487206E+000  0.1782256E+03  0.7818608E-02  0.1169531E+00
         21   -1    0    0  501  502  0.00000000000E+00  0.00000000000E+00  0.35065175408E+03  0.35065175408E+03  0.00000000000E+00 0.  1.
         21   -1    0    0  502  503 -0.00000000000E+00 -0.00000000000E+00 -0.14166157229E+03  0.14166157229E+03  0.00000000000E+00 0. -1.
          6    1    1    2  501    0  0.46552682404E+02 -0.36354301991E+01  0.25230018898E+03  0.30890088046E+03  0.17200000000E+03 0.  1.
         -6    1    1    2    0  503 -0.46552682404E+02  0.36354301991E+01 -0.43310007190E+02  0.18341244591E+03  0.17200000000E+03 0. -1.
</event>
<event>
 4    1  0.4487206E+000  0.2622054E+03  0.7818608E-02  0.1105825E+00
         21   -1    0    0  503  502  0.00000000000E+00  0.00000000000E+00  0.11664609689E+03  0.11664609689E+03  0.00000000000E+00 0.  1.
         21   -1    0    0  501  503 -0.00000000000E+00 -0.00000000000E+00 -0.60827887227E+03  0.60827887227E+03  0.00000000000E+00 0. -1.
          6    1    1    2  501    0 -0.12592913563E+03  0.15267462524E+03 -0.30966515168E+03  0.40576371764E+03  0.17200000000E+03 0.  1.
         -6    1    1    2    0  502  0.12592913563E+03 -0.15267462524E+03 -0.18196762370E+03  0.31916125151E+03  0.17200000000E+03 0. -1.
</event>
<event>
 4    1  0.4487206E+000  0.1769473E+03  0.7818608E-02  0.1170791E+00
         21   -1    0    0  503  502  0.00000000000E+00  0.00000000000E+00  0.25785924941E+02  0.25785924941E+02  0.00000000000E+00 0. -1.
         21   -1    0    0  501  503 -0.00000000000E+00 -0.00000000000E+00 -0.23110192357E+04  0.23110192357E+04  0.00000000000E+00 0. -1.
          6    1    1    2  501    0 -0.88198308916E+01 -0.40602278611E+02 -0.19475317729E+04  0.19555537172E+04  0.17200000000E+03 0. -1.
         -6    1    1    2    0  502  0.88198308916E+01  0.40602278611E+02 -0.33770153787E+03  0.38125144344E+03  0.17200000000E+03 0. -1.
</event>
<event>
 4    1  0.4487206E+000  0.3498882E+03  0.7818608E-02  0.1062661E+00
         21   -1    0    0  501  502  0.00000000000E+00  0.00000000000E+00  0.52881556525E+03  0.52881556525E+03  0.00000000000E+00 0. -1.
         21   -1    0    0  502  503 -0.00000000000E+00 -0.00000000000E+00 -0.45975713351E+03  0.45975713351E+03  0.00000000000E+00 0.  1.
          6    1    1    2  501    0 -0.29513689552E+03 -0.75709679767E+02  0.38280627471E+03  0.51861583727E+03  0.17200000000E+03 0. -1.
         -6    1    1    2    0  503  0.29513689552E+03  0.75709679767E+02 -0.31374784297E+03  0.46995686150E+03  0.17200000000E+03 0.  1.
</event>
<event>
 4    1  0.4487206E+000  0.2162445E+03  0.7818608E-02  0.1136714E+00
         21   -1    0    0  503  502  0.00000000000E+00  0.00000000000E+00  0.36983494382E+03  0.36983494382E+03  0.00000000000E+00 0. -1.
         21   -1    0    0  501  503 -0.00000000000E+00 -0.00000000000E+00 -0.14834730917E+03  0.14834730917E+03  0.00000000000E+00 0. -1.
          6    1    1    2  501    0  0.32633885098E+02  0.12693578266E+03  0.11177057299E+02  0.21653311522E+03  0.17200000000E+03 0. -1.
         -6    1    1    2    0  502 -0.32633885098E+02 -0.12693578266E+03  0.21031057734E+03  0.30164913777E+03  0.17200000000E+03 0. -1.
</event>
<event>
 4    1  0.4487206E+000  0.1855260E+03  0.7818608E-02  0.1162560E+00
         21   -1    0    0  501  502  0.00000000000E+00  0.00000000000E+00  0.20202595291E+03  0.20202595291E+03  0.00000000000E+00 0. -1.
         21   -1    0    0  502  503 -0.00000000000E+00 -0.00000000000E+00 -0.20526881433E+03  0.20526881433E+03  0.00000000000E+00 0. -1.
          6    1    1    2  501    0 -0.62901494567E+02 -0.29652713442E+02  0.82343998574E+02  0.20297885489E+03  0.17200000000E+03 0. -1.
         -6    1    1    2    0  503  0.62901494567E+02  0.29652713442E+02 -0.85586859988E+02  0.20431591234E+03  0.17200000000E+03 0. -1.
</event>
<event>
 4    1  0.4487206E+000  0.1735361E+03  0.7818608E-02  0.1174210E+00
         21   -1    0    0  503  502  0.00000000000E+00  0.00000000000E+00  0.17057663696E+04  0.17057663696E+04  0.00000000000E+00 0. -1.
         21   -1    0    0  501  503 -0.00000000000E+00 -0.00000000000E+00 -0.24726773646E+02  0.24726773646E+02  0.00000000000E+00 0. -1.
          6    1    1    2  501    0 -0.21976871024E+02 -0.69146190508E+01  0.37778780793E+03  0.41573840650E+03  0.17200000000E+03 0. -1.
         -6    1    1    2    0  502  0.21976871024E+02  0.69146190508E+01  0.13032517881E+04  0.13147547368E+04  0.17200000000E+03 0. -1.
</event>
<event>
 4    1  0.4487206E+000  0.1763930E+03  0.7818608E-02  0.1171340E+00
         21   -1    0    0  503  502  0.00000000000E+00  0.00000000000E+00  0.93808239040E+02  0.93808239040E+02  0.00000000000E+00 0.  1.
         21   -1    0    0  501  503 -0.00000000000E+00 -0.00000000000E+00 -0.14536364129E+04  0.14536364129E+04  0.00000000000E+00 0.  1.
          6    1    1    2  501    0  0.47484853882E+01  0.38832143216E+02 -0.13596573010E+04  0.13710515890E+04  0.17200000000E+03 0.  1.
         -6    1    1    2    0  502 -0.47484853882E+01 -0.38832143216E+02 -0.17087284414E+00  0.17639306295E+03  0.17200000000E+03 0.  1.
</event>
<event>
 4    1  0.4487206E+000  0.2209222E+03  0.7818608E-02  0.1133197E+00
         21   -1    0    0  501  502  0.00000000000E+00  0.00000000000E+00  0.36010642198E+02  0.36010642198E+02  0.00000000000E+00 0. -1.
         21   -1    0    0  502  503 -0.00000000000E+00 -0.00000000000E+00 -0.16688629784E+04  0.16688629784E+04  0.00000000000E+00 0.  1.
          6    1    1    2  501    0 -0.31642082713E+02  0.13498673678E+03 -0.44694952328E+03  0.49856846758E+03  0.17200000000E+03 0. -1.
         -6    1    1    2    0  503  0.31642082713E+02 -0.13498673678E+03 -0.11859028129E+04  0.12063051530E+04  0.17200000000E+03 0.  1.
</event>
<event>
 4    1  0.4487206E+000  0.2076471E+03  0.7818608E-02  0.1143443E+00
         21   -1    0    0  501  502  0.00000000000E+00  0.00000000000E+00  0.10346743704E+04  0.10346743704E+04  0.00000000000E+00 0.  1.
         21   -1    0    0  502  503 -0.00000000000E+00 -0.00000000000E+00 -0.74735220354E+02  0.74735220354E+02  0.00000000000E+00 0.  1.
          6    1    1    2  501    0 -0.10714405281E+03  0.45315168211E+02  0.84892129361E+03  0.87394775317E+03  0.17200000000E+03 0.  1.
         -6    1    1    2    0  503  0.10714405281E+03 -0.45315168211E+02  0.11101785648E+03  0.23546183763E+03  0.17200000000E+03 0.  1.
</event>
<event>
 4    1  0.4487206E+000  0.2296306E+03  0.7818608E-02  0.1126900E+00
         21   -1    0    0  503  502  0.00000000000E+00  0.00000000000E+00  0.19564329751E+03  0.19564329751E+03  0.00000000000E+00 0. -1.
         21   -1    0    0  501  503 -0.00000000000E+00 -0.00000000000E+00 -0.40770365883E+03  0.40770365883E+03  0.00000000000E+00 0. -1.
          6    1    1    2  501    0 -0.15141575592E+03  0.14815119077E+02 -0.28165652318E+03  0.36340145286E+03  0.17200000000E+03 0. -1.
         -6    1    1    2    0  502  0.15141575592E+03 -0.14815119077E+02  0.69596161851E+02  0.23994550348E+03  0.17200000000E+03 0. -1.
</event>
<event>
 4    1  0.4487206E+000  0.4544175E+03  0.7818608E-02  0.1026413E+00
         21   -1    0    0  501  502  0.00000000000E+00  0.00000000000E+00  0.12838930771E+04  0.12838930771E+04  0.00000000000E+00 0.  1.
         21   -1    0    0  502  503 -0.00000000000E+00 -0.00000000000E+00 -0.16189514075E+03  0.16189514075E+03  0.00000000000E+00 0. -1.
          6    1    1    2  501    0  0.21022610538E+03 -0.36430241453E+03  0.50250807751E+03  0.67750249636E+03  0.17200000000E+03 0. -1.
         -6    1    1    2    0  503 -0.21022610538E+03  0.36430241453E+03  0.61948985881E+03  0.76828572145E+03  0.17200000000E+03 0.  1.
</event>
<event>
 4    1  0.4487206E+000  0.2413180E+03  0.7818608E-02  0.1118918E+00
         21   -1    0    0  503  502  0.00000000000E+00  0.00000000000E+00  0.53255506261E+03  0.53255506261E+03  0.00000000000E+00 0.  1.
         21   -1    0    0  501  503 -0.00000000000E+00 -0.00000000000E+00 -0.10953615643E+03  0.10953615643E+03  0.00000000000E+00 0. -1.
          6    1    1    2  501    0 -0.72877428341E+02 -0.15277196307E+03  0.19824077127E+03  0.31230401159E+03  0.17200000000E+03 0.  1.
         -6    1    1    2    0  502  0.72877428341E+02  0.15277196307E+03  0.22477813491E+03  0.32978720745E+03  0.17200000000E+03 0.  1.
</event>
