<event>
 4    1  0.4319182E+000  0.1943405E+03  0.7546771E-02  0.1154604E+00
         21   -1    0    0  501  502  0.00000000000E+00  0.00000000000E+00  0.39202888248E+03  0.39202888248E+03  0.00000000000E+00 0.  1.
         21   -1    0    0  502  503 -0.00000000000E+00 -0.00000000000E+00 -0.17624157620E+03  0.17624157620E+03  0.00000000000E+00 0.  1.
          6    1    1    2  501    0 -0.41493585091E+02 -0.78214406631E+02 -0.83420695850E+02  0.21148811670E+03  0.17300000000E+03 0.  1.
         -6    1    1    2    0  503  0.41493585091E+02  0.78214406631E+02  0.29920800213E+03  0.35678234198E+03  0.17300000000E+03 0.  1.
<mgrwt>
<rscale>  2 0.19434045E+03</rscale>
<asrwt>0</asrwt>
<pdfrwt beam="1">  1       21 0.60312135E-01 0.19434045E+03</pdfrwt>
<pdfrwt beam="2">  1       21 0.27114089E-01 0.19434045E+03</pdfrwt>
<totfact> 0.33190451E+04</totfact>
</mgrwt>
</event>
<event>
 4    1  0.4319182E+000  0.1855743E+03  0.7546771E-02  0.1162515E+00
         21   -1    0    0  501  502  0.00000000000E+00  0.00000000000E+00  0.84603313702E+03  0.84603313702E+03  0.00000000000E+00 0. -1.
         21   -1    0    0  502  503 -0.00000000000E+00 -0.00000000000E+00 -0.42342200668E+02  0.42342200668E+02  0.00000000000E+00 0. -1.
          6    1    1    2  501    0 -0.66649531361E+02  0.81653134644E+01  0.48918731064E+03  0.52320364798E+03  0.17300000000E+03 0. -1.
         -6    1    1    2    0  503  0.66649531361E+02 -0.81653134644E+01  0.31450362572E+03  0.36517168971E+03  0.17300000000E+03 0. -1.
<mgrwt>
<rscale>  2 0.18557433E+03</rscale>
<asrwt>0</asrwt>
<pdfrwt beam="1">  1       21 0.13015893E+00 0.18557433E+03</pdfrwt>
<pdfrwt beam="2">  1       21 0.65141853E-02 0.18557433E+03</pdfrwt>
<totfact> 0.74038793E+04</totfact>
</mgrwt>
</event>
<event>
 4    1  0.4319182E+000  0.1869931E+03  0.7546771E-02  0.1161202E+00
         21   -1    0    0  501  502  0.00000000000E+00  0.00000000000E+00  0.91122738558E+03  0.91122738558E+03  0.00000000000E+00 0.  1.
         21   -1    0    0  502  503 -0.00000000000E+00 -0.00000000000E+00 -0.50884495797E+02  0.50884495797E+02  0.00000000000E+00 0. -1.
          6    1    1    2  501    0 -0.24244386100E+02 -0.66705675692E+02  0.66871033579E+03  0.69436298189E+03  0.17300000000E+03 0. -1.
         -6    1    1    2    0  503  0.24244386100E+02  0.66705675692E+02  0.19163255399E+03  0.26774889949E+03  0.17300000000E+03 0. -1.
<mgrwt>
<rscale>  2 0.18699315E+03</rscale>
<asrwt>0</asrwt>
<pdfrwt beam="1">  1       21 0.14018882E+00 0.18699315E+03</pdfrwt>
<pdfrwt beam="2">  1       21 0.78283846E-02 0.18699315E+03</pdfrwt>
<totfact> 0.44576316E+04</totfact>
</mgrwt>
</event>
<event>
 4    1  0.4319182E+000  0.1889426E+03  0.7546771E-02  0.1159419E+00
         21   -1    0    0  501  502  0.00000000000E+00  0.00000000000E+00  0.76644805058E+02  0.76644805058E+02  0.00000000000E+00 0.  1.
         21   -1    0    0  502  503 -0.00000000000E+00 -0.00000000000E+00 -0.89345681255E+03  0.89345681255E+03  0.00000000000E+00 0.  1.
          6    1    1    2  501    0 -0.75820154919E+02  0.46481555833E+01 -0.72814932983E+02  0.20248781620E+03  0.17300000000E+03 0.  1.
         -6    1    1    2    0  503  0.75820154919E+02 -0.46481555833E+01 -0.74399707451E+03  0.76761380141E+03  0.17300000000E+03 0.  1.
<mgrwt>
<rscale>  2 0.18894259E+03</rscale>
<asrwt>0</asrwt>
<pdfrwt beam="1">  1       21 0.11791509E-01 0.18894259E+03</pdfrwt>
<pdfrwt beam="2">  1       21 0.13745489E+00 0.18894259E+03</pdfrwt>
<totfact> 0.22769933E+04</totfact>
</mgrwt>
</event>
<event>
 4    1  0.4319182E+000  0.1738364E+03  0.7546771E-02  0.1173905E+00
         21   -1    0    0  501  502  0.00000000000E+00  0.00000000000E+00  0.18233821776E+03  0.18233821776E+03  0.00000000000E+00 0. -1.
         21   -1    0    0  502  503 -0.00000000000E+00 -0.00000000000E+00 -0.25038597952E+03  0.25038597952E+03  0.00000000000E+00 0. -1.
          6    1    1    2  501    0 -0.13655354439E+02 -0.10179157120E+02  0.91782478368E+02  0.19657850157E+03  0.17300000000E+03 0. -1.
         -6    1    1    2    0  503  0.13655354439E+02  0.10179157120E+02 -0.15983024012E+03  0.23614569571E+03  0.17300000000E+03 0. -1.
<mgrwt>
<rscale>  2 0.17383637E+03</rscale>
<asrwt>0</asrwt>
<pdfrwt beam="1">  1       21 0.28052034E-01 0.17383637E+03</pdfrwt>
<pdfrwt beam="2">  1       21 0.38520920E-01 0.17383637E+03</pdfrwt>
<totfact> 0.79505325E+04</totfact>
</mgrwt>
</event>
<event>
 4    1  0.4319182E+000  0.1955944E+03  0.7546771E-02  0.1153510E+00
         21   -1    0    0  501  502  0.00000000000E+00  0.00000000000E+00  0.22695795905E+03  0.22695795905E+03  0.00000000000E+00 0.  1.
         21   -1    0    0  502  503 -0.00000000000E+00 -0.00000000000E+00 -0.23796560549E+03  0.23796560549E+03  0.00000000000E+00 0. -1.
          6    1    1    2  501    0  0.81353106125E+02 -0.41350464183E+02  0.12003435340E+03  0.22948950904E+03  0.17300000000E+03 0.  1.
         -6    1    1    2    0  503 -0.81353106125E+02  0.41350464183E+02 -0.13104199984E+03  0.23543405549E+03  0.17300000000E+03 0. -1.
<mgrwt>
<rscale>  2 0.19559445E+03</rscale>
<asrwt>0</asrwt>
<pdfrwt beam="1">  1       21 0.34916609E-01 0.19559445E+03</pdfrwt>
<pdfrwt beam="2">  1       21 0.36610093E-01 0.19559445E+03</pdfrwt>
<totfact> 0.56816420E+04</totfact>
</mgrwt>
</event>
<event>
 4    1  0.4319182E+000  0.1900375E+03  0.7546771E-02  0.1158428E+00
         21   -1    0    0  503  502  0.00000000000E+00  0.00000000000E+00  0.22331375556E+03  0.22331375556E+03  0.00000000000E+00 0. -1.
         21   -1    0    0  501  503 -0.00000000000E+00 -0.00000000000E+00 -0.16185235949E+03  0.16185235949E+03  0.00000000000E+00 0.  1.
          6    1    1    2  501    0 -0.47738674267E-01  0.78646388115E+02  0.36242053486E+02  0.19346251080E+03  0.17300000000E+03 0.  1.
         -6    1    1    2    0  502  0.47738674267E-01 -0.78646388115E+02  0.25219342582E+02  0.19170360425E+03  0.17300000000E+03 0.  1.
<mgrwt>
<rscale>  2 0.19003751E+03</rscale>
<asrwt>0</asrwt>
<pdfrwt beam="1">  1       21 0.34355962E-01 0.19003751E+03</pdfrwt>
<pdfrwt beam="2">  1       21 0.24900363E-01 0.19003751E+03</pdfrwt>
<totfact> 0.12472891E+05</totfact>
</mgrwt>
</event>
<event>
 4    1  0.4319182E+000  0.1975331E+03  0.7546771E-02  0.1151837E+00
         21   -1    0    0  503  502  0.00000000000E+00  0.00000000000E+00  0.18859588151E+04  0.18859588151E+04  0.00000000000E+00 0.  1.
         21   -1    0    0  501  503 -0.00000000000E+00 -0.00000000000E+00 -0.26385573245E+02  0.26385573245E+02  0.00000000000E+00 0.  1.
          6    1    1    2  501    0  0.88077022900E+02 -0.36507266918E+02  0.48551894391E+03  0.52416408442E+03  0.17300000000E+03 0.  1.
         -6    1    1    2    0  502 -0.88077022900E+02  0.36507266918E+02  0.13740542979E+04  0.13881803039E+04  0.17300000000E+03 0.  1.
<mgrwt>
<rscale>  2 0.19753314E+03</rscale>
<asrwt>0</asrwt>
<pdfrwt beam="1">  1       21 0.29014740E+00 0.19753314E+03</pdfrwt>
<pdfrwt beam="2">  1       21 0.40593204E-02 0.19753314E+03</pdfrwt>
<totfact> 0.14797488E+04</totfact>
</mgrwt>
</event>
<event>
 4    1  0.4319182E+000  0.1954887E+03  0.7546771E-02  0.1153602E+00
         21   -1    0    0  501  502  0.00000000000E+00  0.00000000000E+00  0.26306624028E+03  0.26306624028E+03  0.00000000000E+00 0.  1.
         21   -1    0    0  502  503 -0.00000000000E+00 -0.00000000000E+00 -0.16553364362E+03  0.16553364362E+03  0.00000000000E+00 0.  1.
          6    1    1    2  501    0 -0.86718917174E+02  0.27688442495E+02  0.12374364004E+03  0.23136185704E+03  0.17300000000E+03 0. -1.
         -6    1    1    2    0  503  0.86718917174E+02 -0.27688442495E+02 -0.26211043376E+02  0.19723802686E+03  0.17300000000E+03 0. -1.
<mgrwt>
<rscale>  2 0.19548867E+03</rscale>
<asrwt>0</asrwt>
<pdfrwt beam="1">  1       21 0.40471729E-01 0.19548867E+03</pdfrwt>
<pdfrwt beam="2">  1       21 0.25466714E-01 0.19548867E+03</pdfrwt>
<totfact> 0.85905753E+04</totfact>
</mgrwt>
</event>
<event>
 4    1  0.4319182E+000  0.2556050E+03  0.7546771E-02  0.1109813E+00
         21   -1    0    0  503  502  0.00000000000E+00  0.00000000000E+00  0.87991053404E+03  0.87991053404E+03  0.00000000000E+00 0.  1.
         21   -1    0    0  501  503 -0.00000000000E+00 -0.00000000000E+00 -0.79084409463E+02  0.79084409463E+02  0.00000000000E+00 0.  1.
          6    1    1    2  501    0 -0.14633139535E+03  0.11828798526E+03  0.28186795759E+03  0.38050423157E+03  0.17300000000E+03 0.  1.
         -6    1    1    2    0  502  0.14633139535E+03 -0.11828798526E+03  0.51895816698E+03  0.57849071194E+03  0.17300000000E+03 0.  1.
<mgrwt>
<rscale>  2 0.25560502E+03</rscale>
<asrwt>0</asrwt>
<pdfrwt beam="1">  1       21 0.13537084E+00 0.25560502E+03</pdfrwt>
<pdfrwt beam="2">  1       21 0.12166833E-01 0.25560502E+03</pdfrwt>
<totfact> 0.21533285E+04</totfact>
</mgrwt>
</event>
<event>
 4    1  0.4319182E+000  0.5212928E+03  0.7546771E-02  0.1008366E+00
         21   -1    0    0  503  502  0.00000000000E+00  0.00000000000E+00  0.51845483021E+03  0.51845483021E+03  0.00000000000E+00 0. -1.
         21   -1    0    0  501  503 -0.00000000000E+00 -0.00000000000E+00 -0.20952223707E+04  0.20952223707E+04  0.00000000000E+00 0.  1.
          6    1    1    2  501    0  0.43536202414E+02 -0.48981813603E+03 -0.19200164809E+04  0.19895249419E+04  0.17300000000E+03 0.  1.
         -6    1    1    2    0  502 -0.43536202414E+02  0.48981813603E+03  0.34324894046E+03  0.62415225901E+03  0.17300000000E+03 0. -1.
<mgrwt>
<rscale>  2 0.52129282E+03</rscale>
<asrwt>0</asrwt>
<pdfrwt beam="1">  1       21 0.79762282E-01 0.52129282E+03</pdfrwt>
<pdfrwt beam="2">  1       21 0.32234190E+00 0.52129282E+03</pdfrwt>
<totfact> 0.25007817E+01</totfact>
</mgrwt>
</event>
<event>
 4    1  0.4319182E+000  0.2124177E+03  0.7546771E-02  0.1139666E+00
         21   -1    0    0  501  502  0.00000000000E+00  0.00000000000E+00  0.17340095724E+02  0.17340095724E+02  0.00000000000E+00 0.  1.
         21   -1    0    0  502  503 -0.00000000000E+00 -0.00000000000E+00 -0.26064058550E+04  0.26064058550E+04  0.00000000000E+00 0.  1.
          6    1    1    2  501    0  0.12319729455E+03  0.38337509534E+01 -0.12414291382E+04  0.12594711494E+04  0.17300000000E+03 0.  1.
         -6    1    1    2    0  503 -0.12319729455E+03 -0.38337509534E+01 -0.13476366210E+04  0.13642748013E+04  0.17300000000E+03 0.  1.
<mgrwt>
<rscale>  2 0.21241768E+03</rscale>
<asrwt>0</asrwt>
<pdfrwt beam="1">  1       21 0.26677061E-02 0.21241768E+03</pdfrwt>
<pdfrwt beam="2">  1       21 0.40098566E+00 0.21241768E+03</pdfrwt>
<totfact> 0.64339504E+03</totfact>
</mgrwt>
</event>
<event>
 4    1  0.4319182E+000  0.1898413E+03  0.7546771E-02  0.1158605E+00
         21   -1    0    0  503  502  0.00000000000E+00  0.00000000000E+00  0.11904822252E+04  0.11904822252E+04  0.00000000000E+00 0. -1.
         21   -1    0    0  501  503 -0.00000000000E+00 -0.00000000000E+00 -0.35998865821E+02  0.35998865821E+02  0.00000000000E+00 0. -1.
          6    1    1    2  501    0 -0.20732844637E+02  0.75371570725E+02  0.82180925426E+03  0.84345134709E+03  0.17300000000E+03 0. -1.
         -6    1    1    2    0  502  0.20732844637E+02 -0.75371570725E+02  0.33267410513E+03  0.38302974394E+03  0.17300000000E+03 0. -1.
<mgrwt>
<rscale>  2 0.18984131E+03</rscale>
<asrwt>0</asrwt>
<pdfrwt beam="1">  1       21 0.18315108E+00 0.18984131E+03</pdfrwt>
<pdfrwt beam="2">  1       21 0.55382880E-02 0.18984131E+03</pdfrwt>
<totfact> 0.39236684E+04</totfact>
</mgrwt>
</event>
<event>
 4    1  0.4319182E+000  0.2023543E+03  0.7546771E-02  0.1147768E+00
         21   -1    0    0  503  502  0.00000000000E+00  0.00000000000E+00  0.34685537012E+03  0.34685537012E+03  0.00000000000E+00 0. -1.
         21   -1    0    0  501  503 -0.00000000000E+00 -0.00000000000E+00 -0.28274658238E+03  0.28274658238E+03  0.00000000000E+00 0. -1.
          6    1    1    2  501    0 -0.34958850585E+02 -0.98975547492E+02 -0.20820250458E+03  0.29033698206E+03  0.17300000000E+03 0. -1.
         -6    1    1    2    0  502  0.34958850585E+02  0.98975547492E+02  0.27231129233E+03  0.33926497043E+03  0.17300000000E+03 0. -1.
<mgrwt>
<rscale>  2 0.20235434E+03</rscale>
<asrwt>0</asrwt>
<pdfrwt beam="1">  1       21 0.53362364E-01 0.20235434E+03</pdfrwt>
<pdfrwt beam="2">  1       21 0.43499474E-01 0.20235434E+03</pdfrwt>
<totfact> 0.16786120E+04</totfact>
</mgrwt>
</event>
<event>
 4    1  0.4319182E+000  0.1868694E+03  0.7546771E-02  0.1161316E+00
         21   -1    0    0  501  502  0.00000000000E+00  0.00000000000E+00  0.52462715428E+02  0.52462715428E+02  0.00000000000E+00 0. -1.
         21   -1    0    0  502  503 -0.00000000000E+00 -0.00000000000E+00 -0.10593163790E+04  0.10593163790E+04  0.00000000000E+00 0. -1.
          6    1    1    2  501    0 -0.30062656335E+02 -0.63932811101E+02 -0.16453815531E+03  0.24898387939E+03  0.17300000000E+03 0. -1.
         -6    1    1    2    0  503  0.30062656335E+02  0.63932811101E+02 -0.84231550824E+03  0.86279521502E+03  0.17300000000E+03 0. -1.
<mgrwt>
<rscale>  2 0.18686939E+03</rscale>
<asrwt>0</asrwt>
<pdfrwt beam="1">  1       21 0.80711876E-02 0.18686939E+03</pdfrwt>
<pdfrwt beam="2">  1       21 0.16297174E+00 0.18686939E+03</pdfrwt>
<totfact> 0.28403492E+04</totfact>
</mgrwt>
</event>
<event>
 4    1  0.4319182E+000  0.2136383E+03  0.7546771E-02  0.1138717E+00
         21   -1    0    0  501  502  0.00000000000E+00  0.00000000000E+00  0.13848031505E+03  0.13848031505E+03  0.00000000000E+00 0.  1.
         21   -1    0    0  502  503 -0.00000000000E+00 -0.00000000000E+00 -0.43637267059E+03  0.43637267059E+03  0.00000000000E+00 0.  1.
          6    1    1    2  501    0 -0.12403885156E+03 -0.18074257445E+02 -0.67609570519E+01  0.21374523625E+03  0.17300000000E+03 0.  1.
         -6    1    1    2    0  503  0.12403885156E+03  0.18074257445E+02 -0.29113139850E+03  0.36110774939E+03  0.17300000000E+03 0.  1.
<mgrwt>
<rscale>  2 0.21363828E+03</rscale>
<asrwt>0</asrwt>
<pdfrwt beam="1">  1       21 0.21304664E-01 0.21363828E+03</pdfrwt>
<pdfrwt beam="2">  1       21 0.67134257E-01 0.21363828E+03</pdfrwt>
<totfact> 0.41207731E+04</totfact>
</mgrwt>
</event>
<event>
 4    1  0.4319182E+000  0.1813078E+03  0.7546771E-02  0.1166543E+00
         21   -1    0    0  503  502  0.00000000000E+00  0.00000000000E+00  0.25289931998E+03  0.25289931998E+03  0.00000000000E+00 0. -1.
         21   -1    0    0  501  503 -0.00000000000E+00 -0.00000000000E+00 -0.32171041317E+03  0.32171041317E+03  0.00000000000E+00 0.  1.
          6    1    1    2  501    0 -0.54195365396E+02 -0.25285316272E+01 -0.25620112970E+03  0.31386549661E+03  0.17300000000E+03 0.  1.
         -6    1    1    2    0  502  0.54195365396E+02  0.25285316272E+01  0.18739003651E+03  0.26074423654E+03  0.17300000000E+03 0. -1.
<mgrwt>
<rscale>  2 0.18130784E+03</rscale>
<asrwt>0</asrwt>
<pdfrwt beam="1">  1       21 0.38907588E-01 0.18130784E+03</pdfrwt>
<pdfrwt beam="2">  1       21 0.49493910E-01 0.18130784E+03</pdfrwt>
<totfact> 0.24949109E+04</totfact>
</mgrwt>
</event>
<event>
 4    1  0.4319182E+000  0.2828404E+03  0.7546771E-02  0.1094148E+00
         21   -1    0    0  501  502  0.00000000000E+00  0.00000000000E+00  0.11366593135E+04  0.11366593135E+04  0.00000000000E+00 0. -1.
         21   -1    0    0  502  503 -0.00000000000E+00 -0.00000000000E+00 -0.70388512075E+02  0.70388512075E+02  0.00000000000E+00 0.  1.
          6    1    1    2  501    0  0.11109848177E+03 -0.19423392058E+03  0.52670979118E+03  0.59784771696E+03  0.17300000000E+03 0. -1.
         -6    1    1    2    0  503 -0.11109848177E+03  0.19423392058E+03  0.53956101022E+03  0.60920010858E+03  0.17300000000E+03 0.  1.
<mgrwt>
<rscale>  2 0.28284039E+03</rscale>
<asrwt>0</asrwt>
<pdfrwt beam="1">  1       21 0.17487065E+00 0.28284039E+03</pdfrwt>
<pdfrwt beam="2">  1       21 0.10829003E-01 0.28284039E+03</pdfrwt>
<totfact> 0.13120523E+04</totfact>
</mgrwt>
</event>
<event>
 4    1  0.4319182E+000  0.1899801E+03  0.7546771E-02  0.1158479E+00
         21   -1    0    0  503  502  0.00000000000E+00  0.00000000000E+00  0.45495870706E+02  0.45495870706E+02  0.00000000000E+00 0. -1.
         21   -1    0    0  501  503 -0.00000000000E+00 -0.00000000000E+00 -0.95508418291E+03  0.95508418291E+03  0.00000000000E+00 0. -1.
          6    1    1    2  501    0  0.76053881294E+02  0.19474412376E+02 -0.66069218640E+03  0.68746389779E+03  0.17300000000E+03 0. -1.
         -6    1    1    2    0  502 -0.76053881294E+02 -0.19474412376E+02 -0.24889612580E+03  0.31311615582E+03  0.17300000000E+03 0. -1.
<mgrwt>
<rscale>  2 0.18998012E+03</rscale>
<asrwt>0</asrwt>
<pdfrwt beam="1">  1       21 0.69993655E-02 0.18998012E+03</pdfrwt>
<pdfrwt beam="2">  1       21 0.14693601E+00 0.18998012E+03</pdfrwt>
<totfact> 0.47809823E+04</totfact>
</mgrwt>
</event>
<event>
 4    1  0.4319182E+000  0.4337133E+03  0.7546771E-02  0.1032693E+00
         21   -1    0    0  501  502  0.00000000000E+00  0.00000000000E+00  0.40077877459E+03  0.40077877459E+03  0.00000000000E+00 0.  1.
         21   -1    0    0  502  503 -0.00000000000E+00 -0.00000000000E+00 -0.87463594923E+03  0.87463594923E+03  0.00000000000E+00 0. -1.
          6    1    1    2  501    0  0.39681800410E+03  0.26715381529E+02  0.19716786874E+03  0.47642670838E+03  0.17300000000E+03 0.  1.
         -6    1    1    2    0  503 -0.39681800410E+03 -0.26715381529E+02 -0.67102504338E+03  0.79898801545E+03  0.17300000000E+03 0. -1.
<mgrwt>
<rscale>  2 0.43371332E+03</rscale>
<asrwt>0</asrwt>
<pdfrwt beam="1">  1       21 0.61658274E-01 0.43371332E+03</pdfrwt>
<pdfrwt beam="2">  1       21 0.13455937E+00 0.43371332E+03</pdfrwt>
<totfact> 0.82234702E+02</totfact>
</mgrwt>
</event>
<event>
 4    1  0.4319182E+000  0.1732303E+03  0.7546771E-02  0.1174520E+00
         21   -1    0    0  503  502  0.00000000000E+00  0.00000000000E+00  0.20761661347E+02  0.20761661347E+02  0.00000000000E+00 0. -1.
         21   -1    0    0  501  503 -0.00000000000E+00 -0.00000000000E+00 -0.22980005641E+04  0.22980005641E+04  0.00000000000E+00 0. -1.
          6    1    1    2  501    0 -0.59124703104E+01 -0.66906944457E+01 -0.18448169965E+04  0.18529323985E+04  0.17300000000E+03 0. -1.
         -6    1    1    2    0  502  0.59124703104E+01  0.66906944457E+01 -0.43242190619E+03  0.46582982693E+03  0.17300000000E+03 0. -1.
<mgrwt>
<rscale>  2 0.17323026E+03</rscale>
<asrwt>0</asrwt>
<pdfrwt beam="1">  1       21 0.31941045E-02 0.17323026E+03</pdfrwt>
<pdfrwt beam="2">  1       21 0.35353825E+00 0.17323026E+03</pdfrwt>
<totfact> 0.97408852E+03</totfact>
</mgrwt>
</event>
<event>
 4    1  0.4319182E+000  0.2095363E+03  0.7546771E-02  0.1141934E+00
         21   -1    0    0  503  502  0.00000000000E+00  0.00000000000E+00  0.11576276920E+03  0.11576276920E+03  0.00000000000E+00 0.  1.
         21   -1    0    0  501  503 -0.00000000000E+00 -0.00000000000E+00 -0.40519377818E+03  0.40519377818E+03  0.00000000000E+00 0. -1.
          6    1    1    2  501    0  0.30368849309E+02 -0.11425504086E+03 -0.21059942522E+03  0.29708180569E+03  0.17300000000E+03 0. -1.
         -6    1    1    2    0  502 -0.30368849309E+02  0.11425504086E+03 -0.78831583762E+02  0.22387474169E+03  0.17300000000E+03 0. -1.
<mgrwt>
<rscale>  2 0.20953635E+03</rscale>
<asrwt>0</asrwt>
<pdfrwt beam="1">  1       21 0.17809657E-01 0.20953635E+03</pdfrwt>
<pdfrwt beam="2">  1       21 0.62337503E-01 0.20953635E+03</pdfrwt>
<totfact> 0.67810529E+04</totfact>
</mgrwt>
</event>
<event>
 4    1  0.4319182E+000  0.2013408E+03  0.7546771E-02  0.1148613E+00
         21   -1    0    0  501  502  0.00000000000E+00  0.00000000000E+00  0.14105346285E+03  0.14105346285E+03  0.00000000000E+00 0. -1.
         21   -1    0    0  502  503 -0.00000000000E+00 -0.00000000000E+00 -0.30631388693E+03  0.30631388693E+03  0.00000000000E+00 0.  1.
          6    1    1    2  501    0 -0.10141942605E+03  0.17978215900E+02 -0.13821988997E+03  0.24421886538E+03  0.17300000000E+03 0.  1.
         -6    1    1    2    0  503  0.10141942605E+03 -0.17978215900E+02 -0.27040534116E+02  0.20314848440E+03  0.17300000000E+03 0.  1.
<mgrwt>
<rscale>  2 0.20134080E+03</rscale>
<asrwt>0</asrwt>
<pdfrwt beam="1">  1       21 0.21700533E-01 0.20134080E+03</pdfrwt>
<pdfrwt beam="2">  1       21 0.47125213E-01 0.20134080E+03</pdfrwt>
<totfact> 0.85035794E+04</totfact>
</mgrwt>
</event>
<event>
 4    1  0.4319182E+000  0.2279162E+03  0.7546771E-02  0.1128115E+00
         21   -1    0    0  503  502  0.00000000000E+00  0.00000000000E+00  0.24930232598E+03  0.24930232598E+03  0.00000000000E+00 0.  1.
         21   -1    0    0  501  503 -0.00000000000E+00 -0.00000000000E+00 -0.22299948339E+03  0.22299948339E+03  0.00000000000E+00 0.  1.
          6    1    1    2  501    0 -0.13374125837E+03  0.64265667377E+02  0.73648037347E+02  0.23952000668E+03  0.17300000000E+03 0.  1.
         -6    1    1    2    0  502  0.13374125837E+03 -0.64265667377E+02 -0.47345194760E+02  0.23278180269E+03  0.17300000000E+03 0.  1.
<mgrwt>
<rscale>  2 0.22791621E+03</rscale>
<asrwt>0</asrwt>
<pdfrwt beam="1">  1       21 0.38354204E-01 0.22791621E+03</pdfrwt>
<pdfrwt beam="2">  1       21 0.34307613E-01 0.22791621E+03</pdfrwt>
<totfact> 0.52810020E+04</totfact>
</mgrwt>
</event>
<event>
 4    1  0.4319182E+000  0.1834500E+03  0.7546771E-02  0.1164505E+00
         21   -1    0    0  501  502  0.00000000000E+00  0.00000000000E+00  0.68242655122E+03  0.68242655122E+03  0.00000000000E+00 0. -1.
         21   -1    0    0  502  503 -0.00000000000E+00 -0.00000000000E+00 -0.49450820946E+02  0.49450820946E+02  0.00000000000E+00 0. -1.
          6    1    1    2  501    0 -0.58810816486E+02  0.16315871509E+02  0.29731542441E+03  0.34935709724E+03  0.17300000000E+03 0. -1.
         -6    1    1    2    0  503  0.58810816486E+02 -0.16315871509E+02  0.33566030587E+03  0.38252027494E+03  0.17300000000E+03 0. -1.
<mgrwt>
<rscale>  2 0.18345005E+03</rscale>
<asrwt>0</asrwt>
<pdfrwt beam="1">  1       21 0.10498869E+00 0.18345005E+03</pdfrwt>
<pdfrwt beam="2">  1       21 0.76078191E-02 0.18345005E+03</pdfrwt>
<totfact> 0.96074625E+04</totfact>
</mgrwt>
</event>
<event>
 4    1  0.4319182E+000  0.1799844E+03  0.7546771E-02  0.1167818E+00
         21   -1    0    0  503  502  0.00000000000E+00  0.00000000000E+00  0.19747597885E+04  0.19747597885E+04  0.00000000000E+00 0. -1.
         21   -1    0    0  501  503 -0.00000000000E+00 -0.00000000000E+00 -0.58435542650E+02  0.58435542650E+02  0.00000000000E+00 0. -1.
          6    1    1    2  501    0 -0.33756587193E+02  0.36412454667E+02  0.18203405422E+04  0.18292167896E+04  0.17300000000E+03 0. -1.
         -6    1    1    2    0  502  0.33756587193E+02 -0.36412454667E+02  0.95983703723E+02  0.20397854155E+03  0.17300000000E+03 0. -1.
<mgrwt>
<rscale>  2 0.17998437E+03</rscale>
<asrwt>0</asrwt>
<pdfrwt beam="1">  1       21 0.30380915E+00 0.17998437E+03</pdfrwt>
<pdfrwt beam="2">  1       21 0.89900850E-02 0.17998437E+03</pdfrwt>
<totfact> 0.32276684E+03</totfact>
</mgrwt>
</event>
<event>
 4    1  0.4319182E+000  0.1971672E+03  0.7546771E-02  0.1152151E+00
         21   -1    0    0  501  502  0.00000000000E+00  0.00000000000E+00  0.55592195590E+02  0.55592195590E+02  0.00000000000E+00 0.  1.
         21   -1    0    0  502  503 -0.00000000000E+00 -0.00000000000E+00 -0.69942237824E+03  0.69942237824E+03  0.00000000000E+00 0.  1.
          6    1    1    2  501    0  0.85394783690E+02  0.40665014728E+02 -0.31666750490E+03  0.37303246664E+03  0.17300000000E+03 0.  1.
         -6    1    1    2    0  503 -0.85394783690E+02 -0.40665014728E+02 -0.32716267775E+03  0.38198210720E+03  0.17300000000E+03 0.  1.
<mgrwt>
<rscale>  2 0.19716722E+03</rscale>
<asrwt>0</asrwt>
<pdfrwt beam="1">  1       21 0.85526453E-02 0.19716722E+03</pdfrwt>
<pdfrwt beam="2">  1       21 0.10760344E+00 0.19716722E+03</pdfrwt>
<totfact> 0.73409376E+04</totfact>
</mgrwt>
</event>
<event>
 4    1  0.4319182E+000  0.2000548E+03  0.7546771E-02  0.1149693E+00
         21   -1    0    0  501  502  0.00000000000E+00  0.00000000000E+00  0.32764617154E+03  0.32764617154E+03  0.00000000000E+00 0.  1.
         21   -1    0    0  502  503 -0.00000000000E+00 -0.00000000000E+00 -0.17568207677E+03  0.17568207677E+03  0.00000000000E+00 0.  1.
          6    1    1    2  501    0  0.10020293967E+03 -0.72319185499E+01  0.21490219853E+03  0.29360668368E+03  0.17300000000E+03 0.  1.
         -6    1    1    2    0  503 -0.10020293967E+03  0.72319185499E+01 -0.62938103759E+02  0.20972156463E+03  0.17300000000E+03 0.  1.
<mgrwt>
<rscale>  2 0.20005482E+03</rscale>
<asrwt>0</asrwt>
<pdfrwt beam="1">  1       21 0.50407103E-01 0.20005482E+03</pdfrwt>
<pdfrwt beam="2">  1       21 0.27028012E-01 0.20005482E+03</pdfrwt>
<totfact> 0.48688611E+04</totfact>
</mgrwt>
</event>
<event>
 4    1  0.4319182E+000  0.1853563E+03  0.7546771E-02  0.1162718E+00
         21   -1    0    0  503  502  0.00000000000E+00  0.00000000000E+00  0.10087747826E+04  0.10087747826E+04  0.00000000000E+00 0.  1.
         21   -1    0    0  501  503 -0.00000000000E+00 -0.00000000000E+00 -0.36067496363E+02  0.36067496363E+02  0.00000000000E+00 0. -1.
          6    1    1    2  501    0 -0.41600258923E+02 -0.51936115591E+02  0.36304409556E+03  0.40762477472E+03  0.17300000000E+03 0.  1.
         -6    1    1    2    0  502  0.41600258923E+02  0.51936115591E+02  0.60966319065E+03  0.63721750422E+03  0.17300000000E+03 0.  1.
<mgrwt>
<rscale>  2 0.18535626E+03</rscale>
<asrwt>0</asrwt>
<pdfrwt beam="1">  1       21 0.15519610E+00 0.18535626E+03</pdfrwt>
<pdfrwt beam="2">  1       21 0.55488464E-02 0.18535626E+03</pdfrwt>
<totfact> 0.61796767E+04</totfact>
</mgrwt>
</event>
<event>
 4    1  0.4319182E+000  0.2202786E+03  0.7546771E-02  0.1133676E+00
         21   -1    0    0  501  502  0.00000000000E+00  0.00000000000E+00  0.98664382875E+03  0.98664382875E+03  0.00000000000E+00 0.  1.
         21   -1    0    0  502  503 -0.00000000000E+00 -0.00000000000E+00 -0.53164309755E+02  0.53164309755E+02  0.00000000000E+00 0.  1.
          6    1    1    2  501    0 -0.12985313232E+03  0.41614985670E+02  0.60907659911E+03  0.64768583942E+03  0.17300000000E+03 0.  1.
         -6    1    1    2    0  503  0.12985313232E+03 -0.41614985670E+02  0.32440291989E+03  0.39212229908E+03  0.17300000000E+03 0.  1.
<mgrwt>
<rscale>  2 0.22027856E+03</rscale>
<asrwt>0</asrwt>
<pdfrwt beam="1">  1       21 0.15179134E+00 0.22027856E+03</pdfrwt>
<pdfrwt beam="2">  1       21 0.81791253E-02 0.22027856E+03</pdfrwt>
<totfact> 0.32898336E+04</totfact>
</mgrwt>
</event>
<event>
 4    1  0.4319182E+000  0.1850087E+03  0.7546771E-02  0.1163042E+00
         21   -1    0    0  503  502  0.00000000000E+00  0.00000000000E+00  0.42395374701E+02  0.42395374701E+02  0.00000000000E+00 0. -1.
         21   -1    0    0  501  503 -0.00000000000E+00 -0.00000000000E+00 -0.85821868071E+03  0.85821868071E+03  0.00000000000E+00 0.  1.
          6    1    1    2  501    0 -0.31487603281E+02 -0.57513189768E+02 -0.29828864607E+03  0.35100477566E+03  0.17300000000E+03 0.  1.
         -6    1    1    2    0  502  0.31487603281E+02  0.57513189768E+02 -0.51753465993E+03  0.54960927975E+03  0.17300000000E+03 0.  1.
<mgrwt>
<rscale>  2 0.18500875E+03</rscale>
<asrwt>0</asrwt>
<pdfrwt beam="1">  1       21 0.65223662E-02 0.18500875E+03</pdfrwt>
<pdfrwt beam="2">  1       21 0.13203363E+00 0.18500875E+03</pdfrwt>
<totfact> 0.71279636E+04</totfact>
</mgrwt>
</event>
<event>
 4    1  0.4319182E+000  0.2005082E+03  0.7546771E-02  0.1149311E+00
         21   -1    0    0  503  502  0.00000000000E+00  0.00000000000E+00  0.60184846386E+03  0.60184846386E+03  0.00000000000E+00 0. -1.
         21   -1    0    0  501  503 -0.00000000000E+00 -0.00000000000E+00 -0.68448983823E+02  0.68448983823E+02  0.00000000000E+00 0. -1.
          6    1    1    2  501    0  0.36587912301E+02  0.94529785881E+02  0.21468276182E+03  0.29375541521E+03  0.17300000000E+03 0. -1.
         -6    1    1    2    0  502 -0.36587912301E+02 -0.94529785881E+02  0.31871671822E+03  0.37654203247E+03  0.17300000000E+03 0. -1.
<mgrwt>
<rscale>  2 0.20050824E+03</rscale>
<asrwt>0</asrwt>
<pdfrwt beam="1">  1       21 0.92592068E-01 0.20050824E+03</pdfrwt>
<pdfrwt beam="2">  1       21 0.10530613E-01 0.20050824E+03</pdfrwt>
<totfact> 0.72568150E+04</totfact>
</mgrwt>
</event>
<event>
 4    1  0.4319182E+000  0.1753380E+03  0.7546771E-02  0.1172393E+00
         21   -1    0    0  501  502  0.00000000000E+00  0.00000000000E+00  0.37226595072E+03  0.37226595072E+03  0.00000000000E+00 0.  1.
         21   -1    0    0  502  503 -0.00000000000E+00 -0.00000000000E+00 -0.27471174240E+03  0.27471174240E+03  0.00000000000E+00 0.  1.
          6    1    1    2  501    0  0.28411889093E+02 -0.26780994168E+01  0.31930692395E+03  0.36428055032E+03  0.17300000000E+03 0.  1.
         -6    1    1    2    0  503 -0.28411889093E+02  0.26780994168E+01 -0.22175271563E+03  0.28269714280E+03  0.17300000000E+03 0.  1.
<mgrwt>
<rscale>  2 0.17533798E+03</rscale>
<asrwt>0</asrwt>
<pdfrwt beam="1">  1       21 0.57271685E-01 0.17533798E+03</pdfrwt>
<pdfrwt beam="2">  1       21 0.42263345E-01 0.17533798E+03</pdfrwt>
<totfact> 0.15591979E+04</totfact>
</mgrwt>
</event>
<event>
 4    1  0.4319182E+000  0.3664316E+03  0.7546771E-02  0.1056066E+00
         21   -1    0    0  503  502  0.00000000000E+00  0.00000000000E+00  0.31070443923E+03  0.31070443923E+03  0.00000000000E+00 0.  1.
         21   -1    0    0  501  503 -0.00000000000E+00 -0.00000000000E+00 -0.44380441352E+03  0.44380441352E+03  0.00000000000E+00 0. -1.
          6    1    1    2  501    0 -0.16483760303E+03 -0.27779797349E+03 -0.12767376838E+03  0.38803703506E+03  0.17300000000E+03 0. -1.
         -6    1    1    2    0  502  0.16483760303E+03  0.27779797349E+03 -0.54262059041E+01  0.36647181769E+03  0.17300000000E+03 0.  1.
<mgrwt>
<rscale>  2 0.36643164E+03</rscale>
<asrwt>0</asrwt>
<pdfrwt beam="1">  1       21 0.47800683E-01 0.36643164E+03</pdfrwt>
<pdfrwt beam="2">  1       21 0.68277602E-01 0.36643164E+03</pdfrwt>
<totfact> 0.74725883E+03</totfact>
</mgrwt>
</event>
<event>
 4    1  0.4319182E+000  0.1844351E+03  0.7546771E-02  0.1163578E+00
         21   -1    0    0  503  502  0.00000000000E+00  0.00000000000E+00  0.10056848447E+04  0.10056848447E+04  0.00000000000E+00 0.  1.
         21   -1    0    0  501  503 -0.00000000000E+00 -0.00000000000E+00 -0.75116139132E+02  0.75116139132E+02  0.00000000000E+00 0.  1.
          6    1    1    2  501    0  0.59711284471E+02 -0.22844321469E+02  0.64618147857E+02  0.19542723850E+03  0.17300000000E+03 0.  1.
         -6    1    1    2    0  502 -0.59711284471E+02  0.22844321469E+02  0.86595055768E+03  0.88537374530E+03  0.17300000000E+03 0.  1.
<mgrwt>
<rscale>  2 0.18443508E+03</rscale>
<asrwt>0</asrwt>
<pdfrwt beam="1">  1       21 0.15472074E+00 0.18443508E+03</pdfrwt>
<pdfrwt beam="2">  1       21 0.11556330E-01 0.18443508E+03</pdfrwt>
<totfact> 0.17385179E+04</totfact>
</mgrwt>
</event>
<event>
 4    1  0.4319182E+000  0.1943162E+03  0.7546771E-02  0.1154625E+00
         21   -1    0    0  503  502  0.00000000000E+00  0.00000000000E+00  0.90756648660E+02  0.90756648660E+02  0.00000000000E+00 0.  1.
         21   -1    0    0  501  503 -0.00000000000E+00 -0.00000000000E+00 -0.67566205763E+03  0.67566205763E+03  0.00000000000E+00 0.  1.
          6    1    1    2  501    0 -0.46038508630E+02 -0.75566232001E+02 -0.52999361082E+03  0.56449271670E+03  0.17300000000E+03 0.  1.
         -6    1    1    2    0  502  0.46038508630E+02  0.75566232001E+02 -0.54911798147E+02  0.20192598959E+03  0.17300000000E+03 0.  1.
<mgrwt>
<rscale>  2 0.19431624E+03</rscale>
<asrwt>0</asrwt>
<pdfrwt beam="1">  1       21 0.13962562E-01 0.19431624E+03</pdfrwt>
<pdfrwt beam="2">  1       21 0.10394800E+00 0.19431624E+03</pdfrwt>
<totfact> 0.33412246E+04</totfact>
</mgrwt>
</event>
<event>
 4    1  0.4319182E+000  0.1740032E+03  0.7546771E-02  0.1173736E+00
         21   -1    0    0  503  502  0.00000000000E+00  0.00000000000E+00  0.45177339167E+03  0.45177339167E+03  0.00000000000E+00 0. -1.
         21   -1    0    0  501  503 -0.00000000000E+00 -0.00000000000E+00 -0.11397923776E+03  0.11397923776E+03  0.00000000000E+00 0. -1.
          6    1    1    2  501    0 -0.17502839545E+02  0.64629830097E+01 -0.12676117799E+02  0.17446433304E+03  0.17300000000E+03 0. -1.
         -6    1    1    2    0  502  0.17502839545E+02 -0.64629830097E+01  0.35047027171E+03  0.39128829639E+03  0.17300000000E+03 0. -1.
<mgrwt>
<rscale>  2 0.17400322E+03</rscale>
<asrwt>0</asrwt>
<pdfrwt beam="1">  1       21 0.69503598E-01 0.17400322E+03</pdfrwt>
<pdfrwt beam="2">  1       21 0.17535268E-01 0.17400322E+03</pdfrwt>
<totfact> 0.55947077E+04</totfact>
</mgrwt>
</event>
<event>
 4    1  0.4319182E+000  0.1742762E+03  0.7546771E-02  0.1173460E+00
         21   -1    0    0  501  502  0.00000000000E+00  0.00000000000E+00  0.61175251587E+02  0.61175251587E+02  0.00000000000E+00 0.  1.
         21   -1    0    0  502  503 -0.00000000000E+00 -0.00000000000E+00 -0.55025296757E+03  0.55025296757E+03  0.00000000000E+00 0.  1.
          6    1    1    2  501    0 -0.20479564542E+02 -0.48754708166E+01 -0.14896848209E+03  0.22926794682E+03  0.17300000000E+03 0.  1.
         -6    1    1    2    0  503  0.20479564542E+02  0.48754708166E+01 -0.34010923388E+03  0.38216027234E+03  0.17300000000E+03 0.  1.
<mgrwt>
<rscale>  2 0.17427617E+03</rscale>
<asrwt>0</asrwt>
<pdfrwt beam="1">  1       21 0.94115773E-02 0.17427617E+03</pdfrwt>
<pdfrwt beam="2">  1       21 0.84654302E-01 0.17427617E+03</pdfrwt>
<totfact> 0.11000275E+05</totfact>
</mgrwt>
</event>
<event>
 4    1  0.4319182E+000  0.1850591E+03  0.7546771E-02  0.1162995E+00
         21   -1    0    0  501  502  0.00000000000E+00  0.00000000000E+00  0.49098865990E+03  0.49098865990E+03  0.00000000000E+00 0.  1.
         21   -1    0    0  502  503 -0.00000000000E+00 -0.00000000000E+00 -0.28697457572E+03  0.28697457572E+03  0.00000000000E+00 0.  1.
          6    1    1    2  501    0  0.22139967361E+02  0.61868328693E+02  0.44043093172E+03  0.47773033593E+03  0.17300000000E+03 0.  1.
         -6    1    1    2    0  503 -0.22139967361E+02 -0.61868328693E+02 -0.23641684755E+03  0.30023289969E+03  0.17300000000E+03 0.  1.
<mgrwt>
<rscale>  2 0.18505909E+03</rscale>
<asrwt>0</asrwt>
<pdfrwt beam="1">  1       21 0.75536717E-01 0.18505909E+03</pdfrwt>
<pdfrwt beam="2">  1       21 0.44149935E-01 0.18505909E+03</pdfrwt>
<totfact> 0.77534245E+03</totfact>
</mgrwt>
</event>
<event>
 4    1  0.4319182E+000  0.2025546E+03  0.7546771E-02  0.1147601E+00
         21   -1    0    0  503  502  0.00000000000E+00  0.00000000000E+00  0.35880637216E+03  0.35880637216E+03  0.00000000000E+00 0.  1.
         21   -1    0    0  501  503 -0.00000000000E+00 -0.00000000000E+00 -0.22889913925E+03  0.22889913925E+03  0.00000000000E+00 0. -1.
          6    1    1    2  501    0 -0.55018955266E+02  0.89845842155E+02 -0.14292492810E+03  0.24790299688E+03  0.17300000000E+03 0. -1.
         -6    1    1    2    0  502  0.55018955266E+02 -0.89845842155E+02  0.27283216101E+03  0.33980251452E+03  0.17300000000E+03 0.  1.
<mgrwt>
<rscale>  2 0.20255459E+03</rscale>
<asrwt>0</asrwt>
<pdfrwt beam="1">  1       21 0.55200980E-01 0.20255459E+03</pdfrwt>
<pdfrwt beam="2">  1       21 0.35215252E-01 0.20255459E+03</pdfrwt>
<totfact> 0.23924788E+04</totfact>
</mgrwt>
</event>
<event>
 4    1  0.4319182E+000  0.1814758E+03  0.7546771E-02  0.1166382E+00
         21   -1    0    0  501  502  0.00000000000E+00  0.00000000000E+00  0.19835059899E+03  0.19835059899E+03  0.00000000000E+00 0.  1.
         21   -1    0    0  502  503 -0.00000000000E+00 -0.00000000000E+00 -0.23440618531E+03  0.23440618531E+03  0.00000000000E+00 0. -1.
          6    1    1    2  501    0  0.40376961552E+02  0.37069649557E+02  0.98830851905E+02  0.20664219131E+03  0.17300000000E+03 0.  1.
         -6    1    1    2    0  503 -0.40376961552E+02 -0.37069649557E+02 -0.13488643823E+03  0.22611459298E+03  0.17300000000E+03 0. -1.
<mgrwt>
<rscale>  2 0.18147578E+03</rscale>
<asrwt>0</asrwt>
<pdfrwt beam="1">  1       21 0.30515477E-01 0.18147578E+03</pdfrwt>
<pdfrwt beam="2">  1       21 0.36062490E-01 0.18147578E+03</pdfrwt>
<totfact> 0.76784527E+04</totfact>
</mgrwt>
</event>
<event>
 4    1  0.4319182E+000  0.2698663E+03  0.7546771E-02  0.1101356E+00
         21   -1    0    0  503  502  0.00000000000E+00  0.00000000000E+00  0.14106280504E+04  0.14106280504E+04  0.00000000000E+00 0.  1.
         21   -1    0    0  501  503 -0.00000000000E+00 -0.00000000000E+00 -0.15367057595E+03  0.15367057595E+03  0.00000000000E+00 0.  1.
          6    1    1    2  501    0  0.34772324067E+02 -0.20418056420E+03 -0.88817669602E+01  0.27001241287E+03  0.17300000000E+03 0.  1.
         -6    1    1    2    0  502 -0.34772324067E+02  0.20418056420E+03  0.12658392414E+04  0.12942862135E+04  0.17300000000E+03 0.  1.
<mgrwt>
<rscale>  2 0.26986630E+03</rscale>
<asrwt>0</asrwt>
<pdfrwt beam="1">  1       21 0.21701969E+00 0.26986630E+03</pdfrwt>
<pdfrwt beam="2">  1       21 0.23641628E-01 0.26986630E+03</pdfrwt>
<totfact> 0.16447383E+03</totfact>
</mgrwt>
</event>
<event>
 4    1  0.4319182E+000  0.1952935E+03  0.7546771E-02  0.1153772E+00
         21   -1    0    0  503  502  0.00000000000E+00  0.00000000000E+00  0.30284139877E+03  0.30284139877E+03  0.00000000000E+00 0. -1.
         21   -1    0    0  501  503 -0.00000000000E+00 -0.00000000000E+00 -0.13795578651E+04  0.13795578651E+04  0.00000000000E+00 0.  1.
          6    1    1    2  501    0  0.85815473011E+02 -0.29090434282E+02 -0.13402428264E+04  0.13543966858E+04  0.17300000000E+03 0.  1.
         -6    1    1    2    0  502 -0.85815473011E+02  0.29090434282E+02  0.26352636006E+03  0.32800257807E+03  0.17300000000E+03 0. -1.
<mgrwt>
<rscale>  2 0.19529349E+03</rscale>
<asrwt>0</asrwt>
<pdfrwt beam="1">  1       21 0.46590984E-01 0.19529349E+03</pdfrwt>
<pdfrwt beam="2">  1       21 0.21223967E+00 0.19529349E+03</pdfrwt>
<totfact> 0.49406087E+02</totfact>
</mgrwt>
</event>
<event>
 4    1  0.4319182E+000  0.1805451E+03  0.7546771E-02  0.1167277E+00
         21   -1    0    0  503  502  0.00000000000E+00  0.00000000000E+00  0.25273505148E+03  0.25273505148E+03  0.00000000000E+00 0.  1.
         21   -1    0    0  501  503 -0.00000000000E+00 -0.00000000000E+00 -0.31167383473E+03  0.31167383473E+03  0.00000000000E+00 0.  1.
          6    1    1    2  501    0 -0.45077408814E+02 -0.25210351711E+02 -0.24553289621E+03  0.30476702207E+03  0.17300000000E+03 0.  1.
         -6    1    1    2    0  502  0.45077408814E+02  0.25210351711E+02  0.18659411297E+03  0.25964186414E+03  0.17300000000E+03 0.  1.
<mgrwt>
<rscale>  2 0.18054510E+03</rscale>
<asrwt>0</asrwt>
<pdfrwt beam="1">  1       21 0.38882316E-01 0.18054510E+03</pdfrwt>
<pdfrwt beam="2">  1       21 0.47949821E-01 0.18054510E+03</pdfrwt>
<totfact> 0.26690450E+04</totfact>
</mgrwt>
</event>
<event>
 4    1  0.4319182E+000  0.1881049E+03  0.7546771E-02  0.1160182E+00
         21   -1    0    0  501  502  0.00000000000E+00  0.00000000000E+00  0.33434814295E+03  0.33434814295E+03  0.00000000000E+00 0.  1.
         21   -1    0    0  502  503 -0.00000000000E+00 -0.00000000000E+00 -0.19709916540E+03  0.19709916540E+03  0.00000000000E+00 0.  1.
          6    1    1    2  501    0  0.59979044226E+02 -0.43092447166E+02  0.24944773822E+03  0.31242218047E+03  0.17300000000E+03 0.  1.
         -6    1    1    2    0  503 -0.59979044226E+02  0.43092447166E+02 -0.11219876066E+03  0.21902512788E+03  0.17300000000E+03 0.  1.
<mgrwt>
<rscale>  2 0.18810488E+03</rscale>
<asrwt>0</asrwt>
<pdfrwt beam="1">  1       21 0.51438176E-01 0.18810488E+03</pdfrwt>
<pdfrwt beam="2">  1       21 0.30322949E-01 0.18810488E+03</pdfrwt>
<totfact> 0.37564483E+04</totfact>
</mgrwt>
</event>
<event>
 4    1  0.4319182E+000  0.2066179E+03  0.7546771E-02  0.1144273E+00
         21   -1    0    0  503  502  0.00000000000E+00  0.00000000000E+00  0.24881825725E+03  0.24881825725E+03  0.00000000000E+00 0. -1.
         21   -1    0    0  501  503 -0.00000000000E+00 -0.00000000000E+00 -0.20183804013E+03  0.20183804013E+03  0.00000000000E+00 0.  1.
          6    1    1    2  501    0  0.93547692667E+02 -0.63330877205E+02 -0.63760977234E+02  0.21623235888E+03  0.17300000000E+03 0.  1.
         -6    1    1    2    0  502 -0.93547692667E+02  0.63330877205E+02  0.11074119436E+03  0.23442393850E+03  0.17300000000E+03 0.  1.
<mgrwt>
<rscale>  2 0.20661793E+03</rscale>
<asrwt>0</asrwt>
<pdfrwt beam="1">  1       21 0.38279732E-01 0.20661793E+03</pdfrwt>
<pdfrwt beam="2">  1       21 0.31052006E-01 0.20661793E+03</pdfrwt>
<totfact> 0.65150446E+04</totfact>
</mgrwt>
</event>
<event>
 4    1  0.4319182E+000  0.2401662E+03  0.7546771E-02  0.1119682E+00
         21   -1    0    0  501  502  0.00000000000E+00  0.00000000000E+00  0.25118912182E+03  0.25118912182E+03  0.00000000000E+00 0. -1.
         21   -1    0    0  502  503 -0.00000000000E+00 -0.00000000000E+00 -0.22977871677E+03  0.22977871677E+03  0.00000000000E+00 0. -1.
          6    1    1    2  501    0 -0.13132796444E+03  0.10248795393E+03  0.16883777063E+02  0.24075896011E+03  0.17300000000E+03 0. -1.
         -6    1    1    2    0  503  0.13132796444E+03 -0.10248795393E+03  0.45266279845E+01  0.24020887849E+03  0.17300000000E+03 0. -1.
<mgrwt>
<rscale>  2 0.24016622E+03</rscale>
<asrwt>0</asrwt>
<pdfrwt beam="1">  1       21 0.38644480E-01 0.24016622E+03</pdfrwt>
<pdfrwt beam="2">  1       21 0.35350572E-01 0.24016622E+03</pdfrwt>
<totfact> 0.48748387E+04</totfact>
</mgrwt>
</event>
<event>
 4    1  0.4319182E+000  0.1789150E+03  0.7546771E-02  0.1168857E+00
         21   -1    0    0  501  502  0.00000000000E+00  0.00000000000E+00  0.69021017451E+02  0.69021017451E+02  0.00000000000E+00 0.  1.
         21   -1    0    0  502  503 -0.00000000000E+00 -0.00000000000E+00 -0.21486486552E+04  0.21486486552E+04  0.00000000000E+00 0.  1.
          6    1    1    2  501    0  0.44658467260E+02  0.93383219335E+01 -0.57914055630E+02  0.18805483454E+03  0.17300000000E+03 0.  1.
         -6    1    1    2    0  503 -0.44658467260E+02 -0.93383219335E+01 -0.20217135821E+04  0.20296148381E+04  0.17300000000E+03 0.  1.
<mgrwt>
<rscale>  2 0.17891502E+03</rscale>
<asrwt>0</asrwt>
<pdfrwt beam="1">  1       21 0.10618618E-01 0.17891502E+03</pdfrwt>
<pdfrwt beam="2">  1       21 0.33056132E+00 0.17891502E+03</pdfrwt>
<totfact> 0.16909785E+03</totfact>
</mgrwt>
</event>
<event>
 4    1  0.4319182E+000  0.2518580E+03  0.7546771E-02  0.1112136E+00
         21   -1    0    0  501  502  0.00000000000E+00  0.00000000000E+00  0.55484412202E+03  0.55484412202E+03  0.00000000000E+00 0. -1.
         21   -1    0    0  502  503 -0.00000000000E+00 -0.00000000000E+00 -0.18102114414E+03  0.18102114414E+03  0.00000000000E+00 0.  1.
          6    1    1    2  501    0 -0.56626405934E+02  0.17406008001E+03  0.41024534509E+03  0.48138727078E+03  0.17300000000E+03 0. -1.
         -6    1    1    2    0  503  0.56626405934E+02 -0.17406008001E+03 -0.36422367202E+02  0.25447799538E+03  0.17300000000E+03 0.  1.
<mgrwt>
<rscale>  2 0.25185802E+03</rscale>
<asrwt>0</asrwt>
<pdfrwt beam="1">  1       21 0.85360633E-01 0.25185802E+03</pdfrwt>
<pdfrwt beam="2">  1       21 0.27849407E-01 0.25185802E+03</pdfrwt>
<totfact> 0.14108075E+04</totfact>
</mgrwt>
</event>
<event>
 4    1  0.4319182E+000  0.1921985E+03  0.7546771E-02  0.1156493E+00
         21   -1    0    0  503  502  0.00000000000E+00  0.00000000000E+00  0.13329267998E+04  0.13329267998E+04  0.00000000000E+00 0.  1.
         21   -1    0    0  501  503 -0.00000000000E+00 -0.00000000000E+00 -0.32405955015E+02  0.32405955015E+02  0.00000000000E+00 0.  1.
          6    1    1    2  501    0 -0.37559019268E+02 -0.74836936970E+02  0.39048987827E+03  0.43522705810E+03  0.17300000000E+03 0.  1.
         -6    1    1    2    0  502  0.37559019268E+02  0.74836936970E+02  0.91003096649E+03  0.93010569670E+03  0.17300000000E+03 0.  1.
<mgrwt>
<rscale>  2 0.19219846E+03</rscale>
<asrwt>0</asrwt>
<pdfrwt beam="1">  1       21 0.20506562E+00 0.19219846E+03</pdfrwt>
<pdfrwt beam="2">  1       21 0.49855326E-02 0.19219846E+03</pdfrwt>
<totfact> 0.33704991E+04</totfact>
</mgrwt>
</event>
<event>
 4    1  0.4319182E+000  0.2669102E+03  0.7546771E-02  0.1103061E+00
         21   -1    0    0  503  502  0.00000000000E+00  0.00000000000E+00  0.83597868230E+02  0.83597868230E+02  0.00000000000E+00 0.  1.
         21   -1    0    0  501  503 -0.00000000000E+00 -0.00000000000E+00 -0.13932065779E+04  0.13932065779E+04  0.00000000000E+00 0.  1.
          6    1    1    2  501    0 -0.19926390378E+03  0.40074285534E+02 -0.19466269039E+03  0.33035528562E+03  0.17300000000E+03 0. -1.
         -6    1    1    2    0  502  0.19926390378E+03 -0.40074285534E+02 -0.11149460192E+04  0.11464491605E+04  0.17300000000E+03 0. -1.
<mgrwt>
<rscale>  2 0.26691019E+03</rscale>
<asrwt>0</asrwt>
<pdfrwt beam="1">  1       21 0.12861211E-01 0.26691019E+03</pdfrwt>
<pdfrwt beam="2">  1       21 0.21433946E+00 0.26691019E+03</pdfrwt>
<totfact> 0.53175501E+03</totfact>
</mgrwt>
</event>
<event>
 4    1  0.4319182E+000  0.2599962E+03  0.7546771E-02  0.1107145E+00
         21   -1    0    0  501  502  0.00000000000E+00  0.00000000000E+00  0.14442829344E+03  0.14442829344E+03  0.00000000000E+00 0.  1.
         21   -1    0    0  502  503 -0.00000000000E+00 -0.00000000000E+00 -0.50240856838E+03  0.50240856838E+03  0.00000000000E+00 0. -1.
          6    1    1    2  501    0  0.19295226768E+03  0.20939659314E+02 -0.94399076594E+02  0.27660302348E+03  0.17300000000E+03 0. -1.
         -6    1    1    2    0  503 -0.19295226768E+03 -0.20939659314E+02 -0.26358119835E+03  0.37023383835E+03  0.17300000000E+03 0. -1.
<mgrwt>
<rscale>  2 0.25999624E+03</rscale>
<asrwt>0</asrwt>
<pdfrwt beam="1">  1       21 0.22219738E-01 0.25999624E+03</pdfrwt>
<pdfrwt beam="2">  1       21 0.77293625E-01 0.25999624E+03</pdfrwt>
<totfact> 0.27209745E+04</totfact>
</mgrwt>
</event>
<event>
 4    1  0.4319182E+000  0.2500410E+03  0.7546771E-02  0.1113279E+00
         21   -1    0    0  503  502  0.00000000000E+00  0.00000000000E+00  0.18966027028E+03  0.18966027028E+03  0.00000000000E+00 0. -1.
         21   -1    0    0  501  503 -0.00000000000E+00 -0.00000000000E+00 -0.53759996801E+03  0.53759996801E+03  0.00000000000E+00 0.  1.
          6    1    1    2  501    0  0.33326415064E+02 -0.17742842215E+03 -0.40012955872E+03  0.47183064619E+03  0.17300000000E+03 0.  1.
         -6    1    1    2    0  502 -0.33326415064E+02  0.17742842215E+03  0.52189860989E+02  0.25542959209E+03  0.17300000000E+03 0. -1.
<mgrwt>
<rscale>  2 0.25004099E+03</rscale>
<asrwt>0</asrwt>
<pdfrwt beam="1">  1       21 0.29178504E-01 0.25004099E+03</pdfrwt>
<pdfrwt beam="2">  1       21 0.82707686E-01 0.25004099E+03</pdfrwt>
<totfact> 0.13865002E+04</totfact>
</mgrwt>
</event>
<event>
 4    1  0.4319182E+000  0.2862303E+03  0.7546771E-02  0.1092334E+00
         21   -1    0    0  503  502  0.00000000000E+00  0.00000000000E+00  0.11955471508E+04  0.11955471508E+04  0.00000000000E+00 0. -1.
         21   -1    0    0  501  503 -0.00000000000E+00 -0.00000000000E+00 -0.68993434883E+02  0.68993434883E+02  0.00000000000E+00 0. -1.
          6    1    1    2  501    0  0.19800938232E+03  0.11309768853E+03  0.51131521875E+03  0.58597871597E+03  0.17300000000E+03 0. -1.
         -6    1    1    2    0  502 -0.19800938232E+03 -0.11309768853E+03  0.61523849712E+03  0.67856186967E+03  0.17300000000E+03 0. -1.
<mgrwt>
<rscale>  2 0.28623033E+03</rscale>
<asrwt>0</asrwt>
<pdfrwt beam="1">  1       21 0.18393032E+00 0.28623033E+03</pdfrwt>
<pdfrwt beam="2">  1       21 0.10614375E-01 0.28623033E+03</pdfrwt>
<totfact> 0.11745968E+04</totfact>
</mgrwt>
</event>
<event>
 4    1  0.4319182E+000  0.1863385E+03  0.7546771E-02  0.1161806E+00
         21   -1    0    0  503  502  0.00000000000E+00  0.00000000000E+00  0.12557031501E+03  0.12557031501E+03  0.00000000000E+00 0.  1.
         21   -1    0    0  501  503 -0.00000000000E+00 -0.00000000000E+00 -0.50622574336E+03  0.50622574336E+03  0.00000000000E+00 0.  1.
          6    1    1    2  501    0  0.15265273018E+02 -0.67527828382E+02 -0.40312483812E+03  0.44410772485E+03  0.17300000000E+03 0.  1.
         -6    1    1    2    0  502 -0.15265273018E+02  0.67527828382E+02  0.22469409766E+02  0.18768833353E+03  0.17300000000E+03 0.  1.
<mgrwt>
<rscale>  2 0.18633850E+03</rscale>
<asrwt>0</asrwt>
<pdfrwt beam="1">  1       21 0.19318510E-01 0.18633850E+03</pdfrwt>
<pdfrwt beam="2">  1       21 0.77880884E-01 0.18633850E+03</pdfrwt>
<totfact> 0.36099557E+04</totfact>
</mgrwt>
</event>
<event>
 4    1  0.4319182E+000  0.2959296E+03  0.7546771E-02  0.1087293E+00
         21   -1    0    0  503  502  0.00000000000E+00  0.00000000000E+00  0.85897118427E+03  0.85897118427E+03  0.00000000000E+00 0.  1.
         21   -1    0    0  501  503 -0.00000000000E+00 -0.00000000000E+00 -0.10205957844E+03  0.10205957844E+03  0.00000000000E+00 0. -1.
          6    1    1    2  501    0 -0.22653552314E+03 -0.79542493927E+02  0.36289921663E+03  0.46826295286E+03  0.17300000000E+03 0. -1.
         -6    1    1    2    0  502  0.22653552314E+03  0.79542493927E+02  0.39401238920E+03  0.49276780985E+03  0.17300000000E+03 0.  1.
<mgrwt>
<rscale>  2 0.29592964E+03</rscale>
<asrwt>0</asrwt>
<pdfrwt beam="1">  1       21 0.13214941E+00 0.29592964E+03</pdfrwt>
<pdfrwt beam="2">  1       21 0.15701474E-01 0.29592964E+03</pdfrwt>
<totfact> 0.14108915E+04</totfact>
</mgrwt>
</event>
<event>
 4    1  0.4319182E+000  0.1992689E+03  0.7546771E-02  0.1150357E+00
         21   -1    0    0  501  502  0.00000000000E+00  0.00000000000E+00  0.68384691741E+03  0.68384691741E+03  0.00000000000E+00 0.  1.
         21   -1    0    0  502  503 -0.00000000000E+00 -0.00000000000E+00 -0.66532214368E+02  0.66532214368E+02  0.00000000000E+00 0. -1.
          6    1    1    2  501    0 -0.71518132343E+02 -0.68295295353E+02  0.44249723890E+03  0.48529568003E+03  0.17300000000E+03 0.  1.
         -6    1    1    2    0  503  0.71518132343E+02  0.68295295353E+02  0.17481746414E+03  0.26508345175E+03  0.17300000000E+03 0. -1.
<mgrwt>
<rscale>  2 0.19926889E+03</rscale>
<asrwt>0</asrwt>
<pdfrwt beam="1">  1       21 0.10520721E+00 0.19926889E+03</pdfrwt>
<pdfrwt beam="2">  1       21 0.10235726E-01 0.19926889E+03</pdfrwt>
<totfact> 0.56435812E+04</totfact>
</mgrwt>
</event>
<event>
 4    1  0.4319182E+000  0.2078012E+03  0.7546771E-02  0.1143319E+00
         21   -1    0    0  503  502  0.00000000000E+00  0.00000000000E+00  0.72800034402E+02  0.72800034402E+02  0.00000000000E+00 0.  1.
         21   -1    0    0  501  503 -0.00000000000E+00 -0.00000000000E+00 -0.60824491941E+03  0.60824491941E+03  0.00000000000E+00 0. -1.
          6    1    1    2  501    0  0.11068365213E+03  0.31646230214E+02 -0.21407869541E+03  0.29834718461E+03  0.17300000000E+03 0.  1.
         -6    1    1    2    0  502 -0.11068365213E+03 -0.31646230214E+02 -0.32136618960E+03  0.38269776920E+03  0.17300000000E+03 0.  1.
<mgrwt>
<rscale>  2 0.20780124E+03</rscale>
<asrwt>0</asrwt>
<pdfrwt beam="1">  1       21 0.11200005E-01 0.20780124E+03</pdfrwt>
<pdfrwt beam="2">  1       21 0.93576141E-01 0.20780124E+03</pdfrwt>
<totfact> 0.63231786E+04</totfact>
</mgrwt>
</event>
<event>
 4    1  0.4319182E+000  0.1759793E+03  0.7546771E-02  0.1171752E+00
         21   -1    0    0  501  502  0.00000000000E+00  0.00000000000E+00  0.71027860160E+02  0.71027860160E+02  0.00000000000E+00 0.  1.
         21   -1    0    0  502  503 -0.00000000000E+00 -0.00000000000E+00 -0.44228017467E+03  0.44228017467E+03  0.00000000000E+00 0.  1.
          6    1    1    2  501    0  0.17649914935E+02  0.26984965428E+02 -0.15506202941E+03  0.23454837629E+03  0.17300000000E+03 0.  1.
         -6    1    1    2    0  503 -0.17649914935E+02 -0.26984965428E+02 -0.21619028510E+03  0.27875965854E+03  0.17300000000E+03 0.  1.
<mgrwt>
<rscale>  2 0.17597928E+03</rscale>
<asrwt>0</asrwt>
<pdfrwt beam="1">  1       21 0.10927363E-01 0.17597928E+03</pdfrwt>
<pdfrwt beam="2">  1       21 0.68043103E-01 0.17597928E+03</pdfrwt>
<totfact> 0.13755451E+05</totfact>
</mgrwt>
</event>
<event>
 4    1  0.4319182E+000  0.2040169E+03  0.7546771E-02  0.1146394E+00
         21   -1    0    0  503  502  0.00000000000E+00  0.00000000000E+00  0.37462862404E+03  0.37462862404E+03  0.00000000000E+00 0.  1.
         21   -1    0    0  501  503 -0.00000000000E+00 -0.00000000000E+00 -0.37438953454E+03  0.37438953454E+03  0.00000000000E+00 0.  1.
          6    1    1    2  501    0 -0.10799720670E+03 -0.55235014565E+01 -0.31394118267E+03  0.37440882989E+03  0.17300000000E+03 0.  1.
         -6    1    1    2    0  502  0.10799720670E+03  0.55235014565E+01  0.31418027217E+03  0.37460932870E+03  0.17300000000E+03 0.  1.
<mgrwt>
<rscale>  2 0.20401693E+03</rscale>
<asrwt>0</asrwt>
<pdfrwt beam="1">  1       21 0.57635173E-01 0.20401693E+03</pdfrwt>
<pdfrwt beam="2">  1       21 0.57598390E-01 0.20401693E+03</pdfrwt>
<totfact> 0.79214637E+03</totfact>
</mgrwt>
</event>
<event>
 4    1  0.4319182E+000  0.2686987E+03  0.7546771E-02  0.1102027E+00
         21   -1    0    0  501  502  0.00000000000E+00  0.00000000000E+00  0.48978289090E+02  0.48978289090E+02  0.00000000000E+00 0.  1.
         21   -1    0    0  502  503 -0.00000000000E+00 -0.00000000000E+00 -0.15006579753E+04  0.15006579753E+04  0.00000000000E+00 0. -1.
          6    1    1    2  501    0  0.16765499221E+03  0.11900335299E+03 -0.62276802076E+03  0.67826175045E+03  0.17300000000E+03 0. -1.
         -6    1    1    2    0  503 -0.16765499221E+03 -0.11900335299E+03 -0.82891166549E+03  0.87137451398E+03  0.17300000000E+03 0. -1.
<mgrwt>
<rscale>  2 0.26869871E+03</rscale>
<asrwt>0</asrwt>
<pdfrwt beam="1">  1       21 0.75351225E-02 0.26869871E+03</pdfrwt>
<pdfrwt beam="2">  1       21 0.23087042E+00 0.26869871E+03</pdfrwt>
<totfact> 0.10848009E+04</totfact>
</mgrwt>
</event>
<event>
 4    1  0.4319182E+000  0.1818435E+03  0.7546771E-02  0.1166031E+00
         21   -1    0    0  501  502  0.00000000000E+00  0.00000000000E+00  0.12438891599E+03  0.12438891599E+03  0.00000000000E+00 0.  1.
         21   -1    0    0  502  503 -0.00000000000E+00 -0.00000000000E+00 -0.33665233883E+03  0.33665233883E+03  0.00000000000E+00 0. -1.
          6    1    1    2  501    0  0.46495028563E+02 -0.31245587685E+02 -0.40489531584E+00  0.18184399460E+03  0.17300000000E+03 0.  1.
         -6    1    1    2    0  503 -0.46495028563E+02  0.31245587685E+02 -0.21185852753E+03  0.27919726022E+03  0.17300000000E+03 0. -1.
<mgrwt>
<rscale>  2 0.18184354E+03</rscale>
<asrwt>0</asrwt>
<pdfrwt beam="1">  1       21 0.19136757E-01 0.18184354E+03</pdfrwt>
<pdfrwt beam="2">  1       21 0.51792667E-01 0.18184354E+03</pdfrwt>
<totfact> 0.89094474E+04</totfact>
</mgrwt>
</event>
<event>
 4    1  0.4319182E+000  0.1783936E+03  0.7546771E-02  0.1169367E+00
         21   -1    0    0  501  502  0.00000000000E+00  0.00000000000E+00  0.14816200552E+04  0.14816200552E+04  0.00000000000E+00 0. -1.
         21   -1    0    0  502  503 -0.00000000000E+00 -0.00000000000E+00 -0.21655201212E+02  0.21655201212E+02  0.00000000000E+00 0. -1.
          6    1    1    2  501    0 -0.39532842526E+02 -0.18232537735E+02  0.79771079820E+03  0.81741469808E+03  0.17300000000E+03 0.  1.
         -6    1    1    2    0  503  0.39532842526E+02  0.18232537735E+02  0.66225405578E+03  0.68586055833E+03  0.17300000000E+03 0.  1.
<mgrwt>
<rscale>  2 0.17839358E+03</rscale>
<asrwt>0</asrwt>
<pdfrwt beam="1">  1       21 0.22794147E+00 0.17839358E+03</pdfrwt>
<pdfrwt beam="2">  1       21 0.33315706E-02 0.17839358E+03</pdfrwt>
<totfact> 0.48357657E+04</totfact>
</mgrwt>
</event>
<event>
 4    1  0.4319182E+000  0.2340002E+03  0.7546771E-02  0.1123856E+00
         21   -1    0    0  501  502  0.00000000000E+00  0.00000000000E+00  0.20659640711E+03  0.20659640711E+03  0.00000000000E+00 0.  1.
         21   -1    0    0  502  503 -0.00000000000E+00 -0.00000000000E+00 -0.65355436589E+03  0.65355436589E+03  0.00000000000E+00 0. -1.
          6    1    1    2  501    0  0.48597823372E+02 -0.14988440792E+03  0.10811595308E+03  0.25776955500E+03  0.17300000000E+03 0.  1.
         -6    1    1    2    0  503 -0.48597823372E+02  0.14988440792E+03 -0.55507391186E+03  0.60238121800E+03  0.17300000000E+03 0. -1.
<mgrwt>
<rscale>  2 0.23400018E+03</rscale>
<asrwt>0</asrwt>
<pdfrwt beam="1">  1       21 0.31784063E-01 0.23400018E+03</pdfrwt>
<pdfrwt beam="2">  1       21 0.10054682E+00 0.23400018E+03</pdfrwt>
<totfact> 0.74945441E+03</totfact>
</mgrwt>
</event>
<event>
 4    1  0.4319182E+000  0.2085709E+03  0.7546771E-02  0.1142703E+00
         21   -1    0    0  501  502  0.00000000000E+00  0.00000000000E+00  0.37780139214E+02  0.37780139214E+02  0.00000000000E+00 0. -1.
         21   -1    0    0  502  503 -0.00000000000E+00 -0.00000000000E+00 -0.11714920022E+04  0.11714920022E+04  0.00000000000E+00 0.  1.
          6    1    1    2  501    0  0.13966336569E+02  0.11566233701E+03 -0.64594664458E+03  0.67878487196E+03  0.17300000000E+03 0. -1.
         -6    1    1    2    0  503 -0.13966336569E+02 -0.11566233701E+03 -0.48776521836E+03  0.53048726941E+03  0.17300000000E+03 0. -1.
<mgrwt>
<rscale>  2 0.20857093E+03</rscale>
<asrwt>0</asrwt>
<pdfrwt beam="1">  1       21 0.58123301E-02 0.20857093E+03</pdfrwt>
<pdfrwt beam="2">  1       21 0.18022951E+00 0.20857093E+03</pdfrwt>
<totfact> 0.37361607E+04</totfact>
</mgrwt>
</event>
<event>
 4    1  0.4319182E+000  0.1870763E+03  0.7546771E-02  0.1161125E+00
         21   -1    0    0  501  502  0.00000000000E+00  0.00000000000E+00  0.79155081395E+03  0.79155081395E+03  0.00000000000E+00 0.  1.
         21   -1    0    0  502  503 -0.00000000000E+00 -0.00000000000E+00 -0.50068320230E+02  0.50068320230E+02  0.00000000000E+00 0.  1.
          6    1    1    2  501    0  0.55997423562E+02  0.43964055117E+02  0.51463634221E+03  0.54758388792E+03  0.17300000000E+03 0.  1.
         -6    1    1    2    0  503 -0.55997423562E+02 -0.43964055117E+02  0.22684615151E+03  0.29403524626E+03  0.17300000000E+03 0.  1.
<mgrwt>
<rscale>  2 0.18707632E+03</rscale>
<asrwt>0</asrwt>
<pdfrwt beam="1">  1       21 0.12177704E+00 0.18707632E+03</pdfrwt>
<pdfrwt beam="2">  1       21 0.77028191E-02 0.18707632E+03</pdfrwt>
<totfact> 0.65434080E+04</totfact>
</mgrwt>
</event>
<event>
 4    1  0.4319182E+000  0.3021325E+03  0.7546771E-02  0.1084179E+00
         21   -1    0    0  503  502  0.00000000000E+00  0.00000000000E+00  0.12411561495E+04  0.12411561495E+04  0.00000000000E+00 0.  1.
         21   -1    0    0  501  503 -0.00000000000E+00 -0.00000000000E+00 -0.82842223728E+02  0.82842223728E+02  0.00000000000E+00 0. -1.
          6    1    1    2  501    0  0.70287335940E+02  0.23751783561E+03  0.35741497140E+03  0.46800586920E+03  0.17300000000E+03 0.  1.
         -6    1    1    2    0  502 -0.70287335940E+02 -0.23751783561E+03  0.80089895437E+03  0.85599250402E+03  0.17300000000E+03 0. -1.
<mgrwt>
<rscale>  2 0.30213247E+03</rscale>
<asrwt>0</asrwt>
<pdfrwt beam="1">  1       21 0.19094709E+00 0.30213247E+03</pdfrwt>
<pdfrwt beam="2">  1       21 0.12744958E-01 0.30213247E+03</pdfrwt>
<totfact> 0.75070665E+03</totfact>
</mgrwt>
</event>
<event>
 4    1  0.4319182E+000  0.2568265E+03  0.7546771E-02  0.1109065E+00
         21   -1    0    0  501  502  0.00000000000E+00  0.00000000000E+00  0.27562597077E+02  0.27562597077E+02  0.00000000000E+00 0.  1.
         21   -1    0    0  502  503 -0.00000000000E+00 -0.00000000000E+00 -0.23939385144E+04  0.23939385144E+04  0.00000000000E+00 0.  1.
          6    1    1    2  501    0  0.78337849791E+02  0.17289897707E+03 -0.11604421399E+04  0.11885225429E+04  0.17300000000E+03 0.  1.
         -6    1    1    2    0  503 -0.78337849791E+02 -0.17289897707E+03 -0.12059337774E+04  0.12329785686E+04  0.17300000000E+03 0.  1.
<mgrwt>
<rscale>  2 0.25682655E+03</rscale>
<asrwt>0</asrwt>
<pdfrwt beam="1">  1       21 0.42403997E-02 0.25682655E+03</pdfrwt>
<pdfrwt beam="2">  1       21 0.36829822E+00 0.25682655E+03</pdfrwt>
<totfact> 0.44939655E+03</totfact>
</mgrwt>
</event>
<event>
 4    1  0.4319182E+000  0.2239082E+03  0.7546771E-02  0.1131002E+00
         21   -1    0    0  503  502  0.00000000000E+00  0.00000000000E+00  0.22560295398E+03  0.22560295398E+03  0.00000000000E+00 0. -1.
         21   -1    0    0  501  503 -0.00000000000E+00 -0.00000000000E+00 -0.22366250544E+03  0.22366250544E+03  0.00000000000E+00 0.  1.
          6    1    1    2  501    0  0.99697732189E+02  0.10132248756E+03 -0.17030989007E+02  0.22455497963E+03  0.17300000000E+03 0. -1.
         -6    1    1    2    0  502 -0.99697732189E+02 -0.10132248756E+03  0.18971437542E+02  0.22471047980E+03  0.17300000000E+03 0.  1.
<mgrwt>
<rscale>  2 0.22390821E+03</rscale>
<asrwt>0</asrwt>
<pdfrwt beam="1">  1       21 0.34708147E-01 0.22390821E+03</pdfrwt>
<pdfrwt beam="2">  1       21 0.34409616E-01 0.22390821E+03</pdfrwt>
<totfact> 0.64235532E+04</totfact>
</mgrwt>
</event>
<event>
 4    1  0.4319182E+000  0.1923125E+03  0.7546771E-02  0.1156392E+00
         21   -1    0    0  501  502  0.00000000000E+00  0.00000000000E+00  0.58877020707E+03  0.58877020707E+03  0.00000000000E+00 0. -1.
         21   -1    0    0  502  503 -0.00000000000E+00 -0.00000000000E+00 -0.64940438332E+02  0.64940438332E+02  0.00000000000E+00 0.  1.
          6    1    1    2  501    0  0.83990088242E+02 -0.86631282537E+00  0.32103537864E+03  0.37422960834E+03  0.17300000000E+03 0. -1.
         -6    1    1    2    0  503 -0.83990088242E+02  0.86631282537E+00  0.20279439010E+03  0.27948103706E+03  0.17300000000E+03 0.  1.
<mgrwt>
<rscale>  2 0.19231247E+03</rscale>
<asrwt>0</asrwt>
<pdfrwt beam="1">  1       21 0.90580028E-01 0.19231247E+03</pdfrwt>
<pdfrwt beam="2">  1       21 0.99908370E-02 0.19231247E+03</pdfrwt>
<totfact> 0.84143229E+04</totfact>
</mgrwt>
</event>
<event>
 4    1  0.4319182E+000  0.1799230E+03  0.7546771E-02  0.1167878E+00
         21   -1    0    0  503  502  0.00000000000E+00  0.00000000000E+00  0.67549300925E+02  0.67549300925E+02  0.00000000000E+00 0.  1.
         21   -1    0    0  501  503 -0.00000000000E+00 -0.00000000000E+00 -0.61109335652E+03  0.61109335652E+03  0.00000000000E+00 0.  1.
          6    1    1    2  501    0 -0.47686590051E+02  0.13010936861E+02 -0.42938927701E+03  0.46556143157E+03  0.17300000000E+03 0.  1.
         -6    1    1    2    0  502  0.47686590051E+02 -0.13010936861E+02 -0.11415477858E+03  0.21308122588E+03  0.17300000000E+03 0.  1.
<mgrwt>
<rscale>  2 0.17992303E+03</rscale>
<asrwt>0</asrwt>
<pdfrwt beam="1">  1       21 0.10392200E-01 0.17992303E+03</pdfrwt>
<pdfrwt beam="2">  1       21 0.94014360E-01 0.17992303E+03</pdfrwt>
<totfact> 0.72367624E+04</totfact>
</mgrwt>
</event>
<event>
 4    1  0.4319182E+000  0.1946274E+03  0.7546771E-02  0.1154353E+00
         21   -1    0    0  501  502  0.00000000000E+00  0.00000000000E+00  0.13335561369E+03  0.13335561369E+03  0.00000000000E+00 0. -1.
         21   -1    0    0  502  503 -0.00000000000E+00 -0.00000000000E+00 -0.47578143742E+03  0.47578143742E+03  0.00000000000E+00 0. -1.
          6    1    1    2  501    0  0.45693872971E+02  0.76569468820E+02  0.22129285969E+02  0.19588138983E+03  0.17300000000E+03 0. -1.
         -6    1    1    2    0  503 -0.45693872971E+02 -0.76569468820E+02 -0.36455510969E+03  0.41325566129E+03  0.17300000000E+03 0. -1.
<mgrwt>
<rscale>  2 0.19462737E+03</rscale>
<asrwt>0</asrwt>
<pdfrwt beam="1">  1       21 0.20516248E-01 0.19462737E+03</pdfrwt>
<pdfrwt beam="2">  1       21 0.73197144E-01 0.19462737E+03</pdfrwt>
<totfact> 0.36904173E+04</totfact>
</mgrwt>
</event>
<event>
 4    1  0.4319182E+000  0.1803153E+03  0.7546771E-02  0.1167498E+00
         21   -1    0    0  501  502  0.00000000000E+00  0.00000000000E+00  0.45406527987E+02  0.45406527987E+02  0.00000000000E+00 0. -1.
         21   -1    0    0  502  503 -0.00000000000E+00 -0.00000000000E+00 -0.77276128405E+03  0.77276128405E+03  0.00000000000E+00 0. -1.
          6    1    1    2  501    0  0.50440479366E+02 -0.63533416649E+01 -0.25286141730E+03  0.31056803324E+03  0.17300000000E+03 0. -1.
         -6    1    1    2    0  503 -0.50440479366E+02  0.63533416649E+01 -0.47449333876E+03  0.50759977880E+03  0.17300000000E+03 0. -1.
<mgrwt>
<rscale>  2 0.18031530E+03</rscale>
<asrwt>0</asrwt>
<pdfrwt beam="1">  1       21 0.69856194E-02 0.18031530E+03</pdfrwt>
<pdfrwt beam="2">  1       21 0.11888636E+00 0.18031530E+03</pdfrwt>
<totfact> 0.82503548E+04</totfact>
</mgrwt>
</event>
<event>
 4    1  0.4319182E+000  0.2177768E+03  0.7546771E-02  0.1135551E+00
         21   -1    0    0  501  502  0.00000000000E+00  0.00000000000E+00  0.48662512224E+03  0.48662512224E+03  0.00000000000E+00 0.  1.
         21   -1    0    0  502  503 -0.00000000000E+00 -0.00000000000E+00 -0.11040519399E+03  0.11040519399E+03  0.00000000000E+00 0. -1.
          6    1    1    2  501    0 -0.74895359665E+02 -0.10903406797E+03  0.29032552312E+03  0.36292651081E+03  0.17300000000E+03 0. -1.
         -6    1    1    2    0  503  0.74895359665E+02  0.10903406797E+03  0.85894405137E+02  0.23410380542E+03  0.17300000000E+03 0. -1.
<mgrwt>
<rscale>  2 0.21777682E+03</rscale>
<asrwt>0</asrwt>
<pdfrwt beam="1">  1       21 0.74865402E-01 0.21777682E+03</pdfrwt>
<pdfrwt beam="2">  1       21 0.16985415E-01 0.21777682E+03</pdfrwt>
<totfact> 0.49272708E+04</totfact>
</mgrwt>
</event>
<event>
 4    1  0.4319182E+000  0.3675766E+03  0.7546771E-02  0.1055623E+00
         21   -1    0    0  501  502  0.00000000000E+00  0.00000000000E+00  0.87856507197E+03  0.87856507197E+03  0.00000000000E+00 0.  1.
         21   -1    0    0  502  503 -0.00000000000E+00 -0.00000000000E+00 -0.16498086771E+03  0.16498086771E+03  0.00000000000E+00 0.  1.
          6    1    1    2  501    0 -0.95751654880E+02 -0.30986311561E+03  0.49269874040E+03  0.61470690465E+03  0.17300000000E+03 0.  1.
         -6    1    1    2    0  503  0.95751654880E+02  0.30986311561E+03  0.22088546385E+03  0.42883903504E+03  0.17300000000E+03 0.  1.
<mgrwt>
<rscale>  2 0.36757656E+03</rscale>
<asrwt>0</asrwt>
<pdfrwt beam="1">  1       21 0.13516385E+00 0.36757656E+03</pdfrwt>
<pdfrwt beam="2">  1       21 0.25381673E-01 0.36757656E+03</pdfrwt>
<totfact> 0.51979962E+03</totfact>
</mgrwt>
</event>
<event>
 4    1  0.4319182E+000  0.2219905E+03  0.7546771E-02  0.1132408E+00
         21   -1    0    0  503  502  0.00000000000E+00  0.00000000000E+00  0.48628234127E+03  0.48628234127E+03  0.00000000000E+00 0.  1.
         21   -1    0    0  501  503 -0.00000000000E+00 -0.00000000000E+00 -0.12578332803E+03  0.12578332803E+03  0.00000000000E+00 0.  1.
          6    1    1    2  501    0 -0.25372075401E+02  0.13677372741E+03  0.45341505594E+02  0.22657371174E+03  0.17300000000E+03 0.  1.
         -6    1    1    2    0  502  0.25372075401E+02 -0.13677372741E+03  0.31515750765E+03  0.38549195757E+03  0.17300000000E+03 0.  1.
<mgrwt>
<rscale>  2 0.22199053E+03</rscale>
<asrwt>0</asrwt>
<pdfrwt beam="1">  1       21 0.74812667E-01 0.22199053E+03</pdfrwt>
<pdfrwt beam="2">  1       21 0.19351281E-01 0.22199053E+03</pdfrwt>
<totfact> 0.38663758E+04</totfact>
</mgrwt>
</event>
<event>
 4    1  0.4319182E+000  0.2027391E+03  0.7546771E-02  0.1147448E+00
         21   -1    0    0  501  502  0.00000000000E+00  0.00000000000E+00  0.43750712928E+03  0.43750712928E+03  0.00000000000E+00 0.  1.
         21   -1    0    0  502  503 -0.00000000000E+00 -0.00000000000E+00 -0.95547102437E+02  0.95547102437E+02  0.00000000000E+00 0.  1.
          6    1    1    2  501    0  0.22633944605E+02  0.10325619445E+03  0.13650509023E+03  0.24441108158E+03  0.17300000000E+03 0. -1.
         -6    1    1    2    0  503 -0.22633944605E+02 -0.10325619445E+03  0.20545493661E+03  0.28864315014E+03  0.17300000000E+03 0. -1.
<mgrwt>
<rscale>  2 0.20273909E+03</rscale>
<asrwt>0</asrwt>
<pdfrwt beam="1">  1       21 0.67308788E-01 0.20273909E+03</pdfrwt>
<pdfrwt beam="2">  1       21 0.14699554E-01 0.20273909E+03</pdfrwt>
<totfact> 0.81835788E+04</totfact>
</mgrwt>
</event>
<event>
 4    1  0.4319182E+000  0.1942114E+03  0.7546771E-02  0.1154717E+00
         21   -1    0    0  501  502  0.00000000000E+00  0.00000000000E+00  0.11323189651E+03  0.11323189651E+03  0.00000000000E+00 0.  1.
         21   -1    0    0  502  503 -0.00000000000E+00 -0.00000000000E+00 -0.63287965140E+03  0.63287965140E+03  0.00000000000E+00 0.  1.
          6    1    1    2  501    0 -0.79991169345E+02 -0.37288960306E+02 -0.30735424272E+01  0.19423568260E+03  0.17300000000E+03 0.  1.
         -6    1    1    2    0  503  0.79991169345E+02  0.37288960306E+02 -0.51657421246E+03  0.55187586531E+03  0.17300000000E+03 0.  1.
<mgrwt>
<rscale>  2 0.19421136E+03</rscale>
<asrwt>0</asrwt>
<pdfrwt beam="1">  1       21 0.17420292E-01 0.19421136E+03</pdfrwt>
<pdfrwt beam="2">  1       21 0.97366100E-01 0.19421136E+03</pdfrwt>
<totfact> 0.26055288E+04</totfact>
</mgrwt>
</event>
<event>
 4    1  0.4319182E+000  0.1989364E+03  0.7546771E-02  0.1150639E+00
         21   -1    0    0  501  502  0.00000000000E+00  0.00000000000E+00  0.33808037572E+02  0.33808037572E+02  0.00000000000E+00 0. -1.
         21   -1    0    0  502  503 -0.00000000000E+00 -0.00000000000E+00 -0.14957104391E+04  0.14957104391E+04  0.00000000000E+00 0.  1.
          6    1    1    2  501    0  0.85770464786E+02 -0.47855193666E+02 -0.37440455134E+03  0.42397459860E+03  0.17300000000E+03 0. -1.
         -6    1    1    2    0  503 -0.85770464786E+02  0.47855193666E+02 -0.10874978502E+04  0.11055438781E+04  0.17300000000E+03 0.  1.
<mgrwt>
<rscale>  2 0.19893640E+03</rscale>
<asrwt>0</asrwt>
<pdfrwt beam="1">  1       21 0.52012376E-02 0.19893640E+03</pdfrwt>
<pdfrwt beam="2">  1       21 0.23010925E+00 0.19893640E+03</pdfrwt>
<totfact> 0.21855153E+04</totfact>
</mgrwt>
</event>
<event>
 4    1  0.4319182E+000  0.1773055E+03  0.7546771E-02  0.1170437E+00
         21   -1    0    0  501  502  0.00000000000E+00  0.00000000000E+00  0.38090691415E+03  0.38090691415E+03  0.00000000000E+00 0. -1.
         21   -1    0    0  502  503 -0.00000000000E+00 -0.00000000000E+00 -0.13850385803E+03  0.13850385803E+03  0.00000000000E+00 0. -1.
          6    1    1    2  501    0 -0.34308398532E+02  0.18198549078E+02  0.28629594940E+03  0.33675306092E+03  0.17300000000E+03 0. -1.
         -6    1    1    2    0  503  0.34308398532E+02 -0.18198549078E+02 -0.43892893283E+02  0.18265771125E+03  0.17300000000E+03 0. -1.
<mgrwt>
<rscale>  2 0.17730554E+03</rscale>
<asrwt>0</asrwt>
<pdfrwt beam="1">  1       21 0.58601063E-01 0.17730554E+03</pdfrwt>
<pdfrwt beam="2">  1       21 0.21308286E-01 0.17730554E+03</pdfrwt>
<totfact> 0.56268660E+04</totfact>
</mgrwt>
</event>
<event>
 4    1  0.4319182E+000  0.2313437E+03  0.7546771E-02  0.1125698E+00
         21   -1    0    0  503  502  0.00000000000E+00  0.00000000000E+00  0.21973208016E+03  0.21973208016E+03  0.00000000000E+00 0. -1.
         21   -1    0    0  501  503 -0.00000000000E+00 -0.00000000000E+00 -0.33611734452E+03  0.33611734452E+03  0.00000000000E+00 0.  1.
          6    1    1    2  501    0 -0.14839356266E+03  0.39626203100E+02 -0.20402919902E+03  0.30846036936E+03  0.17300000000E+03 0.  1.
         -6    1    1    2    0  502  0.14839356266E+03 -0.39626203100E+02  0.87643934662E+02  0.24738905532E+03  0.17300000000E+03 0.  1.
<mgrwt>
<rscale>  2 0.23134365E+03</rscale>
<asrwt>0</asrwt>
<pdfrwt beam="1">  1       21 0.33804936E-01 0.23134365E+03</pdfrwt>
<pdfrwt beam="2">  1       21 0.51710361E-01 0.23134365E+03</pdfrwt>
<totfact> 0.29339344E+04</totfact>
</mgrwt>
</event>
<event>
 4    1  0.4319182E+000  0.2721853E+03  0.7546771E-02  0.1100035E+00
         21   -1    0    0  503  502  0.00000000000E+00  0.00000000000E+00  0.11627678421E+04  0.11627678421E+04  0.00000000000E+00 0.  1.
         21   -1    0    0  501  503 -0.00000000000E+00 -0.00000000000E+00 -0.81558942206E+02  0.81558942206E+02  0.00000000000E+00 0.  1.
          6    1    1    2  501    0  0.27629103912E+02  0.20830864002E+03  0.24958404247E+03  0.36929263619E+03  0.17300000000E+03 0.  1.
         -6    1    1    2    0  502 -0.27629103912E+02 -0.20830864002E+03  0.83162485746E+03  0.87503414816E+03  0.17300000000E+03 0.  1.
<mgrwt>
<rscale>  2 0.27218534E+03</rscale>
<asrwt>0</asrwt>
<pdfrwt beam="1">  1       21 0.17888735E+00 0.27218534E+03</pdfrwt>
<pdfrwt beam="2">  1       21 0.12547530E-01 0.27218534E+03</pdfrwt>
<totfact> 0.94914153E+03</totfact>
</mgrwt>
</event>
<event>
 4    1  0.4319182E+000  0.2056533E+03  0.7546771E-02  0.1145055E+00
         21   -1    0    0  501  502  0.00000000000E+00  0.00000000000E+00  0.18671883485E+03  0.18671883485E+03  0.00000000000E+00 0.  1.
         21   -1    0    0  502  503 -0.00000000000E+00 -0.00000000000E+00 -0.28838615377E+03  0.28838615377E+03  0.00000000000E+00 0.  1.
          6    1    1    2  501    0  0.75794840772E+02 -0.81359940011E+02  0.59203987244E+02  0.21400563037E+03  0.17300000000E+03 0.  1.
         -6    1    1    2    0  503 -0.75794840772E+02  0.81359940011E+02 -0.16087130616E+03  0.26109935824E+03  0.17300000000E+03 0.  1.
<mgrwt>
<rscale>  2 0.20565334E+03</rscale>
<asrwt>0</asrwt>
<pdfrwt beam="1">  1       21 0.28725975E-01 0.20565334E+03</pdfrwt>
<pdfrwt beam="2">  1       21 0.44367100E-01 0.20565334E+03</pdfrwt>
<totfact> 0.56214971E+04</totfact>
</mgrwt>
</event>
<event>
 4    1  0.4319182E+000  0.2651110E+03  0.7546771E-02  0.1104111E+00
         21   -1    0    0  503  502  0.00000000000E+00  0.00000000000E+00  0.27715472187E+03  0.27715472187E+03  0.00000000000E+00 0. -1.
         21   -1    0    0  501  503 -0.00000000000E+00 -0.00000000000E+00 -0.38387505849E+03  0.38387505849E+03  0.00000000000E+00 0.  1.
          6    1    1    2  501    0 -0.17514275699E+01 -0.20087757105E+03 -0.24590957496E+03  0.36160114091E+03  0.17300000000E+03 0.  1.
         -6    1    1    2    0  502  0.17514275699E+01  0.20087757105E+03  0.13918923835E+03  0.29942863945E+03  0.17300000000E+03 0. -1.
<mgrwt>
<rscale>  2 0.26511104E+03</rscale>
<asrwt>0</asrwt>
<pdfrwt beam="1">  1       21 0.42639188E-01 0.26511104E+03</pdfrwt>
<pdfrwt beam="2">  1       21 0.59057701E-01 0.26511104E+03</pdfrwt>
<totfact> 0.13609808E+04</totfact>
</mgrwt>
</event>
<event>
 4    1  0.4319182E+000  0.2357803E+03  0.7546771E-02  0.1122636E+00
         21   -1    0    0  503  502  0.00000000000E+00  0.00000000000E+00  0.26000417866E+03  0.26000417866E+03  0.00000000000E+00 0. -1.
         21   -1    0    0  501  503 -0.00000000000E+00 -0.00000000000E+00 -0.21405170337E+03  0.21405170337E+03  0.00000000000E+00 0.  1.
          6    1    1    2  501    0 -0.11441291893E+03  0.11212950512E+03  0.15065267833E+02  0.23626109335E+03  0.17300000000E+03 0.  1.
         -6    1    1    2    0  502  0.11441291893E+03 -0.11212950512E+03  0.30887207457E+02  0.23779478868E+03  0.17300000000E+03 0. -1.
<mgrwt>
<rscale>  2 0.23578028E+03</rscale>
<asrwt>0</asrwt>
<pdfrwt beam="1">  1       21 0.40000643E-01 0.23578028E+03</pdfrwt>
<pdfrwt beam="2">  1       21 0.32931031E-01 0.23578028E+03</pdfrwt>
<totfact> 0.52437463E+04</totfact>
</mgrwt>
</event>
<event>
 4    1  0.4319182E+000  0.1802094E+03  0.7546771E-02  0.1167601E+00
         21   -1    0    0  501  502  0.00000000000E+00  0.00000000000E+00  0.49147243985E+02  0.49147243985E+02  0.00000000000E+00 0. -1.
         21   -1    0    0  502  503 -0.00000000000E+00 -0.00000000000E+00 -0.27743400297E+04  0.27743400297E+04  0.00000000000E+00 0. -1.
          6    1    1    2  501    0  0.39469722750E+02  0.31441307839E+02 -0.13038988081E+03  0.22243411580E+03  0.17300000000E+03 0. -1.
         -6    1    1    2    0  503 -0.39469722750E+02 -0.31441307839E+02 -0.25948029049E+04  0.26010531578E+04  0.17300000000E+03 0. -1.
<mgrwt>
<rscale>  2 0.18020936E+03</rscale>
<asrwt>0</asrwt>
<pdfrwt beam="1">  1       21 0.75611137E-02 0.18020936E+03</pdfrwt>
<pdfrwt beam="2">  1       21 0.42682159E+00 0.18020936E+03</pdfrwt>
<totfact> 0.79684660E+02</totfact>
</mgrwt>
</event>
<event>
 4    1  0.4319182E+000  0.1997459E+03  0.7546771E-02  0.1149954E+00
         21   -1    0    0  503  502  0.00000000000E+00  0.00000000000E+00  0.89631858904E+03  0.89631858904E+03  0.00000000000E+00 0.  1.
         21   -1    0    0  501  503 -0.00000000000E+00 -0.00000000000E+00 -0.45679122916E+02  0.45679122916E+02  0.00000000000E+00 0.  1.
          6    1    1    2  501    0  0.91515215916E+02 -0.39929905700E+02  0.35008682009E+03  0.40306229508E+03  0.17300000000E+03 0.  1.
         -6    1    1    2    0  502 -0.91515215916E+02  0.39929905700E+02  0.50055264603E+03  0.53893541687E+03  0.17300000000E+03 0.  1.
<mgrwt>
<rscale>  2 0.19974592E+03</rscale>
<asrwt>0</asrwt>
<pdfrwt beam="1">  1       21 0.13789516E+00 0.19974592E+03</pdfrwt>
<pdfrwt beam="2">  1       21 0.70275580E-02 0.19974592E+03</pdfrwt>
<totfact> 0.55689553E+04</totfact>
</mgrwt>
</event>
<event>
 4    1  0.4319182E+000  0.1989719E+03  0.7546771E-02  0.1150609E+00
         21   -1    0    0  503  502  0.00000000000E+00  0.00000000000E+00  0.62016714883E+03  0.62016714883E+03  0.00000000000E+00 0.  1.
         21   -1    0    0  501  503 -0.00000000000E+00 -0.00000000000E+00 -0.64101522818E+02  0.64101522818E+02  0.00000000000E+00 0.  1.
          6    1    1    2  501    0  0.65709774709E+02  0.73096213780E+02  0.29999632318E+03  0.35998281192E+03  0.17300000000E+03 0.  1.
         -6    1    1    2    0  502 -0.65709774709E+02 -0.73096213780E+02  0.25606930283E+03  0.32428585972E+03  0.17300000000E+03 0.  1.
<mgrwt>
<rscale>  2 0.19897194E+03</rscale>
<asrwt>0</asrwt>
<pdfrwt beam="1">  1       21 0.95410327E-01 0.19897194E+03</pdfrwt>
<pdfrwt beam="2">  1       21 0.98617732E-02 0.19897194E+03</pdfrwt>
<totfact> 0.76043411E+04</totfact>
</mgrwt>
</event>
<event>
 4    1  0.4319182E+000  0.2544705E+03  0.7546771E-02  0.1110512E+00
         21   -1    0    0  503  502  0.00000000000E+00  0.00000000000E+00  0.35941005739E+03  0.35941005739E+03  0.00000000000E+00 0.  1.
         21   -1    0    0  501  503 -0.00000000000E+00 -0.00000000000E+00 -0.18255884098E+03  0.18255884098E+03  0.00000000000E+00 0.  1.
          6    1    1    2  501    0 -0.87635836358E+02 -0.16476101695E+03  0.57433224637E+02  0.26087124758E+03  0.17300000000E+03 0.  1.
         -6    1    1    2    0  502  0.87635836358E+02  0.16476101695E+03  0.11941799178E+03  0.28109765079E+03  0.17300000000E+03 0.  1.
<mgrwt>
<rscale>  2 0.25447049E+03</rscale>
<asrwt>0</asrwt>
<pdfrwt beam="1">  1       21 0.55293855E-01 0.25447049E+03</pdfrwt>
<pdfrwt beam="2">  1       21 0.28085976E-01 0.25447049E+03</pdfrwt>
<totfact> 0.36270928E+04</totfact>
</mgrwt>
</event>
<event>
 4    1  0.4319182E+000  0.2901727E+03  0.7546771E-02  0.1090259E+00
         21   -1    0    0  501  502  0.00000000000E+00  0.00000000000E+00  0.73598717032E+03  0.73598717032E+03  0.00000000000E+00 0. -1.
         21   -1    0    0  502  503 -0.00000000000E+00 -0.00000000000E+00 -0.12373110621E+03  0.12373110621E+03  0.00000000000E+00 0.  1.
          6    1    1    2  501    0  0.18359588375E+03 -0.14340057763E+03  0.18810935244E+03  0.34581107945E+03  0.17300000000E+03 0. -1.
         -6    1    1    2    0  503 -0.18359588375E+03  0.14340057763E+03  0.42414671167E+03  0.51390719709E+03  0.17300000000E+03 0. -1.
<mgrwt>
<rscale>  2 0.29017266E+03</rscale>
<asrwt>0</asrwt>
<pdfrwt beam="1">  1       21 0.11322879E+00 0.29017266E+03</pdfrwt>
<pdfrwt beam="2">  1       21 0.19035555E-01 0.29017266E+03</pdfrwt>
<totfact> 0.14592084E+04</totfact>
</mgrwt>
</event>
<event>
 4    1  0.4319182E+000  0.1933916E+03  0.7546771E-02  0.1155437E+00
         21   -1    0    0  501  502  0.00000000000E+00  0.00000000000E+00  0.44155935802E+03  0.44155935802E+03  0.00000000000E+00 0. -1.
         21   -1    0    0  502  503 -0.00000000000E+00 -0.00000000000E+00 -0.16581307292E+03  0.16581307292E+03  0.00000000000E+00 0.  1.
          6    1    1    2  501    0 -0.86423976128E+02  0.14898094561E+01  0.35027564740E+03  0.40011667341E+03  0.17300000000E+03 0. -1.
         -6    1    1    2    0  503  0.86423976128E+02 -0.14898094561E+01 -0.74529362299E+02  0.20725575752E+03  0.17300000000E+03 0.  1.
<mgrwt>
<rscale>  2 0.19339163E+03</rscale>
<asrwt>0</asrwt>
<pdfrwt beam="1">  1       21 0.67932208E-01 0.19339163E+03</pdfrwt>
<pdfrwt beam="2">  1       21 0.25509704E-01 0.19339163E+03</pdfrwt>
<totfact> 0.28834281E+04</totfact>
</mgrwt>
</event>
<event>
 4    1  0.4319182E+000  0.2211707E+03  0.7546771E-02  0.1133013E+00
         21   -1    0    0  501  502  0.00000000000E+00  0.00000000000E+00  0.94949538378E+02  0.94949538378E+02  0.00000000000E+00 0. -1.
         21   -1    0    0  502  503 -0.00000000000E+00 -0.00000000000E+00 -0.51526061166E+03  0.51526061166E+03  0.00000000000E+00 0.  1.
          6    1    1    2  501    0 -0.13610124732E+03  0.21539160353E+02 -0.20643569430E+03  0.30254285785E+03  0.17300000000E+03 0.  1.
         -6    1    1    2    0  503  0.13610124732E+03 -0.21539160353E+02 -0.21387537897E+03  0.30766729219E+03  0.17300000000E+03 0.  1.
<mgrwt>
<rscale>  2 0.22117071E+03</rscale>
<asrwt>0</asrwt>
<pdfrwt beam="1">  1       21 0.14607621E-01 0.22117071E+03</pdfrwt>
<pdfrwt beam="2">  1       21 0.79270864E-01 0.22117071E+03</pdfrwt>
<totfact> 0.57032905E+04</totfact>
</mgrwt>
</event>
<event>
 4    1  0.4319182E+000  0.1803518E+03  0.7546771E-02  0.1167463E+00
         21   -1    0    0  501  502  0.00000000000E+00  0.00000000000E+00  0.48067717272E+03  0.48067717272E+03  0.00000000000E+00 0. -1.
         21   -1    0    0  502  503 -0.00000000000E+00 -0.00000000000E+00 -0.81959075955E+02  0.81959075955E+02  0.00000000000E+00 0. -1.
          6    1    1    2  501    0  0.47417537700E+02  0.18691139657E+02  0.31682758997E+03  0.36456344215E+03  0.17300000000E+03 0. -1.
         -6    1    1    2    0  503 -0.47417537700E+02 -0.18691139657E+02  0.81890506796E+02  0.19807280653E+03  0.17300000000E+03 0. -1.
<mgrwt>
<rscale>  2 0.18035183E+03</rscale>
<asrwt>0</asrwt>
<pdfrwt beam="1">  1       21 0.73950333E-01 0.18035183E+03</pdfrwt>
<pdfrwt beam="2">  1       21 0.12609089E-01 0.18035183E+03</pdfrwt>
<totfact> 0.88543972E+04</totfact>
</mgrwt>
</event>
<event>
 4    1  0.4319182E+000  0.1845663E+03  0.7546771E-02  0.1163455E+00
         21   -1    0    0  501  502  0.00000000000E+00  0.00000000000E+00  0.43619585204E+02  0.43619585204E+02  0.00000000000E+00 0. -1.
         21   -1    0    0  502  503 -0.00000000000E+00 -0.00000000000E+00 -0.84676348310E+03  0.84676348310E+03  0.00000000000E+00 0. -1.
          6    1    1    2  501    0 -0.63974620421E+02  0.65557675179E+01 -0.27745755984E+03  0.33323779446E+03  0.17300000000E+03 0. -1.
         -6    1    1    2    0  503  0.63974620421E+02 -0.65557675179E+01 -0.52568633806E+03  0.55714527384E+03  0.17300000000E+03 0. -1.
<mgrwt>
<rscale>  2 0.18456633E+03</rscale>
<asrwt>0</asrwt>
<pdfrwt beam="1">  1       21 0.67107059E-02 0.18456633E+03</pdfrwt>
<pdfrwt beam="2">  1       21 0.13027130E+00 0.18456633E+03</pdfrwt>
<totfact> 0.70230508E+04</totfact>
</mgrwt>
</event>
<event>
 4    1  0.4319182E+000  0.2543070E+03  0.7546771E-02  0.1110613E+00
         21   -1    0    0  501  502  0.00000000000E+00  0.00000000000E+00  0.49405379605E+03  0.49405379605E+03  0.00000000000E+00 0. -1.
         21   -1    0    0  502  503 -0.00000000000E+00 -0.00000000000E+00 -0.74289627751E+03  0.74289627751E+03  0.00000000000E+00 0. -1.
          6    1    1    2  501    0  0.86287216554E+02  0.16521978522E+03  0.43692675086E+03  0.50554628550E+03  0.17300000000E+03 0. -1.
         -6    1    1    2    0  503 -0.86287216554E+02 -0.16521978522E+03 -0.68576923233E+03  0.73140378805E+03  0.17300000000E+03 0. -1.
<mgrwt>
<rscale>  2 0.25430702E+03</rscale>
<asrwt>0</asrwt>
<pdfrwt beam="1">  1       21 0.76008276E-01 0.25430702E+03</pdfrwt>
<pdfrwt beam="2">  1       21 0.11429173E+00 0.25430702E+03</pdfrwt>
<totfact> 0.86820842E+02</totfact>
</mgrwt>
</event>
<event>
 4    1  0.4319182E+000  0.2499595E+03  0.7546771E-02  0.1113330E+00
         21   -1    0    0  501  502  0.00000000000E+00  0.00000000000E+00  0.34396382512E+03  0.34396382512E+03  0.00000000000E+00 0. -1.
         21   -1    0    0  502  503 -0.00000000000E+00 -0.00000000000E+00 -0.37484715711E+03  0.37484715711E+03  0.00000000000E+00 0. -1.
          6    1    1    2  501    0  0.11674445595E+03 -0.13755543758E+03  0.24258351320E+03  0.34831957637E+03  0.17300000000E+03 0. -1.
         -6    1    1    2    0  503 -0.11674445595E+03  0.13755543758E+03 -0.27346684518E+03  0.37049140586E+03  0.17300000000E+03 0. -1.
<mgrwt>
<rscale>  2 0.24995953E+03</rscale>
<asrwt>0</asrwt>
<pdfrwt beam="1">  1       21 0.52917511E-01 0.24995953E+03</pdfrwt>
<pdfrwt beam="2">  1       21 0.57668794E-01 0.24995953E+03</pdfrwt>
<totfact> 0.92046365E+03</totfact>
</mgrwt>
</event>
<event>
 4    1  0.4319182E+000  0.1776594E+03  0.7546771E-02  0.1170088E+00
         21   -1    0    0  501  502  0.00000000000E+00  0.00000000000E+00  0.10030826444E+03  0.10030826444E+03  0.00000000000E+00 0. -1.
         21   -1    0    0  502  503 -0.00000000000E+00 -0.00000000000E+00 -0.50781473437E+03  0.50781473437E+03  0.00000000000E+00 0. -1.
          6    1    1    2  501    0 -0.40021953563E+00  0.40419047200E+02 -0.16226574448E+02  0.17839888248E+03  0.17300000000E+03 0. -1.
         -6    1    1    2    0  503  0.40021953563E+00 -0.40419047200E+02 -0.39127989548E+03  0.42972411633E+03  0.17300000000E+03 0. -1.
<mgrwt>
<rscale>  2 0.17765939E+03</rscale>
<asrwt>0</asrwt>
<pdfrwt beam="1">  1       21 0.15432040E-01 0.17765939E+03</pdfrwt>
<pdfrwt beam="2">  1       21 0.78125345E-01 0.17765939E+03</pdfrwt>
<totfact> 0.54430442E+04</totfact>
</mgrwt>
</event>
<event>
 4    1  0.4319182E+000  0.4988215E+03  0.7546771E-02  0.1014087E+00
         21   -1    0    0  501  502  0.00000000000E+00  0.00000000000E+00  0.22185701806E+03  0.22185701806E+03  0.00000000000E+00 0.  1.
         21   -1    0    0  502  503 -0.00000000000E+00 -0.00000000000E+00 -0.11955243194E+04  0.11955243194E+04  0.00000000000E+00 0. -1.
          6    1    1    2  501    0  0.38019549999E+03  0.27266323020E+03 -0.66312446451E+03  0.82979329399E+03  0.17300000000E+03 0. -1.
         -6    1    1    2    0  503 -0.38019549999E+03 -0.27266323020E+03 -0.31054283681E+03  0.58758804345E+03  0.17300000000E+03 0.  1.
<mgrwt>
<rscale>  2 0.49882147E+03</rscale>
<asrwt>0</asrwt>
<pdfrwt beam="1">  1       21 0.34131849E-01 0.49882147E+03</pdfrwt>
<pdfrwt beam="2">  1       21 0.18392682E+00 0.49882147E+03</pdfrwt>
<totfact> 0.11664465E+03</totfact>
</mgrwt>
</event>
<event>
 4    1  0.4319182E+000  0.2284673E+03  0.7546771E-02  0.1127723E+00
         21   -1    0    0  503  502  0.00000000000E+00  0.00000000000E+00  0.10965792939E+04  0.10965792939E+04  0.00000000000E+00 0. -1.
         21   -1    0    0  501  503 -0.00000000000E+00 -0.00000000000E+00 -0.57945094359E+02  0.57945094359E+02  0.00000000000E+00 0. -1.
          6    1    1    2  501    0 -0.29100601726E+02  0.14636076419E+03  0.27540729888E+03  0.35783585426E+03  0.17300000000E+03 0. -1.
         -6    1    1    2    0  502  0.29100601726E+02 -0.14636076419E+03  0.76322690065E+03  0.79668853399E+03  0.17300000000E+03 0. -1.
<mgrwt>
<rscale>  2 0.22846732E+03</rscale>
<asrwt>0</asrwt>
<pdfrwt beam="1">  1       21 0.16870449E+00 0.22846732E+03</pdfrwt>
<pdfrwt beam="2">  1       21 0.89146307E-02 0.22846732E+03</pdfrwt>
<totfact> 0.21137301E+04</totfact>
</mgrwt>
</event>
<event>
 4    1  0.4319182E+000  0.1794441E+03  0.7546771E-02  0.1168342E+00
         21   -1    0    0  503  502  0.00000000000E+00  0.00000000000E+00  0.29102239866E+02  0.29102239866E+02  0.00000000000E+00 0.  1.
         21   -1    0    0  501  503 -0.00000000000E+00 -0.00000000000E+00 -0.11066289437E+04  0.11066289437E+04  0.00000000000E+00 0.  1.
          6    1    1    2  501    0  0.26790727703E+00 -0.47656240738E+02 -0.54597350951E+03  0.57470623987E+03  0.17300000000E+03 0.  1.
         -6    1    1    2    0  502 -0.26790727703E+00  0.47656240738E+02 -0.53155319430E+03  0.56102494367E+03  0.17300000000E+03 0.  1.
<mgrwt>
<rscale>  2 0.17944411E+03</rscale>
<asrwt>0</asrwt>
<pdfrwt beam="1">  1       21 0.44772677E-02 0.17944411E+03</pdfrwt>
<pdfrwt beam="2">  1       21 0.17025061E+00 0.17944411E+03</pdfrwt>
<totfact> 0.69409214E+04</totfact>
</mgrwt>
</event>
<event>
 4    1  0.4319182E+000  0.1939555E+03  0.7546771E-02  0.1154941E+00
         21   -1    0    0  503  502  0.00000000000E+00  0.00000000000E+00  0.60864948607E+03  0.60864948607E+03  0.00000000000E+00 0.  1.
         21   -1    0    0  501  503 -0.00000000000E+00 -0.00000000000E+00 -0.68357148584E+02  0.68357148584E+02  0.00000000000E+00 0.  1.
          6    1    1    2  501    0 -0.50850806034E+01  0.87543628162E+02  0.16536108327E+03  0.25487846660E+03  0.17300000000E+03 0.  1.
         -6    1    1    2    0  502  0.50850806034E+01 -0.87543628162E+02  0.37493125421E+03  0.42212816805E+03  0.17300000000E+03 0.  1.
<mgrwt>
<rscale>  2 0.19395552E+03</rscale>
<asrwt>0</asrwt>
<pdfrwt beam="1">  1       21 0.93638379E-01 0.19395552E+03</pdfrwt>
<pdfrwt beam="2">  1       21 0.10516485E-01 0.19395552E+03</pdfrwt>
<totfact> 0.71080279E+04</totfact>
</mgrwt>
</event>
<event>
 4    1  0.4319182E+000  0.2282059E+03  0.7546771E-02  0.1127909E+00
         21   -1    0    0  501  502  0.00000000000E+00  0.00000000000E+00  0.81327144859E+02  0.81327144859E+02  0.00000000000E+00 0.  1.
         21   -1    0    0  502  503 -0.00000000000E+00 -0.00000000000E+00 -0.76706798734E+03  0.76706798734E+03  0.00000000000E+00 0.  1.
          6    1    1    2  501    0  0.13294669077E+03  0.66888729582E+02 -0.17045800739E+03  0.28484005515E+03  0.17300000000E+03 0.  1.
         -6    1    1    2    0  503 -0.13294669077E+03 -0.66888729582E+02 -0.51528283509E+03  0.56355507706E+03  0.17300000000E+03 0.  1.
<mgrwt>
<rscale>  2 0.22820588E+03</rscale>
<asrwt>0</asrwt>
<pdfrwt beam="1">  1       21 0.12511868E-01 0.22820588E+03</pdfrwt>
<pdfrwt beam="2">  1       21 0.11801046E+00 0.22820588E+03</pdfrwt>
<totfact> 0.29373486E+04</totfact>
</mgrwt>
</event>
<event>
 4    1  0.4319182E+000  0.2099914E+03  0.7546771E-02  0.1141573E+00
         21   -1    0    0  503  502  0.00000000000E+00  0.00000000000E+00  0.15350023044E+03  0.15350023044E+03  0.00000000000E+00 0.  1.
         21   -1    0    0  501  503 -0.00000000000E+00 -0.00000000000E+00 -0.28925894735E+03  0.28925894735E+03  0.00000000000E+00 0.  1.
          6    1    1    2  501    0 -0.72320683455E+02  0.94536343424E+02 -0.49533921861E+02  0.21575451536E+03  0.17300000000E+03 0.  1.
         -6    1    1    2    0  502  0.72320683455E+02 -0.94536343424E+02 -0.86224795046E+02  0.22700466243E+03  0.17300000000E+03 0.  1.
<mgrwt>
<rscale>  2 0.20999143E+03</rscale>
<asrwt>0</asrwt>
<pdfrwt beam="1">  1       21 0.23615420E-01 0.20999143E+03</pdfrwt>
<pdfrwt beam="2">  1       21 0.44501376E-01 0.20999143E+03</pdfrwt>
<totfact> 0.81246506E+04</totfact>
</mgrwt>
</event>
<event>
 4    1  0.4319182E+000  0.2251285E+03  0.7546771E-02  0.1130116E+00
         21   -1    0    0  501  502  0.00000000000E+00  0.00000000000E+00  0.29235521117E+04  0.29235521117E+04  0.00000000000E+00 0. -1.
         21   -1    0    0  502  503 -0.00000000000E+00 -0.00000000000E+00 -0.23794005200E+02  0.23794005200E+02  0.00000000000E+00 0. -1.
          6    1    1    2  501    0 -0.56995198481E+02  0.13230785116E+03  0.22176208320E+04  0.22290188367E+04  0.17300000000E+03 0. -1.
         -6    1    1    2    0  503  0.56995198481E+02 -0.13230785116E+03  0.68213727455E+03  0.71832728019E+03  0.17300000000E+03 0. -1.
<mgrwt>
<rscale>  2 0.22512845E+03</rscale>
<asrwt>0</asrwt>
<pdfrwt beam="1">  1       21 0.44977696E+00 0.22512845E+03</pdfrwt>
<pdfrwt beam="2">  1       21 0.36606185E-02 0.22512845E+03</pdfrwt>
<totfact> 0.18121420E+03</totfact>
</mgrwt>
</event>
<event>
 4    1  0.4319182E+000  0.1730053E+03  0.7546771E-02  0.1174750E+00
         21   -1    0    0  501  502  0.00000000000E+00  0.00000000000E+00  0.42772968576E+03  0.42772968576E+03  0.00000000000E+00 0. -1.
         21   -1    0    0  502  503 -0.00000000000E+00 -0.00000000000E+00 -0.79146187011E+02  0.79146187011E+02  0.00000000000E+00 0. -1.
          6    1    1    2  501    0  0.12801773307E+01 -0.45736213604E+00  0.26055856234E+03  0.31276446800E+03  0.17300000000E+03 0. -1.
         -6    1    1    2    0  503 -0.12801773307E+01  0.45736213604E+00  0.88024936419E+02  0.19411140478E+03  0.17300000000E+03 0. -1.
<mgrwt>
<rscale>  2 0.17300534E+03</rscale>
<asrwt>0</asrwt>
<pdfrwt beam="1">  1       21 0.65804566E-01 0.17300534E+03</pdfrwt>
<pdfrwt beam="2">  1       21 0.12176337E-01 0.17300534E+03</pdfrwt>
<totfact> 0.12217773E+05</totfact>
</mgrwt>
</event>
<event>
 4    1  0.4319182E+000  0.2363131E+03  0.7546771E-02  0.1122274E+00
         21   -1    0    0  501  502  0.00000000000E+00  0.00000000000E+00  0.55144814515E+02  0.55144814515E+02  0.00000000000E+00 0. -1.
         21   -1    0    0  502  503 -0.00000000000E+00 -0.00000000000E+00 -0.10458728386E+04  0.10458728386E+04  0.00000000000E+00 0. -1.
          6    1    1    2  501    0 -0.14372835628E+02 -0.16033801870E+03 -0.39728641158E+03  0.46225572086E+03  0.17300000000E+03 0. -1.
         -6    1    1    2    0  503  0.14372835628E+02  0.16033801870E+03 -0.59344161252E+03  0.63876193227E+03  0.17300000000E+03 0. -1.
<mgrwt>
<rscale>  2 0.23631305E+03</rscale>
<asrwt>0</asrwt>
<pdfrwt beam="1">  1       21 0.84838180E-02 0.23631305E+03</pdfrwt>
<pdfrwt beam="2">  1       21 0.16090351E+00 0.23631305E+03</pdfrwt>
<totfact> 0.26138429E+04</totfact>
</mgrwt>
</event>
<event>
 4    1  0.4319182E+000  0.2173413E+03  0.7546771E-02  0.1135881E+00
         21   -1    0    0  501  502  0.00000000000E+00  0.00000000000E+00  0.10160046003E+03  0.10160046003E+03  0.00000000000E+00 0.  1.
         21   -1    0    0  502  503 -0.00000000000E+00 -0.00000000000E+00 -0.48505774007E+03  0.48505774007E+03  0.00000000000E+00 0. -1.
          6    1    1    2  501    0  0.30850173238E+02  0.12789255108E+03 -0.13197814552E+03  0.25427439648E+03  0.17300000000E+03 0. -1.
         -6    1    1    2    0  503 -0.30850173238E+02 -0.12789255108E+03 -0.25147913452E+03  0.33238380362E+03  0.17300000000E+03 0. -1.
<mgrwt>
<rscale>  2 0.21734129E+03</rscale>
<asrwt>0</asrwt>
<pdfrwt beam="1">  1       21 0.15630840E-01 0.21734129E+03</pdfrwt>
<pdfrwt beam="2">  1       21 0.74624267E-01 0.21734129E+03</pdfrwt>
<totfact> 0.57834491E+04</totfact>
</mgrwt>
</event>
<event>
 4    1  0.4319182E+000  0.2687186E+03  0.7546771E-02  0.1102015E+00
         21   -1    0    0  503  502  0.00000000000E+00  0.00000000000E+00  0.66113450574E+02  0.66113450574E+02  0.00000000000E+00 0. -1.
         21   -1    0    0  501  503 -0.00000000000E+00 -0.00000000000E+00 -0.11043415543E+04  0.11043415543E+04  0.00000000000E+00 0. -1.
          6    1    1    2  501    0  0.12437082111E+03  0.16374549128E+03 -0.45777257900E+03  0.53081580716E+03  0.17300000000E+03 0. -1.
         -6    1    1    2    0  502 -0.12437082111E+03 -0.16374549128E+03 -0.58045552473E+03  0.63963919771E+03  0.17300000000E+03 0. -1.
<mgrwt>
<rscale>  2 0.26871860E+03</rscale>
<asrwt>0</asrwt>
<pdfrwt beam="1">  1       21 0.10171301E-01 0.26871860E+03</pdfrwt>
<pdfrwt beam="2">  1       21 0.16989869E+00 0.26871860E+03</pdfrwt>
<totfact> 0.16036004E+04</totfact>
</mgrwt>
</event>
<event>
 4    1  0.4319182E+000  0.2358783E+03  0.7546771E-02  0.1122569E+00
         21   -1    0    0  503  502  0.00000000000E+00  0.00000000000E+00  0.29405562862E+03  0.29405562862E+03  0.00000000000E+00 0.  1.
         21   -1    0    0  501  503 -0.00000000000E+00 -0.00000000000E+00 -0.21407241567E+03  0.21407241567E+03  0.00000000000E+00 0. -1.
          6    1    1    2  501    0  0.15333945810E+03 -0.46867650470E+02 -0.46589981723E+02  0.24043542265E+03  0.17300000000E+03 0. -1.
         -6    1    1    2    0  502 -0.15333945810E+03  0.46867650470E+02  0.12657319467E+03  0.26769262163E+03  0.17300000000E+03 0.  1.
<mgrwt>
<rscale>  2 0.23587829E+03</rscale>
<asrwt>0</asrwt>
<pdfrwt beam="1">  1       21 0.45239327E-01 0.23587829E+03</pdfrwt>
<pdfrwt beam="2">  1       21 0.32934218E-01 0.23587829E+03</pdfrwt>
<totfact> 0.40745575E+04</totfact>
</mgrwt>
</event>
<event>
 4    1  0.4319182E+000  0.2069851E+03  0.7546771E-02  0.1143976E+00
         21   -1    0    0  503  502  0.00000000000E+00  0.00000000000E+00  0.11569850022E+03  0.11569850022E+03  0.00000000000E+00 0.  1.
         21   -1    0    0  501  503 -0.00000000000E+00 -0.00000000000E+00 -0.44106076912E+03  0.44106076912E+03  0.00000000000E+00 0.  1.
          6    1    1    2  501    0 -0.59921312158E+02  0.96557136774E+02 -0.27418572528E+03  0.34354134578E+03  0.17300000000E+03 0.  1.
         -6    1    1    2    0  502  0.59921312158E+02 -0.96557136774E+02 -0.51176543621E+02  0.21321792357E+03  0.17300000000E+03 0.  1.
<mgrwt>
<rscale>  2 0.20698513E+03</rscale>
<asrwt>0</asrwt>
<pdfrwt beam="1">  1       21 0.17799769E-01 0.20698513E+03</pdfrwt>
<pdfrwt beam="2">  1       21 0.67855505E-01 0.20698513E+03</pdfrwt>
<totfact> 0.56481131E+04</totfact>
</mgrwt>
</event>
<event>
 4    1  0.4319182E+000  0.2294629E+03  0.7546771E-02  0.1127018E+00
         21   -1    0    0  503  502  0.00000000000E+00  0.00000000000E+00  0.11310870092E+03  0.11310870092E+03  0.00000000000E+00 0.  1.
         21   -1    0    0  501  503 -0.00000000000E+00 -0.00000000000E+00 -0.84943662831E+03  0.84943662831E+03  0.00000000000E+00 0.  1.
          6    1    1    2  501    0 -0.41126961065E+02  0.14502683898E+03 -0.69172031009E+03  0.72878679896E+03  0.17300000000E+03 0.  1.
         -6    1    1    2    0  502  0.41126961065E+02 -0.14502683898E+03 -0.44607617307E+02  0.23375853027E+03  0.17300000000E+03 0.  1.
<mgrwt>
<rscale>  2 0.22946287E+03</rscale>
<asrwt>0</asrwt>
<pdfrwt beam="1">  1       21 0.17401338E-01 0.22946287E+03</pdfrwt>
<pdfrwt beam="2">  1       21 0.13068257E+00 0.22946287E+03</pdfrwt>
<totfact> 0.12437388E+04</totfact>
</mgrwt>
</event>
<event>
 4    1  0.4319182E+000  0.1803887E+03  0.7546771E-02  0.1167427E+00
         21   -1    0    0  503  502  0.00000000000E+00  0.00000000000E+00  0.40182055852E+03  0.40182055852E+03  0.00000000000E+00 0.  1.
         21   -1    0    0  501  503 -0.00000000000E+00 -0.00000000000E+00 -0.10255033567E+03  0.10255033567E+03  0.00000000000E+00 0.  1.
          6    1    1    2  501    0 -0.22907151429E+02 -0.45676413595E+02  0.33980272816E+02  0.18356124669E+03  0.17300000000E+03 0.  1.
         -6    1    1    2    0  502  0.22907151429E+02  0.45676413595E+02  0.26528995003E+03  0.32080964751E+03  0.17300000000E+03 0.  1.
<mgrwt>
<rscale>  2 0.18038867E+03</rscale>
<asrwt>0</asrwt>
<pdfrwt beam="1">  1       21 0.61818546E-01 0.18038867E+03</pdfrwt>
<pdfrwt beam="2">  1       21 0.15776975E-01 0.18038867E+03</pdfrwt>
<totfact> 0.87358484E+04</totfact>
</mgrwt>
</event>
<event>
 4    1  0.4319182E+000  0.2090970E+03  0.7546771E-02  0.1142283E+00
         21   -1    0    0  503  502  0.00000000000E+00  0.00000000000E+00  0.46772827243E+02  0.46772827243E+02  0.00000000000E+00 0.  1.
         21   -1    0    0  501  503 -0.00000000000E+00 -0.00000000000E+00 -0.10246072396E+04  0.10246072396E+04  0.00000000000E+00 0. -1.
          6    1    1    2  501    0  0.59293882714E+02 -0.10137455361E+03 -0.64754418899E+03  0.68046678196E+03  0.17300000000E+03 0. -1.
         -6    1    1    2    0  502 -0.59293882714E+02  0.10137455361E+03 -0.33029022334E+03  0.39091328486E+03  0.17300000000E+03 0.  1.
<mgrwt>
<rscale>  2 0.20909702E+03</rscale>
<asrwt>0</asrwt>
<pdfrwt beam="1">  1       21 0.71958200E-02 0.20909702E+03</pdfrwt>
<pdfrwt beam="2">  1       21 0.15763187E+00 0.20909702E+03</pdfrwt>
<totfact> 0.37410738E+04</totfact>
</mgrwt>
</event>
<event>
 4    1  0.4319182E+000  0.2124390E+03  0.7546771E-02  0.1139649E+00
         21   -1    0    0  503  502  0.00000000000E+00  0.00000000000E+00  0.10819633918E+03  0.10819633918E+03  0.00000000000E+00 0. -1.
         21   -1    0    0  501  503 -0.00000000000E+00 -0.00000000000E+00 -0.66320151573E+03  0.66320151573E+03  0.00000000000E+00 0.  1.
          6    1    1    2  501    0  0.59270529857E+02 -0.10811262839E+03 -0.51244932687E+03  0.55473836061E+03  0.17300000000E+03 0.  1.
         -6    1    1    2    0  502 -0.59270529857E+02  0.10811262839E+03 -0.42555849688E+02  0.21665949430E+03  0.17300000000E+03 0. -1.
<mgrwt>
<rscale>  2 0.21243902E+03</rscale>
<asrwt>0</asrwt>
<pdfrwt beam="1">  1       21 0.16645591E-01 0.21243902E+03</pdfrwt>
<pdfrwt beam="2">  1       21 0.10203100E+00 0.21243902E+03</pdfrwt>
<totfact> 0.25084548E+04</totfact>
</mgrwt>
</event>
<event>
 4    1  0.4319182E+000  0.1972104E+03  0.7546771E-02  0.1152114E+00
         21   -1    0    0  503  502  0.00000000000E+00  0.00000000000E+00  0.24712963790E+03  0.24712963790E+03  0.00000000000E+00 0. -1.
         21   -1    0    0  501  503 -0.00000000000E+00 -0.00000000000E+00 -0.16039174109E+03  0.16039174109E+03  0.00000000000E+00 0. -1.
          6    1    1    2  501    0  0.92122243471E+02 -0.21827129297E+02  0.15422525983E+02  0.19781250118E+03  0.17300000000E+03 0. -1.
         -6    1    1    2    0  502 -0.92122243471E+02  0.21827129297E+02  0.71315370831E+02  0.20970887781E+03  0.17300000000E+03 0. -1.
<mgrwt>
<rscale>  2 0.19721037E+03</rscale>
<asrwt>0</asrwt>
<pdfrwt beam="1">  1       21 0.38019944E-01 0.19721037E+03</pdfrwt>
<pdfrwt beam="2">  1       21 0.24675653E-01 0.19721037E+03</pdfrwt>
<totfact> 0.10341627E+05</totfact>
</mgrwt>
</event>
<event>
 4    1  0.4319182E+000  0.2867484E+03  0.7546771E-02  0.1092059E+00
         21   -1    0    0  503  502  0.00000000000E+00  0.00000000000E+00  0.41744641234E+03  0.41744641234E+03  0.00000000000E+00 0. -1.
         21   -1    0    0  501  503 -0.00000000000E+00 -0.00000000000E+00 -0.41976698656E+03  0.41976698656E+03  0.00000000000E+00 0. -1.
          6    1    1    2  501    0 -0.18690257868E+03  0.13176900314E+03 -0.30612961835E+03  0.41945200838E+03  0.17300000000E+03 0. -1.
         -6    1    1    2    0  502  0.18690257868E+03 -0.13176900314E+03  0.30380904413E+03  0.41776139051E+03  0.17300000000E+03 0. -1.
<mgrwt>
<rscale>  2 0.28674840E+03</rscale>
<asrwt>0</asrwt>
<pdfrwt beam="1">  1       21 0.64222525E-01 0.28674840E+03</pdfrwt>
<pdfrwt beam="2">  1       21 0.64579537E-01 0.28674840E+03</pdfrwt>
<totfact> 0.46486517E+03</totfact>
</mgrwt>
</event>
<event>
 4    1  0.4319182E+000  0.1948014E+03  0.7546771E-02  0.1154201E+00
         21   -1    0    0  503  502  0.00000000000E+00  0.00000000000E+00  0.93581898153E+02  0.93581898153E+02  0.00000000000E+00 0.  1.
         21   -1    0    0  501  503 -0.00000000000E+00 -0.00000000000E+00 -0.53960677542E+03  0.53960677542E+03  0.00000000000E+00 0. -1.
          6    1    1    2  501    0 -0.79933457047E+02 -0.40363478044E+02 -0.38084184846E+03  0.42777106196E+03  0.17300000000E+03 0. -1.
         -6    1    1    2    0  502  0.79933457047E+02  0.40363478044E+02 -0.65183028810E+02  0.20541761161E+03  0.17300000000E+03 0.  1.
<mgrwt>
<rscale>  2 0.19480136E+03</rscale>
<asrwt>0</asrwt>
<pdfrwt beam="1">  1       21 0.14397215E-01 0.19480136E+03</pdfrwt>
<pdfrwt beam="2">  1       21 0.83016426E-01 0.19480136E+03</pdfrwt>
<totfact> 0.53394162E+04</totfact>
</mgrwt>
</event>
<event>
 4    1  0.4319182E+000  0.1939780E+03  0.7546771E-02  0.1154922E+00
         21   -1    0    0  501  502  0.00000000000E+00  0.00000000000E+00  0.40901903499E+03  0.40901903499E+03  0.00000000000E+00 0.  1.
         21   -1    0    0  502  503 -0.00000000000E+00 -0.00000000000E+00 -0.16108981205E+03  0.16108981205E+03  0.00000000000E+00 0. -1.
          6    1    1    2  501    0 -0.77587617127E+02  0.40971224269E+02  0.31065338744E+03  0.36624173257E+03  0.17300000000E+03 0.  1.
         -6    1    1    2    0  503  0.77587617127E+02 -0.40971224269E+02 -0.62724164493E+02  0.20386711447E+03  0.17300000000E+03 0. -1.
<mgrwt>
<rscale>  2 0.19397804E+03</rscale>
<asrwt>0</asrwt>
<pdfrwt beam="1">  1       21 0.62926005E-01 0.19397804E+03</pdfrwt>
<pdfrwt beam="2">  1       21 0.24783048E-01 0.19397804E+03</pdfrwt>
<totfact> 0.35990241E+04</totfact>
</mgrwt>
</event>
<event>
 4    1  0.4319182E+000  0.2187476E+03  0.7546771E-02  0.1134820E+00
         21   -1    0    0  501  502  0.00000000000E+00  0.00000000000E+00  0.46615943046E+03  0.46615943046E+03  0.00000000000E+00 0. -1.
         21   -1    0    0  502  503 -0.00000000000E+00 -0.00000000000E+00 -0.10677703027E+03  0.10677703027E+03  0.00000000000E+00 0.  1.
          6    1    1    2  501    0  0.90660006405E+02 -0.98500082270E+02  0.23602154732E+03  0.32180222773E+03  0.17300000000E+03 0. -1.
         -6    1    1    2    0  503 -0.90660006405E+02  0.98500082270E+02  0.12336085286E+03  0.25113423301E+03  0.17300000000E+03 0.  1.
<mgrwt>
<rscale>  2 0.21874758E+03</rscale>
<asrwt>0</asrwt>
<pdfrwt beam="1">  1       21 0.71716834E-01 0.21874758E+03</pdfrwt>
<pdfrwt beam="2">  1       21 0.16427236E-01 0.21874758E+03</pdfrwt>
<totfact> 0.57646697E+04</totfact>
</mgrwt>
</event>
<event>
 4    1  0.4319182E+000  0.1868976E+03  0.7546771E-02  0.1161290E+00
         21   -1    0    0  501  502  0.00000000000E+00  0.00000000000E+00  0.57657871536E+03  0.57657871536E+03  0.00000000000E+00 0.  1.
         21   -1    0    0  502  503 -0.00000000000E+00 -0.00000000000E+00 -0.13396602516E+03  0.13396602516E+03  0.00000000000E+00 0.  1.
          6    1    1    2  501    0  0.39899016037E+02  0.58393242597E+02  0.48425003637E+03  0.51906531380E+03  0.17300000000E+03 0.  1.
         -6    1    1    2    0  503 -0.39899016037E+02 -0.58393242597E+02 -0.41637346164E+02  0.19147942672E+03  0.17300000000E+03 0.  1.
<mgrwt>
<rscale>  2 0.18689757E+03</rscale>
<asrwt>0</asrwt>
<pdfrwt beam="1">  1       21 0.88704416E-01 0.18689757E+03</pdfrwt>
<pdfrwt beam="2">  1       21 0.20610158E-01 0.18689757E+03</pdfrwt>
<totfact> 0.23786045E+04</totfact>
</mgrwt>
</event>
<event>
 4    1  0.4319182E+000  0.2192722E+03  0.7546771E-02  0.1134427E+00
         21   -1    0    0  503  502  0.00000000000E+00  0.00000000000E+00  0.18740215308E+03  0.18740215308E+03  0.00000000000E+00 0.  1.
         21   -1    0    0  501  503 -0.00000000000E+00 -0.00000000000E+00 -0.25794339647E+03  0.25794339647E+03  0.00000000000E+00 0.  1.
          6    1    1    2  501    0  0.11417981905E+01  0.13472194509E+03 -0.51564885054E+02  0.22525373152E+03  0.17300000000E+03 0.  1.
         -6    1    1    2    0  502 -0.11417981905E+01 -0.13472194509E+03 -0.18976358336E+02  0.22009181804E+03  0.17300000000E+03 0.  1.
<mgrwt>
<rscale>  2 0.21927222E+03</rscale>
<asrwt>0</asrwt>
<pdfrwt beam="1">  1       21 0.28831100E-01 0.21927222E+03</pdfrwt>
<pdfrwt beam="2">  1       21 0.39683599E-01 0.21927222E+03</pdfrwt>
<totfact> 0.69655588E+04</totfact>
</mgrwt>
</event>
<event>
 4    1  0.4319182E+000  0.1869802E+03  0.7546771E-02  0.1161213E+00
         21   -1    0    0  501  502  0.00000000000E+00  0.00000000000E+00  0.21405316820E+03  0.21405316820E+03  0.00000000000E+00 0.  1.
         21   -1    0    0  502  503 -0.00000000000E+00 -0.00000000000E+00 -0.30941234695E+03  0.30941234695E+03  0.00000000000E+00 0.  1.
          6    1    1    2  501    0 -0.23197557742E+02  0.67040926535E+02 -0.22751946225E+03  0.29449400370E+03  0.17300000000E+03 0.  1.
         -6    1    1    2    0  503  0.23197557742E+02 -0.67040926535E+02  0.13216028350E+03  0.22897151144E+03  0.17300000000E+03 0.  1.
<mgrwt>
<rscale>  2 0.18698025E+03</rscale>
<asrwt>0</asrwt>
<pdfrwt beam="1">  1       21 0.32931257E-01 0.18698025E+03</pdfrwt>
<pdfrwt beam="2">  1       21 0.47601899E-01 0.18698025E+03</pdfrwt>
<totfact> 0.37569477E+04</totfact>
</mgrwt>
</event>
<event>
 4    1  0.4319182E+000  0.2570252E+03  0.7546771E-02  0.1108944E+00
         21   -1    0    0  503  502  0.00000000000E+00  0.00000000000E+00  0.65765905266E+02  0.65765905266E+02  0.00000000000E+00 0. -1.
         21   -1    0    0  501  503 -0.00000000000E+00 -0.00000000000E+00 -0.10123213251E+04  0.10123213251E+04  0.00000000000E+00 0. -1.
          6    1    1    2  501    0 -0.18041749005E+03 -0.59853720033E+02 -0.52065478956E+03  0.58064046398E+03  0.17300000000E+03 0. -1.
         -6    1    1    2    0  502  0.18041749005E+03  0.59853720033E+02 -0.42590063023E+03  0.49744676635E+03  0.17300000000E+03 0. -1.
<mgrwt>
<rscale>  2 0.25702517E+03</rscale>
<asrwt>0</asrwt>
<pdfrwt beam="1">  1       21 0.10117832E-01 0.25702517E+03</pdfrwt>
<pdfrwt beam="2">  1       21 0.15574173E+00 0.25702517E+03</pdfrwt>
<totfact> 0.20685643E+04</totfact>
</mgrwt>
</event>
<event>
 4    1  0.4319182E+000  0.1788074E+03  0.7546771E-02  0.1168962E+00
         21   -1    0    0  501  502  0.00000000000E+00  0.00000000000E+00  0.20840057913E+03  0.20840057913E+03  0.00000000000E+00 0.  1.
         21   -1    0    0  502  503 -0.00000000000E+00 -0.00000000000E+00 -0.15536867919E+03  0.15536867919E+03  0.00000000000E+00 0.  1.
          6    1    1    2  501    0  0.27202476026E+02 -0.36098405080E+02  0.61275260957E+01  0.17891231407E+03  0.17300000000E+03 0.  1.
         -6    1    1    2    0  503 -0.27202476026E+02  0.36098405080E+02  0.46904373835E+02  0.18485694425E+03  0.17300000000E+03 0.  1.
<mgrwt>
<rscale>  2 0.17880735E+03</rscale>
<asrwt>0</asrwt>
<pdfrwt beam="1">  1       21 0.32061628E-01 0.17880735E+03</pdfrwt>
<pdfrwt beam="2">  1       21 0.23902874E-01 0.17880735E+03</pdfrwt>
<totfact> 0.15505238E+05</totfact>
</mgrwt>
</event>
<event>
 4    1  0.4319182E+000  0.2087911E+03  0.7546771E-02  0.1142527E+00
         21   -1    0    0  503  502  0.00000000000E+00  0.00000000000E+00  0.11238752967E+04  0.11238752967E+04  0.00000000000E+00 0. -1.
         21   -1    0    0  501  503 -0.00000000000E+00 -0.00000000000E+00 -0.12498174833E+03  0.12498174833E+03  0.00000000000E+00 0. -1.
          6    1    1    2  501    0  0.70736854094E+02 -0.93064568902E+02 -0.19108949241E+02  0.20966370323E+03  0.17300000000E+03 0. -1.
         -6    1    1    2    0  502 -0.70736854094E+02  0.93064568902E+02  0.10180024977E+04  0.10391933418E+04  0.17300000000E+03 0. -1.
<mgrwt>
<rscale>  2 0.20879108E+03</rscale>
<asrwt>0</asrwt>
<pdfrwt beam="1">  1       21 0.17290388E+00 0.20879108E+03</pdfrwt>
<pdfrwt beam="2">  1       21 0.19227962E-01 0.20879108E+03</pdfrwt>
<totfact> 0.49886574E+03</totfact>
</mgrwt>
</event>
<event>
 4    1  0.4319182E+000  0.1984228E+03  0.7546771E-02  0.1151077E+00
         21   -1    0    0  501  502  0.00000000000E+00  0.00000000000E+00  0.18409795808E+04  0.18409795808E+04  0.00000000000E+00 0.  1.
         21   -1    0    0  502  503 -0.00000000000E+00 -0.00000000000E+00 -0.35583775267E+02  0.35583775267E+02  0.00000000000E+00 0.  1.
          6    1    1    2  501    0  0.84618238092E+02  0.47774073110E+02  0.14953691965E+04  0.15084762651E+04  0.17300000000E+03 0.  1.
         -6    1    1    2    0  503 -0.84618238092E+02 -0.47774073110E+02  0.31002660895E+03  0.36808709097E+03  0.17300000000E+03 0.  1.
<mgrwt>
<rscale>  2 0.19842280E+03</rscale>
<asrwt>0</asrwt>
<pdfrwt beam="1">  1       21 0.28322755E+00 0.19842280E+03</pdfrwt>
<pdfrwt beam="2">  1       21 0.54744284E-02 0.19842280E+03</pdfrwt>
<totfact> 0.97730270E+03</totfact>
</mgrwt>
</event>
<event>
 4    1  0.4319182E+000  0.2138834E+03  0.7546771E-02  0.1138527E+00
         21   -1    0    0  503  502  0.00000000000E+00  0.00000000000E+00  0.67164212448E+02  0.67164212448E+02  0.00000000000E+00 0. -1.
         21   -1    0    0  501  503 -0.00000000000E+00 -0.00000000000E+00 -0.89155603709E+03  0.89155603709E+03  0.00000000000E+00 0. -1.
          6    1    1    2  501    0 -0.12217954273E+03 -0.29820579750E+02 -0.64509062781E+03  0.67962344407E+03  0.17300000000E+03 0. -1.
         -6    1    1    2    0  502  0.12217954273E+03  0.29820579750E+02 -0.17930119683E+03  0.27909680547E+03  0.17300000000E+03 0. -1.
<mgrwt>
<rscale>  2 0.21388340E+03</rscale>
<asrwt>0</asrwt>
<pdfrwt beam="1">  1       21 0.10332955E-01 0.21388340E+03</pdfrwt>
<pdfrwt beam="2">  1       21 0.13716247E+00 0.21388340E+03</pdfrwt>
<totfact> 0.28518748E+04</totfact>
</mgrwt>
</event>
<event>
 4    1  0.4319182E+000  0.1970522E+03  0.7546771E-02  0.1152250E+00
         21   -1    0    0  503  502  0.00000000000E+00  0.00000000000E+00  0.12274412385E+03  0.12274412385E+03  0.00000000000E+00 0.  1.
         21   -1    0    0  501  503 -0.00000000000E+00 -0.00000000000E+00 -0.37871307854E+03  0.37871307854E+03  0.00000000000E+00 0. -1.
          6    1    1    2  501    0 -0.52019049568E+02  0.78705816190E+02 -0.22973277510E+03  0.30266604530E+03  0.17300000000E+03 0. -1.
         -6    1    1    2    0  502  0.52019049568E+02 -0.78705816190E+02 -0.26236179590E+02  0.19879115710E+03  0.17300000000E+03 0.  1.
<mgrwt>
<rscale>  2 0.19705224E+03</rscale>
<asrwt>0</asrwt>
<pdfrwt beam="1">  1       21 0.18883712E-01 0.19705224E+03</pdfrwt>
<pdfrwt beam="2">  1       21 0.58263550E-01 0.19705224E+03</pdfrwt>
<totfact> 0.70751035E+04</totfact>
</mgrwt>
</event>
<event>
 4    1  0.4319182E+000  0.1738768E+03  0.7546771E-02  0.1173864E+00
         21   -1    0    0  501  502  0.00000000000E+00  0.00000000000E+00  0.27607299035E+02  0.27607299035E+02  0.00000000000E+00 0.  1.
         21   -1    0    0  502  503 -0.00000000000E+00 -0.00000000000E+00 -0.11151950505E+04  0.11151950505E+04  0.00000000000E+00 0.  1.
          6    1    1    2  501    0 -0.12627539088E+02  0.12028521319E+02 -0.62046975632E+03  0.64437245330E+03  0.17300000000E+03 0.  1.
         -6    1    1    2    0  503  0.12627539088E+02 -0.12028521319E+02 -0.46711799512E+03  0.49842989621E+03  0.17300000000E+03 0.  1.
<mgrwt>
<rscale>  2 0.17387680E+03</rscale>
<asrwt>0</asrwt>
<pdfrwt beam="1">  1       21 0.42472771E-02 0.17387680E+03</pdfrwt>
<pdfrwt beam="2">  1       21 0.17156845E+00 0.17387680E+03</pdfrwt>
<totfact> 0.74490957E+04</totfact>
</mgrwt>
</event>
<event>
 4    1  0.4319182E+000  0.1996151E+03  0.7546771E-02  0.1150064E+00
         21   -1    0    0  501  502  0.00000000000E+00  0.00000000000E+00  0.22217301188E+04  0.22217301188E+04  0.00000000000E+00 0.  1.
         21   -1    0    0  502  503 -0.00000000000E+00 -0.00000000000E+00 -0.23326596287E+02  0.23326596287E+02  0.00000000000E+00 0. -1.
          6    1    1    2  501    0  0.77561839451E+02 -0.62460730546E+02  0.16388866388E+04  0.16509983636E+04  0.17300000000E+03 0.  1.
         -6    1    1    2    0  503 -0.77561839451E+02  0.62460730546E+02  0.55951688368E+03  0.59405835145E+03  0.17300000000E+03 0. -1.
<mgrwt>
<rscale>  2 0.19961508E+03</rscale>
<asrwt>0</asrwt>
<pdfrwt beam="1">  1       21 0.34180447E+00 0.19961508E+03</pdfrwt>
<pdfrwt beam="2">  1       21 0.35887089E-02 0.19961508E+03</pdfrwt>
<totfact> 0.91058040E+03</totfact>
</mgrwt>
</event>
<event>
 4    1  0.4319182E+000  0.1872482E+03  0.7546771E-02  0.1160967E+00
         21   -1    0    0  501  502  0.00000000000E+00  0.00000000000E+00  0.44874977477E+02  0.44874977477E+02  0.00000000000E+00 0.  1.
         21   -1    0    0  502  503 -0.00000000000E+00 -0.00000000000E+00 -0.78343501666E+03  0.78343501666E+03  0.00000000000E+00 0. -1.
          6    1    1    2  501    0 -0.50039584072E+02 -0.51272982818E+02 -0.39078053502E+03  0.43332586501E+03  0.17300000000E+03 0. -1.
         -6    1    1    2    0  503  0.50039584072E+02  0.51272982818E+02 -0.34777950416E+03  0.39498412912E+03  0.17300000000E+03 0.  1.
<mgrwt>
<rscale>  2 0.18724817E+03</rscale>
<asrwt>0</asrwt>
<pdfrwt beam="1">  1       21 0.69038432E-02 0.18724817E+03</pdfrwt>
<pdfrwt beam="2">  1       21 0.12052846E+00 0.18724817E+03</pdfrwt>
<totfact> 0.81127053E+04</totfact>
</mgrwt>
</event>
<event>
 4    1  0.4319182E+000  0.1814874E+03  0.7546771E-02  0.1166371E+00
         21   -1    0    0  503  502  0.00000000000E+00  0.00000000000E+00  0.16898075709E+03  0.16898075709E+03  0.00000000000E+00 0.  1.
         21   -1    0    0  501  503 -0.00000000000E+00 -0.00000000000E+00 -0.29086246394E+03  0.29086246394E+03  0.00000000000E+00 0.  1.
          6    1    1    2  501    0  0.25361938077E+02  0.48635707452E+02 -0.19299204198E+03  0.26492185303E+03  0.17300000000E+03 0.  1.
         -6    1    1    2    0  502 -0.25361938077E+02 -0.48635707452E+02  0.71110335126E+02  0.19492136800E+03  0.17300000000E+03 0.  1.
<mgrwt>
<rscale>  2 0.18148735E+03</rscale>
<asrwt>0</asrwt>
<pdfrwt beam="1">  1       21 0.25997040E-01 0.18148735E+03</pdfrwt>
<pdfrwt beam="2">  1       21 0.44748071E-01 0.18148735E+03</pdfrwt>
<totfact> 0.67696509E+04</totfact>
</mgrwt>
</event>
<event>
 4    1  0.4319182E+000  0.1840921E+03  0.7546771E-02  0.1163900E+00
         21   -1    0    0  503  502  0.00000000000E+00  0.00000000000E+00  0.93970277552E+02  0.93970277552E+02  0.00000000000E+00 0.  1.
         21   -1    0    0  501  503 -0.00000000000E+00 -0.00000000000E+00 -0.46881616178E+03  0.46881616178E+03  0.00000000000E+00 0.  1.
          6    1    1    2  501    0  0.58151041087E+02 -0.24069832628E+02 -0.32258920573E+03  0.37142118421E+03  0.17300000000E+03 0.  1.
         -6    1    1    2    0  502 -0.58151041087E+02  0.24069832628E+02 -0.52256678497E+02  0.19136525513E+03  0.17300000000E+03 0.  1.
<mgrwt>
<rscale>  2 0.18409210E+03</rscale>
<asrwt>0</asrwt>
<pdfrwt beam="1">  1       21 0.14456966E-01 0.18409210E+03</pdfrwt>
<pdfrwt beam="2">  1       21 0.72125563E-01 0.18409210E+03</pdfrwt>
<totfact> 0.73019770E+04</totfact>
</mgrwt>
</event>
<event>
 4    1  0.4319182E+000  0.1791523E+03  0.7546771E-02  0.1168626E+00
         21   -1    0    0  503  502  0.00000000000E+00  0.00000000000E+00  0.32273854251E+03  0.32273854251E+03  0.00000000000E+00 0. -1.
         21   -1    0    0  501  503 -0.00000000000E+00 -0.00000000000E+00 -0.99453393264E+02  0.99453393264E+02  0.00000000000E+00 0. -1.
          6    1    1    2  501    0 -0.44839023609E+02  0.12489959358E+02  0.11326929828E+03  0.21195629516E+03  0.17300000000E+03 0. -1.
         -6    1    1    2    0  502  0.44839023609E+02 -0.12489959358E+02  0.11001585097E+03  0.21023564062E+03  0.17300000000E+03 0. -1.
<mgrwt>
<rscale>  2 0.17915227E+03</rscale>
<asrwt>0</asrwt>
<pdfrwt beam="1">  1       21 0.49652083E-01 0.17915227E+03</pdfrwt>
<pdfrwt beam="2">  1       21 0.15300522E-01 0.17915227E+03</pdfrwt>
<totfact> 0.14693329E+05</totfact>
</mgrwt>
</event>
<event>
 4    1  0.4319182E+000  0.2141716E+03  0.7546771E-02  0.1138305E+00
         21   -1    0    0  503  502  0.00000000000E+00  0.00000000000E+00  0.31045972074E+03  0.31045972074E+03  0.00000000000E+00 0.  1.
         21   -1    0    0  501  503 -0.00000000000E+00 -0.00000000000E+00 -0.23567194603E+03  0.23567194603E+03  0.00000000000E+00 0. -1.
          6    1    1    2  501    0  0.52709622817E+02  0.11472641328E+03 -0.12939602409E+03  0.25022546891E+03  0.17300000000E+03 0. -1.
         -6    1    1    2    0  502 -0.52709622817E+02 -0.11472641328E+03  0.20418379880E+03  0.29590619786E+03  0.17300000000E+03 0.  1.
<mgrwt>
<rscale>  2 0.21417155E+03</rscale>
<asrwt>0</asrwt>
<pdfrwt beam="1">  1       21 0.47763034E-01 0.21417155E+03</pdfrwt>
<pdfrwt beam="2">  1       21 0.36257222E-01 0.21417155E+03</pdfrwt>
<totfact> 0.30387797E+04</totfact>
</mgrwt>
</event>
<event>
 4    1  0.4319182E+000  0.1887923E+03  0.7546771E-02  0.1159555E+00
         21   -1    0    0  503  502  0.00000000000E+00  0.00000000000E+00  0.66128095062E+02  0.66128095062E+02  0.00000000000E+00 0. -1.
         21   -1    0    0  501  503 -0.00000000000E+00 -0.00000000000E+00 -0.59321243931E+03  0.59321243931E+03  0.00000000000E+00 0. -1.
          6    1    1    2  501    0  0.52055987673E+02  0.54805973614E+02 -0.36321018162E+03  0.40934601088E+03  0.17300000000E+03 0.  1.
         -6    1    1    2    0  502 -0.52055987673E+02 -0.54805973614E+02 -0.16387416263E+03  0.24999452349E+03  0.17300000000E+03 0.  1.
<mgrwt>
<rscale>  2 0.18879227E+03</rscale>
<asrwt>0</asrwt>
<pdfrwt beam="1">  1       21 0.10173553E-01 0.18879227E+03</pdfrwt>
<pdfrwt beam="2">  1       21 0.91263453E-01 0.18879227E+03</pdfrwt>
<totfact> 0.80200160E+04</totfact>
</mgrwt>
</event>
<event>
 4    1  0.4319182E+000  0.1803762E+03  0.7546771E-02  0.1167439E+00
         21   -1    0    0  501  502  0.00000000000E+00  0.00000000000E+00  0.77489625838E+02  0.77489625838E+02  0.00000000000E+00 0. -1.
         21   -1    0    0  502  503 -0.00000000000E+00 -0.00000000000E+00 -0.42175718603E+03  0.42175718603E+03  0.00000000000E+00 0.  1.
          6    1    1    2  501    0  0.49933635171E+02 -0.10639173850E+02 -0.15543536840E+03  0.23810861742E+03  0.17300000000E+03 0.  1.
         -6    1    1    2    0  503 -0.49933635171E+02  0.10639173850E+02 -0.18883219179E+03  0.26113819445E+03  0.17300000000E+03 0.  1.
<mgrwt>
<rscale>  2 0.18037616E+03</rscale>
<asrwt>0</asrwt>
<pdfrwt beam="1">  1       21 0.11921481E-01 0.18037616E+03</pdfrwt>
<pdfrwt beam="2">  1       21 0.64885720E-01 0.18037616E+03</pdfrwt>
<totfact> 0.13046431E+05</totfact>
</mgrwt>
</event>
<event>
 4    1  0.4319182E+000  0.2261432E+03  0.7546771E-02  0.1129384E+00
         21   -1    0    0  503  502  0.00000000000E+00  0.00000000000E+00  0.27408623698E+03  0.27408623698E+03  0.00000000000E+00 0. -1.
         21   -1    0    0  501  503 -0.00000000000E+00 -0.00000000000E+00 -0.20149412809E+03  0.20149412809E+03  0.00000000000E+00 0. -1.
          6    1    1    2  501    0  0.13238258639E+03  0.60717489932E+02 -0.28383725450E+02  0.22791752595E+03  0.17300000000E+03 0. -1.
         -6    1    1    2    0  502 -0.13238258639E+03 -0.60717489932E+02  0.10097583434E+03  0.24766283913E+03  0.17300000000E+03 0. -1.
<mgrwt>
<rscale>  2 0.22614324E+03</rscale>
<asrwt>0</asrwt>
<pdfrwt beam="1">  1       21 0.42167114E-01 0.22614324E+03</pdfrwt>
<pdfrwt beam="2">  1       21 0.30999096E-01 0.22614324E+03</pdfrwt>
<totfact> 0.53274077E+04</totfact>
</mgrwt>
</event>
<event>
 4    1  0.4319182E+000  0.2133319E+03  0.7546771E-02  0.1138954E+00
         21   -1    0    0  501  502  0.00000000000E+00  0.00000000000E+00  0.53115916348E+03  0.53115916348E+03  0.00000000000E+00 0. -1.
         21   -1    0    0  502  503 -0.00000000000E+00 -0.00000000000E+00 -0.91510489984E+02  0.91510489984E+02  0.00000000000E+00 0. -1.
          6    1    1    2  501    0 -0.12421069418E+03 -0.12378158943E+02  0.14124853635E+03  0.25585477207E+03  0.17300000000E+03 0. -1.
         -6    1    1    2    0  503  0.12421069418E+03  0.12378158943E+02  0.29840013714E+03  0.36681488139E+03  0.17300000000E+03 0. -1.
<mgrwt>
<rscale>  2 0.21333194E+03</rscale>
<asrwt>0</asrwt>
<pdfrwt beam="1">  1       21 0.81716792E-01 0.21333194E+03</pdfrwt>
<pdfrwt beam="2">  1       21 0.14078537E-01 0.21333194E+03</pdfrwt>
<totfact> 0.57128429E+04</totfact>
</mgrwt>
</event>
<event>
 4    1  0.4319182E+000  0.2208061E+03  0.7546771E-02  0.1133283E+00
         21   -1    0    0  501  502  0.00000000000E+00  0.00000000000E+00  0.76236506053E+02  0.76236506053E+02  0.00000000000E+00 0.  1.
         21   -1    0    0  502  503 -0.00000000000E+00 -0.00000000000E+00 -0.19307204312E+04  0.19307204312E+04  0.00000000000E+00 0. -1.
          6    1    1    2  501    0  0.13709827285E+03 -0.55148315168E+01 -0.10661852760E+03  0.24519963338E+03  0.17300000000E+03 0.  1.
         -6    1    1    2    0  503 -0.13709827285E+03  0.55148315168E+01 -0.17478653976E+04  0.17617573039E+04  0.17300000000E+03 0. -1.
<mgrwt>
<rscale>  2 0.22080614E+03</rscale>
<asrwt>0</asrwt>
<pdfrwt beam="1">  1       21 0.11728693E-01 0.22080614E+03</pdfrwt>
<pdfrwt beam="2">  1       21 0.29703391E+00 0.22080614E+03</pdfrwt>
<totfact> 0.20992561E+03</totfact>
</mgrwt>
</event>
<event>
 4    1  0.4319182E+000  0.2636739E+03  0.7546771E-02  0.1104956E+00
         21   -1    0    0  503  502  0.00000000000E+00  0.00000000000E+00  0.59447040896E+03  0.59447040896E+03  0.00000000000E+00 0. -1.
         21   -1    0    0  501  503 -0.00000000000E+00 -0.00000000000E+00 -0.19591106866E+03  0.19591106866E+03  0.00000000000E+00 0.  1.
          6    1    1    2  501    0  0.66526757195E+02  0.18753423780E+03 -0.51609013027E+02  0.26867711104E+03  0.17300000000E+03 0.  1.
         -6    1    1    2    0  502 -0.66526757195E+02 -0.18753423780E+03  0.45016835333E+03  0.52170436658E+03  0.17300000000E+03 0. -1.
<mgrwt>
<rscale>  2 0.26367385E+03</rscale>
<asrwt>0</asrwt>
<pdfrwt beam="1">  1       21 0.91456985E-01 0.26367385E+03</pdfrwt>
<pdfrwt beam="2">  1       21 0.30140165E-01 0.26367385E+03</pdfrwt>
<totfact> 0.10233701E+04</totfact>
</mgrwt>
</event>
<event>
 4    1  0.4319182E+000  0.1769969E+03  0.7546771E-02  0.1170741E+00
         21   -1    0    0  501  502  0.00000000000E+00  0.00000000000E+00  0.56704091394E+03  0.56704091394E+03  0.00000000000E+00 0. -1.
         21   -1    0    0  502  503 -0.00000000000E+00 -0.00000000000E+00 -0.73701977332E+02  0.73701977332E+02  0.00000000000E+00 0. -1.
          6    1    1    2  501    0  0.12614150444E+02 -0.35210630535E+02  0.40697873341E+03  0.44380130097E+03  0.17300000000E+03 0.  1.
         -6    1    1    2    0  503 -0.12614150444E+02  0.35210630535E+02  0.86360203198E+02  0.19694159030E+03  0.17300000000E+03 0.  1.
<mgrwt>
<rscale>  2 0.17699691E+03</rscale>
<asrwt>0</asrwt>
<pdfrwt beam="1">  1       21 0.87237061E-01 0.17699691E+03</pdfrwt>
<pdfrwt beam="2">  1       21 0.11338766E-01 0.17699691E+03</pdfrwt>
<totfact> 0.73811663E+04</totfact>
</mgrwt>
</event>
<event>
 4    1  0.4319182E+000  0.1783939E+03  0.7546771E-02  0.1169366E+00
         21   -1    0    0  503  502  0.00000000000E+00  0.00000000000E+00  0.45500867570E+03  0.45500867570E+03  0.00000000000E+00 0.  1.
         21   -1    0    0  501  503 -0.00000000000E+00 -0.00000000000E+00 -0.77788733572E+02  0.77788733572E+02  0.00000000000E+00 0.  1.
          6    1    1    2  501    0  0.40551482340E+02 -0.15842294556E+02  0.27321710957E+03  0.32630045966E+03  0.17300000000E+03 0.  1.
         -6    1    1    2    0  502 -0.40551482340E+02  0.15842294556E+02  0.10400283256E+03  0.20649694961E+03  0.17300000000E+03 0.  1.
<mgrwt>
<rscale>  2 0.17839395E+03</rscale>
<asrwt>0</asrwt>
<pdfrwt beam="1">  1       21 0.70001333E-01 0.17839395E+03</pdfrwt>
<pdfrwt beam="2">  1       21 0.11967498E-01 0.17839395E+03</pdfrwt>
<totfact> 0.10984538E+05</totfact>
</mgrwt>
</event>
<event>
 4    1  0.4319182E+000  0.1844261E+03  0.7546771E-02  0.1163587E+00
         21   -1    0    0  503  502  0.00000000000E+00  0.00000000000E+00  0.43865487676E+03  0.43865487676E+03  0.00000000000E+00 0. -1.
         21   -1    0    0  501  503 -0.00000000000E+00 -0.00000000000E+00 -0.89494934402E+02  0.89494934402E+02  0.00000000000E+00 0. -1.
          6    1    1    2  501    0  0.56120870886E+02 -0.30568561498E+02  0.78060631357E+02  0.20026595135E+03  0.17300000000E+03 0. -1.
         -6    1    1    2    0  502 -0.56120870886E+02  0.30568561498E+02  0.27109931100E+03  0.32788385981E+03  0.17300000000E+03 0. -1.
<mgrwt>
<rscale>  2 0.18442611E+03</rscale>
<asrwt>0</asrwt>
<pdfrwt beam="1">  1       21 0.67485365E-01 0.18442611E+03</pdfrwt>
<pdfrwt beam="2">  1       21 0.13768452E-01 0.18442611E+03</pdfrwt>
<totfact> 0.92321269E+04</totfact>
</mgrwt>
</event>
<event>
 4    1  0.4319182E+000  0.1947412E+03  0.7546771E-02  0.1154253E+00
         21   -1    0    0  501  502  0.00000000000E+00  0.00000000000E+00  0.13798172064E+04  0.13798172064E+04  0.00000000000E+00 0. -1.
         21   -1    0    0  502  503 -0.00000000000E+00 -0.00000000000E+00 -0.29357614954E+02  0.29357614954E+02  0.00000000000E+00 0. -1.
          6    1    1    2  501    0  0.35428584593E+02  0.82097130207E+02  0.85318535315E+03  0.87512820217E+03  0.17300000000E+03 0. -1.
         -6    1    1    2    0  503 -0.35428584593E+02 -0.82097130207E+02  0.49727423829E+03  0.53404661918E+03  0.17300000000E+03 0. -1.
<mgrwt>
<rscale>  2 0.19474117E+03</rscale>
<asrwt>0</asrwt>
<pdfrwt beam="1">  1       21 0.21227952E+00 0.19474117E+03</pdfrwt>
<pdfrwt beam="2">  1       21 0.45165572E-02 0.19474117E+03</pdfrwt>
<totfact> 0.35820071E+04</totfact>
</mgrwt>
</event>
<event>
 4    1  0.4319182E+000  0.2048114E+03  0.7546771E-02  0.1145742E+00
         21   -1    0    0  503  502  0.00000000000E+00  0.00000000000E+00  0.12206578284E+02  0.12206578284E+02  0.00000000000E+00 0. -1.
         21   -1    0    0  501  503 -0.00000000000E+00 -0.00000000000E+00 -0.34519060207E+04  0.34519060207E+04  0.00000000000E+00 0. -1.
          6    1    1    2  501    0 -0.59947691134E+02 -0.91787627325E+02 -0.18356267766E+04  0.18470174220E+04  0.17300000000E+03 0. -1.
         -6    1    1    2    0  502  0.59947691134E+02  0.91787627325E+02 -0.16040726658E+04  0.16170951770E+04  0.17300000000E+03 0. -1.
<mgrwt>
<rscale>  2 0.20481136E+03</rscale>
<asrwt>0</asrwt>
<pdfrwt beam="1">  1       21 0.18779328E-02 0.20481136E+03</pdfrwt>
<pdfrwt beam="2">  1       21 0.53106312E+00 0.20481136E+03</pdfrwt>
<totfact> 0.15175049E+03</totfact>
</mgrwt>
</event>
<event>
 4    1  0.4319182E+000  0.1801707E+03  0.7546771E-02  0.1167638E+00
         21   -1    0    0  503  502  0.00000000000E+00  0.00000000000E+00  0.12410375109E+03  0.12410375109E+03  0.00000000000E+00 0.  1.
         21   -1    0    0  501  503 -0.00000000000E+00 -0.00000000000E+00 -0.65759909120E+03  0.65759909120E+03  0.00000000000E+00 0.  1.
          6    1    1    2  501    0  0.34462086209E+02  0.36672295569E+02 -0.57006419804E+03  0.59785841345E+03  0.17300000000E+03 0.  1.
         -6    1    1    2    0  502 -0.34462086209E+02 -0.36672295569E+02  0.36568857924E+02  0.18384442885E+03  0.17300000000E+03 0.  1.
<mgrwt>
<rscale>  2 0.18017073E+03</rscale>
<asrwt>0</asrwt>
<pdfrwt beam="1">  1       21 0.19092884E-01 0.18017073E+03</pdfrwt>
<pdfrwt beam="2">  1       21 0.10116909E+00 0.18017073E+03</pdfrwt>
<totfact> 0.20254775E+04</totfact>
</mgrwt>
</event>
<event>
 4    1  0.4319182E+000  0.3150618E+03  0.7546771E-02  0.1077945E+00
         21   -1    0    0  501  502  0.00000000000E+00  0.00000000000E+00  0.34486017118E+03  0.34486017118E+03  0.00000000000E+00 0. -1.
         21   -1    0    0  502  503 -0.00000000000E+00 -0.00000000000E+00 -0.12411475145E+04  0.12411475145E+04  0.00000000000E+00 0.  1.
          6    1    1    2  501    0 -0.23615571835E+03  0.11647068289E+03  0.24684944130E+03  0.40024816046E+03  0.17300000000E+03 0. -1.
         -6    1    1    2    0  503  0.23615571835E+03 -0.11647068289E+03 -0.11431367847E+04  0.11857595253E+04  0.17300000000E+03 0.  1.
<mgrwt>
<rscale>  2 0.31506181E+03</rscale>
<asrwt>0</asrwt>
<pdfrwt beam="1">  1       21 0.53055412E-01 0.31506181E+03</pdfrwt>
<pdfrwt beam="2">  1       21 0.19094577E+00 0.31506181E+03</pdfrwt>
<totfact> 0.46137677E+02</totfact>
</mgrwt>
</event>
<event>
 4    1  0.4319182E+000  0.1907870E+03  0.7546771E-02  0.1157753E+00
         21   -1    0    0  501  502  0.00000000000E+00  0.00000000000E+00  0.10201359914E+03  0.10201359914E+03  0.00000000000E+00 0. -1.
         21   -1    0    0  502  503 -0.00000000000E+00 -0.00000000000E+00 -0.44103632413E+03  0.44103632413E+03  0.00000000000E+00 0. -1.
          6    1    1    2  501    0 -0.15537673174E+01 -0.80425597840E+02 -0.50855014276E+02  0.19744853369E+03  0.17300000000E+03 0. -1.
         -6    1    1    2    0  503  0.15537673174E+01  0.80425597840E+02 -0.28816771072E+03  0.34560138958E+03  0.17300000000E+03 0. -1.
<mgrwt>
<rscale>  2 0.19078703E+03</rscale>
<asrwt>0</asrwt>
<pdfrwt beam="1">  1       21 0.15694400E-01 0.19078703E+03</pdfrwt>
<pdfrwt beam="2">  1       21 0.67851741E-01 0.19078703E+03</pdfrwt>
<totfact> 0.71734535E+04</totfact>
</mgrwt>
</event>
<event>
 4    1  0.4319182E+000  0.2338503E+03  0.7546771E-02  0.1123959E+00
         21   -1    0    0  501  502  0.00000000000E+00  0.00000000000E+00  0.49962370269E+03  0.49962370269E+03  0.00000000000E+00 0. -1.
         21   -1    0    0  502  503 -0.00000000000E+00 -0.00000000000E+00 -0.10950837258E+03  0.10950837258E+03  0.00000000000E+00 0. -1.
          6    1    1    2  501    0  0.85357369745E+02 -0.13217828357E+03  0.20182337047E+03  0.30889909694E+03  0.17300000000E+03 0.  1.
         -6    1    1    2    0  503 -0.85357369745E+02  0.13217828357E+03  0.18829195963E+03  0.30023297834E+03  0.17300000000E+03 0.  1.
<mgrwt>
<rscale>  2 0.23385034E+03</rscale>
<asrwt>0</asrwt>
<pdfrwt beam="1">  1       21 0.76865184E-01 0.23385034E+03</pdfrwt>
<pdfrwt beam="2">  1       21 0.16847442E-01 0.23385034E+03</pdfrwt>
<totfact> 0.46802956E+04</totfact>
</mgrwt>
</event>
<event>
 4    1  0.4319182E+000  0.1840508E+03  0.7546771E-02  0.1163939E+00
         21   -1    0    0  501  502  0.00000000000E+00  0.00000000000E+00  0.17333941470E+03  0.17333941470E+03  0.00000000000E+00 0. -1.
         21   -1    0    0  502  503 -0.00000000000E+00 -0.00000000000E+00 -0.31007903284E+03  0.31007903284E+03  0.00000000000E+00 0. -1.
          6    1    1    2  501    0 -0.60163447119E+02  0.18057335033E+02  0.78608518510E+02  0.20013497171E+03  0.17300000000E+03 0.  1.
         -6    1    1    2    0  503  0.60163447119E+02 -0.18057335033E+02 -0.21534813665E+03  0.28328347583E+03  0.17300000000E+03 0.  1.
<mgrwt>
<rscale>  2 0.18405083E+03</rscale>
<asrwt>0</asrwt>
<pdfrwt beam="1">  1       21 0.26667602E-01 0.18405083E+03</pdfrwt>
<pdfrwt beam="2">  1       21 0.47704466E-01 0.18405083E+03</pdfrwt>
<totfact> 0.56451208E+04</totfact>
</mgrwt>
</event>
<event>
 4    1  0.4319182E+000  0.2034553E+03  0.7546771E-02  0.1146856E+00
         21   -1    0    0  501  502  0.00000000000E+00  0.00000000000E+00  0.29891792063E+03  0.29891792063E+03  0.00000000000E+00 0.  1.
         21   -1    0    0  502  503 -0.00000000000E+00 -0.00000000000E+00 -0.25549264417E+03  0.25549264417E+03  0.00000000000E+00 0.  1.
          6    1    1    2  501    0  0.10047312295E+03 -0.37016100359E+02  0.20931115611E+03  0.29189929803E+03  0.17300000000E+03 0.  1.
         -6    1    1    2    0  503 -0.10047312295E+03  0.37016100359E+02 -0.16588587965E+03  0.26251126678E+03  0.17300000000E+03 0.  1.
<mgrwt>
<rscale>  2 0.20345525E+03</rscale>
<asrwt>0</asrwt>
<pdfrwt beam="1">  1       21 0.45987372E-01 0.20345525E+03</pdfrwt>
<pdfrwt beam="2">  1       21 0.39306561E-01 0.20345525E+03</pdfrwt>
<totfact> 0.28107676E+04</totfact>
</mgrwt>
</event>
<event>
 4    1  0.4319182E+000  0.2495015E+03  0.7546771E-02  0.1113620E+00
         21   -1    0    0  503  502  0.00000000000E+00  0.00000000000E+00  0.32380007930E+03  0.32380007930E+03  0.00000000000E+00 0.  1.
         21   -1    0    0  501  503 -0.00000000000E+00 -0.00000000000E+00 -0.20009129461E+03  0.20009129461E+03  0.00000000000E+00 0. -1.
          6    1    1    2  501    0 -0.17707554757E+03  0.31084567009E+02  0.10003782632E+02  0.24970197340E+03  0.17300000000E+03 0.  1.
         -6    1    1    2    0  502  0.17707554757E+03 -0.31084567009E+02  0.11370500206E+03  0.27418940050E+03  0.17300000000E+03 0.  1.
<mgrwt>
<rscale>  2 0.24950150E+03</rscale>
<asrwt>0</asrwt>
<pdfrwt beam="1">  1       21 0.49815397E-01 0.24950150E+03</pdfrwt>
<pdfrwt beam="2">  1       21 0.30783276E-01 0.24950150E+03</pdfrwt>
<totfact> 0.37873567E+04</totfact>
</mgrwt>
</event>
<event>
 4    1  0.4319182E+000  0.2434570E+03  0.7546771E-02  0.1117511E+00
         21   -1    0    0  503  502  0.00000000000E+00  0.00000000000E+00  0.59061647097E+02  0.59061647097E+02  0.00000000000E+00 0.  1.
         21   -1    0    0  501  503 -0.00000000000E+00 -0.00000000000E+00 -0.10049602523E+04  0.10049602523E+04  0.00000000000E+00 0.  1.
          6    1    1    2  501    0 -0.14003781722E+03 -0.98649548659E+02 -0.49287778868E+03  0.54972705799E+03  0.17300000000E+03 0.  1.
         -6    1    1    2    0  502  0.14003781722E+03  0.98649548659E+02 -0.45302081651E+03  0.51429484141E+03  0.17300000000E+03 0.  1.
<mgrwt>
<rscale>  2 0.24345703E+03</rscale>
<asrwt>0</asrwt>
<pdfrwt beam="1">  1       21 0.90864068E-02 0.24345703E+03</pdfrwt>
<pdfrwt beam="2">  1       21 0.15460928E+00 0.24345703E+03</pdfrwt>
<totfact> 0.25708571E+04</totfact>
</mgrwt>
</event>
<event>
 4    1  0.4319182E+000  0.2400632E+03  0.7546771E-02  0.1119751E+00
         21   -1    0    0  503  502  0.00000000000E+00  0.00000000000E+00  0.20868967668E+03  0.20868967668E+03  0.00000000000E+00 0.  1.
         21   -1    0    0  501  503 -0.00000000000E+00 -0.00000000000E+00 -0.38915696275E+03  0.38915696275E+03  0.00000000000E+00 0. -1.
          6    1    1    2  501    0 -0.16397826910E+03  0.28503501285E+02 -0.25131446745E+03  0.34754752750E+03  0.17300000000E+03 0. -1.
         -6    1    1    2    0  502  0.16397826910E+03 -0.28503501285E+02  0.70847181380E+02  0.25029911193E+03  0.17300000000E+03 0.  1.
<mgrwt>
<rscale>  2 0.24006316E+03</rscale>
<asrwt>0</asrwt>
<pdfrwt beam="1">  1       21 0.32106104E-01 0.24006316E+03</pdfrwt>
<pdfrwt beam="2">  1       21 0.59870302E-01 0.24006316E+03</pdfrwt>
<totfact> 0.23678546E+04</totfact>
</mgrwt>
</event>
<event>
 4    1  0.4319182E+000  0.1785515E+03  0.7546771E-02  0.1169212E+00
         21   -1    0    0  501  502  0.00000000000E+00  0.00000000000E+00  0.49554720047E+03  0.49554720047E+03  0.00000000000E+00 0. -1.
         21   -1    0    0  502  503 -0.00000000000E+00 -0.00000000000E+00 -0.23782052943E+03  0.23782052943E+03  0.00000000000E+00 0. -1.
          6    1    1    2  501    0 -0.15541592034E+02 -0.41353341727E+02  0.44204746083E+03  0.47674584170E+03  0.17300000000E+03 0. -1.
         -6    1    1    2    0  503  0.15541592034E+02  0.41353341727E+02 -0.18432078979E+03  0.25662188820E+03  0.17300000000E+03 0. -1.
<mgrwt>
<rscale>  2 0.17855151E+03</rscale>
<asrwt>0</asrwt>
<pdfrwt beam="1">  1       21 0.76238031E-01 0.17855151E+03</pdfrwt>
<pdfrwt beam="2">  1       21 0.36587774E-01 0.17855151E+03</pdfrwt>
<totfact> 0.11149698E+04</totfact>
</mgrwt>
</event>
<event>
 4    1  0.4319182E+000  0.1754291E+03  0.7546771E-02  0.1172302E+00
         21   -1    0    0  503  502  0.00000000000E+00  0.00000000000E+00  0.55699937235E+02  0.55699937235E+02  0.00000000000E+00 0. -1.
         21   -1    0    0  501  503 -0.00000000000E+00 -0.00000000000E+00 -0.58420484173E+03  0.58420484173E+03  0.00000000000E+00 0. -1.
          6    1    1    2  501    0 -0.25881739765E+02 -0.13285302450E+02 -0.33876412636E+03  0.38149245998E+03  0.17300000000E+03 0. -1.
         -6    1    1    2    0  502  0.25881739765E+02  0.13285302450E+02 -0.18974077813E+03  0.25841231898E+03  0.17300000000E+03 0. -1.
<mgrwt>
<rscale>  2 0.17542908E+03</rscale>
<asrwt>0</asrwt>
<pdfrwt beam="1">  1       21 0.85692208E-02 0.17542908E+03</pdfrwt>
<pdfrwt beam="2">  1       21 0.89877671E-01 0.17542908E+03</pdfrwt>
<totfact> 0.11293523E+05</totfact>
</mgrwt>
</event>
<event>
 4    1  0.4319182E+000  0.2103814E+03  0.7546771E-02  0.1141264E+00
         21   -1    0    0  501  502  0.00000000000E+00  0.00000000000E+00  0.63111819900E+02  0.63111819900E+02  0.00000000000E+00 0. -1.
         21   -1    0    0  502  503 -0.00000000000E+00 -0.00000000000E+00 -0.81425259791E+03  0.81425259791E+03  0.00000000000E+00 0. -1.
          6    1    1    2  501    0 -0.60241320694E+02  0.10345197493E+03 -0.21218308860E+03  0.29880092189E+03  0.17300000000E+03 0. -1.
         -6    1    1    2    0  503  0.60241320694E+02 -0.10345197493E+03 -0.53895768941E+03  0.57856349592E+03  0.17300000000E+03 0. -1.
<mgrwt>
<rscale>  2 0.21038139E+03</rscale>
<asrwt>0</asrwt>
<pdfrwt beam="1">  1       21 0.97095108E-02 0.21038139E+03</pdfrwt>
<pdfrwt beam="2">  1       21 0.12526963E+00 0.21038139E+03</pdfrwt>
<totfact> 0.40158240E+04</totfact>
</mgrwt>
</event>
<event>
 4    1  0.4319182E+000  0.1884730E+03  0.7546771E-02  0.1159846E+00
         21   -1    0    0  503  502  0.00000000000E+00  0.00000000000E+00  0.67173415155E+03  0.67173415155E+03  0.00000000000E+00 0.  1.
         21   -1    0    0  501  503 -0.00000000000E+00 -0.00000000000E+00 -0.74801390874E+02  0.74801390874E+02  0.00000000000E+00 0.  1.
          6    1    1    2  501    0 -0.77723873712E+01  0.74381887150E+02  0.96402677382E+02  0.21169683830E+03  0.17300000000E+03 0.  1.
         -6    1    1    2    0  502  0.77723873712E+01 -0.74381887150E+02  0.50053008330E+03  0.53483870412E+03  0.17300000000E+03 0.  1.
<mgrwt>
<rscale>  2 0.18847301E+03</rscale>
<asrwt>0</asrwt>
<pdfrwt beam="1">  1       21 0.10334371E+00 0.18847301E+03</pdfrwt>
<pdfrwt beam="2">  1       21 0.11507907E-01 0.18847301E+03</pdfrwt>
<totfact> 0.48100655E+04</totfact>
</mgrwt>
</event>
<event>
 4    1  0.4319182E+000  0.1944820E+03  0.7546771E-02  0.1154480E+00
         21   -1    0    0  503  502  0.00000000000E+00  0.00000000000E+00  0.10477570320E+04  0.10477570320E+04  0.00000000000E+00 0. -1.
         21   -1    0    0  501  503 -0.00000000000E+00 -0.00000000000E+00 -0.37074798841E+02  0.37074798841E+02  0.00000000000E+00 0. -1.
          6    1    1    2  501    0 -0.96894584618E+00 -0.88844316885E+02  0.41735467918E+03  0.46044345987E+03  0.17300000000E+03 0.  1.
         -6    1    1    2    0  502  0.96894584618E+00  0.88844316885E+02  0.59332755396E+03  0.62438837096E+03  0.17300000000E+03 0.  1.
<mgrwt>
<rscale>  2 0.19448201E+03</rscale>
<asrwt>0</asrwt>
<pdfrwt beam="1">  1       21 0.16119337E+00 0.19448201E+03</pdfrwt>
<pdfrwt beam="2">  1       21 0.57038160E-02 0.19448201E+03</pdfrwt>
<totfact> 0.52984713E+04</totfact>
</mgrwt>
</event>
<event>
 4    1  0.4319182E+000  0.2069792E+03  0.7546771E-02  0.1143981E+00
         21   -1    0    0  503  502  0.00000000000E+00  0.00000000000E+00  0.33839070131E+03  0.33839070131E+03  0.00000000000E+00 0.  1.
         21   -1    0    0  501  503 -0.00000000000E+00 -0.00000000000E+00 -0.17329687233E+03  0.17329687233E+03  0.00000000000E+00 0. -1.
          6    1    1    2  501    0  0.35441721447E+02  0.10795958140E+03 -0.50260311127E+02  0.21299409783E+03  0.17300000000E+03 0. -1.
         -6    1    1    2    0  502 -0.35441721447E+02 -0.10795958140E+03  0.21535414010E+03  0.29869347581E+03  0.17300000000E+03 0.  1.
<mgrwt>
<rscale>  2 0.20697919E+03</rscale>
<asrwt>0</asrwt>
<pdfrwt beam="1">  1       21 0.52060108E-01 0.20697919E+03</pdfrwt>
<pdfrwt beam="2">  1       21 0.26661057E-01 0.20697919E+03</pdfrwt>
<totfact> 0.46560929E+04</totfact>
</mgrwt>
</event>
<event>
 4    1  0.4319182E+000  0.2390533E+03  0.7546771E-02  0.1120425E+00
         21   -1    0    0  503  502  0.00000000000E+00  0.00000000000E+00  0.10541827996E+04  0.10541827996E+04  0.00000000000E+00 0.  1.
         21   -1    0    0  501  503 -0.00000000000E+00 -0.00000000000E+00 -0.56958369238E+02  0.56958369238E+02  0.00000000000E+00 0. -1.
          6    1    1    2  501    0  0.16448774789E+03  0.12699246562E+02  0.62066703257E+03  0.66511206228E+03  0.17300000000E+03 0.  1.
         -6    1    1    2    0  502 -0.16448774789E+03 -0.12699246562E+02  0.37655739780E+03  0.44602910657E+03  0.17300000000E+03 0. -1.
<mgrwt>
<rscale>  2 0.23905332E+03</rscale>
<asrwt>0</asrwt>
<pdfrwt beam="1">  1       21 0.16218196E+00 0.23905332E+03</pdfrwt>
<pdfrwt beam="2">  1       21 0.87628268E-02 0.23905332E+03</pdfrwt>
<totfact> 0.24129495E+04</totfact>
</mgrwt>
</event>
<event>
 4    1  0.4319182E+000  0.2161345E+03  0.7546771E-02  0.1136798E+00
         21   -1    0    0  501  502  0.00000000000E+00  0.00000000000E+00  0.93223850237E+03  0.93223850237E+03  0.00000000000E+00 0.  1.
         21   -1    0    0  502  503 -0.00000000000E+00 -0.00000000000E+00 -0.50794707868E+02  0.50794707868E+02  0.00000000000E+00 0. -1.
          6    1    1    2  501    0  0.86630819901E+02 -0.96333805782E+02  0.49780499625E+03  0.54270057618E+03  0.17300000000E+03 0.  1.
         -6    1    1    2    0  503 -0.86630819901E+02  0.96333805782E+02  0.38363879825E+03  0.44033263406E+03  0.17300000000E+03 0. -1.
<mgrwt>
<rscale>  2 0.21613445E+03</rscale>
<asrwt>0</asrwt>
<pdfrwt beam="1">  1       21 0.14342130E+00 0.21613445E+03</pdfrwt>
<pdfrwt beam="2">  1       21 0.78145711E-02 0.21613445E+03</pdfrwt>
<totfact> 0.41457580E+04</totfact>
</mgrwt>
</event>
<event>
 4    1  0.4319182E+000  0.1783835E+03  0.7546771E-02  0.1169377E+00
         21   -1    0    0  501  502  0.00000000000E+00  0.00000000000E+00  0.42532141402E+02  0.42532141402E+02  0.00000000000E+00 0.  1.
         21   -1    0    0  502  503 -0.00000000000E+00 -0.00000000000E+00 -0.75074290201E+03  0.75074290201E+03  0.00000000000E+00 0.  1.
          6    1    1    2  501    0 -0.40940788651E+02 -0.14680799181E+02 -0.37738862915E+03  0.41742406669E+03  0.17300000000E+03 0.  1.
         -6    1    1    2    0  503  0.40940788651E+02  0.14680799181E+02 -0.33082213145E+03  0.37585097672E+03  0.17300000000E+03 0.  1.
<mgrwt>
<rscale>  2 0.17838350E+03</rscale>
<asrwt>0</asrwt>
<pdfrwt beam="1">  1       21 0.65434071E-02 0.17838350E+03</pdfrwt>
<pdfrwt beam="2">  1       21 0.11549890E+00 0.17838350E+03</pdfrwt>
<totfact> 0.99176728E+04</totfact>
</mgrwt>
</event>
<event>
 4    1  0.4319182E+000  0.2121939E+03  0.7546771E-02  0.1139840E+00
         21   -1    0    0  503  502  0.00000000000E+00  0.00000000000E+00  0.47755316687E+03  0.47755316687E+03  0.00000000000E+00 0.  1.
         21   -1    0    0  501  503 -0.00000000000E+00 -0.00000000000E+00 -0.27625317022E+03  0.27625317022E+03  0.00000000000E+00 0.  1.
          6    1    1    2  501    0 -0.23174193946E+02 -0.12066575488E+03 -0.20524575590E+03  0.29521532477E+03  0.17300000000E+03 0.  1.
         -6    1    1    2    0  502  0.23174193946E+02  0.12066575488E+03  0.40654575255E+03  0.45859101232E+03  0.17300000000E+03 0.  1.
<mgrwt>
<rscale>  2 0.21219394E+03</rscale>
<asrwt>0</asrwt>
<pdfrwt beam="1">  1       21 0.73469718E-01 0.21219394E+03</pdfrwt>
<pdfrwt beam="2">  1       21 0.42500488E-01 0.21219394E+03</pdfrwt>
<totfact> 0.87465456E+03</totfact>
</mgrwt>
</event>
<event>
 4    1  0.4319182E+000  0.1851298E+03  0.7546771E-02  0.1162929E+00
         21   -1    0    0  503  502  0.00000000000E+00  0.00000000000E+00  0.99312966503E+02  0.99312966503E+02  0.00000000000E+00 0. -1.
         21   -1    0    0  501  503 -0.00000000000E+00 -0.00000000000E+00 -0.37557240636E+03  0.37557240636E+03  0.00000000000E+00 0.  1.
          6    1    1    2  501    0  0.47584180418E+02  0.45604525704E+02 -0.20576239453E+03  0.27678726487E+03  0.17300000000E+03 0.  1.
         -6    1    1    2    0  502 -0.47584180418E+02 -0.45604525704E+02 -0.70497045326E+02  0.19809810799E+03  0.17300000000E+03 0. -1.
<mgrwt>
<rscale>  2 0.18512976E+03</rscale>
<asrwt>0</asrwt>
<pdfrwt beam="1">  1       21 0.15278918E-01 0.18512976E+03</pdfrwt>
<pdfrwt beam="2">  1       21 0.57780370E-01 0.18512976E+03</pdfrwt>
<totfact> 0.10685075E+05</totfact>
</mgrwt>
</event>
<event>
 4    1  0.4319182E+000  0.2143896E+03  0.7546771E-02  0.1138136E+00
         21   -1    0    0  503  502  0.00000000000E+00  0.00000000000E+00  0.10572839502E+03  0.10572839502E+03  0.00000000000E+00 0. -1.
         21   -1    0    0  501  503 -0.00000000000E+00 -0.00000000000E+00 -0.45310976731E+03  0.45310976731E+03  0.00000000000E+00 0. -1.
          6    1    1    2  501    0  0.12502701230E+03  0.20053104666E+02 -0.11740839523E+03  0.24443324668E+03  0.17300000000E+03 0. -1.
         -6    1    1    2    0  502 -0.12502701230E+03 -0.20053104666E+02 -0.22997297705E+03  0.31440491565E+03  0.17300000000E+03 0. -1.
<mgrwt>
<rscale>  2 0.21438955E+03</rscale>
<asrwt>0</asrwt>
<pdfrwt beam="1">  1       21 0.16265907E-01 0.21438955E+03</pdfrwt>
<pdfrwt beam="2">  1       21 0.69709194E-01 0.21438955E+03</pdfrwt>
<totfact> 0.62634595E+04</totfact>
</mgrwt>
</event>
<event>
 4    1  0.4319182E+000  0.2555107E+03  0.7546771E-02  0.1109871E+00
         21   -1    0    0  501  502  0.00000000000E+00  0.00000000000E+00  0.43776991399E+03  0.43776991399E+03  0.00000000000E+00 0.  1.
         21   -1    0    0  502  503 -0.00000000000E+00 -0.00000000000E+00 -0.17508997441E+03  0.17508997441E+03  0.00000000000E+00 0.  1.
          6    1    1    2  501    0 -0.38937846696E+02  0.18395808047E+03  0.24932627376E+03  0.35700045107E+03  0.17300000000E+03 0.  1.
         -6    1    1    2    0  503  0.38937846696E+02 -0.18395808047E+03  0.13353665815E+02  0.25585943732E+03  0.17300000000E+03 0.  1.
<mgrwt>
<rscale>  2 0.25551073E+03</rscale>
<asrwt>0</asrwt>
<pdfrwt beam="1">  1       21 0.67349217E-01 0.25551073E+03</pdfrwt>
<pdfrwt beam="2">  1       21 0.26936919E-01 0.25551073E+03</pdfrwt>
<totfact> 0.25635281E+04</totfact>
</mgrwt>
</event>
<event>
 4    1  0.4319182E+000  0.5230236E+03  0.7546771E-02  0.1007938E+00
         21   -1    0    0  501  502  0.00000000000E+00  0.00000000000E+00  0.10788192801E+04  0.10788192801E+04  0.00000000000E+00 0.  1.
         21   -1    0    0  502  503 -0.00000000000E+00 -0.00000000000E+00 -0.34906365760E+03  0.34906365760E+03  0.00000000000E+00 0. -1.
          6    1    1    2  501    0  0.35451548421E+03 -0.34342895248E+03  0.73830238116E+03  0.90478952247E+03  0.17300000000E+03 0.  1.
         -6    1    1    2    0  503 -0.35451548421E+03  0.34342895248E+03 -0.85467586829E+01  0.52309341521E+03  0.17300000000E+03 0. -1.
<mgrwt>
<rscale>  2 0.52302359E+03</rscale>
<asrwt>0</asrwt>
<pdfrwt beam="1">  1       21 0.16597220E+00 0.52302359E+03</pdfrwt>
<pdfrwt beam="2">  1       21 0.53702102E-01 0.52302359E+03</pdfrwt>
<totfact> 0.60438137E+02</totfact>
</mgrwt>
</event>
<event>
 4    1  0.4319182E+000  0.1931847E+03  0.7546771E-02  0.1155620E+00
         21   -1    0    0  503  502  0.00000000000E+00  0.00000000000E+00  0.82776342537E+02  0.82776342537E+02  0.00000000000E+00 0.  1.
         21   -1    0    0  501  503 -0.00000000000E+00 -0.00000000000E+00 -0.52507045094E+03  0.52507045094E+03  0.00000000000E+00 0. -1.
          6    1    1    2  501    0  0.47486366290E+02  0.71668535180E+02 -0.33540731965E+03  0.38706382419E+03  0.17300000000E+03 0. -1.
         -6    1    1    2    0  502 -0.47486366290E+02 -0.71668535180E+02 -0.10688678875E+03  0.22078296929E+03  0.17300000000E+03 0.  1.
<mgrwt>
<rscale>  2 0.19318471E+03</rscale>
<asrwt>0</asrwt>
<pdfrwt beam="1">  1       21 0.12734822E-01 0.19318471E+03</pdfrwt>
<pdfrwt beam="2">  1       21 0.80780070E-01 0.19318471E+03</pdfrwt>
<totfact> 0.70963183E+04</totfact>
</mgrwt>
</event>
<event>
 4    1  0.4319182E+000  0.1841423E+03  0.7546771E-02  0.1163853E+00
         21   -1    0    0  503  502  0.00000000000E+00  0.00000000000E+00  0.13262847689E+03  0.13262847689E+03  0.00000000000E+00 0.  1.
         21   -1    0    0  501  503 -0.00000000000E+00 -0.00000000000E+00 -0.74951970663E+03  0.74951970663E+03  0.00000000000E+00 0. -1.
          6    1    1    2  501    0  0.88398686718E+01 -0.62459966605E+02 -0.66647596838E+03  0.69144674931E+03  0.17300000000E+03 0. -1.
         -6    1    1    2    0  502 -0.88398686718E+01  0.62459966605E+02  0.49584738636E+02  0.19070143422E+03  0.17300000000E+03 0.  1.
<mgrwt>
<rscale>  2 0.18414231E+03</rscale>
<asrwt>0</asrwt>
<pdfrwt beam="1">  1       21 0.20404381E-01 0.18414231E+03</pdfrwt>
<pdfrwt beam="2">  1       21 0.11531072E+00 0.18414231E+03</pdfrwt>
<totfact> 0.13025781E+04</totfact>
</mgrwt>
</event>
<event>
 4    1  0.4319182E+000  0.1768519E+03  0.7546771E-02  0.1170885E+00
         21   -1    0    0  503  502  0.00000000000E+00  0.00000000000E+00  0.10530733935E+03  0.10530733935E+03  0.00000000000E+00 0.  1.
         21   -1    0    0  501  503 -0.00000000000E+00 -0.00000000000E+00 -0.30445608704E+03  0.30445608704E+03  0.00000000000E+00 0.  1.
          6    1    1    2  501    0  0.36709382226E+02  0.58477403246E-01 -0.67518124272E+02  0.18930208469E+03  0.17300000000E+03 0. -1.
         -6    1    1    2    0  502 -0.36709382226E+02 -0.58477403246E-01 -0.13163062342E+03  0.22046134170E+03  0.17300000000E+03 0. -1.
<mgrwt>
<rscale>  2 0.17685187E+03</rscale>
<asrwt>0</asrwt>
<pdfrwt beam="1">  1       21 0.16201129E-01 0.17685187E+03</pdfrwt>
<pdfrwt beam="2">  1       21 0.46839397E-01 0.17685187E+03</pdfrwt>
<totfact> 0.14947118E+05</totfact>
</mgrwt>
</event>
<event>
 4    1  0.4319182E+000  0.2224997E+03  0.7546771E-02  0.1132033E+00
         21   -1    0    0  501  502  0.00000000000E+00  0.00000000000E+00  0.26820943838E+02  0.26820943838E+02  0.00000000000E+00 0. -1.
         21   -1    0    0  502  503 -0.00000000000E+00 -0.00000000000E+00 -0.23895662600E+04  0.23895662600E+04  0.00000000000E+00 0.  1.
          6    1    1    2  501    0  0.24865449586E+01  0.13989612853E+03 -0.60502710159E+03  0.64464246164E+03  0.17300000000E+03 0. -1.
         -6    1    1    2    0  503 -0.24865449586E+01 -0.13989612853E+03 -0.17577182145E+04  0.17717447422E+04  0.17300000000E+03 0. -1.
<mgrwt>
<rscale>  2 0.22249968E+03</rscale>
<asrwt>0</asrwt>
<pdfrwt beam="1">  1       21 0.41262983E-02 0.22249968E+03</pdfrwt>
<pdfrwt beam="2">  1       21 0.36762565E+00 0.22249968E+03</pdfrwt>
<totfact> 0.49251965E+03</totfact>
</mgrwt>
</event>
<event>
 4    1  0.4319182E+000  0.3159362E+03  0.7546771E-02  0.1077535E+00
         21   -1    0    0  501  502  0.00000000000E+00  0.00000000000E+00  0.16412764958E+04  0.16412764958E+04  0.00000000000E+00 0. -1.
         21   -1    0    0  502  503 -0.00000000000E+00 -0.00000000000E+00 -0.63812788373E+02  0.63812788373E+02  0.00000000000E+00 0. -1.
          6    1    1    2  501    0 -0.14844529301E+03  0.21874801490E+03  0.97348800802E+03  0.10234718368E+04  0.17300000000E+03 0. -1.
         -6    1    1    2    0  503  0.14844529301E+03 -0.21874801490E+03  0.60397569939E+03  0.68161744732E+03  0.17300000000E+03 0. -1.
<mgrwt>
<rscale>  2 0.31593623E+03</rscale>
<asrwt>0</asrwt>
<pdfrwt beam="1">  1       21 0.25250404E+00 0.31593623E+03</pdfrwt>
<pdfrwt beam="2">  1       21 0.98173533E-02 0.31593623E+03</pdfrwt>
<totfact> 0.48753992E+03</totfact>
</mgrwt>
</event>
<event>
 4    1  0.4319182E+000  0.2258391E+03  0.7546771E-02  0.1129603E+00
         21   -1    0    0  501  502  0.00000000000E+00  0.00000000000E+00  0.39882078832E+02  0.39882078832E+02  0.00000000000E+00 0.  1.
         21   -1    0    0  502  503 -0.00000000000E+00 -0.00000000000E+00 -0.13456910281E+04  0.13456910281E+04  0.00000000000E+00 0.  1.
          6    1    1    2  501    0 -0.12004676086E+03 -0.81627525321E+02 -0.49850645697E+03  0.54727686350E+03  0.17300000000E+03 0.  1.
         -6    1    1    2    0  503  0.12004676086E+03  0.81627525321E+02 -0.80730249234E+03  0.83829624347E+03  0.17300000000E+03 0.  1.
<mgrwt>
<rscale>  2 0.22583905E+03</rscale>
<asrwt>0</asrwt>
<pdfrwt beam="1">  1       21 0.61357050E-02 0.22583905E+03</pdfrwt>
<pdfrwt beam="2">  1       21 0.20702937E+00 0.22583905E+03</pdfrwt>
<totfact> 0.22440309E+04</totfact>
</mgrwt>
</event>
<event>
 4    1  0.4319182E+000  0.1767421E+03  0.7546771E-02  0.1170994E+00
         21   -1    0    0  503  502  0.00000000000E+00  0.00000000000E+00  0.40367538316E+02  0.40367538316E+02  0.00000000000E+00 0. -1.
         21   -1    0    0  501  503 -0.00000000000E+00 -0.00000000000E+00 -0.12719567101E+04  0.12719567101E+04  0.00000000000E+00 0. -1.
          6    1    1    2  501    0 -0.43656271337E+01 -0.35912698132E+02 -0.10264174129E+04  0.10415231568E+04  0.17300000000E+03 0. -1.
         -6    1    1    2    0  502  0.43656271337E+01  0.35912698132E+02 -0.20517175885E+03  0.27080109161E+03  0.17300000000E+03 0. -1.
<mgrwt>
<rscale>  2 0.17674213E+03</rscale>
<asrwt>0</asrwt>
<pdfrwt beam="1">  1       21 0.62103905E-02 0.17674213E+03</pdfrwt>
<pdfrwt beam="2">  1       21 0.19568565E+00 0.17674213E+03</pdfrwt>
<totfact> 0.26921456E+04</totfact>
</mgrwt>
</event>
<event>
 4    1  0.4319182E+000  0.3183206E+03  0.7546771E-02  0.1076425E+00
         21   -1    0    0  501  502  0.00000000000E+00  0.00000000000E+00  0.34109464116E+03  0.34109464116E+03  0.00000000000E+00 0.  1.
         21   -1    0    0  502  503 -0.00000000000E+00 -0.00000000000E+00 -0.20276695761E+04  0.20276695761E+04  0.00000000000E+00 0. -1.
          6    1    1    2  501    0  0.24251509288E+03 -0.11218469347E+03  0.25090044707E+03  0.40531347135E+03  0.17300000000E+03 0.  1.
         -6    1    1    2    0  503 -0.24251509288E+03  0.11218469347E+03 -0.19374753820E+04  0.19634507459E+04  0.17300000000E+03 0. -1.
<mgrwt>
<rscale>  2 0.31832055E+03</rscale>
<asrwt>0</asrwt>
<pdfrwt beam="1">  1       21 0.52476098E-01 0.31832055E+03</pdfrwt>
<pdfrwt beam="2">  1       21 0.31194917E+00 0.31832055E+03</pdfrwt>
<totfact> 0.85434946E+01</totfact>
</mgrwt>
</event>
<event>
 4    1  0.4319182E+000  0.1848383E+03  0.7546771E-02  0.1163201E+00
         21   -1    0    0  501  502  0.00000000000E+00  0.00000000000E+00  0.68918468133E+03  0.68918468133E+03  0.00000000000E+00 0. -1.
         21   -1    0    0  502  503 -0.00000000000E+00 -0.00000000000E+00 -0.65333798690E+02  0.65333798690E+02  0.00000000000E+00 0. -1.
          6    1    1    2  501    0 -0.50378808114E+02  0.41208733846E+02  0.12663397996E+03  0.22405657529E+03  0.17300000000E+03 0. -1.
         -6    1    1    2    0  503  0.50378808114E+02 -0.41208733846E+02  0.49721690268E+03  0.53046190473E+03  0.17300000000E+03 0. -1.
<mgrwt>
<rscale>  2 0.18483826E+03</rscale>
<asrwt>0</asrwt>
<pdfrwt beam="1">  1       21 0.10602841E+00 0.18483826E+03</pdfrwt>
<pdfrwt beam="2">  1       21 0.10051354E-01 0.18483826E+03</pdfrwt>
<totfact> 0.57608820E+04</totfact>
</mgrwt>
</event>
<event>
 4    1  0.4319182E+000  0.1765755E+03  0.7546771E-02  0.1171159E+00
         21   -1    0    0  501  502  0.00000000000E+00  0.00000000000E+00  0.64779307768E+02  0.64779307768E+02  0.00000000000E+00 0.  1.
         21   -1    0    0  502  503 -0.00000000000E+00 -0.00000000000E+00 -0.74587807961E+03  0.74587807961E+03  0.00000000000E+00 0.  1.
          6    1    1    2  501    0 -0.13375431406E+02  0.32726259258E+02 -0.99146541625E+02  0.20250665897E+03  0.17300000000E+03 0.  1.
         -6    1    1    2    0  503  0.13375431406E+02 -0.32726259258E+02 -0.58195223021E+03  0.60815072841E+03  0.17300000000E+03 0.  1.
<mgrwt>
<rscale>  2 0.17657551E+03</rscale>
<asrwt>0</asrwt>
<pdfrwt beam="1">  1       21 0.99660468E-02 0.17657551E+03</pdfrwt>
<pdfrwt beam="2">  1       21 0.11475048E+00 0.17657551E+03</pdfrwt>
<totfact> 0.48518009E+04</totfact>
</mgrwt>
</event>
<event>
 4    1  0.4319182E+000  0.2454822E+03  0.7546771E-02  0.1116194E+00
         21   -1    0    0  501  502  0.00000000000E+00  0.00000000000E+00  0.84216869143E+02  0.84216869143E+02  0.00000000000E+00 0.  1.
         21   -1    0    0  502  503 -0.00000000000E+00 -0.00000000000E+00 -0.72098357099E+03  0.72098357099E+03  0.00000000000E+00 0. -1.
          6    1    1    2  501    0  0.11189748083E+03 -0.13345961182E+03 -0.28343790055E+03  0.37496474191E+03  0.17300000000E+03 0.  1.
         -6    1    1    2    0  503 -0.11189748083E+03  0.13345961182E+03 -0.35332880130E+03  0.43023569823E+03  0.17300000000E+03 0. -1.
<mgrwt>
<rscale>  2 0.24548221E+03</rscale>
<asrwt>0</asrwt>
<pdfrwt beam="1">  1       21 0.12956441E-01 0.24548221E+03</pdfrwt>
<pdfrwt beam="2">  1       21 0.11092055E+00 0.24548221E+03</pdfrwt>
<totfact> 0.31830934E+04</totfact>
</mgrwt>
</event>
<event>
 4    1  0.4319182E+000  0.2116319E+03  0.7546771E-02  0.1140280E+00
         21   -1    0    0  501  502  0.00000000000E+00  0.00000000000E+00  0.12578021082E+03  0.12578021082E+03  0.00000000000E+00 0.  1.
         21   -1    0    0  502  503 -0.00000000000E+00 -0.00000000000E+00 -0.62965026877E+03  0.62965026877E+03  0.00000000000E+00 0. -1.
          6    1    1    2  501    0 -0.84163706886E+02 -0.88179051559E+02 -0.29646751061E+01  0.21165269663E+03  0.17300000000E+03 0.  1.
         -6    1    1    2    0  503  0.84163706886E+02  0.88179051559E+02 -0.50090538284E+03  0.54377778296E+03  0.17300000000E+03 0. -1.
<mgrwt>
<rscale>  2 0.21163193E+03</rscale>
<asrwt>0</asrwt>
<pdfrwt beam="1">  1       21 0.19350802E-01 0.21163193E+03</pdfrwt>
<pdfrwt beam="2">  1       21 0.96869270E-01 0.21163193E+03</pdfrwt>
<totfact> 0.21477305E+04</totfact>
</mgrwt>
</event>
<event>
 4    1  0.4319182E+000  0.1762876E+03  0.7546771E-02  0.1171445E+00
         21   -1    0    0  503  502  0.00000000000E+00  0.00000000000E+00  0.17572221712E+02  0.17572221712E+02  0.00000000000E+00 0. -1.
         21   -1    0    0  501  503 -0.00000000000E+00 -0.00000000000E+00 -0.21204905730E+04  0.21204905730E+04  0.00000000000E+00 0. -1.
          6    1    1    2  501    0  0.18253375491E+02  0.28550541525E+02 -0.14869792069E+04  0.14973925607E+04  0.17300000000E+03 0. -1.
         -6    1    1    2    0  502 -0.18253375491E+02 -0.28550541525E+02 -0.61593914442E+03  0.64067023403E+03  0.17300000000E+03 0. -1.
<mgrwt>
<rscale>  2 0.17628760E+03</rscale>
<asrwt>0</asrwt>
<pdfrwt beam="1">  1       21 0.27034187E-02 0.17628760E+03</pdfrwt>
<pdfrwt beam="2">  1       21 0.32622932E+00 0.17628760E+03</pdfrwt>
<totfact> 0.18431453E+04</totfact>
</mgrwt>
</event>
<event>
 4    1  0.4319182E+000  0.2066909E+03  0.7546771E-02  0.1144214E+00
         21   -1    0    0  501  502  0.00000000000E+00  0.00000000000E+00  0.39116599093E+02  0.39116599093E+02  0.00000000000E+00 0.  1.
         21   -1    0    0  502  503 -0.00000000000E+00 -0.00000000000E+00 -0.12097626795E+04  0.12097626795E+04  0.00000000000E+00 0.  1.
          6    1    1    2  501    0 -0.34841853707E+02 -0.10760193164E+03 -0.39062103251E+03  0.44193429546E+03  0.17300000000E+03 0.  1.
         -6    1    1    2    0  503  0.34841853707E+02  0.10760193164E+03 -0.78002504795E+03  0.80694498318E+03  0.17300000000E+03 0.  1.
<mgrwt>
<rscale>  2 0.20669091E+03</rscale>
<asrwt>0</asrwt>
<pdfrwt beam="1">  1       21 0.60179379E-02 0.20669091E+03</pdfrwt>
<pdfrwt beam="2">  1       21 0.18611735E+00 0.20669091E+03</pdfrwt>
<totfact> 0.32159542E+04</totfact>
</mgrwt>
</event>
<event>
 4    1  0.4319182E+000  0.1870224E+03  0.7546771E-02  0.1161175E+00
         21   -1    0    0  503  502  0.00000000000E+00  0.00000000000E+00  0.60240002827E+02  0.60240002827E+02  0.00000000000E+00 0.  1.
         21   -1    0    0  501  503 -0.00000000000E+00 -0.00000000000E+00 -0.65852401943E+03  0.65852401943E+03  0.00000000000E+00 0. -1.
          6    1    1    2  501    0  0.58512361958E+02  0.40307371943E+02 -0.42274017679E+03  0.46226252045E+03  0.17300000000E+03 0. -1.
         -6    1    1    2    0  502 -0.58512361958E+02 -0.40307371943E+02 -0.17554383981E+03  0.25650150181E+03  0.17300000000E+03 0.  1.
<mgrwt>
<rscale>  2 0.18702241E+03</rscale>
<asrwt>0</asrwt>
<pdfrwt beam="1">  1       21 0.92676925E-02 0.18702241E+03</pdfrwt>
<pdfrwt beam="2">  1       21 0.10131139E+00 0.18702241E+03</pdfrwt>
<totfact> 0.74030850E+04</totfact>
</mgrwt>
</event>
<event>
 4    1  0.4319182E+000  0.4740434E+03  0.7546771E-02  0.1020785E+00
         21   -1    0    0  501  502  0.00000000000E+00  0.00000000000E+00  0.10156145001E+04  0.10156145001E+04  0.00000000000E+00 0.  1.
         21   -1    0    0  502  503 -0.00000000000E+00 -0.00000000000E+00 -0.22281570100E+03  0.22281570100E+03  0.00000000000E+00 0. -1.
          6    1    1    2  501    0 -0.28567105762E+03  0.33642266337E+03  0.34469639905E+03  0.58611668557E+03  0.17300000000E+03 0. -1.
         -6    1    1    2    0  503  0.28567105762E+03 -0.33642266337E+03  0.44810240002E+03  0.65231351550E+03  0.17300000000E+03 0.  1.
<mgrwt>
<rscale>  2 0.47404342E+03</rscale>
<asrwt>0</asrwt>
<pdfrwt beam="1">  1       21 0.15624838E+00 0.47404342E+03</pdfrwt>
<pdfrwt beam="2">  1       21 0.34279339E-01 0.47404342E+03</pdfrwt>
<totfact> 0.18610746E+03</totfact>
</mgrwt>
</event>
<event>
 4    1  0.4319182E+000  0.2539446E+03  0.7546771E-02  0.1110837E+00
         21   -1    0    0  501  502  0.00000000000E+00  0.00000000000E+00  0.99130835887E+02  0.99130835887E+02  0.00000000000E+00 0.  1.
         21   -1    0    0  502  503 -0.00000000000E+00 -0.00000000000E+00 -0.96081655893E+03  0.96081655893E+03  0.00000000000E+00 0. -1.
          6    1    1    2  501    0  0.14719414322E+03 -0.11354612328E+03 -0.12967144184E+03  0.28513596886E+03  0.17300000000E+03 0.  1.
         -6    1    1    2    0  503 -0.14719414322E+03  0.11354612328E+03 -0.73201428120E+03  0.77481142596E+03  0.17300000000E+03 0. -1.
<mgrwt>
<rscale>  2 0.25394456E+03</rscale>
<asrwt>0</asrwt>
<pdfrwt beam="1">  1       21 0.15250897E-01 0.25394456E+03</pdfrwt>
<pdfrwt beam="2">  1       21 0.14781794E+00 0.25394456E+03</pdfrwt>
<totfact> 0.11352833E+04</totfact>
</mgrwt>
</event>
<event>
 4    1  0.4319182E+000  0.1835132E+03  0.7546771E-02  0.1164446E+00
         21   -1    0    0  503  502  0.00000000000E+00  0.00000000000E+00  0.19779839620E+03  0.19779839620E+03  0.00000000000E+00 0. -1.
         21   -1    0    0  501  503 -0.00000000000E+00 -0.00000000000E+00 -0.82371180763E+03  0.82371180763E+03  0.00000000000E+00 0. -1.
          6    1    1    2  501    0 -0.35408648554E+02  0.49943037585E+02 -0.76787350670E+03  0.78949781614E+03  0.17300000000E+03 0. -1.
         -6    1    1    2    0  502  0.35408648554E+02 -0.49943037585E+02  0.14196009526E+03  0.23201238769E+03  0.17300000000E+03 0. -1.
<mgrwt>
<rscale>  2 0.18351316E+03</rscale>
<asrwt>0</asrwt>
<pdfrwt beam="1">  1       21 0.30430523E-01 0.18351316E+03</pdfrwt>
<pdfrwt beam="2">  1       21 0.12672489E+00 0.18351316E+03</pdfrwt>
<totfact> 0.48133550E+03</totfact>
</mgrwt>
</event>
<event>
 4    1  0.4319182E+000  0.2095872E+03  0.7546771E-02  0.1141893E+00
         21   -1    0    0  501  502  0.00000000000E+00  0.00000000000E+00  0.71189988979E+03  0.71189988979E+03  0.00000000000E+00 0.  1.
         21   -1    0    0  502  503 -0.00000000000E+00 -0.00000000000E+00 -0.61907955393E+02  0.61907955393E+02  0.00000000000E+00 0.  1.
          6    1    1    2  501    0 -0.25977672657E+02 -0.11542511920E+03  0.30276769685E+03  0.36823236668E+03  0.17300000000E+03 0.  1.
         -6    1    1    2    0  503  0.25977672657E+02  0.11542511920E+03  0.34722423755E+03  0.40557547850E+03  0.17300000000E+03 0.  1.
<mgrwt>
<rscale>  2 0.20958721E+03</rscale>
<asrwt>0</asrwt>
<pdfrwt beam="1">  1       21 0.10952305E+00 0.20958721E+03</pdfrwt>
<pdfrwt beam="2">  1       21 0.95243013E-02 0.20958721E+03</pdfrwt>
<totfact> 0.57871631E+04</totfact>
</mgrwt>
</event>
<event>
 4    1  0.4319182E+000  0.1825517E+03  0.7546771E-02  0.1165356E+00
         21   -1    0    0  501  502  0.00000000000E+00  0.00000000000E+00  0.33481990842E+03  0.33481990842E+03  0.00000000000E+00 0.  1.
         21   -1    0    0  502  503 -0.00000000000E+00 -0.00000000000E+00 -0.20275096401E+03  0.20275096401E+03  0.00000000000E+00 0.  1.
          6    1    1    2  501    0  0.58276365842E+02  0.58344076915E-02  0.25781522737E+03  0.31590160860E+03  0.17300000000E+03 0.  1.
         -6    1    1    2    0  503 -0.58276365842E+02 -0.58344076915E-02 -0.12574628297E+03  0.22166926384E+03  0.17300000000E+03 0.  1.
<mgrwt>
<rscale>  2 0.18255173E+03</rscale>
<asrwt>0</asrwt>
<pdfrwt beam="1">  1       21 0.51510755E-01 0.18255173E+03</pdfrwt>
<pdfrwt beam="2">  1       21 0.31192456E-01 0.18255173E+03</pdfrwt>
<totfact> 0.35542972E+04</totfact>
</mgrwt>
</event>
<event>
 4    1  0.4319182E+000  0.2022770E+03  0.7546771E-02  0.1147832E+00
         21   -1    0    0  501  502  0.00000000000E+00  0.00000000000E+00  0.97901315742E+02  0.97901315742E+02  0.00000000000E+00 0. -1.
         21   -1    0    0  502  503 -0.00000000000E+00 -0.00000000000E+00 -0.49223316001E+03  0.49223316001E+03  0.00000000000E+00 0. -1.
          6    1    1    2  501    0 -0.17966515335E+02 -0.10326759819E+03 -0.31180596646E+03  0.37167049012E+03  0.17300000000E+03 0. -1.
         -6    1    1    2    0  503  0.17966515335E+02  0.10326759819E+03 -0.82525877807E+02  0.21846398563E+03  0.17300000000E+03 0. -1.
<mgrwt>
<rscale>  2 0.20227702E+03</rscale>
<asrwt>0</asrwt>
<pdfrwt beam="1">  1       21 0.15061741E-01 0.20227702E+03</pdfrwt>
<pdfrwt beam="2">  1       21 0.75728179E-01 0.20227702E+03</pdfrwt>
<totfact> 0.60306038E+04</totfact>
</mgrwt>
</event>
<event>
 4    1  0.4319182E+000  0.1892898E+03  0.7546771E-02  0.1159103E+00
         21   -1    0    0  501  502  0.00000000000E+00  0.00000000000E+00  0.13154761967E+04  0.13154761967E+04  0.00000000000E+00 0. -1.
         21   -1    0    0  502  503 -0.00000000000E+00 -0.00000000000E+00 -0.29494965060E+02  0.29494965060E+02  0.00000000000E+00 0. -1.
          6    1    1    2  501    0 -0.14792118946E+02 -0.75384573486E+02  0.82902507159E+03  0.85036063528E+03  0.17300000000E+03 0. -1.
         -6    1    1    2    0  503  0.14792118946E+02  0.75384573486E+02  0.45695616007E+03  0.49461052650E+03  0.17300000000E+03 0. -1.
<mgrwt>
<rscale>  2 0.18928983E+03</rscale>
<asrwt>0</asrwt>
<pdfrwt beam="1">  1       21 0.20238091E+00 0.18928983E+03</pdfrwt>
<pdfrwt beam="2">  1       21 0.45376880E-02 0.18928983E+03</pdfrwt>
<totfact> 0.41184649E+04</totfact>
</mgrwt>
</event>
<event>
 4    1  0.4319182E+000  0.1861418E+03  0.7546771E-02  0.1161988E+00
         21   -1    0    0  503  502  0.00000000000E+00  0.00000000000E+00  0.18154145865E+03  0.18154145865E+03  0.00000000000E+00 0. -1.
         21   -1    0    0  501  503 -0.00000000000E+00 -0.00000000000E+00 -0.55748510473E+03  0.55748510473E+03  0.00000000000E+00 0. -1.
          6    1    1    2  501    0  0.13983045658E+02 -0.67262447320E+02 -0.48762942762E+03  0.52194944302E+03  0.17300000000E+03 0. -1.
         -6    1    1    2    0  502 -0.13983045658E+02  0.67262447320E+02  0.11168578154E+03  0.21707712036E+03  0.17300000000E+03 0. -1.
<mgrwt>
<rscale>  2 0.18614178E+03</rscale>
<asrwt>0</asrwt>
<pdfrwt beam="1">  1       21 0.27929456E-01 0.18614178E+03</pdfrwt>
<pdfrwt beam="2">  1       21 0.85766938E-01 0.18614178E+03</pdfrwt>
<totfact> 0.14432355E+04</totfact>
</mgrwt>
</event>
<event>
 4    1  0.4319182E+000  0.2665690E+03  0.7546771E-02  0.1103259E+00
         21   -1    0    0  501  502  0.00000000000E+00  0.00000000000E+00  0.23070783517E+03  0.23070783517E+03  0.00000000000E+00 0.  1.
         21   -1    0    0  502  503 -0.00000000000E+00 -0.00000000000E+00 -0.31332932004E+03  0.31332932004E+03  0.00000000000E+00 0.  1.
          6    1    1    2  501    0 -0.25749836838E+02 -0.20116402170E+03 -0.76772190842E+02  0.27740401405E+03  0.17300000000E+03 0.  1.
         -6    1    1    2    0  503  0.25749836838E+02  0.20116402170E+03 -0.58492940268E+01  0.26663314116E+03  0.17300000000E+03 0.  1.
<mgrwt>
<rscale>  2 0.26656897E+03</rscale>
<asrwt>0</asrwt>
<pdfrwt beam="1">  1       21 0.35493513E-01 0.26656897E+03</pdfrwt>
<pdfrwt beam="2">  1       21 0.48204511E-01 0.26656897E+03</pdfrwt>
<totfact> 0.30366168E+04</totfact>
</mgrwt>
</event>
<event>
 4    1  0.4319182E+000  0.2002460E+03  0.7546771E-02  0.1149532E+00
         21   -1    0    0  501  502  0.00000000000E+00  0.00000000000E+00  0.36253233255E+03  0.36253233255E+03  0.00000000000E+00 0.  1.
         21   -1    0    0  502  503 -0.00000000000E+00 -0.00000000000E+00 -0.17657874859E+03  0.17657874859E+03  0.00000000000E+00 0.  1.
          6    1    1    2  501    0  0.10077733037E+03  0.36580795952E+01  0.25773972433E+03  0.32638660720E+03  0.17300000000E+03 0.  1.
         -6    1    1    2    0  503 -0.10077733037E+03 -0.36580795952E+01 -0.71786140372E+02  0.21272447394E+03  0.17300000000E+03 0.  1.
<mgrwt>
<rscale>  2 0.20024598E+03</rscale>
<asrwt>0</asrwt>
<pdfrwt beam="1">  1       21 0.55774205E-01 0.20024598E+03</pdfrwt>
<pdfrwt beam="2">  1       21 0.27165961E-01 0.20024598E+03</pdfrwt>
<totfact> 0.38957701E+04</totfact>
</mgrwt>
</event>
<event>
 4    1  0.4319182E+000  0.2106658E+03  0.7546771E-02  0.1141040E+00
         21   -1    0    0  501  502  0.00000000000E+00  0.00000000000E+00  0.15873846624E+03  0.15873846624E+03  0.00000000000E+00 0.  1.
         21   -1    0    0  502  503 -0.00000000000E+00 -0.00000000000E+00 -0.53813047753E+03  0.53813047753E+03  0.00000000000E+00 0.  1.
          6    1    1    2  501    0 -0.53193724011E+02  0.10780310879E+03  0.51822318564E+02  0.21694615747E+03  0.17300000000E+03 0.  1.
         -6    1    1    2    0  503  0.53193724011E+02 -0.10780310879E+03 -0.43121432985E+03  0.47992278630E+03  0.17300000000E+03 0.  1.
<mgrwt>
<rscale>  2 0.21066581E+03</rscale>
<asrwt>0</asrwt>
<pdfrwt beam="1">  1       21 0.24421303E-01 0.21066581E+03</pdfrwt>
<pdfrwt beam="2">  1       21 0.82789304E-01 0.21066581E+03</pdfrwt>
<totfact> 0.19936803E+04</totfact>
</mgrwt>
</event>
<event>
 4    1  0.4319182E+000  0.2569070E+03  0.7546771E-02  0.1109016E+00
         21   -1    0    0  501  502  0.00000000000E+00  0.00000000000E+00  0.12387839269E+04  0.12387839269E+04  0.00000000000E+00 0. -1.
         21   -1    0    0  502  503 -0.00000000000E+00 -0.00000000000E+00 -0.71430373041E+02  0.71430373041E+02  0.00000000000E+00 0. -1.
          6    1    1    2  501    0  0.63416298420E+02 -0.17902672996E+03  0.91391348775E+03  0.94933611542E+03  0.17300000000E+03 0. -1.
         -6    1    1    2    0  503 -0.63416298420E+02  0.17902672996E+03  0.25344006606E+03  0.36087818448E+03  0.17300000000E+03 0. -1.
<mgrwt>
<rscale>  2 0.25690698E+03</rscale>
<asrwt>0</asrwt>
<pdfrwt beam="1">  1       21 0.19058213E+00 0.25690698E+03</pdfrwt>
<pdfrwt beam="2">  1       21 0.10989289E-01 0.25690698E+03</pdfrwt>
<totfact> 0.10128265E+04</totfact>
</mgrwt>
</event>
<event>
 4    1  0.4319182E+000  0.2069483E+03  0.7546771E-02  0.1144006E+00
         21   -1    0    0  501  502  0.00000000000E+00  0.00000000000E+00  0.75453877970E+03  0.75453877970E+03  0.00000000000E+00 0. -1.
         21   -1    0    0  502  503 -0.00000000000E+00 -0.00000000000E+00 -0.21244963892E+03  0.21244963892E+03  0.00000000000E+00 0. -1.
          6    1    1    2  501    0  0.69188602562E+02 -0.90064171378E+02  0.68494239178E+03  0.71552337331E+03  0.17300000000E+03 0. -1.
         -6    1    1    2    0  503 -0.69188602562E+02  0.90064171378E+02 -0.14285325100E+03  0.25146504531E+03  0.17300000000E+03 0. -1.
<mgrwt>
<rscale>  2 0.20694835E+03</rscale>
<asrwt>0</asrwt>
<pdfrwt beam="1">  1       21 0.11608289E+00 0.20694835E+03</pdfrwt>
<pdfrwt beam="2">  1       21 0.32684560E-01 0.20694835E+03</pdfrwt>
<totfact> 0.51042081E+03</totfact>
</mgrwt>
</event>
<event>
 4    1  0.4319182E+000  0.3153719E+03  0.7546771E-02  0.1077799E+00
         21   -1    0    0  503  502  0.00000000000E+00  0.00000000000E+00  0.33660402127E+03  0.33660402127E+03  0.00000000000E+00 0.  1.
         21   -1    0    0  501  503 -0.00000000000E+00 -0.00000000000E+00 -0.29648712692E+03  0.29648712692E+03  0.00000000000E+00 0. -1.
          6    1    1    2  501    0 -0.42924741443E+02 -0.26016902299E+03  0.38515780173E+02  0.31771515430E+03  0.17300000000E+03 0. -1.
         -6    1    1    2    0  502  0.42924741443E+02  0.26016902299E+03  0.16011141726E+01  0.31537599388E+03  0.17300000000E+03 0.  1.
<mgrwt>
<rscale>  2 0.31537193E+03</rscale>
<asrwt>0</asrwt>
<pdfrwt beam="1">  1       21 0.51785234E-01 0.31537193E+03</pdfrwt>
<pdfrwt beam="2">  1       21 0.45613405E-01 0.31537193E+03</pdfrwt>
<totfact> 0.15339399E+04</totfact>
</mgrwt>
</event>
<event>
 4    1  0.4319182E+000  0.2192565E+03  0.7546771E-02  0.1134439E+00
         21   -1    0    0  501  502  0.00000000000E+00  0.00000000000E+00  0.89107430090E+03  0.89107430090E+03  0.00000000000E+00 0. -1.
         21   -1    0    0  502  503 -0.00000000000E+00 -0.00000000000E+00 -0.12368504420E+03  0.12368504420E+03  0.00000000000E+00 0. -1.
          6    1    1    2  501    0  0.28147493857E+02  0.13172746844E+03  0.76467288368E+03  0.79548603155E+03  0.17300000000E+03 0. -1.
         -6    1    1    2    0  503 -0.28147493857E+02 -0.13172746844E+03  0.27163730197E+01  0.21927331355E+03  0.17300000000E+03 0. -1.
<mgrwt>
<rscale>  2 0.21925649E+03</rscale>
<asrwt>0</asrwt>
<pdfrwt beam="1">  1       21 0.13708835E+00 0.21925649E+03</pdfrwt>
<pdfrwt beam="2">  1       21 0.19028469E-01 0.21925649E+03</pdfrwt>
<totfact> 0.93850598E+03</totfact>
</mgrwt>
</event>
<event>
 4    1  0.4319182E+000  0.2642678E+03  0.7546771E-02  0.1104606E+00
         21   -1    0    0  503  502  0.00000000000E+00  0.00000000000E+00  0.34084330193E+03  0.34084330193E+03  0.00000000000E+00 0.  1.
         21   -1    0    0  501  503 -0.00000000000E+00 -0.00000000000E+00 -0.20490774359E+03  0.20490774359E+03  0.00000000000E+00 0.  1.
          6    1    1    2  501    0 -0.19241011070E+03 -0.53729253698E+02  0.65916026831E+02  0.27236447271E+03  0.17300000000E+03 0.  1.
         -6    1    1    2    0  502  0.19241011070E+03  0.53729253698E+02  0.70019531505E+02  0.27338657281E+03  0.17300000000E+03 0.  1.
<mgrwt>
<rscale>  2 0.26426783E+03</rscale>
<asrwt>0</asrwt>
<pdfrwt beam="1">  1       21 0.52437431E-01 0.26426783E+03</pdfrwt>
<pdfrwt beam="2">  1       21 0.31524268E-01 0.26426783E+03</pdfrwt>
<totfact> 0.32238008E+04</totfact>
</mgrwt>
</event>
<event>
 4    1  0.4319182E+000  0.1866196E+03  0.7546771E-02  0.1161546E+00
         21   -1    0    0  501  502  0.00000000000E+00  0.00000000000E+00  0.44751129089E+02  0.44751129089E+02  0.00000000000E+00 0. -1.
         21   -1    0    0  502  503 -0.00000000000E+00 -0.00000000000E+00 -0.88198049145E+03  0.88198049145E+03  0.00000000000E+00 0. -1.
          6    1    1    2  501    0 -0.49117432385E+02  0.49853142997E+02 -0.25969384584E+03  0.31979329511E+03  0.17300000000E+03 0. -1.
         -6    1    1    2    0  503  0.49117432385E+02 -0.49853142997E+02 -0.57753551652E+03  0.60693832543E+03  0.17300000000E+03 0. -1.
<mgrwt>
<rscale>  2 0.18661955E+03</rscale>
<asrwt>0</asrwt>
<pdfrwt beam="1">  1       21 0.68847897E-02 0.18661955E+03</pdfrwt>
<pdfrwt beam="2">  1       21 0.13568930E+00 0.18661955E+03</pdfrwt>
<totfact> 0.60549067E+04</totfact>
</mgrwt>
</event>
<event>
 4    1  0.4319182E+000  0.3038795E+03  0.7546771E-02  0.1083317E+00
         21   -1    0    0  501  502  0.00000000000E+00  0.00000000000E+00  0.62731047630E+02  0.62731047630E+02  0.00000000000E+00 0. -1.
         21   -1    0    0  502  503 -0.00000000000E+00 -0.00000000000E+00 -0.14722944941E+04  0.14722944941E+04  0.00000000000E+00 0. -1.
          6    1    1    2  501    0 -0.10441813087E+03 -0.22695950509E+03 -0.69473892975E+03  0.75829080405E+03  0.17300000000E+03 0. -1.
         -6    1    1    2    0  503  0.10441813087E+03  0.22695950509E+03 -0.71482451670E+03  0.77673473766E+03  0.17300000000E+03 0. -1.
<mgrwt>
<rscale>  2 0.30387952E+03</rscale>
<asrwt>0</asrwt>
<pdfrwt beam="1">  1       21 0.96509313E-02 0.30387952E+03</pdfrwt>
<pdfrwt beam="2">  1       21 0.22650682E+00 0.30387952E+03</pdfrwt>
<totfact> 0.72984019E+03</totfact>
</mgrwt>
</event>
<event>
 4    1  0.4319182E+000  0.1804599E+03  0.7546771E-02  0.1167359E+00
         21   -1    0    0  503  502  0.00000000000E+00  0.00000000000E+00  0.75135205735E+03  0.75135205735E+03  0.00000000000E+00 0.  1.
         21   -1    0    0  501  503 -0.00000000000E+00 -0.00000000000E+00 -0.43453153094E+02  0.43453153094E+02  0.00000000000E+00 0.  1.
          6    1    1    2  501    0  0.49402776848E+02 -0.14004404777E+02  0.37396955168E+03  0.41523364904E+03  0.17300000000E+03 0.  1.
         -6    1    1    2    0  502 -0.49402776848E+02  0.14004404777E+02  0.33392935258E+03  0.37957156140E+03  0.17300000000E+03 0.  1.
<mgrwt>
<rscale>  2 0.18045985E+03</rscale>
<asrwt>0</asrwt>
<pdfrwt beam="1">  1       21 0.11559262E+00 0.18045985E+03</pdfrwt>
<pdfrwt beam="2">  1       21 0.66851010E-02 0.18045985E+03</pdfrwt>
<totfact> 0.95315462E+04</totfact>
</mgrwt>
</event>
<event>
 4    1  0.4319182E+000  0.1744276E+03  0.7546771E-02  0.1173308E+00
         21   -1    0    0  501  502  0.00000000000E+00  0.00000000000E+00  0.15096968033E+03  0.15096968033E+03  0.00000000000E+00 0. -1.
         21   -1    0    0  502  503 -0.00000000000E+00 -0.00000000000E+00 -0.22735600674E+03  0.22735600674E+03  0.00000000000E+00 0.  1.
          6    1    1    2  501    0  0.21360030049E+02  0.63024010410E+01  0.25560975225E+02  0.17629048357E+03  0.17300000000E+03 0. -1.
         -6    1    1    2    0  503 -0.21360030049E+02 -0.63024010410E+01 -0.10194730163E+03  0.20203520350E+03  0.17300000000E+03 0.  1.
<mgrwt>
<rscale>  2 0.17442755E+03</rscale>
<asrwt>0</asrwt>
<pdfrwt beam="1">  1       21 0.23226105E-01 0.17442755E+03</pdfrwt>
<pdfrwt beam="2">  1       21 0.34977847E-01 0.17442755E+03</pdfrwt>
<totfact> 0.13812061E+05</totfact>
</mgrwt>
</event>
<event>
 4    1  0.4319182E+000  0.2685351E+03  0.7546771E-02  0.1102121E+00
         21   -1    0    0  501  502  0.00000000000E+00  0.00000000000E+00  0.16717376947E+04  0.16717376947E+04  0.00000000000E+00 0. -1.
         21   -1    0    0  502  503 -0.00000000000E+00 -0.00000000000E+00 -0.11181441587E+03  0.11181441587E+03  0.00000000000E+00 0.  1.
          6    1    1    2  501    0 -0.19531692297E+03 -0.63509146590E+02  0.14788677980E+04  0.15030505900E+04  0.17300000000E+03 0. -1.
         -6    1    1    2    0  503  0.19531692297E+03  0.63509146590E+02  0.81055480870E+02  0.28050152063E+03  0.17300000000E+03 0.  1.
<mgrwt>
<rscale>  2 0.26853512E+03</rscale>
<asrwt>0</asrwt>
<pdfrwt beam="1">  1       21 0.25719040E+00 0.26853512E+03</pdfrwt>
<pdfrwt beam="2">  1       21 0.17202219E-01 0.26853512E+03</pdfrwt>
<totfact> 0.17065960E+03</totfact>
</mgrwt>
</event>
<event>
 4    1  0.4319182E+000  0.1768098E+03  0.7546771E-02  0.1170927E+00
         21   -1    0    0  503  502  0.00000000000E+00  0.00000000000E+00  0.49647040679E+02  0.49647040679E+02  0.00000000000E+00 0. -1.
         21   -1    0    0  501  503 -0.00000000000E+00 -0.00000000000E+00 -0.63747182081E+03  0.63747182081E+03  0.00000000000E+00 0. -1.
          6    1    1    2  501    0  0.87849883441E+01  0.35433251273E+02 -0.33189834037E+03  0.37605611238E+03  0.17300000000E+03 0. -1.
         -6    1    1    2    0  502 -0.87849883441E+01 -0.35433251273E+02 -0.25592643976E+03  0.31106274911E+03  0.17300000000E+03 0. -1.
<mgrwt>
<rscale>  2 0.17680976E+03</rscale>
<asrwt>0</asrwt>
<pdfrwt beam="1">  1       21 0.76380062E-02 0.17680976E+03</pdfrwt>
<pdfrwt beam="2">  1       21 0.98072588E-01 0.17680976E+03</pdfrwt>
<totfact> 0.11250594E+05</totfact>
</mgrwt>
</event>
<event>
 4    1  0.4319182E+000  0.2149633E+03  0.7546771E-02  0.1137695E+00
         21   -1    0    0  501  502  0.00000000000E+00  0.00000000000E+00  0.34776176422E+03  0.34776176422E+03  0.00000000000E+00 0. -1.
         21   -1    0    0  502  503 -0.00000000000E+00 -0.00000000000E+00 -0.27983675994E+03  0.27983675994E+03  0.00000000000E+00 0. -1.
          6    1    1    2  501    0  0.12680229040E+03  0.14192234203E+02  0.26136751080E+03  0.33841131197E+03  0.17300000000E+03 0. -1.
         -6    1    1    2    0  503 -0.12680229040E+03 -0.14192234203E+02 -0.19344250652E+03  0.28918721219E+03  0.17300000000E+03 0. -1.
<mgrwt>
<rscale>  2 0.21496335E+03</rscale>
<asrwt>0</asrwt>
<pdfrwt beam="1">  1       21 0.53501810E-01 0.21496335E+03</pdfrwt>
<pdfrwt beam="2">  1       21 0.43051809E-01 0.21496335E+03</pdfrwt>
<totfact> 0.16922576E+04</totfact>
</mgrwt>
</event>
<event>
 4    1  0.4319182E+000  0.2300527E+03  0.7546771E-02  0.1126603E+00
         21   -1    0    0  501  502  0.00000000000E+00  0.00000000000E+00  0.86883864347E+02  0.86883864347E+02  0.00000000000E+00 0.  1.
         21   -1    0    0  502  503 -0.00000000000E+00 -0.00000000000E+00 -0.65235802144E+03  0.65235802144E+03  0.00000000000E+00 0.  1.
          6    1    1    2  501    0  0.74626781909E+02 -0.13200793913E+03 -0.18759849526E+03  0.29684583203E+03  0.17300000000E+03 0.  1.
         -6    1    1    2    0  503 -0.74626781909E+02  0.13200793913E+03 -0.37787566184E+03  0.44239605376E+03  0.17300000000E+03 0.  1.
<mgrwt>
<rscale>  2 0.23005272E+03</rscale>
<asrwt>0</asrwt>
<pdfrwt beam="1">  1       21 0.13366749E-01 0.23005272E+03</pdfrwt>
<pdfrwt beam="2">  1       21 0.10036277E+00 0.23005272E+03</pdfrwt>
<totfact> 0.38595239E+04</totfact>
</mgrwt>
</event>
<event>
 4    1  0.4319182E+000  0.1928447E+03  0.7546771E-02  0.1155920E+00
         21   -1    0    0  503  502  0.00000000000E+00  0.00000000000E+00  0.11184222687E+03  0.11184222687E+03  0.00000000000E+00 0.  1.
         21   -1    0    0  501  503 -0.00000000000E+00 -0.00000000000E+00 -0.57243198809E+03  0.57243198809E+03  0.00000000000E+00 0. -1.
          6    1    1    2  501    0  0.49390497268E+02  0.69430836060E+02 -0.45179297473E+03  0.49122902422E+03  0.17300000000E+03 0. -1.
         -6    1    1    2    0  502 -0.49390497268E+02 -0.69430836060E+02 -0.87967864972E+01  0.19304519074E+03  0.17300000000E+03 0.  1.
<mgrwt>
<rscale>  2 0.19284466E+03</rscale>
<asrwt>0</asrwt>
<pdfrwt beam="1">  1       21 0.17206496E-01 0.19284466E+03</pdfrwt>
<pdfrwt beam="2">  1       21 0.88066461E-01 0.19284466E+03</pdfrwt>
<totfact> 0.33702019E+04</totfact>
</mgrwt>
</event>
<event>
 4    1  0.4319182E+000  0.1944534E+03  0.7546771E-02  0.1154505E+00
         21   -1    0    0  501  502  0.00000000000E+00  0.00000000000E+00  0.79852419148E+02  0.79852419148E+02  0.00000000000E+00 0.  1.
         21   -1    0    0  502  503 -0.00000000000E+00 -0.00000000000E+00 -0.66676120632E+03  0.66676120632E+03  0.00000000000E+00 0.  1.
          6    1    1    2  501    0  0.39232309442E+02  0.79648870699E+02 -0.49442151239E+03  0.53128593866E+03  0.17300000000E+03 0.  1.
         -6    1    1    2    0  503 -0.39232309442E+02 -0.79648870699E+02 -0.92487274782E+02  0.21532768680E+03  0.17300000000E+03 0.  1.
<mgrwt>
<rscale>  2 0.19445338E+03</rscale>
<asrwt>0</asrwt>
<pdfrwt beam="1">  1       21 0.12284988E-01 0.19445338E+03</pdfrwt>
<pdfrwt beam="2">  1       21 0.10257865E+00 0.19445338E+03</pdfrwt>
<totfact> 0.43432925E+04</totfact>
</mgrwt>
</event>
<event>
 4    1  0.4319182E+000  0.2783116E+03  0.7546771E-02  0.1096615E+00
         21   -1    0    0  503  502  0.00000000000E+00  0.00000000000E+00  0.37760245575E+03  0.37760245575E+03  0.00000000000E+00 0.  1.
         21   -1    0    0  501  503 -0.00000000000E+00 -0.00000000000E+00 -0.24883293563E+03  0.24883293563E+03  0.00000000000E+00 0.  1.
          6    1    1    2  501    0 -0.18093783615E+03  0.12161362293E+03 -0.66880720022E+02  0.28623487653E+03  0.17300000000E+03 0.  1.
         -6    1    1    2    0  502  0.18093783615E+03 -0.12161362293E+03  0.19565024015E+03  0.34020051485E+03  0.17300000000E+03 0.  1.
<mgrwt>
<rscale>  2 0.27831165E+03</rscale>
<asrwt>0</asrwt>
<pdfrwt beam="1">  1       21 0.58092686E-01 0.27831165E+03</pdfrwt>
<pdfrwt beam="2">  1       21 0.38281990E-01 0.27831165E+03</pdfrwt>
<totfact> 0.17462730E+04</totfact>
</mgrwt>
</event>
<event>
 4    1  0.4319182E+000  0.2457944E+03  0.7546771E-02  0.1115992E+00
         21   -1    0    0  503  502  0.00000000000E+00  0.00000000000E+00  0.25674663818E+03  0.25674663818E+03  0.00000000000E+00 0. -1.
         21   -1    0    0  501  503 -0.00000000000E+00 -0.00000000000E+00 -0.26664118289E+03  0.26664118289E+03  0.00000000000E+00 0.  1.
          6    1    1    2  501    0 -0.14769196528E+01  0.17459578734E+03 -0.94653643775E+02  0.26338979200E+03  0.17300000000E+03 0. -1.
         -6    1    1    2    0  502  0.14769196528E+01 -0.17459578734E+03  0.84759099074E+02  0.25999802908E+03  0.17300000000E+03 0. -1.
<mgrwt>
<rscale>  2 0.24579437E+03</rscale>
<asrwt>0</asrwt>
<pdfrwt beam="1">  1       21 0.39499483E-01 0.24579437E+03</pdfrwt>
<pdfrwt beam="2">  1       21 0.41021720E-01 0.24579437E+03</pdfrwt>
<totfact> 0.34458039E+04</totfact>
</mgrwt>
</event>
<event>
 4    1  0.4319182E+000  0.3720585E+03  0.7546771E-02  0.1053909E+00
         21   -1    0    0  503  502  0.00000000000E+00  0.00000000000E+00  0.53805601096E+03  0.53805601096E+03  0.00000000000E+00 0. -1.
         21   -1    0    0  501  503 -0.00000000000E+00 -0.00000000000E+00 -0.28486993190E+03  0.28486993190E+03  0.00000000000E+00 0.  1.
          6    1    1    2  501    0  0.27837333982E+03  0.17608743829E+03 -0.14732016835E+01  0.37206138280E+03  0.17300000000E+03 0.  1.
         -6    1    1    2    0  502 -0.27837333982E+03 -0.17608743829E+03  0.25465928075E+03  0.45086456006E+03  0.17300000000E+03 0. -1.
<mgrwt>
<rscale>  2 0.37205847E+03</rscale>
<asrwt>0</asrwt>
<pdfrwt beam="1">  1       21 0.82777848E-01 0.37205847E+03</pdfrwt>
<pdfrwt beam="2">  1       21 0.43826143E-01 0.37205847E+03</pdfrwt>
<totfact> 0.57719798E+03</totfact>
</mgrwt>
</event>
<event>
 4    1  0.4319182E+000  0.2392089E+03  0.7546771E-02  0.1120321E+00
         21   -1    0    0  503  502  0.00000000000E+00  0.00000000000E+00  0.17910298412E+03  0.17910298412E+03  0.00000000000E+00 0.  1.
         21   -1    0    0  501  503 -0.00000000000E+00 -0.00000000000E+00 -0.32562288124E+03  0.32562288124E+03  0.00000000000E+00 0.  1.
          6    1    1    2  501    0 -0.13520168465E+03 -0.94933740877E+02 -0.10790482866E+03  0.26242020261E+03  0.17300000000E+03 0.  1.
         -6    1    1    2    0  502  0.13520168465E+03  0.94933740877E+02 -0.38615068456E+02  0.24230566275E+03  0.17300000000E+03 0.  1.
<mgrwt>
<rscale>  2 0.23920893E+03</rscale>
<asrwt>0</asrwt>
<pdfrwt beam="1">  1       21 0.27554305E-01 0.23920893E+03</pdfrwt>
<pdfrwt beam="2">  1       21 0.50095828E-01 0.23920893E+03</pdfrwt>
<totfact> 0.46678240E+04</totfact>
</mgrwt>
</event>
<event>
 4    1  0.4319182E+000  0.4267394E+03  0.7546771E-02  0.1034895E+00
         21   -1    0    0  501  502  0.00000000000E+00  0.00000000000E+00  0.12185620491E+04  0.12185620491E+04  0.00000000000E+00 0. -1.
         21   -1    0    0  502  503 -0.00000000000E+00 -0.00000000000E+00 -0.48083723445E+03  0.48083723445E+03  0.00000000000E+00 0.  1.
          6    1    1    2  501    0 -0.10659538820E+03 -0.37525314356E+03  0.10742671314E+04  0.11559223019E+04  0.17300000000E+03 0. -1.
         -6    1    1    2    0  503  0.10659538820E+03  0.37525314356E+03 -0.33654231676E+03  0.54347698158E+03  0.17300000000E+03 0.  1.
<mgrwt>
<rscale>  2 0.42673938E+03</rscale>
<asrwt>0</asrwt>
<pdfrwt beam="1">  1       21 0.18747108E+00 0.42673938E+03</pdfrwt>
<pdfrwt beam="2">  1       21 0.73974959E-01 0.42673938E+03</pdfrwt>
<totfact> 0.21852435E+02</totfact>
</mgrwt>
</event>
<event>
 4    1  0.4319182E+000  0.1846696E+03  0.7546771E-02  0.1163359E+00
         21   -1    0    0  501  502  0.00000000000E+00  0.00000000000E+00  0.11580336379E+03  0.11580336379E+03  0.00000000000E+00 0.  1.
         21   -1    0    0  502  503 -0.00000000000E+00 -0.00000000000E+00 -0.29603659308E+03  0.29603659308E+03  0.00000000000E+00 0.  1.
          6    1    1    2  501    0  0.28018460681E+02  0.58213527442E+02 -0.75229338061E+02  0.19940487010E+03  0.17300000000E+03 0.  1.
         -6    1    1    2    0  503 -0.28018460681E+02 -0.58213527442E+02 -0.10500389123E+03  0.21243508677E+03  0.17300000000E+03 0.  1.
<mgrwt>
<rscale>  2 0.18466957E+03</rscale>
<asrwt>0</asrwt>
<pdfrwt beam="1">  1       21 0.17815902E-01 0.18466957E+03</pdfrwt>
<pdfrwt beam="2">  1       21 0.45544091E-01 0.18466957E+03</pdfrwt>
<totfact> 0.13264259E+05</totfact>
</mgrwt>
</event>
<event>
 4    1  0.4319182E+000  0.1850091E+03  0.7546771E-02  0.1163041E+00
         21   -1    0    0  503  502  0.00000000000E+00  0.00000000000E+00  0.24380977500E+03  0.24380977500E+03  0.00000000000E+00 0.  1.
         21   -1    0    0  501  503 -0.00000000000E+00 -0.00000000000E+00 -0.14744191532E+03  0.14744191532E+03  0.00000000000E+00 0. -1.
          6    1    1    2  501    0  0.59053200032E+01 -0.65303068847E+02  0.53999925117E+01  0.18508788054E+03  0.17300000000E+03 0.  1.
         -6    1    1    2    0  502 -0.59053200032E+01  0.65303068847E+02  0.90967867167E+02  0.20616380978E+03  0.17300000000E+03 0. -1.
<mgrwt>
<rscale>  2 0.18500909E+03</rscale>
<asrwt>0</asrwt>
<pdfrwt beam="1">  1       21 0.37509196E-01 0.18500909E+03</pdfrwt>
<pdfrwt beam="2">  1       21 0.22683372E-01 0.18500909E+03</pdfrwt>
<totfact> 0.12522511E+05</totfact>
</mgrwt>
</event>
<event>
 4    1  0.4319182E+000  0.2028167E+03  0.7546771E-02  0.1147384E+00
         21   -1    0    0  501  502  0.00000000000E+00  0.00000000000E+00  0.45531425442E+03  0.45531425442E+03  0.00000000000E+00 0.  1.
         21   -1    0    0  502  503 -0.00000000000E+00 -0.00000000000E+00 -0.18651376239E+03  0.18651376239E+03  0.00000000000E+00 0. -1.
          6    1    1    2  501    0  0.14767558481E+02 -0.10482135586E+03  0.36483822638E+03  0.41742248246E+03  0.17300000000E+03 0.  1.
         -6    1    1    2    0  503 -0.14767558481E+02  0.10482135586E+03 -0.96037734355E+02  0.22440553435E+03  0.17300000000E+03 0. -1.
<mgrwt>
<rscale>  2 0.20281666E+03</rscale>
<asrwt>0</asrwt>
<pdfrwt beam="1">  1       21 0.70048347E-01 0.20281666E+03</pdfrwt>
<pdfrwt beam="2">  1       21 0.28694425E-01 0.20281666E+03</pdfrwt>
<totfact> 0.21366077E+04</totfact>
</mgrwt>
</event>
<event>
 4    1  0.4319182E+000  0.2192186E+03  0.7546771E-02  0.1134467E+00
         21   -1    0    0  501  502  0.00000000000E+00  0.00000000000E+00  0.11509211117E+03  0.11509211117E+03  0.00000000000E+00 0.  1.
         21   -1    0    0  502  503 -0.00000000000E+00 -0.00000000000E+00 -0.43779308145E+03  0.43779308145E+03  0.00000000000E+00 0.  1.
          6    1    1    2  501    0  0.12606975311E+03 -0.47267538356E+02 -0.22079342361E+03  0.31113749170E+03  0.17300000000E+03 0.  1.
         -6    1    1    2    0  503 -0.12606975311E+03  0.47267538356E+02 -0.10190754667E+03  0.24174770092E+03  0.17300000000E+03 0.  1.
<mgrwt>
<rscale>  2 0.21921862E+03</rscale>
<asrwt>0</asrwt>
<pdfrwt beam="1">  1       21 0.17706479E-01 0.21921862E+03</pdfrwt>
<pdfrwt beam="2">  1       21 0.67352782E-01 0.21921862E+03</pdfrwt>
<totfact> 0.57651746E+04</totfact>
</mgrwt>
</event>
<event>
 4    1  0.4319182E+000  0.2107697E+03  0.7546771E-02  0.1140958E+00
         21   -1    0    0  501  502  0.00000000000E+00  0.00000000000E+00  0.82760527155E+02  0.82760527155E+02  0.00000000000E+00 0.  1.
         21   -1    0    0  502  503 -0.00000000000E+00 -0.00000000000E+00 -0.66436700611E+03  0.66436700611E+03  0.00000000000E+00 0.  1.
          6    1    1    2  501    0  0.11475576655E+03  0.36413779139E+02 -0.12709480083E+03  0.24612382588E+03  0.17300000000E+03 0.  1.
         -6    1    1    2    0  503 -0.11475576655E+03 -0.36413779139E+02 -0.45451167812E+03  0.50100370738E+03  0.17300000000E+03 0.  1.
<mgrwt>
<rscale>  2 0.21076966E+03</rscale>
<asrwt>0</asrwt>
<pdfrwt beam="1">  1       21 0.12732389E-01 0.21076966E+03</pdfrwt>
<pdfrwt beam="2">  1       21 0.10221031E+00 0.21076966E+03</pdfrwt>
<totfact> 0.40726764E+04</totfact>
</mgrwt>
</event>
<event>
 4    1  0.4319182E+000  0.2659982E+03  0.7546771E-02  0.1103592E+00
         21   -1    0    0  503  502  0.00000000000E+00  0.00000000000E+00  0.13369116653E+04  0.13369116653E+04  0.00000000000E+00 0.  1.
         21   -1    0    0  501  503 -0.00000000000E+00 -0.00000000000E+00 -0.66149276577E+02  0.66149276577E+02  0.00000000000E+00 0. -1.
          6    1    1    2  501    0  0.16390688573E+03 -0.11815498892E+03  0.32170467967E+03  0.41743139498E+03  0.17300000000E+03 0. -1.
         -6    1    1    2    0  502 -0.16390688573E+03  0.11815498892E+03  0.94905770906E+03  0.98562954690E+03  0.17300000000E+03 0.  1.
<mgrwt>
<rscale>  2 0.26599825E+03</rscale>
<asrwt>0</asrwt>
<pdfrwt beam="1">  1       21 0.20567870E+00 0.26599825E+03</pdfrwt>
<pdfrwt beam="2">  1       21 0.10176813E-01 0.26599825E+03</pdfrwt>
<totfact> 0.91991630E+03</totfact>
</mgrwt>
</event>
<event>
 4    1  0.4319182E+000  0.2017811E+03  0.7546771E-02  0.1148245E+00
         21   -1    0    0  503  502  0.00000000000E+00  0.00000000000E+00  0.15319260247E+04  0.15319260247E+04  0.00000000000E+00 0.  1.
         21   -1    0    0  501  503 -0.00000000000E+00 -0.00000000000E+00 -0.71814654398E+02  0.71814654398E+02  0.00000000000E+00 0.  1.
          6    1    1    2  501    0  0.10385866971E+03 -0.67720429576E-01  0.93637553593E+02  0.22244913869E+03  0.17300000000E+03 0.  1.
         -6    1    1    2    0  502 -0.10385866971E+03  0.67720429576E-01  0.13664738167E+04  0.13812915404E+04  0.17300000000E+03 0.  1.
<mgrwt>
<rscale>  2 0.20178114E+03</rscale>
<asrwt>0</asrwt>
<pdfrwt beam="1">  1       21 0.23568090E+00 0.20178114E+03</pdfrwt>
<pdfrwt beam="2">  1       21 0.11048410E-01 0.20178114E+03</pdfrwt>
<totfact> 0.54483109E+03</totfact>
</mgrwt>
</event>
<event>
 4    1  0.4319182E+000  0.2215032E+03  0.7546771E-02  0.1132767E+00
         21   -1    0    0  501  502  0.00000000000E+00  0.00000000000E+00  0.68851359719E+03  0.68851359719E+03  0.00000000000E+00 0.  1.
         21   -1    0    0  502  503 -0.00000000000E+00 -0.00000000000E+00 -0.75293535678E+02  0.75293535678E+02  0.00000000000E+00 0. -1.
          6    1    1    2  501    0  0.98147613457E+02 -0.97476791529E+02  0.39499983717E+03  0.45286703377E+03  0.17300000000E+03 0.  1.
         -6    1    1    2    0  503 -0.98147613457E+02  0.97476791529E+02  0.21822022434E+03  0.31094009910E+03  0.17300000000E+03 0. -1.
<mgrwt>
<rscale>  2 0.22150323E+03</rscale>
<asrwt>0</asrwt>
<pdfrwt beam="1">  1       21 0.10592516E+00 0.22150323E+03</pdfrwt>
<pdfrwt beam="2">  1       21 0.11583621E-01 0.22150323E+03</pdfrwt>
<totfact> 0.44052875E+04</totfact>
</mgrwt>
</event>
<event>
 4    1  0.4319182E+000  0.2090111E+03  0.7546771E-02  0.1142351E+00
         21   -1    0    0  501  502  0.00000000000E+00  0.00000000000E+00  0.10805235240E+03  0.10805235240E+03  0.00000000000E+00 0.  1.
         21   -1    0    0  502  503 -0.00000000000E+00 -0.00000000000E+00 -0.50300929699E+03  0.50300929699E+03  0.00000000000E+00 0.  1.
          6    1    1    2  501    0  0.80527442601E+02 -0.85275864883E+02 -0.62132758447E+02  0.21805073221E+03  0.17300000000E+03 0.  1.
         -6    1    1    2    0  503 -0.80527442601E+02  0.85275864883E+02 -0.33282418615E+03  0.39301091719E+03  0.17300000000E+03 0.  1.
<mgrwt>
<rscale>  2 0.20901111E+03</rscale>
<asrwt>0</asrwt>
<pdfrwt beam="1">  1       21 0.16623439E-01 0.20901111E+03</pdfrwt>
<pdfrwt beam="2">  1       21 0.77386045E-01 0.20901111E+03</pdfrwt>
<totfact> 0.47792859E+04</totfact>
</mgrwt>
</event>
<event>
 4    1  0.4319182E+000  0.2440516E+03  0.7546771E-02  0.1117123E+00
         21   -1    0    0  501  502  0.00000000000E+00  0.00000000000E+00  0.33290371329E+03  0.33290371329E+03  0.00000000000E+00 0. -1.
         21   -1    0    0  502  503 -0.00000000000E+00 -0.00000000000E+00 -0.40754953701E+03  0.40754953701E+03  0.00000000000E+00 0.  1.
          6    1    1    2  501    0 -0.12074963118E+03 -0.12268549917E+03  0.23997660503E+03  0.34227178688E+03  0.17300000000E+03 0. -1.
         -6    1    1    2    0  503  0.12074963118E+03  0.12268549917E+03 -0.31462242875E+03  0.39818146342E+03  0.17300000000E+03 0.  1.
<mgrwt>
<rscale>  2 0.24405164E+03</rscale>
<asrwt>0</asrwt>
<pdfrwt beam="1">  1       21 0.51215956E-01 0.24405164E+03</pdfrwt>
<pdfrwt beam="2">  1       21 0.62699929E-01 0.24405164E+03</pdfrwt>
<totfact> 0.82583578E+03</totfact>
</mgrwt>
</event>
<event>
 4    1  0.4319182E+000  0.1794297E+03  0.7546771E-02  0.1168356E+00
         21   -1    0    0  503  502  0.00000000000E+00  0.00000000000E+00  0.12263570660E+03  0.12263570660E+03  0.00000000000E+00 0. -1.
         21   -1    0    0  501  503 -0.00000000000E+00 -0.00000000000E+00 -0.29069199292E+03  0.29069199292E+03  0.00000000000E+00 0. -1.
          6    1    1    2  501    0 -0.31442261031E+02 -0.35740835873E+02 -0.14835805056E+03  0.23281996112E+03  0.17300000000E+03 0. -1.
         -6    1    1    2    0  502  0.31442261031E+02  0.35740835873E+02 -0.19698235755E+02  0.18050773839E+03  0.17300000000E+03 0. -1.
<mgrwt>
<rscale>  2 0.17942972E+03</rscale>
<asrwt>0</asrwt>
<pdfrwt beam="1">  1       21 0.18867032E-01 0.17942972E+03</pdfrwt>
<pdfrwt beam="2">  1       21 0.44721844E-01 0.17942972E+03</pdfrwt>
<totfact> 0.12406800E+05</totfact>
</mgrwt>
</event>
<event>
 4    1  0.4319182E+000  0.1836208E+03  0.7546771E-02  0.1164344E+00
         21   -1    0    0  501  502  0.00000000000E+00  0.00000000000E+00  0.22488851957E+03  0.22488851957E+03  0.00000000000E+00 0.  1.
         21   -1    0    0  502  503 -0.00000000000E+00 -0.00000000000E+00 -0.18606596239E+03  0.18606596239E+03  0.00000000000E+00 0. -1.
          6    1    1    2  501    0  0.21490072911E+02 -0.57669431178E+02  0.10996898902E+03  0.21403215897E+03  0.17300000000E+03 0.  1.
         -6    1    1    2    0  503 -0.21490072911E+02  0.57669431178E+02 -0.71146431842E+02  0.19692232299E+03  0.17300000000E+03 0. -1.
<mgrwt>
<rscale>  2 0.18362077E+03</rscale>
<asrwt>0</asrwt>
<pdfrwt beam="1">  1       21 0.34598234E-01 0.18362077E+03</pdfrwt>
<pdfrwt beam="2">  1       21 0.28625533E-01 0.18362077E+03</pdfrwt>
<totfact> 0.94314023E+04</totfact>
</mgrwt>
</event>
<event>
 4    1  0.4319182E+000  0.1842994E+03  0.7546771E-02  0.1163706E+00
         21   -1    0    0  501  502  0.00000000000E+00  0.00000000000E+00  0.20821383705E+04  0.20821383705E+04  0.00000000000E+00 0. -1.
         21   -1    0    0  502  503 -0.00000000000E+00 -0.00000000000E+00 -0.23223622554E+03  0.23223622554E+03  0.00000000000E+00 0. -1.
          6    1    1    2  501    0 -0.99078770812E+01  0.62762394045E+02  0.20407557587E+04  0.20490608460E+04  0.17300000000E+03 0. -1.
         -6    1    1    2    0  503  0.99078770812E+01 -0.62762394045E+02 -0.19085361365E+03  0.26531375007E+03  0.17300000000E+03 0. -1.
<mgrwt>
<rscale>  2 0.18429944E+03</rscale>
<asrwt>0</asrwt>
<pdfrwt beam="1">  1       21 0.32032897E+00 0.18429944E+03</pdfrwt>
<pdfrwt beam="2">  1       21 0.35728651E-01 0.18429944E+03</pdfrwt>
<totfact> 0.19957531E+02</totfact>
</mgrwt>
</event>
<event>
 4    1  0.4319182E+000  0.2225239E+03  0.7546771E-02  0.1132015E+00
         21   -1    0    0  501  502  0.00000000000E+00  0.00000000000E+00  0.12504834176E+04  0.12504834176E+04  0.00000000000E+00 0. -1.
         21   -1    0    0  502  503 -0.00000000000E+00 -0.00000000000E+00 -0.39722741796E+02  0.39722741796E+02  0.00000000000E+00 0.  1.
          6    1    1    2  501    0  0.11148575098E+03 -0.84609883608E+02  0.64150048313E+03  0.67899909788E+03  0.17300000000E+03 0. -1.
         -6    1    1    2    0  503 -0.11148575098E+03  0.84609883608E+02  0.56926019268E+03  0.61120706152E+03  0.17300000000E+03 0. -1.
<mgrwt>
<rscale>  2 0.22252394E+03</rscale>
<asrwt>0</asrwt>
<pdfrwt beam="1">  1       21 0.19238203E+00 0.22252394E+03</pdfrwt>
<pdfrwt beam="2">  1       21 0.61111920E-02 0.22252394E+03</pdfrwt>
<totfact> 0.28170437E+04</totfact>
</mgrwt>
</event>
<event>
 4    1  0.4319182E+000  0.4804615E+03  0.7546771E-02  0.1019008E+00
         21   -1    0    0  501  502  0.00000000000E+00  0.00000000000E+00  0.40998598902E+03  0.40998598902E+03  0.00000000000E+00 0. -1.
         21   -1    0    0  502  503 -0.00000000000E+00 -0.00000000000E+00 -0.90894910871E+03  0.90894910871E+03  0.00000000000E+00 0.  1.
          6    1    1    2  501    0 -0.43097420762E+03  0.12318863402E+03  0.15733390529E+03  0.50556618255E+03  0.17300000000E+03 0. -1.
         -6    1    1    2    0  503  0.43097420762E+03 -0.12318863402E+03 -0.65629702498E+03  0.81336891518E+03  0.17300000000E+03 0.  1.
<mgrwt>
<rscale>  2 0.48046145E+03</rscale>
<asrwt>0</asrwt>
<pdfrwt beam="1">  1       21 0.63074768E-01 0.48046145E+03</pdfrwt>
<pdfrwt beam="2">  1       21 0.13983832E+00 0.48046145E+03</pdfrwt>
<totfact> 0.69243857E+02</totfact>
</mgrwt>
</event>
<event>
 4    1  0.4319182E+000  0.1832008E+03  0.7546771E-02  0.1164741E+00
         21   -1    0    0  501  502  0.00000000000E+00  0.00000000000E+00  0.88093135366E+02  0.88093135366E+02  0.00000000000E+00 0. -1.
         21   -1    0    0  502  503 -0.00000000000E+00 -0.00000000000E+00 -0.40956996246E+03  0.40956996246E+03  0.00000000000E+00 0. -1.
          6    1    1    2  501    0  0.48219466846E+02 -0.36171963125E+02 -0.22647070216E+03  0.29129281974E+03  0.17300000000E+03 0. -1.
         -6    1    1    2    0  503 -0.48219466846E+02  0.36171963125E+02 -0.95006124934E+02  0.20637027808E+03  0.17300000000E+03 0. -1.
<mgrwt>
<rscale>  2 0.18320079E+03</rscale>
<asrwt>0</asrwt>
<pdfrwt beam="1">  1       21 0.13552790E-01 0.18320079E+03</pdfrwt>
<pdfrwt beam="2">  1       21 0.63010762E-01 0.18320079E+03</pdfrwt>
<totfact> 0.11032805E+05</totfact>
</mgrwt>
</event>
<event>
 4    1  0.4319182E+000  0.2097017E+03  0.7546771E-02  0.1141802E+00
         21   -1    0    0  503  502  0.00000000000E+00  0.00000000000E+00  0.18251837202E+04  0.18251837202E+04  0.00000000000E+00 0. -1.
         21   -1    0    0  501  503 -0.00000000000E+00 -0.00000000000E+00 -0.35938528238E+02  0.35938528238E+02  0.00000000000E+00 0. -1.
          6    1    1    2  501    0 -0.82744637971E+02  0.84847733379E+02  0.36038391133E+03  0.41695488547E+03  0.17300000000E+03 0. -1.
         -6    1    1    2    0  502  0.82744637971E+02 -0.84847733379E+02  0.14288612806E+04  0.14441673630E+04  0.17300000000E+03 0. -1.
<mgrwt>
<rscale>  2 0.20970172E+03</rscale>
<asrwt>0</asrwt>
<pdfrwt beam="1">  1       21 0.28079742E+00 0.20970172E+03</pdfrwt>
<pdfrwt beam="2">  1       21 0.55290058E-02 0.20970172E+03</pdfrwt>
<totfact> 0.98144853E+03</totfact>
</mgrwt>
</event>
<event>
 4    1  0.4319182E+000  0.2306475E+03  0.7546771E-02  0.1126185E+00
         21   -1    0    0  501  502  0.00000000000E+00  0.00000000000E+00  0.21286904001E+04  0.21286904001E+04  0.00000000000E+00 0. -1.
         21   -1    0    0  502  503 -0.00000000000E+00 -0.00000000000E+00 -0.39570103839E+02  0.39570103839E+02  0.00000000000E+00 0.  1.
          6    1    1    2  501    0  0.73446240195E+02  0.13369713528E+03  0.17026149714E+04  0.17181664690E+04  0.17300000000E+03 0. -1.
         -6    1    1    2    0  503 -0.73446240195E+02 -0.13369713528E+03  0.38650532480E+03  0.45009403493E+03  0.17300000000E+03 0.  1.
<mgrwt>
<rscale>  2 0.23064751E+03</rscale>
<asrwt>0</asrwt>
<pdfrwt beam="1">  1       21 0.32749074E+00 0.23064751E+03</pdfrwt>
<pdfrwt beam="2">  1       21 0.60877100E-02 0.23064751E+03</pdfrwt>
<totfact> 0.43607803E+03</totfact>
</mgrwt>
</event>
<event>
 4    1  0.4319182E+000  0.2559500E+03  0.7546771E-02  0.1109601E+00
         21   -1    0    0  503  502  0.00000000000E+00  0.00000000000E+00  0.29800711934E+03  0.29800711934E+03  0.00000000000E+00 0.  1.
         21   -1    0    0  501  503 -0.00000000000E+00 -0.00000000000E+00 -0.74009687570E+03  0.74009687570E+03  0.00000000000E+00 0. -1.
          6    1    1    2  501    0 -0.14346569875E+03 -0.12247046032E+03 -0.65623632196E+03  0.70438379498E+03  0.17300000000E+03 0. -1.
         -6    1    1    2    0  502  0.14346569875E+03  0.12247046032E+03  0.21414656561E+03  0.33372020006E+03  0.17300000000E+03 0.  1.
<mgrwt>
<rscale>  2 0.25595003E+03</rscale>
<asrwt>0</asrwt>
<pdfrwt beam="1">  1       21 0.45847249E-01 0.25595003E+03</pdfrwt>
<pdfrwt beam="2">  1       21 0.11386106E+00 0.25595003E+03</pdfrwt>
<totfact> 0.26066124E+03</totfact>
</mgrwt>
</event>
<event>
 4    1  0.4319182E+000  0.1974784E+03  0.7546771E-02  0.1151884E+00
         21   -1    0    0  501  502  0.00000000000E+00  0.00000000000E+00  0.31477498316E+02  0.31477498316E+02  0.00000000000E+00 0.  1.
         21   -1    0    0  502  503 -0.00000000000E+00 -0.00000000000E+00 -0.12396474251E+04  0.12396474251E+04  0.00000000000E+00 0.  1.
          6    1    1    2  501    0 -0.58073864623E+02 -0.75472681601E+02 -0.58855430186E+03  0.62080098716E+03  0.17300000000E+03 0. -1.
         -6    1    1    2    0  503  0.58073864623E+02  0.75472681601E+02 -0.61961562497E+03  0.65032393630E+03  0.17300000000E+03 0. -1.
<mgrwt>
<rscale>  2 0.19747835E+03</rscale>
<asrwt>0</asrwt>
<pdfrwt beam="1">  1       21 0.48426924E-02 0.19747835E+03</pdfrwt>
<pdfrwt beam="2">  1       21 0.19071497E+00 0.19747835E+03</pdfrwt>
<totfact> 0.43673723E+04</totfact>
</mgrwt>
</event>
<event>
 4    1  0.4319182E+000  0.1743979E+03  0.7546771E-02  0.1173338E+00
         21   -1    0    0  503  502  0.00000000000E+00  0.00000000000E+00  0.94119360557E+03  0.94119360557E+03  0.00000000000E+00 0. -1.
         21   -1    0    0  501  503 -0.00000000000E+00 -0.00000000000E+00 -0.32479778660E+02  0.32479778660E+02  0.00000000000E+00 0. -1.
          6    1    1    2  501    0 -0.22036611937E+02 -0.95490394593E-01  0.41967546531E+03  0.45446905017E+03  0.17300000000E+03 0. -1.
         -6    1    1    2    0  502  0.22036611937E+02  0.95490394593E-01  0.48903836160E+03  0.51920433406E+03  0.17300000000E+03 0. -1.
<mgrwt>
<rscale>  2 0.17439788E+03</rscale>
<asrwt>0</asrwt>
<pdfrwt beam="1">  1       21 0.14479900E+00 0.17439788E+03</pdfrwt>
<pdfrwt beam="2">  1       21 0.49968897E-02 0.17439788E+03</pdfrwt>
<totfact> 0.89071200E+04</totfact>
</mgrwt>
</event>
<event>
 4    1  0.4319182E+000  0.2074326E+03  0.7546771E-02  0.1143615E+00
         21   -1    0    0  501  502  0.00000000000E+00  0.00000000000E+00  0.49166819515E+03  0.49166819515E+03  0.00000000000E+00 0.  1.
         21   -1    0    0  502  503 -0.00000000000E+00 -0.00000000000E+00 -0.88551614373E+02  0.88551614373E+02  0.00000000000E+00 0.  1.
          6    1    1    2  501    0  0.28415698284E+02 -0.11086851230E+03  0.17016767428E+03  0.26830079445E+03  0.17300000000E+03 0.  1.
         -6    1    1    2    0  503 -0.28415698284E+02  0.11086851230E+03  0.23294890649E+03  0.31191901508E+03  0.17300000000E+03 0.  1.
<mgrwt>
<rscale>  2 0.20743259E+03</rscale>
<asrwt>0</asrwt>
<pdfrwt beam="1">  1       21 0.75641259E-01 0.20743259E+03</pdfrwt>
<pdfrwt beam="2">  1       21 0.13623326E-01 0.20743259E+03</pdfrwt>
<totfact> 0.72385797E+04</totfact>
</mgrwt>
</event>
<event>
 4    1  0.4319182E+000  0.1743507E+03  0.7546771E-02  0.1173385E+00
         21   -1    0    0  503  502  0.00000000000E+00  0.00000000000E+00  0.97011400647E+03  0.97011400647E+03  0.00000000000E+00 0.  1.
         21   -1    0    0  501  503 -0.00000000000E+00 -0.00000000000E+00 -0.38350088943E+02  0.38350088943E+02  0.00000000000E+00 0.  1.
          6    1    1    2  501    0  0.17853470753E+02 -0.12264486574E+02  0.25021913780E+03  0.30497177078E+03  0.17300000000E+03 0.  1.
         -6    1    1    2    0  502 -0.17853470753E+02  0.12264486574E+02  0.68154477973E+03  0.70349232464E+03  0.17300000000E+03 0.  1.
<mgrwt>
<rscale>  2 0.17435069E+03</rscale>
<asrwt>0</asrwt>
<pdfrwt beam="1">  1       21 0.14924829E+00 0.17435069E+03</pdfrwt>
<pdfrwt beam="2">  1       21 0.59000144E-02 0.17435069E+03</pdfrwt>
<totfact> 0.62073524E+04</totfact>
</mgrwt>
</event>
<event>
 4    1  0.4319182E+000  0.3079254E+03  0.7546771E-02  0.1081345E+00
         21   -1    0    0  501  502  0.00000000000E+00  0.00000000000E+00  0.88409938572E+03  0.88409938572E+03  0.00000000000E+00 0. -1.
         21   -1    0    0  502  503 -0.00000000000E+00 -0.00000000000E+00 -0.20063217089E+03  0.20063217089E+03  0.00000000000E+00 0.  1.
          6    1    1    2  501    0  0.17818220722E+03 -0.18204439451E+03  0.71175614769E+03  0.77550942890E+03  0.17300000000E+03 0. -1.
         -6    1    1    2    0  503 -0.17818220722E+03  0.18204439451E+03 -0.28288932858E+02  0.30922212771E+03  0.17300000000E+03 0.  1.
<mgrwt>
<rscale>  2 0.30792541E+03</rscale>
<asrwt>0</asrwt>
<pdfrwt beam="1">  1       21 0.13601529E+00 0.30792541E+03</pdfrwt>
<pdfrwt beam="2">  1       21 0.30866488E-01 0.30792541E+03</pdfrwt>
<totfact> 0.35878896E+03</totfact>
</mgrwt>
</event>
<event>
 4    1  0.4319182E+000  0.1756687E+03  0.7546771E-02  0.1172062E+00
         21   -1    0    0  503  502  0.00000000000E+00  0.00000000000E+00  0.38430003821E+03  0.38430003821E+03  0.00000000000E+00 0.  1.
         21   -1    0    0  501  503 -0.00000000000E+00 -0.00000000000E+00 -0.16727073805E+03  0.16727073805E+03  0.00000000000E+00 0.  1.
          6    1    1    2  501    0 -0.27419592993E+02 -0.13366877666E+02 -0.90344899040E+02  0.19753913101E+03  0.17300000000E+03 0.  1.
         -6    1    1    2    0  502  0.27419592993E+02  0.13366877666E+02  0.30737419920E+03  0.35403164524E+03  0.17300000000E+03 0.  1.
<mgrwt>
<rscale>  2 0.17566874E+03</rscale>
<asrwt>0</asrwt>
<pdfrwt beam="1">  1       21 0.59123082E-01 0.17566874E+03</pdfrwt>
<pdfrwt beam="2">  1       21 0.25733960E-01 0.17566874E+03</pdfrwt>
<totfact> 0.38662609E+04</totfact>
</mgrwt>
</event>
<event>
 4    1  0.4319182E+000  0.1733731E+03  0.7546771E-02  0.1174375E+00
         21   -1    0    0  501  502  0.00000000000E+00  0.00000000000E+00  0.94796211521E+02  0.94796211521E+02  0.00000000000E+00 0. -1.
         21   -1    0    0  502  503 -0.00000000000E+00 -0.00000000000E+00 -0.32301368421E+03  0.32301368421E+03  0.00000000000E+00 0. -1.
          6    1    1    2  501    0  0.29147375184E+01 -0.10987753583E+02 -0.14241655407E+03  0.22436733563E+03  0.17300000000E+03 0. -1.
         -6    1    1    2    0  503 -0.29147375184E+01  0.10987753583E+02 -0.85800918619E+02  0.19344256010E+03  0.17300000000E+03 0. -1.
<mgrwt>
<rscale>  2 0.17337308E+03</rscale>
<asrwt>0</asrwt>
<pdfrwt beam="1">  1       21 0.14584033E-01 0.17337308E+03</pdfrwt>
<pdfrwt beam="2">  1       21 0.49694412E-01 0.17337308E+03</pdfrwt>
<totfact> 0.16033312E+05</totfact>
</mgrwt>
</event>
<event>
 4    1  0.4319182E+000  0.2023897E+03  0.7546771E-02  0.1147738E+00
         21   -1    0    0  501  502  0.00000000000E+00  0.00000000000E+00  0.54841985543E+03  0.54841985543E+03  0.00000000000E+00 0. -1.
         21   -1    0    0  502  503 -0.00000000000E+00 -0.00000000000E+00 -0.19374435781E+03  0.19374435781E+03  0.00000000000E+00 0. -1.
          6    1    1    2  501    0 -0.32035193208E+01 -0.10498718824E+03  0.46822709784E+03  0.51009625305E+03  0.17300000000E+03 0. -1.
         -6    1    1    2    0  503  0.32035193208E+01  0.10498718824E+03 -0.11355160022E+03  0.23206796018E+03  0.17300000000E+03 0. -1.
<mgrwt>
<rscale>  2 0.20238965E+03</rscale>
<asrwt>0</asrwt>
<pdfrwt beam="1">  1       21 0.84372285E-01 0.20238965E+03</pdfrwt>
<pdfrwt beam="2">  1       21 0.29806824E-01 0.20238965E+03</pdfrwt>
<totfact> 0.13066824E+04</totfact>
</mgrwt>
</event>
<event>
 4    1  0.4319182E+000  0.2147926E+03  0.7546771E-02  0.1137826E+00
         21   -1    0    0  503  502  0.00000000000E+00  0.00000000000E+00  0.41271386964E+03  0.41271386964E+03  0.00000000000E+00 0.  1.
         21   -1    0    0  501  503 -0.00000000000E+00 -0.00000000000E+00 -0.11847958318E+03  0.11847958318E+03  0.00000000000E+00 0.  1.
          6    1    1    2  501    0 -0.75456578880E+01 -0.12708232218E+03  0.83990466844E+02  0.23063011964E+03  0.17300000000E+03 0.  1.
         -6    1    1    2    0  502  0.75456578880E+01  0.12708232218E+03  0.21024381961E+03  0.30056333318E+03  0.17300000000E+03 0.  1.
<mgrwt>
<rscale>  2 0.21479258E+03</rscale>
<asrwt>0</asrwt>
<pdfrwt beam="1">  1       21 0.63494441E-01 0.21479258E+03</pdfrwt>
<pdfrwt beam="2">  1       21 0.18227628E-01 0.21479258E+03</pdfrwt>
<totfact> 0.62272388E+04</totfact>
</mgrwt>
</event>
<event>
 4    1  0.4319182E+000  0.1793409E+03  0.7546771E-02  0.1168442E+00
         21   -1    0    0  503  502  0.00000000000E+00  0.00000000000E+00  0.67013622408E+02  0.67013622408E+02  0.00000000000E+00 0.  1.
         21   -1    0    0  501  503 -0.00000000000E+00 -0.00000000000E+00 -0.49705778674E+03  0.49705778674E+03  0.00000000000E+00 0.  1.
          6    1    1    2  501    0  0.12809859822E+02 -0.45497794695E+02 -0.16269743318E+03  0.24214375192E+03  0.17300000000E+03 0.  1.
         -6    1    1    2    0  502 -0.12809859822E+02  0.45497794695E+02 -0.26734673115E+03  0.32192765723E+03  0.17300000000E+03 0.  1.
<mgrwt>
<rscale>  2 0.17934085E+03</rscale>
<asrwt>0</asrwt>
<pdfrwt beam="1">  1       21 0.10309788E-01 0.17934085E+03</pdfrwt>
<pdfrwt beam="2">  1       21 0.76470430E-01 0.17934085E+03</pdfrwt>
<totfact> 0.11762337E+05</totfact>
</mgrwt>
</event>
<event>
 4    1  0.4319182E+000  0.2043030E+03  0.7546771E-02  0.1146158E+00
         21   -1    0    0  501  502  0.00000000000E+00  0.00000000000E+00  0.72222507908E+02  0.72222507908E+02  0.00000000000E+00 0.  1.
         21   -1    0    0  502  503 -0.00000000000E+00 -0.00000000000E+00 -0.57994174723E+03  0.57994174723E+03  0.00000000000E+00 0. -1.
          6    1    1    2  501    0 -0.68992819695E+02  0.83968564333E+02 -0.27305337069E+03  0.34102473842E+03  0.17300000000E+03 0. -1.
         -6    1    1    2    0  503  0.68992819695E+02 -0.83968564333E+02 -0.23466586862E+03  0.31113951672E+03  0.17300000000E+03 0.  1.
<mgrwt>
<rscale>  2 0.20430303E+03</rscale>
<asrwt>0</asrwt>
<pdfrwt beam="1">  1       21 0.11111155E-01 0.20430303E+03</pdfrwt>
<pdfrwt beam="2">  1       21 0.89221805E-01 0.20430303E+03</pdfrwt>
<totfact> 0.71770449E+04</totfact>
</mgrwt>
</event>
<event>
 4    1  0.4319182E+000  0.1973406E+03  0.7546771E-02  0.1152002E+00
         21   -1    0    0  501  502  0.00000000000E+00  0.00000000000E+00  0.22602648428E+03  0.22602648428E+03  0.00000000000E+00 0.  1.
         21   -1    0    0  502  503 -0.00000000000E+00 -0.00000000000E+00 -0.20637694531E+03  0.20637694531E+03  0.00000000000E+00 0.  1.
          6    1    1    2  501    0 -0.61327628798E+02 -0.72479073665E+02  0.97684326759E+02  0.22019428210E+03  0.17300000000E+03 0.  1.
         -6    1    1    2    0  503  0.61327628798E+02  0.72479073665E+02 -0.78034787790E+02  0.21220914749E+03  0.17300000000E+03 0.  1.
<mgrwt>
<rscale>  2 0.19734055E+03</rscale>
<asrwt>0</asrwt>
<pdfrwt beam="1">  1       21 0.34773305E-01 0.19734055E+03</pdfrwt>
<pdfrwt beam="2">  1       21 0.31750299E-01 0.19734055E+03</pdfrwt>
<totfact> 0.75876837E+04</totfact>
</mgrwt>
</event>
<event>
 4    1  0.4319182E+000  0.3486999E+03  0.7546771E-02  0.1063150E+00
         21   -1    0    0  503  502  0.00000000000E+00  0.00000000000E+00  0.31336225402E+03  0.31336225402E+03  0.00000000000E+00 0.  1.
         21   -1    0    0  501  503 -0.00000000000E+00 -0.00000000000E+00 -0.40460577668E+03  0.40460577668E+03  0.00000000000E+00 0. -1.
          6    1    1    2  501    0  0.45568977702E+02  0.29930939780E+03 -0.11829800699E+03  0.36822013226E+03  0.17300000000E+03 0. -1.
         -6    1    1    2    0  502 -0.45568977702E+02 -0.29930939780E+03  0.27054484319E+02  0.34974789844E+03  0.17300000000E+03 0.  1.
<mgrwt>
<rscale>  2 0.34869994E+03</rscale>
<asrwt>0</asrwt>
<pdfrwt beam="1">  1       21 0.48209578E-01 0.34869994E+03</pdfrwt>
<pdfrwt beam="2">  1       21 0.62247043E-01 0.34869994E+03</pdfrwt>
<totfact> 0.90672833E+03</totfact>
</mgrwt>
</event>
<event>
 4    1  0.4319182E+000  0.1805978E+03  0.7546771E-02  0.1167226E+00
         21   -1    0    0  503  502  0.00000000000E+00  0.00000000000E+00  0.21911628767E+04  0.21911628767E+04  0.00000000000E+00 0.  1.
         21   -1    0    0  501  503 -0.00000000000E+00 -0.00000000000E+00 -0.20345160651E+02  0.20345160651E+02  0.00000000000E+00 0.  1.
          6    1    1    2  501    0  0.97595478544E+01  0.50904959434E+02  0.51257486360E+03  0.54345980023E+03  0.17300000000E+03 0.  1.
         -6    1    1    2    0  502 -0.97595478544E+01 -0.50904959434E+02  0.16582428525E+04  0.16680482371E+04  0.17300000000E+03 0.  1.
<mgrwt>
<rscale>  2 0.18059780E+03</rscale>
<asrwt>0</asrwt>
<pdfrwt beam="1">  1       21 0.33710179E+00 0.18059780E+03</pdfrwt>
<pdfrwt beam="2">  1       21 0.31300264E-02 0.18059780E+03</pdfrwt>
<totfact> 0.12454590E+04</totfact>
</mgrwt>
</event>
<event>
 4    1  0.4319182E+000  0.1899108E+03  0.7546771E-02  0.1158542E+00
         21   -1    0    0  503  502  0.00000000000E+00  0.00000000000E+00  0.14238237652E+03  0.14238237652E+03  0.00000000000E+00 0. -1.
         21   -1    0    0  501  503 -0.00000000000E+00 -0.00000000000E+00 -0.25330481051E+03  0.25330481051E+03  0.00000000000E+00 0. -1.
          6    1    1    2  501    0  0.35957602881E+02 -0.69599899699E+02 -0.55238608747E+02  0.19778119005E+03  0.17300000000E+03 0. -1.
         -6    1    1    2    0  502 -0.35957602881E+02  0.69599899699E+02 -0.55683825246E+02  0.19790599697E+03  0.17300000000E+03 0. -1.
<mgrwt>
<rscale>  2 0.18991076E+03</rscale>
<asrwt>0</asrwt>
<pdfrwt beam="1">  1       21 0.21904981E-01 0.18991076E+03</pdfrwt>
<pdfrwt beam="2">  1       21 0.38969970E-01 0.18991076E+03</pdfrwt>
<totfact> 0.12367770E+05</totfact>
</mgrwt>
</event>
<event>
 4    1  0.4319182E+000  0.2157119E+03  0.7546771E-02  0.1137121E+00
         21   -1    0    0  501  502  0.00000000000E+00  0.00000000000E+00  0.52984269071E+03  0.52984269071E+03  0.00000000000E+00 0. -1.
         21   -1    0    0  502  503 -0.00000000000E+00 -0.00000000000E+00 -0.12444208601E+03  0.12444208601E+03  0.00000000000E+00 0. -1.
          6    1    1    2  501    0  0.12409658131E+03  0.34679521057E+02  0.38016634088E+03  0.43710190736E+03  0.17300000000E+03 0. -1.
         -6    1    1    2    0  503 -0.12409658131E+03 -0.34679521057E+02  0.25234263810E+02  0.21718286936E+03  0.17300000000E+03 0. -1.
<mgrwt>
<rscale>  2 0.21571192E+03</rscale>
<asrwt>0</asrwt>
<pdfrwt beam="1">  1       21 0.81514259E-01 0.21571192E+03</pdfrwt>
<pdfrwt beam="2">  1       21 0.19144937E-01 0.21571192E+03</pdfrwt>
<totfact> 0.32601704E+04</totfact>
</mgrwt>
</event>
<event>
 4    1  0.4319182E+000  0.2614708E+03  0.7546771E-02  0.1106263E+00
         21   -1    0    0  501  502  0.00000000000E+00  0.00000000000E+00  0.58999941693E+02  0.58999941693E+02  0.00000000000E+00 0. -1.
         21   -1    0    0  502  503 -0.00000000000E+00 -0.00000000000E+00 -0.14158957755E+04  0.14158957755E+04  0.00000000000E+00 0.  1.
          6    1    1    2  501    0  0.13422240599E+03 -0.14290663881E+03 -0.99271161689E+03  0.10265687098E+04  0.17300000000E+03 0.  1.
         -6    1    1    2    0  503 -0.13422240599E+03  0.14290663881E+03 -0.36418421693E+03  0.44832700738E+03  0.17300000000E+03 0. -1.
<mgrwt>
<rscale>  2 0.26147077E+03</rscale>
<asrwt>0</asrwt>
<pdfrwt beam="1">  1       21 0.90769153E-02 0.26147077E+03</pdfrwt>
<pdfrwt beam="2">  1       21 0.21783009E+00 0.26147077E+03</pdfrwt>
<totfact> 0.94650750E+03</totfact>
</mgrwt>
</event>
<event>
 4    1  0.4319182E+000  0.1865563E+03  0.7546771E-02  0.1161605E+00
         21   -1    0    0  503  502  0.00000000000E+00  0.00000000000E+00  0.28351615312E+02  0.28351615312E+02  0.00000000000E+00 0. -1.
         21   -1    0    0  501  503 -0.00000000000E+00 -0.00000000000E+00 -0.13744513983E+04  0.13744513983E+04  0.00000000000E+00 0. -1.
          6    1    1    2  501    0 -0.57657395719E+02  0.39368375236E+02 -0.90234962699E+03  0.92143263106E+03  0.17300000000E+03 0. -1.
         -6    1    1    2    0  502  0.57657395719E+02 -0.39368375236E+02 -0.44375015598E+03  0.48137038254E+03  0.17300000000E+03 0. -1.
<mgrwt>
<rscale>  2 0.18655628E+03</rscale>
<asrwt>0</asrwt>
<pdfrwt beam="1">  1       21 0.43617870E-02 0.18655628E+03</pdfrwt>
<pdfrwt beam="2">  1       21 0.21145406E+00 0.18655628E+03</pdfrwt>
<totfact> 0.38666230E+04</totfact>
</mgrwt>
</event>
<event>
 4    1  0.4319182E+000  0.2500912E+03  0.7546771E-02  0.1113247E+00
         21   -1    0    0  503  502  0.00000000000E+00  0.00000000000E+00  0.29202247178E+03  0.29202247178E+03  0.00000000000E+00 0.  1.
         21   -1    0    0  501  503 -0.00000000000E+00 -0.00000000000E+00 -0.84267683128E+03  0.84267683128E+03  0.00000000000E+00 0. -1.
          6    1    1    2  501    0 -0.11318099989E+03  0.14073609489E+03 -0.76529951377E+03  0.80512665645E+03  0.17300000000E+03 0. -1.
         -6    1    1    2    0  502  0.11318099989E+03 -0.14073609489E+03  0.21464515428E+03  0.32957264662E+03  0.17300000000E+03 0.  1.
<mgrwt>
<rscale>  2 0.25009116E+03</rscale>
<asrwt>0</asrwt>
<pdfrwt beam="1">  1       21 0.44926534E-01 0.25009116E+03</pdfrwt>
<pdfrwt beam="2">  1       21 0.12964259E+00 0.25009116E+03</pdfrwt>
<totfact> 0.19723526E+03</totfact>
</mgrwt>
</event>
<event>
 4    1  0.4319182E+000  0.1893817E+03  0.7546771E-02  0.1159020E+00
         21   -1    0    0  501  502  0.00000000000E+00  0.00000000000E+00  0.35086958353E+02  0.35086958353E+02  0.00000000000E+00 0. -1.
         21   -1    0    0  502  503 -0.00000000000E+00 -0.00000000000E+00 -0.19314755212E+04  0.19314755212E+04  0.00000000000E+00 0. -1.
          6    1    1    2  501    0 -0.63230592942E+02 -0.44026393386E+02 -0.27353575478E+03  0.33269691964E+03  0.17300000000E+03 0. -1.
         -6    1    1    2    0  503  0.63230592942E+02  0.44026393386E+02 -0.16228528081E+04  0.16338655599E+04  0.17300000000E+03 0. -1.
<mgrwt>
<rscale>  2 0.18938171E+03</rscale>
<asrwt>0</asrwt>
<pdfrwt beam="1">  1       21 0.53979917E-02 0.18938171E+03</pdfrwt>
<pdfrwt beam="2">  1       21 0.29715018E+00 0.18938171E+03</pdfrwt>
<totfact> 0.84024140E+03</totfact>
</mgrwt>
</event>
<event>
 4    1  0.4319182E+000  0.2274224E+03  0.7546771E-02  0.1128467E+00
         21   -1    0    0  503  502  0.00000000000E+00  0.00000000000E+00  0.93786621936E+03  0.93786621936E+03  0.00000000000E+00 0.  1.
         21   -1    0    0  501  503 -0.00000000000E+00 -0.00000000000E+00 -0.59605787096E+02  0.59605787096E+02  0.00000000000E+00 0. -1.
          6    1    1    2  501    0  0.36233388627E+02 -0.14310515701E+03  0.30273088758E+03  0.37863826366E+03  0.17300000000E+03 0. -1.
         -6    1    1    2    0  502 -0.36233388627E+02  0.14310515701E+03  0.57552954469E+03  0.61883374280E+03  0.17300000000E+03 0.  1.
<mgrwt>
<rscale>  2 0.22742239E+03</rscale>
<asrwt>0</asrwt>
<pdfrwt beam="1">  1       21 0.14428710E+00 0.22742239E+03</pdfrwt>
<pdfrwt beam="2">  1       21 0.91701218E-02 0.22742239E+03</pdfrwt>
<totfact> 0.30642489E+04</totfact>
</mgrwt>
</event>
<event>
 4    1  0.4319182E+000  0.1827734E+03  0.7546771E-02  0.1165146E+00
         21   -1    0    0  501  502  0.00000000000E+00  0.00000000000E+00  0.36226583227E+02  0.36226583227E+02  0.00000000000E+00 0.  1.
         21   -1    0    0  502  503 -0.00000000000E+00 -0.00000000000E+00 -0.12557652932E+04  0.12557652932E+04  0.00000000000E+00 0.  1.
          6    1    1    2  501    0  0.32760562274E+02 -0.49029154043E+02 -0.27680121411E+03  0.33170020277E+03  0.17300000000E+03 0.  1.
         -6    1    1    2    0  503 -0.32760562274E+02  0.49029154043E+02 -0.94273749589E+03  0.96029167368E+03  0.17300000000E+03 0.  1.
<mgrwt>
<rscale>  2 0.18277339E+03</rscale>
<asrwt>0</asrwt>
<pdfrwt beam="1">  1       21 0.55733220E-02 0.18277339E+03</pdfrwt>
<pdfrwt beam="2">  1       21 0.19319461E+00 0.18277339E+03</pdfrwt>
<totfact> 0.33467321E+04</totfact>
</mgrwt>
</event>
<event>
 4    1  0.4319182E+000  0.2733454E+03  0.7546771E-02  0.1099380E+00
         21   -1    0    0  501  502  0.00000000000E+00  0.00000000000E+00  0.40886411000E+03  0.40886411000E+03  0.00000000000E+00 0.  1.
         21   -1    0    0  502  503 -0.00000000000E+00 -0.00000000000E+00 -0.33275722394E+03  0.33275722394E+03  0.00000000000E+00 0.  1.
          6    1    1    2  501    0  0.51831443605E+02 -0.20518829285E+03  0.28702646170E+03  0.39636085046E+03  0.17300000000E+03 0.  1.
         -6    1    1    2    0  503 -0.51831443605E+02  0.20518829285E+03 -0.21091957564E+03  0.34526048348E+03  0.17300000000E+03 0.  1.
<mgrwt>
<rscale>  2 0.27334545E+03</rscale>
<asrwt>0</asrwt>
<pdfrwt beam="1">  1       21 0.62902171E-01 0.27334545E+03</pdfrwt>
<pdfrwt beam="2">  1       21 0.51193419E-01 0.27334545E+03</pdfrwt>
<totfact> 0.80772748E+03</totfact>
</mgrwt>
</event>
<event>
 4    1  0.4319182E+000  0.1733189E+03  0.7546771E-02  0.1174430E+00
         21   -1    0    0  503  502  0.00000000000E+00  0.00000000000E+00  0.42956103094E+02  0.42956103094E+02  0.00000000000E+00 0.  1.
         21   -1    0    0  501  503 -0.00000000000E+00 -0.00000000000E+00 -0.10118386434E+04  0.10118386434E+04  0.00000000000E+00 0.  1.
          6    1    1    2  501    0 -0.41622240343E+01 -0.96501065794E+01 -0.77755098821E+03  0.79663353427E+03  0.17300000000E+03 0.  1.
         -6    1    1    2    0  502  0.41622240343E+01  0.96501065794E+01 -0.19133155209E+03  0.25816121222E+03  0.17300000000E+03 0.  1.
<mgrwt>
<rscale>  2 0.17331892E+03</rscale>
<asrwt>0</asrwt>
<pdfrwt beam="1">  1       21 0.66086310E-02 0.17331892E+03</pdfrwt>
<pdfrwt beam="2">  1       21 0.15566749E+00 0.17331892E+03</pdfrwt>
<totfact> 0.45779941E+04</totfact>
</mgrwt>
</event>
<event>
 4    1  0.4319182E+000  0.1814621E+03  0.7546771E-02  0.1166395E+00
         21   -1    0    0  503  502  0.00000000000E+00  0.00000000000E+00  0.53408937867E+03  0.53408937867E+03  0.00000000000E+00 0.  1.
         21   -1    0    0  501  503 -0.00000000000E+00 -0.00000000000E+00 -0.65516395474E+02  0.65516395474E+02  0.00000000000E+00 0.  1.
          6    1    1    2  501    0  0.38404771893E+02 -0.39045818772E+02  0.16148925819E+03  0.24291414734E+03  0.17300000000E+03 0. -1.
         -6    1    1    2    0  502 -0.38404771893E+02  0.39045818772E+02  0.30708372500E+03  0.35669162680E+03  0.17300000000E+03 0. -1.
<mgrwt>
<rscale>  2 0.18146212E+03</rscale>
<asrwt>0</asrwt>
<pdfrwt beam="1">  1       21 0.82167594E-01 0.18146212E+03</pdfrwt>
<pdfrwt beam="2">  1       21 0.10079446E-01 0.18146212E+03</pdfrwt>
<totfact> 0.10403717E+05</totfact>
</mgrwt>
</event>
<event>
 4    1  0.4319182E+000  0.1947592E+03  0.7546771E-02  0.1154238E+00
         21   -1    0    0  503  502  0.00000000000E+00  0.00000000000E+00  0.10055385643E+04  0.10055385643E+04  0.00000000000E+00 0.  1.
         21   -1    0    0  501  503 -0.00000000000E+00 -0.00000000000E+00 -0.43888699940E+02  0.43888699940E+02  0.00000000000E+00 0.  1.
          6    1    1    2  501    0 -0.58347674485E+01 -0.89264212895E+02  0.28414287318E+03  0.34448267968E+03  0.17300000000E+03 0.  1.
         -6    1    1    2    0  502  0.58347674485E+01  0.89264212895E+02  0.67750699119E+03  0.70494458458E+03  0.17300000000E+03 0.  1.
<mgrwt>
<rscale>  2 0.19475920E+03</rscale>
<asrwt>0</asrwt>
<pdfrwt beam="1">  1       21 0.15469822E+00 0.19475920E+03</pdfrwt>
<pdfrwt beam="2">  1       21 0.67521084E-02 0.19475920E+03</pdfrwt>
<totfact> 0.44294544E+04</totfact>
</mgrwt>
</event>
<event>
 4    1  0.4319182E+000  0.1862238E+03  0.7546771E-02  0.1161912E+00
         21   -1    0    0  503  502  0.00000000000E+00  0.00000000000E+00  0.61030793419E+03  0.61030793419E+03  0.00000000000E+00 0.  1.
         21   -1    0    0  501  503 -0.00000000000E+00 -0.00000000000E+00 -0.16561165946E+03  0.16561165946E+03  0.00000000000E+00 0. -1.
          6    1    1    2  501    0  0.53663124703E+02  0.43249937458E+02 -0.92089022835E+02  0.20774907020E+03  0.17300000000E+03 0. -1.
         -6    1    1    2    0  502 -0.53663124703E+02 -0.43249937458E+02  0.53678529756E+03  0.56817052345E+03  0.17300000000E+03 0.  1.
<mgrwt>
<rscale>  2 0.18622376E+03</rscale>
<asrwt>0</asrwt>
<pdfrwt beam="1">  1       21 0.93893527E-01 0.18622376E+03</pdfrwt>
<pdfrwt beam="2">  1       21 0.25478717E-01 0.18622376E+03</pdfrwt>
<totfact> 0.13966294E+04</totfact>
</mgrwt>
</event>
<event>
 4    1  0.4319182E+000  0.2231542E+03  0.7546771E-02  0.1131553E+00
         21   -1    0    0  501  502  0.00000000000E+00  0.00000000000E+00  0.29101780963E+03  0.29101780963E+03  0.00000000000E+00 0.  1.
         21   -1    0    0  502  503 -0.00000000000E+00 -0.00000000000E+00 -0.40355191123E+03  0.40355191123E+03  0.00000000000E+00 0.  1.
          6    1    1    2  501    0 -0.11964131801E+02 -0.14044798078E+03  0.20729801699E+03  0.30458208024E+03  0.17300000000E+03 0.  1.
         -6    1    1    2    0  503  0.11964131801E+02  0.14044798078E+03 -0.31983211859E+03  0.38998764062E+03  0.17300000000E+03 0.  1.
<mgrwt>
<rscale>  2 0.22315415E+03</rscale>
<asrwt>0</asrwt>
<pdfrwt beam="1">  1       21 0.44771971E-01 0.22315415E+03</pdfrwt>
<pdfrwt beam="2">  1       21 0.62084909E-01 0.22315415E+03</pdfrwt>
<totfact> 0.11302153E+04</totfact>
</mgrwt>
</event>
<event>
 4    1  0.4319182E+000  0.2025145E+03  0.7546771E-02  0.1147635E+00
         21   -1    0    0  503  502  0.00000000000E+00  0.00000000000E+00  0.72462289685E+02  0.72462289685E+02  0.00000000000E+00 0. -1.
         21   -1    0    0  501  503 -0.00000000000E+00 -0.00000000000E+00 -0.30193820395E+04  0.30193820395E+04  0.00000000000E+00 0. -1.
          6    1    1    2  501    0  0.18531574592E+02 -0.10363261952E+03 -0.28669793219E+04  0.28741229221E+04  0.17300000000E+03 0. -1.
         -6    1    1    2    0  502 -0.18531574592E+02  0.10363261952E+03 -0.79940427894E+02  0.21772140707E+03  0.17300000000E+03 0. -1.
<mgrwt>
<rscale>  2 0.20251454E+03</rscale>
<asrwt>0</asrwt>
<pdfrwt beam="1">  1       21 0.11148042E-01 0.20251454E+03</pdfrwt>
<pdfrwt beam="2">  1       21 0.46452043E+00 0.20251454E+03</pdfrwt>
<totfact> 0.21888773E+02</totfact>
</mgrwt>
</event>
<event>
 4    1  0.4319182E+000  0.2688992E+03  0.7546771E-02  0.1101911E+00
         21   -1    0    0  503  502  0.00000000000E+00  0.00000000000E+00  0.69832188493E+03  0.69832188493E+03  0.00000000000E+00 0. -1.
         21   -1    0    0  501  503 -0.00000000000E+00 -0.00000000000E+00 -0.11827167519E+03  0.11827167519E+03  0.00000000000E+00 0.  1.
          6    1    1    2  501    0 -0.19983370672E+03  0.49439438774E+02  0.14594353246E+03  0.30595143915E+03  0.17300000000E+03 0.  1.
         -6    1    1    2    0  502  0.19983370672E+03 -0.49439438774E+02  0.43410667729E+03  0.51064212097E+03  0.17300000000E+03 0. -1.
<mgrwt>
<rscale>  2 0.26889918E+03</rscale>
<asrwt>0</asrwt>
<pdfrwt beam="1">  1       21 0.10743413E+00 0.26889918E+03</pdfrwt>
<pdfrwt beam="2">  1       21 0.18195643E-01 0.26889918E+03</pdfrwt>
<totfact> 0.18237150E+04</totfact>
</mgrwt>
</event>
<event>
 4    1  0.4319182E+000  0.2026178E+03  0.7546771E-02  0.1147549E+00
         21   -1    0    0  503  502  0.00000000000E+00  0.00000000000E+00  0.40953076834E+03  0.40953076834E+03  0.00000000000E+00 0.  1.
         21   -1    0    0  501  503 -0.00000000000E+00 -0.00000000000E+00 -0.10028870469E+03  0.10028870469E+03  0.00000000000E+00 0.  1.
          6    1    1    2  501    0  0.28651757471E+02 -0.10150880019E+03  0.14938172349E+03  0.25173172036E+03  0.17300000000E+03 0.  1.
         -6    1    1    2    0  502 -0.28651757471E+02  0.10150880019E+03  0.15986034016E+03  0.25808775267E+03  0.17300000000E+03 0.  1.
<mgrwt>
<rscale>  2 0.20261777E+03</rscale>
<asrwt>0</asrwt>
<pdfrwt beam="1">  1       21 0.63004732E-01 0.20261777E+03</pdfrwt>
<pdfrwt beam="2">  1       21 0.15429032E-01 0.20261777E+03</pdfrwt>
<totfact> 0.86530725E+04</totfact>
</mgrwt>
</event>
<event>
 4    1  0.4319182E+000  0.2159524E+03  0.7546771E-02  0.1136937E+00
         21   -1    0    0  503  502  0.00000000000E+00  0.00000000000E+00  0.96484099541E+03  0.96484099541E+03  0.00000000000E+00 0.  1.
         21   -1    0    0  501  503 -0.00000000000E+00 -0.00000000000E+00 -0.48371748534E+02  0.48371748534E+02  0.00000000000E+00 0. -1.
          6    1    1    2  501    0  0.31307669477E+02 -0.12540445347E+03  0.47222614981E+03  0.51926196055E+03  0.17300000000E+03 0.  1.
         -6    1    1    2    0  502 -0.31307669477E+02  0.12540445347E+03  0.44424309707E+03  0.49395078339E+03  0.17300000000E+03 0.  1.
<mgrwt>
<rscale>  2 0.21595242E+03</rscale>
<asrwt>0</asrwt>
<pdfrwt beam="1">  1       21 0.14843706E+00 0.21595242E+03</pdfrwt>
<pdfrwt beam="2">  1       21 0.74418082E-02 0.21595242E+03</pdfrwt>
<totfact> 0.41248983E+04</totfact>
</mgrwt>
</event>
<event>
 4    1  0.4319182E+000  0.2537379E+03  0.7546771E-02  0.1110965E+00
         21   -1    0    0  503  502  0.00000000000E+00  0.00000000000E+00  0.89293114063E+03  0.89293114063E+03  0.00000000000E+00 0. -1.
         21   -1    0    0  501  503 -0.00000000000E+00 -0.00000000000E+00 -0.76633984746E+02  0.76633984746E+02  0.00000000000E+00 0.  1.
          6    1    1    2  501    0 -0.18476336093E+03  0.17788362953E+02  0.29026933360E+03  0.38553756163E+03  0.17300000000E+03 0. -1.
         -6    1    1    2    0  502  0.18476336093E+03 -0.17788362953E+02  0.52602782229E+03  0.58402756375E+03  0.17300000000E+03 0. -1.
<mgrwt>
<rscale>  2 0.25373791E+03</rscale>
<asrwt>0</asrwt>
<pdfrwt beam="1">  1       21 0.13737401E+00 0.25373791E+03</pdfrwt>
<pdfrwt beam="2">  1       21 0.11789844E-01 0.25373791E+03</pdfrwt>
<totfact> 0.21961616E+04</totfact>
</mgrwt>
</event>
<event>
 4    1  0.4319182E+000  0.2993965E+03  0.7546771E-02  0.1085543E+00
         21   -1    0    0  501  502  0.00000000000E+00  0.00000000000E+00  0.25599263681E+03  0.25599263681E+03  0.00000000000E+00 0.  1.
         21   -1    0    0  502  503 -0.00000000000E+00 -0.00000000000E+00 -0.36883645758E+03  0.36883645758E+03  0.00000000000E+00 0.  1.
          6    1    1    2  501    0  0.14823981981E+03  0.19425296266E+03  0.13880013909E+02  0.29971805496E+03  0.17300000000E+03 0.  1.
         -6    1    1    2    0  503 -0.14823981981E+03 -0.19425296266E+03 -0.12672383468E+03  0.32511103943E+03  0.17300000000E+03 0.  1.
<mgrwt>
<rscale>  2 0.29939649E+03</rscale>
<asrwt>0</asrwt>
<pdfrwt beam="1">  1       21 0.39383483E-01 0.29939649E+03</pdfrwt>
<pdfrwt beam="2">  1       21 0.56744070E-01 0.29939649E+03</pdfrwt>
<totfact> 0.17185939E+04</totfact>
</mgrwt>
</event>
<event>
 4    1  0.4319182E+000  0.1979736E+03  0.7546771E-02  0.1151460E+00
         21   -1    0    0  503  502  0.00000000000E+00  0.00000000000E+00  0.41356018229E+03  0.41356018229E+03  0.00000000000E+00 0. -1.
         21   -1    0    0  501  503 -0.00000000000E+00 -0.00000000000E+00 -0.13761073774E+03  0.13761073774E+03  0.00000000000E+00 0. -1.
          6    1    1    2  501    0 -0.38213621974E+02  0.88341679453E+02 -0.15788786482E+02  0.19860216266E+03  0.17300000000E+03 0. -1.
         -6    1    1    2    0  502  0.38213621974E+02 -0.88341679453E+02  0.29173823103E+03  0.35256875737E+03  0.17300000000E+03 0. -1.
<mgrwt>
<rscale>  2 0.19797357E+03</rscale>
<asrwt>0</asrwt>
<pdfrwt beam="1">  1       21 0.63624643E-01 0.19797357E+03</pdfrwt>
<pdfrwt beam="2">  1       21 0.21170883E-01 0.19797357E+03</pdfrwt>
<totfact> 0.47249737E+04</totfact>
</mgrwt>
</event>
<event>
 4    1  0.4319182E+000  0.1836242E+03  0.7546771E-02  0.1164341E+00
         21   -1    0    0  501  502  0.00000000000E+00  0.00000000000E+00  0.33590580289E+03  0.33590580289E+03  0.00000000000E+00 0. -1.
         21   -1    0    0  502  503 -0.00000000000E+00 -0.00000000000E+00 -0.11593958051E+03  0.11593958051E+03  0.00000000000E+00 0.  1.
          6    1    1    2  501    0 -0.50133364357E+02  0.35713838400E+02  0.19275049349E+03  0.26621529862E+03  0.17300000000E+03 0. -1.
         -6    1    1    2    0  503  0.50133364357E+02 -0.35713838400E+02  0.27215728885E+02  0.18563008478E+03  0.17300000000E+03 0.  1.
<mgrwt>
<rscale>  2 0.18362416E+03</rscale>
<asrwt>0</asrwt>
<pdfrwt beam="1">  1       21 0.51677815E-01 0.18362416E+03</pdfrwt>
<pdfrwt beam="2">  1       21 0.17836859E-01 0.18362416E+03</pdfrwt>
<totfact> 0.10188757E+05</totfact>
</mgrwt>
</event>
<event>
 4    1  0.4319182E+000  0.2074343E+03  0.7546771E-02  0.1143614E+00
         21   -1    0    0  503  502  0.00000000000E+00  0.00000000000E+00  0.77906143923E+02  0.77906143923E+02  0.00000000000E+00 0.  1.
         21   -1    0    0  501  503 -0.00000000000E+00 -0.00000000000E+00 -0.66566925906E+03  0.66566925906E+03  0.00000000000E+00 0.  1.
          6    1    1    2  501    0 -0.63170916784E+02  0.95443210687E+02 -0.44730043667E+03  0.49305846695E+03  0.17300000000E+03 0.  1.
         -6    1    1    2    0  502  0.63170916784E+02 -0.95443210687E+02 -0.14046267847E+03  0.25051693603E+03  0.17300000000E+03 0.  1.
<mgrwt>
<rscale>  2 0.20743426E+03</rscale>
<asrwt>0</asrwt>
<pdfrwt beam="1">  1       21 0.11985561E-01 0.20743426E+03</pdfrwt>
<pdfrwt beam="2">  1       21 0.10241066E+00 0.20743426E+03</pdfrwt>
<totfact> 0.45262805E+04</totfact>
</mgrwt>
</event>
<event>
 4    1  0.4319182E+000  0.2025839E+03  0.7546771E-02  0.1147577E+00
         21   -1    0    0  503  502  0.00000000000E+00  0.00000000000E+00  0.90026255462E+02  0.90026255462E+02  0.00000000000E+00 0. -1.
         21   -1    0    0  501  503 -0.00000000000E+00 -0.00000000000E+00 -0.59766949618E+03  0.59766949618E+03  0.00000000000E+00 0. -1.
          6    1    1    2  501    0  0.97297641246E+02 -0.40551469987E+02 -0.42130565818E+03  0.46748124061E+03  0.17300000000E+03 0.  1.
         -6    1    1    2    0  502 -0.97297641246E+02  0.40551469987E+02 -0.86337582541E+02  0.22021451103E+03  0.17300000000E+03 0.  1.
<mgrwt>
<rscale>  2 0.20258394E+03</rscale>
<asrwt>0</asrwt>
<pdfrwt beam="1">  1       21 0.13850193E-01 0.20258394E+03</pdfrwt>
<pdfrwt beam="2">  1       21 0.91949152E-01 0.20258394E+03</pdfrwt>
<totfact> 0.45089109E+04</totfact>
</mgrwt>
</event>
<event>
 4    1  0.4319182E+000  0.1759829E+03  0.7546771E-02  0.1171748E+00
         21   -1    0    0  503  502  0.00000000000E+00  0.00000000000E+00  0.89149802500E+02  0.89149802500E+02  0.00000000000E+00 0. -1.
         21   -1    0    0  501  503 -0.00000000000E+00 -0.00000000000E+00 -0.41616170098E+03  0.41616170098E+03  0.00000000000E+00 0. -1.
          6    1    1    2  501    0  0.50268381536E+01 -0.31870218459E+02 -0.26621172565E+03  0.31912170531E+03  0.17300000000E+03 0. -1.
         -6    1    1    2    0  502 -0.50268381536E+01  0.31870218459E+02 -0.60800172831E+02  0.18618979817E+03  0.17300000000E+03 0. -1.
<mgrwt>
<rscale>  2 0.17598290E+03</rscale>
<asrwt>0</asrwt>
<pdfrwt beam="1">  1       21 0.13715354E-01 0.17598290E+03</pdfrwt>
<pdfrwt beam="2">  1       21 0.64024876E-01 0.17598290E+03</pdfrwt>
<totfact> 0.10460221E+05</totfact>
</mgrwt>
</event>
<event>
 4    1  0.4319182E+000  0.1854567E+03  0.7546771E-02  0.1162624E+00
         21   -1    0    0  503  502  0.00000000000E+00  0.00000000000E+00  0.39939558905E+02  0.39939558905E+02  0.00000000000E+00 0. -1.
         21   -1    0    0  501  503 -0.00000000000E+00 -0.00000000000E+00 -0.12047791709E+04  0.12047791709E+04  0.00000000000E+00 0. -1.
          6    1    1    2  501    0  0.26511555695E+02  0.61337863538E+02 -0.91479502797E+03  0.93340459571E+03  0.17300000000E+03 0. -1.
         -6    1    1    2    0  502 -0.26511555695E+02 -0.61337863538E+02 -0.25004458403E+03  0.31131413410E+03  0.17300000000E+03 0. -1.
<mgrwt>
<rscale>  2 0.18545672E+03</rscale>
<asrwt>0</asrwt>
<pdfrwt beam="1">  1       21 0.61445470E-02 0.18545672E+03</pdfrwt>
<pdfrwt beam="2">  1       21 0.18535066E+00 0.18545672E+03</pdfrwt>
<totfact> 0.31853647E+04</totfact>
</mgrwt>
</event>
<event>
 4    1  0.4319182E+000  0.1810958E+03  0.7546771E-02  0.1166747E+00
         21   -1    0    0  503  502  0.00000000000E+00  0.00000000000E+00  0.18851861161E+03  0.18851861161E+03  0.00000000000E+00 0.  1.
         21   -1    0    0  501  503 -0.00000000000E+00 -0.00000000000E+00 -0.36817897272E+03  0.36817897272E+03  0.00000000000E+00 0.  1.
          6    1    1    2  501    0  0.96239687462E+01  0.52669445752E+02 -0.29199230078E+03  0.34359161079E+03  0.17300000000E+03 0.  1.
         -6    1    1    2    0  502 -0.96239687462E+01 -0.52669445752E+02  0.11233193966E+03  0.21310597354E+03  0.17300000000E+03 0.  1.
<mgrwt>
<rscale>  2 0.18109581E+03</rscale>
<asrwt>0</asrwt>
<pdfrwt beam="1">  1       21 0.29002864E-01 0.18109581E+03</pdfrwt>
<pdfrwt beam="2">  1       21 0.56642918E-01 0.18109581E+03</pdfrwt>
<totfact> 0.33552996E+04</totfact>
</mgrwt>
</event>
<event>
 4    1  0.4319182E+000  0.1730843E+03  0.7546771E-02  0.1174669E+00
         21   -1    0    0  501  502  0.00000000000E+00  0.00000000000E+00  0.90362532848E+02  0.90362532848E+02  0.00000000000E+00 0. -1.
         21   -1    0    0  502  503 -0.00000000000E+00 -0.00000000000E+00 -0.33456949131E+03  0.33456949131E+03  0.00000000000E+00 0.  1.
          6    1    1    2  501    0  0.39204226519E+01 -0.37167943239E+01 -0.14234365954E+03  0.22409797341E+03  0.17300000000E+03 0.  1.
         -6    1    1    2    0  503 -0.39204226519E+01  0.37167943239E+01 -0.10186329892E+03  0.20083405075E+03  0.17300000000E+03 0. -1.
<mgrwt>
<rscale>  2 0.17308433E+03</rscale>
<asrwt>0</asrwt>
<pdfrwt beam="1">  1       21 0.13901928E-01 0.17308433E+03</pdfrwt>
<pdfrwt beam="2">  1       21 0.51472230E-01 0.17308433E+03</pdfrwt>
<totfact> 0.16251529E+05</totfact>
</mgrwt>
</event>
<event>
 4    1  0.4319182E+000  0.1753463E+03  0.7546771E-02  0.1172384E+00
         21   -1    0    0  503  502  0.00000000000E+00  0.00000000000E+00  0.88565259099E+02  0.88565259099E+02  0.00000000000E+00 0.  1.
         21   -1    0    0  501  503 -0.00000000000E+00 -0.00000000000E+00 -0.48792917803E+03  0.48792917803E+03  0.00000000000E+00 0.  1.
          6    1    1    2  501    0 -0.93999701667E+01  0.26999338965E+02 -0.35450670384E+03  0.39550136133E+03  0.17300000000E+03 0.  1.
         -6    1    1    2    0  502  0.93999701667E+01 -0.26999338965E+02 -0.44857215096E+02  0.18099307581E+03  0.17300000000E+03 0.  1.
<mgrwt>
<rscale>  2 0.17534630E+03</rscale>
<asrwt>0</asrwt>
<pdfrwt beam="1">  1       21 0.13625424E-01 0.17534630E+03</pdfrwt>
<pdfrwt beam="2">  1       21 0.75066028E-01 0.17534630E+03</pdfrwt>
<totfact> 0.74660762E+04</totfact>
</mgrwt>
</event>
<event>
 4    1  0.4319182E+000  0.1758337E+03  0.7546771E-02  0.1171897E+00
         21   -1    0    0  503  502  0.00000000000E+00  0.00000000000E+00  0.42079708869E+02  0.42079708869E+02  0.00000000000E+00 0.  1.
         21   -1    0    0  501  503 -0.00000000000E+00 -0.00000000000E+00 -0.76193509506E+03  0.76193509506E+03  0.00000000000E+00 0.  1.
          6    1    1    2  501    0  0.11144395662E+02  0.29399125063E+02 -0.43588101284E+03  0.47001038655E+03  0.17300000000E+03 0.  1.
         -6    1    1    2    0  502 -0.11144395662E+02 -0.29399125063E+02 -0.28397437335E+03  0.33400441738E+03  0.17300000000E+03 0.  1.
<mgrwt>
<rscale>  2 0.17583375E+03</rscale>
<asrwt>0</asrwt>
<pdfrwt beam="1">  1       21 0.64738018E-02 0.17583375E+03</pdfrwt>
<pdfrwt beam="2">  1       21 0.11722078E+00 0.17583375E+03</pdfrwt>
<totfact> 0.97547649E+04</totfact>
</mgrwt>
</event>
<event>
 4    1  0.4319182E+000  0.1743746E+03  0.7546771E-02  0.1173361E+00
         21   -1    0    0  501  502  0.00000000000E+00  0.00000000000E+00  0.34384675955E+03  0.34384675955E+03  0.00000000000E+00 0. -1.
         21   -1    0    0  502  503 -0.00000000000E+00 -0.00000000000E+00 -0.90870774448E+02  0.90870774448E+02  0.00000000000E+00 0. -1.
          6    1    1    2  501    0  0.20739753472E+02 -0.68813687427E+01  0.16210827756E+03  0.23808734587E+03  0.17300000000E+03 0. -1.
         -6    1    1    2    0  503 -0.20739753472E+02  0.68813687427E+01  0.90867707545E+02  0.19663018813E+03  0.17300000000E+03 0. -1.
<mgrwt>
<rscale>  2 0.17437457E+03</rscale>
<asrwt>0</asrwt>
<pdfrwt beam="1">  1       21 0.52899501E-01 0.17437457E+03</pdfrwt>
<pdfrwt beam="2">  1       21 0.13980119E-01 0.17437457E+03</pdfrwt>
<totfact> 0.15186096E+05</totfact>
</mgrwt>
</event>
<event>
 4    1  0.4319182E+000  0.1797290E+03  0.7546771E-02  0.1168066E+00
         21   -1    0    0  501  502  0.00000000000E+00  0.00000000000E+00  0.66288632156E+03  0.66288632156E+03  0.00000000000E+00 0. -1.
         21   -1    0    0  502  503 -0.00000000000E+00 -0.00000000000E+00 -0.89177648424E+02  0.89177648424E+02  0.00000000000E+00 0. -1.
          6    1    1    2  501    0  0.12517938295E+02 -0.47083173752E+02  0.54010046927E+03  0.56921967722E+03  0.17300000000E+03 0. -1.
         -6    1    1    2    0  503 -0.12517938295E+02  0.47083173752E+02  0.33608203869E+02  0.18284429277E+03  0.17300000000E+03 0. -1.
<mgrwt>
<rscale>  2 0.17972903E+03</rscale>
<asrwt>0</asrwt>
<pdfrwt beam="1">  1       21 0.10198251E+00 0.17972903E+03</pdfrwt>
<pdfrwt beam="2">  1       21 0.13719639E-01 0.17972903E+03</pdfrwt>
<totfact> 0.36388517E+04</totfact>
</mgrwt>
</event>
<event>
 4    1  0.4319182E+000  0.1902619E+03  0.7546771E-02  0.1158225E+00
         21   -1    0    0  503  502  0.00000000000E+00  0.00000000000E+00  0.27110853018E+02  0.27110853018E+02  0.00000000000E+00 0.  1.
         21   -1    0    0  501  503 -0.00000000000E+00 -0.00000000000E+00 -0.17105296119E+04  0.17105296119E+04  0.00000000000E+00 0.  1.
          6    1    1    2  501    0  0.32397467897E+01  0.79120862660E+02 -0.12486635651E+04  0.12630757324E+04  0.17300000000E+03 0.  1.
         -6    1    1    2    0  502 -0.32397467897E+01 -0.79120862660E+02 -0.43475519377E+03  0.47456473255E+03  0.17300000000E+03 0.  1.
<mgrwt>
<rscale>  2 0.19026194E+03</rscale>
<asrwt>0</asrwt>
<pdfrwt beam="1">  1       21 0.41708997E-02 0.19026194E+03</pdfrwt>
<pdfrwt beam="2">  1       21 0.26315845E+00 0.19026194E+03</pdfrwt>
<totfact> 0.20390820E+04</totfact>
</mgrwt>
</event>
<event>
 4    1  0.4319182E+000  0.1950402E+03  0.7546771E-02  0.1153992E+00
         21   -1    0    0  503  502  0.00000000000E+00  0.00000000000E+00  0.14321306081E+02  0.14321306081E+02  0.00000000000E+00 0.  1.
         21   -1    0    0  501  503 -0.00000000000E+00 -0.00000000000E+00 -0.27757882835E+04  0.27757882835E+04  0.00000000000E+00 0.  1.
          6    1    1    2  501    0 -0.11393261377E+01 -0.90057731638E+02 -0.16702588646E+04  0.16816079709E+04  0.17300000000E+03 0.  1.
         -6    1    1    2    0  502  0.11393261377E+01  0.90057731638E+02 -0.10912081129E+04  0.11085016187E+04  0.17300000000E+03 0.  1.
<mgrwt>
<rscale>  2 0.19504023E+03</rscale>
<asrwt>0</asrwt>
<pdfrwt beam="1">  1       21 0.22032772E-02 0.19504023E+03</pdfrwt>
<pdfrwt beam="2">  1       21 0.42704448E+00 0.19504023E+03</pdfrwt>
<totfact> 0.61554525E+03</totfact>
</mgrwt>
</event>
<event>
 4    1  0.4319182E+000  0.1854289E+03  0.7546771E-02  0.1162650E+00
         21   -1    0    0  503  502  0.00000000000E+00  0.00000000000E+00  0.15325354553E+02  0.15325354553E+02  0.00000000000E+00 0. -1.
         21   -1    0    0  501  503 -0.00000000000E+00 -0.00000000000E+00 -0.26559631502E+04  0.26559631502E+04  0.00000000000E+00 0. -1.
          6    1    1    2  501    0  0.47373382445E+02 -0.47017345316E+02 -0.18466063872E+04  0.18558930512E+04  0.17300000000E+03 0.  1.
         -6    1    1    2    0  502 -0.47373382445E+02  0.47017345316E+02 -0.79403140839E+03  0.81539545352E+03  0.17300000000E+03 0.  1.
<mgrwt>
<rscale>  2 0.18542888E+03</rscale>
<asrwt>0</asrwt>
<pdfrwt beam="1">  1       21 0.23577444E-02 0.18542888E+03</pdfrwt>
<pdfrwt beam="2">  1       21 0.40861014E+00 0.18542888E+03</pdfrwt>
<totfact> 0.73129349E+03</totfact>
</mgrwt>
</event>
<event>
 4    1  0.4319182E+000  0.1931509E+03  0.7546771E-02  0.1155650E+00
         21   -1    0    0  503  502  0.00000000000E+00  0.00000000000E+00  0.19438068740E+03  0.19438068740E+03  0.00000000000E+00 0.  1.
         21   -1    0    0  501  503 -0.00000000000E+00 -0.00000000000E+00 -0.20495691149E+03  0.20495691149E+03  0.00000000000E+00 0. -1.
          6    1    1    2  501    0  0.28397068843E+01  0.85849896531E+02  0.45052470057E+02  0.19833555840E+03  0.17300000000E+03 0.  1.
         -6    1    1    2    0  502 -0.28397068843E+01 -0.85849896531E+02 -0.55628694145E+02  0.20100204049E+03  0.17300000000E+03 0. -1.
<mgrwt>
<rscale>  2 0.19315090E+03</rscale>
<asrwt>0</asrwt>
<pdfrwt beam="1">  1       21 0.29904721E-01 0.19315090E+03</pdfrwt>
<pdfrwt beam="2">  1       21 0.31531833E-01 0.19315090E+03</pdfrwt>
<totfact> 0.10365086E+05</totfact>
</mgrwt>
</event>
<event>
 4    1  0.4319182E+000  0.2314114E+03  0.7546771E-02  0.1125650E+00
         21   -1    0    0  503  502  0.00000000000E+00  0.00000000000E+00  0.83615775679E+03  0.83615775679E+03  0.00000000000E+00 0.  1.
         21   -1    0    0  501  503 -0.00000000000E+00 -0.00000000000E+00 -0.71239468701E+02  0.71239468701E+02  0.00000000000E+00 0.  1.
          6    1    1    2  501    0  0.14072948414E+03 -0.61785638631E+02  0.23827301957E+03  0.33215250218E+03  0.17300000000E+03 0.  1.
         -6    1    1    2    0  502 -0.14072948414E+03  0.61785638631E+02  0.52664526851E+03  0.57524472331E+03  0.17300000000E+03 0.  1.
<mgrwt>
<rscale>  2 0.23141144E+03</rscale>
<asrwt>0</asrwt>
<pdfrwt beam="1">  1       21 0.12863965E+00 0.23141144E+03</pdfrwt>
<pdfrwt beam="2">  1       21 0.10959919E-01 0.23141144E+03</pdfrwt>
<totfact> 0.29949680E+04</totfact>
</mgrwt>
</event>
<event>
 4    1  0.4319182E+000  0.1762723E+03  0.7546771E-02  0.1171460E+00
         21   -1    0    0  503  502  0.00000000000E+00  0.00000000000E+00  0.15534052641E+04  0.15534052641E+04  0.00000000000E+00 0.  1.
         21   -1    0    0  501  503 -0.00000000000E+00 -0.00000000000E+00 -0.51961110485E+02  0.51961110485E+02  0.00000000000E+00 0.  1.
          6    1    1    2  501    0 -0.33210278877E+02  0.63252106085E+01  0.12121712319E+03  0.21392877756E+03  0.17300000000E+03 0.  1.
         -6    1    1    2    0  502  0.33210278877E+02 -0.63252106085E+01  0.13802270304E+04  0.13914375970E+04  0.17300000000E+03 0.  1.
<mgrwt>
<rscale>  2 0.17627232E+03</rscale>
<asrwt>0</asrwt>
<pdfrwt beam="1">  1       21 0.23898539E+00 0.17627232E+03</pdfrwt>
<pdfrwt beam="2">  1       21 0.79940182E-02 0.17627232E+03</pdfrwt>
<totfact> 0.94310295E+03</totfact>
</mgrwt>
</event>
<event>
 4    1  0.4319182E+000  0.1775360E+03  0.7546771E-02  0.1170209E+00
         21   -1    0    0  501  502  0.00000000000E+00  0.00000000000E+00  0.10352338014E+03  0.10352338014E+03  0.00000000000E+00 0.  1.
         21   -1    0    0  502  503 -0.00000000000E+00 -0.00000000000E+00 -0.40857341972E+03  0.40857341972E+03  0.00000000000E+00 0.  1.
          6    1    1    2  501    0 -0.19157139766E+02  0.34972131784E+02 -0.23274003469E+02  0.17905508997E+03  0.17300000000E+03 0.  1.
         -6    1    1    2    0  503  0.19157139766E+02 -0.34972131784E+02 -0.28177603611E+03  0.33304170989E+03  0.17300000000E+03 0.  1.
<mgrwt>
<rscale>  2 0.17753604E+03</rscale>
<asrwt>0</asrwt>
<pdfrwt beam="1">  1       21 0.15926674E-01 0.17753604E+03</pdfrwt>
<pdfrwt beam="2">  1       21 0.62857449E-01 0.17753604E+03</pdfrwt>
<totfact> 0.82931847E+04</totfact>
</mgrwt>
</event>
<event>
 4    1  0.4319182E+000  0.2171133E+03  0.7546771E-02  0.1136054E+00
         21   -1    0    0  503  502  0.00000000000E+00  0.00000000000E+00  0.81482998802E+03  0.81482998802E+03  0.00000000000E+00 0. -1.
         21   -1    0    0  501  503 -0.00000000000E+00 -0.00000000000E+00 -0.59782865780E+02  0.59782865780E+02  0.00000000000E+00 0. -1.
          6    1    1    2  501    0  0.10200808778E+03  0.82483604924E+02  0.29889873440E+03  0.36943016725E+03  0.17300000000E+03 0. -1.
         -6    1    1    2    0  502 -0.10200808778E+03 -0.82483604924E+02  0.45614838785E+03  0.50518268655E+03  0.17300000000E+03 0. -1.
<mgrwt>
<rscale>  2 0.21711332E+03</rscale>
<asrwt>0</asrwt>
<pdfrwt beam="1">  1       21 0.12535845E+00 0.21711332E+03</pdfrwt>
<pdfrwt beam="2">  1       21 0.91973645E-02 0.21711332E+03</pdfrwt>
<totfact> 0.43952046E+04</totfact>
</mgrwt>
</event>
<event>
 4    1  0.4319182E+000  0.2779017E+03  0.7546771E-02  0.1096841E+00
         21   -1    0    0  503  502  0.00000000000E+00  0.00000000000E+00  0.10016889100E+03  0.10016889100E+03  0.00000000000E+00 0. -1.
         21   -1    0    0  501  503 -0.00000000000E+00 -0.00000000000E+00 -0.77216258588E+03  0.77216258588E+03  0.00000000000E+00 0. -1.
          6    1    1    2  501    0 -0.14728397457E+03 -0.16002440510E+03 -0.35298171480E+03  0.44924989747E+03  0.17300000000E+03 0. -1.
         -6    1    1    2    0  502  0.14728397457E+03  0.16002440510E+03 -0.31901198008E+03  0.42308157940E+03  0.17300000000E+03 0. -1.
<mgrwt>
<rscale>  2 0.27790174E+03</rscale>
<asrwt>0</asrwt>
<pdfrwt beam="1">  1       21 0.15410599E-01 0.27790174E+03</pdfrwt>
<pdfrwt beam="2">  1       21 0.11879424E+00 0.27790174E+03</pdfrwt>
<totfact> 0.19295224E+04</totfact>
</mgrwt>
</event>
<event>
 4    1  0.4319182E+000  0.1901937E+03  0.7546771E-02  0.1158287E+00
         21   -1    0    0  501  502  0.00000000000E+00  0.00000000000E+00  0.24736295724E+03  0.24736295724E+03  0.00000000000E+00 0. -1.
         21   -1    0    0  502  503 -0.00000000000E+00 -0.00000000000E+00 -0.17146080920E+03  0.17146080920E+03  0.00000000000E+00 0. -1.
          6    1    1    2  501    0 -0.14977481886E+02  0.77590814277E+02  0.11827089651E+03  0.22396799857E+03  0.17300000000E+03 0. -1.
         -6    1    1    2    0  503  0.14977481886E+02 -0.77590814277E+02 -0.42368748472E+02  0.19485576787E+03  0.17300000000E+03 0. -1.
<mgrwt>
<rscale>  2 0.19019374E+03</rscale>
<asrwt>0</asrwt>
<pdfrwt beam="1">  1       21 0.38055839E-01 0.19019374E+03</pdfrwt>
<pdfrwt beam="2">  1       21 0.26378586E-01 0.19019374E+03</pdfrwt>
<totfact> 0.91100911E+04</totfact>
</mgrwt>
</event>
<event>
 4    1  0.4319182E+000  0.1744325E+03  0.7546771E-02  0.1173303E+00
         21   -1    0    0  503  502  0.00000000000E+00  0.00000000000E+00  0.31538449018E+03  0.31538449018E+03  0.00000000000E+00 0.  1.
         21   -1    0    0  501  503 -0.00000000000E+00 -0.00000000000E+00 -0.13359959353E+03  0.13359959353E+03  0.00000000000E+00 0.  1.
          6    1    1    2  501    0 -0.20195027954E+02 -0.94798487893E+01 -0.27446977551E+02  0.17657871691E+03  0.17300000000E+03 0.  1.
         -6    1    1    2    0  502  0.20195027954E+02  0.94798487893E+01  0.20923187420E+03  0.27240536681E+03  0.17300000000E+03 0.  1.
<mgrwt>
<rscale>  2 0.17443253E+03</rscale>
<asrwt>0</asrwt>
<pdfrwt beam="1">  1       21 0.48520690E-01 0.17443253E+03</pdfrwt>
<pdfrwt beam="2">  1       21 0.20553784E-01 0.17443253E+03</pdfrwt>
<totfact> 0.89611447E+04</totfact>
</mgrwt>
</event>
<event>
 4    1  0.4319182E+000  0.2235936E+03  0.7546771E-02  0.1131232E+00
         21   -1    0    0  501  502  0.00000000000E+00  0.00000000000E+00  0.19466371505E+03  0.19466371505E+03  0.00000000000E+00 0.  1.
         21   -1    0    0  502  503 -0.00000000000E+00 -0.00000000000E+00 -0.37700128799E+03  0.37700128799E+03  0.00000000000E+00 0.  1.
          6    1    1    2  501    0 -0.10037268579E+03  0.99952045023E+02  0.70212619975E+02  0.23435848472E+03  0.17300000000E+03 0.  1.
         -6    1    1    2    0  503  0.10037268579E+03 -0.99952045023E+02 -0.25255019291E+03  0.33730651832E+03  0.17300000000E+03 0.  1.
<mgrwt>
<rscale>  2 0.22359358E+03</rscale>
<asrwt>0</asrwt>
<pdfrwt beam="1">  1       21 0.29948264E-01 0.22359358E+03</pdfrwt>
<pdfrwt beam="2">  1       21 0.58000197E-01 0.22359358E+03</pdfrwt>
<totfact> 0.29302642E+04</totfact>
</mgrwt>
</event>
<event>
 4    1  0.4319182E+000  0.1851557E+03  0.7546771E-02  0.1162905E+00
         21   -1    0    0  501  502  0.00000000000E+00  0.00000000000E+00  0.13566994725E+03  0.13566994725E+03  0.00000000000E+00 0. -1.
         21   -1    0    0  502  503 -0.00000000000E+00 -0.00000000000E+00 -0.49427983923E+03  0.49427983923E+03  0.00000000000E+00 0. -1.
          6    1    1    2  501    0  0.53638752729E+02  0.38425381393E+02  0.40900261012E+02  0.18961924238E+03  0.17300000000E+03 0. -1.
         -6    1    1    2    0  503 -0.53638752729E+02 -0.38425381393E+02 -0.39951015299E+03  0.44033054410E+03  0.17300000000E+03 0. -1.
<mgrwt>
<rscale>  2 0.18515568E+03</rscale>
<asrwt>0</asrwt>
<pdfrwt beam="1">  1       21 0.20872299E-01 0.18515568E+03</pdfrwt>
<pdfrwt beam="2">  1       21 0.76043053E-01 0.18515568E+03</pdfrwt>
<totfact> 0.32983321E+04</totfact>
</mgrwt>
</event>
<event>
 4    1  0.4319182E+000  0.2452350E+03  0.7546771E-02  0.1116354E+00
         21   -1    0    0  501  502  0.00000000000E+00  0.00000000000E+00  0.13629035947E+03  0.13629035947E+03  0.00000000000E+00 0.  1.
         21   -1    0    0  502  503 -0.00000000000E+00 -0.00000000000E+00 -0.44647540219E+03  0.44647540219E+03  0.00000000000E+00 0.  1.
          6    1    1    2  501    0 -0.13856473082E+03  0.10493329942E+03 -0.12361533915E+03  0.27462872032E+03  0.17300000000E+03 0.  1.
         -6    1    1    2    0  503  0.13856473082E+03 -0.10493329942E+03 -0.18656970357E+03  0.30813704133E+03  0.17300000000E+03 0.  1.
<mgrwt>
<rscale>  2 0.24523495E+03</rscale>
<asrwt>0</asrwt>
<pdfrwt beam="1">  1       21 0.20967747E-01 0.24523495E+03</pdfrwt>
<pdfrwt beam="2">  1       21 0.68688524E-01 0.24523495E+03</pdfrwt>
<totfact> 0.39797983E+04</totfact>
</mgrwt>
</event>
<event>
 4    1  0.4319182E+000  0.1917466E+03  0.7546771E-02  0.1156895E+00
         21   -1    0    0  503  502  0.00000000000E+00  0.00000000000E+00  0.38098076496E+03  0.38098076496E+03  0.00000000000E+00 0. -1.
         21   -1    0    0  501  503 -0.00000000000E+00 -0.00000000000E+00 -0.11584577363E+03  0.11584577363E+03  0.00000000000E+00 0.  1.
          6    1    1    2  501    0  0.14324915210E+02  0.81440470978E+02  0.31067603884E+02  0.19424713517E+03  0.17300000000E+03 0.  1.
         -6    1    1    2    0  502 -0.14324915210E+02 -0.81440470978E+02  0.23406738744E+03  0.30257940342E+03  0.17300000000E+03 0. -1.
<mgrwt>
<rscale>  2 0.19174659E+03</rscale>
<asrwt>0</asrwt>
<pdfrwt beam="1">  1       21 0.58612425E-01 0.19174659E+03</pdfrwt>
<pdfrwt beam="2">  1       21 0.17822427E-01 0.19174659E+03</pdfrwt>
<totfact> 0.77938127E+04</totfact>
</mgrwt>
</event>
<event>
 4    1  0.4319182E+000  0.2194548E+03  0.7546771E-02  0.1134290E+00
         21   -1    0    0  503  502  0.00000000000E+00  0.00000000000E+00  0.75506157001E+03  0.75506157001E+03  0.00000000000E+00 0. -1.
         21   -1    0    0  501  503 -0.00000000000E+00 -0.00000000000E+00 -0.21731667273E+03  0.21731667273E+03  0.00000000000E+00 0.  1.
          6    1    1    2  501    0  0.83670904216E+02 -0.10597457311E+03 -0.13978545192E+03  0.26019301091E+03  0.17300000000E+03 0.  1.
         -6    1    1    2    0  502 -0.83670904216E+02  0.10597457311E+03  0.67753034920E+03  0.71218523183E+03  0.17300000000E+03 0. -1.
<mgrwt>
<rscale>  2 0.21945485E+03</rscale>
<asrwt>0</asrwt>
<pdfrwt beam="1">  1       21 0.11616332E+00 0.21945485E+03</pdfrwt>
<pdfrwt beam="2">  1       21 0.33433335E-01 0.21945485E+03</pdfrwt>
<totfact> 0.48266610E+03</totfact>
</mgrwt>
</event>
<event>
 4    1  0.4319182E+000  0.1750071E+03  0.7546771E-02  0.1172725E+00
         21   -1    0    0  501  502  0.00000000000E+00  0.00000000000E+00  0.16050178376E+03  0.16050178376E+03  0.00000000000E+00 0.  1.
         21   -1    0    0  502  503 -0.00000000000E+00 -0.00000000000E+00 -0.19213610325E+03  0.19213610325E+03  0.00000000000E+00 0.  1.
          6    1    1    2  501    0  0.19067617120E+02  0.18300517138E+02 -0.30391580477E+02  0.17762638068E+03  0.17300000000E+03 0.  1.
         -6    1    1    2    0  503 -0.19067617120E+02 -0.18300517138E+02 -0.12427390117E+01  0.17501150634E+03  0.17300000000E+03 0.  1.
<mgrwt>
<rscale>  2 0.17500709E+03</rscale>
<asrwt>0</asrwt>
<pdfrwt beam="1">  1       21 0.24692582E-01 0.17500709E+03</pdfrwt>
<pdfrwt beam="2">  1       21 0.29559401E-01 0.17500709E+03</pdfrwt>
<totfact> 0.17101328E+05</totfact>
</mgrwt>
</event>
<event>
 4    1  0.4319182E+000  0.1824130E+03  0.7546771E-02  0.1165488E+00
         21   -1    0    0  503  502  0.00000000000E+00  0.00000000000E+00  0.28989051622E+03  0.28989051622E+03  0.00000000000E+00 0.  1.
         21   -1    0    0  501  503 -0.00000000000E+00 -0.00000000000E+00 -0.12205919193E+03  0.12205919193E+03  0.00000000000E+00 0.  1.
          6    1    1    2  501    0 -0.45225499679E+02 -0.36057676069E+02  0.33625716600E+02  0.18548636241E+03  0.17300000000E+03 0. -1.
         -6    1    1    2    0  502  0.45225499679E+02  0.36057676069E+02  0.13420560769E+03  0.22646334573E+03  0.17300000000E+03 0. -1.
<mgrwt>
<rscale>  2 0.18241300E+03</rscale>
<asrwt>0</asrwt>
<pdfrwt beam="1">  1       21 0.44598541E-01 0.18241300E+03</pdfrwt>
<pdfrwt beam="2">  1       21 0.18778337E-01 0.18241300E+03</pdfrwt>
<totfact> 0.12573449E+05</totfact>
</mgrwt>
</event>
<event>
 4    1  0.4319182E+000  0.2244598E+03  0.7546771E-02  0.1130601E+00
         21   -1    0    0  503  502  0.00000000000E+00  0.00000000000E+00  0.22576954686E+03  0.22576954686E+03  0.00000000000E+00 0. -1.
         21   -1    0    0  501  503 -0.00000000000E+00 -0.00000000000E+00 -0.29946677970E+03  0.29946677970E+03  0.00000000000E+00 0.  1.
          6    1    1    2  501    0 -0.12222523074E+03  0.74257712257E+02 -0.16941655877E+03  0.28121910541E+03  0.17300000000E+03 0.  1.
         -6    1    1    2    0  502  0.12222523074E+03 -0.74257712257E+02  0.95719325935E+02  0.24401722115E+03  0.17300000000E+03 0. -1.
<mgrwt>
<rscale>  2 0.22445983E+03</rscale>
<asrwt>0</asrwt>
<pdfrwt beam="1">  1       21 0.34733777E-01 0.22445983E+03</pdfrwt>
<pdfrwt beam="2">  1       21 0.46071812E-01 0.22445983E+03</pdfrwt>
<totfact> 0.35490481E+04</totfact>
</mgrwt>
</event>
<event>
 4    1  0.4319182E+000  0.2035869E+03  0.7546771E-02  0.1146748E+00
         21   -1    0    0  501  502  0.00000000000E+00  0.00000000000E+00  0.81532653004E+02  0.81532653004E+02  0.00000000000E+00 0.  1.
         21   -1    0    0  502  503 -0.00000000000E+00 -0.00000000000E+00 -0.52302604241E+03  0.52302604241E+03  0.00000000000E+00 0. -1.
          6    1    1    2  501    0  0.58820052936E+02 -0.89770936848E+02 -0.27137126455E+03  0.33924914584E+03  0.17300000000E+03 0. -1.
         -6    1    1    2    0  503 -0.58820052936E+02  0.89770936848E+02 -0.17012212486E+03  0.26530954958E+03  0.17300000000E+03 0.  1.
<mgrwt>
<rscale>  2 0.20358688E+03</rscale>
<asrwt>0</asrwt>
<pdfrwt beam="1">  1       21 0.12543485E-01 0.20358688E+03</pdfrwt>
<pdfrwt beam="2">  1       21 0.80465547E-01 0.20358688E+03</pdfrwt>
<totfact> 0.73213110E+04</totfact>
</mgrwt>
</event>
<event>
 4    1  0.4319182E+000  0.3318630E+03  0.7546771E-02  0.1070315E+00
         21   -1    0    0  501  502  0.00000000000E+00  0.00000000000E+00  0.32379637313E+03  0.32379637313E+03  0.00000000000E+00 0. -1.
         21   -1    0    0  502  503 -0.00000000000E+00 -0.00000000000E+00 -0.41718778636E+03  0.41718778636E+03  0.00000000000E+00 0.  1.
          6    1    1    2  501    0  0.24552332790E+03 -0.14114660740E+03  0.11253234525E+03  0.35042345534E+03  0.17300000000E+03 0. -1.
         -6    1    1    2    0  503 -0.24552332790E+03  0.14114660740E+03 -0.20592375848E+03  0.39056070416E+03  0.17300000000E+03 0.  1.
<mgrwt>
<rscale>  2 0.33186303E+03</rscale>
<asrwt>0</asrwt>
<pdfrwt beam="1">  1       21 0.49814827E-01 0.33186303E+03</pdfrwt>
<pdfrwt beam="2">  1       21 0.64182736E-01 0.33186303E+03</pdfrwt>
<totfact> 0.79660603E+03</totfact>
</mgrwt>
</event>
<event>
 4    1  0.4319182E+000  0.1786047E+03  0.7546771E-02  0.1169160E+00
         21   -1    0    0  503  502  0.00000000000E+00  0.00000000000E+00  0.10019622918E+03  0.10019622918E+03  0.00000000000E+00 0.  1.
         21   -1    0    0  501  503 -0.00000000000E+00 -0.00000000000E+00 -0.31848408670E+03  0.31848408670E+03  0.00000000000E+00 0.  1.
          6    1    1    2  501    0 -0.99620285100E+01  0.43259680707E+02 -0.10521113242E+03  0.20728971121E+03  0.17300000000E+03 0.  1.
         -6    1    1    2    0  502  0.99620285100E+01 -0.43259680707E+02 -0.11307672509E+03  0.21139060467E+03  0.17300000000E+03 0.  1.
<mgrwt>
<rscale>  2 0.17860471E+03</rscale>
<asrwt>0</asrwt>
<pdfrwt beam="1">  1       21 0.15414805E-01 0.17860471E+03</pdfrwt>
<pdfrwt beam="2">  1       21 0.48997551E-01 0.17860471E+03</pdfrwt>
<totfact> 0.14903357E+05</totfact>
</mgrwt>
</event>
<event>
 4    1  0.4319182E+000  0.3294072E+03  0.7546771E-02  0.1071399E+00
         21   -1    0    0  501  502  0.00000000000E+00  0.00000000000E+00  0.76500854885E+03  0.76500854885E+03  0.00000000000E+00 0.  1.
         21   -1    0    0  502  503 -0.00000000000E+00 -0.00000000000E+00 -0.20324554477E+03  0.20324554477E+03  0.00000000000E+00 0. -1.
          6    1    1    2  501    0  0.12602481220E+03 -0.25039534360E+03  0.54698548845E+03  0.63851562703E+03  0.17300000000E+03 0.  1.
         -6    1    1    2    0  503 -0.12602481220E+03  0.25039534360E+03  0.14777515637E+02  0.32973846660E+03  0.17300000000E+03 0. -1.
<mgrwt>
<rscale>  2 0.32940717E+03</rscale>
<asrwt>0</asrwt>
<pdfrwt beam="1">  1       21 0.11769362E+00 0.32940717E+03</pdfrwt>
<pdfrwt beam="2">  1       21 0.31268546E-01 0.32940717E+03</pdfrwt>
<totfact> 0.50025763E+03</totfact>
</mgrwt>
</event>
<event>
 4    1  0.4319182E+000  0.1797460E+03  0.7546771E-02  0.1168049E+00
         21   -1    0    0  501  502  0.00000000000E+00  0.00000000000E+00  0.13397578301E+03  0.13397578301E+03  0.00000000000E+00 0.  1.
         21   -1    0    0  502  503 -0.00000000000E+00 -0.00000000000E+00 -0.24142512800E+03  0.24142512800E+03  0.00000000000E+00 0. -1.
          6    1    1    2  501    0 -0.38619023246E+02 -0.29802572386E+02 -0.60029847812E+02  0.18950515799E+03  0.17300000000E+03 0. -1.
         -6    1    1    2    0  503  0.38619023246E+02  0.29802572386E+02 -0.47419497175E+02  0.18589575302E+03  0.17300000000E+03 0.  1.
<mgrwt>
<rscale>  2 0.17974599E+03</rscale>
<asrwt>0</asrwt>
<pdfrwt beam="1">  1       21 0.20611659E-01 0.17974599E+03</pdfrwt>
<pdfrwt beam="2">  1       21 0.37142327E-01 0.17974599E+03</pdfrwt>
<totfact> 0.15316122E+05</totfact>
</mgrwt>
</event>
<event>
 4    1  0.4319182E+000  0.2278533E+03  0.7546771E-02  0.1128160E+00
         21   -1    0    0  503  502  0.00000000000E+00  0.00000000000E+00  0.19818078854E+04  0.19818078854E+04  0.00000000000E+00 0.  1.
         21   -1    0    0  501  503 -0.00000000000E+00 -0.00000000000E+00 -0.10457082046E+03  0.10457082046E+03  0.00000000000E+00 0.  1.
          6    1    1    2  501    0 -0.13259430916E+03  0.66384383289E+02  0.35501996926E+02  0.23060253457E+03  0.17300000000E+03 0.  1.
         -6    1    1    2    0  502  0.13259430916E+03 -0.66384383289E+02  0.18417350680E+04  0.18557761713E+04  0.17300000000E+03 0.  1.
<mgrwt>
<rscale>  2 0.22785332E+03</rscale>
<asrwt>0</asrwt>
<pdfrwt beam="1">  1       21 0.30489349E+00 0.22785332E+03</pdfrwt>
<pdfrwt beam="2">  1       21 0.16087820E-01 0.22785332E+03</pdfrwt>
<totfact> 0.10564294E+03</totfact>
</mgrwt>
</event>
<event>
 4    1  0.4319182E+000  0.2071826E+03  0.7546771E-02  0.1143817E+00
         21   -1    0    0  501  502  0.00000000000E+00  0.00000000000E+00  0.38069034280E+03  0.38069034280E+03  0.00000000000E+00 0.  1.
         21   -1    0    0  502  503 -0.00000000000E+00 -0.00000000000E+00 -0.11496841647E+03  0.11496841647E+03  0.00000000000E+00 0.  1.
          6    1    1    2  501    0 -0.17794035989E+02  0.11260108801E+03  0.16725020657E+03  0.26626540206E+03  0.17300000000E+03 0.  1.
         -6    1    1    2    0  503  0.17794035989E+02 -0.11260108801E+03  0.98471719763E+02  0.22939335721E+03  0.17300000000E+03 0.  1.
<mgrwt>
<rscale>  2 0.20718261E+03</rscale>
<asrwt>0</asrwt>
<pdfrwt beam="1">  1       21 0.58567744E-01 0.20718261E+03</pdfrwt>
<pdfrwt beam="2">  1       21 0.17687449E-01 0.20718261E+03</pdfrwt>
<totfact> 0.78637270E+04</totfact>
</mgrwt>
</event>
<event>
 4    1  0.4319182E+000  0.3438768E+03  0.7546771E-02  0.1065157E+00
         21   -1    0    0  501  502  0.00000000000E+00  0.00000000000E+00  0.16843608990E+03  0.16843608990E+03  0.00000000000E+00 0. -1.
         21   -1    0    0  502  503 -0.00000000000E+00 -0.00000000000E+00 -0.12704202808E+04  0.12704202808E+04  0.00000000000E+00 0.  1.
          6    1    1    2  501    0 -0.43280941713E+02  0.29402209536E+03 -0.69789581472E+02  0.35088718722E+03  0.17300000000E+03 0. -1.
         -6    1    1    2    0  503  0.43280941713E+02 -0.29402209536E+03 -0.10321946094E+04  0.10879691835E+04  0.17300000000E+03 0.  1.
<mgrwt>
<rscale>  2 0.34387677E+03</rscale>
<asrwt>0</asrwt>
<pdfrwt beam="1">  1       21 0.25913245E-01 0.34387677E+03</pdfrwt>
<pdfrwt beam="2">  1       21 0.19544927E+00 0.34387677E+03</pdfrwt>
<totfact> 0.18078861E+03</totfact>
</mgrwt>
</event>
<event>
 4    1  0.4319182E+000  0.1770518E+03  0.7546771E-02  0.1170687E+00
         21   -1    0    0  503  502  0.00000000000E+00  0.00000000000E+00  0.44006297833E+02  0.44006297833E+02  0.00000000000E+00 0. -1.
         21   -1    0    0  501  503 -0.00000000000E+00 -0.00000000000E+00 -0.83467729785E+03  0.83467729785E+03  0.00000000000E+00 0. -1.
          6    1    1    2  501    0  0.23467842996E+02  0.29455218569E+02 -0.56353572100E+03  0.59069438663E+03  0.17300000000E+03 0.  1.
         -6    1    1    2    0  502 -0.23467842996E+02 -0.29455218569E+02 -0.22713527902E+03  0.28798920906E+03  0.17300000000E+03 0.  1.
<mgrwt>
<rscale>  2 0.17705183E+03</rscale>
<asrwt>0</asrwt>
<pdfrwt beam="1">  1       21 0.67702002E-02 0.17705183E+03</pdfrwt>
<pdfrwt beam="2">  1       21 0.12841188E+00 0.17705183E+03</pdfrwt>
<totfact> 0.71985953E+04</totfact>
</mgrwt>
</event>
<event>
 4    1  0.4319182E+000  0.1864293E+03  0.7546771E-02  0.1161722E+00
         21   -1    0    0  503  502  0.00000000000E+00  0.00000000000E+00  0.56456852972E+03  0.56456852972E+03  0.00000000000E+00 0. -1.
         21   -1    0    0  501  503 -0.00000000000E+00 -0.00000000000E+00 -0.73325353571E+02  0.73325353571E+02  0.00000000000E+00 0. -1.
          6    1    1    2  501    0  0.33784039238E+02 -0.60708552319E+02  0.37337117110E+03  0.41732711515E+03  0.17300000000E+03 0. -1.
         -6    1    1    2    0  502 -0.33784039238E+02  0.60708552319E+02  0.11787200504E+03  0.22056676813E+03  0.17300000000E+03 0. -1.
<mgrwt>
<rscale>  2 0.18642932E+03</rscale>
<asrwt>0</asrwt>
<pdfrwt beam="1">  1       21 0.86856694E-01 0.18642932E+03</pdfrwt>
<pdfrwt beam="2">  1       21 0.11280824E-01 0.18642932E+03</pdfrwt>
<totfact> 0.74924703E+04</totfact>
</mgrwt>
</event>
<event>
 4    1  0.4319182E+000  0.3271238E+03  0.7546771E-02  0.1072417E+00
         21   -1    0    0  503  502  0.00000000000E+00  0.00000000000E+00  0.49558303510E+03  0.49558303510E+03  0.00000000000E+00 0. -1.
         21   -1    0    0  501  503 -0.00000000000E+00 -0.00000000000E+00 -0.32022877414E+03  0.32022877414E+03  0.00000000000E+00 0. -1.
          6    1    1    2  501    0  0.40612859731E+01  0.27760486171E+03 -0.14511850999E+03  0.35786776221E+03  0.17300000000E+03 0. -1.
         -6    1    1    2    0  502 -0.40612859731E+01 -0.27760486171E+03  0.32047277095E+03  0.45794404703E+03  0.17300000000E+03 0. -1.
<mgrwt>
<rscale>  2 0.32712376E+03</rscale>
<asrwt>0</asrwt>
<pdfrwt beam="1">  1       21 0.76243544E-01 0.32712376E+03</pdfrwt>
<pdfrwt beam="2">  1       21 0.49265965E-01 0.32712376E+03</pdfrwt>
<totfact> 0.55606757E+03</totfact>
</mgrwt>
</event>
<event>
 4    1  0.4319182E+000  0.2358483E+03  0.7546771E-02  0.1122590E+00
         21   -1    0    0  501  502  0.00000000000E+00  0.00000000000E+00  0.46204288283E+03  0.46204288283E+03  0.00000000000E+00 0.  1.
         21   -1    0    0  502  503 -0.00000000000E+00 -0.00000000000E+00 -0.12052192250E+03  0.12052192250E+03  0.00000000000E+00 0. -1.
          6    1    1    2  501    0 -0.12517772006E+03 -0.10012964822E+03  0.16104990549E+03  0.28558970589E+03  0.17300000000E+03 0. -1.
         -6    1    1    2    0  503  0.12517772006E+03  0.10012964822E+03  0.18047105484E+03  0.29697509944E+03  0.17300000000E+03 0. -1.
<mgrwt>
<rscale>  2 0.23584827E+03</rscale>
<asrwt>0</asrwt>
<pdfrwt beam="1">  1       21 0.71083520E-01 0.23584827E+03</pdfrwt>
<pdfrwt beam="2">  1       21 0.18541834E-01 0.23584827E+03</pdfrwt>
<totfact> 0.46637808E+04</totfact>
</mgrwt>
</event>
<event>
 4    1  0.4319182E+000  0.2238171E+03  0.7546771E-02  0.1131069E+00
         21   -1    0    0  501  502  0.00000000000E+00  0.00000000000E+00  0.37683725901E+03  0.37683725901E+03  0.00000000000E+00 0.  1.
         21   -1    0    0  502  503 -0.00000000000E+00 -0.00000000000E+00 -0.13774642369E+03  0.13774642369E+03  0.00000000000E+00 0. -1.
          6    1    1    2  501    0  0.21657276702E+02 -0.14034265684E+03  0.71448870601E+02  0.23494475962E+03  0.17300000000E+03 0. -1.
         -6    1    1    2    0  503 -0.21657276702E+02  0.14034265684E+03  0.16764196472E+03  0.27963892308E+03  0.17300000000E+03 0. -1.
<mgrwt>
<rscale>  2 0.22381711E+03</rscale>
<asrwt>0</asrwt>
<pdfrwt beam="1">  1       21 0.57974963E-01 0.22381711E+03</pdfrwt>
<pdfrwt beam="2">  1       21 0.21191758E-01 0.22381711E+03</pdfrwt>
<totfact> 0.56943645E+04</totfact>
</mgrwt>
</event>
<event>
 4    1  0.4319182E+000  0.1965972E+03  0.7546771E-02  0.1152642E+00
         21   -1    0    0  503  502  0.00000000000E+00  0.00000000000E+00  0.51763025135E+02  0.51763025135E+02  0.00000000000E+00 0.  1.
         21   -1    0    0  501  503 -0.00000000000E+00 -0.00000000000E+00 -0.14196578746E+04  0.14196578746E+04  0.00000000000E+00 0.  1.
          6    1    1    2  501    0 -0.73318101547E+02  0.57843875320E+02 -0.11904891278E+04  0.12066129542E+04  0.17300000000E+03 0.  1.
         -6    1    1    2    0  502  0.73318101547E+02 -0.57843875320E+02 -0.17740572171E+03  0.26480794554E+03  0.17300000000E+03 0.  1.
<mgrwt>
<rscale>  2 0.19659720E+03</rscale>
<asrwt>0</asrwt>
<pdfrwt beam="1">  1       21 0.79635412E-02 0.19659720E+03</pdfrwt>
<pdfrwt beam="2">  1       21 0.21840894E+00 0.19659720E+03</pdfrwt>
<totfact> 0.12403521E+04</totfact>
</mgrwt>
</event>
<event>
 4    1  0.4319182E+000  0.2364378E+03  0.7546771E-02  0.1122189E+00
         21   -1    0    0  501  502  0.00000000000E+00  0.00000000000E+00  0.11962081704E+04  0.11962081704E+04  0.00000000000E+00 0. -1.
         21   -1    0    0  502  503 -0.00000000000E+00 -0.00000000000E+00 -0.10836433482E+03  0.10836433482E+03  0.00000000000E+00 0. -1.
          6    1    1    2  501    0 -0.16055705377E+03 -0.13973452730E+02  0.10358420149E+04  0.10624836491E+04  0.17300000000E+03 0. -1.
         -6    1    1    2    0  503  0.16055705377E+03  0.13973452730E+02  0.52001820750E+02  0.24208885612E+03  0.17300000000E+03 0. -1.
<mgrwt>
<rscale>  2 0.23643778E+03</rscale>
<asrwt>0</asrwt>
<pdfrwt beam="1">  1       21 0.18403202E+00 0.23643778E+03</pdfrwt>
<pdfrwt beam="2">  1       21 0.16671437E-01 0.23643778E+03</pdfrwt>
<totfact> 0.53304406E+03</totfact>
</mgrwt>
</event>
<event>
 4    1  0.4319182E+000  0.2158387E+03  0.7546771E-02  0.1137024E+00
         21   -1    0    0  501  502  0.00000000000E+00  0.00000000000E+00  0.41246059211E+03  0.41246059211E+03  0.00000000000E+00 0.  1.
         21   -1    0    0  502  503 -0.00000000000E+00 -0.00000000000E+00 -0.11372892622E+03  0.11372892622E+03  0.00000000000E+00 0.  1.
          6    1    1    2  501    0  0.49813823681E+01 -0.12896718260E+03  0.12755608700E+03  0.25071279124E+03  0.17300000000E+03 0.  1.
         -6    1    1    2    0  503 -0.49813823681E+01  0.12896718260E+03  0.17117557889E+03  0.27547672709E+03  0.17300000000E+03 0.  1.
<mgrwt>
<rscale>  2 0.21583871E+03</rscale>
<asrwt>0</asrwt>
<pdfrwt beam="1">  1       21 0.63455475E-01 0.21583871E+03</pdfrwt>
<pdfrwt beam="2">  1       21 0.17496758E-01 0.21583871E+03</pdfrwt>
<totfact> 0.67235830E+04</totfact>
</mgrwt>
</event>
<event>
 4    1  0.4319182E+000  0.2359225E+03  0.7546771E-02  0.1122539E+00
         21   -1    0    0  501  502  0.00000000000E+00  0.00000000000E+00  0.12104359547E+03  0.12104359547E+03  0.00000000000E+00 0. -1.
         21   -1    0    0  502  503 -0.00000000000E+00 -0.00000000000E+00 -0.83494668583E+03  0.83494668583E+03  0.00000000000E+00 0. -1.
          6    1    1    2  501    0 -0.15215068773E+03 -0.50799418650E+02 -0.36562538924E+02  0.23873883632E+03  0.17300000000E+03 0. -1.
         -6    1    1    2    0  503  0.15215068773E+03  0.50799418650E+02 -0.67734055143E+03  0.71725144498E+03  0.17300000000E+03 0. -1.
<mgrwt>
<rscale>  2 0.23592247E+03</rscale>
<asrwt>0</asrwt>
<pdfrwt beam="1">  1       21 0.18622092E-01 0.23592247E+03</pdfrwt>
<pdfrwt beam="2">  1       21 0.12845334E+00 0.23592247E+03</pdfrwt>
<totfact> 0.11410218E+04</totfact>
</mgrwt>
</event>
<event>
 4    1  0.4319182E+000  0.2122065E+03  0.7546771E-02  0.1139830E+00
         21   -1    0    0  501  502  0.00000000000E+00  0.00000000000E+00  0.38014609880E+03  0.38014609880E+03  0.00000000000E+00 0. -1.
         21   -1    0    0  502  503 -0.00000000000E+00 -0.00000000000E+00 -0.11914296894E+03  0.11914296894E+03  0.00000000000E+00 0. -1.
          6    1    1    2  501    0  0.10219409867E+03 -0.68256617060E+02  0.14942117587E+03  0.25953475176E+03  0.17300000000E+03 0. -1.
         -6    1    1    2    0  503 -0.10219409867E+03  0.68256617060E+02  0.11158195399E+03  0.23975431598E+03  0.17300000000E+03 0. -1.
<mgrwt>
<rscale>  2 0.21220650E+03</rscale>
<asrwt>0</asrwt>
<pdfrwt beam="1">  1       21 0.58484015E-01 0.21220650E+03</pdfrwt>
<pdfrwt beam="2">  1       21 0.18329688E-01 0.21220650E+03</pdfrwt>
<totfact> 0.73677687E+04</totfact>
</mgrwt>
</event>
<event>
 4    1  0.4319182E+000  0.1735034E+03  0.7546771E-02  0.1174243E+00
         21   -1    0    0  503  502  0.00000000000E+00  0.00000000000E+00  0.15306508516E+03  0.15306508516E+03  0.00000000000E+00 0. -1.
         21   -1    0    0  501  503 -0.00000000000E+00 -0.00000000000E+00 -0.36813788976E+03  0.36813788976E+03  0.00000000000E+00 0. -1.
          6    1    1    2  501    0 -0.13070066016E+02  0.19018794429E+01  0.70316897885E+02  0.18721087014E+03  0.17300000000E+03 0. -1.
         -6    1    1    2    0  502  0.13070066016E+02 -0.19018794429E+01 -0.28538970249E+03  0.33399210478E+03  0.17300000000E+03 0. -1.
<mgrwt>
<rscale>  2 0.17350344E+03</rscale>
<asrwt>0</asrwt>
<pdfrwt beam="1">  1       21 0.23548475E-01 0.17350344E+03</pdfrwt>
<pdfrwt beam="2">  1       21 0.56636598E-01 0.17350344E+03</pdfrwt>
<totfact> 0.50209457E+04</totfact>
</mgrwt>
</event>
<event>
 4    1  0.4319182E+000  0.1851142E+03  0.7546771E-02  0.1162943E+00
         21   -1    0    0  503  502  0.00000000000E+00  0.00000000000E+00  0.12349788727E+03  0.12349788727E+03  0.00000000000E+00 0.  1.
         21   -1    0    0  501  503 -0.00000000000E+00 -0.00000000000E+00 -0.32013217633E+03  0.32013217633E+03  0.00000000000E+00 0. -1.
          6    1    1    2  501    0  0.59594030150E+02  0.28050338987E+02 -0.17928916728E+03  0.25770501635E+03  0.17300000000E+03 0. -1.
         -6    1    1    2    0  502 -0.59594030150E+02 -0.28050338987E+02 -0.17345121783E+02  0.18592504725E+03  0.17300000000E+03 0.  1.
<mgrwt>
<rscale>  2 0.18511421E+03</rscale>
<asrwt>0</asrwt>
<pdfrwt beam="1">  1       21 0.18999675E-01 0.18511421E+03</pdfrwt>
<pdfrwt beam="2">  1       21 0.49251104E-01 0.18511421E+03</pdfrwt>
<totfact> 0.10015578E+05</totfact>
</mgrwt>
</event>
<event>
 4    1  0.4319182E+000  0.1889521E+03  0.7546771E-02  0.1159410E+00
         21   -1    0    0  501  502  0.00000000000E+00  0.00000000000E+00  0.62034134274E+03  0.62034134274E+03  0.00000000000E+00 0. -1.
         21   -1    0    0  502  503 -0.00000000000E+00 -0.00000000000E+00 -0.58319675763E+02  0.58319675763E+02  0.00000000000E+00 0. -1.
          6    1    1    2  501    0  0.72663583330E+02 -0.22223460068E+02  0.31990198081E+03  0.37153755644E+03  0.17300000000E+03 0. -1.
         -6    1    1    2    0  503 -0.72663583330E+02  0.22223460068E+02  0.24211968617E+03  0.30712346207E+03  0.17300000000E+03 0. -1.
<mgrwt>
<rscale>  2 0.18895205E+03</rscale>
<asrwt>0</asrwt>
<pdfrwt beam="1">  1       21 0.95437125E-01 0.18895205E+03</pdfrwt>
<pdfrwt beam="2">  1       21 0.89722582E-02 0.18895205E+03</pdfrwt>
<totfact> 0.90146810E+04</totfact>
</mgrwt>
</event>
<event>
 4    1  0.4319182E+000  0.1808219E+03  0.7546771E-02  0.1167010E+00
         21   -1    0    0  503  502  0.00000000000E+00  0.00000000000E+00  0.25104462878E+03  0.25104462878E+03  0.00000000000E+00 0.  1.
         21   -1    0    0  501  503 -0.00000000000E+00 -0.00000000000E+00 -0.13968665679E+03  0.13968665679E+03  0.00000000000E+00 0.  1.
          6    1    1    2  501    0 -0.51027867150E+02  0.12794728825E+02  0.48789067478E+01  0.18088767797E+03  0.17300000000E+03 0.  1.
         -6    1    1    2    0  502  0.51027867150E+02 -0.12794728825E+02  0.10647906524E+03  0.20984360759E+03  0.17300000000E+03 0.  1.
<mgrwt>
<rscale>  2 0.18082187E+03</rscale>
<asrwt>0</asrwt>
<pdfrwt beam="1">  1       21 0.38622250E-01 0.18082187E+03</pdfrwt>
<pdfrwt beam="2">  1       21 0.21490255E-01 0.18082187E+03</pdfrwt>
<totfact> 0.13093756E+05</totfact>
</mgrwt>
</event>
<event>
 4    1  0.4319182E+000  0.1741651E+03  0.7546771E-02  0.1173573E+00
         21   -1    0    0  503  502  0.00000000000E+00  0.00000000000E+00  0.40629216079E+02  0.40629216079E+02  0.00000000000E+00 0.  1.
         21   -1    0    0  501  503 -0.00000000000E+00 -0.00000000000E+00 -0.13103591704E+04  0.13103591704E+04  0.00000000000E+00 0.  1.
          6    1    1    2  501    0 -0.71571470020E+01 -0.18795430371E+02 -0.10779386097E+04  0.10919181010E+04  0.17300000000E+03 0.  1.
         -6    1    1    2    0  502  0.71571470020E+01  0.18795430371E+02 -0.19179134460E+03  0.25907028548E+03  0.17300000000E+03 0.  1.
<mgrwt>
<rscale>  2 0.17416513E+03</rscale>
<asrwt>0</asrwt>
<pdfrwt beam="1">  1       21 0.62506496E-02 0.17416513E+03</pdfrwt>
<pdfrwt beam="2">  1       21 0.20159369E+00 0.17416513E+03</pdfrwt>
<totfact> 0.24449490E+04</totfact>
</mgrwt>
</event>
<event>
 4    1  0.4319182E+000  0.2120377E+03  0.7546771E-02  0.1139962E+00
         21   -1    0    0  503  502  0.00000000000E+00  0.00000000000E+00  0.52330314033E+03  0.52330314033E+03  0.00000000000E+00 0.  1.
         21   -1    0    0  501  503 -0.00000000000E+00 -0.00000000000E+00 -0.12891931394E+03  0.12891931394E+03  0.00000000000E+00 0.  1.
          6    1    1    2  501    0  0.99655502453E+02  0.71412586786E+02  0.88447725900E+01  0.21222206936E+03  0.17300000000E+03 0.  1.
         -6    1    1    2    0  502 -0.99655502453E+02 -0.71412586786E+02  0.38553905379E+03  0.44000038491E+03  0.17300000000E+03 0.  1.
<mgrwt>
<rscale>  2 0.21203768E+03</rscale>
<asrwt>0</asrwt>
<pdfrwt beam="1">  1       21 0.80508174E-01 0.21203768E+03</pdfrwt>
<pdfrwt beam="2">  1       21 0.19833741E-01 0.21203768E+03</pdfrwt>
<totfact> 0.31452305E+04</totfact>
</mgrwt>
</event>
<event>
 4    1  0.4319182E+000  0.2115110E+03  0.7546771E-02  0.1140375E+00
         21   -1    0    0  501  502  0.00000000000E+00  0.00000000000E+00  0.13254592455E+03  0.13254592455E+03  0.00000000000E+00 0.  1.
         21   -1    0    0  502  503 -0.00000000000E+00 -0.00000000000E+00 -0.59116021814E+03  0.59116021814E+03  0.00000000000E+00 0. -1.
          6    1    1    2  501    0  0.77636930137E+02  0.93703931165E+02  0.77148202159E+01  0.21165169049E+03  0.17300000000E+03 0.  1.
         -6    1    1    2    0  503 -0.77636930137E+02 -0.93703931165E+02 -0.46632911380E+03  0.51205445220E+03  0.17300000000E+03 0. -1.
<mgrwt>
<rscale>  2 0.21151104E+03</rscale>
<asrwt>0</asrwt>
<pdfrwt beam="1">  1       21 0.20391680E-01 0.21151104E+03</pdfrwt>
<pdfrwt beam="2">  1       21 0.90947728E-01 0.21151104E+03</pdfrwt>
<totfact> 0.22572701E+04</totfact>
</mgrwt>
</event>
<event>
 4    1  0.4319182E+000  0.1810423E+03  0.7546771E-02  0.1166798E+00
         21   -1    0    0  503  502  0.00000000000E+00  0.00000000000E+00  0.12020093501E+03  0.12020093501E+03  0.00000000000E+00 0. -1.
         21   -1    0    0  501  503 -0.00000000000E+00 -0.00000000000E+00 -0.66861072567E+03  0.66861072567E+03  0.00000000000E+00 0. -1.
          6    1    1    2  501    0  0.28855814213E+02 -0.44884921535E+02 -0.57771042633E+03  0.60541361968E+03  0.17300000000E+03 0. -1.
         -6    1    1    2    0  502 -0.28855814213E+02  0.44884921535E+02  0.29300635671E+02  0.18339804101E+03  0.17300000000E+03 0. -1.
<mgrwt>
<rscale>  2 0.18104230E+03</rscale>
<asrwt>0</asrwt>
<pdfrwt beam="1">  1       21 0.18492452E-01 0.18104230E+03</pdfrwt>
<pdfrwt beam="2">  1       21 0.10286319E+00 0.18104230E+03</pdfrwt>
<totfact> 0.20645520E+04</totfact>
</mgrwt>
</event>
<event>
 4    1  0.4319182E+000  0.1891623E+03  0.7546771E-02  0.1159219E+00
         21   -1    0    0  503  502  0.00000000000E+00  0.00000000000E+00  0.12796108340E+04  0.12796108340E+04  0.00000000000E+00 0.  1.
         21   -1    0    0  501  503 -0.00000000000E+00 -0.00000000000E+00 -0.32823741343E+02  0.32823741343E+02  0.00000000000E+00 0.  1.
          6    1    1    2  501    0 -0.69585639227E+02  0.31799332474E+02  0.37088045430E+03  0.41633480531E+03  0.17300000000E+03 0.  1.
         -6    1    1    2    0  502  0.69585639227E+02 -0.31799332474E+02  0.87590663839E+03  0.89609977007E+03  0.17300000000E+03 0.  1.
<mgrwt>
<rscale>  2 0.18916226E+03</rscale>
<asrwt>0</asrwt>
<pdfrwt beam="1">  1       21 0.19686317E+00 0.18916226E+03</pdfrwt>
<pdfrwt beam="2">  1       21 0.50498074E-02 0.18916226E+03</pdfrwt>
<totfact> 0.37296257E+04</totfact>
</mgrwt>
</event>
<event>
 4    1  0.4319182E+000  0.2127932E+03  0.7546771E-02  0.1139373E+00
         21   -1    0    0  501  502  0.00000000000E+00  0.00000000000E+00  0.34143760798E+03  0.34143760798E+03  0.00000000000E+00 0.  1.
         21   -1    0    0  502  503 -0.00000000000E+00 -0.00000000000E+00 -0.18849045918E+03  0.18849045918E+03  0.00000000000E+00 0. -1.
          6    1    1    2  501    0  0.50276207042E+02 -0.11324426189E+03  0.22073127432E+03  0.30659950311E+03  0.17300000000E+03 0.  1.
         -6    1    1    2    0  503 -0.50276207042E+02  0.11324426189E+03 -0.67784125525E+02  0.22332856405E+03  0.17300000000E+03 0. -1.
<mgrwt>
<rscale>  2 0.21279323E+03</rscale>
<asrwt>0</asrwt>
<pdfrwt beam="1">  1       21 0.52528863E-01 0.21279323E+03</pdfrwt>
<pdfrwt beam="2">  1       21 0.28998532E-01 0.21279323E+03</pdfrwt>
<totfact> 0.38719771E+04</totfact>
</mgrwt>
</event>
<event>
 4    1  0.4319182E+000  0.1981723E+03  0.7546771E-02  0.1151290E+00
         21   -1    0    0  503  502  0.00000000000E+00  0.00000000000E+00  0.35834674187E+03  0.35834674187E+03  0.00000000000E+00 0.  1.
         21   -1    0    0  501  503 -0.00000000000E+00 -0.00000000000E+00 -0.10959487110E+03  0.10959487110E+03  0.00000000000E+00 0. -1.
          6    1    1    2  501    0 -0.36427943940E+02  0.89533679480E+02  0.12339514015E+03  0.23344942809E+03  0.17300000000E+03 0. -1.
         -6    1    1    2    0  502  0.36427943940E+02 -0.89533679480E+02  0.12535673062E+03  0.23449218488E+03  0.17300000000E+03 0.  1.
<mgrwt>
<rscale>  2 0.19817234E+03</rscale>
<asrwt>0</asrwt>
<pdfrwt beam="1">  1       21 0.55130268E-01 0.19817234E+03</pdfrwt>
<pdfrwt beam="2">  1       21 0.16860750E-01 0.19817234E+03</pdfrwt>
<totfact> 0.98078392E+04</totfact>
</mgrwt>
</event>
<event>
 4    1  0.4319182E+000  0.2020728E+03  0.7546771E-02  0.1148002E+00
         21   -1    0    0  501  502  0.00000000000E+00  0.00000000000E+00  0.22250054735E+03  0.22250054735E+03  0.00000000000E+00 0.  1.
         21   -1    0    0  502  503 -0.00000000000E+00 -0.00000000000E+00 -0.18887225889E+03  0.18887225889E+03  0.00000000000E+00 0.  1.
          6    1    1    2  501    0  0.40568368974E+02 -0.96221680670E+02  0.51437654688E+02  0.20851675403E+03  0.17300000000E+03 0.  1.
         -6    1    1    2    0  503 -0.40568368974E+02  0.96221680670E+02 -0.17809366234E+02  0.20285605221E+03  0.17300000000E+03 0.  1.
<mgrwt>
<rscale>  2 0.20207277E+03</rscale>
<asrwt>0</asrwt>
<pdfrwt beam="1">  1       21 0.34230853E-01 0.20207277E+03</pdfrwt>
<pdfrwt beam="2">  1       21 0.29057271E-01 0.20207277E+03</pdfrwt>
<totfact> 0.92889000E+04</totfact>
</mgrwt>
</event>
<event>
 4    1  0.4319182E+000  0.1758103E+03  0.7546771E-02  0.1171921E+00
         21   -1    0    0  503  502  0.00000000000E+00  0.00000000000E+00  0.27624329295E+03  0.27624329295E+03  0.00000000000E+00 0. -1.
         21   -1    0    0  501  503 -0.00000000000E+00 -0.00000000000E+00 -0.19643961037E+03  0.19643961037E+03  0.00000000000E+00 0. -1.
          6    1    1    2  501    0 -0.29639995584E+02  0.10086852300E+02 -0.11515014804E+03  0.21016381830E+03  0.17300000000E+03 0. -1.
         -6    1    1    2    0  502  0.29639995584E+02 -0.10086852300E+02  0.19495383062E+03  0.26251908502E+03  0.17300000000E+03 0. -1.
<mgrwt>
<rscale>  2 0.17581034E+03</rscale>
<asrwt>0</asrwt>
<pdfrwt beam="1">  1       21 0.42498968E-01 0.17581034E+03</pdfrwt>
<pdfrwt beam="2">  1       21 0.30221478E-01 0.17581034E+03</pdfrwt>
<totfact> 0.56386203E+04</totfact>
</mgrwt>
</event>
<event>
 4    1  0.4319182E+000  0.2019242E+03  0.7546771E-02  0.1148126E+00
         21   -1    0    0  501  502  0.00000000000E+00  0.00000000000E+00  0.47318101357E+03  0.47318101357E+03  0.00000000000E+00 0. -1.
         21   -1    0    0  502  503 -0.00000000000E+00 -0.00000000000E+00 -0.88278655304E+02  0.88278655304E+02  0.00000000000E+00 0. -1.
          6    1    1    2  501    0 -0.50995481656E+02  0.90795564642E+02  0.14905000326E+03  0.25097664668E+03  0.17300000000E+03 0. -1.
         -6    1    1    2    0  503  0.50995481656E+02 -0.90795564642E+02  0.23585235501E+03  0.31048302219E+03  0.17300000000E+03 0. -1.
<mgrwt>
<rscale>  2 0.20192418E+03</rscale>
<asrwt>0</asrwt>
<pdfrwt beam="1">  1       21 0.72797077E-01 0.20192418E+03</pdfrwt>
<pdfrwt beam="2">  1       21 0.13581332E-01 0.20192418E+03</pdfrwt>
<totfact> 0.79485179E+04</totfact>
</mgrwt>
</event>
<event>
 4    1  0.4319182E+000  0.1768815E+03  0.7546771E-02  0.1170856E+00
         21   -1    0    0  501  502  0.00000000000E+00  0.00000000000E+00  0.35986842602E+02  0.35986842602E+02  0.00000000000E+00 0.  1.
         21   -1    0    0  502  503 -0.00000000000E+00 -0.00000000000E+00 -0.13006071896E+04  0.13006071896E+04  0.00000000000E+00 0.  1.
          6    1    1    2  501    0 -0.36253523648E+02 -0.66136769944E+01 -0.24750750443E+03  0.30421542276E+03  0.17300000000E+03 0.  1.
         -6    1    1    2    0  503  0.36253523648E+02  0.66136769944E+01 -0.10171128426E+04  0.10323786095E+04  0.17300000000E+03 0.  1.
<mgrwt>
<rscale>  2 0.17688148E+03</rscale>
<asrwt>0</asrwt>
<pdfrwt beam="1">  1       21 0.55364373E-02 0.17688148E+03</pdfrwt>
<pdfrwt beam="2">  1       21 0.20009341E+00 0.17688148E+03</pdfrwt>
<totfact> 0.30678714E+04</totfact>
</mgrwt>
</event>
<event>
 4    1  0.4319182E+000  0.1834065E+03  0.7546771E-02  0.1164546E+00
         21   -1    0    0  501  502  0.00000000000E+00  0.00000000000E+00  0.77838320139E+03  0.77838320139E+03  0.00000000000E+00 0. -1.
         21   -1    0    0  502  503 -0.00000000000E+00 -0.00000000000E+00 -0.43398930699E+02  0.43398930699E+02  0.00000000000E+00 0. -1.
          6    1    1    2  501    0  0.53361692497E+02  0.29350910335E+02  0.39423070110E+03  0.43480546437E+03  0.17300000000E+03 0. -1.
         -6    1    1    2    0  503 -0.53361692497E+02 -0.29350910335E+02  0.34075356960E+03  0.38697666772E+03  0.17300000000E+03 0. -1.
<mgrwt>
<rscale>  2 0.18340651E+03</rscale>
<asrwt>0</asrwt>
<pdfrwt beam="1">  1       21 0.11975125E+00 0.18340651E+03</pdfrwt>
<pdfrwt beam="2">  1       21 0.66767591E-02 0.18340651E+03</pdfrwt>
<totfact> 0.87478781E+04</totfact>
</mgrwt>
</event>
<event>
 4    1  0.4319182E+000  0.1805087E+03  0.7546771E-02  0.1167312E+00
         21   -1    0    0  501  502  0.00000000000E+00  0.00000000000E+00  0.19423499205E+03  0.19423499205E+03  0.00000000000E+00 0. -1.
         21   -1    0    0  502  503 -0.00000000000E+00 -0.00000000000E+00 -0.21235705216E+03  0.21235705216E+03  0.00000000000E+00 0.  1.
          6    1    1    2  501    0  0.18109467720E+02  0.48233284522E+02  0.84110923676E+02  0.19914329022E+03  0.17300000000E+03 0. -1.
         -6    1    1    2    0  503 -0.18109467720E+02 -0.48233284522E+02 -0.10223298379E+03  0.20744875399E+03  0.17300000000E+03 0.  1.
<mgrwt>
<rscale>  2 0.18050873E+03</rscale>
<asrwt>0</asrwt>
<pdfrwt beam="1">  1       21 0.29882306E-01 0.18050873E+03</pdfrwt>
<pdfrwt beam="2">  1       21 0.32670316E-01 0.18050873E+03</pdfrwt>
<totfact> 0.97273925E+04</totfact>
</mgrwt>
</event>
<event>
 4    1  0.4319182E+000  0.1760546E+03  0.7546771E-02  0.1171677E+00
         21   -1    0    0  503  502  0.00000000000E+00  0.00000000000E+00  0.39832587341E+03  0.39832587341E+03  0.00000000000E+00 0.  1.
         21   -1    0    0  501  503 -0.00000000000E+00 -0.00000000000E+00 -0.87126041403E+02  0.87126041403E+02  0.00000000000E+00 0.  1.
          6    1    1    2  501    0 -0.39131400716E+01  0.32417883074E+02  0.76245627760E+02  0.19185574675E+03  0.17300000000E+03 0.  1.
         -6    1    1    2    0  502  0.39131400716E+01 -0.32417883074E+02  0.23495420425E+03  0.29359616806E+03  0.17300000000E+03 0.  1.
<mgrwt>
<rscale>  2 0.17605463E+03</rscale>
<asrwt>0</asrwt>
<pdfrwt beam="1">  1       21 0.61280903E-01 0.17605463E+03</pdfrwt>
<pdfrwt beam="2">  1       21 0.13404007E-01 0.17605463E+03</pdfrwt>
<totfact> 0.11982519E+05</totfact>
</mgrwt>
</event>
<event>
 4    1  0.4319182E+000  0.1925006E+03  0.7546771E-02  0.1156225E+00
         21   -1    0    0  501  502  0.00000000000E+00  0.00000000000E+00  0.46915183798E+02  0.46915183798E+02  0.00000000000E+00 0.  1.
         21   -1    0    0  502  503 -0.00000000000E+00 -0.00000000000E+00 -0.92518894646E+03  0.92518894646E+03  0.00000000000E+00 0. -1.
          6    1    1    2  501    0  0.16546003784E+02  0.82787247509E+02 -0.25324497577E+03  0.31810299644E+03  0.17300000000E+03 0.  1.
         -6    1    1    2    0  503 -0.16546003784E+02 -0.82787247509E+02 -0.62502878689E+03  0.65400113382E+03  0.17300000000E+03 0. -1.
<mgrwt>
<rscale>  2 0.19250065E+03</rscale>
<asrwt>0</asrwt>
<pdfrwt beam="1">  1       21 0.72177213E-02 0.19250065E+03</pdfrwt>
<pdfrwt beam="2">  1       21 0.14233675E+00 0.19250065E+03</pdfrwt>
<totfact> 0.49187723E+04</totfact>
</mgrwt>
</event>
<event>
 4    1  0.4319182E+000  0.1743412E+03  0.7546771E-02  0.1173395E+00
         21   -1    0    0  501  502  0.00000000000E+00  0.00000000000E+00  0.61303209195E+02  0.61303209195E+02  0.00000000000E+00 0.  1.
         21   -1    0    0  502  503 -0.00000000000E+00 -0.00000000000E+00 -0.49967841372E+03  0.49967841372E+03  0.00000000000E+00 0.  1.
          6    1    1    2  501    0  0.16461222085E+02  0.13960482920E+02 -0.19451429534E+03  0.26121002662E+03  0.17300000000E+03 0. -1.
         -6    1    1    2    0  503 -0.16461222085E+02 -0.13960482920E+02 -0.24386090919E+03  0.29977159630E+03  0.17300000000E+03 0. -1.
<mgrwt>
<rscale>  2 0.17434124E+03</rscale>
<asrwt>0</asrwt>
<pdfrwt beam="1">  1       21 0.94312628E-02 0.17434124E+03</pdfrwt>
<pdfrwt beam="2">  1       21 0.76873603E-01 0.17434124E+03</pdfrwt>
<totfact> 0.13624755E+05</totfact>
</mgrwt>
</event>
<event>
 4    1  0.4319182E+000  0.1854865E+03  0.7546771E-02  0.1162596E+00
         21   -1    0    0  501  502  0.00000000000E+00  0.00000000000E+00  0.19140204788E+03  0.19140204788E+03  0.00000000000E+00 0. -1.
         21   -1    0    0  502  503 -0.00000000000E+00 -0.00000000000E+00 -0.32730482907E+03  0.32730482907E+03  0.00000000000E+00 0. -1.
          6    1    1    2  501    0  0.62018690527E+02  0.25098096750E+02  0.10618399223E+03  0.21372943794E+03  0.17300000000E+03 0. -1.
         -6    1    1    2    0  503 -0.62018690527E+02 -0.25098096750E+02 -0.24208677343E+03  0.30497743901E+03  0.17300000000E+03 0. -1.
<mgrwt>
<rscale>  2 0.18548648E+03</rscale>
<asrwt>0</asrwt>
<pdfrwt beam="1">  1       21 0.29446469E-01 0.18548648E+03</pdfrwt>
<pdfrwt beam="2">  1       21 0.50354589E-01 0.18548648E+03</pdfrwt>
<totfact> 0.41634492E+04</totfact>
</mgrwt>
</event>
<event>
 4    1  0.4319182E+000  0.1771333E+03  0.7546771E-02  0.1170607E+00
         21   -1    0    0  503  502  0.00000000000E+00  0.00000000000E+00  0.72990206133E+02  0.72990206133E+02  0.00000000000E+00 0.  1.
         21   -1    0    0  501  503 -0.00000000000E+00 -0.00000000000E+00 -0.46194559024E+03  0.46194559024E+03  0.00000000000E+00 0. -1.
          6    1    1    2  501    0  0.38030665120E+02  0.94439685222E+00 -0.26495846838E+03  0.31871494057E+03  0.17300000000E+03 0. -1.
         -6    1    1    2    0  502 -0.38030665120E+02 -0.94439685222E+00 -0.12399691572E+03  0.21622085580E+03  0.17300000000E+03 0.  1.
<mgrwt>
<rscale>  2 0.17713335E+03</rscale>
<asrwt>0</asrwt>
<pdfrwt beam="1">  1       21 0.11229262E-01 0.17713335E+03</pdfrwt>
<pdfrwt beam="2">  1       21 0.71068553E-01 0.17713335E+03</pdfrwt>
<totfact> 0.11906091E+05</totfact>
</mgrwt>
</event>
<event>
 4    1  0.4319182E+000  0.2135814E+03  0.7546771E-02  0.1138761E+00
         21   -1    0    0  501  502  0.00000000000E+00  0.00000000000E+00  0.47548347306E+02  0.47548347306E+02  0.00000000000E+00 0. -1.
         21   -1    0    0  502  503 -0.00000000000E+00 -0.00000000000E+00 -0.96156470305E+03  0.96156470305E+03  0.00000000000E+00 0.  1.
          6    1    1    2  501    0  0.11150865816E+03  0.57042273786E+02 -0.43296600371E+03  0.48278003502E+03  0.17300000000E+03 0. -1.
         -6    1    1    2    0  503 -0.11150865816E+03 -0.57042273786E+02 -0.48105035204E+03  0.52633301534E+03  0.17300000000E+03 0.  1.
<mgrwt>
<rscale>  2 0.21358137E+03</rscale>
<asrwt>0</asrwt>
<pdfrwt beam="1">  1       21 0.73151297E-02 0.21358137E+03</pdfrwt>
<pdfrwt beam="2">  1       21 0.14793304E+00 0.21358137E+03</pdfrwt>
<totfact> 0.42936056E+04</totfact>
</mgrwt>
</event>
<event>
 4    1  0.4319182E+000  0.2191441E+03  0.7546771E-02  0.1134523E+00
         21   -1    0    0  503  502  0.00000000000E+00  0.00000000000E+00  0.99137354829E+02  0.99137354829E+02  0.00000000000E+00 0.  1.
         21   -1    0    0  501  503 -0.00000000000E+00 -0.00000000000E+00 -0.55503642251E+03  0.55503642251E+03  0.00000000000E+00 0. -1.
          6    1    1    2  501    0  0.11154761345E+03 -0.75181603438E+02 -0.34461825552E+03  0.40839427714E+03  0.17300000000E+03 0.  1.
         -6    1    1    2    0  502 -0.11154761345E+03  0.75181603438E+02 -0.11128081216E+03  0.24577950020E+03  0.17300000000E+03 0.  1.
<mgrwt>
<rscale>  2 0.21914412E+03</rscale>
<asrwt>0</asrwt>
<pdfrwt beam="1">  1       21 0.15251901E-01 0.21914412E+03</pdfrwt>
<pdfrwt beam="2">  1       21 0.85390220E-01 0.21914412E+03</pdfrwt>
<totfact> 0.44528429E+04</totfact>
</mgrwt>
</event>
<event>
 4    1  0.4319182E+000  0.1892339E+03  0.7546771E-02  0.1159154E+00
         21   -1    0    0  501  502  0.00000000000E+00  0.00000000000E+00  0.10235997755E+04  0.10235997755E+04  0.00000000000E+00 0. -1.
         21   -1    0    0  502  503 -0.00000000000E+00 -0.00000000000E+00 -0.44284779833E+02  0.44284779833E+02  0.00000000000E+00 0. -1.
          6    1    1    2  501    0 -0.72834355907E+02 -0.23991832675E+02  0.73435552450E+03  0.75834522996E+03  0.17300000000E+03 0. -1.
         -6    1    1    2    0  503  0.72834355907E+02  0.23991832675E+02  0.24495947114E+03  0.30953932534E+03  0.17300000000E+03 0. -1.
<mgrwt>
<rscale>  2 0.18923385E+03</rscale>
<asrwt>0</asrwt>
<pdfrwt beam="1">  1       21 0.15747687E+00 0.18923385E+03</pdfrwt>
<pdfrwt beam="2">  1       21 0.68130438E-02 0.18923385E+03</pdfrwt>
<totfact> 0.41721503E+04</totfact>
</mgrwt>
</event>
<event>
 4    1  0.4319182E+000  0.2083301E+03  0.7546771E-02  0.1142895E+00
         21   -1    0    0  501  502  0.00000000000E+00  0.00000000000E+00  0.23673252466E+03  0.23673252466E+03  0.00000000000E+00 0.  1.
         21   -1    0    0  502  503 -0.00000000000E+00 -0.00000000000E+00 -0.18607789349E+03  0.18607789349E+03  0.00000000000E+00 0.  1.
          6    1    1    2  501    0 -0.50663627428E+02  0.10443004637E+03 -0.33795830921E+00  0.20833039131E+03  0.17300000000E+03 0.  1.
         -6    1    1    2    0  503  0.50663627428E+02 -0.10443004637E+03  0.50992589477E+02  0.21448002683E+03  0.17300000000E+03 0.  1.
<mgrwt>
<rscale>  2 0.20833012E+03</rscale>
<asrwt>0</asrwt>
<pdfrwt beam="1">  1       21 0.36420388E-01 0.20833012E+03</pdfrwt>
<pdfrwt beam="2">  1       21 0.28627368E-01 0.20833012E+03</pdfrwt>
<totfact> 0.84302160E+04</totfact>
</mgrwt>
</event>
<event>
 4    1  0.4319182E+000  0.2022885E+03  0.7546771E-02  0.1147822E+00
         21   -1    0    0  503  502  0.00000000000E+00  0.00000000000E+00  0.26901947816E+03  0.26901947816E+03  0.00000000000E+00 0.  1.
         21   -1    0    0  501  503 -0.00000000000E+00 -0.00000000000E+00 -0.15987223761E+03  0.15987223761E+03  0.00000000000E+00 0.  1.
          6    1    1    2  501    0  0.14556635787E+02  0.10382561228E+03  0.73222789429E+01  0.20242101961E+03  0.17300000000E+03 0.  1.
         -6    1    1    2    0  502 -0.14556635787E+02 -0.10382561228E+03  0.10182496160E+03  0.22647069616E+03  0.17300000000E+03 0.  1.
<mgrwt>
<rscale>  2 0.20228854E+03</rscale>
<asrwt>0</asrwt>
<pdfrwt beam="1">  1       21 0.41387612E-01 0.20228854E+03</pdfrwt>
<pdfrwt beam="2">  1       21 0.24595729E-01 0.20228854E+03</pdfrwt>
<totfact> 0.87483083E+04</totfact>
</mgrwt>
</event>
<event>
 4    1  0.4319182E+000  0.1968212E+03  0.7546771E-02  0.1152449E+00
         21   -1    0    0  501  502  0.00000000000E+00  0.00000000000E+00  0.14057275338E+03  0.14057275338E+03  0.00000000000E+00 0.  1.
         21   -1    0    0  502  503 -0.00000000000E+00 -0.00000000000E+00 -0.78286906953E+03  0.78286906953E+03  0.00000000000E+00 0.  1.
          6    1    1    2  501    0  0.79617212888E+02  0.49705973763E+02  0.50527496242E+02  0.20320337668E+03  0.17300000000E+03 0.  1.
         -6    1    1    2    0  503 -0.79617212888E+02 -0.49705973763E+02 -0.69282381239E+03  0.72023844624E+03  0.17300000000E+03 0.  1.
<mgrwt>
<rscale>  2 0.19682120E+03</rscale>
<asrwt>0</asrwt>
<pdfrwt beam="1">  1       21 0.21626577E-01 0.19682120E+03</pdfrwt>
<pdfrwt beam="2">  1       21 0.12044140E+00 0.19682120E+03</pdfrwt>
<totfact> 0.10401395E+04</totfact>
</mgrwt>
</event>
<event>
 4    1  0.4319182E+000  0.3531949E+03  0.7546771E-02  0.1061311E+00
         21   -1    0    0  501  502  0.00000000000E+00  0.00000000000E+00  0.20293791001E+03  0.20293791001E+03  0.00000000000E+00 0. -1.
         21   -1    0    0  502  503 -0.00000000000E+00 -0.00000000000E+00 -0.12946557436E+04  0.12946557436E+04  0.00000000000E+00 0. -1.
          6    1    1    2  501    0  0.26722760321E+01  0.30791315151E+03 -0.32011294618E+01  0.35320942394E+03  0.17300000000E+03 0. -1.
         -6    1    1    2    0  503 -0.26722760321E+01 -0.30791315151E+03 -0.10885167042E+04  0.11443842297E+04  0.17300000000E+03 0. -1.
<mgrwt>
<rscale>  2 0.35319492E+03</rscale>
<asrwt>0</asrwt>
<pdfrwt beam="1">  1       21 0.31221217E-01 0.35319492E+03</pdfrwt>
<pdfrwt beam="2">  1       21 0.19917781E+00 0.35319492E+03</pdfrwt>
<totfact> 0.11779682E+03</totfact>
</mgrwt>
</event>
<event>
 4    1  0.4319182E+000  0.1741588E+03  0.7546771E-02  0.1173579E+00
         21   -1    0    0  503  502  0.00000000000E+00  0.00000000000E+00  0.22792120236E+03  0.22792120236E+03  0.00000000000E+00 0.  1.
         21   -1    0    0  501  503 -0.00000000000E+00 -0.00000000000E+00 -0.20593504254E+03  0.20593504254E+03  0.00000000000E+00 0.  1.
          6    1    1    2  501    0  0.13018559755E+02 -0.15257513935E+02 -0.11803576283E+03  0.21038943874E+03  0.17300000000E+03 0.  1.
         -6    1    1    2    0  502 -0.13018559755E+02  0.15257513935E+02  0.14002192265E+03  0.22346680615E+03  0.17300000000E+03 0.  1.
<mgrwt>
<rscale>  2 0.17415876E+03</rscale>
<asrwt>0</asrwt>
<pdfrwt beam="1">  1       21 0.35064800E-01 0.17415876E+03</pdfrwt>
<pdfrwt beam="2">  1       21 0.31682314E-01 0.17415876E+03</pdfrwt>
<totfact> 0.75679875E+04</totfact>
</mgrwt>
</event>
<event>
 4    1  0.4319182E+000  0.2376417E+03  0.7546771E-02  0.1121374E+00
         21   -1    0    0  503  502  0.00000000000E+00  0.00000000000E+00  0.98313117654E+03  0.98313117654E+03  0.00000000000E+00 0.  1.
         21   -1    0    0  501  503 -0.00000000000E+00 -0.00000000000E+00 -0.12949813703E+03  0.12949813703E+03  0.00000000000E+00 0.  1.
          6    1    1    2  501    0 -0.15099606574E+03  0.61194623787E+02  0.11841003620E+02  0.23793655292E+03  0.17300000000E+03 0.  1.
         -6    1    1    2    0  502  0.15099606574E+03 -0.61194623787E+02  0.84179203589E+03  0.87469276065E+03  0.17300000000E+03 0.  1.
<mgrwt>
<rscale>  2 0.23764173E+03</rscale>
<asrwt>0</asrwt>
<pdfrwt beam="1">  1       21 0.15125094E+00 0.23764173E+03</pdfrwt>
<pdfrwt beam="2">  1       21 0.19922791E-01 0.23764173E+03</pdfrwt>
<totfact> 0.65732332E+03</totfact>
</mgrwt>
</event>
<event>
 4    1  0.4319182E+000  0.1987726E+03  0.7546771E-02  0.1150779E+00
         21   -1    0    0  503  502  0.00000000000E+00  0.00000000000E+00  0.10630140339E+03  0.10630140339E+03  0.00000000000E+00 0. -1.
         21   -1    0    0  501  503 -0.00000000000E+00 -0.00000000000E+00 -0.37194055989E+03  0.37194055989E+03  0.00000000000E+00 0. -1.
          6    1    1    2  501    0  0.95723092748E+02  0.20460235990E+02 -0.12653945844E+03  0.23563269358E+03  0.17300000000E+03 0. -1.
         -6    1    1    2    0  502 -0.95723092748E+02 -0.20460235990E+02 -0.13909969807E+03  0.24260926970E+03  0.17300000000E+03 0. -1.
<mgrwt>
<rscale>  2 0.19877256E+03</rscale>
<asrwt>0</asrwt>
<pdfrwt beam="1">  1       21 0.16354062E-01 0.19877256E+03</pdfrwt>
<pdfrwt beam="2">  1       21 0.57221625E-01 0.19877256E+03</pdfrwt>
<totfact> 0.95821625E+04</totfact>
</mgrwt>
</event>
<event>
 4    1  0.4319182E+000  0.2004649E+03  0.7546771E-02  0.1149347E+00
         21   -1    0    0  503  502  0.00000000000E+00  0.00000000000E+00  0.19896373531E+03  0.19896373531E+03  0.00000000000E+00 0. -1.
         21   -1    0    0  501  503 -0.00000000000E+00 -0.00000000000E+00 -0.20959872026E+03  0.20959872026E+03  0.00000000000E+00 0. -1.
          6    1    1    2  501    0  0.73566431963E+02 -0.69607258147E+02  0.33636097080E+02  0.20326725591E+03  0.17300000000E+03 0. -1.
         -6    1    1    2    0  502 -0.73566431963E+02  0.69607258147E+02 -0.44271082037E+02  0.20529519966E+03  0.17300000000E+03 0. -1.
<mgrwt>
<rscale>  2 0.20046494E+03</rscale>
<asrwt>0</asrwt>
<pdfrwt beam="1">  1       21 0.30609805E-01 0.20046494E+03</pdfrwt>
<pdfrwt beam="2">  1       21 0.32245957E-01 0.20046494E+03</pdfrwt>
<totfact> 0.94493073E+04</totfact>
</mgrwt>
</event>
<event>
 4    1  0.4319182E+000  0.2265265E+03  0.7546771E-02  0.1129109E+00
         21   -1    0    0  501  502  0.00000000000E+00  0.00000000000E+00  0.18937094306E+03  0.18937094306E+03  0.00000000000E+00 0.  1.
         21   -1    0    0  502  503 -0.00000000000E+00 -0.00000000000E+00 -0.45091513562E+03  0.45091513562E+03  0.00000000000E+00 0. -1.
          6    1    1    2  501    0 -0.13208067774E+03  0.62768999443E+02  0.71466531954E+02  0.23753256179E+03  0.17300000000E+03 0.  1.
         -6    1    1    2    0  503  0.13208067774E+03 -0.62768999443E+02 -0.33301072452E+03  0.40275351689E+03  0.17300000000E+03 0. -1.
<mgrwt>
<rscale>  2 0.22652649E+03</rscale>
<asrwt>0</asrwt>
<pdfrwt beam="1">  1       21 0.29133991E-01 0.22652649E+03</pdfrwt>
<pdfrwt beam="2">  1       21 0.69371559E-01 0.22652649E+03</pdfrwt>
<totfact> 0.20912457E+04</totfact>
</mgrwt>
</event>
<event>
 4    1  0.4319182E+000  0.1963784E+03  0.7546771E-02  0.1152831E+00
         21   -1    0    0  501  502  0.00000000000E+00  0.00000000000E+00  0.89665585649E+03  0.89665585649E+03  0.00000000000E+00 0.  1.
         21   -1    0    0  502  503 -0.00000000000E+00 -0.00000000000E+00 -0.43721136949E+02  0.43721136949E+02  0.00000000000E+00 0.  1.
          6    1    1    2  501    0  0.20278239452E+02  0.90687846132E+02  0.36646988520E+03  0.41576997148E+03  0.17300000000E+03 0.  1.
         -6    1    1    2    0  503 -0.20278239452E+02 -0.90687846132E+02  0.48646483435E+03  0.52460702196E+03  0.17300000000E+03 0.  1.
<mgrwt>
<rscale>  2 0.19637844E+03</rscale>
<asrwt>0</asrwt>
<pdfrwt beam="1">  1       21 0.13794704E+00 0.19637844E+03</pdfrwt>
<pdfrwt beam="2">  1       21 0.67263295E-02 0.19637844E+03</pdfrwt>
<totfact> 0.60116397E+04</totfact>
</mgrwt>
</event>
<event>
 4    1  0.4319182E+000  0.2220081E+03  0.7546771E-02  0.1132395E+00
         21   -1    0    0  503  502  0.00000000000E+00  0.00000000000E+00  0.57364394543E+03  0.57364394543E+03  0.00000000000E+00 0.  1.
         21   -1    0    0  501  503 -0.00000000000E+00 -0.00000000000E+00 -0.88233642029E+02  0.88233642029E+02  0.00000000000E+00 0. -1.
          6    1    1    2  501    0 -0.69296062224E+02 -0.12065092410E+03  0.18911783875E+03  0.29163872627E+03  0.17300000000E+03 0. -1.
         -6    1    1    2    0  502  0.69296062224E+02  0.12065092410E+03  0.29629246464E+03  0.37023886118E+03  0.17300000000E+03 0.  1.
<mgrwt>
<rscale>  2 0.22200808E+03</rscale>
<asrwt>0</asrwt>
<pdfrwt beam="1">  1       21 0.88252912E-01 0.22200808E+03</pdfrwt>
<pdfrwt beam="2">  1       21 0.13574407E-01 0.22200808E+03</pdfrwt>
<totfact> 0.50951718E+04</totfact>
</mgrwt>
</event>
<event>
 4    1  0.4319182E+000  0.2012336E+03  0.7546771E-02  0.1148702E+00
         21   -1    0    0  503  502  0.00000000000E+00  0.00000000000E+00  0.70313695719E+03  0.70313695719E+03  0.00000000000E+00 0. -1.
         21   -1    0    0  501  503 -0.00000000000E+00 -0.00000000000E+00 -0.60754980245E+02  0.60754980245E+02  0.00000000000E+00 0. -1.
          6    1    1    2  501    0 -0.86801630712E+02  0.55058552666E+02  0.23404073937E+03  0.30865844392E+03  0.17300000000E+03 0. -1.
         -6    1    1    2    0  502  0.86801630712E+02 -0.55058552666E+02  0.40834123757E+03  0.45523349351E+03  0.17300000000E+03 0. -1.
<mgrwt>
<rscale>  2 0.20123361E+03</rscale>
<asrwt>0</asrwt>
<pdfrwt beam="1">  1       21 0.10817491E+00 0.20123361E+03</pdfrwt>
<pdfrwt beam="2">  1       21 0.93469205E-02 0.20123361E+03</pdfrwt>
<totfact> 0.61895210E+04</totfact>
</mgrwt>
</event>
<event>
 4    1  0.4319182E+000  0.2528744E+03  0.7546771E-02  0.1111502E+00
         21   -1    0    0  503  502  0.00000000000E+00  0.00000000000E+00  0.39795999261E+03  0.39795999261E+03  0.00000000000E+00 0. -1.
         21   -1    0    0  501  503 -0.00000000000E+00 -0.00000000000E+00 -0.16887801359E+03  0.16887801359E+03  0.00000000000E+00 0.  1.
          6    1    1    2  501    0  0.28377718175E+02 -0.18223927315E+03  0.17697402456E+03  0.30865069728E+03  0.17300000000E+03 0. -1.
         -6    1    1    2    0  502 -0.28377718175E+02  0.18223927315E+03  0.52107954470E+02  0.25818730891E+03  0.17300000000E+03 0.  1.
<mgrwt>
<rscale>  2 0.25287437E+03</rscale>
<asrwt>0</asrwt>
<pdfrwt beam="1">  1       21 0.61224614E-01 0.25287437E+03</pdfrwt>
<pdfrwt beam="2">  1       21 0.25981233E-01 0.25287437E+03</pdfrwt>
<totfact> 0.33903421E+04</totfact>
</mgrwt>
</event>
<event>
 4    1  0.4319182E+000  0.1827306E+03  0.7546771E-02  0.1165186E+00
         21   -1    0    0  503  502  0.00000000000E+00  0.00000000000E+00  0.10079402795E+03  0.10079402795E+03  0.00000000000E+00 0. -1.
         21   -1    0    0  501  503 -0.00000000000E+00 -0.00000000000E+00 -0.37169276932E+03  0.37169276932E+03  0.00000000000E+00 0.  1.
          6    1    1    2  501    0 -0.38891560917E+02  0.44146528122E+02 -0.21335299124E+03  0.28090918164E+03  0.17300000000E+03 0.  1.
         -6    1    1    2    0  502  0.38891560917E+02 -0.44146528122E+02 -0.57545750132E+02  0.19157761564E+03  0.17300000000E+03 0. -1.
<mgrwt>
<rscale>  2 0.18273059E+03</rscale>
<asrwt>0</asrwt>
<pdfrwt beam="1">  1       21 0.15506774E-01 0.18273059E+03</pdfrwt>
<pdfrwt beam="2">  1       21 0.57183503E-01 0.18273059E+03</pdfrwt>
<totfact> 0.10642688E+05</totfact>
</mgrwt>
</event>
<event>
 4    1  0.4319182E+000  0.2121335E+03  0.7546771E-02  0.1139888E+00
         21   -1    0    0  501  502  0.00000000000E+00  0.00000000000E+00  0.47968495756E+02  0.47968495756E+02  0.00000000000E+00 0.  1.
         21   -1    0    0  502  503 -0.00000000000E+00 -0.00000000000E+00 -0.14927348610E+04  0.14927348610E+04  0.00000000000E+00 0.  1.
          6    1    1    2  501    0  0.12105666145E+03  0.20418473198E+02 -0.25282438153E+03  0.33003150944E+03  0.17300000000E+03 0.  1.
         -6    1    1    2    0  503 -0.12105666145E+03 -0.20418473198E+02 -0.11919419837E+04  0.12106718473E+04  0.17300000000E+03 0.  1.
<mgrwt>
<rscale>  2 0.21213352E+03</rscale>
<asrwt>0</asrwt>
<pdfrwt beam="1">  1       21 0.73797707E-02 0.21213352E+03</pdfrwt>
<pdfrwt beam="2">  1       21 0.22965145E+00 0.21213352E+03</pdfrwt>
<totfact> 0.11930339E+04</totfact>
</mgrwt>
</event>
<event>
 4    1  0.4319182E+000  0.1771722E+03  0.7546771E-02  0.1170568E+00
         21   -1    0    0  503  502  0.00000000000E+00  0.00000000000E+00  0.13047912923E+03  0.13047912923E+03  0.00000000000E+00 0. -1.
         21   -1    0    0  501  503 -0.00000000000E+00 -0.00000000000E+00 -0.30904569854E+03  0.30904569854E+03  0.00000000000E+00 0. -1.
          6    1    1    2  501    0  0.22790272875E+02 -0.30685093830E+02 -0.19272495816E+03  0.26178785499E+03  0.17300000000E+03 0. -1.
         -6    1    1    2    0  502 -0.22790272875E+02  0.30685093830E+02  0.14158388853E+02  0.17773697279E+03  0.17300000000E+03 0. -1.
<mgrwt>
<rscale>  2 0.17717215E+03</rscale>
<asrwt>0</asrwt>
<pdfrwt beam="1">  1       21 0.20073713E-01 0.17717215E+03</pdfrwt>
<pdfrwt beam="2">  1       21 0.47545491E-01 0.17717215E+03</pdfrwt>
<totfact> 0.97560463E+04</totfact>
</mgrwt>
</event>
<event>
 4    1  0.4319182E+000  0.1833255E+03  0.7546771E-02  0.1164623E+00
         21   -1    0    0  501  502  0.00000000000E+00  0.00000000000E+00  0.28952244483E+03  0.28952244483E+03  0.00000000000E+00 0. -1.
         21   -1    0    0  502  503 -0.00000000000E+00 -0.00000000000E+00 -0.11935742053E+03  0.11935742053E+03  0.00000000000E+00 0. -1.
          6    1    1    2  501    0  0.13401454419E+02  0.59157875019E+02  0.51214051997E+02  0.19034477214E+03  0.17300000000E+03 0.  1.
         -6    1    1    2    0  503 -0.13401454419E+02 -0.59157875019E+02  0.11895097230E+03  0.21853509322E+03  0.17300000000E+03 0.  1.
<mgrwt>
<rscale>  2 0.18332554E+03</rscale>
<asrwt>0</asrwt>
<pdfrwt beam="1">  1       21 0.44541915E-01 0.18332554E+03</pdfrwt>
<pdfrwt beam="2">  1       21 0.18362680E-01 0.18332554E+03</pdfrwt>
<totfact> 0.13135566E+05</totfact>
</mgrwt>
</event>
<event>
 4    1  0.4319182E+000  0.1998865E+03  0.7546771E-02  0.1149835E+00
         21   -1    0    0  503  502  0.00000000000E+00  0.00000000000E+00  0.10926956666E+03  0.10926956666E+03  0.00000000000E+00 0. -1.
         21   -1    0    0  501  503 -0.00000000000E+00 -0.00000000000E+00 -0.45475171565E+03  0.45475171565E+03  0.00000000000E+00 0.  1.
          6    1    1    2  501    0  0.48046587164E+02 -0.87847239371E+02 -0.29757051038E+03  0.35847290086E+03  0.17300000000E+03 0.  1.
         -6    1    1    2    0  502 -0.48046587164E+02  0.87847239371E+02 -0.47911638617E+02  0.20554838145E+03  0.17300000000E+03 0. -1.
<mgrwt>
<rscale>  2 0.19988650E+03</rscale>
<asrwt>0</asrwt>
<pdfrwt beam="1">  1       21 0.16810703E-01 0.19988650E+03</pdfrwt>
<pdfrwt beam="2">  1       21 0.69961802E-01 0.19988650E+03</pdfrwt>
<totfact> 0.58875956E+04</totfact>
</mgrwt>
</event>
<event>
 4    1  0.4319182E+000  0.2043160E+03  0.7546771E-02  0.1146148E+00
         21   -1    0    0  503  502  0.00000000000E+00  0.00000000000E+00  0.85000898258E+02  0.85000898258E+02  0.00000000000E+00 0. -1.
         21   -1    0    0  501  503 -0.00000000000E+00 -0.00000000000E+00 -0.57155908975E+03  0.57155908975E+03  0.00000000000E+00 0. -1.
          6    1    1    2  501    0 -0.83987953895E+02  0.69007668563E+02 -0.36643824529E+03  0.41954978528E+03  0.17300000000E+03 0. -1.
         -6    1    1    2    0  502  0.83987953895E+02 -0.69007668563E+02 -0.12011994620E+03  0.23701020272E+03  0.17300000000E+03 0. -1.
<mgrwt>
<rscale>  2 0.20431602E+03</rscale>
<asrwt>0</asrwt>
<pdfrwt beam="1">  1       21 0.13077062E-01 0.20431602E+03</pdfrwt>
<pdfrwt beam="2">  1       21 0.87932166E-01 0.20431602E+03</pdfrwt>
<totfact> 0.55431039E+04</totfact>
</mgrwt>
</event>
<event>
 4    1  0.4319182E+000  0.3505935E+03  0.7546771E-02  0.1062372E+00
         21   -1    0    0  503  502  0.00000000000E+00  0.00000000000E+00  0.15419874797E+04  0.15419874797E+04  0.00000000000E+00 0.  1.
         21   -1    0    0  501  503 -0.00000000000E+00 -0.00000000000E+00 -0.11065020952E+03  0.11065020952E+03  0.00000000000E+00 0. -1.
          6    1    1    2  501    0 -0.60901839850E+02 -0.29879384778E+03  0.27873541375E+03  0.44789421568E+03  0.17300000000E+03 0. -1.
         -6    1    1    2    0  502  0.60901839850E+02  0.29879384778E+03  0.11526018565E+04  0.12047434736E+04  0.17300000000E+03 0.  1.
<mgrwt>
<rscale>  2 0.35059349E+03</rscale>
<asrwt>0</asrwt>
<pdfrwt beam="1">  1       21 0.23722883E+00 0.35059349E+03</pdfrwt>
<pdfrwt beam="2">  1       21 0.17023110E-01 0.35059349E+03</pdfrwt>
<totfact> 0.21679736E+03</totfact>
</mgrwt>
</event>
<event>
 4    1  0.4319182E+000  0.2667034E+03  0.7546771E-02  0.1103181E+00
         21   -1    0    0  503  502  0.00000000000E+00  0.00000000000E+00  0.13292788468E+04  0.13292788468E+04  0.00000000000E+00 0. -1.
         21   -1    0    0  501  503 -0.00000000000E+00 -0.00000000000E+00 -0.58184304086E+02  0.58184304086E+02  0.00000000000E+00 0.  1.
          6    1    1    2  501    0 -0.16072943722E+03  0.12396673477E+03  0.83216032209E+03  0.87385439575E+03  0.17300000000E+03 0.  1.
         -6    1    1    2    0  502  0.16072943722E+03 -0.12396673477E+03  0.43893422065E+03  0.51360875516E+03  0.17300000000E+03 0. -1.
<mgrwt>
<rscale>  2 0.26670340E+03</rscale>
<asrwt>0</asrwt>
<pdfrwt beam="1">  1       21 0.20450441E+00 0.26670340E+03</pdfrwt>
<pdfrwt beam="2">  1       21 0.89514324E-02 0.26670340E+03</pdfrwt>
<totfact> 0.11747925E+04</totfact>
</mgrwt>
</event>
<event>
 4    1  0.4319182E+000  0.1929319E+03  0.7546771E-02  0.1155843E+00
         21   -1    0    0  503  502  0.00000000000E+00  0.00000000000E+00  0.97277986111E+02  0.97277986111E+02  0.00000000000E+00 0. -1.
         21   -1    0    0  501  503 -0.00000000000E+00 -0.00000000000E+00 -0.38375944980E+03  0.38375944980E+03  0.00000000000E+00 0. -1.
          6    1    1    2  501    0 -0.83535994318E+02  0.17761316168E+02 -0.13026695538E+03  0.23279219566E+03  0.17300000000E+03 0. -1.
         -6    1    1    2    0  502  0.83535994318E+02 -0.17761316168E+02 -0.15621450831E+03  0.24824524025E+03  0.17300000000E+03 0. -1.
<mgrwt>
<rscale>  2 0.19293192E+03</rscale>
<asrwt>0</asrwt>
<pdfrwt beam="1">  1       21 0.14965844E-01 0.19293192E+03</pdfrwt>
<pdfrwt beam="2">  1       21 0.59039915E-01 0.19293192E+03</pdfrwt>
<totfact> 0.10565967E+05</totfact>
</mgrwt>
</event>
<event>
 4    1  0.4319182E+000  0.1909567E+03  0.7546771E-02  0.1157601E+00
         21   -1    0    0  501  502  0.00000000000E+00  0.00000000000E+00  0.73225240141E+02  0.73225240141E+02  0.00000000000E+00 0. -1.
         21   -1    0    0  502  503 -0.00000000000E+00 -0.00000000000E+00 -0.11120002060E+04  0.11120002060E+04  0.00000000000E+00 0.  1.
          6    1    1    2  501    0 -0.76716613602E+02 -0.25495780983E+02 -0.79024315645E+02  0.20666232389E+03  0.17300000000E+03 0. -1.
         -6    1    1    2    0  503  0.76716613602E+02  0.25495780983E+02 -0.95975065017E+03  0.97856312221E+03  0.17300000000E+03 0.  1.
<mgrwt>
<rscale>  2 0.19095673E+03</rscale>
<asrwt>0</asrwt>
<pdfrwt beam="1">  1       21 0.11265421E-01 0.19095673E+03</pdfrwt>
<pdfrwt beam="2">  1       21 0.17107696E+00 0.19095673E+03</pdfrwt>
<totfact> 0.13792280E+04</totfact>
</mgrwt>
</event>
<event>
 4    1  0.4319182E+000  0.1996068E+03  0.7546771E-02  0.1150071E+00
         21   -1    0    0  501  502  0.00000000000E+00  0.00000000000E+00  0.67619415681E+02  0.67619415681E+02  0.00000000000E+00 0. -1.
         21   -1    0    0  502  503 -0.00000000000E+00 -0.00000000000E+00 -0.14702053068E+04  0.14702053068E+04  0.00000000000E+00 0. -1.
          6    1    1    2  501    0  0.95667659003E+02 -0.27596470698E+02 -0.10608102447E+03  0.22604435389E+03  0.17300000000E+03 0. -1.
         -6    1    1    2    0  503 -0.95667659003E+02  0.27596470698E+02 -0.12965048666E+04  0.13117803685E+04  0.17300000000E+03 0. -1.
<mgrwt>
<rscale>  2 0.19960678E+03</rscale>
<asrwt>0</asrwt>
<pdfrwt beam="1">  1       21 0.10402989E-01 0.19960678E+03</pdfrwt>
<pdfrwt beam="2">  1       21 0.22618540E+00 0.19960678E+03</pdfrwt>
<totfact> 0.69332460E+03</totfact>
</mgrwt>
</event>
<event>
 4    1  0.4319182E+000  0.1918169E+03  0.7546771E-02  0.1156833E+00
         21   -1    0    0  501  502  0.00000000000E+00  0.00000000000E+00  0.42043907910E+03  0.42043907910E+03  0.00000000000E+00 0.  1.
         21   -1    0    0  502  503 -0.00000000000E+00 -0.00000000000E+00 -0.88519244039E+02  0.88519244039E+02  0.00000000000E+00 0. -1.
          6    1    1    2  501    0  0.62958415750E+02 -0.53860737647E+02  0.19309673497E+03  0.27217657913E+03  0.17300000000E+03 0. -1.
         -6    1    1    2    0  503 -0.62958415750E+02  0.53860737647E+02  0.13882310009E+03  0.23678174400E+03  0.17300000000E+03 0. -1.
<mgrwt>
<rscale>  2 0.19181695E+03</rscale>
<asrwt>0</asrwt>
<pdfrwt beam="1">  1       21 0.64682934E-01 0.19181695E+03</pdfrwt>
<pdfrwt beam="2">  1       21 0.13618345E-01 0.19181695E+03</pdfrwt>
<totfact> 0.10300521E+05</totfact>
</mgrwt>
</event>
<event>
 4    1  0.4319182E+000  0.2340475E+03  0.7546771E-02  0.1123823E+00
         21   -1    0    0  501  502  0.00000000000E+00  0.00000000000E+00  0.20903932331E+03  0.20903932331E+03  0.00000000000E+00 0. -1.
         21   -1    0    0  502  503 -0.00000000000E+00 -0.00000000000E+00 -0.51001166111E+03  0.51001166111E+03  0.00000000000E+00 0.  1.
          6    1    1    2  501    0  0.95932835361E+02  0.12508449019E+03  0.10020213213E+03  0.25459518037E+03  0.17300000000E+03 0. -1.
         -6    1    1    2    0  503 -0.95932835361E+02 -0.12508449019E+03 -0.40117446993E+03  0.46445580404E+03  0.17300000000E+03 0.  1.
<mgrwt>
<rscale>  2 0.23404751E+03</rscale>
<asrwt>0</asrwt>
<pdfrwt beam="1">  1       21 0.32159896E-01 0.23404751E+03</pdfrwt>
<pdfrwt beam="2">  1       21 0.78463333E-01 0.23404751E+03</pdfrwt>
<totfact> 0.13024828E+04</totfact>
</mgrwt>
</event>
<event>
 4    1  0.4319182E+000  0.1971070E+03  0.7546771E-02  0.1152203E+00
         21   -1    0    0  501  502  0.00000000000E+00  0.00000000000E+00  0.19495731618E+03  0.19495731618E+03  0.00000000000E+00 0.  1.
         21   -1    0    0  502  503 -0.00000000000E+00 -0.00000000000E+00 -0.23660036810E+03  0.23660036810E+03  0.00000000000E+00 0.  1.
          6    1    1    2  501    0  0.94361463621E+02 -0.42541786695E+01  0.64876620175E+02  0.20750942075E+03  0.17300000000E+03 0.  1.
         -6    1    1    2    0  503 -0.94361463621E+02  0.42541786695E+01 -0.10651967209E+03  0.22404826354E+03  0.17300000000E+03 0.  1.
<mgrwt>
<rscale>  2 0.19710704E+03</rscale>
<asrwt>0</asrwt>
<pdfrwt beam="1">  1       21 0.29993433E-01 0.19710704E+03</pdfrwt>
<pdfrwt beam="2">  1       21 0.36400056E-01 0.19710704E+03</pdfrwt>
<totfact> 0.77447394E+04</totfact>
</mgrwt>
</event>
<event>
 4    1  0.4319182E+000  0.2184328E+03  0.7546771E-02  0.1135057E+00
         21   -1    0    0  503  502  0.00000000000E+00  0.00000000000E+00  0.41444364731E+03  0.41444364731E+03  0.00000000000E+00 0.  1.
         21   -1    0    0  501  503 -0.00000000000E+00 -0.00000000000E+00 -0.11720912724E+03  0.11720912724E+03  0.00000000000E+00 0.  1.
          6    1    1    2  501    0  0.96126042890E+01  0.13300927685E+03  0.11317118301E+03  0.24600932209E+03  0.17300000000E+03 0.  1.
         -6    1    1    2    0  502 -0.96126042890E+01 -0.13300927685E+03  0.18406333706E+03  0.28564345247E+03  0.17300000000E+03 0.  1.
<mgrwt>
<rscale>  2 0.21843276E+03</rscale>
<asrwt>0</asrwt>
<pdfrwt beam="1">  1       21 0.63760561E-01 0.21843276E+03</pdfrwt>
<pdfrwt beam="2">  1       21 0.18032174E-01 0.21843276E+03</pdfrwt>
<totfact> 0.62855443E+04</totfact>
</mgrwt>
</event>
<event>
 4    1  0.4319182E+000  0.1970775E+03  0.7546771E-02  0.1152228E+00
         21   -1    0    0  501  502  0.00000000000E+00  0.00000000000E+00  0.24941280830E+03  0.24941280830E+03  0.00000000000E+00 0. -1.
         21   -1    0    0  502  503 -0.00000000000E+00 -0.00000000000E+00 -0.39287836843E+03  0.39287836843E+03  0.00000000000E+00 0.  1.
          6    1    1    2  501    0 -0.70267291225E+02 -0.63032218904E+02  0.17777752831E+03  0.26541364397E+03  0.17300000000E+03 0. -1.
         -6    1    1    2    0  503  0.70267291225E+02  0.63032218904E+02 -0.32124308844E+03  0.37687753277E+03  0.17300000000E+03 0.  1.
<mgrwt>
<rscale>  2 0.19707753E+03</rscale>
<asrwt>0</asrwt>
<pdfrwt beam="1">  1       21 0.38371201E-01 0.19707753E+03</pdfrwt>
<pdfrwt beam="2">  1       21 0.60442826E-01 0.19707753E+03</pdfrwt>
<totfact> 0.16659247E+04</totfact>
</mgrwt>
</event>
<event>
 4    1  0.4319182E+000  0.4942584E+03  0.7546771E-02  0.1015289E+00
         21   -1    0    0  501  502  0.00000000000E+00  0.00000000000E+00  0.16725529202E+04  0.16725529202E+04  0.00000000000E+00 0. -1.
         21   -1    0    0  502  503 -0.00000000000E+00 -0.00000000000E+00 -0.32641637434E+03  0.32641637434E+03  0.00000000000E+00 0.  1.
          6    1    1    2  501    0  0.46027559307E+03  0.50087583618E+02  0.14160140615E+04  0.14997957227E+04  0.17300000000E+03 0. -1.
         -6    1    1    2    0  503 -0.46027559307E+03 -0.50087583618E+02 -0.69877515623E+02  0.49917357181E+03  0.17300000000E+03 0.  1.
<mgrwt>
<rscale>  2 0.49425842E+03</rscale>
<asrwt>0</asrwt>
<pdfrwt beam="1">  1       21 0.25731583E+00 0.49425842E+03</pdfrwt>
<pdfrwt beam="2">  1       21 0.50217905E-01 0.49425842E+03</pdfrwt>
<totfact> 0.17591495E+02</totfact>
</mgrwt>
</event>
<event>
 4    1  0.4319182E+000  0.2365928E+03  0.7546771E-02  0.1122084E+00
         21   -1    0    0  501  502  0.00000000000E+00  0.00000000000E+00  0.11771427813E+03  0.11771427813E+03  0.00000000000E+00 0. -1.
         21   -1    0    0  502  503 -0.00000000000E+00 -0.00000000000E+00 -0.57004015379E+03  0.57004015379E+03  0.00000000000E+00 0.  1.
          6    1    1    2  501    0  0.12140764140E+03 -0.10633600000E+03 -0.36618609786E+03  0.43596836875E+03  0.17300000000E+03 0.  1.
         -6    1    1    2    0  503 -0.12140764140E+03  0.10633600000E+03 -0.86139777807E+02  0.25178606317E+03  0.17300000000E+03 0. -1.
<mgrwt>
<rscale>  2 0.23659282E+03</rscale>
<asrwt>0</asrwt>
<pdfrwt beam="1">  1       21 0.18109889E-01 0.23659282E+03</pdfrwt>
<pdfrwt beam="2">  1       21 0.87698485E-01 0.23659282E+03</pdfrwt>
<totfact> 0.30252972E+04</totfact>
</mgrwt>
</event>
<event>
 4    1  0.4319182E+000  0.1793033E+03  0.7546771E-02  0.1168479E+00
         21   -1    0    0  501  502  0.00000000000E+00  0.00000000000E+00  0.56899125947E+03  0.56899125947E+03  0.00000000000E+00 0.  1.
         21   -1    0    0  502  503 -0.00000000000E+00 -0.00000000000E+00 -0.15889222196E+03  0.15889222196E+03  0.00000000000E+00 0.  1.
          6    1    1    2  501    0 -0.45602762842E+02  0.11877593342E+02  0.49720077590E+03  0.52854356562E+03  0.17300000000E+03 0.  1.
         -6    1    1    2    0  503  0.45602762842E+02 -0.11877593342E+02 -0.87101738399E+02  0.19933991581E+03  0.17300000000E+03 0.  1.
<mgrwt>
<rscale>  2 0.17930334E+03</rscale>
<asrwt>0</asrwt>
<pdfrwt beam="1">  1       21 0.87537116E-01 0.17930334E+03</pdfrwt>
<pdfrwt beam="2">  1       21 0.24444958E-01 0.17930334E+03</pdfrwt>
<totfact> 0.17856021E+04</totfact>
</mgrwt>
</event>
<event>
 4    1  0.4319182E+000  0.3312006E+03  0.7546771E-02  0.1070607E+00
         21   -1    0    0  501  502  0.00000000000E+00  0.00000000000E+00  0.16114556405E+04  0.16114556405E+04  0.00000000000E+00 0.  1.
         21   -1    0    0  502  503 -0.00000000000E+00 -0.00000000000E+00 -0.30674854351E+03  0.30674854351E+03  0.00000000000E+00 0. -1.
          6    1    1    2  501    0 -0.28235961482E+03 -0.61560949166E+01  0.14983705833E+04  0.15345384500E+04  0.17300000000E+03 0.  1.
         -6    1    1    2    0  503  0.28235961482E+03  0.61560949166E+01 -0.19366348627E+03  0.38366573407E+03  0.17300000000E+03 0. -1.
<mgrwt>
<rscale>  2 0.33120062E+03</rscale>
<asrwt>0</asrwt>
<pdfrwt beam="1">  1       21 0.24791625E+00 0.33120062E+03</pdfrwt>
<pdfrwt beam="2">  1       21 0.47192084E-01 0.33120062E+03</pdfrwt>
<totfact> 0.25418455E+02</totfact>
</mgrwt>
</event>
<event>
 4    1  0.4319182E+000  0.2344609E+03  0.7546771E-02  0.1123539E+00
         21   -1    0    0  501  502  0.00000000000E+00  0.00000000000E+00  0.25469859207E+03  0.25469859207E+03  0.00000000000E+00 0.  1.
         21   -1    0    0  502  503 -0.00000000000E+00 -0.00000000000E+00 -0.22129348638E+03  0.22129348638E+03  0.00000000000E+00 0.  1.
          6    1    1    2  501    0  0.13502909297E+03  0.82522946984E+02  0.54094166973E+02  0.24062018126E+03  0.17300000000E+03 0.  1.
         -6    1    1    2    0  503 -0.13502909297E+03 -0.82522946984E+02 -0.20689061281E+02  0.23537189719E+03  0.17300000000E+03 0.  1.
<mgrwt>
<rscale>  2 0.23446086E+03</rscale>
<asrwt>0</asrwt>
<pdfrwt beam="1">  1       21 0.39184399E-01 0.23446086E+03</pdfrwt>
<pdfrwt beam="2">  1       21 0.34045152E-01 0.23446086E+03</pdfrwt>
<totfact> 0.51211155E+04</totfact>
</mgrwt>
</event>
<event>
 4    1  0.4319182E+000  0.3164338E+03  0.7546771E-02  0.1077302E+00
         21   -1    0    0  501  502  0.00000000000E+00  0.00000000000E+00  0.13086427522E+03  0.13086427522E+03  0.00000000000E+00 0. -1.
         21   -1    0    0  502  503 -0.00000000000E+00 -0.00000000000E+00 -0.78855345398E+03  0.78855345398E+03  0.00000000000E+00 0.  1.
          6    1    1    2  501    0  0.14102784365E+03 -0.22430441286E+03 -0.24964167418E+03  0.40305246284E+03  0.17300000000E+03 0. -1.
         -6    1    1    2    0  503 -0.14102784365E+03  0.22430441286E+03 -0.40804750458E+03  0.51636526636E+03  0.17300000000E+03 0.  1.
<mgrwt>
<rscale>  2 0.31643376E+03</rscale>
<asrwt>0</asrwt>
<pdfrwt beam="1">  1       21 0.20132965E-01 0.31643376E+03</pdfrwt>
<pdfrwt beam="2">  1       21 0.12131592E+00 0.31643376E+03</pdfrwt>
<totfact> 0.10927894E+04</totfact>
</mgrwt>
</event>
<event>
 4    1  0.4319182E+000  0.1751967E+03  0.7546771E-02  0.1172534E+00
         21   -1    0    0  503  502  0.00000000000E+00  0.00000000000E+00  0.41767824460E+02  0.41767824460E+02  0.00000000000E+00 0.  1.
         21   -1    0    0  501  503 -0.00000000000E+00 -0.00000000000E+00 -0.73491173864E+03  0.73491173864E+03  0.00000000000E+00 0.  1.
          6    1    1    2  501    0  0.26451111300E+02  0.80765477686E+01 -0.34362090871E+03  0.38570613271E+03  0.17300000000E+03 0.  1.
         -6    1    1    2    0  502 -0.26451111300E+02 -0.80765477686E+01 -0.34952300548E+03  0.39097343039E+03  0.17300000000E+03 0.  1.
<mgrwt>
<rscale>  2 0.17519672E+03</rscale>
<asrwt>0</asrwt>
<pdfrwt beam="1">  1       21 0.64258194E-02 0.17519672E+03</pdfrwt>
<pdfrwt beam="2">  1       21 0.11306334E+00 0.17519672E+03</pdfrwt>
<totfact> 0.10789715E+05</totfact>
</mgrwt>
</event>
<event>
 4    1  0.4319182E+000  0.1861116E+03  0.7546771E-02  0.1162016E+00
         21   -1    0    0  501  502  0.00000000000E+00  0.00000000000E+00  0.22262882180E+03  0.22262882180E+03  0.00000000000E+00 0.  1.
         21   -1    0    0  502  503 -0.00000000000E+00 -0.00000000000E+00 -0.21523114273E+03  0.21523114273E+03  0.00000000000E+00 0.  1.
          6    1    1    2  501    0 -0.10769015592E+02  0.67768304482E+02  0.11895044455E+03  0.22087716733E+03  0.17300000000E+03 0. -1.
         -6    1    1    2    0  503  0.10769015592E+02 -0.67768304482E+02 -0.11155276548E+03  0.21698279719E+03  0.17300000000E+03 0. -1.
<mgrwt>
<rscale>  2 0.18611157E+03</rscale>
<asrwt>0</asrwt>
<pdfrwt beam="1">  1       21 0.34250588E-01 0.18611157E+03</pdfrwt>
<pdfrwt beam="2">  1       21 0.33112483E-01 0.18611157E+03</pdfrwt>
<totfact> 0.72331565E+04</totfact>
</mgrwt>
</event>
<event>
 4    1  0.4319182E+000  0.2283792E+03  0.7546771E-02  0.1127786E+00
         21   -1    0    0  501  502  0.00000000000E+00  0.00000000000E+00  0.58264493636E+02  0.58264493636E+02  0.00000000000E+00 0.  1.
         21   -1    0    0  502  503 -0.00000000000E+00 -0.00000000000E+00 -0.97589842089E+03  0.97589842089E+03  0.00000000000E+00 0.  1.
          6    1    1    2  501    0  0.13795118582E+03  0.56546683746E+02 -0.31010359305E+03  0.38512503883E+03  0.17300000000E+03 0.  1.
         -6    1    1    2    0  503 -0.13795118582E+03 -0.56546683746E+02 -0.60753033420E+03  0.64903787570E+03  0.17300000000E+03 0.  1.
<mgrwt>
<rscale>  2 0.22837920E+03</rscale>
<asrwt>0</asrwt>
<pdfrwt beam="1">  1       21 0.89637697E-02 0.22837920E+03</pdfrwt>
<pdfrwt beam="2">  1       21 0.15013819E+00 0.22837920E+03</pdfrwt>
<totfact> 0.28708277E+04</totfact>
</mgrwt>
</event>
<event>
 4    1  0.4319182E+000  0.1748680E+03  0.7546771E-02  0.1172864E+00
         21   -1    0    0  501  502  0.00000000000E+00  0.00000000000E+00  0.20116865784E+04  0.20116865784E+04  0.00000000000E+00 0. -1.
         21   -1    0    0  502  503 -0.00000000000E+00 -0.00000000000E+00 -0.15510864858E+02  0.15510864858E+02  0.00000000000E+00 0. -1.
          6    1    1    2  501    0 -0.14779442776E+02  0.20769722190E+02  0.11414467631E+04  0.11547638400E+04  0.17300000000E+03 0. -1.
         -6    1    1    2    0  503  0.14779442776E+02 -0.20769722190E+02  0.85472895045E+03  0.87243360322E+03  0.17300000000E+03 0. -1.
<mgrwt>
<rscale>  2 0.17486799E+03</rscale>
<asrwt>0</asrwt>
<pdfrwt beam="1">  1       21 0.30949004E+00 0.17486799E+03</pdfrwt>
<pdfrwt beam="2">  1       21 0.23862885E-02 0.17486799E+03</pdfrwt>
<totfact> 0.28273734E+04</totfact>
</mgrwt>
</event>
<event>
 4    1  0.4319182E+000  0.1965420E+03  0.7546771E-02  0.1152690E+00
         21   -1    0    0  501  502  0.00000000000E+00  0.00000000000E+00  0.49602227308E+03  0.49602227308E+03  0.00000000000E+00 0.  1.
         21   -1    0    0  502  503 -0.00000000000E+00 -0.00000000000E+00 -0.37246164768E+03  0.37246164768E+03  0.00000000000E+00 0.  1.
          6    1    1    2  501    0  0.22379309366E+02 -0.90548007047E+02  0.44796583575E+03  0.48918520528E+03  0.17300000000E+03 0.  1.
         -6    1    1    2    0  503 -0.22379309366E+02  0.90548007047E+02 -0.32440521034E+03  0.37929871548E+03  0.17300000000E+03 0.  1.
<mgrwt>
<rscale>  2 0.19654204E+03</rscale>
<asrwt>0</asrwt>
<pdfrwt beam="1">  1       21 0.76311119E-01 0.19654204E+03</pdfrwt>
<pdfrwt beam="2">  1       21 0.57301792E-01 0.19654204E+03</pdfrwt>
<totfact> 0.43596061E+03</totfact>
</mgrwt>
</event>
<event>
 4    1  0.4319182E+000  0.2045109E+03  0.7546771E-02  0.1145988E+00
         21   -1    0    0  503  502  0.00000000000E+00  0.00000000000E+00  0.55254266599E+03  0.55254266599E+03  0.00000000000E+00 0.  1.
         21   -1    0    0  501  503 -0.00000000000E+00 -0.00000000000E+00 -0.79124516547E+02  0.79124516547E+02  0.00000000000E+00 0. -1.
          6    1    1    2  501    0  0.11773321719E+00 -0.10906735885E+03  0.17095526905E+03  0.26655282149E+03  0.17300000000E+03 0.  1.
         -6    1    1    2    0  502 -0.11773321719E+00  0.10906735885E+03  0.30246288040E+03  0.36511436105E+03  0.17300000000E+03 0.  1.
<mgrwt>
<rscale>  2 0.20451089E+03</rscale>
<asrwt>0</asrwt>
<pdfrwt beam="1">  1       21 0.85006561E-01 0.20451089E+03</pdfrwt>
<pdfrwt beam="2">  1       21 0.12173003E-01 0.20451089E+03</pdfrwt>
<totfact> 0.68147735E+04</totfact>
</mgrwt>
</event>
<event>
 4    1  0.4319182E+000  0.1911994E+03  0.7546771E-02  0.1157384E+00
         21   -1    0    0  503  502  0.00000000000E+00  0.00000000000E+00  0.23930355163E+03  0.23930355163E+03  0.00000000000E+00 0.  1.
         21   -1    0    0  501  503 -0.00000000000E+00 -0.00000000000E+00 -0.27732174690E+03  0.27732174690E+03  0.00000000000E+00 0.  1.
          6    1    1    2  501    0  0.10934550877E+01  0.81406572271E+02 -0.19212509536E+03  0.27105216826E+03  0.17300000000E+03 0.  1.
         -6    1    1    2    0  502 -0.10934550877E+01 -0.81406572271E+02  0.15410690009E+03  0.24557313026E+03  0.17300000000E+03 0.  1.
<mgrwt>
<rscale>  2 0.19119944E+03</rscale>
<asrwt>0</asrwt>
<pdfrwt beam="1">  1       21 0.36815931E-01 0.19119944E+03</pdfrwt>
<pdfrwt beam="2">  1       21 0.42664884E-01 0.19119944E+03</pdfrwt>
<totfact> 0.37630568E+04</totfact>
</mgrwt>
</event>
<event>
 4    1  0.4319182E+000  0.1810274E+03  0.7546771E-02  0.1166812E+00
         21   -1    0    0  503  502  0.00000000000E+00  0.00000000000E+00  0.54127926598E+03  0.54127926598E+03  0.00000000000E+00 0.  1.
         21   -1    0    0  501  503 -0.00000000000E+00 -0.00000000000E+00 -0.61636565377E+02  0.61636565377E+02  0.00000000000E+00 0.  1.
          6    1    1    2  501    0 -0.16936580115E+00 -0.53309533007E+02  0.19967622310E+03  0.26952092510E+03  0.17300000000E+03 0. -1.
         -6    1    1    2    0  502  0.16936580115E+00  0.53309533007E+02  0.27996647750E+03  0.33339490626E+03  0.17300000000E+03 0. -1.
<mgrwt>
<rscale>  2 0.18102744E+03</rscale>
<asrwt>0</asrwt>
<pdfrwt beam="1">  1       21 0.83273730E-01 0.18102744E+03</pdfrwt>
<pdfrwt beam="2">  1       21 0.94825489E-02 0.18102744E+03</pdfrwt>
<totfact> 0.11240118E+05</totfact>
</mgrwt>
</event>
<event>
 4    1  0.4319182E+000  0.1771320E+03  0.7546771E-02  0.1170608E+00
         21   -1    0    0  503  502  0.00000000000E+00  0.00000000000E+00  0.88598158477E+02  0.88598158477E+02  0.00000000000E+00 0. -1.
         21   -1    0    0  501  503 -0.00000000000E+00 -0.00000000000E+00 -0.58887060223E+03  0.58887060223E+03  0.00000000000E+00 0. -1.
          6    1    1    2  501    0 -0.36460719370E+02  0.10834154878E+02 -0.46400050394E+03  0.49666108225E+03  0.17300000000E+03 0. -1.
         -6    1    1    2    0  502  0.36460719370E+02 -0.10834154878E+02 -0.36271939809E+02  0.18080767845E+03  0.17300000000E+03 0. -1.
<mgrwt>
<rscale>  2 0.17713205E+03</rscale>
<asrwt>0</asrwt>
<pdfrwt beam="1">  1       21 0.13630486E-01 0.17713205E+03</pdfrwt>
<pdfrwt beam="2">  1       21 0.90595477E-01 0.17713205E+03</pdfrwt>
<totfact> 0.48660795E+04</totfact>
</mgrwt>
</event>
<event>
 4    1  0.4319182E+000  0.2605140E+03  0.7546771E-02  0.1106835E+00
         21   -1    0    0  501  502  0.00000000000E+00  0.00000000000E+00  0.32236958055E+03  0.32236958055E+03  0.00000000000E+00 0.  1.
         21   -1    0    0  502  503 -0.00000000000E+00 -0.00000000000E+00 -0.25705805930E+03  0.25705805930E+03  0.00000000000E+00 0.  1.
          6    1    1    2  501    0 -0.18954335153E+03  0.44853843704E+02  0.15591638540E+03  0.30360742520E+03  0.17300000000E+03 0.  1.
         -6    1    1    2    0  503  0.18954335153E+03 -0.44853843704E+02 -0.90604864148E+02  0.27582021465E+03  0.17300000000E+03 0.  1.
<mgrwt>
<rscale>  2 0.26051401E+03</rscale>
<asrwt>0</asrwt>
<pdfrwt beam="1">  1       21 0.49595320E-01 0.26051401E+03</pdfrwt>
<pdfrwt beam="2">  1       21 0.39547394E-01 0.26051401E+03</pdfrwt>
<totfact> 0.23062636E+04</totfact>
</mgrwt>
</event>
<event>
 4    1  0.4319182E+000  0.1837897E+03  0.7546771E-02  0.1164185E+00
         21   -1    0    0  501  502  0.00000000000E+00  0.00000000000E+00  0.43696533547E+03  0.43696533547E+03  0.00000000000E+00 0. -1.
         21   -1    0    0  502  503 -0.00000000000E+00 -0.00000000000E+00 -0.20747103117E+03  0.20747103117E+03  0.00000000000E+00 0. -1.
          6    1    1    2  501    0  0.59783601142E+02  0.16600074461E+02  0.36997251106E+03  0.41310809769E+03  0.17300000000E+03 0. -1.
         -6    1    1    2    0  503 -0.59783601142E+02 -0.16600074461E+02 -0.14047820677E+03  0.23132826895E+03  0.17300000000E+03 0. -1.
<mgrwt>
<rscale>  2 0.18378967E+03</rscale>
<asrwt>0</asrwt>
<pdfrwt beam="1">  1       21 0.67225436E-01 0.18378967E+03</pdfrwt>
<pdfrwt beam="2">  1       21 0.31918620E-01 0.18378967E+03</pdfrwt>
<totfact> 0.19217661E+04</totfact>
</mgrwt>
</event>
<event>
 4    1  0.4319182E+000  0.2072558E+03  0.7546771E-02  0.1143758E+00
         21   -1    0    0  503  502  0.00000000000E+00  0.00000000000E+00  0.55849868009E+03  0.55849868009E+03  0.00000000000E+00 0. -1.
         21   -1    0    0  501  503 -0.00000000000E+00 -0.00000000000E+00 -0.11733913967E+03  0.11733913967E+03  0.00000000000E+00 0. -1.
          6    1    1    2  501    0  0.16718627270E+02  0.11290014630E+03  0.22230599171E+02  0.20844460912E+03  0.17300000000E+03 0. -1.
         -6    1    1    2    0  502 -0.16718627270E+02 -0.11290014630E+03  0.41892894124E+03  0.46739321063E+03  0.17300000000E+03 0. -1.
<mgrwt>
<rscale>  2 0.20725577E+03</rscale>
<asrwt>0</asrwt>
<pdfrwt beam="1">  1       21 0.85922872E-01 0.20725577E+03</pdfrwt>
<pdfrwt beam="2">  1       21 0.18052176E-01 0.20725577E+03</pdfrwt>
<totfact> 0.32383046E+04</totfact>
</mgrwt>
</event>
<event>
 4    1  0.4319182E+000  0.3042700E+03  0.7546771E-02  0.1083125E+00
         21   -1    0    0  503  502  0.00000000000E+00  0.00000000000E+00  0.14446637121E+04  0.14446637121E+04  0.00000000000E+00 0. -1.
         21   -1    0    0  501  503 -0.00000000000E+00 -0.00000000000E+00 -0.72188791506E+02  0.72188791506E+02  0.00000000000E+00 0.  1.
          6    1    1    2  501    0 -0.24949237764E+03  0.20119066638E+02  0.94035935658E+03  0.98836022930E+03  0.17300000000E+03 0. -1.
         -6    1    1    2    0  502  0.24949237764E+03 -0.20119066638E+02  0.43211556399E+03  0.52849227429E+03  0.17300000000E+03 0.  1.
<mgrwt>
<rscale>  2 0.30426998E+03</rscale>
<asrwt>0</asrwt>
<pdfrwt beam="1">  1       21 0.22225593E+00 0.30426998E+03</pdfrwt>
<pdfrwt beam="2">  1       21 0.11105969E-01 0.30426998E+03</pdfrwt>
<totfact> 0.60325845E+03</totfact>
</mgrwt>
</event>
<event>
 4    1  0.4319182E+000  0.2331154E+03  0.7546771E-02  0.1124466E+00
         21   -1    0    0  501  502  0.00000000000E+00  0.00000000000E+00  0.14621248831E+04  0.14621248831E+04  0.00000000000E+00 0.  1.
         21   -1    0    0  502  503 -0.00000000000E+00 -0.00000000000E+00 -0.50283027943E+02  0.50283027943E+02  0.00000000000E+00 0.  1.
          6    1    1    2  501    0 -0.12283586904E+03  0.96566739740E+02  0.10921362581E+04  0.11167382828E+04  0.17300000000E+03 0.  1.
         -6    1    1    2    0  503  0.12283586904E+03 -0.96566739740E+02  0.31970559706E+03  0.39566962827E+03  0.17300000000E+03 0.  1.
<mgrwt>
<rscale>  2 0.23311539E+03</rscale>
<asrwt>0</asrwt>
<pdfrwt beam="1">  1       21 0.22494226E+00 0.23311539E+03</pdfrwt>
<pdfrwt beam="2">  1       21 0.77358516E-02 0.23311539E+03</pdfrwt>
<totfact> 0.11548105E+04</totfact>
</mgrwt>
</event>
<event>
 4    1  0.4319182E+000  0.1963695E+03  0.7546771E-02  0.1152839E+00
         21   -1    0    0  503  502  0.00000000000E+00  0.00000000000E+00  0.11060662840E+03  0.11060662840E+03  0.00000000000E+00 0.  1.
         21   -1    0    0  501  503 -0.00000000000E+00 -0.00000000000E+00 -0.43564741180E+03  0.43564741180E+03  0.00000000000E+00 0. -1.
          6    1    1    2  501    0  0.79332689847E+02 -0.48356027376E+02 -0.28458670887E+03  0.34576086523E+03  0.17300000000E+03 0. -1.
         -6    1    1    2    0  502 -0.79332689847E+02  0.48356027376E+02 -0.40454074541E+02  0.20049317497E+03  0.17300000000E+03 0.  1.
<mgrwt>
<rscale>  2 0.19636950E+03</rscale>
<asrwt>0</asrwt>
<pdfrwt beam="1">  1       21 0.17016404E-01 0.19636950E+03</pdfrwt>
<pdfrwt beam="2">  1       21 0.67022679E-01 0.19636950E+03</pdfrwt>
<totfact> 0.63374724E+04</totfact>
</mgrwt>
</event>
<event>
 4    1  0.4319182E+000  0.3465414E+03  0.7546771E-02  0.1064044E+00
         21   -1    0    0  501  502  0.00000000000E+00  0.00000000000E+00  0.18574363943E+04  0.18574363943E+04  0.00000000000E+00 0. -1.
         21   -1    0    0  502  503 -0.00000000000E+00 -0.00000000000E+00 -0.10043612360E+03  0.10043612360E+03  0.00000000000E+00 0.  1.
          6    1    1    2  501    0  0.12497435863E+03  0.27302622947E+03  0.14628080669E+04  0.15032958301E+04  0.17300000000E+03 0. -1.
         -6    1    1    2    0  503 -0.12497435863E+03 -0.27302622947E+03  0.29419220380E+03  0.45457668778E+03  0.17300000000E+03 0.  1.
<mgrwt>
<rscale>  2 0.34654136E+03</rscale>
<asrwt>0</asrwt>
<pdfrwt beam="1">  1       21 0.28575942E+00 0.34654136E+03</pdfrwt>
<pdfrwt beam="2">  1       21 0.15451713E-01 0.34654136E+03</pdfrwt>
<totfact> 0.13273156E+03</totfact>
</mgrwt>
</event>
<event>
 4    1  0.4319182E+000  0.2011723E+03  0.7546771E-02  0.1148754E+00
         21   -1    0    0  503  502  0.00000000000E+00  0.00000000000E+00  0.58468263207E+03  0.58468263207E+03  0.00000000000E+00 0.  1.
         21   -1    0    0  501  503 -0.00000000000E+00 -0.00000000000E+00 -0.93677690995E+02  0.93677690995E+02  0.00000000000E+00 0.  1.
          6    1    1    2  501    0 -0.36344408366E+02  0.96022792268E+02  0.72185163220E+02  0.21373111716E+03  0.17300000000E+03 0.  1.
         -6    1    1    2    0  502  0.36344408366E+02 -0.96022792268E+02  0.41881977785E+03  0.46462920590E+03  0.17300000000E+03 0.  1.
<mgrwt>
<rscale>  2 0.20117230E+03</rscale>
<asrwt>0</asrwt>
<pdfrwt beam="1">  1       21 0.89951172E-01 0.20117230E+03</pdfrwt>
<pdfrwt beam="2">  1       21 0.14411953E-01 0.20117230E+03</pdfrwt>
<totfact> 0.44179722E+04</totfact>
</mgrwt>
</event>
<event>
 4    1  0.4319182E+000  0.1951617E+03  0.7546771E-02  0.1153887E+00
         21   -1    0    0  503  502  0.00000000000E+00  0.00000000000E+00  0.12491336218E+03  0.12491336218E+03  0.00000000000E+00 0.  1.
         21   -1    0    0  501  503 -0.00000000000E+00 -0.00000000000E+00 -0.34299030685E+03  0.34299030685E+03  0.00000000000E+00 0.  1.
          6    1    1    2  501    0 -0.61715485822E+02  0.65956674379E+02 -0.18698584357E+03  0.27028094602E+03  0.17300000000E+03 0.  1.
         -6    1    1    2    0  502  0.61715485822E+02 -0.65956674379E+02 -0.31091101098E+02  0.19762272302E+03  0.17300000000E+03 0.  1.
<mgrwt>
<rscale>  2 0.19516169E+03</rscale>
<asrwt>0</asrwt>
<pdfrwt beam="1">  1       21 0.19217440E-01 0.19516169E+03</pdfrwt>
<pdfrwt beam="2">  1       21 0.52767739E-01 0.19516169E+03</pdfrwt>
<totfact> 0.84558122E+04</totfact>
</mgrwt>
</event>
<event>
 4    1  0.4319182E+000  0.1747691E+03  0.7546771E-02  0.1172964E+00
         21   -1    0    0  501  502  0.00000000000E+00  0.00000000000E+00  0.23303675882E+03  0.23303675882E+03  0.00000000000E+00 0.  1.
         21   -1    0    0  502  503 -0.00000000000E+00 -0.00000000000E+00 -0.14648873081E+03  0.14648873081E+03  0.00000000000E+00 0.  1.
          6    1    1    2  501    0  0.33412751120E+01 -0.24577695029E+02  0.10483806107E+03  0.20380197806E+03  0.17300000000E+03 0. -1.
         -6    1    1    2    0  503 -0.33412751120E+01  0.24577695029E+02 -0.18290033058E+02  0.17572351158E+03  0.17300000000E+03 0. -1.
<mgrwt>
<rscale>  2 0.17476907E+03</rscale>
<asrwt>0</asrwt>
<pdfrwt beam="1">  1       21 0.35851809E-01 0.17476907E+03</pdfrwt>
<pdfrwt beam="2">  1       21 0.22536728E-01 0.17476907E+03</pdfrwt>
<totfact> 0.13920483E+05</totfact>
</mgrwt>
</event>
<event>
 4    1  0.4319182E+000  0.3402880E+03  0.7546771E-02  0.1066673E+00
         21   -1    0    0  501  502  0.00000000000E+00  0.00000000000E+00  0.18839400721E+03  0.18839400721E+03  0.00000000000E+00 0.  1.
         21   -1    0    0  502  503 -0.00000000000E+00 -0.00000000000E+00 -0.13297968278E+04  0.13297968278E+04  0.00000000000E+00 0.  1.
          6    1    1    2  501    0 -0.23931882905E+03 -0.16909599146E+03 -0.14026036994E+02  0.34057698979E+03  0.17300000000E+03 0.  1.
         -6    1    1    2    0  503  0.23931882905E+03  0.16909599146E+03 -0.11273767836E+04  0.11776138453E+04  0.17300000000E+03 0.  1.
<mgrwt>
<rscale>  2 0.34028805E+03</rscale>
<asrwt>0</asrwt>
<pdfrwt beam="1">  1       21 0.28983693E-01 0.34028805E+03</pdfrwt>
<pdfrwt beam="2">  1       21 0.20458413E+00 0.34028805E+03</pdfrwt>
<totfact> 0.12670340E+03</totfact>
</mgrwt>
</event>
<event>
 4    1  0.4319182E+000  0.1901869E+03  0.7546771E-02  0.1158293E+00
         21   -1    0    0  503  502  0.00000000000E+00  0.00000000000E+00  0.17633100230E+03  0.17633100230E+03  0.00000000000E+00 0. -1.
         21   -1    0    0  501  503 -0.00000000000E+00 -0.00000000000E+00 -0.31437327534E+03  0.31437327534E+03  0.00000000000E+00 0. -1.
          6    1    1    2  501    0  0.75722572493E+01  0.78642906870E+02 -0.21365213370E+03  0.28603894860E+03  0.17300000000E+03 0. -1.
         -6    1    1    2    0  502 -0.75722572493E+01 -0.78642906870E+02  0.75609860657E+02  0.20466532904E+03  0.17300000000E+03 0. -1.
<mgrwt>
<rscale>  2 0.19018687E+03</rscale>
<asrwt>0</asrwt>
<pdfrwt beam="1">  1       21 0.27127847E-01 0.19018687E+03</pdfrwt>
<pdfrwt beam="2">  1       21 0.48365119E-01 0.19018687E+03</pdfrwt>
<totfact> 0.52943342E+04</totfact>
</mgrwt>
</event>
<event>
 4    1  0.4319182E+000  0.4521386E+03  0.7546771E-02  0.1027086E+00
         21   -1    0    0  503  502  0.00000000000E+00  0.00000000000E+00  0.11565164940E+04  0.11565164940E+04  0.00000000000E+00 0.  1.
         21   -1    0    0  501  503 -0.00000000000E+00 -0.00000000000E+00 -0.17888057653E+03  0.17888057653E+03  0.00000000000E+00 0. -1.
          6    1    1    2  501    0  0.37906709837E+03 -0.17552344963E+03  0.41617115844E+03  0.61451426310E+03  0.17300000000E+03 0.  1.
         -6    1    1    2    0  502 -0.37906709837E+03  0.17552344963E+03  0.56146475907E+03  0.72088280748E+03  0.17300000000E+03 0.  1.
<mgrwt>
<rscale>  2 0.45213864E+03</rscale>
<asrwt>0</asrwt>
<pdfrwt beam="1">  1       21 0.17792561E+00 0.45213864E+03</pdfrwt>
<pdfrwt beam="2">  1       21 0.27520089E-01 0.45213864E+03</pdfrwt>
<totfact> 0.20130659E+03</totfact>
</mgrwt>
</event>
<event>
 4    1  0.4319182E+000  0.2013095E+03  0.7546771E-02  0.1148639E+00
         21   -1    0    0  503  502  0.00000000000E+00  0.00000000000E+00  0.52598109213E+03  0.52598109213E+03  0.00000000000E+00 0. -1.
         21   -1    0    0  501  503 -0.00000000000E+00 -0.00000000000E+00 -0.79606338792E+02  0.79606338792E+02  0.00000000000E+00 0.  1.
          6    1    1    2  501    0 -0.10180009000E+03 -0.15272367654E+02  0.16890004785E+03  0.26277886084E+03  0.17300000000E+03 0. -1.
         -6    1    1    2    0  502  0.10180009000E+03  0.15272367654E+02  0.27747470548E+03  0.34280857008E+03  0.17300000000E+03 0.  1.
<mgrwt>
<rscale>  2 0.20130947E+03</rscale>
<asrwt>0</asrwt>
<pdfrwt beam="1">  1       21 0.80920166E-01 0.20130947E+03</pdfrwt>
<pdfrwt beam="2">  1       21 0.12247129E-01 0.20130947E+03</pdfrwt>
<totfact> 0.75532074E+04</totfact>
</mgrwt>
</event>
<event>
 4    1  0.4319182E+000  0.2867221E+03  0.7546771E-02  0.1092073E+00
         21   -1    0    0  501  502  0.00000000000E+00  0.00000000000E+00  0.22574090479E+03  0.22574090479E+03  0.00000000000E+00 0. -1.
         21   -1    0    0  502  503 -0.00000000000E+00 -0.00000000000E+00 -0.48606754464E+03  0.48606754464E+03  0.00000000000E+00 0. -1.
          6    1    1    2  501    0  0.13360267838E+03 -0.18555567265E+03  0.48062380772E+02  0.29072250647E+03  0.17300000000E+03 0. -1.
         -6    1    1    2    0  503 -0.13360267838E+03  0.18555567265E+03 -0.30838902062E+03  0.42108594296E+03  0.17300000000E+03 0. -1.
<mgrwt>
<rscale>  2 0.28672214E+03</rscale>
<asrwt>0</asrwt>
<pdfrwt beam="1">  1       21 0.34729370E-01 0.28672214E+03</pdfrwt>
<pdfrwt beam="2">  1       21 0.74779622E-01 0.28672214E+03</pdfrwt>
<totfact> 0.12132476E+04</totfact>
</mgrwt>
</event>
<event>
 4    1  0.4319182E+000  0.2806228E+03  0.7546771E-02  0.1095349E+00
         21   -1    0    0  503  502  0.00000000000E+00  0.00000000000E+00  0.11434394479E+03  0.11434394479E+03  0.00000000000E+00 0. -1.
         21   -1    0    0  501  503 -0.00000000000E+00 -0.00000000000E+00 -0.69753088718E+03  0.69753088718E+03  0.00000000000E+00 0. -1.
          6    1    1    2  501    0 -0.15658683320E+03 -0.15588682951E+03 -0.24592889077E+03  0.37313557759E+03  0.17300000000E+03 0. -1.
         -6    1    1    2    0  502  0.15658683320E+03  0.15588682951E+03 -0.33725805163E+03  0.43873925438E+03  0.17300000000E+03 0. -1.
<mgrwt>
<rscale>  2 0.28062277E+03</rscale>
<asrwt>0</asrwt>
<pdfrwt beam="1">  1       21 0.17591376E-01 0.28062277E+03</pdfrwt>
<pdfrwt beam="2">  1       21 0.10731245E+00 0.28062277E+03</pdfrwt>
<totfact> 0.19369590E+04</totfact>
</mgrwt>
</event>
<event>
 4    1  0.4319182E+000  0.1993757E+03  0.7546771E-02  0.1150267E+00
         21   -1    0    0  501  502  0.00000000000E+00  0.00000000000E+00  0.88245548738E+02  0.88245548738E+02  0.00000000000E+00 0.  1.
         21   -1    0    0  502  503 -0.00000000000E+00 -0.00000000000E+00 -0.45049349548E+03  0.45049349548E+03  0.00000000000E+00 0. -1.
          6    1    1    2  501    0 -0.98934910941E+02  0.57918641930E+01 -0.18360902596E+03  0.27104047061E+03  0.17300000000E+03 0.  1.
         -6    1    1    2    0  503  0.98934910941E+02 -0.57918641930E+01 -0.17863892078E+03  0.26769857361E+03  0.17300000000E+03 0. -1.
<mgrwt>
<rscale>  2 0.19937568E+03</rscale>
<asrwt>0</asrwt>
<pdfrwt beam="1">  1       21 0.13576238E-01 0.19937568E+03</pdfrwt>
<pdfrwt beam="2">  1       21 0.69306691E-01 0.19937568E+03</pdfrwt>
<totfact> 0.88774364E+04</totfact>
</mgrwt>
</event>
<event>
 4    1  0.4319182E+000  0.1973789E+03  0.7546771E-02  0.1151970E+00
         21   -1    0    0  501  502  0.00000000000E+00  0.00000000000E+00  0.11706175510E+03  0.11706175510E+03  0.00000000000E+00 0.  1.
         21   -1    0    0  502  503 -0.00000000000E+00 -0.00000000000E+00 -0.90618384101E+03  0.90618384101E+03  0.00000000000E+00 0.  1.
          6    1    1    2  501    0 -0.94450214810E+02 -0.10419565816E+02  0.12410104600E+02  0.19776860501E+03  0.17300000000E+03 0.  1.
         -6    1    1    2    0  503  0.94450214810E+02  0.10419565816E+02 -0.80153219051E+03  0.82547699111E+03  0.17300000000E+03 0.  1.
<mgrwt>
<rscale>  2 0.19737885E+03</rscale>
<asrwt>0</asrwt>
<pdfrwt beam="1">  1       21 0.18009501E-01 0.19737885E+03</pdfrwt>
<pdfrwt beam="2">  1       21 0.13941290E+00 0.19737885E+03</pdfrwt>
<totfact> 0.10110537E+04</totfact>
</mgrwt>
</event>
<event>
 4    1  0.4319182E+000  0.1768168E+03  0.7546771E-02  0.1170920E+00
         21   -1    0    0  503  502  0.00000000000E+00  0.00000000000E+00  0.89026819575E+02  0.89026819575E+02  0.00000000000E+00 0. -1.
         21   -1    0    0  501  503 -0.00000000000E+00 -0.00000000000E+00 -0.36545575085E+03  0.36545575085E+03  0.00000000000E+00 0.  1.
          6    1    1    2  501    0  0.87007863559E+01 -0.35489203674E+02 -0.18313162036E+03  0.25456114715E+03  0.17300000000E+03 0.  1.
         -6    1    1    2    0  502 -0.87007863559E+01  0.35489203674E+02 -0.93297310909E+02  0.19992142327E+03  0.17300000000E+03 0. -1.
<mgrwt>
<rscale>  2 0.17681682E+03</rscale>
<asrwt>0</asrwt>
<pdfrwt beam="1">  1       21 0.13696434E-01 0.17681682E+03</pdfrwt>
<pdfrwt beam="2">  1       21 0.56223961E-01 0.17681682E+03</pdfrwt>
<totfact> 0.13847176E+05</totfact>
</mgrwt>
</event>
<event>
 4    1  0.4319182E+000  0.2233123E+03  0.7546771E-02  0.1131437E+00
         21   -1    0    0  501  502  0.00000000000E+00  0.00000000000E+00  0.33355963780E+02  0.33355963780E+02  0.00000000000E+00 0.  1.
         21   -1    0    0  502  503 -0.00000000000E+00 -0.00000000000E+00 -0.19123547512E+04  0.19123547512E+04  0.00000000000E+00 0.  1.
          6    1    1    2  501    0 -0.11228720386E+03  0.85620958057E+02 -0.13939618662E+04  0.14117358283E+04  0.17300000000E+03 0.  1.
         -6    1    1    2    0  503  0.11228720386E+03 -0.85620958057E+02 -0.48503692121E+03  0.53397488662E+03  0.17300000000E+03 0.  1.
<mgrwt>
<rscale>  2 0.22331226E+03</rscale>
<asrwt>0</asrwt>
<pdfrwt beam="1">  1       21 0.51316862E-02 0.22331226E+03</pdfrwt>
<pdfrwt beam="2">  1       21 0.29420846E+00 0.22331226E+03</pdfrwt>
<totfact> 0.91970621E+03</totfact>
</mgrwt>
</event>
<event>
 4    1  0.4319182E+000  0.2157430E+03  0.7546771E-02  0.1137097E+00
         21   -1    0    0  501  502  0.00000000000E+00  0.00000000000E+00  0.30721050908E+03  0.30721050908E+03  0.00000000000E+00 0.  1.
         21   -1    0    0  502  503 -0.00000000000E+00 -0.00000000000E+00 -0.15211585734E+03  0.15211585734E+03  0.00000000000E+00 0. -1.
          6    1    1    2  501    0 -0.10259862130E+03  0.78035596822E+02  0.63036449889E+02  0.22476348787E+03  0.17300000000E+03 0. -1.
         -6    1    1    2    0  503  0.10259862130E+03 -0.78035596822E+02  0.92058201856E+02  0.23456287855E+03  0.17300000000E+03 0.  1.
<mgrwt>
<rscale>  2 0.21574298E+03</rscale>
<asrwt>0</asrwt>
<pdfrwt beam="1">  1       21 0.47263155E-01 0.21574298E+03</pdfrwt>
<pdfrwt beam="2">  1       21 0.23402440E-01 0.21574298E+03</pdfrwt>
<totfact> 0.72823759E+04</totfact>
</mgrwt>
</event>
<event>
 4    1  0.4319182E+000  0.2001668E+03  0.7546771E-02  0.1149598E+00
         21   -1    0    0  501  502  0.00000000000E+00  0.00000000000E+00  0.18354575681E+04  0.18354575681E+04  0.00000000000E+00 0.  1.
         21   -1    0    0  502  503 -0.00000000000E+00 -0.00000000000E+00 -0.94355446304E+02  0.94355446304E+02  0.00000000000E+00 0. -1.
          6    1    1    2  501    0 -0.66759928185E+02 -0.75371395793E+02  0.17165096024E+04  0.17281411836E+04  0.17300000000E+03 0.  1.
         -6    1    1    2    0  503  0.66759928185E+02  0.75371395793E+02  0.24592519352E+02  0.20167183076E+03  0.17300000000E+03 0. -1.
<mgrwt>
<rscale>  2 0.20016677E+03</rscale>
<asrwt>0</asrwt>
<pdfrwt beam="1">  1       21 0.28237806E+00 0.20016677E+03</pdfrwt>
<pdfrwt beam="2">  1       21 0.14516224E-01 0.20016677E+03</pdfrwt>
<totfact> 0.17789893E+03</totfact>
</mgrwt>
</event>
<event>
 4    1  0.4319182E+000  0.1950510E+03  0.7546771E-02  0.1153983E+00
         21   -1    0    0  503  502  0.00000000000E+00  0.00000000000E+00  0.42509910165E+03  0.42509910165E+03  0.00000000000E+00 0. -1.
         21   -1    0    0  501  503 -0.00000000000E+00 -0.00000000000E+00 -0.36831976268E+03  0.36831976268E+03  0.00000000000E+00 0. -1.
          6    1    1    2  501    0 -0.90069105629E+02 -0.18519443185E+01 -0.31677356724E+03  0.37200855688E+03  0.17300000000E+03 0. -1.
         -6    1    1    2    0  502  0.90069105629E+02  0.18519443185E+01  0.37355290621E+03  0.42141030745E+03  0.17300000000E+03 0. -1.
<mgrwt>
<rscale>  2 0.19505095E+03</rscale>
<asrwt>0</asrwt>
<pdfrwt beam="1">  1       21 0.65399862E-01 0.19505095E+03</pdfrwt>
<pdfrwt beam="2">  1       21 0.56664579E-01 0.19505095E+03</pdfrwt>
<totfact> 0.62859356E+03</totfact>
</mgrwt>
</event>
<event>
 4    1  0.4319182E+000  0.2015065E+03  0.7546771E-02  0.1148474E+00
         21   -1    0    0  503  502  0.00000000000E+00  0.00000000000E+00  0.13574043251E+04  0.13574043251E+04  0.00000000000E+00 0. -1.
         21   -1    0    0  501  503 -0.00000000000E+00 -0.00000000000E+00 -0.35360753508E+02  0.35360753508E+02  0.00000000000E+00 0.  1.
          6    1    1    2  501    0 -0.46402457725E+02  0.92318354632E+02  0.38770177091E+03  0.43694110570E+03  0.17300000000E+03 0.  1.
         -6    1    1    2    0  502  0.46402457725E+02 -0.92318354632E+02  0.93434180072E+03  0.95582397294E+03  0.17300000000E+03 0. -1.
<mgrwt>
<rscale>  2 0.20150649E+03</rscale>
<asrwt>0</asrwt>
<pdfrwt beam="1">  1       21 0.20883139E+00 0.20150649E+03</pdfrwt>
<pdfrwt beam="2">  1       21 0.54401170E-02 0.20150649E+03</pdfrwt>
<totfact> 0.27325868E+04</totfact>
</mgrwt>
</event>
<event>
 4    1  0.4319182E+000  0.1901909E+03  0.7546771E-02  0.1158289E+00
         21   -1    0    0  501  502  0.00000000000E+00  0.00000000000E+00  0.25293091915E+03  0.25293091915E+03  0.00000000000E+00 0. -1.
         21   -1    0    0  502  503 -0.00000000000E+00 -0.00000000000E+00 -0.21394083812E+03  0.21394083812E+03  0.00000000000E+00 0. -1.
          6    1    1    2  501    0  0.34756311893E+02  0.70961895830E+02  0.15390359640E+03  0.24466080369E+03  0.17300000000E+03 0. -1.
         -6    1    1    2    0  503 -0.34756311893E+02 -0.70961895830E+02 -0.11491351537E+03  0.22221095358E+03  0.17300000000E+03 0. -1.
<mgrwt>
<rscale>  2 0.19019094E+03</rscale>
<asrwt>0</asrwt>
<pdfrwt beam="1">  1       21 0.38912449E-01 0.19019094E+03</pdfrwt>
<pdfrwt beam="2">  1       21 0.32913975E-01 0.19019094E+03</pdfrwt>
<totfact> 0.56649504E+04</totfact>
</mgrwt>
</event>
<event>
 4    1  0.4319182E+000  0.2042559E+03  0.7546771E-02  0.1146197E+00
         21   -1    0    0  501  502  0.00000000000E+00  0.00000000000E+00  0.59069770805E+03  0.59069770805E+03  0.00000000000E+00 0.  1.
         21   -1    0    0  502  503 -0.00000000000E+00 -0.00000000000E+00 -0.20697162115E+03  0.20697162115E+03  0.00000000000E+00 0. -1.
          6    1    1    2  501    0  0.66105356993E+02  0.86148474665E+02  0.51557077723E+03  0.55455721458E+03  0.17300000000E+03 0.  1.
         -6    1    1    2    0  503 -0.66105356993E+02 -0.86148474665E+02 -0.13184469033E+03  0.24311211462E+03  0.17300000000E+03 0. -1.
<mgrwt>
<rscale>  2 0.20425591E+03</rscale>
<asrwt>0</asrwt>
<pdfrwt beam="1">  1       21 0.90876570E-01 0.20425591E+03</pdfrwt>
<pdfrwt beam="2">  1       21 0.31841788E-01 0.20425591E+03</pdfrwt>
<totfact> 0.96635411E+03</totfact>
</mgrwt>
</event>
<event>
 4    1  0.4319182E+000  0.1923494E+03  0.7546771E-02  0.1156359E+00
         21   -1    0    0  501  502  0.00000000000E+00  0.00000000000E+00  0.25671585237E+02  0.25671585237E+02  0.00000000000E+00 0.  1.
         21   -1    0    0  502  503 -0.00000000000E+00 -0.00000000000E+00 -0.14412160156E+04  0.14412160156E+04  0.00000000000E+00 0. -1.
          6    1    1    2  501    0 -0.10170990009E+02  0.83461604316E+02 -0.70817855222E+03  0.73383591507E+03  0.17300000000E+03 0. -1.
         -6    1    1    2    0  503  0.10170990009E+02 -0.83461604316E+02 -0.70736587811E+03  0.73305168573E+03  0.17300000000E+03 0. -1.
<mgrwt>
<rscale>  2 0.19234939E+03</rscale>
<asrwt>0</asrwt>
<pdfrwt beam="1">  1       21 0.39494746E-02 0.19234939E+03</pdfrwt>
<pdfrwt beam="2">  1       21 0.22172555E+00 0.19234939E+03</pdfrwt>
<totfact> 0.39309014E+04</totfact>
</mgrwt>
</event>
<event>
 4    1  0.4319182E+000  0.1936296E+03  0.7546771E-02  0.1155228E+00
         21   -1    0    0  501  502  0.00000000000E+00  0.00000000000E+00  0.88471249104E+02  0.88471249104E+02  0.00000000000E+00 0.  1.
         21   -1    0    0  502  503 -0.00000000000E+00 -0.00000000000E+00 -0.45558027570E+03  0.45558027570E+03  0.00000000000E+00 0.  1.
          6    1    1    2  501    0  0.18350268886E+02 -0.85009997819E+02 -0.11168637867E+03  0.22353138321E+03  0.17300000000E+03 0.  1.
         -6    1    1    2    0  503 -0.18350268886E+02  0.85009997819E+02 -0.25542264792E+03  0.32052014160E+03  0.17300000000E+03 0.  1.
<mgrwt>
<rscale>  2 0.19362963E+03</rscale>
<asrwt>0</asrwt>
<pdfrwt beam="1">  1       21 0.13610962E-01 0.19362963E+03</pdfrwt>
<pdfrwt beam="2">  1       21 0.70089272E-01 0.19362963E+03</pdfrwt>
<totfact> 0.86423340E+04</totfact>
</mgrwt>
</event>
<event>
 4    1  0.4319182E+000  0.2583397E+03  0.7546771E-02  0.1108145E+00
         21   -1    0    0  501  502  0.00000000000E+00  0.00000000000E+00  0.50723718935E+02  0.50723718935E+02  0.00000000000E+00 0.  1.
         21   -1    0    0  502  503 -0.00000000000E+00 -0.00000000000E+00 -0.20166698034E+04  0.20166698034E+04  0.00000000000E+00 0.  1.
          6    1    1    2  501    0  0.17699297147E+03  0.74053245654E+02 -0.37355965866E+03  0.45418742136E+03  0.17300000000E+03 0.  1.
         -6    1    1    2    0  503 -0.17699297147E+03 -0.74053245654E+02 -0.15923864258E+04  0.16132061010E+04  0.17300000000E+03 0.  1.
<mgrwt>
<rscale>  2 0.25833969E+03</rscale>
<asrwt>0</asrwt>
<pdfrwt beam="1">  1       21 0.78036502E-02 0.25833969E+03</pdfrwt>
<pdfrwt beam="2">  1       21 0.31025685E+00 0.25833969E+03</pdfrwt>
<totfact> 0.34824412E+03</totfact>
</mgrwt>
</event>
<event>
 4    1  0.4319182E+000  0.1977593E+03  0.7546771E-02  0.1151643E+00
         21   -1    0    0  501  502  0.00000000000E+00  0.00000000000E+00  0.31771182352E+03  0.31771182352E+03  0.00000000000E+00 0. -1.
         21   -1    0    0  502  503 -0.00000000000E+00 -0.00000000000E+00 -0.33052038626E+03  0.33052038626E+03  0.00000000000E+00 0. -1.
          6    1    1    2  501    0  0.87618211215E+02  0.38765839934E+02  0.25035870876E+03  0.31904266852E+03  0.17300000000E+03 0. -1.
         -6    1    1    2    0  503 -0.87618211215E+02 -0.38765839934E+02 -0.26316727151E+03  0.32918954126E+03  0.17300000000E+03 0. -1.
<mgrwt>
<rscale>  2 0.19775930E+03</rscale>
<asrwt>0</asrwt>
<pdfrwt beam="1">  1       21 0.48878742E-01 0.19775930E+03</pdfrwt>
<pdfrwt beam="2">  1       21 0.50849290E-01 0.19775930E+03</pdfrwt>
<totfact> 0.14647368E+04</totfact>
</mgrwt>
</event>
<event>
 4    1  0.4319182E+000  0.2141128E+03  0.7546771E-02  0.1138350E+00
         21   -1    0    0  503  502  0.00000000000E+00  0.00000000000E+00  0.16609872931E+04  0.16609872931E+04  0.00000000000E+00 0.  1.
         21   -1    0    0  501  503 -0.00000000000E+00 -0.00000000000E+00 -0.10214239040E+03  0.10214239040E+03  0.00000000000E+00 0. -1.
          6    1    1    2  501    0  0.55342592565E+02 -0.11336886113E+03  0.26325194561E+02  0.21572509612E+03  0.17300000000E+03 0. -1.
         -6    1    1    2    0  502 -0.55342592565E+02  0.11336886113E+03  0.15325197082E+04  0.15474045874E+04  0.17300000000E+03 0.  1.
<mgrwt>
<rscale>  2 0.21411282E+03</rscale>
<asrwt>0</asrwt>
<pdfrwt beam="1">  1       21 0.25553649E+00 0.21411282E+03</pdfrwt>
<pdfrwt beam="2">  1       21 0.15714215E-01 0.21411282E+03</pdfrwt>
<totfact> 0.21714142E+03</totfact>
</mgrwt>
</event>
<event>
 4    1  0.4319182E+000  0.2526436E+03  0.7546771E-02  0.1111645E+00
         21   -1    0    0  503  502  0.00000000000E+00  0.00000000000E+00  0.12838347804E+04  0.12838347804E+04  0.00000000000E+00 0. -1.
         21   -1    0    0  501  503 -0.00000000000E+00 -0.00000000000E+00 -0.49748026717E+02  0.49748026717E+02  0.00000000000E+00 0. -1.
          6    1    1    2  501    0 -0.11240435496E+03 -0.14582543915E+03  0.60047168611E+03  0.65145609486E+03  0.17300000000E+03 0. -1.
         -6    1    1    2    0  502  0.11240435496E+03  0.14582543915E+03  0.63361506759E+03  0.68212671227E+03  0.17300000000E+03 0. -1.
<mgrwt>
<rscale>  2 0.25264362E+03</rscale>
<asrwt>0</asrwt>
<pdfrwt beam="1">  1       21 0.19751302E+00 0.25264362E+03</pdfrwt>
<pdfrwt beam="2">  1       21 0.76535435E-02 0.25264362E+03</pdfrwt>
<totfact> 0.17321072E+04</totfact>
</mgrwt>
</event>
<event>
 4    1  0.4319182E+000  0.1808933E+03  0.7546771E-02  0.1166941E+00
         21   -1    0    0  501  502  0.00000000000E+00  0.00000000000E+00  0.20661761729E+03  0.20661761729E+03  0.00000000000E+00 0. -1.
         21   -1    0    0  502  503 -0.00000000000E+00 -0.00000000000E+00 -0.19617662736E+03  0.19617662736E+03  0.00000000000E+00 0. -1.
          6    1    1    2  501    0 -0.81505913481E+01 -0.52220206019E+02  0.93630999175E+02  0.20368884619E+03  0.17300000000E+03 0. -1.
         -6    1    1    2    0  503  0.81505913481E+01  0.52220206019E+02 -0.83190009246E+02  0.19910539846E+03  0.17300000000E+03 0. -1.
<mgrwt>
<rscale>  2 0.18089329E+03</rscale>
<asrwt>0</asrwt>
<pdfrwt beam="1">  1       21 0.31787326E-01 0.18089329E+03</pdfrwt>
<pdfrwt beam="2">  1       21 0.30181020E-01 0.18089329E+03</pdfrwt>
<totfact> 0.10066378E+05</totfact>
</mgrwt>
</event>
<event>
 4    1  0.4319182E+000  0.1805689E+03  0.7546771E-02  0.1167254E+00
         21   -1    0    0  501  502  0.00000000000E+00  0.00000000000E+00  0.28672716308E+02  0.28672716308E+02  0.00000000000E+00 0.  1.
         21   -1    0    0  502  503 -0.00000000000E+00 -0.00000000000E+00 -0.11381815302E+04  0.11381815302E+04  0.00000000000E+00 0.  1.
          6    1    1    2  501    0  0.35728523485E+02 -0.37411194716E+02 -0.53717430647E+03  0.56671100255E+03  0.17300000000E+03 0. -1.
         -6    1    1    2    0  503 -0.35728523485E+02  0.37411194716E+02 -0.57233450739E+03  0.60014324392E+03  0.17300000000E+03 0. -1.
<mgrwt>
<rscale>  2 0.18056889E+03</rscale>
<asrwt>0</asrwt>
<pdfrwt beam="1">  1       21 0.44111863E-02 0.18056889E+03</pdfrwt>
<pdfrwt beam="2">  1       21 0.17510488E+00 0.18056889E+03</pdfrwt>
<totfact> 0.65809013E+04</totfact>
</mgrwt>
</event>
<event>
 4    1  0.4319182E+000  0.1871078E+03  0.7546771E-02  0.1161096E+00
         21   -1    0    0  501  502  0.00000000000E+00  0.00000000000E+00  0.11501553678E+03  0.11501553678E+03  0.00000000000E+00 0. -1.
         21   -1    0    0  502  503 -0.00000000000E+00 -0.00000000000E+00 -0.57480883581E+03  0.57480883581E+03  0.00000000000E+00 0. -1.
          6    1    1    2  501    0 -0.66240996948E+02  0.26314653093E+02  0.66773577100E+01  0.18722691513E+03  0.17300000000E+03 0. -1.
         -6    1    1    2    0  503  0.66240996948E+02 -0.26314653093E+02 -0.46647065674E+03  0.50259745746E+03  0.17300000000E+03 0. -1.
<mgrwt>
<rscale>  2 0.18710780E+03</rscale>
<asrwt>0</asrwt>
<pdfrwt beam="1">  1       21 0.17694698E-01 0.18710780E+03</pdfrwt>
<pdfrwt beam="2">  1       21 0.88432130E-01 0.18710780E+03</pdfrwt>
<totfact> 0.31800455E+04</totfact>
</mgrwt>
</event>
<event>
 4    1  0.4319182E+000  0.2273480E+03  0.7546771E-02  0.1128520E+00
         21   -1    0    0  501  502  0.00000000000E+00  0.00000000000E+00  0.44520910033E+03  0.44520910033E+03  0.00000000000E+00 0. -1.
         21   -1    0    0  502  503 -0.00000000000E+00 -0.00000000000E+00 -0.13881475276E+03  0.13881475276E+03  0.00000000000E+00 0.  1.
          6    1    1    2  501    0  0.14470366092E+03 -0.28617649406E+02  0.27133048198E+03  0.35398778198E+03  0.17300000000E+03 0. -1.
         -6    1    1    2    0  503 -0.14470366092E+03  0.28617649406E+02  0.35063865583E+02  0.23003607111E+03  0.17300000000E+03 0.  1.
<mgrwt>
<rscale>  2 0.22734801E+03</rscale>
<asrwt>0</asrwt>
<pdfrwt beam="1">  1       21 0.68493707E-01 0.22734801E+03</pdfrwt>
<pdfrwt beam="2">  1       21 0.21356116E-01 0.22734801E+03</pdfrwt>
<totfact> 0.38994698E+04</totfact>
</mgrwt>
</event>
<event>
 4    1  0.4319182E+000  0.1981718E+03  0.7546771E-02  0.1151291E+00
         21   -1    0    0  503  502  0.00000000000E+00  0.00000000000E+00  0.63040327775E+03  0.63040327775E+03  0.00000000000E+00 0.  1.
         21   -1    0    0  501  503 -0.00000000000E+00 -0.00000000000E+00 -0.63556997709E+02  0.63556997709E+02  0.00000000000E+00 0. -1.
          6    1    1    2  501    0 -0.37275500718E+02  0.89182962333E+02  0.23456307103E+03  0.30706985853E+03  0.17300000000E+03 0. -1.
         -6    1    1    2    0  502  0.37275500718E+02 -0.89182962333E+02  0.33228320901E+03  0.38689041693E+03  0.17300000000E+03 0. -1.
<mgrwt>
<rscale>  2 0.19817180E+03</rscale>
<asrwt>0</asrwt>
<pdfrwt beam="1">  1       21 0.96985115E-01 0.19817180E+03</pdfrwt>
<pdfrwt beam="2">  1       21 0.97780001E-02 0.19817180E+03</pdfrwt>
<totfact> 0.74312489E+04</totfact>
</mgrwt>
</event>
<event>
 4    1  0.4319182E+000  0.1776712E+03  0.7546771E-02  0.1170076E+00
         21   -1    0    0  501  502  0.00000000000E+00  0.00000000000E+00  0.53390930995E+03  0.53390930995E+03  0.00000000000E+00 0. -1.
         21   -1    0    0  502  503 -0.00000000000E+00 -0.00000000000E+00 -0.19237946327E+03  0.19237946327E+03  0.00000000000E+00 0. -1.
          6    1    1    2  501    0 -0.21133378559E+02 -0.34517290366E+02  0.47299790444E+03  0.50526634623E+03  0.17300000000E+03 0. -1.
         -6    1    1    2    0  503  0.21133378559E+02  0.34517290366E+02 -0.13146805776E+03  0.22102242699E+03  0.17300000000E+03 0. -1.
<mgrwt>
<rscale>  2 0.17767122E+03</rscale>
<asrwt>0</asrwt>
<pdfrwt beam="1">  1       21 0.82139893E-01 0.17767122E+03</pdfrwt>
<pdfrwt beam="2">  1       21 0.29596841E-01 0.17767122E+03</pdfrwt>
<totfact> 0.14313461E+04</totfact>
</mgrwt>
</event>
<event>
 4    1  0.4319182E+000  0.1818814E+03  0.7546771E-02  0.1165995E+00
         21   -1    0    0  501  502  0.00000000000E+00  0.00000000000E+00  0.27300434352E+03  0.27300434352E+03  0.00000000000E+00 0.  1.
         21   -1    0    0  502  503 -0.00000000000E+00 -0.00000000000E+00 -0.28987928435E+03  0.28987928435E+03  0.00000000000E+00 0.  1.
          6    1    1    2  501    0  0.55916680871E+02 -0.50170581021E+01  0.20626904981E+03  0.27500503083E+03  0.17300000000E+03 0.  1.
         -6    1    1    2    0  503 -0.55916680871E+02  0.50170581021E+01 -0.22314399065E+03  0.28787859704E+03  0.17300000000E+03 0.  1.
<mgrwt>
<rscale>  2 0.18188141E+03</rscale>
<asrwt>0</asrwt>
<pdfrwt beam="1">  1       21 0.42000668E-01 0.18188141E+03</pdfrwt>
<pdfrwt beam="2">  1       21 0.44596813E-01 0.18188141E+03</pdfrwt>
<totfact> 0.26494281E+04</totfact>
</mgrwt>
</event>
<event>
 4    1  0.4319182E+000  0.1820896E+03  0.7546771E-02  0.1165796E+00
         21   -1    0    0  503  502  0.00000000000E+00  0.00000000000E+00  0.38110407353E+03  0.38110407353E+03  0.00000000000E+00 0. -1.
         21   -1    0    0  501  503 -0.00000000000E+00 -0.00000000000E+00 -0.12568360637E+03  0.12568360637E+03  0.00000000000E+00 0. -1.
          6    1    1    2  501    0 -0.25198999056E+02 -0.50917790601E+02 -0.12866036441E+02  0.18254354507E+03  0.17300000000E+03 0. -1.
         -6    1    1    2    0  502  0.25198999056E+02  0.50917790601E+02  0.26828650360E+03  0.32424413483E+03  0.17300000000E+03 0. -1.
<mgrwt>
<rscale>  2 0.18208957E+03</rscale>
<asrwt>0</asrwt>
<pdfrwt beam="1">  1       21 0.58631395E-01 0.18208957E+03</pdfrwt>
<pdfrwt beam="2">  1       21 0.19335940E-01 0.18208957E+03</pdfrwt>
<totfact> 0.67236787E+04</totfact>
</mgrwt>
</event>
<event>
 4    1  0.4319182E+000  0.1862927E+03  0.7546771E-02  0.1161848E+00
         21   -1    0    0  503  502  0.00000000000E+00  0.00000000000E+00  0.75502758202E+03  0.75502758202E+03  0.00000000000E+00 0.  1.
         21   -1    0    0  501  503 -0.00000000000E+00 -0.00000000000E+00 -0.53717758135E+02  0.53717758135E+02  0.00000000000E+00 0.  1.
          6    1    1    2  501    0  0.27867158070E+02  0.63240671166E+02  0.19703532625E+03  0.27116024926E+03  0.17300000000E+03 0.  1.
         -6    1    1    2    0  502 -0.27867158070E+02 -0.63240671166E+02  0.50427449764E+03  0.53758509090E+03  0.17300000000E+03 0.  1.
<mgrwt>
<rscale>  2 0.18629268E+03</rscale>
<asrwt>0</asrwt>
<pdfrwt beam="1">  1       21 0.11615808E+00 0.18629268E+03</pdfrwt>
<pdfrwt beam="2">  1       21 0.82642710E-02 0.18629268E+03</pdfrwt>
<totfact> 0.65071281E+04</totfact>
</mgrwt>
</event>
<event>
 4    1  0.4319182E+000  0.1913150E+03  0.7546771E-02  0.1157281E+00
         21   -1    0    0  501  502  0.00000000000E+00  0.00000000000E+00  0.46600469832E+03  0.46600469832E+03  0.00000000000E+00 0.  1.
         21   -1    0    0  502  503 -0.00000000000E+00 -0.00000000000E+00 -0.11205569247E+03  0.11205569247E+03  0.00000000000E+00 0. -1.
          6    1    1    2  501    0  0.55354650088E+02  0.60069023442E+02  0.33503766547E+03  0.38581298857E+03  0.17300000000E+03 0.  1.
         -6    1    1    2    0  503 -0.55354650088E+02 -0.60069023442E+02  0.18911340382E+02  0.19224740222E+03  0.17300000000E+03 0. -1.
<mgrwt>
<rscale>  2 0.19131499E+03</rscale>
<asrwt>0</asrwt>
<pdfrwt beam="1">  1       21 0.71693030E-01 0.19131499E+03</pdfrwt>
<pdfrwt beam="2">  1       21 0.17239338E-01 0.19131499E+03</pdfrwt>
<totfact> 0.53474483E+04</totfact>
</mgrwt>
</event>
<event>
 4    1  0.4319182E+000  0.1745729E+03  0.7546771E-02  0.1173161E+00
         21   -1    0    0  501  502  0.00000000000E+00  0.00000000000E+00  0.34919915014E+02  0.34919915014E+02  0.00000000000E+00 0.  1.
         21   -1    0    0  502  503 -0.00000000000E+00 -0.00000000000E+00 -0.11243637251E+04  0.11243637251E+04  0.00000000000E+00 0.  1.
          6    1    1    2  501    0  0.18281770150E+02  0.14576202361E+02 -0.27050770111E+03  0.32194736395E+03  0.17300000000E+03 0.  1.
         -6    1    1    2    0  503 -0.18281770150E+02 -0.14576202361E+02 -0.81893610902E+03  0.83733627620E+03  0.17300000000E+03 0.  1.
<mgrwt>
<rscale>  2 0.17457288E+03</rscale>
<asrwt>0</asrwt>
<pdfrwt beam="1">  1       21 0.53722950E-02 0.17457288E+03</pdfrwt>
<pdfrwt beam="2">  1       21 0.17297902E+00 0.17457288E+03</pdfrwt>
<totfact> 0.48966613E+04</totfact>
</mgrwt>
</event>
<event>
 4    1  0.4319182E+000  0.2883084E+03  0.7546771E-02  0.1091236E+00
         21   -1    0    0  503  502  0.00000000000E+00  0.00000000000E+00  0.29814101541E+03  0.29814101541E+03  0.00000000000E+00 0.  1.
         21   -1    0    0  501  503 -0.00000000000E+00 -0.00000000000E+00 -0.42140928807E+03  0.42140928807E+03  0.00000000000E+00 0. -1.
          6    1    1    2  501    0  0.15673200875E+03 -0.16919759398E+03 -0.27092624289E+03  0.39562959629E+03  0.17300000000E+03 0. -1.
         -6    1    1    2    0  502 -0.15673200875E+03  0.16919759398E+03  0.14765797023E+03  0.32392070719E+03  0.17300000000E+03 0.  1.
<mgrwt>
<rscale>  2 0.28830843E+03</rscale>
<asrwt>0</asrwt>
<pdfrwt beam="1">  1       21 0.45867849E-01 0.28830843E+03</pdfrwt>
<pdfrwt beam="2">  1       21 0.64832198E-01 0.28830843E+03</pdfrwt>
<totfact> 0.94454202E+03</totfact>
</mgrwt>
</event>
<event>
 4    1  0.4319182E+000  0.2126155E+03  0.7546771E-02  0.1139511E+00
         21   -1    0    0  501  502  0.00000000000E+00  0.00000000000E+00  0.29825880640E+03  0.29825880640E+03  0.00000000000E+00 0. -1.
         21   -1    0    0  502  503 -0.00000000000E+00 -0.00000000000E+00 -0.15189296683E+03  0.15189296683E+03  0.00000000000E+00 0. -1.
          6    1    1    2  501    0 -0.10717787499E+03 -0.61556987340E+02  0.83654187875E+02  0.22848059595E+03  0.17300000000E+03 0. -1.
         -6    1    1    2    0  503  0.10717787499E+03  0.61556987340E+02  0.62711651702E+02  0.22167117728E+03  0.17300000000E+03 0. -1.
<mgrwt>
<rscale>  2 0.21261552E+03</rscale>
<asrwt>0</asrwt>
<pdfrwt beam="1">  1       21 0.45885970E-01 0.21261552E+03</pdfrwt>
<pdfrwt beam="2">  1       21 0.23368149E-01 0.21261552E+03</pdfrwt>
<totfact> 0.77735524E+04</totfact>
</mgrwt>
</event>
<event>
 4    1  0.4319182E+000  0.2900954E+03  0.7546771E-02  0.1090299E+00
         21   -1    0    0  501  502  0.00000000000E+00  0.00000000000E+00  0.27962066615E+03  0.27962066615E+03  0.00000000000E+00 0.  1.
         21   -1    0    0  502  503 -0.00000000000E+00 -0.00000000000E+00 -0.31894771201E+03  0.31894771201E+03  0.00000000000E+00 0. -1.
          6    1    1    2  501    0  0.23250869784E+03  0.12886836714E+02  0.51405524922E+02  0.29461482163E+03  0.17300000000E+03 0.  1.
         -6    1    1    2    0  503 -0.23250869784E+03 -0.12886836714E+02 -0.90732570782E+02  0.30395355654E+03  0.17300000000E+03 0.  1.
<mgrwt>
<rscale>  2 0.29009544E+03</rscale>
<asrwt>0</asrwt>
<pdfrwt beam="1">  1       21 0.43018564E-01 0.29009544E+03</pdfrwt>
<pdfrwt beam="2">  1       21 0.49068879E-01 0.29009544E+03</pdfrwt>
<totfact> 0.19603279E+04</totfact>
</mgrwt>
</event>
<event>
 4    1  0.4319182E+000  0.2828359E+03  0.7546771E-02  0.1094150E+00
         21   -1    0    0  503  502  0.00000000000E+00  0.00000000000E+00  0.24238046980E+03  0.24238046980E+03  0.00000000000E+00 0. -1.
         21   -1    0    0  501  503 -0.00000000000E+00 -0.00000000000E+00 -0.33396564455E+03  0.33396564455E+03  0.00000000000E+00 0. -1.
          6    1    1    2  501    0  0.18063174207E+03 -0.13205791966E+03 -0.77021674886E+02  0.29313556384E+03  0.17300000000E+03 0. -1.
         -6    1    1    2    0  502 -0.18063174207E+03  0.13205791966E+03 -0.14563499862E+02  0.28321055050E+03  0.17300000000E+03 0. -1.
<mgrwt>
<rscale>  2 0.28283585E+03</rscale>
<asrwt>0</asrwt>
<pdfrwt beam="1">  1       21 0.37289303E-01 0.28283585E+03</pdfrwt>
<pdfrwt beam="2">  1       21 0.51379330E-01 0.28283585E+03</pdfrwt>
<totfact> 0.23885755E+04</totfact>
</mgrwt>
</event>
<event>
 4    1  0.4319182E+000  0.2561500E+03  0.7546771E-02  0.1109479E+00
         21   -1    0    0  501  502  0.00000000000E+00  0.00000000000E+00  0.67005314126E+03  0.67005314126E+03  0.00000000000E+00 0. -1.
         21   -1    0    0  502  503 -0.00000000000E+00 -0.00000000000E+00 -0.12550542063E+03  0.12550542063E+03  0.00000000000E+00 0. -1.
          6    1    1    2  501    0  0.10862489749E+03 -0.15454601510E+03  0.45875555450E+03  0.52542316082E+03  0.17300000000E+03 0. -1.
         -6    1    1    2    0  503 -0.10862489749E+03  0.15454601510E+03  0.85792166125E+02  0.27013540106E+03  0.17300000000E+03 0. -1.
<mgrwt>
<rscale>  2 0.25615003E+03</rscale>
<asrwt>0</asrwt>
<pdfrwt beam="1">  1       21 0.10308510E+00 0.25615003E+03</pdfrwt>
<pdfrwt beam="2">  1       21 0.19308527E-01 0.25615003E+03</pdfrwt>
<totfact> 0.18153325E+04</totfact>
</mgrwt>
</event>
<event>
 4    1  0.4319182E+000  0.2580822E+03  0.7546771E-02  0.1108301E+00
         21   -1    0    0  501  502  0.00000000000E+00  0.00000000000E+00  0.19005560737E+03  0.19005560737E+03  0.00000000000E+00 0.  1.
         21   -1    0    0  502  503 -0.00000000000E+00 -0.00000000000E+00 -0.35439074227E+03  0.35439074227E+03  0.00000000000E+00 0. -1.
          6    1    1    2  501    0 -0.21354057188E+02  0.19031933870E+03 -0.11084561303E+03  0.28087932706E+03  0.17300000000E+03 0.  1.
         -6    1    1    2    0  503  0.21354057188E+02 -0.19031933870E+03 -0.53489521864E+02  0.26356702258E+03  0.17300000000E+03 0. -1.
<mgrwt>
<rscale>  2 0.25808225E+03</rscale>
<asrwt>0</asrwt>
<pdfrwt beam="1">  1       21 0.29239324E-01 0.25808225E+03</pdfrwt>
<pdfrwt beam="2">  1       21 0.54521653E-01 0.25808225E+03</pdfrwt>
<totfact> 0.34498179E+04</totfact>
</mgrwt>
</event>
<event>
 4    1  0.4319182E+000  0.3054252E+03  0.7546771E-02  0.1082560E+00
         21   -1    0    0  501  502  0.00000000000E+00  0.00000000000E+00  0.74686118305E+03  0.74686118305E+03  0.00000000000E+00 0. -1.
         21   -1    0    0  502  503 -0.00000000000E+00 -0.00000000000E+00 -0.14521800842E+03  0.14521800842E+03  0.00000000000E+00 0.  1.
          6    1    1    2  501    0 -0.24248911279E+03 -0.67487556527E+02  0.46765427885E+03  0.55855623229E+03  0.17300000000E+03 0.  1.
         -6    1    1    2    0  503  0.24248911279E+03  0.67487556527E+02  0.13398889578E+03  0.33352295918E+03  0.17300000000E+03 0.  1.
<mgrwt>
<rscale>  2 0.30542518E+03</rscale>
<asrwt>0</asrwt>
<pdfrwt beam="1">  1       21 0.11490172E+00 0.30542518E+03</pdfrwt>
<pdfrwt beam="2">  1       21 0.22341232E-01 0.30542518E+03</pdfrwt>
<totfact> 0.10322342E+04</totfact>
</mgrwt>
</event>
<event>
 4    1  0.4319182E+000  0.1882431E+03  0.7546771E-02  0.1160056E+00
         21   -1    0    0  501  502  0.00000000000E+00  0.00000000000E+00  0.84721153241E+03  0.84721153241E+03  0.00000000000E+00 0. -1.
         21   -1    0    0  502  503 -0.00000000000E+00 -0.00000000000E+00 -0.51996108903E+02  0.51996108903E+02  0.00000000000E+00 0. -1.
          6    1    1    2  501    0 -0.37052226204E+02 -0.64293176652E+02  0.59644924739E+03  0.62544958609E+03  0.17300000000E+03 0.  1.
         -6    1    1    2    0  503  0.37052226204E+02  0.64293176652E+02  0.19876617612E+03  0.27375805522E+03  0.17300000000E+03 0.  1.
<mgrwt>
<rscale>  2 0.18824314E+03</rscale>
<asrwt>0</asrwt>
<pdfrwt beam="1">  1       21 0.13034023E+00 0.18824314E+03</pdfrwt>
<pdfrwt beam="2">  1       21 0.79994020E-02 0.18824314E+03</pdfrwt>
<totfact> 0.51656557E+04</totfact>
</mgrwt>
</event>
<event>
 4    1  0.4319182E+000  0.2595707E+03  0.7546771E-02  0.1107401E+00
         21   -1    0    0  503  502  0.00000000000E+00  0.00000000000E+00  0.52270235285E+03  0.52270235285E+03  0.00000000000E+00 0.  1.
         21   -1    0    0  501  503 -0.00000000000E+00 -0.00000000000E+00 -0.34313576590E+03  0.34313576590E+03  0.00000000000E+00 0. -1.
          6    1    1    2  501    0  0.17632383857E+03  0.79736072333E+02 -0.25228949599E+03  0.36197641783E+03  0.17300000000E+03 0. -1.
         -6    1    1    2    0  502 -0.17632383857E+03 -0.79736072333E+02  0.43185608294E+03  0.50386170092E+03  0.17300000000E+03 0.  1.
<mgrwt>
<rscale>  2 0.25957068E+03</rscale>
<asrwt>0</asrwt>
<pdfrwt beam="1">  1       21 0.80415747E-01 0.25957068E+03</pdfrwt>
<pdfrwt beam="2">  1       21 0.52790118E-01 0.25957068E+03</pdfrwt>
<totfact> 0.44103753E+03</totfact>
</mgrwt>
</event>
<event>
 4    1  0.4319182E+000  0.2258485E+03  0.7546771E-02  0.1129596E+00
         21   -1    0    0  503  502  0.00000000000E+00  0.00000000000E+00  0.11464218303E+03  0.11464218303E+03  0.00000000000E+00 0.  1.
         21   -1    0    0  501  503 -0.00000000000E+00 -0.00000000000E+00 -0.44801658892E+03  0.44801658892E+03  0.00000000000E+00 0.  1.
          6    1    1    2  501    0 -0.15185840390E+02 -0.14438810806E+03 -0.19004526950E+03  0.29516900237E+03  0.17300000000E+03 0.  1.
         -6    1    1    2    0  502  0.15185840390E+02  0.14438810806E+03 -0.14332913638E+03  0.26748976959E+03  0.17300000000E+03 0.  1.
<mgrwt>
<rscale>  2 0.22584848E+03</rscale>
<asrwt>0</asrwt>
<pdfrwt beam="1">  1       21 0.17637259E-01 0.22584848E+03</pdfrwt>
<pdfrwt beam="2">  1       21 0.68925628E-01 0.22584848E+03</pdfrwt>
<totfact> 0.55033034E+04</totfact>
</mgrwt>
</event>
<event>
 4    1  0.4319182E+000  0.3657925E+03  0.7546771E-02  0.1056314E+00
         21   -1    0    0  501  502  0.00000000000E+00  0.00000000000E+00  0.20496676349E+03  0.20496676349E+03  0.00000000000E+00 0. -1.
         21   -1    0    0  502  503 -0.00000000000E+00 -0.00000000000E+00 -0.84918414222E+03  0.84918414222E+03  0.00000000000E+00 0.  1.
          6    1    1    2  501    0 -0.26811029081E+03  0.17886313332E+03 -0.68645377101E+02  0.37217782886E+03  0.17300000000E+03 0. -1.
         -6    1    1    2    0  503  0.26811029081E+03 -0.17886313332E+03 -0.57557200162E+03  0.68197307685E+03  0.17300000000E+03 0.  1.
<mgrwt>
<rscale>  2 0.36579249E+03</rscale>
<asrwt>0</asrwt>
<pdfrwt beam="1">  1       21 0.31533348E-01 0.36579249E+03</pdfrwt>
<pdfrwt beam="2">  1       21 0.13064371E+00 0.36579249E+03</pdfrwt>
<totfact> 0.37090280E+03</totfact>
</mgrwt>
</event>
<event>
 4    1  0.4319182E+000  0.1887885E+03  0.7546771E-02  0.1159559E+00
         21   -1    0    0  503  502  0.00000000000E+00  0.00000000000E+00  0.38346194291E+02  0.38346194291E+02  0.00000000000E+00 0.  1.
         21   -1    0    0  501  503 -0.00000000000E+00 -0.00000000000E+00 -0.12431364445E+04  0.12431364445E+04  0.00000000000E+00 0.  1.
          6    1    1    2  501    0  0.32724481861E+02 -0.68126490580E+02 -0.92425502538E+03  0.94333899653E+03  0.17300000000E+03 0.  1.
         -6    1    1    2    0  502 -0.32724481861E+02  0.68126490580E+02 -0.28053522482E+03  0.33814364225E+03  0.17300000000E+03 0.  1.
<mgrwt>
<rscale>  2 0.18878853E+03</rscale>
<asrwt>0</asrwt>
<pdfrwt beam="1">  1       21 0.58994146E-02 0.18878853E+03</pdfrwt>
<pdfrwt beam="2">  1       21 0.19125176E+00 0.18878853E+03</pdfrwt>
<totfact> 0.31145165E+04</totfact>
</mgrwt>
</event>
<event>
 4    1  0.4319182E+000  0.1948851E+03  0.7546771E-02  0.1154128E+00
         21   -1    0    0  501  502  0.00000000000E+00  0.00000000000E+00  0.37774674673E+03  0.37774674673E+03  0.00000000000E+00 0.  1.
         21   -1    0    0  502  503 -0.00000000000E+00 -0.00000000000E+00 -0.15056097036E+03  0.15056097036E+03  0.00000000000E+00 0.  1.
          6    1    1    2  501    0 -0.34640471687E+02  0.82772224938E+02  0.26584350112E+03  0.32962550051E+03  0.17300000000E+03 0.  1.
         -6    1    1    2    0  503  0.34640471687E+02 -0.82772224938E+02 -0.38657724751E+02  0.19868221657E+03  0.17300000000E+03 0.  1.
<mgrwt>
<rscale>  2 0.19488510E+03</rscale>
<asrwt>0</asrwt>
<pdfrwt beam="1">  1       21 0.58114884E-01 0.19488510E+03</pdfrwt>
<pdfrwt beam="2">  1       21 0.23163226E-01 0.19488510E+03</pdfrwt>
<totfact> 0.48537521E+04</totfact>
</mgrwt>
</event>
<event>
 4    1  0.4319182E+000  0.2118288E+03  0.7546771E-02  0.1140126E+00
         21   -1    0    0  503  502  0.00000000000E+00  0.00000000000E+00  0.18255201446E+04  0.18255201446E+04  0.00000000000E+00 0. -1.
         21   -1    0    0  501  503 -0.00000000000E+00 -0.00000000000E+00 -0.44412239386E+02  0.44412239386E+02  0.00000000000E+00 0.  1.
          6    1    1    2  501    0  0.48562609588E+02 -0.11217889946E+03  0.26577043310E+03  0.33986078862E+03  0.17300000000E+03 0.  1.
         -6    1    1    2    0  502 -0.48562609588E+02  0.11217889946E+03  0.15153374722E+04  0.15300715954E+04  0.17300000000E+03 0. -1.
<mgrwt>
<rscale>  2 0.21182878E+03</rscale>
<asrwt>0</asrwt>
<pdfrwt beam="1">  1       21 0.28084919E+00 0.21182878E+03</pdfrwt>
<pdfrwt beam="2">  1       21 0.68326536E-02 0.21182878E+03</pdfrwt>
<totfact> 0.68033859E+03</totfact>
</mgrwt>
</event>
<event>
 4    1  0.4319182E+000  0.1750867E+03  0.7546771E-02  0.1172645E+00
         21   -1    0    0  503  502  0.00000000000E+00  0.00000000000E+00  0.50493696716E+02  0.50493696716E+02  0.00000000000E+00 0. -1.
         21   -1    0    0  501  503 -0.00000000000E+00 -0.00000000000E+00 -0.68096528919E+03  0.68096528919E+03  0.00000000000E+00 0. -1.
          6    1    1    2  501    0 -0.23917144046E+02  0.12422556758E+02 -0.43567870182E+03  0.46954369436E+03  0.17300000000E+03 0. -1.
         -6    1    1    2    0  502  0.23917144046E+02 -0.12422556758E+02 -0.19479289066E+03  0.26191529155E+03  0.17300000000E+03 0. -1.
<mgrwt>
<rscale>  2 0.17508669E+03</rscale>
<asrwt>0</asrwt>
<pdfrwt beam="1">  1       21 0.77682614E-02 0.17508669E+03</pdfrwt>
<pdfrwt beam="2">  1       21 0.10476389E+00 0.17508669E+03</pdfrwt>
<totfact> 0.93475204E+04</totfact>
</mgrwt>
</event>
<event>
 4    1  0.4319182E+000  0.1881329E+03  0.7546771E-02  0.1160156E+00
         21   -1    0    0  503  502  0.00000000000E+00  0.00000000000E+00  0.76956595333E+02  0.76956595333E+02  0.00000000000E+00 0.  1.
         21   -1    0    0  501  503 -0.00000000000E+00 -0.00000000000E+00 -0.65277579952E+03  0.65277579952E+03  0.00000000000E+00 0.  1.
          6    1    1    2  501    0  0.14428245399E+02  0.72503817974E+02 -0.48622959046E+03  0.52135706816E+03  0.17300000000E+03 0.  1.
         -6    1    1    2    0  502 -0.14428245399E+02 -0.72503817974E+02 -0.89589613734E+02  0.20837532669E+03  0.17300000000E+03 0.  1.
<mgrwt>
<rscale>  2 0.18813287E+03</rscale>
<asrwt>0</asrwt>
<pdfrwt beam="1">  1       21 0.11839476E-01 0.18813287E+03</pdfrwt>
<pdfrwt beam="2">  1       21 0.10042704E+00 0.18813287E+03</pdfrwt>
<totfact> 0.48963348E+04</totfact>
</mgrwt>
</event>
<event>
 4    1  0.4319182E+000  0.1747656E+03  0.7546771E-02  0.1172967E+00
         21   -1    0    0  503  502  0.00000000000E+00  0.00000000000E+00  0.41695547436E+03  0.41695547436E+03  0.00000000000E+00 0. -1.
         21   -1    0    0  501  503 -0.00000000000E+00 -0.00000000000E+00 -0.85192924621E+02  0.85192924621E+02  0.00000000000E+00 0. -1.
          6    1    1    2  501    0  0.57763325330E+01  0.24096681525E+02  0.71884954156E+02  0.18897212152E+03  0.17300000000E+03 0. -1.
         -6    1    1    2    0  502 -0.57763325330E+01 -0.24096681525E+02  0.25987759558E+03  0.31317627746E+03  0.17300000000E+03 0. -1.
<mgrwt>
<rscale>  2 0.17476560E+03</rscale>
<asrwt>0</asrwt>
<pdfrwt beam="1">  1       21 0.64146995E-01 0.17476560E+03</pdfrwt>
<pdfrwt beam="2">  1       21 0.13106604E-01 0.17476560E+03</pdfrwt>
<totfact> 0.11309967E+05</totfact>
</mgrwt>
</event>
<event>
 4    1  0.4319182E+000  0.2808621E+03  0.7546771E-02  0.1095219E+00
         21   -1    0    0  501  502  0.00000000000E+00  0.00000000000E+00  0.44522424610E+03  0.44522424610E+03  0.00000000000E+00 0.  1.
         21   -1    0    0  502  503 -0.00000000000E+00 -0.00000000000E+00 -0.18195772895E+03  0.18195772895E+03  0.00000000000E+00 0.  1.
          6    1    1    2  501    0  0.20432974801E+03 -0.84875632569E+02  0.80802912527E+02  0.29225439192E+03  0.17300000000E+03 0.  1.
         -6    1    1    2    0  503 -0.20432974801E+03  0.84875632569E+02  0.18246360462E+03  0.33492758312E+03  0.17300000000E+03 0.  1.
<mgrwt>
<rscale>  2 0.28086210E+03</rscale>
<asrwt>0</asrwt>
<pdfrwt beam="1">  1       21 0.68496037E-01 0.28086210E+03</pdfrwt>
<pdfrwt beam="2">  1       21 0.27993497E-01 0.28086210E+03</pdfrwt>
<totfact> 0.22663863E+04</totfact>
</mgrwt>
</event>
<event>
 4    1  0.4319182E+000  0.2131360E+03  0.7546771E-02  0.1139106E+00
         21   -1    0    0  503  502  0.00000000000E+00  0.00000000000E+00  0.19067114836E+03  0.19067114836E+03  0.00000000000E+00 0. -1.
         21   -1    0    0  501  503 -0.00000000000E+00 -0.00000000000E+00 -0.23829149330E+03  0.23829149330E+03  0.00000000000E+00 0. -1.
          6    1    1    2  501    0  0.36882801598E+02 -0.11890171452E+03 -0.20901884715E+02  0.21415846366E+03  0.17300000000E+03 0.  1.
         -6    1    1    2    0  502 -0.36882801598E+02  0.11890171452E+03 -0.26718460221E+02  0.21480417800E+03  0.17300000000E+03 0.  1.
<mgrwt>
<rscale>  2 0.21313601E+03</rscale>
<asrwt>0</asrwt>
<pdfrwt beam="1">  1       21 0.29334023E-01 0.21313601E+03</pdfrwt>
<pdfrwt beam="2">  1       21 0.36660230E-01 0.21313601E+03</pdfrwt>
<totfact> 0.79191422E+04</totfact>
</mgrwt>
</event>
<event>
 4    1  0.4319182E+000  0.2112446E+03  0.7546771E-02  0.1140584E+00
         21   -1    0    0  503  502  0.00000000000E+00  0.00000000000E+00  0.11335352971E+04  0.11335352971E+04  0.00000000000E+00 0. -1.
         21   -1    0    0  501  503 -0.00000000000E+00 -0.00000000000E+00 -0.13053640099E+03  0.13053640099E+03  0.00000000000E+00 0. -1.
          6    1    1    2  501    0  0.93988714022E+02  0.76559935378E+02 -0.26701975262E+02  0.21292556810E+03  0.17300000000E+03 0. -1.
         -6    1    1    2    0  502 -0.93988714022E+02 -0.76559935378E+02  0.10297008714E+04  0.10511461300E+04  0.17300000000E+03 0. -1.
<mgrwt>
<rscale>  2 0.21124465E+03</rscale>
<asrwt>0</asrwt>
<pdfrwt beam="1">  1       21 0.17439004E+00 0.21124465E+03</pdfrwt>
<pdfrwt beam="2">  1       21 0.20082524E-01 0.21124465E+03</pdfrwt>
<totfact> 0.44816116E+03</totfact>
</mgrwt>
</event>
<event>
 4    1  0.4319182E+000  0.2151387E+03  0.7546771E-02  0.1137560E+00
         21   -1    0    0  503  502  0.00000000000E+00  0.00000000000E+00  0.20846987233E+03  0.20846987233E+03  0.00000000000E+00 0. -1.
         21   -1    0    0  501  503 -0.00000000000E+00 -0.00000000000E+00 -0.64983582102E+03  0.64983582102E+03  0.00000000000E+00 0.  1.
          6    1    1    2  501    0  0.37349766545E+02  0.12231382227E+03 -0.56889047303E+03  0.60821135018E+03  0.17300000000E+03 0.  1.
         -6    1    1    2    0  502 -0.37349766545E+02 -0.12231382227E+03  0.12752452434E+03  0.25009434317E+03  0.17300000000E+03 0. -1.
<mgrwt>
<rscale>  2 0.21513874E+03</rscale>
<asrwt>0</asrwt>
<pdfrwt beam="1">  1       21 0.32072288E-01 0.21513874E+03</pdfrwt>
<pdfrwt beam="2">  1       21 0.99974742E-01 0.21513874E+03</pdfrwt>
<totfact> 0.75575275E+03</totfact>
</mgrwt>
</event>
<event>
 4    1  0.4319182E+000  0.2420232E+03  0.7546771E-02  0.1118452E+00
         21   -1    0    0  503  502  0.00000000000E+00  0.00000000000E+00  0.40331689689E+03  0.40331689689E+03  0.00000000000E+00 0. -1.
         21   -1    0    0  501  503 -0.00000000000E+00 -0.00000000000E+00 -0.24149823762E+03  0.24149823762E+03  0.00000000000E+00 0. -1.
          6    1    1    2  501    0 -0.15151747680E+03 -0.75423497688E+02 -0.12264538185E+03  0.27132478595E+03  0.17300000000E+03 0. -1.
         -6    1    1    2    0  502  0.15151747680E+03  0.75423497688E+02  0.28446404112E+03  0.37349034856E+03  0.17300000000E+03 0. -1.
<mgrwt>
<rscale>  2 0.24202324E+03</rscale>
<asrwt>0</asrwt>
<pdfrwt beam="1">  1       21 0.62048753E-01 0.24202324E+03</pdfrwt>
<pdfrwt beam="2">  1       21 0.37153575E-01 0.24202324E+03</pdfrwt>
<totfact> 0.16366972E+04</totfact>
</mgrwt>
</event>
<event>
 4    1  0.4319182E+000  0.2066691E+03  0.7546771E-02  0.1144231E+00
         21   -1    0    0  503  502  0.00000000000E+00  0.00000000000E+00  0.69724429983E+02  0.69724429983E+02  0.00000000000E+00 0. -1.
         21   -1    0    0  501  503 -0.00000000000E+00 -0.00000000000E+00 -0.15144842214E+04  0.15144842214E+04  0.00000000000E+00 0. -1.
          6    1    1    2  501    0 -0.11237083256E+03 -0.12487173203E+02 -0.13336442020E+04  0.13495625184E+04  0.17300000000E+03 0. -1.
         -6    1    1    2    0  502  0.11237083256E+03  0.12487173203E+02 -0.11111558936E+03  0.23464613294E+03  0.17300000000E+03 0. -1.
<mgrwt>
<rscale>  2 0.20666914E+03</rscale>
<asrwt>0</asrwt>
<pdfrwt beam="1">  1       21 0.10726837E-01 0.20666914E+03</pdfrwt>
<pdfrwt beam="2">  1       21 0.23299754E+00 0.20666914E+03</pdfrwt>
<totfact> 0.59321048E+03</totfact>
</mgrwt>
</event>
<event>
 4    1  0.4319182E+000  0.1762965E+03  0.7546771E-02  0.1171436E+00
         21   -1    0    0  501  502  0.00000000000E+00  0.00000000000E+00  0.15841718188E+04  0.15841718188E+04  0.00000000000E+00 0. -1.
         21   -1    0    0  502  503 -0.00000000000E+00 -0.00000000000E+00 -0.25064753303E+02  0.25064753303E+02  0.00000000000E+00 0. -1.
          6    1    1    2  501    0  0.24980721770E+02 -0.22965715374E+02  0.11545888957E+04  0.11679708809E+04  0.17300000000E+03 0. -1.
         -6    1    1    2    0  503 -0.24980721770E+02  0.22965715374E+02  0.40451816979E+03  0.44126569120E+03  0.17300000000E+03 0. -1.
<mgrwt>
<rscale>  2 0.17629651E+03</rscale>
<asrwt>0</asrwt>
<pdfrwt beam="1">  1       21 0.24371866E+00 0.17629651E+03</pdfrwt>
<pdfrwt beam="2">  1       21 0.38561171E-02 0.17629651E+03</pdfrwt>
<totfact> 0.30586063E+04</totfact>
</mgrwt>
</event>
<event>
 4    1  0.4319182E+000  0.2161774E+03  0.7546771E-02  0.1136765E+00
         21   -1    0    0  503  502  0.00000000000E+00  0.00000000000E+00  0.24587015083E+03  0.24587015083E+03  0.00000000000E+00 0. -1.
         21   -1    0    0  501  503 -0.00000000000E+00 -0.00000000000E+00 -0.19622444706E+03  0.19622444706E+03  0.00000000000E+00 0. -1.
          6    1    1    2  501    0  0.75399952543E+02  0.10544441993E+03 -0.14322773185E+02  0.21665137980E+03  0.17300000000E+03 0. -1.
         -6    1    1    2    0  502 -0.75399952543E+02 -0.10544441993E+03  0.63968476950E+02  0.22544321809E+03  0.17300000000E+03 0. -1.
<mgrwt>
<rscale>  2 0.21617742E+03</rscale>
<asrwt>0</asrwt>
<pdfrwt beam="1">  1       21 0.37826177E-01 0.21617742E+03</pdfrwt>
<pdfrwt beam="2">  1       21 0.30188376E-01 0.21617742E+03</pdfrwt>
<totfact> 0.70229684E+04</totfact>
</mgrwt>
</event>
<event>
 4    1  0.4319182E+000  0.2520421E+03  0.7546771E-02  0.1112021E+00
         21   -1    0    0  503  502  0.00000000000E+00  0.00000000000E+00  0.14765557029E+03  0.14765557029E+03  0.00000000000E+00 0.  1.
         21   -1    0    0  501  503 -0.00000000000E+00 -0.00000000000E+00 -0.54739646010E+03  0.54739646010E+03  0.00000000000E+00 0.  1.
          6    1    1    2  501    0  0.18315366438E+03 -0.71375836309E+01 -0.36065565323E+03  0.43999739782E+03  0.17300000000E+03 0.  1.
         -6    1    1    2    0  502 -0.18315366438E+03  0.71375836309E+01 -0.39085236575E+02  0.25505463257E+03  0.17300000000E+03 0.  1.
<mgrwt>
<rscale>  2 0.25204208E+03</rscale>
<asrwt>0</asrwt>
<pdfrwt beam="1">  1       21 0.22716242E-01 0.25204208E+03</pdfrwt>
<pdfrwt beam="2">  1       21 0.84214838E-01 0.25204208E+03</pdfrwt>
<totfact> 0.21532019E+04</totfact>
</mgrwt>
</event>
<event>
 4    1  0.4319182E+000  0.2798485E+03  0.7546771E-02  0.1095772E+00
         21   -1    0    0  501  502  0.00000000000E+00  0.00000000000E+00  0.58541618011E+03  0.58541618011E+03  0.00000000000E+00 0. -1.
         21   -1    0    0  502  503 -0.00000000000E+00 -0.00000000000E+00 -0.46917506823E+03  0.46917506823E+03  0.00000000000E+00 0. -1.
          6    1    1    2  501    0 -0.18810320731E+02  0.21916286351E+03  0.50394822430E+03  0.57643646803E+03  0.17300000000E+03 0. -1.
         -6    1    1    2    0  503  0.18810320731E+02 -0.21916286351E+03 -0.38770711242E+03  0.47815478030E+03  0.17300000000E+03 0. -1.
<mgrwt>
<rscale>  2 0.27984851E+03</rscale>
<asrwt>0</asrwt>
<pdfrwt beam="1">  1       21 0.90064028E-01 0.27984851E+03</pdfrwt>
<pdfrwt beam="2">  1       21 0.72180780E-01 0.27984851E+03</pdfrwt>
<totfact> 0.16964452E+03</totfact>
</mgrwt>
</event>
<event>
 4    1  0.4319182E+000  0.2155915E+03  0.7546771E-02  0.1137213E+00
         21   -1    0    0  501  502  0.00000000000E+00  0.00000000000E+00  0.10144980428E+04  0.10144980428E+04  0.00000000000E+00 0.  1.
         21   -1    0    0  502  503 -0.00000000000E+00 -0.00000000000E+00 -0.57186568959E+02  0.57186568959E+02  0.00000000000E+00 0. -1.
          6    1    1    2  501    0 -0.19952291227E+02 -0.12709290462E+03  0.71759706840E+03  0.74928315936E+03  0.17300000000E+03 0.  1.
         -6    1    1    2    0  503  0.19952291227E+02  0.12709290462E+03  0.23971440543E+03  0.32240145239E+03  0.17300000000E+03 0. -1.
<mgrwt>
<rscale>  2 0.21559151E+03</rscale>
<asrwt>0</asrwt>
<pdfrwt beam="1">  1       21 0.15607661E+00 0.21559151E+03</pdfrwt>
<pdfrwt beam="2">  1       21 0.87979344E-02 0.21559151E+03</pdfrwt>
<totfact> 0.26954456E+04</totfact>
</mgrwt>
</event>
<event>
 4    1  0.4319182E+000  0.2481317E+03  0.7546771E-02  0.1114491E+00
         21   -1    0    0  503  502  0.00000000000E+00  0.00000000000E+00  0.32717091252E+02  0.32717091252E+02  0.00000000000E+00 0.  1.
         21   -1    0    0  501  503 -0.00000000000E+00 -0.00000000000E+00 -0.23772841506E+04  0.23772841506E+04  0.00000000000E+00 0.  1.
          6    1    1    2  501    0  0.16666945100E+03  0.62142188488E+02 -0.17223691906E+04  0.17401508516E+04  0.17300000000E+03 0.  1.
         -6    1    1    2    0  502 -0.16666945100E+03 -0.62142188488E+02 -0.62219786871E+03  0.66985039024E+03  0.17300000000E+03 0.  1.
<mgrwt>
<rscale>  2 0.24813173E+03</rscale>
<asrwt>0</asrwt>
<pdfrwt beam="1">  1       21 0.50333983E-02 0.24813173E+03</pdfrwt>
<pdfrwt beam="2">  1       21 0.36573605E+00 0.24813173E+03</pdfrwt>
<totfact> 0.35115190E+03</totfact>
</mgrwt>
</event>
<event>
 4    1  0.4319182E+000  0.3155614E+03  0.7546771E-02  0.1077710E+00
         21   -1    0    0  503  502  0.00000000000E+00  0.00000000000E+00  0.17380666800E+03  0.17380666800E+03  0.00000000000E+00 0. -1.
         21   -1    0    0  501  503 -0.00000000000E+00 -0.00000000000E+00 -0.72664475192E+03  0.72664475192E+03  0.00000000000E+00 0.  1.
          6    1    1    2  501    0 -0.24318067571E+02 -0.26279012458E+03 -0.48349386090E+03  0.57736065983E+03  0.17300000000E+03 0.  1.
         -6    1    1    2    0  502  0.24318067571E+02  0.26279012458E+03 -0.69344223023E+02  0.32309076009E+03  0.17300000000E+03 0. -1.
<mgrwt>
<rscale>  2 0.31556143E+03</rscale>
<asrwt>0</asrwt>
<pdfrwt beam="1">  1       21 0.26739487E-01 0.31556143E+03</pdfrwt>
<pdfrwt beam="2">  1       21 0.11179150E+00 0.31556143E+03</pdfrwt>
<totfact> 0.77774704E+03</totfact>
</mgrwt>
</event>
<event>
 4    1  0.4319182E+000  0.1810024E+03  0.7546771E-02  0.1166836E+00
         21   -1    0    0  503  502  0.00000000000E+00  0.00000000000E+00  0.16253390536E+03  0.16253390536E+03  0.00000000000E+00 0. -1.
         21   -1    0    0  501  503 -0.00000000000E+00 -0.00000000000E+00 -0.28705611163E+03  0.28705611163E+03  0.00000000000E+00 0. -1.
          6    1    1    2  501    0  0.51820648353E+02 -0.12145173956E+02 -0.18493501379E+03  0.25877179942E+03  0.17300000000E+03 0. -1.
         -6    1    1    2    0  502 -0.51820648353E+02  0.12145173956E+02  0.60412807529E+02  0.19081821758E+03  0.17300000000E+03 0. -1.
<mgrwt>
<rscale>  2 0.18100244E+03</rscale>
<asrwt>0</asrwt>
<pdfrwt beam="1">  1       21 0.25005217E-01 0.18100244E+03</pdfrwt>
<pdfrwt beam="2">  1       21 0.44162478E-01 0.18100244E+03</pdfrwt>
<totfact> 0.74926377E+04</totfact>
</mgrwt>
</event>
<event>
 4    1  0.4319182E+000  0.2152000E+03  0.7546771E-02  0.1137513E+00
         21   -1    0    0  503  502  0.00000000000E+00  0.00000000000E+00  0.76694709374E+02  0.76694709374E+02  0.00000000000E+00 0.  1.
         21   -1    0    0  501  503 -0.00000000000E+00 -0.00000000000E+00 -0.64892073494E+03  0.64892073494E+03  0.00000000000E+00 0. -1.
          6    1    1    2  501    0  0.12751897206E+03 -0.10998554018E+02 -0.38174288588E+03  0.43822218947E+03  0.17300000000E+03 0. -1.
         -6    1    1    2    0  502 -0.12751897206E+03  0.10998554018E+02 -0.19048313969E+03  0.28739325485E+03  0.17300000000E+03 0. -1.
<mgrwt>
<rscale>  2 0.21520004E+03</rscale>
<asrwt>0</asrwt>
<pdfrwt beam="1">  1       21 0.11799186E-01 0.21520004E+03</pdfrwt>
<pdfrwt beam="2">  1       21 0.99833958E-01 0.21520004E+03</pdfrwt>
<totfact> 0.49283694E+04</totfact>
</mgrwt>
</event>
<event>
 4    1  0.4319182E+000  0.2413592E+03  0.7546771E-02  0.1118891E+00
         21   -1    0    0  503  502  0.00000000000E+00  0.00000000000E+00  0.30157396197E+03  0.30157396197E+03  0.00000000000E+00 0.  1.
         21   -1    0    0  501  503 -0.00000000000E+00 -0.00000000000E+00 -0.19659983735E+03  0.19659983735E+03  0.00000000000E+00 0.  1.
          6    1    1    2  501    0 -0.35246222470E+02  0.16456907221E+03  0.19574861038E+02  0.24215171053E+03  0.17300000000E+03 0.  1.
         -6    1    1    2    0  502  0.35246222470E+02 -0.16456907221E+03  0.85399263585E+02  0.25602208879E+03  0.17300000000E+03 0.  1.
<mgrwt>
<rscale>  2 0.24135923E+03</rscale>
<asrwt>0</asrwt>
<pdfrwt beam="1">  1       21 0.46395994E-01 0.24135923E+03</pdfrwt>
<pdfrwt beam="2">  1       21 0.30246129E-01 0.24135923E+03</pdfrwt>
<totfact> 0.45629121E+04</totfact>
</mgrwt>
</event>
<event>
 4    1  0.4319182E+000  0.1958444E+03  0.7546771E-02  0.1153293E+00
         21   -1    0    0  503  502  0.00000000000E+00  0.00000000000E+00  0.67204575707E+02  0.67204575707E+02  0.00000000000E+00 0.  1.
         21   -1    0    0  501  503 -0.00000000000E+00 -0.00000000000E+00 -0.61098347616E+03  0.61098347616E+03  0.00000000000E+00 0. -1.
          6    1    1    2  501    0  0.68050172319E+02 -0.61605065056E+02 -0.35893766569E+03  0.40889027605E+03  0.17300000000E+03 0. -1.
         -6    1    1    2    0  502 -0.68050172319E+02  0.61605065056E+02 -0.18484123476E+03  0.26929777582E+03  0.17300000000E+03 0.  1.
<mgrwt>
<rscale>  2 0.19584435E+03</rscale>
<asrwt>0</asrwt>
<pdfrwt beam="1">  1       21 0.10339165E-01 0.19584435E+03</pdfrwt>
<pdfrwt beam="2">  1       21 0.93997459E-01 0.19584435E+03</pdfrwt>
<totfact> 0.72536906E+04</totfact>
</mgrwt>
</event>
<event>
 4    1  0.4319182E+000  0.2190015E+03  0.7546771E-02  0.1134630E+00
         21   -1    0    0  501  502  0.00000000000E+00  0.00000000000E+00  0.85918187553E+02  0.85918187553E+02  0.00000000000E+00 0. -1.
         21   -1    0    0  502  503 -0.00000000000E+00 -0.00000000000E+00 -0.72680475347E+03  0.72680475347E+03  0.00000000000E+00 0.  1.
          6    1    1    2  501    0 -0.96919414318E+02  0.92947716108E+02 -0.12473608797E+03  0.25203321694E+03  0.17300000000E+03 0. -1.
         -6    1    1    2    0  503  0.96919414318E+02 -0.92947716108E+02 -0.51615047794E+03  0.56068972407E+03  0.17300000000E+03 0.  1.
<mgrwt>
<rscale>  2 0.21900149E+03</rscale>
<asrwt>0</asrwt>
<pdfrwt beam="1">  1       21 0.13218183E-01 0.21900149E+03</pdfrwt>
<pdfrwt beam="2">  1       21 0.11181611E+00 0.21900149E+03</pdfrwt>
<totfact> 0.30506224E+04</totfact>
</mgrwt>
</event>
<event>
 4    1  0.4319182E+000  0.2594699E+03  0.7546771E-02  0.1107462E+00
         21   -1    0    0  503  502  0.00000000000E+00  0.00000000000E+00  0.15487287293E+04  0.15487287293E+04  0.00000000000E+00 0. -1.
         21   -1    0    0  501  503 -0.00000000000E+00 -0.00000000000E+00 -0.44792123643E+02  0.44792123643E+02  0.00000000000E+00 0.  1.
          6    1    1    2  501    0 -0.66462415271E+02 -0.18159956561E+03  0.88880816877E+03  0.92590745528E+03  0.17300000000E+03 0. -1.
         -6    1    1    2    0  502  0.66462415271E+02  0.18159956561E+03  0.61512843691E+03  0.66761339769E+03  0.17300000000E+03 0.  1.
<mgrwt>
<rscale>  2 0.25946995E+03</rscale>
<asrwt>0</asrwt>
<pdfrwt beam="1">  1       21 0.23826592E+00 0.25946995E+03</pdfrwt>
<pdfrwt beam="2">  1       21 0.68910971E-02 0.25946995E+03</pdfrwt>
<totfact> 0.11497044E+04</totfact>
</mgrwt>
</event>
<event>
 4    1  0.4319182E+000  0.2003241E+03  0.7546771E-02  0.1149466E+00
         21   -1    0    0  501  502  0.00000000000E+00  0.00000000000E+00  0.21608397670E+03  0.21608397670E+03  0.00000000000E+00 0.  1.
         21   -1    0    0  502  503 -0.00000000000E+00 -0.00000000000E+00 -0.22831902415E+03  0.22831902415E+03  0.00000000000E+00 0.  1.
          6    1    1    2  501    0  0.98328636971E+02  0.23069931220E+02  0.89868535833E+02  0.21955886752E+03  0.17300000000E+03 0.  1.
         -6    1    1    2    0  503 -0.98328636971E+02 -0.23069931220E+02 -0.10210358328E+03  0.22484413333E+03  0.17300000000E+03 0.  1.
<mgrwt>
<rscale>  2 0.20032409E+03</rscale>
<asrwt>0</asrwt>
<pdfrwt beam="1">  1       21 0.33243689E-01 0.20032409E+03</pdfrwt>
<pdfrwt beam="2">  1       21 0.35126003E-01 0.20032409E+03</pdfrwt>
<totfact> 0.67846129E+04</totfact>
</mgrwt>
</event>
<event>
 4    1  0.4319182E+000  0.2271685E+03  0.7546771E-02  0.1128649E+00
         21   -1    0    0  501  502  0.00000000000E+00  0.00000000000E+00  0.12079559601E+03  0.12079559601E+03  0.00000000000E+00 0.  1.
         21   -1    0    0  502  503 -0.00000000000E+00 -0.00000000000E+00 -0.54256609728E+03  0.54256609728E+03  0.00000000000E+00 0.  1.
          6    1    1    2  501    0 -0.41317436092E+02  0.14131304002E+03 -0.57949925437E+02  0.23444338264E+03  0.17300000000E+03 0.  1.
         -6    1    1    2    0  503  0.41317436092E+02 -0.14131304002E+03 -0.36382057584E+03  0.42891831065E+03  0.17300000000E+03 0.  1.
<mgrwt>
<rscale>  2 0.22716845E+03</rscale>
<asrwt>0</asrwt>
<pdfrwt beam="1">  1       21 0.18583938E-01 0.22716845E+03</pdfrwt>
<pdfrwt beam="2">  1       21 0.83471707E-01 0.22716845E+03</pdfrwt>
<totfact> 0.32454876E+04</totfact>
</mgrwt>
</event>
<event>
 4    1  0.4319182E+000  0.1902924E+03  0.7546771E-02  0.1158198E+00
         21   -1    0    0  503  502  0.00000000000E+00  0.00000000000E+00  0.25912267498E+03  0.25912267498E+03  0.00000000000E+00 0. -1.
         21   -1    0    0  501  503 -0.00000000000E+00 -0.00000000000E+00 -0.22818129078E+03  0.22818129078E+03  0.00000000000E+00 0. -1.
          6    1    1    2  501    0 -0.79084192626E+02 -0.52796447107E+01 -0.13621491664E+03  0.23402069927E+03  0.17300000000E+03 0. -1.
         -6    1    1    2    0  502  0.79084192626E+02  0.52796447107E+01  0.16715630084E+03  0.25328326648E+03  0.17300000000E+03 0. -1.
<mgrwt>
<rscale>  2 0.19029236E+03</rscale>
<asrwt>0</asrwt>
<pdfrwt beam="1">  1       21 0.39865027E-01 0.19029236E+03</pdfrwt>
<pdfrwt beam="2">  1       21 0.35104814E-01 0.19029236E+03</pdfrwt>
<totfact> 0.47498252E+04</totfact>
</mgrwt>
</event>
<event>
 4    1  0.4319182E+000  0.1754023E+03  0.7546771E-02  0.1172328E+00
         21   -1    0    0  503  502  0.00000000000E+00  0.00000000000E+00  0.14069330670E+03  0.14069330670E+03  0.00000000000E+00 0.  1.
         21   -1    0    0  501  503 -0.00000000000E+00 -0.00000000000E+00 -0.39640341355E+03  0.39640341355E+03  0.00000000000E+00 0.  1.
          6    1    1    2  501    0  0.16965555871E+02 -0.23433564241E+02 -0.30767320086E+03  0.35415923049E+03  0.17300000000E+03 0.  1.
         -6    1    1    2    0  502 -0.16965555871E+02  0.23433564241E+02  0.51963093999E+02  0.18293748975E+03  0.17300000000E+03 0.  1.
<mgrwt>
<rscale>  2 0.17540229E+03</rscale>
<asrwt>0</asrwt>
<pdfrwt beam="1">  1       21 0.21645124E-01 0.17540229E+03</pdfrwt>
<pdfrwt beam="2">  1       21 0.60985140E-01 0.17540229E+03</pdfrwt>
<totfact> 0.50212227E+04</totfact>
</mgrwt>
</event>
<event>
 4    1  0.4319182E+000  0.2046379E+03  0.7546771E-02  0.1145884E+00
         21   -1    0    0  503  502  0.00000000000E+00  0.00000000000E+00  0.23670251452E+03  0.23670251452E+03  0.00000000000E+00 0.  1.
         21   -1    0    0  501  503 -0.00000000000E+00 -0.00000000000E+00 -0.18474860399E+03  0.18474860399E+03  0.00000000000E+00 0. -1.
          6    1    1    2  501    0 -0.74176029730E+02  0.80284291035E+02 -0.17409844062E+02  0.20537710058E+03  0.17300000000E+03 0.  1.
         -6    1    1    2    0  502  0.74176029730E+02 -0.80284291035E+02  0.69363754582E+02  0.21607401793E+03  0.17300000000E+03 0. -1.
<mgrwt>
<rscale>  2 0.20463785E+03</rscale>
<asrwt>0</asrwt>
<pdfrwt beam="1">  1       21 0.36415771E-01 0.20463785E+03</pdfrwt>
<pdfrwt beam="2">  1       21 0.28422862E-01 0.20463785E+03</pdfrwt>
<totfact> 0.85635972E+04</totfact>
</mgrwt>
</event>
<event>
 4    1  0.4319182E+000  0.1770899E+03  0.7546771E-02  0.1170650E+00
         21   -1    0    0  503  502  0.00000000000E+00  0.00000000000E+00  0.28067266923E+02  0.28067266923E+02  0.00000000000E+00 0. -1.
         21   -1    0    0  501  503 -0.00000000000E+00 -0.00000000000E+00 -0.16744552858E+04  0.16744552858E+04  0.00000000000E+00 0. -1.
          6    1    1    2  501    0  0.14587639852E+02  0.34914491423E+02 -0.13142111815E+04  0.13260889301E+04  0.17300000000E+03 0. -1.
         -6    1    1    2    0  502 -0.14587639852E+02 -0.34914491423E+02 -0.33217683732E+03  0.37643362257E+03  0.17300000000E+03 0. -1.
<mgrwt>
<rscale>  2 0.17708987E+03</rscale>
<asrwt>0</asrwt>
<pdfrwt beam="1">  1       21 0.43180410E-02 0.17708987E+03</pdfrwt>
<pdfrwt beam="2">  1       21 0.25760851E+00 0.17708987E+03</pdfrwt>
<totfact> 0.20974346E+04</totfact>
</mgrwt>
</event>
<event>
 4    1  0.4319182E+000  0.1981437E+03  0.7546771E-02  0.1151315E+00
         21   -1    0    0  501  502  0.00000000000E+00  0.00000000000E+00  0.13565421783E+03  0.13565421783E+03  0.00000000000E+00 0.  1.
         21   -1    0    0  502  503 -0.00000000000E+00 -0.00000000000E+00 -0.29559852533E+03  0.29559852533E+03  0.00000000000E+00 0. -1.
          6    1    1    2  501    0  0.44982626435E+02  0.85489709822E+02 -0.48795941086E+02  0.20406364456E+03  0.17300000000E+03 0.  1.
         -6    1    1    2    0  503 -0.44982626435E+02 -0.85489709822E+02 -0.11114836641E+03  0.22718909860E+03  0.17300000000E+03 0.  1.
<mgrwt>
<rscale>  2 0.19814370E+03</rscale>
<asrwt>0</asrwt>
<pdfrwt beam="1">  1       21 0.20869880E-01 0.19814370E+03</pdfrwt>
<pdfrwt beam="2">  1       21 0.45476696E-01 0.19814370E+03</pdfrwt>
<totfact> 0.98622269E+04</totfact>
</mgrwt>
</event>
<event>
 4    1  0.4319182E+000  0.2371881E+03  0.7546771E-02  0.1121680E+00
         21   -1    0    0  501  502  0.00000000000E+00  0.00000000000E+00  0.50175694575E+03  0.50175694575E+03  0.00000000000E+00 0. -1.
         21   -1    0    0  502  503 -0.00000000000E+00 -0.00000000000E+00 -0.11580586824E+03  0.11580586824E+03  0.00000000000E+00 0. -1.
          6    1    1    2  501    0 -0.63472959010E+02 -0.14933310673E+03  0.24804543851E+03  0.34319780427E+03  0.17300000000E+03 0.  1.
         -6    1    1    2    0  503  0.63472959010E+02  0.14933310673E+03  0.13790563900E+03  0.27436500972E+03  0.17300000000E+03 0.  1.
<mgrwt>
<rscale>  2 0.23718810E+03</rscale>
<asrwt>0</asrwt>
<pdfrwt beam="1">  1       21 0.77193375E-01 0.23718810E+03</pdfrwt>
<pdfrwt beam="2">  1       21 0.17816288E-01 0.23718810E+03</pdfrwt>
<totfact> 0.41735535E+04</totfact>
</mgrwt>
</event>
<event>
 4    1  0.4319182E+000  0.3234077E+03  0.7546771E-02  0.1074092E+00
         21   -1    0    0  503  502  0.00000000000E+00  0.00000000000E+00  0.13241204987E+03  0.13241204987E+03  0.00000000000E+00 0.  1.
         21   -1    0    0  501  503 -0.00000000000E+00 -0.00000000000E+00 -0.79145184764E+03  0.79145184764E+03  0.00000000000E+00 0. -1.
          6    1    1    2  501    0 -0.25398120099E+03 -0.10078242976E+03 -0.34996100239E+03  0.47651364283E+03  0.17300000000E+03 0.  1.
         -6    1    1    2    0  502  0.25398120099E+03  0.10078242976E+03 -0.30907879538E+03  0.44735025468E+03  0.17300000000E+03 0.  1.
<mgrwt>
<rscale>  2 0.32340771E+03</rscale>
<asrwt>0</asrwt>
<pdfrwt beam="1">  1       21 0.20371084E-01 0.32340771E+03</pdfrwt>
<pdfrwt beam="2">  1       21 0.12176182E+00 0.32340771E+03</pdfrwt>
<totfact> 0.10556286E+04</totfact>
</mgrwt>
</event>
<event>
 4    1  0.4319182E+000  0.3265747E+03  0.7546771E-02  0.1072663E+00
         21   -1    0    0  501  502  0.00000000000E+00  0.00000000000E+00  0.47718140829E+03  0.47718140829E+03  0.00000000000E+00 0.  1.
         21   -1    0    0  502  503 -0.00000000000E+00 -0.00000000000E+00 -0.22930274432E+03  0.22930274432E+03  0.00000000000E+00 0. -1.
          6    1    1    2  501    0 -0.23797164420E+03  0.14174466775E+03  0.67756278792E+02  0.33352956030E+03  0.17300000000E+03 0. -1.
         -6    1    1    2    0  503  0.23797164420E+03 -0.14174466775E+03  0.18012238518E+03  0.37295459230E+03  0.17300000000E+03 0.  1.
<mgrwt>
<rscale>  2 0.32657473E+03</rscale>
<asrwt>0</asrwt>
<pdfrwt beam="1">  1       21 0.73412524E-01 0.32657473E+03</pdfrwt>
<pdfrwt beam="2">  1       21 0.35277345E-01 0.32657473E+03</pdfrwt>
<totfact> 0.12048651E+04</totfact>
</mgrwt>
</event>
<event>
 4    1  0.4319182E+000  0.3007064E+03  0.7546771E-02  0.1084888E+00
         21   -1    0    0  501  502  0.00000000000E+00  0.00000000000E+00  0.12541934852E+04  0.12541934852E+04  0.00000000000E+00 0. -1.
         21   -1    0    0  502  503 -0.00000000000E+00 -0.00000000000E+00 -0.89359931453E+02  0.89359931453E+02  0.00000000000E+00 0.  1.
          6    1    1    2  501    0 -0.19420277071E+03  0.15093242698E+03  0.87767603249E+03  0.92776049263E+03  0.17300000000E+03 0. -1.
         -6    1    1    2    0  503  0.19420277071E+03 -0.15093242698E+03  0.28715752129E+03  0.41579292406E+03  0.17300000000E+03 0. -1.
<mgrwt>
<rscale>  2 0.30070636E+03</rscale>
<asrwt>0</asrwt>
<pdfrwt beam="1">  1       21 0.19295283E+00 0.30070636E+03</pdfrwt>
<pdfrwt beam="2">  1       21 0.13747683E-01 0.30070636E+03</pdfrwt>
<totfact> 0.63457770E+03</totfact>
</mgrwt>
</event>
<event>
 4    1  0.4319182E+000  0.2595825E+03  0.7546771E-02  0.1107394E+00
         21   -1    0    0  501  502  0.00000000000E+00  0.00000000000E+00  0.10454153140E+03  0.10454153140E+03  0.00000000000E+00 0. -1.
         21   -1    0    0  502  503 -0.00000000000E+00 -0.00000000000E+00 -0.64536442158E+03  0.64536442158E+03  0.00000000000E+00 0. -1.
          6    1    1    2  501    0  0.16320580879E+03  0.10400939704E+03 -0.28366489208E+03  0.38451119840E+03  0.17300000000E+03 0. -1.
         -6    1    1    2    0  503 -0.16320580879E+03 -0.10400939704E+03 -0.25715799810E+03  0.36539475459E+03  0.17300000000E+03 0. -1.
<mgrwt>
<rscale>  2 0.25958253E+03</rscale>
<asrwt>0</asrwt>
<pdfrwt beam="1">  1       21 0.16083313E-01 0.25958253E+03</pdfrwt>
<pdfrwt beam="2">  1       21 0.99286832E-01 0.25958253E+03</pdfrwt>
<totfact> 0.27856810E+04</totfact>
</mgrwt>
</event>
<event>
 4    1  0.4319182E+000  0.1809784E+03  0.7546771E-02  0.1166859E+00
         21   -1    0    0  503  502  0.00000000000E+00  0.00000000000E+00  0.16481198236E+03  0.16481198236E+03  0.00000000000E+00 0.  1.
         21   -1    0    0  501  503 -0.00000000000E+00 -0.00000000000E+00 -0.45303480296E+03  0.45303480296E+03  0.00000000000E+00 0.  1.
          6    1    1    2  501    0 -0.35287485233E+02  0.39736443891E+02 -0.37556383925E+03  0.41689493754E+03  0.17300000000E+03 0.  1.
         -6    1    1    2    0  502  0.35287485233E+02 -0.39736443891E+02  0.87341018654E+02  0.20095184778E+03  0.17300000000E+03 0.  1.
<mgrwt>
<rscale>  2 0.18097843E+03</rscale>
<asrwt>0</asrwt>
<pdfrwt beam="1">  1       21 0.25355690E-01 0.18097843E+03</pdfrwt>
<pdfrwt beam="2">  1       21 0.69697661E-01 0.18097843E+03</pdfrwt>
<totfact> 0.27759584E+04</totfact>
</mgrwt>
</event>
<event>
 4    1  0.4319182E+000  0.2088590E+03  0.7546771E-02  0.1142473E+00
         21   -1    0    0  503  502  0.00000000000E+00  0.00000000000E+00  0.12071859162E+03  0.12071859162E+03  0.00000000000E+00 0. -1.
         21   -1    0    0  501  503 -0.00000000000E+00 -0.00000000000E+00 -0.40130343731E+03  0.40130343731E+03  0.00000000000E+00 0. -1.
          6    1    1    2  501    0  0.11607501677E+03 -0.14821310720E+02 -0.22264565775E+03  0.30527556353E+03  0.17300000000E+03 0. -1.
         -6    1    1    2    0  502 -0.11607501677E+03  0.14821310720E+02 -0.57939187935E+02  0.21674646541E+03  0.17300000000E+03 0. -1.
<mgrwt>
<rscale>  2 0.20885900E+03</rscale>
<asrwt>0</asrwt>
<pdfrwt beam="1">  1       21 0.18572091E-01 0.20885900E+03</pdfrwt>
<pdfrwt beam="2">  1       21 0.61738990E-01 0.20885900E+03</pdfrwt>
<totfact> 0.64082313E+04</totfact>
</mgrwt>
</event>
<event>
 4    1  0.4319182E+000  0.1747581E+03  0.7546771E-02  0.1172975E+00
         21   -1    0    0  501  502  0.00000000000E+00  0.00000000000E+00  0.94966416151E+03  0.94966416151E+03  0.00000000000E+00 0.  1.
         21   -1    0    0  502  503 -0.00000000000E+00 -0.00000000000E+00 -0.39641070282E+02  0.39641070282E+02  0.00000000000E+00 0.  1.
          6    1    1    2  501    0  0.17174430669E+02 -0.17788984166E+02  0.66991017667E+03  0.69232944025E+03  0.17300000000E+03 0.  1.
         -6    1    1    2    0  503 -0.17174430669E+02  0.17788984166E+02  0.24011291456E+03  0.29697579155E+03  0.17300000000E+03 0.  1.
<mgrwt>
<rscale>  2 0.17475814E+03</rscale>
<asrwt>0</asrwt>
<pdfrwt beam="1">  1       21 0.14610216E+00 0.17475814E+03</pdfrwt>
<pdfrwt beam="2">  1       21 0.60986269E-02 0.17475814E+03</pdfrwt>
<totfact> 0.62002539E+04</totfact>
</mgrwt>
</event>
<event>
 4    1  0.4319182E+000  0.1869128E+03  0.7546771E-02  0.1161276E+00
         21   -1    0    0  501  502  0.00000000000E+00  0.00000000000E+00  0.18627303389E+03  0.18627303389E+03  0.00000000000E+00 0.  1.
         21   -1    0    0  502  503 -0.00000000000E+00 -0.00000000000E+00 -0.50190091754E+03  0.50190091754E+03  0.00000000000E+00 0.  1.
          6    1    1    2  501    0 -0.69583665719E+02 -0.12864664138E+02  0.11449590583E+03  0.21919329043E+03  0.17300000000E+03 0.  1.
         -6    1    1    2    0  503  0.69583665719E+02  0.12864664138E+02 -0.43012378948E+03  0.46898066100E+03  0.17300000000E+03 0.  1.
<mgrwt>
<rscale>  2 0.18691278E+03</rscale>
<asrwt>0</asrwt>
<pdfrwt beam="1">  1       21 0.28657390E-01 0.18691278E+03</pdfrwt>
<pdfrwt beam="2">  1       21 0.77215526E-01 0.18691278E+03</pdfrwt>
<totfact> 0.17412713E+04</totfact>
</mgrwt>
</event>
<event>
 4    1  0.4319182E+000  0.2029749E+03  0.7546771E-02  0.1147253E+00
         21   -1    0    0  503  502  0.00000000000E+00  0.00000000000E+00  0.58049979224E+03  0.58049979224E+03  0.00000000000E+00 0.  1.
         21   -1    0    0  501  503 -0.00000000000E+00 -0.00000000000E+00 -0.36222767641E+03  0.36222767641E+03  0.00000000000E+00 0. -1.
          6    1    1    2  501    0  0.75453483364E+02  0.74676619510E+02 -0.31353554504E+03  0.37350149084E+03  0.17300000000E+03 0. -1.
         -6    1    1    2    0  502 -0.75453483364E+02 -0.74676619510E+02  0.53180766087E+03  0.56922597781E+03  0.17300000000E+03 0.  1.
<mgrwt>
<rscale>  2 0.20297494E+03</rscale>
<asrwt>0</asrwt>
<pdfrwt beam="1">  1       21 0.89307660E-01 0.20297494E+03</pdfrwt>
<pdfrwt beam="2">  1       21 0.55727335E-01 0.20297494E+03</pdfrwt>
<totfact> 0.32164793E+03</totfact>
</mgrwt>
</event>
<event>
 4    1  0.4319182E+000  0.2292121E+03  0.7546771E-02  0.1127196E+00
         21   -1    0    0  501  502  0.00000000000E+00  0.00000000000E+00  0.10113594297E+04  0.10113594297E+04  0.00000000000E+00 0.  1.
         21   -1    0    0  502  503 -0.00000000000E+00 -0.00000000000E+00 -0.47030163164E+03  0.47030163164E+03  0.00000000000E+00 0.  1.
          6    1    1    2  501    0 -0.98568448534E+02 -0.11354939212E+03  0.96924756850E+03  0.99598145190E+03  0.17300000000E+03 0.  1.
         -6    1    1    2    0  503  0.98568448534E+02  0.11354939212E+03 -0.42818977045E+03  0.48567960943E+03  0.17300000000E+03 0.  1.
<mgrwt>
<rscale>  2 0.22921214E+03</rscale>
<asrwt>0</asrwt>
<pdfrwt beam="1">  1       21 0.15559376E+00 0.22921214E+03</pdfrwt>
<pdfrwt beam="2">  1       21 0.72354097E-01 0.22921214E+03</pdfrwt>
<totfact> 0.44904036E+02</totfact>
</mgrwt>
</event>
<event>
 4    1  0.4319182E+000  0.2543892E+03  0.7546771E-02  0.1110562E+00
         21   -1    0    0  503  502  0.00000000000E+00  0.00000000000E+00  0.15133652178E+03  0.15133652178E+03  0.00000000000E+00 0. -1.
         21   -1    0    0  501  503 -0.00000000000E+00 -0.00000000000E+00 -0.45539976527E+03  0.45539976527E+03  0.00000000000E+00 0. -1.
          6    1    1    2  501    0  0.16026001035E+03  0.95402183723E+02 -0.22696456052E+03  0.34092045891E+03  0.17300000000E+03 0. -1.
         -6    1    1    2    0  502 -0.16026001035E+03 -0.95402183723E+02 -0.77098682973E+02  0.26581582814E+03  0.17300000000E+03 0. -1.
<mgrwt>
<rscale>  2 0.25438917E+03</rscale>
<asrwt>0</asrwt>
<pdfrwt beam="1">  1       21 0.23282542E-01 0.25438917E+03</pdfrwt>
<pdfrwt beam="2">  1       21 0.70061501E-01 0.25438917E+03</pdfrwt>
<totfact> 0.31103599E+04</totfact>
</mgrwt>
</event>
<event>
 4    1  0.4319182E+000  0.2072569E+03  0.7546771E-02  0.1143757E+00
         21   -1    0    0  503  502  0.00000000000E+00  0.00000000000E+00  0.91900314883E+03  0.91900314883E+03  0.00000000000E+00 0.  1.
         21   -1    0    0  501  503 -0.00000000000E+00 -0.00000000000E+00 -0.75521012062E+02  0.75521012062E+02  0.00000000000E+00 0.  1.
          6    1    1    2  501    0 -0.98510362374E+02  0.57637893977E+02  0.11477206140E+03  0.23691358002E+03  0.17300000000E+03 0.  1.
         -6    1    1    2    0  502  0.98510362374E+02 -0.57637893977E+02  0.72871007536E+03  0.75761058088E+03  0.17300000000E+03 0.  1.
<mgrwt>
<rscale>  2 0.20725689E+03</rscale>
<asrwt>0</asrwt>
<pdfrwt beam="1">  1       21 0.14138509E+00 0.20725689E+03</pdfrwt>
<pdfrwt beam="2">  1       21 0.11618618E-01 0.20725689E+03</pdfrwt>
<totfact> 0.21481362E+04</totfact>
</mgrwt>
</event>
<event>
 4    1  0.4319182E+000  0.2076942E+03  0.7546771E-02  0.1143405E+00
         21   -1    0    0  501  502  0.00000000000E+00  0.00000000000E+00  0.14367809744E+04  0.14367809744E+04  0.00000000000E+00 0. -1.
         21   -1    0    0  502  503 -0.00000000000E+00 -0.00000000000E+00 -0.12087710801E+03  0.12087710801E+03  0.00000000000E+00 0.  1.
          6    1    1    2  501    0  0.10861501837E+03 -0.37558528543E+02  0.13331664056E+04  0.13492477647E+04  0.17300000000E+03 0. -1.
         -6    1    1    2    0  503 -0.10861501837E+03  0.37558528543E+02 -0.17262539260E+02  0.20841031775E+03  0.17300000000E+03 0.  1.
<mgrwt>
<rscale>  2 0.20769416E+03</rscale>
<asrwt>0</asrwt>
<pdfrwt beam="1">  1       21 0.22104321E+00 0.20769416E+03</pdfrwt>
<pdfrwt beam="2">  1       21 0.18596479E-01 0.20769416E+03</pdfrwt>
<totfact> 0.25798649E+03</totfact>
</mgrwt>
</event>
<event>
 4    1  0.4319182E+000  0.1752776E+03  0.7546771E-02  0.1172453E+00
         21   -1    0    0  501  502  0.00000000000E+00  0.00000000000E+00  0.54234137171E+02  0.54234137171E+02  0.00000000000E+00 0.  1.
         21   -1    0    0  502  503 -0.00000000000E+00 -0.00000000000E+00 -0.75822779127E+03  0.75822779127E+03  0.00000000000E+00 0.  1.
          6    1    1    2  501    0 -0.15109136392E+02 -0.23768717833E+02 -0.14770783802E+03  0.22921571360E+03  0.17300000000E+03 0.  1.
         -6    1    1    2    0  503  0.15109136392E+02  0.23768717833E+02 -0.55628581608E+03  0.58324621484E+03  0.17300000000E+03 0.  1.
<mgrwt>
<rscale>  2 0.17527760E+03</rscale>
<asrwt>0</asrwt>
<pdfrwt beam="1">  1       21 0.83437138E-02 0.17527760E+03</pdfrwt>
<pdfrwt beam="2">  1       21 0.11665042E+00 0.17527760E+03</pdfrwt>
<totfact> 0.63683480E+04</totfact>
</mgrwt>
</event>
<event>
 4    1  0.4319182E+000  0.1769107E+03  0.7546771E-02  0.1170827E+00
         21   -1    0    0  503  502  0.00000000000E+00  0.00000000000E+00  0.16271154126E+03  0.16271154126E+03  0.00000000000E+00 0. -1.
         21   -1    0    0  501  503 -0.00000000000E+00 -0.00000000000E+00 -0.28601904383E+03  0.28601904383E+03  0.00000000000E+00 0. -1.
          6    1    1    2  501    0 -0.14439435919E+02  0.34057147927E+02 -0.19005190680E+03  0.25964805779E+03  0.17300000000E+03 0. -1.
         -6    1    1    2    0  502  0.14439435919E+02 -0.34057147927E+02  0.66744404225E+02  0.18908252730E+03  0.17300000000E+03 0. -1.
<mgrwt>
<rscale>  2 0.17691067E+03</rscale>
<asrwt>0</asrwt>
<pdfrwt beam="1">  1       21 0.25032545E-01 0.17691067E+03</pdfrwt>
<pdfrwt beam="2">  1       21 0.44002930E-01 0.17691067E+03</pdfrwt>
<totfact> 0.75457163E+04</totfact>
</mgrwt>
</event>
<event>
 4    1  0.4319182E+000  0.3374001E+03  0.7546771E-02  0.1067909E+00
         21   -1    0    0  501  502  0.00000000000E+00  0.00000000000E+00  0.33384883818E+03  0.33384883818E+03  0.00000000000E+00 0.  1.
         21   -1    0    0  502  503 -0.00000000000E+00 -0.00000000000E+00 -0.34652597770E+03  0.34652597770E+03  0.00000000000E+00 0. -1.
          6    1    1    2  501    0  0.14717899887E+03  0.24949585087E+03 -0.49339729071E+02  0.34098863057E+03  0.17300000000E+03 0. -1.
         -6    1    1    2    0  503 -0.14717899887E+03 -0.24949585087E+03  0.36662589548E+02  0.33938618532E+03  0.17300000000E+03 0.  1.
<mgrwt>
<rscale>  2 0.33740011E+03</rscale>
<asrwt>0</asrwt>
<pdfrwt beam="1">  1       21 0.51361360E-01 0.33740011E+03</pdfrwt>
<pdfrwt beam="2">  1       21 0.53311689E-01 0.33740011E+03</pdfrwt>
<totfact> 0.11138679E+04</totfact>
</mgrwt>
</event>
<event>
 4    1  0.4319182E+000  0.2342912E+03  0.7546771E-02  0.1123655E+00
         21   -1    0    0  503  502  0.00000000000E+00  0.00000000000E+00  0.28541718443E+04  0.28541718443E+04  0.00000000000E+00 0.  1.
         21   -1    0    0  501  503 -0.00000000000E+00 -0.00000000000E+00 -0.20948281019E+02  0.20948281019E+02  0.00000000000E+00 0. -1.
          6    1    1    2  501    0 -0.10021921561E+03  0.12214525915E+03  0.10051731172E+04  0.10321169271E+04  0.17300000000E+03 0. -1.
         -6    1    1    2    0  502  0.10021921561E+03 -0.12214525915E+03  0.18280504460E+04  0.18430031982E+04  0.17300000000E+03 0.  1.
<mgrwt>
<rscale>  2 0.23429118E+03</rscale>
<asrwt>0</asrwt>
<pdfrwt beam="1">  1       21 0.43910305E+00 0.23429118E+03</pdfrwt>
<pdfrwt beam="2">  1       21 0.32228147E-02 0.23429118E+03</pdfrwt>
<totfact> 0.26066674E+03</totfact>
</mgrwt>
</event>
<event>
 4    1  0.4319182E+000  0.2207412E+03  0.7546771E-02  0.1133332E+00
         21   -1    0    0  501  502  0.00000000000E+00  0.00000000000E+00  0.29843579246E+02  0.29843579246E+02  0.00000000000E+00 0. -1.
         21   -1    0    0  502  503 -0.00000000000E+00 -0.00000000000E+00 -0.17726591387E+04  0.17726591387E+04  0.00000000000E+00 0. -1.
          6    1    1    2  501    0 -0.12738346173E+03 -0.50706425619E+02 -0.61819944581E+03  0.65642763708E+03  0.17300000000E+03 0. -1.
         -6    1    1    2    0  503  0.12738346173E+03  0.50706425619E+02 -0.11246161137E+04  0.11460750809E+04  0.17300000000E+03 0. -1.
<mgrwt>
<rscale>  2 0.22074122E+03</rscale>
<asrwt>0</asrwt>
<pdfrwt beam="1">  1       21 0.45913201E-02 0.22074122E+03</pdfrwt>
<pdfrwt beam="2">  1       21 0.27271678E+00 0.22074122E+03</pdfrwt>
<totfact> 0.14846499E+04</totfact>
</mgrwt>
</event>
<event>
 4    1  0.4319182E+000  0.1841219E+03  0.7546771E-02  0.1163872E+00
         21   -1    0    0  503  502  0.00000000000E+00  0.00000000000E+00  0.66682989895E+02  0.66682989895E+02  0.00000000000E+00 0. -1.
         21   -1    0    0  501  503 -0.00000000000E+00 -0.00000000000E+00 -0.51101110472E+03  0.51101110472E+03  0.00000000000E+00 0. -1.
          6    1    1    2  501    0 -0.62867446377E+02  0.44228638289E+01 -0.20147199058E+03  0.27293193387E+03  0.17300000000E+03 0. -1.
         -6    1    1    2    0  502  0.62867446377E+02 -0.44228638289E+01 -0.24285612425E+03  0.30476216075E+03  0.17300000000E+03 0. -1.
<mgrwt>
<rscale>  2 0.18412191E+03</rscale>
<asrwt>0</asrwt>
<pdfrwt beam="1">  1       21 0.10258921E-01 0.18412191E+03</pdfrwt>
<pdfrwt beam="2">  1       21 0.78617096E-01 0.18412191E+03</pdfrwt>
<totfact> 0.11131018E+05</totfact>
</mgrwt>
</event>
<event>
 4    1  0.4319182E+000  0.1854165E+03  0.7546771E-02  0.1162662E+00
         21   -1    0    0  503  502  0.00000000000E+00  0.00000000000E+00  0.46766748689E+03  0.46766748689E+03  0.00000000000E+00 0. -1.
         21   -1    0    0  501  503 -0.00000000000E+00 -0.00000000000E+00 -0.12138669992E+03  0.12138669992E+03  0.00000000000E+00 0. -1.
          6    1    1    2  501    0  0.53875526511E+02 -0.39340740979E+02 -0.11825570529E+02  0.18579319249E+03  0.17300000000E+03 0. -1.
         -6    1    1    2    0  502 -0.53875526511E+02  0.39340740979E+02  0.35810635750E+03  0.40326099432E+03  0.17300000000E+03 0. -1.
<mgrwt>
<rscale>  2 0.18541647E+03</rscale>
<asrwt>0</asrwt>
<pdfrwt beam="1">  1       21 0.71948843E-01 0.18541647E+03</pdfrwt>
<pdfrwt beam="2">  1       21 0.18674877E-01 0.18541647E+03</pdfrwt>
<totfact> 0.45893875E+04</totfact>
</mgrwt>
</event>
<event>
 4    1  0.4319182E+000  0.1786651E+03  0.7546771E-02  0.1169101E+00
         21   -1    0    0  503  502  0.00000000000E+00  0.00000000000E+00  0.11475177768E+03  0.11475177768E+03  0.00000000000E+00 0. -1.
         21   -1    0    0  501  503 -0.00000000000E+00 -0.00000000000E+00 -0.52902688810E+03  0.52902688810E+03  0.00000000000E+00 0. -1.
          6    1    1    2  501    0  0.13748855351E+01 -0.44613272489E+02 -0.42879136598E+03  0.46452477860E+03  0.17300000000E+03 0. -1.
         -6    1    1    2    0  502 -0.13748855351E+01  0.44613272489E+02  0.14516255564E+02  0.17925388718E+03  0.17300000000E+03 0. -1.
<mgrwt>
<rscale>  2 0.17866515E+03</rscale>
<asrwt>0</asrwt>
<pdfrwt beam="1">  1       21 0.17654119E-01 0.17866515E+03</pdfrwt>
<pdfrwt beam="2">  1       21 0.81388753E-01 0.17866515E+03</pdfrwt>
<totfact> 0.38774547E+04</totfact>
</mgrwt>
</event>
<event>
 4    1  0.4319182E+000  0.1922170E+03  0.7546771E-02  0.1156477E+00
         21   -1    0    0  501  502  0.00000000000E+00  0.00000000000E+00  0.41990681575E+02  0.41990681575E+02  0.00000000000E+00 0.  1.
         21   -1    0    0  502  503 -0.00000000000E+00 -0.00000000000E+00 -0.12954930803E+04  0.12954930803E+04  0.00000000000E+00 0. -1.
          6    1    1    2  501    0  0.73099579056E+02  0.40924832579E+02 -0.24797930606E+03  0.31375328941E+03  0.17300000000E+03 0.  1.
         -6    1    1    2    0  503 -0.73099579056E+02 -0.40924832579E+02 -0.10055230926E+04  0.10237304725E+04  0.17300000000E+03 0. -1.
<mgrwt>
<rscale>  2 0.19221704E+03</rscale>
<asrwt>0</asrwt>
<pdfrwt beam="1">  1       21 0.64601064E-02 0.19221704E+03</pdfrwt>
<pdfrwt beam="2">  1       21 0.19930658E+00 0.19221704E+03</pdfrwt>
<totfact> 0.23571695E+04</totfact>
</mgrwt>
</event>
<event>
 4    1  0.4319182E+000  0.1776184E+03  0.7546771E-02  0.1170128E+00
         21   -1    0    0  503  502  0.00000000000E+00  0.00000000000E+00  0.15031319509E+03  0.15031319509E+03  0.00000000000E+00 0.  1.
         21   -1    0    0  501  503 -0.00000000000E+00 -0.00000000000E+00 -0.25537899653E+03  0.25537899653E+03  0.00000000000E+00 0.  1.
          6    1    1    2  501    0  0.34240067799E+02 -0.21140222117E+02 -0.13814935964E+03  0.22501896987E+03  0.17300000000E+03 0.  1.
         -6    1    1    2    0  502 -0.34240067799E+02  0.21140222117E+02  0.33083558205E+02  0.18067322175E+03  0.17300000000E+03 0.  1.
<mgrwt>
<rscale>  2 0.17761839E+03</rscale>
<asrwt>0</asrwt>
<pdfrwt beam="1">  1       21 0.23125107E-01 0.17761839E+03</pdfrwt>
<pdfrwt beam="2">  1       21 0.39289077E-01 0.17761839E+03</pdfrwt>
<totfact> 0.11031774E+05</totfact>
</mgrwt>
</event>
<event>
 4    1  0.4319182E+000  0.2057931E+03  0.7546771E-02  0.1144941E+00
         21   -1    0    0  501  502  0.00000000000E+00  0.00000000000E+00  0.53163062393E+02  0.53163062393E+02  0.00000000000E+00 0. -1.
         21   -1    0    0  502  503 -0.00000000000E+00 -0.00000000000E+00 -0.87443093770E+03  0.87443093770E+03  0.00000000000E+00 0. -1.
          6    1    1    2  501    0 -0.79765021565E+02  0.77841859961E+02 -0.27228283913E+03  0.34130449501E+03  0.17300000000E+03 0. -1.
         -6    1    1    2    0  503  0.79765021565E+02 -0.77841859961E+02 -0.54898503618E+03  0.58628950509E+03  0.17300000000E+03 0. -1.
<mgrwt>
<rscale>  2 0.20579313E+03</rscale>
<asrwt>0</asrwt>
<pdfrwt beam="1">  1       21 0.81789330E-02 0.20579313E+03</pdfrwt>
<pdfrwt beam="2">  1       21 0.13452783E+00 0.20579313E+03</pdfrwt>
<totfact> 0.45431768E+04</totfact>
</mgrwt>
</event>
<event>
 4    1  0.4319182E+000  0.3504371E+03  0.7546771E-02  0.1062436E+00
         21   -1    0    0  501  502  0.00000000000E+00  0.00000000000E+00  0.34820602504E+03  0.34820602504E+03  0.00000000000E+00 0. -1.
         21   -1    0    0  502  503 -0.00000000000E+00 -0.00000000000E+00 -0.41365501357E+03  0.41365501357E+03  0.00000000000E+00 0.  1.
          6    1    1    2  501    0 -0.20993919849E+03 -0.22091332813E+03  0.11352478399E+03  0.36836672243E+03  0.17300000000E+03 0. -1.
         -6    1    1    2    0  503  0.20993919849E+03  0.22091332813E+03 -0.17897377252E+03  0.39349431617E+03  0.17300000000E+03 0.  1.
<mgrwt>
<rscale>  2 0.35043711E+03</rscale>
<asrwt>0</asrwt>
<pdfrwt beam="1">  1       21 0.53570158E-01 0.35043711E+03</pdfrwt>
<pdfrwt beam="2">  1       21 0.63639233E-01 0.35043711E+03</pdfrwt>
<totfact> 0.69019973E+03</totfact>
</mgrwt>
</event>
<event>
 4    1  0.4319182E+000  0.1957568E+03  0.7546771E-02  0.1153369E+00
         21   -1    0    0  503  502  0.00000000000E+00  0.00000000000E+00  0.66301651777E+03  0.66301651777E+03  0.00000000000E+00 0. -1.
         21   -1    0    0  501  503 -0.00000000000E+00 -0.00000000000E+00 -0.62271248382E+02  0.62271248382E+02  0.00000000000E+00 0.  1.
          6    1    1    2  501    0  0.84120383168E+02  0.36269709544E+02  0.39757344698E+03  0.44315389702E+03  0.17300000000E+03 0.  1.
         -6    1    1    2    0  502 -0.84120383168E+02 -0.36269709544E+02  0.20317182241E+03  0.28213386914E+03  0.17300000000E+03 0.  1.
<mgrwt>
<rscale>  2 0.19575682E+03</rscale>
<asrwt>0</asrwt>
<pdfrwt beam="1">  1       21 0.10200254E+00 0.19575682E+03</pdfrwt>
<pdfrwt beam="2">  1       21 0.95801925E-02 0.19575682E+03</pdfrwt>
<totfact> 0.68437432E+04</totfact>
</mgrwt>
</event>
<event>
 4    1  0.4319182E+000  0.2225051E+03  0.7546771E-02  0.1132029E+00
         21   -1    0    0  503  502  0.00000000000E+00  0.00000000000E+00  0.24071008817E+03  0.24071008817E+03  0.00000000000E+00 0. -1.
         21   -1    0    0  501  503 -0.00000000000E+00 -0.00000000000E+00 -0.23393014676E+03  0.23393014676E+03  0.00000000000E+00 0. -1.
          6    1    1    2  501    0 -0.13992585942E+03 -0.53341625260E+00 -0.79085501595E+02  0.23614200649E+03  0.17300000000E+03 0. -1.
         -6    1    1    2    0  502  0.13992585942E+03  0.53341625260E+00  0.85865443005E+02  0.23849822844E+03  0.17300000000E+03 0. -1.
<mgrwt>
<rscale>  2 0.22250513E+03</rscale>
<asrwt>0</asrwt>
<pdfrwt beam="1">  1       21 0.37032321E-01 0.22250513E+03</pdfrwt>
<pdfrwt beam="2">  1       21 0.35989253E-01 0.22250513E+03</pdfrwt>
<totfact> 0.51634210E+04</totfact>
</mgrwt>
</event>
<event>
 4    1  0.4319182E+000  0.1984830E+03  0.7546771E-02  0.1151025E+00
         21   -1    0    0  501  502  0.00000000000E+00  0.00000000000E+00  0.55166237517E+02  0.55166237517E+02  0.00000000000E+00 0.  1.
         21   -1    0    0  502  503 -0.00000000000E+00 -0.00000000000E+00 -0.94937172967E+03  0.94937172967E+03  0.00000000000E+00 0. -1.
          6    1    1    2  501    0 -0.41615249924E+02  0.87946895601E+02 -0.19707871763E+03  0.27970610722E+03  0.17300000000E+03 0.  1.
         -6    1    1    2    0  503  0.41615249924E+02 -0.87946895601E+02 -0.69712677452E+03  0.72483185997E+03  0.17300000000E+03 0. -1.
<mgrwt>
<rscale>  2 0.19848296E+03</rscale>
<asrwt>0</asrwt>
<pdfrwt beam="1">  1       21 0.84871140E-02 0.19848296E+03</pdfrwt>
<pdfrwt beam="2">  1       21 0.14605718E+00 0.19848296E+03</pdfrwt>
<totfact> 0.34574476E+04</totfact>
</mgrwt>
</event>
<event>
 4    1  0.4319182E+000  0.1858273E+03  0.7546771E-02  0.1162280E+00
         21   -1    0    0  501  502  0.00000000000E+00  0.00000000000E+00  0.25549863137E+03  0.25549863137E+03  0.00000000000E+00 0. -1.
         21   -1    0    0  502  503 -0.00000000000E+00 -0.00000000000E+00 -0.13525120366E+03  0.13525120366E+03  0.00000000000E+00 0.  1.
          6    1    1    2  501    0  0.53665865401E+02  0.41506192699E+02  0.54899448388E+02  0.19376722781E+03  0.17300000000E+03 0.  1.
         -6    1    1    2    0  503 -0.53665865401E+02 -0.41506192699E+02  0.65347979321E+02  0.19698260721E+03  0.17300000000E+03 0. -1.
<mgrwt>
<rscale>  2 0.18582731E+03</rscale>
<asrwt>0</asrwt>
<pdfrwt beam="1">  1       21 0.39307482E-01 0.18582731E+03</pdfrwt>
<pdfrwt beam="2">  1       21 0.20807878E-01 0.18582731E+03</pdfrwt>
<totfact> 0.13404878E+05</totfact>
</mgrwt>
</event>
<event>
 4    1  0.4319182E+000  0.3069507E+03  0.7546771E-02  0.1081817E+00
         21   -1    0    0  503  502  0.00000000000E+00  0.00000000000E+00  0.10593401661E+03  0.10593401661E+03  0.00000000000E+00 0. -1.
         21   -1    0    0  501  503 -0.00000000000E+00 -0.00000000000E+00 -0.11214887561E+04  0.11214887561E+04  0.00000000000E+00 0.  1.
          6    1    1    2  501    0 -0.28507179341E+02  0.25194660817E+03 -0.78695756023E+03  0.84470169542E+03  0.17300000000E+03 0. -1.
         -6    1    1    2    0  502  0.28507179341E+02 -0.25194660817E+03 -0.22859717927E+03  0.38272107730E+03  0.17300000000E+03 0.  1.
<mgrwt>
<rscale>  2 0.30695073E+03</rscale>
<asrwt>0</asrwt>
<pdfrwt beam="1">  1       21 0.16297542E-01 0.30695073E+03</pdfrwt>
<pdfrwt beam="2">  1       21 0.17253672E+00 0.30695073E+03</pdfrwt>
<totfact> 0.63912293E+03</totfact>
</mgrwt>
</event>
<event>
 4    1  0.4319182E+000  0.1806161E+03  0.7546771E-02  0.1167208E+00
         21   -1    0    0  503  502  0.00000000000E+00  0.00000000000E+00  0.49536586904E+03  0.49536586904E+03  0.00000000000E+00 0. -1.
         21   -1    0    0  501  503 -0.00000000000E+00 -0.00000000000E+00 -0.65931584365E+02  0.65931584365E+02  0.00000000000E+00 0. -1.
          6    1    1    2  501    0  0.49781704337E+02  0.14661572169E+02  0.20513453909E+03  0.27331732275E+03  0.17300000000E+03 0. -1.
         -6    1    1    2    0  502 -0.49781704337E+02 -0.14661572169E+02  0.22429974558E+03  0.28798013066E+03  0.17300000000E+03 0. -1.
<mgrwt>
<rscale>  2 0.18061611E+03</rscale>
<asrwt>0</asrwt>
<pdfrwt beam="1">  1       21 0.76210131E-01 0.18061611E+03</pdfrwt>
<pdfrwt beam="2">  1       21 0.10143321E-01 0.18061611E+03</pdfrwt>
<totfact> 0.12192260E+05</totfact>
</mgrwt>
</event>
<event>
 4    1  0.4319182E+000  0.2366367E+03  0.7546771E-02  0.1122054E+00
         21   -1    0    0  503  502  0.00000000000E+00  0.00000000000E+00  0.83679434979E+03  0.83679434979E+03  0.00000000000E+00 0. -1.
         21   -1    0    0  501  503 -0.00000000000E+00 -0.00000000000E+00 -0.11584195508E+03  0.11584195508E+03  0.00000000000E+00 0.  1.
          6    1    1    2  501    0 -0.13332229884E+03 -0.91066457971E+02  0.50931607430E+02  0.24205570386E+03  0.17300000000E+03 0.  1.
         -6    1    1    2    0  502  0.13332229884E+03  0.91066457971E+02  0.67002078728E+03  0.71058060100E+03  0.17300000000E+03 0. -1.
<mgrwt>
<rscale>  2 0.23663672E+03</rscale>
<asrwt>0</asrwt>
<pdfrwt beam="1">  1       21 0.12873759E+00 0.23663672E+03</pdfrwt>
<pdfrwt beam="2">  1       21 0.17821840E-01 0.23663672E+03</pdfrwt>
<totfact> 0.12307001E+04</totfact>
</mgrwt>
</event>
<event>
 4    1  0.4319182E+000  0.4119753E+03  0.7546771E-02  0.1039710E+00
         21   -1    0    0  501  502  0.00000000000E+00  0.00000000000E+00  0.16568097914E+04  0.16568097914E+04  0.00000000000E+00 0. -1.
         21   -1    0    0  502  503 -0.00000000000E+00 -0.00000000000E+00 -0.10695239792E+03  0.10695239792E+03  0.00000000000E+00 0.  1.
          6    1    1    2  501    0 -0.28618370893E+03  0.24061078976E+03  0.95606953058E+03  0.10410536080E+04  0.17300000000E+03 0. -1.
         -6    1    1    2    0  503  0.28618370893E+03 -0.24061078976E+03  0.59378786292E+03  0.72270858135E+03  0.17300000000E+03 0.  1.
<mgrwt>
<rscale>  2 0.41197532E+03</rscale>
<asrwt>0</asrwt>
<pdfrwt beam="1">  1       21 0.25489379E+00 0.41197532E+03</pdfrwt>
<pdfrwt beam="2">  1       21 0.16454216E-01 0.41197532E+03</pdfrwt>
<totfact> 0.17399945E+03</totfact>
</mgrwt>
</event>
<event>
 4    1  0.4319182E+000  0.2858877E+03  0.7546771E-02  0.1092516E+00
         21   -1    0    0  501  502  0.00000000000E+00  0.00000000000E+00  0.83590300146E+03  0.83590300146E+03  0.00000000000E+00 0. -1.
         21   -1    0    0  502  503 -0.00000000000E+00 -0.00000000000E+00 -0.97845269490E+02  0.97845269490E+02  0.00000000000E+00 0. -1.
          6    1    1    2  501    0 -0.85989692120E+02  0.21073329650E+03  0.35666008290E+03  0.45709754335E+03  0.17300000000E+03 0. -1.
         -6    1    1    2    0  503  0.85989692120E+02 -0.21073329650E+03  0.38139764907E+03  0.47665072760E+03  0.17300000000E+03 0. -1.
<mgrwt>
<rscale>  2 0.28588765E+03</rscale>
<asrwt>0</asrwt>
<pdfrwt beam="1">  1       21 0.12860046E+00 0.28588765E+03</pdfrwt>
<pdfrwt beam="2">  1       21 0.15053119E-01 0.28588765E+03</pdfrwt>
<totfact> 0.16424931E+04</totfact>
</mgrwt>
</event>
<event>
 4    1  0.4319182E+000  0.2335302E+03  0.7546771E-02  0.1124179E+00
         21   -1    0    0  503  502  0.00000000000E+00  0.00000000000E+00  0.27064019216E+02  0.27064019216E+02  0.00000000000E+00 0.  1.
         21   -1    0    0  501  503 -0.00000000000E+00 -0.00000000000E+00 -0.20364524478E+04  0.20364524478E+04  0.00000000000E+00 0. -1.
          6    1    1    2  501    0 -0.68057378966E+01  0.15671967511E+03 -0.11103732375E+04  0.11346651934E+04  0.17300000000E+03 0. -1.
         -6    1    1    2    0  502  0.68057378966E+01 -0.15671967511E+03 -0.89901519113E+03  0.92885127363E+03  0.17300000000E+03 0.  1.
<mgrwt>
<rscale>  2 0.23353024E+03</rscale>
<asrwt>0</asrwt>
<pdfrwt beam="1">  1       21 0.41636933E-02 0.23353024E+03</pdfrwt>
<pdfrwt beam="2">  1       21 0.31330052E+00 0.23353024E+03</pdfrwt>
<totfact> 0.10052141E+04</totfact>
</mgrwt>
</event>
<event>
 4    1  0.4319182E+000  0.1861661E+03  0.7546771E-02  0.1161965E+00
         21   -1    0    0  503  502  0.00000000000E+00  0.00000000000E+00  0.56233657336E+03  0.56233657336E+03  0.00000000000E+00 0.  1.
         21   -1    0    0  501  503 -0.00000000000E+00 -0.00000000000E+00 -0.80176009004E+02  0.80176009004E+02  0.00000000000E+00 0.  1.
          6    1    1    2  501    0  0.34164100863E+02 -0.59679523821E+02  0.86578588368E+02  0.20531362184E+03  0.17300000000E+03 0.  1.
         -6    1    1    2    0  502 -0.34164100863E+02  0.59679523821E+02  0.39558197599E+03  0.43719896052E+03  0.17300000000E+03 0.  1.
<mgrwt>
<rscale>  2 0.18616614E+03</rscale>
<asrwt>0</asrwt>
<pdfrwt beam="1">  1       21 0.86513317E-01 0.18616614E+03</pdfrwt>
<pdfrwt beam="2">  1       21 0.12334771E-01 0.18616614E+03</pdfrwt>
<totfact> 0.64471133E+04</totfact>
</mgrwt>
</event>
<event>
 4    1  0.4319182E+000  0.2080727E+03  0.7546771E-02  0.1143101E+00
         21   -1    0    0  501  502  0.00000000000E+00  0.00000000000E+00  0.78975668893E+03  0.78975668893E+03  0.00000000000E+00 0. -1.
         21   -1    0    0  502  503 -0.00000000000E+00 -0.00000000000E+00 -0.35903790160E+03  0.35903790160E+03  0.00000000000E+00 0.  1.
          6    1    1    2  501    0  0.99127039183E+02  0.59490246915E+02  0.74409042959E+03  0.77263498936E+03  0.17300000000E+03 0. -1.
         -6    1    1    2    0  503 -0.99127039183E+02 -0.59490246915E+02 -0.31337164227E+03  0.37615960117E+03  0.17300000000E+03 0.  1.
<mgrwt>
<rscale>  2 0.20807273E+03</rscale>
<asrwt>0</asrwt>
<pdfrwt beam="1">  1       21 0.12150103E+00 0.20807273E+03</pdfrwt>
<pdfrwt beam="2">  1       21 0.55236601E-01 0.20807273E+03</pdfrwt>
<totfact> 0.15598853E+03</totfact>
</mgrwt>
</event>
<event>
 4    1  0.4319182E+000  0.1892300E+03  0.7546771E-02  0.1159158E+00
         21   -1    0    0  501  502  0.00000000000E+00  0.00000000000E+00  0.36883674970E+03  0.36883674970E+03  0.00000000000E+00 0. -1.
         21   -1    0    0  502  503 -0.00000000000E+00 -0.00000000000E+00 -0.25701408863E+03  0.25701408863E+03  0.00000000000E+00 0. -1.
          6    1    1    2  501    0  0.75154737596E+02 -0.15190384721E+02  0.30275845496E+03  0.35703034104E+03  0.17300000000E+03 0. -1.
         -6    1    1    2    0  503 -0.75154737596E+02  0.15190384721E+02 -0.19093579389E+03  0.26882049728E+03  0.17300000000E+03 0. -1.
<mgrwt>
<rscale>  2 0.18922997E+03</rscale>
<asrwt>0</asrwt>
<pdfrwt beam="1">  1       21 0.56744116E-01 0.18922997E+03</pdfrwt>
<pdfrwt beam="2">  1       21 0.39540629E-01 0.18922997E+03</pdfrwt>
<totfact> 0.18037348E+04</totfact>
</mgrwt>
</event>
<event>
 4    1  0.4319182E+000  0.1840466E+03  0.7546771E-02  0.1163943E+00
         21   -1    0    0  501  502  0.00000000000E+00  0.00000000000E+00  0.35121903735E+04  0.35121903735E+04  0.00000000000E+00 0.  1.
         21   -1    0    0  502  503 -0.00000000000E+00 -0.00000000000E+00 -0.99908718845E+01  0.99908718845E+01  0.00000000000E+00 0.  1.
          6    1    1    2  501    0 -0.54328030379E+02 -0.31505854723E+02  0.20790296432E+04  0.20871601306E+04  0.17300000000E+03 0.  1.
         -6    1    1    2    0  503  0.54328030379E+02  0.31505854723E+02  0.14231698585E+04  0.14350211148E+04  0.17300000000E+03 0.  1.
<mgrwt>
<rscale>  2 0.18404661E+03</rscale>
<asrwt>0</asrwt>
<pdfrwt beam="1">  1       21 0.54033599E+00 0.18404661E+03</pdfrwt>
<pdfrwt beam="2">  1       21 0.15370600E-02 0.18404661E+03</pdfrwt>
<totfact> 0.18514298E+03</totfact>
</mgrwt>
</event>
<event>
 4    1  0.4319182E+000  0.1909048E+03  0.7546771E-02  0.1157648E+00
         21   -1    0    0  501  502  0.00000000000E+00  0.00000000000E+00  0.13826255662E+04  0.13826255662E+04  0.00000000000E+00 0.  1.
         21   -1    0    0  502  503 -0.00000000000E+00 -0.00000000000E+00 -0.27317974709E+02  0.27317974709E+02  0.00000000000E+00 0. -1.
          6    1    1    2  501    0 -0.59610890163E+02  0.54426073160E+02  0.80973663890E+03  0.83193634375E+03  0.17300000000E+03 0.  1.
         -6    1    1    2    0  503  0.59610890163E+02 -0.54426073160E+02  0.54557095261E+03  0.57800719719E+03  0.17300000000E+03 0.  1.
<mgrwt>
<rscale>  2 0.19090483E+03</rscale>
<asrwt>0</asrwt>
<pdfrwt beam="1">  1       21 0.21271157E+00 0.19090483E+03</pdfrwt>
<pdfrwt beam="2">  1       21 0.42027664E-02 0.19090483E+03</pdfrwt>
<totfact> 0.40297536E+04</totfact>
</mgrwt>
</event>
<event>
 4    1  0.4319182E+000  0.1929539E+03  0.7546771E-02  0.1155824E+00
         21   -1    0    0  501  502  0.00000000000E+00  0.00000000000E+00  0.73709446816E+02  0.73709446816E+02  0.00000000000E+00 0. -1.
         21   -1    0    0  502  503 -0.00000000000E+00 -0.00000000000E+00 -0.50538142713E+03  0.50538142713E+03  0.00000000000E+00 0. -1.
          6    1    1    2  501    0 -0.69723395500E+01 -0.85167996381E+02 -0.22257587283E+03  0.29456955086E+03  0.17300000000E+03 0. -1.
         -6    1    1    2    0  503  0.69723395500E+01  0.85167996381E+02 -0.20909610748E+03  0.28452132308E+03  0.17300000000E+03 0. -1.
<mgrwt>
<rscale>  2 0.19295388E+03</rscale>
<asrwt>0</asrwt>
<pdfrwt beam="1">  1       21 0.11339915E-01 0.19295388E+03</pdfrwt>
<pdfrwt beam="2">  1       21 0.77750990E-01 0.19295388E+03</pdfrwt>
<totfact> 0.95209265E+04</totfact>
</mgrwt>
</event>
<event>
 4    1  0.4319182E+000  0.3079421E+03  0.7546771E-02  0.1081336E+00
         21   -1    0    0  501  502  0.00000000000E+00  0.00000000000E+00  0.31673427877E+03  0.31673427877E+03  0.00000000000E+00 0.  1.
         21   -1    0    0  502  503 -0.00000000000E+00 -0.00000000000E+00 -0.30809143731E+03  0.30809143731E+03  0.00000000000E+00 0. -1.
          6    1    1    2  501    0 -0.49430744315E+02 -0.24991184508E+03 -0.48169698390E+02  0.31168677970E+03  0.17300000000E+03 0. -1.
         -6    1    1    2    0  503  0.49430744315E+02  0.24991184508E+03  0.56812539852E+02  0.31313893638E+03  0.17300000000E+03 0. -1.
<mgrwt>
<rscale>  2 0.30794209E+03</rscale>
<asrwt>0</asrwt>
<pdfrwt beam="1">  1       21 0.48728350E-01 0.30794209E+03</pdfrwt>
<pdfrwt beam="2">  1       21 0.47398683E-01 0.30794209E+03</pdfrwt>
<totfact> 0.16146565E+04</totfact>
</mgrwt>
</event>
<event>
 4    1  0.4319182E+000  0.1937392E+03  0.7546771E-02  0.1155131E+00
         21   -1    0    0  501  502  0.00000000000E+00  0.00000000000E+00  0.64250132307E+02  0.64250132307E+02  0.00000000000E+00 0.  1.
         21   -1    0    0  502  503 -0.00000000000E+00 -0.00000000000E+00 -0.87686777792E+03  0.87686777792E+03  0.00000000000E+00 0.  1.
          6    1    1    2  501    0  0.46896654424E+01 -0.87085582956E+02 -0.13445537023E+03  0.23582438021E+03  0.17300000000E+03 0.  1.
         -6    1    1    2    0  503 -0.46896654424E+01  0.87085582956E+02 -0.67816227538E+03  0.70529353001E+03  0.17300000000E+03 0.  1.
<mgrwt>
<rscale>  2 0.19373924E+03</rscale>
<asrwt>0</asrwt>
<pdfrwt beam="1">  1       21 0.98846369E-02 0.19373924E+03</pdfrwt>
<pdfrwt beam="2">  1       21 0.13490272E+00 0.19373924E+03</pdfrwt>
<totfact> 0.32576747E+04</totfact>
</mgrwt>
</event>
<event>
 4    1  0.4319182E+000  0.2230891E+03  0.7546771E-02  0.1131601E+00
         21   -1    0    0  501  502  0.00000000000E+00  0.00000000000E+00  0.31292566741E+03  0.31292566741E+03  0.00000000000E+00 0. -1.
         21   -1    0    0  502  503 -0.00000000000E+00 -0.00000000000E+00 -0.16183655197E+03  0.16183655197E+03  0.00000000000E+00 0. -1.
          6    1    1    2  501    0 -0.14028195750E+03 -0.12676925487E+02  0.10673076751E+03  0.24730586077E+03  0.17300000000E+03 0. -1.
         -6    1    1    2    0  503  0.14028195750E+03  0.12676925487E+02  0.44358347927E+02  0.22745635861E+03  0.17300000000E+03 0. -1.
<mgrwt>
<rscale>  2 0.22308907E+03</rscale>
<asrwt>0</asrwt>
<pdfrwt beam="1">  1       21 0.48142410E-01 0.22308907E+03</pdfrwt>
<pdfrwt beam="2">  1       21 0.24897931E-01 0.22308907E+03</pdfrwt>
<totfact> 0.62083463E+04</totfact>
</mgrwt>
</event>
<event>
 4    1  0.4319182E+000  0.1937813E+03  0.7546771E-02  0.1155094E+00
         21   -1    0    0  501  502  0.00000000000E+00  0.00000000000E+00  0.12571440822E+03  0.12571440822E+03  0.00000000000E+00 0.  1.
         21   -1    0    0  502  503 -0.00000000000E+00 -0.00000000000E+00 -0.78435823112E+03  0.78435823112E+03  0.00000000000E+00 0.  1.
          6    1    1    2  501    0 -0.79311738736E+02  0.36494124143E+02  0.28735952558E+02  0.19590030109E+03  0.17300000000E+03 0.  1.
         -6    1    1    2    0  503  0.79311738736E+02 -0.36494124143E+02 -0.68737977546E+03  0.71417233824E+03  0.17300000000E+03 0.  1.
<mgrwt>
<rscale>  2 0.19378125E+03</rscale>
<asrwt>0</asrwt>
<pdfrwt beam="1">  1       21 0.19340678E-01 0.19378125E+03</pdfrwt>
<pdfrwt beam="2">  1       21 0.12067050E+00 0.19378125E+03</pdfrwt>
<totfact> 0.12788999E+04</totfact>
</mgrwt>
</event>
<event>
 4    1  0.4319182E+000  0.2264423E+03  0.7546771E-02  0.1129169E+00
         21   -1    0    0  501  502  0.00000000000E+00  0.00000000000E+00  0.23245200039E+03  0.23245200039E+03  0.00000000000E+00 0.  1.
         21   -1    0    0  502  503 -0.00000000000E+00 -0.00000000000E+00 -0.36001774126E+03  0.36001774126E+03  0.00000000000E+00 0. -1.
          6    1    1    2  501    0  0.82953292874E+02  0.12027414781E+03 -0.24813661149E+03  0.33592841111E+03  0.17300000000E+03 0. -1.
         -6    1    1    2    0  503 -0.82953292874E+02 -0.12027414781E+03  0.12057087063E+03  0.25654133054E+03  0.17300000000E+03 0.  1.
<mgrwt>
<rscale>  2 0.22644231E+03</rscale>
<asrwt>0</asrwt>
<pdfrwt beam="1">  1       21 0.35761846E-01 0.22644231E+03</pdfrwt>
<pdfrwt beam="2">  1       21 0.55387345E-01 0.22644231E+03</pdfrwt>
<totfact> 0.22736525E+04</totfact>
</mgrwt>
</event>
<event>
 4    1  0.4319182E+000  0.2446722E+03  0.7546771E-02  0.1116719E+00
         21   -1    0    0  503  502  0.00000000000E+00  0.00000000000E+00  0.90996849677E+02  0.90996849677E+02  0.00000000000E+00 0.  1.
         21   -1    0    0  501  503 -0.00000000000E+00 -0.00000000000E+00 -0.12076459436E+04  0.12076459436E+04  0.00000000000E+00 0. -1.
          6    1    1    2  501    0  0.17124214894E+03 -0.24730677352E+02 -0.99643246949E+03  0.10260322345E+04  0.17300000000E+03 0.  1.
         -6    1    1    2    0  502 -0.17124214894E+03  0.24730677352E+02 -0.12021662446E+03  0.27261055881E+03  0.17300000000E+03 0. -1.
<mgrwt>
<rscale>  2 0.24467219E+03</rscale>
<asrwt>0</asrwt>
<pdfrwt beam="1">  1       21 0.13999515E-01 0.24467219E+03</pdfrwt>
<pdfrwt beam="2">  1       21 0.18579169E+00 0.24467219E+03</pdfrwt>
<totfact> 0.71022011E+03</totfact>
</mgrwt>
</event>
<event>
 4    1  0.4319182E+000  0.2558260E+03  0.7546771E-02  0.1109677E+00
         21   -1    0    0  503  502  0.00000000000E+00  0.00000000000E+00  0.17172887345E+03  0.17172887345E+03  0.00000000000E+00 0.  1.
         21   -1    0    0  501  503 -0.00000000000E+00 -0.00000000000E+00 -0.10952588697E+04  0.10952588697E+04  0.00000000000E+00 0.  1.
          6    1    1    2  501    0 -0.18336569890E+03  0.43531342795E+02 -0.97330491305E+03  0.10063644524E+04  0.17300000000E+03 0.  1.
         -6    1    1    2    0  502  0.18336569890E+03 -0.43531342795E+02  0.49774916772E+02  0.26062329074E+03  0.17300000000E+03 0.  1.
<mgrwt>
<rscale>  2 0.25582603E+03</rscale>
<asrwt>0</asrwt>
<pdfrwt beam="1">  1       21 0.26419826E-01 0.25582603E+03</pdfrwt>
<pdfrwt beam="2">  1       21 0.16850137E+00 0.25582603E+03</pdfrwt>
<totfact> 0.28269503E+03</totfact>
</mgrwt>
</event>
<event>
 4    1  0.4319182E+000  0.1865261E+03  0.7546771E-02  0.1161632E+00
         21   -1    0    0  501  502  0.00000000000E+00  0.00000000000E+00  0.32233512502E+03  0.32233512502E+03  0.00000000000E+00 0.  1.
         21   -1    0    0  502  503 -0.00000000000E+00 -0.00000000000E+00 -0.12389358013E+03  0.12389358013E+03  0.00000000000E+00 0.  1.
          6    1    1    2  501    0 -0.37046792989E+02 -0.59080583743E+02  0.17929062954E+03  0.25872207112E+03  0.17300000000E+03 0.  1.
         -6    1    1    2    0  503  0.37046792989E+02  0.59080583743E+02  0.19150915347E+02  0.18750663403E+03  0.17300000000E+03 0.  1.
<mgrwt>
<rscale>  2 0.18652608E+03</rscale>
<asrwt>0</asrwt>
<pdfrwt beam="1">  1       21 0.49590019E-01 0.18652608E+03</pdfrwt>
<pdfrwt beam="2">  1       21 0.19060551E-01 0.18652608E+03</pdfrwt>
<totfact> 0.98100538E+04</totfact>
</mgrwt>
</event>
<event>
 4    1  0.4319182E+000  0.2263077E+03  0.7546771E-02  0.1129266E+00
         21   -1    0    0  501  502  0.00000000000E+00  0.00000000000E+00  0.40376062754E+03  0.40376062754E+03  0.00000000000E+00 0. -1.
         21   -1    0    0  502  503 -0.00000000000E+00 -0.00000000000E+00 -0.13827957260E+03  0.13827957260E+03  0.00000000000E+00 0.  1.
          6    1    1    2  501    0 -0.92504449830E+01 -0.14560429741E+03  0.21067411661E+03  0.30919050045E+03  0.17300000000E+03 0. -1.
         -6    1    1    2    0  503  0.92504449830E+01  0.14560429741E+03  0.54806938338E+02  0.23284969969E+03  0.17300000000E+03 0. -1.
<mgrwt>
<rscale>  2 0.22630772E+03</rscale>
<asrwt>0</asrwt>
<pdfrwt beam="1">  1       21 0.62117019E-01 0.22630772E+03</pdfrwt>
<pdfrwt beam="2">  1       21 0.21273781E-01 0.22630772E+03</pdfrwt>
<totfact> 0.48662723E+04</totfact>
</mgrwt>
</event>
<event>
 4    1  0.4319182E+000  0.1738790E+03  0.7546771E-02  0.1173862E+00
         21   -1    0    0  501  502  0.00000000000E+00  0.00000000000E+00  0.22616984913E+03  0.22616984913E+03  0.00000000000E+00 0.  1.
         21   -1    0    0  502  503 -0.00000000000E+00 -0.00000000000E+00 -0.31952937766E+03  0.31952937766E+03  0.00000000000E+00 0.  1.
          6    1    1    2  501    0  0.10058360597E+02  0.14273916429E+02  0.16141010158E+03  0.23724910158E+03  0.17300000000E+03 0. -1.
         -6    1    1    2    0  503 -0.10058360597E+02 -0.14273916429E+02 -0.25476963012E+03  0.30845012520E+03  0.17300000000E+03 0. -1.
<mgrwt>
<rscale>  2 0.17387902E+03</rscale>
<asrwt>0</asrwt>
<pdfrwt beam="1">  1       21 0.34795362E-01 0.17387902E+03</pdfrwt>
<pdfrwt beam="2">  1       21 0.49158366E-01 0.17387902E+03</pdfrwt>
<totfact> 0.31748574E+04</totfact>
</mgrwt>
</event>
<event>
 4    1  0.4319182E+000  0.2873126E+03  0.7546771E-02  0.1091761E+00
         21   -1    0    0  501  502  0.00000000000E+00  0.00000000000E+00  0.67967413103E+03  0.67967413103E+03  0.00000000000E+00 0. -1.
         21   -1    0    0  502  503 -0.00000000000E+00 -0.00000000000E+00 -0.12175494769E+03  0.12175494769E+03  0.00000000000E+00 0. -1.
          6    1    1    2  501    0 -0.39344884434E+02 -0.22599006066E+03  0.29891169246E+03  0.41460430212E+03  0.17300000000E+03 0. -1.
         -6    1    1    2    0  503  0.39344884434E+02  0.22599006066E+03  0.25900749089E+03  0.38682477659E+03  0.17300000000E+03 0. -1.
<mgrwt>
<rscale>  2 0.28731260E+03</rscale>
<asrwt>0</asrwt>
<pdfrwt beam="1">  1       21 0.10456525E+00 0.28731260E+03</pdfrwt>
<pdfrwt beam="2">  1       21 0.18731531E-01 0.28731260E+03</pdfrwt>
<totfact> 0.18294847E+04</totfact>
</mgrwt>
</event>
<event>
 4    1  0.4319182E+000  0.3116064E+03  0.7546771E-02  0.1079578E+00
         21   -1    0    0  501  502  0.00000000000E+00  0.00000000000E+00  0.36859973710E+04  0.36859973710E+04  0.00000000000E+00 0.  1.
         21   -1    0    0  502  503 -0.00000000000E+00 -0.00000000000E+00 -0.28817831437E+02  0.28817831437E+02  0.00000000000E+00 0. -1.
          6    1    1    2  501    0  0.21567082936E+03  0.14372065340E+03  0.12842253295E+04  0.13214890199E+04  0.17300000000E+03 0. -1.
         -6    1    1    2    0  503 -0.21567082936E+03 -0.14372065340E+03  0.23729542101E+04  0.23933261826E+04  0.17300000000E+03 0.  1.
<mgrwt>
<rscale>  2 0.31160637E+03</rscale>
<asrwt>0</asrwt>
<pdfrwt beam="1">  1       21 0.56707614E+00 0.31160637E+03</pdfrwt>
<pdfrwt beam="2">  1       21 0.44335155E-02 0.31160637E+03</pdfrwt>
<totfact> 0.17235002E+02</totfact>
</mgrwt>
</event>
<event>
 4    1  0.4319182E+000  0.1872445E+03  0.7546771E-02  0.1160970E+00
         21   -1    0    0  503  502  0.00000000000E+00  0.00000000000E+00  0.14334005983E+04  0.14334005983E+04  0.00000000000E+00 0. -1.
         21   -1    0    0  501  503 -0.00000000000E+00 -0.00000000000E+00 -0.29510988671E+02  0.29510988671E+02  0.00000000000E+00 0. -1.
          6    1    1    2  501    0  0.42698028708E+02  0.57518618934E+02  0.39932429313E+03  0.44104467377E+03  0.17300000000E+03 0. -1.
         -6    1    1    2    0  502 -0.42698028708E+02 -0.57518618934E+02  0.10045653165E+04  0.10218669132E+04  0.17300000000E+03 0. -1.
<mgrwt>
<rscale>  2 0.18724453E+03</rscale>
<asrwt>0</asrwt>
<pdfrwt beam="1">  1       21 0.22052312E+00 0.18724453E+03</pdfrwt>
<pdfrwt beam="2">  1       21 0.45401532E-02 0.18724453E+03</pdfrwt>
<totfact> 0.31750492E+04</totfact>
</mgrwt>
</event>
<event>
 4    1  0.4319182E+000  0.1868106E+03  0.7546771E-02  0.1161370E+00
         21   -1    0    0  501  502  0.00000000000E+00  0.00000000000E+00  0.98886643494E+03  0.98886643494E+03  0.00000000000E+00 0. -1.
         21   -1    0    0  502  503 -0.00000000000E+00 -0.00000000000E+00 -0.45207563471E+02  0.45207563471E+02  0.00000000000E+00 0.  1.
          6    1    1    2  501    0 -0.19270679716E+02 -0.67807341835E+02  0.71398488614E+03  0.73801938480E+03  0.17300000000E+03 0. -1.
         -6    1    1    2    0  503  0.19270679716E+02  0.67807341835E+02  0.22967398533E+03  0.29605461361E+03  0.17300000000E+03 0.  1.
<mgrwt>
<rscale>  2 0.18681059E+03</rscale>
<asrwt>0</asrwt>
<pdfrwt beam="1">  1       21 0.15213328E+00 0.18681059E+03</pdfrwt>
<pdfrwt beam="2">  1       21 0.69550105E-02 0.18681059E+03</pdfrwt>
<totfact> 0.44196960E+04</totfact>
</mgrwt>
</event>
<event>
 4    1  0.4319182E+000  0.3039717E+03  0.7546771E-02  0.1083272E+00
         21   -1    0    0  501  502  0.00000000000E+00  0.00000000000E+00  0.38885360295E+03  0.38885360295E+03  0.00000000000E+00 0. -1.
         21   -1    0    0  502  503 -0.00000000000E+00 -0.00000000000E+00 -0.67747483034E+03  0.67747483034E+03  0.00000000000E+00 0.  1.
          6    1    1    2  501    0 -0.96071529367E+02 -0.23073804640E+03  0.28529491988E+03  0.41688364818E+03  0.17300000000E+03 0. -1.
         -6    1    1    2    0  503  0.96071529367E+02  0.23073804640E+03 -0.57391614727E+03  0.64944478511E+03  0.17300000000E+03 0.  1.
<mgrwt>
<rscale>  2 0.30397168E+03</rscale>
<asrwt>0</asrwt>
<pdfrwt beam="1">  1       21 0.59823631E-01 0.30397168E+03</pdfrwt>
<pdfrwt beam="2">  1       21 0.10422690E+00 0.30397168E+03</pdfrwt>
<totfact> 0.17854026E+03</totfact>
</mgrwt>
</event>
<event>
 4    1  0.4319182E+000  0.2423865E+03  0.7546771E-02  0.1118213E+00
         21   -1    0    0  503  502  0.00000000000E+00  0.00000000000E+00  0.20330672712E+03  0.20330672712E+03  0.00000000000E+00 0.  1.
         21   -1    0    0  501  503 -0.00000000000E+00 -0.00000000000E+00 -0.29983727390E+03  0.29983727390E+03  0.00000000000E+00 0. -1.
          6    1    1    2  501    0  0.11762727662E+03  0.12241747213E+03 -0.38950841444E+00  0.24238680947E+03  0.17300000000E+03 0.  1.
         -6    1    1    2    0  502 -0.11762727662E+03 -0.12241747213E+03 -0.96141038359E+02  0.26075719155E+03  0.17300000000E+03 0. -1.
<mgrwt>
<rscale>  2 0.24238650E+03</rscale>
<asrwt>0</asrwt>
<pdfrwt beam="1">  1       21 0.31277958E-01 0.24238650E+03</pdfrwt>
<pdfrwt beam="2">  1       21 0.46128811E-01 0.24238650E+03</pdfrwt>
<totfact> 0.43213979E+04</totfact>
</mgrwt>
</event>
<event>
 4    1  0.4319182E+000  0.2876737E+03  0.7546771E-02  0.1091570E+00
         21   -1    0    0  503  502  0.00000000000E+00  0.00000000000E+00  0.10606294067E+04  0.10606294067E+04  0.00000000000E+00 0.  1.
         21   -1    0    0  501  503 -0.00000000000E+00 -0.00000000000E+00 -0.78197589371E+02  0.78197589371E+02  0.00000000000E+00 0. -1.
          6    1    1    2  501    0 -0.22611772752E+03 -0.41206030593E+02  0.46450555228E+03  0.54637127647E+03  0.17300000000E+03 0. -1.
         -6    1    1    2    0  502  0.22611772752E+03  0.41206030593E+02  0.51792626504E+03  0.59245571959E+03  0.17300000000E+03 0.  1.
<mgrwt>
<rscale>  2 0.28767371E+03</rscale>
<asrwt>0</asrwt>
<pdfrwt beam="1">  1       21 0.16317374E+00 0.28767371E+03</pdfrwt>
<pdfrwt beam="2">  1       21 0.12030399E-01 0.28767371E+03</pdfrwt>
<totfact> 0.13141770E+04</totfact>
</mgrwt>
</event>
<event>
 4    1  0.4319182E+000  0.2086172E+03  0.7546771E-02  0.1142666E+00
         21   -1    0    0  501  502  0.00000000000E+00  0.00000000000E+00  0.19776362100E+03  0.19776362100E+03  0.00000000000E+00 0.  1.
         21   -1    0    0  502  503 -0.00000000000E+00 -0.00000000000E+00 -0.22945141104E+03  0.22945141104E+03  0.00000000000E+00 0. -1.
          6    1    1    2  501    0  0.61677197007E+02  0.98934671641E+02  0.27356376803E+02  0.21040322534E+03  0.17300000000E+03 0.  1.
         -6    1    1    2    0  503 -0.61677197007E+02 -0.98934671641E+02 -0.59044166852E+02  0.21681180670E+03  0.17300000000E+03 0. -1.
<mgrwt>
<rscale>  2 0.20861722E+03</rscale>
<asrwt>0</asrwt>
<pdfrwt beam="1">  1       21 0.30425172E-01 0.20861722E+03</pdfrwt>
<pdfrwt beam="2">  1       21 0.35300217E-01 0.20861722E+03</pdfrwt>
<totfact> 0.79669551E+04</totfact>
</mgrwt>
</event>
<event>
 4    1  0.4319182E+000  0.2291228E+03  0.7546771E-02  0.1127259E+00
         21   -1    0    0  501  502  0.00000000000E+00  0.00000000000E+00  0.16274547888E+03  0.16274547888E+03  0.00000000000E+00 0.  1.
         21   -1    0    0  502  503 -0.00000000000E+00 -0.00000000000E+00 -0.32257309983E+03  0.32257309983E+03  0.00000000000E+00 0. -1.
          6    1    1    2  501    0 -0.98107851345E+02 -0.11376769142E+03 -0.80204815490E+02  0.24275512463E+03  0.17300000000E+03 0. -1.
         -6    1    1    2    0  503  0.98107851345E+02  0.11376769142E+03 -0.79622805459E+02  0.24256345408E+03  0.17300000000E+03 0.  1.
<mgrwt>
<rscale>  2 0.22912276E+03</rscale>
<asrwt>0</asrwt>
<pdfrwt beam="1">  1       21 0.25037766E-01 0.22912276E+03</pdfrwt>
<pdfrwt beam="2">  1       21 0.49626630E-01 0.22912276E+03</pdfrwt>
<totfact> 0.57504928E+04</totfact>
</mgrwt>
</event>
<event>
 4    1  0.4319182E+000  0.1844440E+03  0.7546771E-02  0.1163570E+00
         21   -1    0    0  503  502  0.00000000000E+00  0.00000000000E+00  0.58854955205E+03  0.58854955205E+03  0.00000000000E+00 0.  1.
         21   -1    0    0  501  503 -0.00000000000E+00 -0.00000000000E+00 -0.82046705036E+02  0.82046705036E+02  0.00000000000E+00 0.  1.
          6    1    1    2  501    0 -0.40099142936E+02 -0.49826314267E+02  0.70985689988E+02  0.19763241394E+03  0.17300000000E+03 0.  1.
         -6    1    1    2    0  502  0.40099142936E+02  0.49826314267E+02  0.43551715703E+03  0.47296384314E+03  0.17300000000E+03 0.  1.
<mgrwt>
<rscale>  2 0.18444404E+03</rscale>
<asrwt>0</asrwt>
<pdfrwt beam="1">  1       21 0.90546082E-01 0.18444404E+03</pdfrwt>
<pdfrwt beam="2">  1       21 0.12622570E-01 0.18444404E+03</pdfrwt>
<totfact> 0.55740557E+04</totfact>
</mgrwt>
</event>
<event>
 4    1  0.4319182E+000  0.1788186E+03  0.7546771E-02  0.1168951E+00
         21   -1    0    0  501  502  0.00000000000E+00  0.00000000000E+00  0.15830162663E+03  0.15830162663E+03  0.00000000000E+00 0.  1.
         21   -1    0    0  502  503 -0.00000000000E+00 -0.00000000000E+00 -0.26829313363E+03  0.26829313363E+03  0.00000000000E+00 0.  1.
          6    1    1    2  501    0 -0.16009536764E+01 -0.45216626259E+02  0.51035044340E+02  0.18595881827E+03  0.17300000000E+03 0.  1.
         -6    1    1    2    0  503  0.16009536764E+01  0.45216626259E+02 -0.16102655133E+03  0.24063594199E+03  0.17300000000E+03 0.  1.
<mgrwt>
<rscale>  2 0.17881864E+03</rscale>
<asrwt>0</asrwt>
<pdfrwt beam="1">  1       21 0.24354097E-01 0.17881864E+03</pdfrwt>
<pdfrwt beam="2">  1       21 0.41275866E-01 0.17881864E+03</pdfrwt>
<totfact> 0.90485344E+04</totfact>
</mgrwt>
</event>
<event>
 4    1  0.4319182E+000  0.2050516E+03  0.7546771E-02  0.1145546E+00
         21   -1    0    0  501  502  0.00000000000E+00  0.00000000000E+00  0.40596801400E+02  0.40596801400E+02  0.00000000000E+00 0.  1.
         21   -1    0    0  502  503 -0.00000000000E+00 -0.00000000000E+00 -0.10679730639E+04  0.10679730639E+04  0.00000000000E+00 0. -1.
          6    1    1    2  501    0 -0.10982926074E+03  0.73960089314E+01 -0.41733562047E+03  0.46498944889E+03  0.17300000000E+03 0. -1.
         -6    1    1    2    0  503  0.10982926074E+03 -0.73960089314E+01 -0.61004064204E+03  0.64358041642E+03  0.17300000000E+03 0. -1.
<mgrwt>
<rscale>  2 0.20505162E+03</rscale>
<asrwt>0</asrwt>
<pdfrwt beam="1">  1       21 0.62456620E-02 0.20505162E+03</pdfrwt>
<pdfrwt beam="2">  1       21 0.16430354E+00 0.20505162E+03</pdfrwt>
<totfact> 0.42793756E+04</totfact>
</mgrwt>
</event>
<event>
 4    1  0.4319182E+000  0.2386943E+03  0.7546771E-02  0.1120666E+00
         21   -1    0    0  501  502  0.00000000000E+00  0.00000000000E+00  0.58432212311E+02  0.58432212311E+02  0.00000000000E+00 0. -1.
         21   -1    0    0  502  503 -0.00000000000E+00 -0.00000000000E+00 -0.12300567850E+04  0.12300567850E+04  0.00000000000E+00 0.  1.
          6    1    1    2  501    0 -0.15268268559E+03  0.61106239512E+02 -0.29248356684E+03  0.37752034629E+03  0.17300000000E+03 0. -1.
         -6    1    1    2    0  503  0.15268268559E+03 -0.61106239512E+02 -0.87914100585E+03  0.91096865103E+03  0.17300000000E+03 0.  1.
<mgrwt>
<rscale>  2 0.23869431E+03</rscale>
<asrwt>0</asrwt>
<pdfrwt beam="1">  1       21 0.89895718E-02 0.23869431E+03</pdfrwt>
<pdfrwt beam="2">  1       21 0.18923949E+00 0.23869431E+03</pdfrwt>
<totfact> 0.14942684E+04</totfact>
</mgrwt>
</event>
<event>
 4    1  0.4319182E+000  0.1891435E+03  0.7546771E-02  0.1159236E+00
         21   -1    0    0  503  502  0.00000000000E+00  0.00000000000E+00  0.30284891640E+03  0.30284891640E+03  0.00000000000E+00 0.  1.
         21   -1    0    0  501  503 -0.00000000000E+00 -0.00000000000E+00 -0.20196603725E+03  0.20196603725E+03  0.00000000000E+00 0.  1.
          6    1    1    2  501    0 -0.66560995920E+02  0.37628340357E+02 -0.11218114008E+03  0.21990876828E+03  0.17300000000E+03 0.  1.
         -6    1    1    2    0  502  0.66560995920E+02 -0.37628340357E+02  0.21306401923E+03  0.28490618538E+03  0.17300000000E+03 0.  1.
<mgrwt>
<rscale>  2 0.18914349E+03</rscale>
<asrwt>0</asrwt>
<pdfrwt beam="1">  1       21 0.46592141E-01 0.18914349E+03</pdfrwt>
<pdfrwt beam="2">  1       21 0.31071698E-01 0.18914349E+03</pdfrwt>
<totfact> 0.43969057E+04</totfact>
</mgrwt>
</event>
<event>
 4    1  0.4319182E+000  0.1757277E+03  0.7546771E-02  0.1172003E+00
         21   -1    0    0  501  502  0.00000000000E+00  0.00000000000E+00  0.16274816193E+04  0.16274816193E+04  0.00000000000E+00 0. -1.
         21   -1    0    0  502  503 -0.00000000000E+00 -0.00000000000E+00 -0.19821774333E+02  0.19821774333E+02  0.00000000000E+00 0. -1.
          6    1    1    2  501    0  0.30514679489E+02 -0.44822243704E+01  0.63351623897E+03  0.65743673539E+03  0.17300000000E+03 0. -1.
         -6    1    1    2    0  503 -0.30514679489E+02  0.44822243704E+01  0.97414360601E+03  0.98986665826E+03  0.17300000000E+03 0. -1.
<mgrwt>
<rscale>  2 0.17572773E+03</rscale>
<asrwt>0</asrwt>
<pdfrwt beam="1">  1       21 0.25038168E+00 0.17572773E+03</pdfrwt>
<pdfrwt beam="2">  1       21 0.30495050E-02 0.17572773E+03</pdfrwt>
<totfact> 0.41303877E+04</totfact>
</mgrwt>
</event>
<event>
 4    1  0.4319182E+000  0.2151262E+03  0.7546771E-02  0.1137570E+00
         21   -1    0    0  501  502  0.00000000000E+00  0.00000000000E+00  0.14407762091E+03  0.14407762091E+03  0.00000000000E+00 0.  1.
         21   -1    0    0  502  503 -0.00000000000E+00 -0.00000000000E+00 -0.32562025478E+03  0.32562025478E+03  0.00000000000E+00 0. -1.
          6    1    1    2  501    0  0.36292722219E+02 -0.12260965527E+03 -0.11810038807E+03  0.24541188014E+03  0.17300000000E+03 0. -1.
         -6    1    1    2    0  503 -0.36292722219E+02  0.12260965527E+03 -0.63442245798E+02  0.22428599556E+03  0.17300000000E+03 0. -1.
<mgrwt>
<rscale>  2 0.21512622E+03</rscale>
<asrwt>0</asrwt>
<pdfrwt beam="1">  1       21 0.22165788E-01 0.21512622E+03</pdfrwt>
<pdfrwt beam="2">  1       21 0.50095423E-01 0.21512622E+03</pdfrwt>
<totfact> 0.71524978E+04</totfact>
</mgrwt>
</event>
<event>
 4    1  0.4319182E+000  0.4142863E+03  0.7546771E-02  0.1038942E+00
         21   -1    0    0  501  502  0.00000000000E+00  0.00000000000E+00  0.21805596675E+03  0.21805596675E+03  0.00000000000E+00 0.  1.
         21   -1    0    0  502  503 -0.00000000000E+00 -0.00000000000E+00 -0.12860661483E+04  0.12860661483E+04  0.00000000000E+00 0. -1.
          6    1    1    2  501    0 -0.36930747245E+03 -0.72911700212E+02 -0.65564579226E+02  0.41944229554E+03  0.17300000000E+03 0.  1.
         -6    1    1    2    0  503  0.36930747245E+03  0.72911700212E+02 -0.10024456023E+04  0.10846798195E+04  0.17300000000E+03 0. -1.
<mgrwt>
<rscale>  2 0.41428628E+03</rscale>
<asrwt>0</asrwt>
<pdfrwt beam="1">  1       21 0.33547071E-01 0.41428628E+03</pdfrwt>
<pdfrwt beam="2">  1       21 0.19785633E+00 0.41428628E+03</pdfrwt>
<totfact> 0.10072725E+03</totfact>
</mgrwt>
</event>
<event>
 4    1  0.4319182E+000  0.1911131E+03  0.7546771E-02  0.1157461E+00
         21   -1    0    0  503  502  0.00000000000E+00  0.00000000000E+00  0.95338132132E+03  0.95338132132E+03  0.00000000000E+00 0. -1.
         21   -1    0    0  501  503 -0.00000000000E+00 -0.00000000000E+00 -0.38441161678E+02  0.38441161678E+02  0.00000000000E+00 0. -1.
          6    1    1    2  501    0 -0.34480911396E+02 -0.73527552220E+02  0.48641477396E+03  0.52261225255E+03  0.17300000000E+03 0. -1.
         -6    1    1    2    0  502  0.34480911396E+02  0.73527552220E+02  0.42852538569E+03  0.46921023046E+03  0.17300000000E+03 0. -1.
<mgrwt>
<rscale>  2 0.19111314E+03</rscale>
<asrwt>0</asrwt>
<pdfrwt beam="1">  1       21 0.14667403E+00 0.19111314E+03</pdfrwt>
<pdfrwt beam="2">  1       21 0.59140256E-02 0.19111314E+03</pdfrwt>
<totfact> 0.64124787E+04</totfact>
</mgrwt>
</event>
<event>
 4    1  0.4319182E+000  0.2997866E+03  0.7546771E-02  0.1085347E+00
         21   -1    0    0  501  502  0.00000000000E+00  0.00000000000E+00  0.12205707724E+03  0.12205707724E+03  0.00000000000E+00 0. -1.
         21   -1    0    0  502  503 -0.00000000000E+00 -0.00000000000E+00 -0.74540275392E+03  0.74540275392E+03  0.00000000000E+00 0. -1.
          6    1    1    2  501    0 -0.23952426961E+03 -0.50706090813E+02 -0.26377181127E+03  0.39930884262E+03  0.17300000000E+03 0. -1.
         -6    1    1    2    0  503  0.23952426961E+03  0.50706090813E+02 -0.35957386541E+03  0.46815098854E+03  0.17300000000E+03 0. -1.
<mgrwt>
<rscale>  2 0.29978656E+03</rscale>
<asrwt>0</asrwt>
<pdfrwt beam="1">  1       21 0.18778012E-01 0.29978656E+03</pdfrwt>
<pdfrwt beam="2">  1       21 0.11467735E+00 0.29978656E+03</pdfrwt>
<totfact> 0.14445504E+04</totfact>
</mgrwt>
</event>
<event>
 4    1  0.4319182E+000  0.1857361E+03  0.7546771E-02  0.1162364E+00
         21   -1    0    0  501  502  0.00000000000E+00  0.00000000000E+00  0.68462752462E+02  0.68462752462E+02  0.00000000000E+00 0.  1.
         21   -1    0    0  502  503 -0.00000000000E+00 -0.00000000000E+00 -0.11575519300E+04  0.11575519300E+04  0.00000000000E+00 0.  1.
          6    1    1    2  501    0  0.33036764805E+02 -0.58970134041E+02 -0.83894648102E+02  0.20380435844E+03  0.17300000000E+03 0.  1.
         -6    1    1    2    0  503 -0.33036764805E+02  0.58970134041E+02 -0.10051945294E+04  0.10222103240E+04  0.17300000000E+03 0.  1.
<mgrwt>
<rscale>  2 0.18573612E+03</rscale>
<asrwt>0</asrwt>
<pdfrwt beam="1">  1       21 0.10532732E-01 0.18573612E+03</pdfrwt>
<pdfrwt beam="2">  1       21 0.17808490E+00 0.18573612E+03</pdfrwt>
<totfact> 0.13954736E+04</totfact>
</mgrwt>
</event>
<event>
 4    1  0.4319182E+000  0.2380921E+03  0.7546771E-02  0.1121070E+00
         21   -1    0    0  503  502  0.00000000000E+00  0.00000000000E+00  0.20391095570E+03  0.20391095570E+03  0.00000000000E+00 0. -1.
         21   -1    0    0  501  503 -0.00000000000E+00 -0.00000000000E+00 -0.30920317508E+03  0.30920317508E+03  0.00000000000E+00 0. -1.
          6    1    1    2  501    0  0.30385992191E+02 -0.16073435762E+03 -0.13414300052E+03  0.27328041794E+03  0.17300000000E+03 0. -1.
         -6    1    1    2    0  502 -0.30385992191E+02  0.16073435762E+03  0.28850781131E+02  0.23983371284E+03  0.17300000000E+03 0. -1.
<mgrwt>
<rscale>  2 0.23809209E+03</rscale>
<asrwt>0</asrwt>
<pdfrwt beam="1">  1       21 0.31370917E-01 0.23809209E+03</pdfrwt>
<pdfrwt beam="2">  1       21 0.47569719E-01 0.23809209E+03</pdfrwt>
<totfact> 0.40377545E+04</totfact>
</mgrwt>
</event>
<event>
 4    1  0.4319182E+000  0.3996486E+03  0.7546771E-02  0.1043901E+00
         21   -1    0    0  503  502  0.00000000000E+00  0.00000000000E+00  0.17841946168E+03  0.17841946168E+03  0.00000000000E+00 0. -1.
         21   -1    0    0  501  503 -0.00000000000E+00 -0.00000000000E+00 -0.89525443159E+03  0.89525443159E+03  0.00000000000E+00 0.  1.
          6    1    1    2  501    0  0.35529867282E+03 -0.59605777253E+02 -0.36303515605E+03  0.53991992009E+03  0.17300000000E+03 0.  1.
         -6    1    1    2    0  502 -0.35529867282E+03  0.59605777253E+02 -0.35379981387E+03  0.53375397318E+03  0.17300000000E+03 0. -1.
<mgrwt>
<rscale>  2 0.39964859E+03</rscale>
<asrwt>0</asrwt>
<pdfrwt beam="1">  1       21 0.27449148E-01 0.39964859E+03</pdfrwt>
<pdfrwt beam="2">  1       21 0.13773145E+00 0.39964859E+03</pdfrwt>
<totfact> 0.41906203E+03</totfact>
</mgrwt>
</event>
<event>
 4    1  0.4319182E+000  0.3046013E+03  0.7546771E-02  0.1082963E+00
         21   -1    0    0  503  502  0.00000000000E+00  0.00000000000E+00  0.14374044186E+03  0.14374044186E+03  0.00000000000E+00 0. -1.
         21   -1    0    0  501  503 -0.00000000000E+00 -0.00000000000E+00 -0.85465137384E+03  0.85465137384E+03  0.00000000000E+00 0. -1.
          6    1    1    2  501    0  0.21296560572E+03 -0.13228229889E+03 -0.60241450819E+03  0.67504458779E+03  0.17300000000E+03 0. -1.
         -6    1    1    2    0  502 -0.21296560572E+03  0.13228229889E+03 -0.10849642379E+03  0.32334722791E+03  0.17300000000E+03 0. -1.
<mgrwt>
<rscale>  2 0.30460131E+03</rscale>
<asrwt>0</asrwt>
<pdfrwt beam="1">  1       21 0.22113915E-01 0.30460131E+03</pdfrwt>
<pdfrwt beam="2">  1       21 0.13148482E+00 0.30460131E+03</pdfrwt>
<totfact> 0.74903051E+03</totfact>
</mgrwt>
</event>
<event>
 4    1  0.4319182E+000  0.1864575E+03  0.7546771E-02  0.1161696E+00
         21   -1    0    0  503  502  0.00000000000E+00  0.00000000000E+00  0.71268622827E+02  0.71268622827E+02  0.00000000000E+00 0. -1.
         21   -1    0    0  501  503 -0.00000000000E+00 -0.00000000000E+00 -0.56148981366E+03  0.56148981366E+03  0.00000000000E+00 0.  1.
          6    1    1    2  501    0 -0.41140672687E+02  0.56078863152E+02 -0.35970838497E+03  0.40516233297E+03  0.17300000000E+03 0.  1.
         -6    1    1    2    0  502  0.41140672687E+02 -0.56078863152E+02 -0.13051280587E+03  0.22759610352E+03  0.17300000000E+03 0. -1.
<mgrwt>
<rscale>  2 0.18645749E+03</rscale>
<asrwt>0</asrwt>
<pdfrwt beam="1">  1       21 0.10964404E-01 0.18645749E+03</pdfrwt>
<pdfrwt beam="2">  1       21 0.86383047E-01 0.18645749E+03</pdfrwt>
<totfact> 0.79806292E+04</totfact>
</mgrwt>
</event>
<event>
 4    1  0.4319182E+000  0.2074897E+03  0.7546771E-02  0.1143569E+00
         21   -1    0    0  501  502  0.00000000000E+00  0.00000000000E+00  0.61833191354E+03  0.61833191354E+03  0.00000000000E+00 0.  1.
         21   -1    0    0  502  503 -0.00000000000E+00 -0.00000000000E+00 -0.17072878480E+03  0.17072878480E+03  0.00000000000E+00 0. -1.
          6    1    1    2  501    0 -0.11336327694E+03  0.16484070228E+02  0.52740639210E+03  0.56675343806E+03  0.17300000000E+03 0.  1.
         -6    1    1    2    0  503  0.11336327694E+03 -0.16484070228E+02 -0.79803263363E+02  0.22230726028E+03  0.17300000000E+03 0. -1.
<mgrwt>
<rscale>  2 0.20748966E+03</rscale>
<asrwt>0</asrwt>
<pdfrwt beam="1">  1       21 0.95127985E-01 0.20748966E+03</pdfrwt>
<pdfrwt beam="2">  1       21 0.26265967E-01 0.20748966E+03</pdfrwt>
<totfact> 0.12599442E+04</totfact>
</mgrwt>
</event>
<event>
 4    1  0.4319182E+000  0.2635519E+03  0.7546771E-02  0.1105028E+00
         21   -1    0    0  503  502  0.00000000000E+00  0.00000000000E+00  0.41039342669E+03  0.41039342669E+03  0.00000000000E+00 0. -1.
         21   -1    0    0  501  503 -0.00000000000E+00 -0.00000000000E+00 -0.30310045026E+03  0.30310045026E+03  0.00000000000E+00 0. -1.
          6    1    1    2  501    0  0.11917697032E+03  0.15914604215E+03 -0.18342253202E+03  0.32109724109E+03  0.17300000000E+03 0. -1.
         -6    1    1    2    0  502 -0.11917697032E+03 -0.15914604215E+03  0.29071550845E+03  0.39239663586E+03  0.17300000000E+03 0. -1.
<mgrwt>
<rscale>  2 0.26355192E+03</rscale>
<asrwt>0</asrwt>
<pdfrwt beam="1">  1       21 0.63137451E-01 0.26355192E+03</pdfrwt>
<pdfrwt beam="2">  1       21 0.46630838E-01 0.26355192E+03</pdfrwt>
<totfact> 0.97922525E+03</totfact>
</mgrwt>
</event>
<event>
 4    1  0.4319182E+000  0.2895403E+03  0.7546771E-02  0.1090589E+00
         21   -1    0    0  501  502  0.00000000000E+00  0.00000000000E+00  0.19078554479E+03  0.19078554479E+03  0.00000000000E+00 0. -1.
         21   -1    0    0  502  503 -0.00000000000E+00 -0.00000000000E+00 -0.86216907617E+03  0.86216907617E+03  0.00000000000E+00 0.  1.
          6    1    1    2  501    0  0.49135626045E+01 -0.23212155343E+03  0.32970433617E+02  0.29141140705E+03  0.17300000000E+03 0. -1.
         -6    1    1    2    0  503 -0.49135626045E+01  0.23212155343E+03 -0.70435396499E+03  0.76154321392E+03  0.17300000000E+03 0.  1.
<mgrwt>
<rscale>  2 0.28954025E+03</rscale>
<asrwt>0</asrwt>
<pdfrwt beam="1">  1       21 0.29351623E-01 0.28954025E+03</pdfrwt>
<pdfrwt beam="2">  1       21 0.13264139E+00 0.28954025E+03</pdfrwt>
<totfact> 0.42702557E+03</totfact>
</mgrwt>
</event>
<event>
 4    1  0.4319182E+000  0.1850300E+03  0.7546771E-02  0.1163022E+00
         21   -1    0    0  503  502  0.00000000000E+00  0.00000000000E+00  0.49084428205E+03  0.49084428205E+03  0.00000000000E+00 0. -1.
         21   -1    0    0  501  503 -0.00000000000E+00 -0.00000000000E+00 -0.85684250933E+02  0.85684250933E+02  0.00000000000E+00 0. -1.
          6    1    1    2  501    0 -0.62216760534E+02  0.20884550575E+02  0.78267620658E+02  0.20090273813E+03  0.17300000000E+03 0. -1.
         -6    1    1    2    0  502  0.62216760534E+02 -0.20884550575E+02  0.32689241046E+03  0.37562579485E+03  0.17300000000E+03 0. -1.
<mgrwt>
<rscale>  2 0.18502997E+03</rscale>
<asrwt>0</asrwt>
<pdfrwt beam="1">  1       21 0.75514503E-01 0.18502997E+03</pdfrwt>
<pdfrwt beam="2">  1       21 0.13182193E-01 0.18502997E+03</pdfrwt>
<totfact> 0.77871050E+04</totfact>
</mgrwt>
</event>
<event>
 4    1  0.4319182E+000  0.1989297E+03  0.7546771E-02  0.1150645E+00
         21   -1    0    0  501  502  0.00000000000E+00  0.00000000000E+00  0.49402160920E+03  0.49402160920E+03  0.00000000000E+00 0. -1.
         21   -1    0    0  502  503 -0.00000000000E+00 -0.00000000000E+00 -0.14063877685E+03  0.14063877685E+03  0.00000000000E+00 0.  1.
          6    1    1    2  501    0  0.93944899549E+02 -0.28607611303E+02  0.38488235227E+03  0.43325219522E+03  0.17300000000E+03 0. -1.
         -6    1    1    2    0  503 -0.93944899549E+02  0.28607611303E+02 -0.31499519916E+02  0.20140819082E+03  0.17300000000E+03 0.  1.
<mgrwt>
<rscale>  2 0.19892974E+03</rscale>
<asrwt>0</asrwt>
<pdfrwt beam="1">  1       21 0.76003324E-01 0.19892974E+03</pdfrwt>
<pdfrwt beam="2">  1       21 0.21636735E-01 0.19892974E+03</pdfrwt>
<totfact> 0.30633982E+04</totfact>
</mgrwt>
</event>
<event>
 4    1  0.4319182E+000  0.2054178E+03  0.7546771E-02  0.1145247E+00
         21   -1    0    0  503  502  0.00000000000E+00  0.00000000000E+00  0.47526577241E+02  0.47526577241E+02  0.00000000000E+00 0. -1.
         21   -1    0    0  501  503 -0.00000000000E+00 -0.00000000000E+00 -0.90792216078E+03  0.90792216078E+03  0.00000000000E+00 0.  1.
          6    1    1    2  501    0  0.10813306844E+03  0.23973258846E+02 -0.50122893081E+03  0.54168895014E+03  0.17300000000E+03 0.  1.
         -6    1    1    2    0  502 -0.10813306844E+03 -0.23973258846E+02 -0.35916665273E+03  0.41375978787E+03  0.17300000000E+03 0. -1.
<mgrwt>
<rscale>  2 0.20541781E+03</rscale>
<asrwt>0</asrwt>
<pdfrwt beam="1">  1       21 0.73117816E-02 0.20541781E+03</pdfrwt>
<pdfrwt beam="2">  1       21 0.13968032E+00 0.20541781E+03</pdfrwt>
<totfact> 0.50141028E+04</totfact>
</mgrwt>
</event>
<event>
 4    1  0.4319182E+000  0.1781505E+03  0.7546771E-02  0.1169605E+00
         21   -1    0    0  503  502  0.00000000000E+00  0.00000000000E+00  0.43863920772E+03  0.43863920772E+03  0.00000000000E+00 0.  1.
         21   -1    0    0  501  503 -0.00000000000E+00 -0.00000000000E+00 -0.98014259638E+02  0.98014259638E+02  0.00000000000E+00 0.  1.
          6    1    1    2  501    0 -0.35499015564E+02 -0.23418511923E+02  0.33020882341E+02  0.18118494826E+03  0.17300000000E+03 0.  1.
         -6    1    1    2    0  502  0.35499015564E+02  0.23418511923E+02  0.30760406574E+03  0.35546851909E+03  0.17300000000E+03 0.  1.
<mgrwt>
<rscale>  2 0.17815052E+03</rscale>
<asrwt>0</asrwt>
<pdfrwt beam="1">  1       21 0.67482954E-01 0.17815052E+03</pdfrwt>
<pdfrwt beam="2">  1       21 0.15079117E-01 0.17815052E+03</pdfrwt>
<totfact> 0.78503219E+04</totfact>
</mgrwt>
</event>
<event>
 4    1  0.4319182E+000  0.1805753E+03  0.7546771E-02  0.1167247E+00
         21   -1    0    0  503  502  0.00000000000E+00  0.00000000000E+00  0.39727315590E+03  0.39727315590E+03  0.00000000000E+00 0. -1.
         21   -1    0    0  501  503 -0.00000000000E+00 -0.00000000000E+00 -0.95115167900E+02  0.95115167900E+02  0.00000000000E+00 0. -1.
          6    1    1    2  501    0 -0.41126951852E+02 -0.31416603045E+02  0.59931929525E+02  0.19026104512E+03  0.17300000000E+03 0. -1.
         -6    1    1    2    0  502  0.41126951852E+02  0.31416603045E+02  0.24222605848E+03  0.30212727868E+03  0.17300000000E+03 0. -1.
<mgrwt>
<rscale>  2 0.18057527E+03</rscale>
<asrwt>0</asrwt>
<pdfrwt beam="1">  1       21 0.61118946E-01 0.18057527E+03</pdfrwt>
<pdfrwt beam="2">  1       21 0.14633103E-01 0.18057527E+03</pdfrwt>
<totfact> 0.10265926E+05</totfact>
</mgrwt>
</event>
<event>
 4    1  0.4319182E+000  0.1957268E+03  0.7546771E-02  0.1153395E+00
         21   -1    0    0  503  502  0.00000000000E+00  0.00000000000E+00  0.35164412041E+03  0.35164412041E+03  0.00000000000E+00 0.  1.
         21   -1    0    0  501  503 -0.00000000000E+00 -0.00000000000E+00 -0.12819310443E+03  0.12819310443E+03  0.00000000000E+00 0.  1.
          6    1    1    2  501    0  0.13709674664E+02  0.90509839007E+02  0.18753137484E+02  0.19662315810E+03  0.17300000000E+03 0.  1.
         -6    1    1    2    0  502 -0.13709674664E+02 -0.90509839007E+02  0.20469787849E+03  0.28321406673E+03  0.17300000000E+03 0.  1.
<mgrwt>
<rscale>  2 0.19572682E+03</rscale>
<asrwt>0</asrwt>
<pdfrwt beam="1">  1       21 0.54099095E-01 0.19572682E+03</pdfrwt>
<pdfrwt beam="2">  1       21 0.19722016E-01 0.19572682E+03</pdfrwt>
<totfact> 0.76430501E+04</totfact>
</mgrwt>
</event>
<event>
 4    1  0.4319182E+000  0.2128249E+03  0.7546771E-02  0.1139348E+00
         21   -1    0    0  501  502  0.00000000000E+00  0.00000000000E+00  0.72256319883E+02  0.72256319883E+02  0.00000000000E+00 0.  1.
         21   -1    0    0  502  503 -0.00000000000E+00 -0.00000000000E+00 -0.68963750963E+03  0.68963750963E+03  0.00000000000E+00 0. -1.
          6    1    1    2  501    0  0.34125963979E+02 -0.11916740902E+03 -0.42362841417E+03  0.47408383867E+03  0.17300000000E+03 0.  1.
         -6    1    1    2    0  503 -0.34125963979E+02  0.11916740902E+03 -0.19375277558E+03  0.28780999085E+03  0.17300000000E+03 0. -1.
<mgrwt>
<rscale>  2 0.21282493E+03</rscale>
<asrwt>0</asrwt>
<pdfrwt beam="1">  1       21 0.11116357E-01 0.21282493E+03</pdfrwt>
<pdfrwt beam="2">  1       21 0.10609808E+00 0.21282493E+03</pdfrwt>
<totfact> 0.47432412E+04</totfact>
</mgrwt>
</event>
<event>
 4    1  0.4319182E+000  0.2137137E+03  0.7546771E-02  0.1138658E+00
         21   -1    0    0  501  502  0.00000000000E+00  0.00000000000E+00  0.62520112000E+03  0.62520112000E+03  0.00000000000E+00 0. -1.
         21   -1    0    0  502  503 -0.00000000000E+00 -0.00000000000E+00 -0.82456519653E+02  0.82456519653E+02  0.00000000000E+00 0. -1.
          6    1    1    2  501    0 -0.20286714766E+02 -0.12382642791E+03  0.39085345585E+03  0.44546600207E+03  0.17300000000E+03 0. -1.
         -6    1    1    2    0  503  0.20286714766E+02  0.12382642791E+03  0.15189114449E+03  0.26219163759E+03  0.17300000000E+03 0. -1.
<mgrwt>
<rscale>  2 0.21371368E+03</rscale>
<asrwt>0</asrwt>
<pdfrwt beam="1">  1       21 0.96184785E-01 0.21371368E+03</pdfrwt>
<pdfrwt beam="2">  1       21 0.12685619E-01 0.21371368E+03</pdfrwt>
<totfact> 0.47288355E+04</totfact>
</mgrwt>
</event>
<event>
 4    1  0.4319182E+000  0.2310855E+03  0.7546771E-02  0.1125878E+00
         21   -1    0    0  503  502  0.00000000000E+00  0.00000000000E+00  0.10248154305E+04  0.10248154305E+04  0.00000000000E+00 0.  1.
         21   -1    0    0  501  503 -0.00000000000E+00 -0.00000000000E+00 -0.10960868476E+03  0.10960868476E+03  0.00000000000E+00 0.  1.
          6    1    1    2  501    0  0.11969905175E+03  0.95622496756E+02  0.46773955052E+02  0.23577177046E+03  0.17300000000E+03 0.  1.
         -6    1    1    2    0  502 -0.11969905175E+03 -0.95622496756E+02  0.86843279067E+03  0.89865234478E+03  0.17300000000E+03 0.  1.
<mgrwt>
<rscale>  2 0.23108554E+03</rscale>
<asrwt>0</asrwt>
<pdfrwt beam="1">  1       21 0.15766391E+00 0.23108554E+03</pdfrwt>
<pdfrwt beam="2">  1       21 0.16862875E-01 0.23108554E+03</pdfrwt>
<totfact> 0.80564412E+03</totfact>
</mgrwt>
</event>
<event>
 4    1  0.4319182E+000  0.1996278E+03  0.7546771E-02  0.1150053E+00
         21   -1    0    0  501  502  0.00000000000E+00  0.00000000000E+00  0.19876116507E+03  0.19876116507E+03  0.00000000000E+00 0.  1.
         21   -1    0    0  502  503 -0.00000000000E+00 -0.00000000000E+00 -0.27696250511E+03  0.27696250511E+03  0.00000000000E+00 0. -1.
          6    1    1    2  501    0 -0.86671490000E+02 -0.49094910915E+02  0.85880223590E+02  0.21731698107E+03  0.17300000000E+03 0.  1.
         -6    1    1    2    0  503  0.86671490000E+02  0.49094910915E+02 -0.16408156363E+03  0.25840668912E+03  0.17300000000E+03 0.  1.
<mgrwt>
<rscale>  2 0.19962780E+03</rscale>
<asrwt>0</asrwt>
<pdfrwt beam="1">  1       21 0.30578641E-01 0.19962780E+03</pdfrwt>
<pdfrwt beam="2">  1       21 0.42609616E-01 0.19962780E+03</pdfrwt>
<totfact> 0.54214764E+04</totfact>
</mgrwt>
</event>
<event>
 4    1  0.4319182E+000  0.1851629E+03  0.7546771E-02  0.1162898E+00
         21   -1    0    0  501  502  0.00000000000E+00  0.00000000000E+00  0.10560416178E+03  0.10560416178E+03  0.00000000000E+00 0. -1.
         21   -1    0    0  502  503 -0.00000000000E+00 -0.00000000000E+00 -0.54051974396E+03  0.54051974396E+03  0.00000000000E+00 0. -1.
          6    1    1    2  501    0 -0.36578820445E+02 -0.54939052798E+02 -0.13299429509E+02  0.18563993227E+03  0.17300000000E+03 0. -1.
         -6    1    1    2    0  503  0.36578820445E+02  0.54939052798E+02 -0.42161615267E+03  0.46048397347E+03  0.17300000000E+03 0. -1.
<mgrwt>
<rscale>  2 0.18516293E+03</rscale>
<asrwt>0</asrwt>
<pdfrwt beam="1">  1       21 0.16246794E-01 0.18516293E+03</pdfrwt>
<pdfrwt beam="2">  1       21 0.83156884E-01 0.18516293E+03</pdfrwt>
<totfact> 0.42871631E+04</totfact>
</mgrwt>
</event>
<event>
 4    1  0.4319182E+000  0.2024437E+03  0.7546771E-02  0.1147693E+00
         21   -1    0    0  501  502  0.00000000000E+00  0.00000000000E+00  0.25021341043E+04  0.25021341043E+04  0.00000000000E+00 0.  1.
         21   -1    0    0  502  503 -0.00000000000E+00 -0.00000000000E+00 -0.24502495366E+02  0.24502495366E+02  0.00000000000E+00 0.  1.
          6    1    1    2  501    0  0.87519345110E+02  0.58265000082E+02  0.19662077790E+04  0.19766022555E+04  0.17300000000E+03 0.  1.
         -6    1    1    2    0  503 -0.87519345110E+02 -0.58265000082E+02  0.51142382989E+03  0.55003434419E+03  0.17300000000E+03 0.  1.
<mgrwt>
<rscale>  2 0.20244369E+03</rscale>
<asrwt>0</asrwt>
<pdfrwt beam="1">  1       21 0.38494351E+00 0.20244369E+03</pdfrwt>
<pdfrwt beam="2">  1       21 0.37696167E-02 0.20244369E+03</pdfrwt>
<totfact> 0.46094867E+03</totfact>
</mgrwt>
</event>
<event>
 4    1  0.4319182E+000  0.2090778E+03  0.7546771E-02  0.1142298E+00
         21   -1    0    0  503  502  0.00000000000E+00  0.00000000000E+00  0.46929487207E+03  0.46929487207E+03  0.00000000000E+00 0. -1.
         21   -1    0    0  501  503 -0.00000000000E+00 -0.00000000000E+00 -0.12517936060E+03  0.12517936060E+03  0.00000000000E+00 0. -1.
          6    1    1    2  501    0  0.11658128223E+03  0.13903963503E+02  0.21698691427E+02  0.21020073448E+03  0.17300000000E+03 0. -1.
         -6    1    1    2    0  502 -0.11658128223E+03 -0.13903963503E+02  0.32241682004E+03  0.38427349819E+03  0.17300000000E+03 0. -1.
<mgrwt>
<rscale>  2 0.20907777E+03</rscale>
<asrwt>0</asrwt>
<pdfrwt beam="1">  1       21 0.72199210E-01 0.20907777E+03</pdfrwt>
<pdfrwt beam="2">  1       21 0.19258363E-01 0.20907777E+03</pdfrwt>
<totfact> 0.42501087E+04</totfact>
</mgrwt>
</event>
<event>
 4    1  0.4319182E+000  0.1844099E+03  0.7546771E-02  0.1163602E+00
         21   -1    0    0  503  502  0.00000000000E+00  0.00000000000E+00  0.65315632293E+02  0.65315632293E+02  0.00000000000E+00 0.  1.
         21   -1    0    0  501  503 -0.00000000000E+00 -0.00000000000E+00 -0.86635039177E+03  0.86635039177E+03  0.00000000000E+00 0.  1.
          6    1    1    2  501    0  0.36608909579E+02  0.52324125947E+02 -0.69477597330E+03  0.71883285922E+03  0.17300000000E+03 0.  1.
         -6    1    1    2    0  502 -0.36608909579E+02 -0.52324125947E+02 -0.10625878617E+03  0.21283316484E+03  0.17300000000E+03 0.  1.
<mgrwt>
<rscale>  2 0.18440994E+03</rscale>
<asrwt>0</asrwt>
<pdfrwt beam="1">  1       21 0.10048560E-01 0.18440994E+03</pdfrwt>
<pdfrwt beam="2">  1       21 0.13328466E+00 0.18440994E+03</pdfrwt>
<totfact> 0.32806796E+04</totfact>
</mgrwt>
</event>
<event>
 4    1  0.4319182E+000  0.1982198E+03  0.7546771E-02  0.1151250E+00
         21   -1    0    0  503  502  0.00000000000E+00  0.00000000000E+00  0.53955285715E+02  0.53955285715E+02  0.00000000000E+00 0.  1.
         21   -1    0    0  501  503 -0.00000000000E+00 -0.00000000000E+00 -0.77247864752E+03  0.77247864752E+03  0.00000000000E+00 0.  1.
          6    1    1    2  501    0 -0.89480325228E+02  0.36815412908E+02 -0.45817471328E+03  0.49921455420E+03  0.17300000000E+03 0.  1.
         -6    1    1    2    0  502  0.89480325228E+02 -0.36815412908E+02 -0.26034864852E+03  0.32721937904E+03  0.17300000000E+03 0.  1.
<mgrwt>
<rscale>  2 0.19821984E+03</rscale>
<asrwt>0</asrwt>
<pdfrwt beam="1">  1       21 0.83008133E-02 0.19821984E+03</pdfrwt>
<pdfrwt beam="2">  1       21 0.11884287E+00 0.19821984E+03</pdfrwt>
<totfact> 0.60697049E+04</totfact>
</mgrwt>
</event>
<event>
 4    1  0.4319182E+000  0.2229932E+03  0.7546771E-02  0.1131671E+00
         21   -1    0    0  503  502  0.00000000000E+00  0.00000000000E+00  0.52708490872E+03  0.52708490872E+03  0.00000000000E+00 0.  1.
         21   -1    0    0  501  503 -0.00000000000E+00 -0.00000000000E+00 -0.99192121963E+02  0.99192121963E+02  0.00000000000E+00 0.  1.
          6    1    1    2  501    0 -0.13398503006E+03  0.42953021296E+02  0.14469967279E+03  0.26582690915E+03  0.17300000000E+03 0.  1.
         -6    1    1    2    0  502  0.13398503006E+03 -0.42953021296E+02  0.28319311396E+03  0.36045012153E+03  0.17300000000E+03 0.  1.
<mgrwt>
<rscale>  2 0.22299316E+03</rscale>
<asrwt>0</asrwt>
<pdfrwt beam="1">  1       21 0.81089984E-01 0.22299316E+03</pdfrwt>
<pdfrwt beam="2">  1       21 0.15260327E-01 0.22299316E+03</pdfrwt>
<totfact> 0.49972709E+04</totfact>
</mgrwt>
</event>
<event>
 4    1  0.4319182E+000  0.2009265E+03  0.7546771E-02  0.1148960E+00
         21   -1    0    0  503  502  0.00000000000E+00  0.00000000000E+00  0.96788387026E+02  0.96788387026E+02  0.00000000000E+00 0.  1.
         21   -1    0    0  501  503 -0.00000000000E+00 -0.00000000000E+00 -0.42109082662E+03  0.42109082662E+03  0.00000000000E+00 0.  1.
          6    1    1    2  501    0  0.10922006467E+02  0.10160308127E+03 -0.18732546807E+03  0.27470403589E+03  0.17300000000E+03 0.  1.
         -6    1    1    2    0  502 -0.10922006467E+02 -0.10160308127E+03 -0.13697697153E+03  0.24317517776E+03  0.17300000000E+03 0.  1.
<mgrwt>
<rscale>  2 0.20092654E+03</rscale>
<asrwt>0</asrwt>
<pdfrwt beam="1">  1       21 0.14890521E-01 0.20092654E+03</pdfrwt>
<pdfrwt beam="2">  1       21 0.64783205E-01 0.20092654E+03</pdfrwt>
<totfact> 0.86969590E+04</totfact>
</mgrwt>
</event>
<event>
 4    1  0.4319182E+000  0.1757921E+03  0.7546771E-02  0.1171939E+00
         21   -1    0    0  503  502  0.00000000000E+00  0.00000000000E+00  0.37999690527E+03  0.37999690527E+03  0.00000000000E+00 0. -1.
         21   -1    0    0  501  503 -0.00000000000E+00 -0.00000000000E+00 -0.90513532660E+02  0.90513532660E+02  0.00000000000E+00 0. -1.
          6    1    1    2  501    0  0.18153761944E+02  0.25382842486E+02  0.69781527099E+02  0.18913569015E+03  0.17300000000E+03 0. -1.
         -6    1    1    2    0  502 -0.18153761944E+02 -0.25382842486E+02  0.21970184551E+03  0.28137474777E+03  0.17300000000E+03 0. -1.
<mgrwt>
<rscale>  2 0.17579206E+03</rscale>
<asrwt>0</asrwt>
<pdfrwt beam="1">  1       21 0.58461062E-01 0.17579206E+03</pdfrwt>
<pdfrwt beam="2">  1       21 0.13925159E-01 0.17579206E+03</pdfrwt>
<totfact> 0.12374260E+05</totfact>
</mgrwt>
</event>
<event>
 4    1  0.4319182E+000  0.1889408E+03  0.7546771E-02  0.1159420E+00
         21   -1    0    0  501  502  0.00000000000E+00  0.00000000000E+00  0.70204730324E+03  0.70204730324E+03  0.00000000000E+00 0.  1.
         21   -1    0    0  502  503 -0.00000000000E+00 -0.00000000000E+00 -0.17509093482E+03  0.17509093482E+03  0.00000000000E+00 0.  1.
          6    1    1    2  501    0  0.70357537575E+02  0.28626201340E+02  0.63291461970E+03  0.66051461629E+03  0.17300000000E+03 0.  1.
         -6    1    1    2    0  503 -0.70357537575E+02 -0.28626201340E+02 -0.10595825128E+03  0.21662362178E+03  0.17300000000E+03 0.  1.
<mgrwt>
<rscale>  2 0.18894084E+03</rscale>
<asrwt>0</asrwt>
<pdfrwt beam="1">  1       21 0.10800728E+00 0.18894084E+03</pdfrwt>
<pdfrwt beam="2">  1       21 0.26937067E-01 0.18894084E+03</pdfrwt>
<totfact> 0.89855227E+03</totfact>
</mgrwt>
</event>
<event>
 4    1  0.4319182E+000  0.2981151E+03  0.7546771E-02  0.1086187E+00
         21   -1    0    0  503  502  0.00000000000E+00  0.00000000000E+00  0.29721111498E+03  0.29721111498E+03  0.00000000000E+00 0.  1.
         21   -1    0    0  501  503 -0.00000000000E+00 -0.00000000000E+00 -0.33559502301E+03  0.33559502301E+03  0.00000000000E+00 0. -1.
          6    1    1    2  501    0 -0.56746022107E+02 -0.23605831441E+03 -0.12364324802E+03  0.32273873583E+03  0.17300000000E+03 0. -1.
         -6    1    1    2    0  502  0.56746022107E+02  0.23605831441E+03  0.85259339994E+02  0.31006740216E+03  0.17300000000E+03 0.  1.
<mgrwt>
<rscale>  2 0.29811514E+03</rscale>
<asrwt>0</asrwt>
<pdfrwt beam="1">  1       21 0.45724787E-01 0.29811514E+03</pdfrwt>
<pdfrwt beam="2">  1       21 0.51630003E-01 0.29811514E+03</pdfrwt>
<totfact> 0.15467605E+04</totfact>
</mgrwt>
</event>
<event>
 4    1  0.4319182E+000  0.2230711E+03  0.7546771E-02  0.1131614E+00
         21   -1    0    0  503  502  0.00000000000E+00  0.00000000000E+00  0.39755913628E+03  0.39755913628E+03  0.00000000000E+00 0. -1.
         21   -1    0    0  501  503 -0.00000000000E+00 -0.00000000000E+00 -0.12519059077E+03  0.12519059077E+03  0.00000000000E+00 0.  1.
          6    1    1    2  501    0  0.14049792629E+03  0.95939224412E+01  0.13248817742E+03  0.25944908517E+03  0.17300000000E+03 0. -1.
         -6    1    1    2    0  502 -0.14049792629E+03 -0.95939224412E+01  0.13988036810E+03  0.26330064189E+03  0.17300000000E+03 0. -1.
<mgrwt>
<rscale>  2 0.22307109E+03</rscale>
<asrwt>0</asrwt>
<pdfrwt beam="1">  1       21 0.61162943E-01 0.22307109E+03</pdfrwt>
<pdfrwt beam="2">  1       21 0.19260091E-01 0.22307109E+03</pdfrwt>
<totfact> 0.60732174E+04</totfact>
</mgrwt>
</event>
<event>
 4    1  0.4319182E+000  0.1836547E+03  0.7546771E-02  0.1164312E+00
         21   -1    0    0  501  502  0.00000000000E+00  0.00000000000E+00  0.14966568214E+03  0.14966568214E+03  0.00000000000E+00 0.  1.
         21   -1    0    0  502  503 -0.00000000000E+00 -0.00000000000E+00 -0.66648455269E+03  0.66648455269E+03  0.00000000000E+00 0.  1.
          6    1    1    2  501    0  0.42415278679E+02 -0.44732552161E+02  0.73580084004E+02  0.19784611659E+03  0.17300000000E+03 0.  1.
         -6    1    1    2    0  503 -0.42415278679E+02  0.44732552161E+02 -0.59039895456E+03  0.61830411824E+03  0.17300000000E+03 0.  1.
<mgrwt>
<rscale>  2 0.18365472E+03</rscale>
<asrwt>0</asrwt>
<pdfrwt beam="1">  1       21 0.23025490E-01 0.18365472E+03</pdfrwt>
<pdfrwt beam="2">  1       21 0.10253608E+00 0.18365472E+03</pdfrwt>
<totfact> 0.13779979E+04</totfact>
</mgrwt>
</event>
<event>
 4    1  0.4319182E+000  0.1745313E+03  0.7546771E-02  0.1173203E+00
         21   -1    0    0  501  502  0.00000000000E+00  0.00000000000E+00  0.56700176306E+03  0.56700176306E+03  0.00000000000E+00 0.  1.
         21   -1    0    0  502  503 -0.00000000000E+00 -0.00000000000E+00 -0.53882309841E+02  0.53882309841E+02  0.00000000000E+00 0.  1.
          6    1    1    2  501    0  0.58897310849E+01  0.22304225536E+02  0.23969179198E+03  0.29650180868E+03  0.17300000000E+03 0.  1.
         -6    1    1    2    0  503 -0.58897310849E+01 -0.22304225536E+02  0.27342766124E+03  0.32438226422E+03  0.17300000000E+03 0.  1.
<mgrwt>
<rscale>  2 0.17453128E+03</rscale>
<asrwt>0</asrwt>
<pdfrwt beam="1">  1       21 0.87231036E-01 0.17453128E+03</pdfrwt>
<pdfrwt beam="2">  1       21 0.82895866E-02 0.17453128E+03</pdfrwt>
<totfact> 0.12821712E+05</totfact>
</mgrwt>
</event>
<event>
 4    1  0.4319182E+000  0.1907200E+03  0.7546771E-02  0.1157814E+00
         21   -1    0    0  503  502  0.00000000000E+00  0.00000000000E+00  0.72187721828E+03  0.72187721828E+03  0.00000000000E+00 0. -1.
         21   -1    0    0  501  503 -0.00000000000E+00 -0.00000000000E+00 -0.57098336625E+02  0.57098336625E+02  0.00000000000E+00 0. -1.
          6    1    1    2  501    0 -0.59132907897E+02 -0.54299344950E+02  0.46590953217E+03  0.50343401934E+03  0.17300000000E+03 0. -1.
         -6    1    1    2    0  502  0.59132907897E+02  0.54299344950E+02  0.19886934948E+03  0.27554153556E+03  0.17300000000E+03 0. -1.
<mgrwt>
<rscale>  2 0.19072000E+03</rscale>
<asrwt>0</asrwt>
<pdfrwt beam="1">  1       21 0.11105803E+00 0.19072000E+03</pdfrwt>
<pdfrwt beam="2">  1       21 0.87843600E-02 0.19072000E+03</pdfrwt>
<totfact> 0.65102736E+04</totfact>
</mgrwt>
</event>
<event>
 4    1  0.4319182E+000  0.2787656E+03  0.7546771E-02  0.1096365E+00
         21   -1    0    0  501  502  0.00000000000E+00  0.00000000000E+00  0.26253232974E+03  0.26253232974E+03  0.00000000000E+00 0.  1.
         21   -1    0    0  502  503 -0.00000000000E+00 -0.00000000000E+00 -0.37288374254E+03  0.37288374254E+03  0.00000000000E+00 0. -1.
          6    1    1    2  501    0  0.18671504775E+03  0.11366075192E+03  0.89086024375E+02  0.29265439570E+03  0.17300000000E+03 0.  1.
         -6    1    1    2    0  503 -0.18671504775E+03 -0.11366075192E+03 -0.19943743717E+03  0.34276167658E+03  0.17300000000E+03 0. -1.
<mgrwt>
<rscale>  2 0.27876563E+03</rscale>
<asrwt>0</asrwt>
<pdfrwt beam="1">  1       21 0.40389589E-01 0.27876563E+03</pdfrwt>
<pdfrwt beam="2">  1       21 0.57366730E-01 0.27876563E+03</pdfrwt>
<totfact> 0.16086550E+04</totfact>
</mgrwt>
</event>
<event>
 4    1  0.4319182E+000  0.2246035E+03  0.7546771E-02  0.1130497E+00
         21   -1    0    0  503  502  0.00000000000E+00  0.00000000000E+00  0.28229068856E+03  0.28229068856E+03  0.00000000000E+00 0.  1.
         21   -1    0    0  501  503 -0.00000000000E+00 -0.00000000000E+00 -0.20873150256E+03  0.20873150256E+03  0.00000000000E+00 0. -1.
          6    1    1    2  501    0  0.13449854101E+03  0.49273548871E+02 -0.56337614546E+02  0.23156136760E+03  0.17300000000E+03 0. -1.
         -6    1    1    2    0  502 -0.13449854101E+03 -0.49273548871E+02  0.12989680054E+03  0.25946082352E+03  0.17300000000E+03 0.  1.
<mgrwt>
<rscale>  2 0.22460352E+03</rscale>
<asrwt>0</asrwt>
<pdfrwt beam="1">  1       21 0.43429337E-01 0.22460352E+03</pdfrwt>
<pdfrwt beam="2">  1       21 0.32112539E-01 0.22460352E+03</pdfrwt>
<totfact> 0.46819480E+04</totfact>
</mgrwt>
</event>
<event>
 4    1  0.4319182E+000  0.1744436E+03  0.7546771E-02  0.1173292E+00
         21   -1    0    0  503  502  0.00000000000E+00  0.00000000000E+00  0.60501480598E+03  0.60501480598E+03  0.00000000000E+00 0. -1.
         21   -1    0    0  501  503 -0.00000000000E+00 -0.00000000000E+00 -0.52679177791E+02  0.52679177791E+02  0.00000000000E+00 0. -1.
          6    1    1    2  501    0 -0.12333806600E+02  0.18693735153E+02  0.20624175682E+03  0.27012264025E+03  0.17300000000E+03 0. -1.
         -6    1    1    2    0  502  0.12333806600E+02 -0.18693735153E+02  0.34609387138E+03  0.38757134353E+03  0.17300000000E+03 0. -1.
<mgrwt>
<rscale>  2 0.17444363E+03</rscale>
<asrwt>0</asrwt>
<pdfrwt beam="1">  1       21 0.93079196E-01 0.17444363E+03</pdfrwt>
<pdfrwt beam="2">  1       21 0.81044893E-02 0.17444363E+03</pdfrwt>
<totfact> 0.11480657E+05</totfact>
</mgrwt>
</event>
<event>
 4    1  0.4319182E+000  0.1943940E+03  0.7546771E-02  0.1154557E+00
         21   -1    0    0  501  502  0.00000000000E+00  0.00000000000E+00  0.11149982561E+03  0.11149982561E+03  0.00000000000E+00 0.  1.
         21   -1    0    0  502  503 -0.00000000000E+00 -0.00000000000E+00 -0.54061278573E+03  0.54061278573E+03  0.00000000000E+00 0.  1.
          6    1    1    2  501    0  0.24506023806E+02 -0.85202550815E+02 -0.15397695504E+02  0.19500284330E+03  0.17300000000E+03 0.  1.
         -6    1    1    2    0  503 -0.24506023806E+02  0.85202550815E+02 -0.41371526462E+03  0.45710976805E+03  0.17300000000E+03 0.  1.
<mgrwt>
<rscale>  2 0.19439398E+03</rscale>
<asrwt>0</asrwt>
<pdfrwt beam="1">  1       21 0.17153820E-01 0.19439398E+03</pdfrwt>
<pdfrwt beam="2">  1       21 0.83171197E-01 0.19439398E+03</pdfrwt>
<totfact> 0.38605015E+04</totfact>
</mgrwt>
</event>
<event>
 4    1  0.4319182E+000  0.1757940E+03  0.7546771E-02  0.1171937E+00
         21   -1    0    0  503  502  0.00000000000E+00  0.00000000000E+00  0.37444771179E+03  0.37444771179E+03  0.00000000000E+00 0. -1.
         21   -1    0    0  501  503 -0.00000000000E+00 -0.00000000000E+00 -0.12255887791E+03  0.12255887791E+03  0.00000000000E+00 0. -1.
          6    1    1    2  501    0  0.24128756278E+02  0.19807274287E+02 -0.16072906485E+02  0.17652723109E+03  0.17300000000E+03 0. -1.
         -6    1    1    2    0  502 -0.24128756278E+02 -0.19807274287E+02  0.26796174037E+03  0.32047935861E+03  0.17300000000E+03 0. -1.
<mgrwt>
<rscale>  2 0.17579398E+03</rscale>
<asrwt>0</asrwt>
<pdfrwt beam="1">  1       21 0.57607340E-01 0.17579398E+03</pdfrwt>
<pdfrwt beam="2">  1       21 0.18855212E-01 0.17579398E+03</pdfrwt>
<totfact> 0.73353682E+04</totfact>
</mgrwt>
</event>
<event>
 4    1  0.4319182E+000  0.2477804E+03  0.7546771E-02  0.1114716E+00
         21   -1    0    0  503  502  0.00000000000E+00  0.00000000000E+00  0.35459208819E+03  0.35459208819E+03  0.00000000000E+00 0.  1.
         21   -1    0    0  501  503 -0.00000000000E+00 -0.00000000000E+00 -0.17676120451E+03  0.17676120451E+03  0.00000000000E+00 0. -1.
          6    1    1    2  501    0  0.14117346901E+03  0.10740653249E+03  0.50904299676E+02  0.25295525158E+03  0.17300000000E+03 0. -1.
         -6    1    1    2    0  502 -0.14117346901E+03 -0.10740653249E+03  0.12692658400E+03  0.27839804112E+03  0.17300000000E+03 0.  1.
<mgrwt>
<rscale>  2 0.24778037E+03</rscale>
<asrwt>0</asrwt>
<pdfrwt beam="1">  1       21 0.54552629E-01 0.24778037E+03</pdfrwt>
<pdfrwt beam="2">  1       21 0.27194032E-01 0.24778037E+03</pdfrwt>
<totfact> 0.39855750E+04</totfact>
</mgrwt>
</event>
<event>
 4    1  0.4319182E+000  0.1953422E+03  0.7546771E-02  0.1153729E+00
         21   -1    0    0  501  502  0.00000000000E+00  0.00000000000E+00  0.54604392506E+03  0.54604392506E+03  0.00000000000E+00 0. -1.
         21   -1    0    0  502  503 -0.00000000000E+00 -0.00000000000E+00 -0.82002982068E+02  0.82002982068E+02  0.00000000000E+00 0. -1.
          6    1    1    2  501    0 -0.51151336098E+02 -0.74920608578E+02  0.11128942948E+03  0.22481969195E+03  0.17300000000E+03 0. -1.
         -6    1    1    2    0  503  0.51151336098E+02  0.74920608578E+02  0.35275151351E+03  0.40322721518E+03  0.17300000000E+03 0. -1.
<mgrwt>
<rscale>  2 0.19534215E+03</rscale>
<asrwt>0</asrwt>
<pdfrwt beam="1">  1       21 0.84006756E-01 0.19534215E+03</pdfrwt>
<pdfrwt beam="2">  1       21 0.12615844E-01 0.19534215E+03</pdfrwt>
<totfact> 0.65952295E+04</totfact>
</mgrwt>
</event>
<event>
 4    1  0.4319182E+000  0.1857335E+03  0.7546771E-02  0.1162367E+00
         21   -1    0    0  501  502  0.00000000000E+00  0.00000000000E+00  0.16875665379E+03  0.16875665379E+03  0.00000000000E+00 0. -1.
         21   -1    0    0  502  503 -0.00000000000E+00 -0.00000000000E+00 -0.25641541860E+03  0.25641541860E+03  0.00000000000E+00 0. -1.
          6    1    1    2  501    0 -0.62194249851E+02  0.26453956185E+02 -0.13956038259E+03  0.23232313036E+03  0.17300000000E+03 0. -1.
         -6    1    1    2    0  503  0.62194249851E+02 -0.26453956185E+02  0.51901617783E+02  0.19284894203E+03  0.17300000000E+03 0. -1.
<mgrwt>
<rscale>  2 0.18573351E+03</rscale>
<asrwt>0</asrwt>
<pdfrwt beam="1">  1       21 0.25962562E-01 0.18573351E+03</pdfrwt>
<pdfrwt beam="2">  1       21 0.39448526E-01 0.18573351E+03</pdfrwt>
<totfact> 0.87525452E+04</totfact>
</mgrwt>
</event>
<event>
 4    1  0.4319182E+000  0.2001138E+03  0.7546771E-02  0.1149643E+00
         21   -1    0    0  503  502  0.00000000000E+00  0.00000000000E+00  0.77172780340E+03  0.77172780340E+03  0.00000000000E+00 0.  1.
         21   -1    0    0  501  503 -0.00000000000E+00 -0.00000000000E+00 -0.31053529911E+03  0.31053529911E+03  0.00000000000E+00 0. -1.
          6    1    1    2  501    0 -0.69942737158E+02  0.72281039245E+02 -0.26325826890E+03  0.33068179759E+03  0.17300000000E+03 0. -1.
         -6    1    1    2    0  502  0.69942737158E+02 -0.72281039245E+02  0.72445077319E+03  0.75158130491E+03  0.17300000000E+03 0.  1.
<mgrwt>
<rscale>  2 0.20011381E+03</rscale>
<asrwt>0</asrwt>
<pdfrwt beam="1">  1       21 0.11872735E+00 0.20011381E+03</pdfrwt>
<pdfrwt beam="2">  1       21 0.47774662E-01 0.20011381E+03</pdfrwt>
<totfact> 0.22558814E+03</totfact>
</mgrwt>
</event>
<event>
 4    1  0.4319182E+000  0.1898969E+03  0.7546771E-02  0.1158554E+00
         21   -1    0    0  503  502  0.00000000000E+00  0.00000000000E+00  0.23897674302E+03  0.23897674302E+03  0.00000000000E+00 0. -1.
         21   -1    0    0  501  503 -0.00000000000E+00 -0.00000000000E+00 -0.15635588578E+03  0.15635588578E+03  0.00000000000E+00 0. -1.
          6    1    1    2  501    0 -0.66839020647E+02 -0.40796809895E+02  0.43757709584E+01  0.18994731309E+03  0.17300000000E+03 0. -1.
         -6    1    1    2    0  502  0.66839020647E+02  0.40796809895E+02  0.78245086282E+02  0.20538531570E+03  0.17300000000E+03 0. -1.
<mgrwt>
<rscale>  2 0.18989690E+03</rscale>
<asrwt>0</asrwt>
<pdfrwt beam="1">  1       21 0.36765653E-01 0.18989690E+03</pdfrwt>
<pdfrwt beam="2">  1       21 0.24054752E-01 0.18989690E+03</pdfrwt>
<totfact> 0.11642221E+05</totfact>
</mgrwt>
</event>
<event>
 4    1  0.4319182E+000  0.1763922E+03  0.7546771E-02  0.1171341E+00
         21   -1    0    0  503  502  0.00000000000E+00  0.00000000000E+00  0.84572390490E+03  0.84572390490E+03  0.00000000000E+00 0.  1.
         21   -1    0    0  501  503 -0.00000000000E+00 -0.00000000000E+00 -0.12865346917E+03  0.12865346917E+03  0.00000000000E+00 0.  1.
          6    1    1    2  501    0 -0.34032520227E+02 -0.51943513839E+01 -0.53142947951E+02  0.18422368641E+03  0.17300000000E+03 0.  1.
         -6    1    1    2    0  502  0.34032520227E+02  0.51943513839E+01  0.77021338368E+03  0.79015368766E+03  0.17300000000E+03 0.  1.
<mgrwt>
<rscale>  2 0.17639216E+03</rscale>
<asrwt>0</asrwt>
<pdfrwt beam="1">  1       21 0.13011137E+00 0.17639216E+03</pdfrwt>
<pdfrwt beam="2">  1       21 0.19792842E-01 0.17639216E+03</pdfrwt>
<totfact> 0.10275071E+04</totfact>
</mgrwt>
</event>
<event>
 4    1  0.4319182E+000  0.1814216E+03  0.7546771E-02  0.1166434E+00
         21   -1    0    0  503  502  0.00000000000E+00  0.00000000000E+00  0.23124562057E+02  0.23124562057E+02  0.00000000000E+00 0.  1.
         21   -1    0    0  501  503 -0.00000000000E+00 -0.00000000000E+00 -0.20230419504E+04  0.20230419504E+04  0.00000000000E+00 0.  1.
          6    1    1    2  501    0 -0.27944580420E+02 -0.46945841128E+02 -0.15569917927E+04  0.15675258384E+04  0.17300000000E+03 0.  1.
         -6    1    1    2    0  502  0.27944580420E+02  0.46945841128E+02 -0.44292559573E+03  0.47864067412E+03  0.17300000000E+03 0.  1.
<mgrwt>
<rscale>  2 0.18142164E+03</rscale>
<asrwt>0</asrwt>
<pdfrwt beam="1">  1       21 0.35576254E-02 0.18142164E+03</pdfrwt>
<pdfrwt beam="2">  1       21 0.31123718E+00 0.18142164E+03</pdfrwt>
<totfact> 0.14191890E+04</totfact>
</mgrwt>
</event>
<event>
 4    1  0.4319182E+000  0.1821940E+03  0.7546771E-02  0.1165696E+00
         21   -1    0    0  503  502  0.00000000000E+00  0.00000000000E+00  0.17092873785E+03  0.17092873785E+03  0.00000000000E+00 0.  1.
         21   -1    0    0  501  503 -0.00000000000E+00 -0.00000000000E+00 -0.19578106605E+03  0.19578106605E+03  0.00000000000E+00 0. -1.
          6    1    1    2  501    0  0.14795785793E+02 -0.55197192362E+02 -0.28894644450E+02  0.18447098905E+03  0.17300000000E+03 0. -1.
         -6    1    1    2    0  502 -0.14795785793E+02  0.55197192362E+02  0.40423162487E+01  0.18223881486E+03  0.17300000000E+03 0. -1.
<mgrwt>
<rscale>  2 0.18219398E+03</rscale>
<asrwt>0</asrwt>
<pdfrwt beam="1">  1       21 0.26296729E-01 0.18219398E+03</pdfrwt>
<pdfrwt beam="2">  1       21 0.30120164E-01 0.18219398E+03</pdfrwt>
<totfact> 0.14587069E+05</totfact>
</mgrwt>
</event>
<event>
 4    1  0.4319182E+000  0.2691879E+03  0.7546771E-02  0.1101745E+00
         21   -1    0    0  501  502  0.00000000000E+00  0.00000000000E+00  0.19937234789E+03  0.19937234789E+03  0.00000000000E+00 0. -1.
         21   -1    0    0  502  503 -0.00000000000E+00 -0.00000000000E+00 -0.14443263026E+04  0.14443263026E+04  0.00000000000E+00 0.  1.
          6    1    1    2  501    0 -0.20259385665E+03 -0.38585996914E+02  0.88486462384E+02  0.28335843721E+03  0.17300000000E+03 0. -1.
         -6    1    1    2    0  503  0.20259385665E+03  0.38585996914E+02 -0.13334404171E+04  0.13603402133E+04  0.17300000000E+03 0.  1.
<mgrwt>
<rscale>  2 0.26918795E+03</rscale>
<asrwt>0</asrwt>
<pdfrwt beam="1">  1       21 0.30672670E-01 0.26918795E+03</pdfrwt>
<pdfrwt beam="2">  1       21 0.22220404E+00 0.26918795E+03</pdfrwt>
<totfact> 0.92153188E+02</totfact>
</mgrwt>
</event>
<event>
 4    1  0.4319182E+000  0.1851168E+03  0.7546771E-02  0.1162941E+00
         21   -1    0    0  503  502  0.00000000000E+00  0.00000000000E+00  0.41947962855E+03  0.41947962855E+03  0.00000000000E+00 0.  1.
         21   -1    0    0  501  503 -0.00000000000E+00 -0.00000000000E+00 -0.98258120322E+02  0.98258120322E+02  0.00000000000E+00 0. -1.
          6    1    1    2  501    0 -0.33481315805E+01 -0.65787746954E+02  0.54318248183E+02  0.19292151181E+03  0.17300000000E+03 0. -1.
         -6    1    1    2    0  502  0.33481315805E+01  0.65787746954E+02  0.26690326004E+03  0.32481623705E+03  0.17300000000E+03 0. -1.
<mgrwt>
<rscale>  2 0.18511682E+03</rscale>
<asrwt>0</asrwt>
<pdfrwt beam="1">  1       21 0.64535327E-01 0.18511682E+03</pdfrwt>
<pdfrwt beam="2">  1       21 0.15116634E-01 0.18511682E+03</pdfrwt>
<totfact> 0.85886203E+04</totfact>
</mgrwt>
</event>
<event>
 4    1  0.4319182E+000  0.2093642E+03  0.7546771E-02  0.1142070E+00
         21   -1    0    0  503  502  0.00000000000E+00  0.00000000000E+00  0.22445904999E+03  0.22445904999E+03  0.00000000000E+00 0.  1.
         21   -1    0    0  501  503 -0.00000000000E+00 -0.00000000000E+00 -0.20021833191E+03  0.20021833191E+03  0.00000000000E+00 0. -1.
          6    1    1    2  501    0  0.97666999389E+02  0.66072086019E+02  0.45453125321E+02  0.21424133570E+03  0.17300000000E+03 0. -1.
         -6    1    1    2    0  502 -0.97666999389E+02 -0.66072086019E+02 -0.21212407240E+02  0.21043604620E+03  0.17300000000E+03 0.  1.
<mgrwt>
<rscale>  2 0.20936419E+03</rscale>
<asrwt>0</asrwt>
<pdfrwt beam="1">  1       21 0.34532161E-01 0.20936419E+03</pdfrwt>
<pdfrwt beam="2">  1       21 0.30802820E-01 0.20936419E+03</pdfrwt>
<totfact> 0.81220503E+04</totfact>
</mgrwt>
</event>
<event>
 4    1  0.4319182E+000  0.2264018E+03  0.7546771E-02  0.1129198E+00
         21   -1    0    0  501  502  0.00000000000E+00  0.00000000000E+00  0.20522655747E+03  0.20522655747E+03  0.00000000000E+00 0. -1.
         21   -1    0    0  502  503 -0.00000000000E+00 -0.00000000000E+00 -0.36246224874E+03  0.36246224874E+03  0.00000000000E+00 0.  1.
          6    1    1    2  501    0 -0.89013252356E+02 -0.11578174180E+03  0.79656896012E+02  0.24000623307E+03  0.17300000000E+03 0. -1.
         -6    1    1    2    0  503  0.89013252356E+02  0.11578174180E+03 -0.23689258728E+03  0.32768257314E+03  0.17300000000E+03 0.  1.
<mgrwt>
<rscale>  2 0.22640179E+03</rscale>
<asrwt>0</asrwt>
<pdfrwt beam="1">  1       21 0.31573316E-01 0.22640179E+03</pdfrwt>
<pdfrwt beam="2">  1       21 0.55763423E-01 0.22640179E+03</pdfrwt>
<totfact> 0.28691627E+04</totfact>
</mgrwt>
</event>
<event>
 4    1  0.4319182E+000  0.1862595E+03  0.7546771E-02  0.1161879E+00
         21   -1    0    0  501  502  0.00000000000E+00  0.00000000000E+00  0.65032000740E+03  0.65032000740E+03  0.00000000000E+00 0.  1.
         21   -1    0    0  502  503 -0.00000000000E+00 -0.00000000000E+00 -0.69839335252E+02  0.69839335252E+02  0.00000000000E+00 0.  1.
          6    1    1    2  501    0  0.22601669560E+00 -0.69018593912E+02  0.46522086064E+03  0.50112180811E+03  0.17300000000E+03 0.  1.
         -6    1    1    2    0  503 -0.22601669560E+00  0.69018593912E+02  0.11525981151E+03  0.21903753454E+03  0.17300000000E+03 0.  1.
<mgrwt>
<rscale>  2 0.18625954E+03</rscale>
<asrwt>0</asrwt>
<pdfrwt beam="1">  1       21 0.10004923E+00 0.18625954E+03</pdfrwt>
<pdfrwt beam="2">  1       21 0.10744514E-01 0.18625954E+03</pdfrwt>
<totfact> 0.58772591E+04</totfact>
</mgrwt>
</event>
<event>
 4    1  0.4319182E+000  0.1919881E+03  0.7546771E-02  0.1156680E+00
         21   -1    0    0  501  502  0.00000000000E+00  0.00000000000E+00  0.16488755144E+03  0.16488755144E+03  0.00000000000E+00 0. -1.
         21   -1    0    0  502  503 -0.00000000000E+00 -0.00000000000E+00 -0.64253484048E+03  0.64253484048E+03  0.00000000000E+00 0. -1.
          6    1    1    2  501    0  0.75696052724E+02 -0.34648850268E+02  0.87182140654E+02  0.21085578216E+03  0.17300000000E+03 0. -1.
         -6    1    1    2    0  503 -0.75696052724E+02  0.34648850268E+02 -0.56482942970E+03  0.59656660975E+03  0.17300000000E+03 0. -1.
<mgrwt>
<rscale>  2 0.19198811E+03</rscale>
<asrwt>0</asrwt>
<pdfrwt beam="1">  1       21 0.25367315E-01 0.19198811E+03</pdfrwt>
<pdfrwt beam="2">  1       21 0.98851514E-01 0.19198811E+03</pdfrwt>
<totfact> 0.12434381E+04</totfact>
</mgrwt>
</event>
<event>
 4    1  0.4319182E+000  0.1923437E+03  0.7546771E-02  0.1156364E+00
         21   -1    0    0  501  502  0.00000000000E+00  0.00000000000E+00  0.28529272376E+03  0.28529272376E+03  0.00000000000E+00 0. -1.
         21   -1    0    0  502  503 -0.00000000000E+00 -0.00000000000E+00 -0.13291476223E+03  0.13291476223E+03  0.00000000000E+00 0.  1.
          6    1    1    2  501    0 -0.63217718576E+02  0.55413121837E+02  0.10882168970E+03  0.22099378761E+03  0.17300000000E+03 0.  1.
         -6    1    1    2    0  503  0.63217718576E+02 -0.55413121837E+02  0.43556271832E+02  0.19721369838E+03  0.17300000000E+03 0. -1.
<mgrwt>
<rscale>  2 0.19234369E+03</rscale>
<asrwt>0</asrwt>
<pdfrwt beam="1">  1       21 0.43891188E-01 0.19234369E+03</pdfrwt>
<pdfrwt beam="2">  1       21 0.20448425E-01 0.19234369E+03</pdfrwt>
<totfact> 0.11046610E+05</totfact>
</mgrwt>
</event>
<event>
 4    1  0.4319182E+000  0.2094770E+03  0.7546771E-02  0.1141981E+00
         21   -1    0    0  503  502  0.00000000000E+00  0.00000000000E+00  0.10237268139E+04  0.10237268139E+04  0.00000000000E+00 0.  1.
         21   -1    0    0  501  503 -0.00000000000E+00 -0.00000000000E+00 -0.47936098674E+02  0.47936098674E+02  0.00000000000E+00 0.  1.
          6    1    1    2  501    0  0.40294182277E+01  0.11804815527E+03  0.31359093856E+03  0.37712051114E+03  0.17300000000E+03 0.  1.
         -6    1    1    2    0  502 -0.40294182277E+01 -0.11804815527E+03  0.66219977667E+03  0.69454240144E+03  0.17300000000E+03 0.  1.
<mgrwt>
<rscale>  2 0.20947698E+03</rscale>
<asrwt>0</asrwt>
<pdfrwt beam="1">  1       21 0.15749642E+00 0.20947698E+03</pdfrwt>
<pdfrwt beam="2">  1       21 0.73747851E-02 0.20947698E+03</pdfrwt>
<totfact> 0.35925249E+04</totfact>
</mgrwt>
</event>
<event>
 4    1  0.4319182E+000  0.4365093E+03  0.7546771E-02  0.1031823E+00
         21   -1    0    0  503  502  0.00000000000E+00  0.00000000000E+00  0.35682243837E+03  0.35682243837E+03  0.00000000000E+00 0. -1.
         21   -1    0    0  501  503 -0.00000000000E+00 -0.00000000000E+00 -0.59119662132E+03  0.59119662132E+03  0.00000000000E+00 0.  1.
          6    1    1    2  501    0 -0.16081177414E+03 -0.36708433200E+03  0.30260130738E+02  0.43755686375E+03  0.17300000000E+03 0. -1.
         -6    1    1    2    0  502  0.16081177414E+03  0.36708433200E+03 -0.26463431369E+03  0.51046219594E+03  0.17300000000E+03 0.  1.
<mgrwt>
<rscale>  2 0.43650926E+03</rscale>
<asrwt>0</asrwt>
<pdfrwt beam="1">  1       21 0.54895760E-01 0.43650926E+03</pdfrwt>
<pdfrwt beam="2">  1       21 0.90953326E-01 0.43650926E+03</pdfrwt>
<totfact> 0.28036403E+03</totfact>
</mgrwt>
</event>
<event>
 4    1  0.4319182E+000  0.2104032E+03  0.7546771E-02  0.1141247E+00
         21   -1    0    0  501  502  0.00000000000E+00  0.00000000000E+00  0.38878722131E+02  0.38878722131E+02  0.00000000000E+00 0. -1.
         21   -1    0    0  502  503 -0.00000000000E+00 -0.00000000000E+00 -0.12611586520E+04  0.12611586520E+04  0.00000000000E+00 0.  1.
          6    1    1    2  501    0 -0.80132653352E+02  0.88990275853E+02 -0.40855240972E+03  0.45954823774E+03  0.17300000000E+03 0. -1.
         -6    1    1    2    0  503  0.80132653352E+02 -0.88990275853E+02 -0.81372752018E+03  0.84048913641E+03  0.17300000000E+03 0.  1.
<mgrwt>
<rscale>  2 0.21040321E+03</rscale>
<asrwt>0</asrwt>
<pdfrwt beam="1">  1       21 0.59813406E-02 0.21040321E+03</pdfrwt>
<pdfrwt beam="2">  1       21 0.19402445E+00 0.21040321E+03</pdfrwt>
<totfact> 0.28738714E+04</totfact>
</mgrwt>
</event>
<event>
 4    1  0.4319182E+000  0.2648905E+03  0.7546771E-02  0.1104240E+00
         21   -1    0    0  501  502  0.00000000000E+00  0.00000000000E+00  0.13743250620E+04  0.13743250620E+04  0.00000000000E+00 0. -1.
         21   -1    0    0  502  503 -0.00000000000E+00 -0.00000000000E+00 -0.65641797539E+02  0.65641797539E+02  0.00000000000E+00 0.  1.
          6    1    1    2  501    0  0.54498439307E+02 -0.19304900152E+03  0.99373491818E+03  0.10284338017E+04  0.17300000000E+03 0. -1.
         -6    1    1    2    0  503 -0.54498439307E+02  0.19304900152E+03  0.31494834633E+03  0.41153305788E+03  0.17300000000E+03 0.  1.
<mgrwt>
<rscale>  2 0.26489054E+03</rscale>
<asrwt>0</asrwt>
<pdfrwt beam="1">  1       21 0.21143460E+00 0.26489054E+03</pdfrwt>
<pdfrwt beam="2">  1       21 0.10098739E-01 0.26489054E+03</pdfrwt>
<totfact> 0.85758989E+03</totfact>
</mgrwt>
</event>
<event>
 4    1  0.4319182E+000  0.2207982E+03  0.7546771E-02  0.1133289E+00
         21   -1    0    0  503  502  0.00000000000E+00  0.00000000000E+00  0.16194206392E+04  0.16194206392E+04  0.00000000000E+00 0.  1.
         21   -1    0    0  501  503 -0.00000000000E+00 -0.00000000000E+00 -0.52904696457E+02  0.52904696457E+02  0.00000000000E+00 0.  1.
          6    1    1    2  501    0 -0.13378813964E+03 -0.30390367863E+02  0.23433298341E+03  0.32196861320E+03  0.17300000000E+03 0.  1.
         -6    1    1    2    0  502  0.13378813964E+03  0.30390367863E+02  0.13321829593E+04  0.13503567225E+04  0.17300000000E+03 0.  1.
<mgrwt>
<rscale>  2 0.22079819E+03</rscale>
<asrwt>0</asrwt>
<pdfrwt beam="1">  1       21 0.24914160E+00 0.22079819E+03</pdfrwt>
<pdfrwt beam="2">  1       21 0.81391853E-02 0.22079819E+03</pdfrwt>
<totfact> 0.76298526E+03</totfact>
</mgrwt>
</event>
<event>
 4    1  0.4319182E+000  0.1918139E+03  0.7546771E-02  0.1156835E+00
         21   -1    0    0  503  502  0.00000000000E+00  0.00000000000E+00  0.53338631664E+03  0.53338631664E+03  0.00000000000E+00 0. -1.
         21   -1    0    0  501  503 -0.00000000000E+00 -0.00000000000E+00 -0.13427246880E+03  0.13427246880E+03  0.00000000000E+00 0. -1.
          6    1    1    2  501    0 -0.82845370567E+02  0.45238562767E+00 -0.33233600863E+02  0.19467160117E+03  0.17300000000E+03 0. -1.
         -6    1    1    2    0  502  0.82845370567E+02 -0.45238562767E+00  0.43234744870E+03  0.47298718426E+03  0.17300000000E+03 0. -1.
<mgrwt>
<rscale>  2 0.19181387E+03</rscale>
<asrwt>0</asrwt>
<pdfrwt beam="1">  1       21 0.82059432E-01 0.19181387E+03</pdfrwt>
<pdfrwt beam="2">  1       21 0.20657303E-01 0.19181387E+03</pdfrwt>
<totfact> 0.28226006E+04</totfact>
</mgrwt>
</event>
<event>
 4    1  0.4319182E+000  0.1779071E+03  0.7546771E-02  0.1169844E+00
         21   -1    0    0  501  502  0.00000000000E+00  0.00000000000E+00  0.17021628752E+04  0.17021628752E+04  0.00000000000E+00 0. -1.
         21   -1    0    0  502  503 -0.00000000000E+00 -0.00000000000E+00 -0.33757304986E+02  0.33757304986E+02  0.00000000000E+00 0. -1.
          6    1    1    2  501    0  0.67931669617E+01  0.40936583724E+02  0.14159106630E+04  0.14270437823E+04  0.17300000000E+03 0. -1.
         -6    1    1    2    0  503 -0.67931669617E+01 -0.40936583724E+02  0.25249490723E+03  0.30887639791E+03  0.17300000000E+03 0. -1.
<mgrwt>
<rscale>  2 0.17790714E+03</rscale>
<asrwt>0</asrwt>
<pdfrwt beam="1">  1       21 0.26187114E+00 0.17790714E+03</pdfrwt>
<pdfrwt beam="2">  1       21 0.51934329E-02 0.17790714E+03</pdfrwt>
<totfact> 0.14498401E+04</totfact>
</mgrwt>
</event>
<event>
 4    1  0.4319182E+000  0.1755771E+03  0.7546771E-02  0.1172154E+00
         21   -1    0    0  503  502  0.00000000000E+00  0.00000000000E+00  0.70637703948E+02  0.70637703948E+02  0.00000000000E+00 0.  1.
         21   -1    0    0  501  503 -0.00000000000E+00 -0.00000000000E+00 -0.98022790066E+03  0.98022790066E+03  0.00000000000E+00 0.  1.
          6    1    1    2  501    0  0.92126571529E+01 -0.28520907382E+02 -0.84615706865E+03  0.86418117316E+03  0.17300000000E+03 0.  1.
         -6    1    1    2    0  502 -0.92126571529E+01  0.28520907382E+02 -0.63433128056E+02  0.18668443145E+03  0.17300000000E+03 0.  1.
<mgrwt>
<rscale>  2 0.17557709E+03</rscale>
<asrwt>0</asrwt>
<pdfrwt beam="1">  1       21 0.10867339E-01 0.17557709E+03</pdfrwt>
<pdfrwt beam="2">  1       21 0.15080430E+00 0.17557709E+03</pdfrwt>
<totfact> 0.20879616E+04</totfact>
</mgrwt>
</event>
<event>
 4    1  0.4319182E+000  0.2203130E+03  0.7546771E-02  0.1133650E+00
         21   -1    0    0  503  502  0.00000000000E+00  0.00000000000E+00  0.91596197951E+03  0.91596197951E+03  0.00000000000E+00 0. -1.
         21   -1    0    0  501  503 -0.00000000000E+00 -0.00000000000E+00 -0.73877107885E+02  0.73877107885E+02  0.00000000000E+00 0.  1.
          6    1    1    2  501    0 -0.13579022592E+03 -0.13032779923E+02  0.15789004970E+03  0.27104816289E+03  0.17300000000E+03 0.  1.
         -6    1    1    2    0  502  0.13579022592E+03  0.13032779923E+02  0.68419482192E+03  0.71879092451E+03  0.17300000000E+03 0. -1.
<mgrwt>
<rscale>  2 0.22031305E+03</rscale>
<asrwt>0</asrwt>
<pdfrwt beam="1">  1       21 0.14091722E+00 0.22031305E+03</pdfrwt>
<pdfrwt beam="2">  1       21 0.11365710E-01 0.22031305E+03</pdfrwt>
<totfact> 0.22356709E+04</totfact>
</mgrwt>
</event>
<event>
 4    1  0.4319182E+000  0.1962601E+03  0.7546771E-02  0.1152933E+00
         21   -1    0    0  501  502  0.00000000000E+00  0.00000000000E+00  0.13831993512E+04  0.13831993512E+04  0.00000000000E+00 0.  1.
         21   -1    0    0  502  503 -0.00000000000E+00 -0.00000000000E+00 -0.32323178479E+02  0.32323178479E+02  0.00000000000E+00 0.  1.
          6    1    1    2  501    0  0.78779014137E+02 -0.48814777847E+02  0.93881714354E+03  0.95911190411E+03  0.17300000000E+03 0.  1.
         -6    1    1    2    0  503 -0.78779014137E+02  0.48814777847E+02  0.41205902923E+03  0.45641062561E+03  0.17300000000E+03 0.  1.
<mgrwt>
<rscale>  2 0.19626007E+03</rscale>
<asrwt>0</asrwt>
<pdfrwt beam="1">  1       21 0.21279985E+00 0.19626007E+03</pdfrwt>
<pdfrwt beam="2">  1       21 0.49727978E-02 0.19626007E+03</pdfrwt>
<totfact> 0.30178875E+04</totfact>
</mgrwt>
</event>
<event>
 4    1  0.4319182E+000  0.1975127E+03  0.7546771E-02  0.1151855E+00
         21   -1    0    0  503  502  0.00000000000E+00  0.00000000000E+00  0.10022712828E+03  0.10022712828E+03  0.00000000000E+00 0.  1.
         21   -1    0    0  501  503 -0.00000000000E+00 -0.00000000000E+00 -0.90047285469E+03  0.90047285469E+03  0.00000000000E+00 0.  1.
          6    1    1    2  501    0 -0.93130257087E+02 -0.20224194221E+02 -0.77713281375E+03  0.80183955566E+03  0.17300000000E+03 0.  1.
         -6    1    1    2    0  502  0.93130257087E+02  0.20224194221E+02 -0.23112912666E+02  0.19886042731E+03  0.17300000000E+03 0.  1.
<mgrwt>
<rscale>  2 0.19751269E+03</rscale>
<asrwt>0</asrwt>
<pdfrwt beam="1">  1       21 0.15419558E-01 0.19751269E+03</pdfrwt>
<pdfrwt beam="2">  1       21 0.13853429E+00 0.19751269E+03</pdfrwt>
<totfact> 0.13669254E+04</totfact>
</mgrwt>
</event>
<event>
 4    1  0.4319182E+000  0.1840099E+03  0.7546771E-02  0.1163978E+00
         21   -1    0    0  503  502  0.00000000000E+00  0.00000000000E+00  0.71421255304E+03  0.71421255304E+03  0.00000000000E+00 0.  1.
         21   -1    0    0  501  503 -0.00000000000E+00 -0.00000000000E+00 -0.47967851515E+02  0.47967851515E+02  0.00000000000E+00 0. -1.
          6    1    1    2  501    0 -0.58233027284E+02 -0.23228599784E+02  0.37427950475E+03  0.41706690230E+03  0.17300000000E+03 0.  1.
         -6    1    1    2    0  502  0.58233027284E+02  0.23228599784E+02  0.29196519678E+03  0.34511350226E+03  0.17300000000E+03 0. -1.
<mgrwt>
<rscale>  2 0.18400993E+03</rscale>
<asrwt>0</asrwt>
<pdfrwt beam="1">  1       21 0.10987885E+00 0.18400993E+03</pdfrwt>
<pdfrwt beam="2">  1       21 0.73796700E-02 0.18400993E+03</pdfrwt>
<totfact> 0.90744954E+04</totfact>
</mgrwt>
</event>
<event>
 4    1  0.4319182E+000  0.1944608E+03  0.7546771E-02  0.1154498E+00
         21   -1    0    0  503  502  0.00000000000E+00  0.00000000000E+00  0.86675315813E+02  0.86675315813E+02  0.00000000000E+00 0. -1.
         21   -1    0    0  501  503 -0.00000000000E+00 -0.00000000000E+00 -0.46876242982E+03  0.46876242982E+03  0.00000000000E+00 0. -1.
          6    1    1    2  501    0 -0.88505044690E+02 -0.72694380438E+01 -0.11794116547E+03  0.22743154174E+03  0.17300000000E+03 0. -1.
         -6    1    1    2    0  502  0.88505044690E+02  0.72694380438E+01 -0.26414594854E+03  0.32800620390E+03  0.17300000000E+03 0. -1.
<mgrwt>
<rscale>  2 0.19446076E+03</rscale>
<asrwt>0</asrwt>
<pdfrwt beam="1">  1       21 0.13334664E-01 0.19446076E+03</pdfrwt>
<pdfrwt beam="2">  1       21 0.72117297E-01 0.19446076E+03</pdfrwt>
<totfact> 0.84170201E+04</totfact>
</mgrwt>
</event>
<event>
 4    1  0.4319182E+000  0.1755454E+03  0.7546771E-02  0.1172185E+00
         21   -1    0    0  501  502  0.00000000000E+00  0.00000000000E+00  0.38518875088E+03  0.38518875088E+03  0.00000000000E+00 0. -1.
         21   -1    0    0  502  503 -0.00000000000E+00 -0.00000000000E+00 -0.76209843286E+03  0.76209843286E+03  0.00000000000E+00 0. -1.
          6    1    1    2  501    0  0.27965049687E+02 -0.10254236823E+02  0.35424442533E+03  0.39535465882E+03  0.17300000000E+03 0. -1.
         -6    1    1    2    0  503 -0.27965049687E+02  0.10254236823E+02 -0.73115410732E+03  0.75193252491E+03  0.17300000000E+03 0. -1.
<mgrwt>
<rscale>  2 0.17554542E+03</rscale>
<asrwt>0</asrwt>
<pdfrwt beam="1">  1       21 0.59259809E-01 0.17554542E+03</pdfrwt>
<pdfrwt beam="2">  1       21 0.11724591E+00 0.17554542E+03</pdfrwt>
<totfact> 0.15137174E+03</totfact>
</mgrwt>
</event>
<event>
 4    1  0.4319182E+000  0.2402809E+03  0.7546771E-02  0.1119606E+00
         21   -1    0    0  503  502  0.00000000000E+00  0.00000000000E+00  0.24355998842E+03  0.24355998842E+03  0.00000000000E+00 0.  1.
         21   -1    0    0  501  503 -0.00000000000E+00 -0.00000000000E+00 -0.95605805650E+03  0.95605805650E+03  0.00000000000E+00 0.  1.
          6    1    1    2  501    0  0.21085543331E+01 -0.16673777821E+03 -0.87641140697E+03  0.90875292954E+03  0.17300000000E+03 0.  1.
         -6    1    1    2    0  502 -0.21085543331E+01  0.16673777821E+03  0.16391333888E+03  0.29086511538E+03  0.17300000000E+03 0.  1.
<mgrwt>
<rscale>  2 0.24028095E+03</rscale>
<asrwt>0</asrwt>
<pdfrwt beam="1">  1       21 0.37470768E-01 0.24028095E+03</pdfrwt>
<pdfrwt beam="2">  1       21 0.14708585E+00 0.24028095E+03</pdfrwt>
<totfact> 0.20740127E+03</totfact>
</mgrwt>
</event>
<event>
 4    1  0.4319182E+000  0.1858291E+03  0.7546771E-02  0.1162278E+00
         21   -1    0    0  501  502  0.00000000000E+00  0.00000000000E+00  0.14674465969E+03  0.14674465969E+03  0.00000000000E+00 0.  1.
         21   -1    0    0  502  503 -0.00000000000E+00 -0.00000000000E+00 -0.24266372352E+03  0.24266372352E+03  0.00000000000E+00 0.  1.
          6    1    1    2  501    0  0.41134460438E+02  0.53957588757E+02 -0.14096342590E+02  0.18636301160E+03  0.17300000000E+03 0.  1.
         -6    1    1    2    0  503 -0.41134460438E+02 -0.53957588757E+02 -0.81822721234E+02  0.20304537160E+03  0.17300000000E+03 0.  1.
<mgrwt>
<rscale>  2 0.18582913E+03</rscale>
<asrwt>0</asrwt>
<pdfrwt beam="1">  1       21 0.22576102E-01 0.18582913E+03</pdfrwt>
<pdfrwt beam="2">  1       21 0.37332880E-01 0.18582913E+03</pdfrwt>
<totfact> 0.12751145E+05</totfact>
</mgrwt>
</event>
<event>
 4    1  0.4319182E+000  0.2149608E+03  0.7546771E-02  0.1137697E+00
         21   -1    0    0  503  502  0.00000000000E+00  0.00000000000E+00  0.16117184974E+04  0.16117184974E+04  0.00000000000E+00 0. -1.
         21   -1    0    0  501  503 -0.00000000000E+00 -0.00000000000E+00 -0.31279163996E+02  0.31279163996E+02  0.00000000000E+00 0. -1.
          6    1    1    2  501    0 -0.12396800025E+03 -0.30184398873E+02  0.55296210263E+03  0.59327502052E+03  0.17300000000E+03 0. -1.
         -6    1    1    2    0  502  0.12396800025E+03  0.30184398873E+02  0.10274772308E+04  0.10497226409E+04  0.17300000000E+03 0. -1.
<mgrwt>
<rscale>  2 0.21496084E+03</rscale>
<asrwt>0</asrwt>
<pdfrwt beam="1">  1       21 0.24795663E+00 0.21496084E+03</pdfrwt>
<pdfrwt beam="2">  1       21 0.48121803E-02 0.21496084E+03</pdfrwt>
<totfact> 0.19254776E+04</totfact>
</mgrwt>
</event>
<event>
 4    1  0.4319182E+000  0.2514390E+03  0.7546771E-02  0.1112399E+00
         21   -1    0    0  501  502  0.00000000000E+00  0.00000000000E+00  0.20939453084E+03  0.20939453084E+03  0.00000000000E+00 0. -1.
         21   -1    0    0  502  503 -0.00000000000E+00 -0.00000000000E+00 -0.91494391151E+03  0.91494391151E+03  0.00000000000E+00 0.  1.
          6    1    1    2  501    0 -0.17124676848E+03  0.62985130493E+02  0.10738283655E+03  0.27340931945E+03  0.17300000000E+03 0. -1.
         -6    1    1    2    0  503  0.17124676848E+03 -0.62985130493E+02 -0.81293221722E+03  0.85092912289E+03  0.17300000000E+03 0.  1.
<mgrwt>
<rscale>  2 0.25143902E+03</rscale>
<asrwt>0</asrwt>
<pdfrwt beam="1">  1       21 0.32214543E-01 0.25143902E+03</pdfrwt>
<pdfrwt beam="2">  1       21 0.14076060E+00 0.25143902E+03</pdfrwt>
<totfact> 0.31215368E+03</totfact>
</mgrwt>
</event>
<event>
 4    1  0.4319182E+000  0.2279313E+03  0.7546771E-02  0.1128104E+00
         21   -1    0    0  503  502  0.00000000000E+00  0.00000000000E+00  0.27873891918E+03  0.27873891918E+03  0.00000000000E+00 0. -1.
         21   -1    0    0  501  503 -0.00000000000E+00 -0.00000000000E+00 -0.18730279428E+03  0.18730279428E+03  0.00000000000E+00 0.  1.
          6    1    1    2  501    0  0.30534311586E+02 -0.14522849495E+03  0.29403527207E+02  0.22981998900E+03  0.17300000000E+03 0.  1.
         -6    1    1    2    0  502 -0.30534311586E+02  0.14522849495E+03  0.62032597694E+02  0.23622172446E+03  0.17300000000E+03 0. -1.
<mgrwt>
<rscale>  2 0.22793126E+03</rscale>
<asrwt>0</asrwt>
<pdfrwt beam="1">  1       21 0.42882911E-01 0.22793126E+03</pdfrwt>
<pdfrwt beam="2">  1       21 0.28815814E-01 0.22793126E+03</pdfrwt>
<totfact> 0.59329575E+04</totfact>
</mgrwt>
</event>
<event>
 4    1  0.4319182E+000  0.1829244E+03  0.7546771E-02  0.1165002E+00
         21   -1    0    0  503  502  0.00000000000E+00  0.00000000000E+00  0.11233159630E+03  0.11233159630E+03  0.00000000000E+00 0.  1.
         21   -1    0    0  501  503 -0.00000000000E+00 -0.00000000000E+00 -0.36517352763E+03  0.36517352763E+03  0.00000000000E+00 0.  1.
          6    1    1    2  501    0 -0.58915845309E+02 -0.78266135443E+01 -0.22891182549E+03  0.29302210933E+03  0.17300000000E+03 0.  1.
         -6    1    1    2    0  502  0.58915845309E+02  0.78266135443E+01 -0.23930105845E+02  0.18448301459E+03  0.17300000000E+03 0.  1.
<mgrwt>
<rscale>  2 0.18292439E+03</rscale>
<asrwt>0</asrwt>
<pdfrwt beam="1">  1       21 0.17281784E-01 0.18292439E+03</pdfrwt>
<pdfrwt beam="2">  1       21 0.56180543E-01 0.18292439E+03</pdfrwt>
<totfact> 0.90598657E+04</totfact>
</mgrwt>
</event>
<event>
 4    1  0.4319182E+000  0.1757857E+03  0.7546771E-02  0.1171945E+00
         21   -1    0    0  503  502  0.00000000000E+00  0.00000000000E+00  0.25175005673E+03  0.25175005673E+03  0.00000000000E+00 0.  1.
         21   -1    0    0  501  503 -0.00000000000E+00 -0.00000000000E+00 -0.14047354485E+03  0.14047354485E+03  0.00000000000E+00 0.  1.
          6    1    1    2  501    0 -0.28705731072E+01  0.31038316883E+02 -0.14034754167E+02  0.17634509244E+03  0.17300000000E+03 0.  1.
         -6    1    1    2    0  502  0.28705731072E+01 -0.31038316883E+02  0.12531126605E+03  0.21587850913E+03  0.17300000000E+03 0.  1.
<mgrwt>
<rscale>  2 0.17578571E+03</rscale>
<asrwt>0</asrwt>
<pdfrwt beam="1">  1       21 0.38730778E-01 0.17578571E+03</pdfrwt>
<pdfrwt beam="2">  1       21 0.21611315E-01 0.17578571E+03</pdfrwt>
<totfact> 0.12906402E+05</totfact>
</mgrwt>
</event>
<event>
 4    1  0.4319182E+000  0.1777019E+03  0.7546771E-02  0.1170046E+00
         21   -1    0    0  501  502  0.00000000000E+00  0.00000000000E+00  0.22827472714E+03  0.22827472714E+03  0.00000000000E+00 0.  1.
         21   -1    0    0  502  503 -0.00000000000E+00 -0.00000000000E+00 -0.14627449995E+03  0.14627449995E+03  0.00000000000E+00 0. -1.
          6    1    1    2  501    0 -0.39196349271E+02  0.10611450056E+02  0.84635860367E+02  0.19682780680E+03  0.17300000000E+03 0.  1.
         -6    1    1    2    0  503  0.39196349271E+02 -0.10611450056E+02 -0.26356331759E+01  0.17772142029E+03  0.17300000000E+03 0. -1.
<mgrwt>
<rscale>  2 0.17770188E+03</rscale>
<asrwt>0</asrwt>
<pdfrwt beam="1">  1       21 0.35119189E-01 0.17770188E+03</pdfrwt>
<pdfrwt beam="2">  1       21 0.22503769E-01 0.17770188E+03</pdfrwt>
<totfact> 0.14527984E+05</totfact>
</mgrwt>
</event>
<event>
 4    1  0.4319182E+000  0.2247812E+03  0.7546771E-02  0.1130368E+00
         21   -1    0    0  503  502  0.00000000000E+00  0.00000000000E+00  0.10147254813E+03  0.10147254813E+03  0.00000000000E+00 0.  1.
         21   -1    0    0  501  503 -0.00000000000E+00 -0.00000000000E+00 -0.53773459995E+03  0.53773459995E+03  0.00000000000E+00 0. -1.
          6    1    1    2  501    0  0.14111474114E+03 -0.26157614476E+02 -0.30508203784E+03  0.37894807134E+03  0.17300000000E+03 0. -1.
         -6    1    1    2    0  502 -0.14111474114E+03  0.26157614476E+02 -0.13118001397E+03  0.26025907674E+03  0.17300000000E+03 0. -1.
<mgrwt>
<rscale>  2 0.22478121E+03</rscale>
<asrwt>0</asrwt>
<pdfrwt beam="1">  1       21 0.15611161E-01 0.22478121E+03</pdfrwt>
<pdfrwt beam="2">  1       21 0.82728399E-01 0.22478121E+03</pdfrwt>
<totfact> 0.45760526E+04</totfact>
</mgrwt>
</event>
<event>
 4    1  0.4319182E+000  0.1952704E+03  0.7546771E-02  0.1153792E+00
         21   -1    0    0  503  502  0.00000000000E+00  0.00000000000E+00  0.87765407677E+02  0.87765407677E+02  0.00000000000E+00 0.  1.
         21   -1    0    0  501  503 -0.00000000000E+00 -0.00000000000E+00 -0.80596501407E+03  0.80596501407E+03  0.00000000000E+00 0.  1.
          6    1    1    2  501    0  0.39063542136E+01 -0.90477968163E+02 -0.66248964442E+03  0.69066855386E+03  0.17300000000E+03 0.  1.
         -6    1    1    2    0  502 -0.39063542136E+01  0.90477968163E+02 -0.55709961970E+02  0.20306186788E+03  0.17300000000E+03 0.  1.
<mgrwt>
<rscale>  2 0.19527038E+03</rscale>
<asrwt>0</asrwt>
<pdfrwt beam="1">  1       21 0.13502370E-01 0.19527038E+03</pdfrwt>
<pdfrwt beam="2">  1       21 0.12399462E+00 0.19527038E+03</pdfrwt>
<totfact> 0.23069843E+04</totfact>
</mgrwt>
</event>
<event>
 4    1  0.4319182E+000  0.2066042E+03  0.7546771E-02  0.1144284E+00
         21   -1    0    0  503  502  0.00000000000E+00  0.00000000000E+00  0.14450975018E+03  0.14450975018E+03  0.00000000000E+00 0.  1.
         21   -1    0    0  501  503 -0.00000000000E+00 -0.00000000000E+00 -0.29549733396E+03  0.29549733396E+03  0.00000000000E+00 0.  1.
          6    1    1    2  501    0 -0.10500687726E+03 -0.41591601097E+02 -0.79875723202E+02  0.22150719336E+03  0.17300000000E+03 0.  1.
         -6    1    1    2    0  502  0.10500687726E+03  0.41591601097E+02 -0.71111860575E+02  0.21849989078E+03  0.17300000000E+03 0.  1.
<mgrwt>
<rscale>  2 0.20660422E+03</rscale>
<asrwt>0</asrwt>
<pdfrwt beam="1">  1       21 0.22232269E-01 0.20660422E+03</pdfrwt>
<pdfrwt beam="2">  1       21 0.45461128E-01 0.20660422E+03</pdfrwt>
<totfact> 0.87305517E+04</totfact>
</mgrwt>
</event>
<event>
 4    1  0.4319182E+000  0.1999303E+03  0.7546771E-02  0.1149798E+00
         21   -1    0    0  503  502  0.00000000000E+00  0.00000000000E+00  0.62876418538E+03  0.62876418538E+03  0.00000000000E+00 0.  1.
         21   -1    0    0  501  503 -0.00000000000E+00 -0.00000000000E+00 -0.81391186495E+02  0.81391186495E+02  0.00000000000E+00 0. -1.
          6    1    1    2  501    0  0.21093575608E+02  0.97970364526E+02  0.10754728780E+03  0.22702103508E+03  0.17300000000E+03 0. -1.
         -6    1    1    2    0  502 -0.21093575608E+02 -0.97970364526E+02  0.43982571108E+03  0.48313433679E+03  0.17300000000E+03 0.  1.
<mgrwt>
<rscale>  2 0.19993032E+03</rscale>
<asrwt>0</asrwt>
<pdfrwt beam="1">  1       21 0.96732949E-01 0.19993032E+03</pdfrwt>
<pdfrwt beam="2">  1       21 0.12521721E-01 0.19993032E+03</pdfrwt>
<totfact> 0.48096600E+04</totfact>
</mgrwt>
</event>
<event>
 4    1  0.4319182E+000  0.1831308E+03  0.7546771E-02  0.1164807E+00
         21   -1    0    0  501  502  0.00000000000E+00  0.00000000000E+00  0.13451969242E+03  0.13451969242E+03  0.00000000000E+00 0. -1.
         21   -1    0    0  502  503 -0.00000000000E+00 -0.00000000000E+00 -0.25112587618E+03  0.25112587618E+03  0.00000000000E+00 0. -1.
          6    1    1    2  501    0 -0.40581388292E+01  0.59928466662E+02 -0.41899207704E+02  0.18786280423E+03  0.17300000000E+03 0. -1.
         -6    1    1    2    0  503  0.40581388292E+01 -0.59928466662E+02 -0.74706976060E+02  0.19778276436E+03  0.17300000000E+03 0. -1.
<mgrwt>
<rscale>  2 0.18313080E+03</rscale>
<asrwt>0</asrwt>
<pdfrwt beam="1">  1       21 0.20695338E-01 0.18313080E+03</pdfrwt>
<pdfrwt beam="2">  1       21 0.38634750E-01 0.18313080E+03</pdfrwt>
<totfact> 0.14032309E+05</totfact>
</mgrwt>
</event>
<event>
 4    1  0.4319182E+000  0.2120778E+03  0.7546771E-02  0.1139931E+00
         21   -1    0    0  503  502  0.00000000000E+00  0.00000000000E+00  0.10580125795E+03  0.10580125795E+03  0.00000000000E+00 0. -1.
         21   -1    0    0  501  503 -0.00000000000E+00 -0.00000000000E+00 -0.95122836428E+03  0.95122836428E+03  0.00000000000E+00 0.  1.
          6    1    1    2  501    0 -0.10669241298E+03  0.60537038144E+02 -0.81577201985E+03  0.84288848156E+03  0.17300000000E+03 0.  1.
         -6    1    1    2    0  502  0.10669241298E+03 -0.60537038144E+02 -0.29655086474E+02  0.21414114067E+03  0.17300000000E+03 0. -1.
<mgrwt>
<rscale>  2 0.21207783E+03</rscale>
<asrwt>0</asrwt>
<pdfrwt beam="1">  1       21 0.16277116E-01 0.21207783E+03</pdfrwt>
<pdfrwt beam="2">  1       21 0.14634283E+00 0.21207783E+03</pdfrwt>
<totfact> 0.10623102E+04</totfact>
</mgrwt>
</event>
<event>
 4    1  0.4319182E+000  0.1891710E+03  0.7546771E-02  0.1159211E+00
         21   -1    0    0  501  502  0.00000000000E+00  0.00000000000E+00  0.16663591143E+03  0.16663591143E+03  0.00000000000E+00 0. -1.
         21   -1    0    0  502  503 -0.00000000000E+00 -0.00000000000E+00 -0.39134852273E+03  0.39134852273E+03  0.00000000000E+00 0.  1.
          6    1    1    2  501    0  0.25761602453E+02 -0.72062643411E+02  0.75056462983E+02  0.20351697072E+03  0.17300000000E+03 0. -1.
         -6    1    1    2    0  503 -0.25761602453E+02  0.72062643411E+02 -0.29976907429E+03  0.35446746344E+03  0.17300000000E+03 0.  1.
<mgrwt>
<rscale>  2 0.18917105E+03</rscale>
<asrwt>0</asrwt>
<pdfrwt beam="1">  1       21 0.25636294E-01 0.18917105E+03</pdfrwt>
<pdfrwt beam="2">  1       21 0.60207464E-01 0.18917105E+03</pdfrwt>
<totfact> 0.37197511E+04</totfact>
</mgrwt>
</event>
<event>
 4    1  0.4319182E+000  0.1867537E+03  0.7546771E-02  0.1161422E+00
         21   -1    0    0  501  502  0.00000000000E+00  0.00000000000E+00  0.36981003590E+03  0.36981003590E+03  0.00000000000E+00 0.  1.
         21   -1    0    0  502  503 -0.00000000000E+00 -0.00000000000E+00 -0.18063512412E+03  0.18063512412E+03  0.00000000000E+00 0.  1.
          6    1    1    2  501    0 -0.22532867195E+02 -0.66635049945E+02  0.28484871775E+03  0.34061085125E+03  0.17300000000E+03 0.  1.
         -6    1    1    2    0  503  0.22532867195E+02  0.66635049945E+02 -0.95673805973E+02  0.20983430876E+03  0.17300000000E+03 0.  1.
<mgrwt>
<rscale>  2 0.18675374E+03</rscale>
<asrwt>0</asrwt>
<pdfrwt beam="1">  1       21 0.56893851E-01 0.18675374E+03</pdfrwt>
<pdfrwt beam="2">  1       21 0.27790019E-01 0.18675374E+03</pdfrwt>
<totfact> 0.35996566E+04</totfact>
</mgrwt>
</event>
<event>
 4    1  0.4319182E+000  0.1967062E+03  0.7546771E-02  0.1152548E+00
         21   -1    0    0  503  502  0.00000000000E+00  0.00000000000E+00  0.18038347588E+03  0.18038347588E+03  0.00000000000E+00 0. -1.
         21   -1    0    0  501  503 -0.00000000000E+00 -0.00000000000E+00 -0.22681572517E+03  0.22681572517E+03  0.00000000000E+00 0. -1.
          6    1    1    2  501    0  0.92995163515E+02 -0.10781368716E+02 -0.70647364095E+02  0.20900810607E+03  0.17300000000E+03 0. -1.
         -6    1    1    2    0  502 -0.92995163515E+02  0.10781368716E+02  0.24215114805E+02  0.19819109499E+03  0.17300000000E+03 0. -1.
<mgrwt>
<rscale>  2 0.19670622E+03</rscale>
<asrwt>0</asrwt>
<pdfrwt beam="1">  1       21 0.27751304E-01 0.19670622E+03</pdfrwt>
<pdfrwt beam="2">  1       21 0.34894727E-01 0.19670622E+03</pdfrwt>
<totfact> 0.97971279E+04</totfact>
</mgrwt>
</event>
<event>
 4    1  0.4319182E+000  0.1843348E+03  0.7546771E-02  0.1163673E+00
         21   -1    0    0  501  502  0.00000000000E+00  0.00000000000E+00  0.86015745017E+03  0.86015745017E+03  0.00000000000E+00 0.  1.
         21   -1    0    0  502  503 -0.00000000000E+00 -0.00000000000E+00 -0.42548260471E+02  0.42548260471E+02  0.00000000000E+00 0.  1.
          6    1    1    2  501    0  0.51568418935E+02  0.37296267297E+02  0.52954285913E+03  0.56070933026E+03  0.17300000000E+03 0. -1.
         -6    1    1    2    0  503 -0.51568418935E+02 -0.37296267297E+02  0.28806633057E+03  0.34199638038E+03  0.17300000000E+03 0. -1.
<mgrwt>
<rscale>  2 0.18433479E+03</rscale>
<asrwt>0</asrwt>
<pdfrwt beam="1">  1       21 0.13233190E+00 0.18433479E+03</pdfrwt>
<pdfrwt beam="2">  1       21 0.65458869E-02 0.18433479E+03</pdfrwt>
<totfact> 0.70460314E+04</totfact>
</mgrwt>
</event>
<event>
 4    1  0.4319182E+000  0.1893932E+03  0.7546771E-02  0.1159010E+00
         21   -1    0    0  501  502  0.00000000000E+00  0.00000000000E+00  0.83102464573E+02  0.83102464573E+02  0.00000000000E+00 0.  1.
         21   -1    0    0  502  503 -0.00000000000E+00 -0.00000000000E+00 -0.63155599108E+03  0.63155599108E+03  0.00000000000E+00 0.  1.
          6    1    1    2  501    0 -0.16283327927E+02 -0.75336913965E+02 -0.73181626201E+02  0.20304026149E+03  0.17300000000E+03 0.  1.
         -6    1    1    2    0  503  0.16283327927E+02  0.75336913965E+02 -0.47527190031E+03  0.51161819416E+03  0.17300000000E+03 0.  1.
<mgrwt>
<rscale>  2 0.18939323E+03</rscale>
<asrwt>0</asrwt>
<pdfrwt beam="1">  1       21 0.12784995E-01 0.18939323E+03</pdfrwt>
<pdfrwt beam="2">  1       21 0.97162457E-01 0.18939323E+03</pdfrwt>
<totfact> 0.46101095E+04</totfact>
</mgrwt>
</event>
<event>
 4    1  0.4319182E+000  0.2364194E+03  0.7546771E-02  0.1122201E+00
         21   -1    0    0  501  502  0.00000000000E+00  0.00000000000E+00  0.16462760406E+03  0.16462760406E+03  0.00000000000E+00 0.  1.
         21   -1    0    0  502  503 -0.00000000000E+00 -0.00000000000E+00 -0.41694904025E+03  0.41694904025E+03  0.00000000000E+00 0.  1.
          6    1    1    2  501    0  0.14560468710E+03 -0.69024653576E+02 -0.84907115279E+00  0.23642091411E+03  0.17300000000E+03 0.  1.
         -6    1    1    2    0  503 -0.14560468710E+03  0.69024653576E+02 -0.25147236503E+03  0.34515573019E+03  0.17300000000E+03 0.  1.
<mgrwt>
<rscale>  2 0.23641939E+03</rscale>
<asrwt>0</asrwt>
<pdfrwt beam="1">  1       21 0.25327324E-01 0.23641939E+03</pdfrwt>
<pdfrwt beam="2">  1       21 0.64146005E-01 0.23641939E+03</pdfrwt>
<totfact> 0.32409475E+04</totfact>
</mgrwt>
</event>
<event>
 4    1  0.4319182E+000  0.1792247E+03  0.7546771E-02  0.1168555E+00
         21   -1    0    0  503  502  0.00000000000E+00  0.00000000000E+00  0.87944778324E+02  0.87944778324E+02  0.00000000000E+00 0. -1.
         21   -1    0    0  501  503 -0.00000000000E+00 -0.00000000000E+00 -0.53121975061E+03  0.53121975061E+03  0.00000000000E+00 0. -1.
          6    1    1    2  501    0  0.46798122800E+02  0.15601645916E+01 -0.39468221460E+03  0.43346920182E+03  0.17300000000E+03 0. -1.
         -6    1    1    2    0  502 -0.46798122800E+02 -0.15601645916E+01 -0.48592757690E+02  0.18569532711E+03  0.17300000000E+03 0. -1.
<mgrwt>
<rscale>  2 0.17922471E+03</rscale>
<asrwt>0</asrwt>
<pdfrwt beam="1">  1       21 0.13529966E-01 0.17922471E+03</pdfrwt>
<pdfrwt beam="2">  1       21 0.81726115E-01 0.17922471E+03</pdfrwt>
<totfact> 0.62361371E+04</totfact>
</mgrwt>
</event>
<event>
 4    1  0.4319182E+000  0.2507450E+03  0.7546771E-02  0.1112835E+00
         21   -1    0    0  501  502  0.00000000000E+00  0.00000000000E+00  0.90476433849E+02  0.90476433849E+02  0.00000000000E+00 0.  1.
         21   -1    0    0  502  503 -0.00000000000E+00 -0.00000000000E+00 -0.69537334970E+03  0.69537334970E+03  0.00000000000E+00 0.  1.
          6    1    1    2  501    0 -0.18149919185E+03 -0.14565592002E+01 -0.31257913893E+03  0.40072284225E+03  0.17300000000E+03 0.  1.
         -6    1    1    2    0  503  0.18149919185E+03  0.14565592002E+01 -0.29231777692E+03  0.38512694130E+03  0.17300000000E+03 0.  1.
<mgrwt>
<rscale>  2 0.25074505E+03</rscale>
<asrwt>0</asrwt>
<pdfrwt beam="1">  1       21 0.13919451E-01 0.25074505E+03</pdfrwt>
<pdfrwt beam="2">  1       21 0.10698052E+00 0.25074505E+03</pdfrwt>
<totfact> 0.30443855E+04</totfact>
</mgrwt>
</event>
<event>
 4    1  0.4319182E+000  0.2825473E+03  0.7546771E-02  0.1094306E+00
         21   -1    0    0  501  502  0.00000000000E+00  0.00000000000E+00  0.42391602634E+03  0.42391602634E+03  0.00000000000E+00 0. -1.
         21   -1    0    0  502  503 -0.00000000000E+00 -0.00000000000E+00 -0.28988621289E+03  0.28988621289E+03  0.00000000000E+00 0.  1.
          6    1    1    2  501    0  0.90358467210E+02 -0.20430199018E+03  0.27826809091E+03  0.39656788348E+03  0.17300000000E+03 0. -1.
         -6    1    1    2    0  503 -0.90358467210E+02  0.20430199018E+03 -0.14423827746E+03  0.31723435576E+03  0.17300000000E+03 0.  1.
<mgrwt>
<rscale>  2 0.28254726E+03</rscale>
<asrwt>0</asrwt>
<pdfrwt beam="1">  1       21 0.65217850E-01 0.28254726E+03</pdfrwt>
<pdfrwt beam="2">  1       21 0.44597879E-01 0.28254726E+03</pdfrwt>
<totfact> 0.99094478E+03</totfact>
</mgrwt>
</event>
<event>
 4    1  0.4319182E+000  0.2529331E+03  0.7546771E-02  0.1111465E+00
         21   -1    0    0  501  502  0.00000000000E+00  0.00000000000E+00  0.29784670931E+03  0.29784670931E+03  0.00000000000E+00 0.  1.
         21   -1    0    0  502  503 -0.00000000000E+00 -0.00000000000E+00 -0.51988103768E+03  0.51988103768E+03  0.00000000000E+00 0. -1.
          6    1    1    2  501    0 -0.15566339845E+03  0.99070874863E+02  0.20219596080E+03  0.32381837259E+03  0.17300000000E+03 0.  1.
         -6    1    1    2    0  503  0.15566339845E+03 -0.99070874863E+02 -0.42423028917E+03  0.49390937439E+03  0.17300000000E+03 0. -1.
<mgrwt>
<rscale>  2 0.25293306E+03</rscale>
<asrwt>0</asrwt>
<pdfrwt beam="1">  1       21 0.45822571E-01 0.25293306E+03</pdfrwt>
<pdfrwt beam="2">  1       21 0.79981698E-01 0.25293306E+03</pdfrwt>
<totfact> 0.60303490E+03</totfact>
</mgrwt>
</event>
<event>
 4    1  0.4319182E+000  0.1800881E+03  0.7546771E-02  0.1167718E+00
         21   -1    0    0  501  502  0.00000000000E+00  0.00000000000E+00  0.31184803231E+03  0.31184803231E+03  0.00000000000E+00 0.  1.
         21   -1    0    0  502  503 -0.00000000000E+00 -0.00000000000E+00 -0.15379718108E+03  0.15379718108E+03  0.00000000000E+00 0.  1.
          6    1    1    2  501    0 -0.49740426580E+02  0.53489528182E+01  0.21150836872E+03  0.27779040907E+03  0.17300000000E+03 0. -1.
         -6    1    1    2    0  503  0.49740426580E+02 -0.53489528182E+01 -0.53457517487E+02  0.18785480433E+03  0.17300000000E+03 0. -1.
<mgrwt>
<rscale>  2 0.18008809E+03</rscale>
<asrwt>0</asrwt>
<pdfrwt beam="1">  1       21 0.47976620E-01 0.18008809E+03</pdfrwt>
<pdfrwt beam="2">  1       21 0.23661105E-01 0.18008809E+03</pdfrwt>
<totfact> 0.70212947E+04</totfact>
</mgrwt>
</event>
<event>
 4    1  0.4319182E+000  0.1942048E+03  0.7546771E-02  0.1154723E+00
         21   -1    0    0  501  502  0.00000000000E+00  0.00000000000E+00  0.19926555044E+03  0.19926555044E+03  0.00000000000E+00 0.  1.
         21   -1    0    0  502  503 -0.00000000000E+00 -0.00000000000E+00 -0.46913189237E+03  0.46913189237E+03  0.00000000000E+00 0.  1.
          6    1    1    2  501    0 -0.86963693671E+02 -0.14960360984E+02  0.12319013522E+03  0.22998109886E+03  0.17300000000E+03 0.  1.
         -6    1    1    2    0  503  0.86963693671E+02  0.14960360984E+02 -0.39305647714E+03  0.43841634395E+03  0.17300000000E+03 0.  1.
<mgrwt>
<rscale>  2 0.19420478E+03</rscale>
<asrwt>0</asrwt>
<pdfrwt beam="1">  1       21 0.30656239E-01 0.19420478E+03</pdfrwt>
<pdfrwt beam="2">  1       21 0.72174136E-01 0.19420478E+03</pdfrwt>
<totfact> 0.17674739E+04</totfact>
</mgrwt>
</event>
<event>
 4    1  0.4319182E+000  0.1731004E+03  0.7546771E-02  0.1174653E+00
         21   -1    0    0  501  502  0.00000000000E+00  0.00000000000E+00  0.38928208290E+02  0.38928208290E+02  0.00000000000E+00 0.  1.
         21   -1    0    0  502  503 -0.00000000000E+00 -0.00000000000E+00 -0.76971873372E+03  0.76971873372E+03  0.00000000000E+00 0.  1.
          6    1    1    2  501    0 -0.15331690088E+01  0.56931175195E+01 -0.36561681030E+03  0.40452368802E+03  0.17300000000E+03 0.  1.
         -6    1    1    2    0  503  0.15331690088E+01 -0.56931175195E+01 -0.36517371512E+03  0.40412325398E+03  0.17300000000E+03 0.  1.
<mgrwt>
<rscale>  2 0.17310044E+03</rscale>
<asrwt>0</asrwt>
<pdfrwt beam="1">  1       21 0.59889549E-02 0.17310044E+03</pdfrwt>
<pdfrwt beam="2">  1       21 0.11841827E+00 0.17310044E+03</pdfrwt>
<totfact> 0.10885174E+05</totfact>
</mgrwt>
</event>
<event>
 4    1  0.4319182E+000  0.3093673E+03  0.7546771E-02  0.1080650E+00
         21   -1    0    0  503  502  0.00000000000E+00  0.00000000000E+00  0.33989104699E+03  0.33989104699E+03  0.00000000000E+00 0.  1.
         21   -1    0    0  501  503 -0.00000000000E+00 -0.00000000000E+00 -0.78245666585E+03  0.78245666585E+03  0.00000000000E+00 0. -1.
          6    1    1    2  501    0 -0.25607172448E+03  0.14366924162E+02 -0.67026655856E+03  0.73821771593E+03  0.17300000000E+03 0. -1.
         -6    1    1    2    0  502  0.25607172448E+03 -0.14366924162E+02  0.22770093969E+03  0.38412999691E+03  0.17300000000E+03 0.  1.
<mgrwt>
<rscale>  2 0.30936732E+03</rscale>
<asrwt>0</asrwt>
<pdfrwt beam="1">  1       21 0.52290931E-01 0.30936732E+03</pdfrwt>
<pdfrwt beam="2">  1       21 0.12037795E+00 0.30936732E+03</pdfrwt>
<totfact> 0.16655639E+03</totfact>
</mgrwt>
</event>
<event>
 4    1  0.4319182E+000  0.1776605E+03  0.7546771E-02  0.1170087E+00
         21   -1    0    0  501  502  0.00000000000E+00  0.00000000000E+00  0.75277618844E+02  0.75277618844E+02  0.00000000000E+00 0. -1.
         21   -1    0    0  502  503 -0.00000000000E+00 -0.00000000000E+00 -0.51248687455E+03  0.51248687455E+03  0.00000000000E+00 0. -1.
          6    1    1    2  501    0 -0.27282671545E+01 -0.40333646966E+02 -0.93281925463E+02  0.20066081864E+03  0.17300000000E+03 0. -1.
         -6    1    1    2    0  503  0.27282671545E+01  0.40333646966E+02 -0.34392733024E+03  0.38710367475E+03  0.17300000000E+03 0. -1.
<mgrwt>
<rscale>  2 0.17766048E+03</rscale>
<asrwt>0</asrwt>
<pdfrwt beam="1">  1       21 0.11581172E-01 0.17766048E+03</pdfrwt>
<pdfrwt beam="2">  1       21 0.78844134E-01 0.17766048E+03</pdfrwt>
<totfact> 0.89416849E+04</totfact>
</mgrwt>
</event>
<event>
 4    1  0.4319182E+000  0.2518115E+03  0.7546771E-02  0.1112165E+00
         21   -1    0    0  503  502  0.00000000000E+00  0.00000000000E+00  0.74772735163E+02  0.74772735163E+02  0.00000000000E+00 0. -1.
         21   -1    0    0  501  503 -0.00000000000E+00 -0.00000000000E+00 -0.97996184655E+03  0.97996184655E+03  0.00000000000E+00 0.  1.
          6    1    1    2  501    0 -0.10231992204E+03 -0.15169273219E+03 -0.64610027136E+03  0.69343681190E+03  0.17300000000E+03 0.  1.
         -6    1    1    2    0  502  0.10231992204E+03  0.15169273219E+03 -0.25908884003E+03  0.36129776982E+03  0.17300000000E+03 0. -1.
<mgrwt>
<rscale>  2 0.25181154E+03</rscale>
<asrwt>0</asrwt>
<pdfrwt beam="1">  1       21 0.11503499E-01 0.25181154E+03</pdfrwt>
<pdfrwt beam="2">  1       21 0.15076335E+00 0.25181154E+03</pdfrwt>
<totfact> 0.17991294E+04</totfact>
</mgrwt>
</event>
<event>
 4    1  0.4319182E+000  0.1771231E+03  0.7546771E-02  0.1170617E+00
         21   -1    0    0  503  502  0.00000000000E+00  0.00000000000E+00  0.24971630646E+03  0.24971630646E+03  0.00000000000E+00 0. -1.
         21   -1    0    0  501  503 -0.00000000000E+00 -0.00000000000E+00 -0.12645532319E+03  0.12645532319E+03  0.00000000000E+00 0. -1.
          6    1    1    2  501    0  0.26305724561E+02 -0.27415559859E+02  0.46463002823E+02  0.18311585048E+03  0.17300000000E+03 0.  1.
         -6    1    1    2    0  502 -0.26305724561E+02  0.27415559859E+02  0.76797980443E+02  0.19305577916E+03  0.17300000000E+03 0.  1.
<mgrwt>
<rscale>  2 0.17712313E+03</rscale>
<asrwt>0</asrwt>
<pdfrwt beam="1">  1       21 0.38417893E-01 0.17712313E+03</pdfrwt>
<pdfrwt beam="2">  1       21 0.19454665E-01 0.17712313E+03</pdfrwt>
<totfact> 0.15957659E+05</totfact>
</mgrwt>
</event>
<event>
 4    1  0.4319182E+000  0.2229633E+03  0.7546771E-02  0.1131693E+00
         21   -1    0    0  501  502  0.00000000000E+00  0.00000000000E+00  0.23094885909E+03  0.23094885909E+03  0.00000000000E+00 0.  1.
         21   -1    0    0  502  503 -0.00000000000E+00 -0.00000000000E+00 -0.27426979509E+03  0.27426979509E+03  0.00000000000E+00 0. -1.
          6    1    1    2  501    0  0.63324651985E+02  0.12559307346E+03  0.95517257796E+02  0.24256169975E+03  0.17300000000E+03 0.  1.
         -6    1    1    2    0  503 -0.63324651985E+02 -0.12559307346E+03 -0.13883819379E+03  0.26265695442E+03  0.17300000000E+03 0. -1.
<mgrwt>
<rscale>  2 0.22296330E+03</rscale>
<asrwt>0</asrwt>
<pdfrwt beam="1">  1       21 0.35530594E-01 0.22296330E+03</pdfrwt>
<pdfrwt beam="2">  1       21 0.42195353E-01 0.22296330E+03</pdfrwt>
<totfact> 0.40667008E+04</totfact>
</mgrwt>
</event>
<event>
 4    1  0.4319182E+000  0.1824020E+03  0.7546771E-02  0.1165498E+00
         21   -1    0    0  501  502  0.00000000000E+00  0.00000000000E+00  0.42612030335E+03  0.42612030335E+03  0.00000000000E+00 0.  1.
         21   -1    0    0  502  503 -0.00000000000E+00 -0.00000000000E+00 -0.83878846289E+02  0.83878846289E+02  0.00000000000E+00 0.  1.
          6    1    1    2  501    0  0.24249541260E+02 -0.52473199429E+02  0.23818196745E+03  0.30000187754E+03  0.17300000000E+03 0. -1.
         -6    1    1    2    0  503 -0.24249541260E+02  0.52473199429E+02  0.10405948961E+03  0.20999727209E+03  0.17300000000E+03 0. -1.
<mgrwt>
<rscale>  2 0.18240197E+03</rscale>
<asrwt>0</asrwt>
<pdfrwt beam="1">  1       21 0.65556968E-01 0.18240197E+03</pdfrwt>
<pdfrwt beam="2">  1       21 0.12904438E-01 0.18240197E+03</pdfrwt>
<totfact> 0.11061993E+05</totfact>
</mgrwt>
</event>
<event>
 4    1  0.4319182E+000  0.2282819E+03  0.7546771E-02  0.1127855E+00
         21   -1    0    0  503  502  0.00000000000E+00  0.00000000000E+00  0.91750788856E+02  0.91750788856E+02  0.00000000000E+00 0. -1.
         21   -1    0    0  501  503 -0.00000000000E+00 -0.00000000000E+00 -0.65566583148E+03  0.65566583148E+03  0.00000000000E+00 0. -1.
          6    1    1    2  501    0 -0.91043389212E+02  0.11787596542E+03 -0.41862192537E+03  0.47681962873E+03  0.17300000000E+03 0. -1.
         -6    1    1    2    0  502  0.91043389212E+02 -0.11787596542E+03 -0.14529311725E+03  0.27059699160E+03  0.17300000000E+03 0. -1.
<mgrwt>
<rscale>  2 0.22828194E+03</rscale>
<asrwt>0</asrwt>
<pdfrwt beam="1">  1       21 0.14115506E-01 0.22828194E+03</pdfrwt>
<pdfrwt beam="2">  1       21 0.10087167E+00 0.22828194E+03</pdfrwt>
<totfact> 0.34567932E+04</totfact>
</mgrwt>
</event>
<event>
 4    1  0.4319182E+000  0.1840315E+03  0.7546771E-02  0.1163957E+00
         21   -1    0    0  503  502  0.00000000000E+00  0.00000000000E+00  0.15297206715E+03  0.15297206715E+03  0.00000000000E+00 0.  1.
         21   -1    0    0  501  503 -0.00000000000E+00 -0.00000000000E+00 -0.23494164093E+03  0.23494164093E+03  0.00000000000E+00 0.  1.
          6    1    1    2  501    0 -0.24729863772E+02 -0.57680410145E+02 -0.87554630565E+02  0.20379747106E+03  0.17300000000E+03 0.  1.
         -6    1    1    2    0  502  0.24729863772E+02  0.57680410145E+02  0.55850567783E+01  0.18411623702E+03  0.17300000000E+03 0.  1.
<mgrwt>
<rscale>  2 0.18403151E+03</rscale>
<asrwt>0</asrwt>
<pdfrwt beam="1">  1       21 0.23534164E-01 0.18403151E+03</pdfrwt>
<pdfrwt beam="2">  1       21 0.36144868E-01 0.18403151E+03</pdfrwt>
<totfact> 0.12580242E+05</totfact>
</mgrwt>
</event>
<event>
 4    1  0.4319182E+000  0.1876702E+03  0.7546771E-02  0.1160580E+00
         21   -1    0    0  501  502  0.00000000000E+00  0.00000000000E+00  0.24510415909E+03  0.24510415909E+03  0.00000000000E+00 0. -1.
         21   -1    0    0  502  503 -0.00000000000E+00 -0.00000000000E+00 -0.17784324757E+03  0.17784324757E+03  0.00000000000E+00 0.  1.
          6    1    1    2  501    0  0.34231257355E+02 -0.64181957892E+02  0.12629754227E+03  0.22621045927E+03  0.17300000000E+03 0. -1.
         -6    1    1    2    0  503 -0.34231257355E+02  0.64181957892E+02 -0.59036630744E+02  0.19673694739E+03  0.17300000000E+03 0. -1.
<mgrwt>
<rscale>  2 0.18767020E+03</rscale>
<asrwt>0</asrwt>
<pdfrwt beam="1">  1       21 0.37708332E-01 0.18767020E+03</pdfrwt>
<pdfrwt beam="2">  1       21 0.27360500E-01 0.18767020E+03</pdfrwt>
<totfact> 0.86576501E+04</totfact>
</mgrwt>
</event>
<event>
 4    1  0.4319182E+000  0.2590999E+03  0.7546771E-02  0.1107685E+00
         21   -1    0    0  503  502  0.00000000000E+00  0.00000000000E+00  0.98710236239E+03  0.98710236239E+03  0.00000000000E+00 0.  1.
         21   -1    0    0  501  503 -0.00000000000E+00 -0.00000000000E+00 -0.17122164520E+03  0.17122164520E+03  0.00000000000E+00 0. -1.
          6    1    1    2  501    0 -0.19198424368E+03  0.18595442575E+02 -0.41720695584E+02  0.26243733871E+03  0.17300000000E+03 0. -1.
         -6    1    1    2    0  502  0.19198424368E+03 -0.18595442575E+02  0.85760141277E+03  0.89588666889E+03  0.17300000000E+03 0.  1.
<mgrwt>
<rscale>  2 0.25909987E+03</rscale>
<asrwt>0</asrwt>
<pdfrwt beam="1">  1       21 0.15186190E+00 0.25909987E+03</pdfrwt>
<pdfrwt beam="2">  1       21 0.26341792E-01 0.25909987E+03</pdfrwt>
<totfact> 0.37663927E+03</totfact>
</mgrwt>
</event>
<event>
 4    1  0.4319182E+000  0.1851038E+03  0.7546771E-02  0.1162953E+00
         21   -1    0    0  503  502  0.00000000000E+00  0.00000000000E+00  0.17359989339E+03  0.17359989339E+03  0.00000000000E+00 0. -1.
         21   -1    0    0  501  503 -0.00000000000E+00 -0.00000000000E+00 -0.21688857816E+03  0.21688857816E+03  0.00000000000E+00 0.  1.
          6    1    1    2  501    0 -0.46094368245E+02 -0.47007897731E+02 -0.80215329274E+02  0.20173728531E+03  0.17300000000E+03 0.  1.
         -6    1    1    2    0  502  0.46094368245E+02  0.47007897731E+02  0.36926644499E+02  0.18875118624E+03  0.17300000000E+03 0. -1.
<mgrwt>
<rscale>  2 0.18510384E+03</rscale>
<asrwt>0</asrwt>
<pdfrwt beam="1">  1       21 0.26707676E-01 0.18510384E+03</pdfrwt>
<pdfrwt beam="2">  1       21 0.33367473E-01 0.18510384E+03</pdfrwt>
<totfact> 0.11574534E+05</totfact>
</mgrwt>
</event>
<event>
 4    1  0.4319182E+000  0.2521000E+03  0.7546771E-02  0.1111985E+00
         21   -1    0    0  503  502  0.00000000000E+00  0.00000000000E+00  0.20223554799E+03  0.20223554799E+03  0.00000000000E+00 0. -1.
         21   -1    0    0  501  503 -0.00000000000E+00 -0.00000000000E+00 -0.47693262393E+03  0.47693262393E+03  0.00000000000E+00 0.  1.
          6    1    1    2  501    0 -0.14224927471E+03  0.11571760233E+03 -0.33567326555E+03  0.41979871468E+03  0.17300000000E+03 0.  1.
         -6    1    1    2    0  502  0.14224927471E+03 -0.11571760233E+03  0.60976189615E+02  0.25936945723E+03  0.17300000000E+03 0. -1.
<mgrwt>
<rscale>  2 0.25210002E+03</rscale>
<asrwt>0</asrwt>
<pdfrwt beam="1">  1       21 0.31113161E-01 0.25210002E+03</pdfrwt>
<pdfrwt beam="2">  1       21 0.73374250E-01 0.25210002E+03</pdfrwt>
<totfact> 0.16015086E+04</totfact>
</mgrwt>
</event>
<event>
 4    1  0.4319182E+000  0.2104899E+03  0.7546771E-02  0.1141179E+00
         21   -1    0    0  501  502  0.00000000000E+00  0.00000000000E+00  0.65058939973E+03  0.65058939973E+03  0.00000000000E+00 0.  1.
         21   -1    0    0  502  503 -0.00000000000E+00 -0.00000000000E+00 -0.28147861605E+03  0.28147861605E+03  0.00000000000E+00 0.  1.
          6    1    1    2  501    0 -0.12298805468E+02  0.11927166551E+03  0.59031519324E+03  0.62672004769E+03  0.17300000000E+03 0.  1.
         -6    1    1    2    0  503  0.12298805468E+02 -0.11927166551E+03 -0.22120440955E+03  0.30534796809E+03  0.17300000000E+03 0.  1.
<mgrwt>
<rscale>  2 0.21048988E+03</rscale>
<asrwt>0</asrwt>
<pdfrwt beam="1">  1       21 0.10009068E+00 0.21048988E+03</pdfrwt>
<pdfrwt beam="2">  1       21 0.43304403E-01 0.21048988E+03</pdfrwt>
<totfact> 0.41399627E+03</totfact>
</mgrwt>
</event>
<event>
 4    1  0.4319182E+000  0.2749567E+03  0.7546771E-02  0.1098476E+00
         21   -1    0    0  503  502  0.00000000000E+00  0.00000000000E+00  0.31573129587E+03  0.31573129587E+03  0.00000000000E+00 0.  1.
         21   -1    0    0  501  503 -0.00000000000E+00 -0.00000000000E+00 -0.59087737571E+03  0.59087737571E+03  0.00000000000E+00 0.  1.
          6    1    1    2  501    0 -0.10591590676E+03  0.18561787047E+03 -0.48716410867E+03  0.55940150332E+03  0.17300000000E+03 0.  1.
         -6    1    1    2    0  502  0.10591590676E+03 -0.18561787047E+03  0.21201802882E+03  0.34720716826E+03  0.17300000000E+03 0.  1.
<mgrwt>
<rscale>  2 0.27495668E+03</rscale>
<asrwt>0</asrwt>
<pdfrwt beam="1">  1       21 0.48574046E-01 0.27495668E+03</pdfrwt>
<pdfrwt beam="2">  1       21 0.90904210E-01 0.27495668E+03</pdfrwt>
<totfact> 0.39223621E+03</totfact>
</mgrwt>
</event>
<event>
 4    1  0.4319182E+000  0.1991339E+03  0.7546771E-02  0.1150472E+00
         21   -1    0    0  503  502  0.00000000000E+00  0.00000000000E+00  0.13246104346E+03  0.13246104346E+03  0.00000000000E+00 0.  1.
         21   -1    0    0  501  503 -0.00000000000E+00 -0.00000000000E+00 -0.30426580581E+03  0.30426580581E+03  0.00000000000E+00 0. -1.
          6    1    1    2  501    0 -0.31062812369E+02 -0.93597142776E+02 -0.11361297700E+03  0.22926454587E+03  0.17300000000E+03 0.  1.
         -6    1    1    2    0  502  0.31062812369E+02  0.93597142776E+02 -0.58191785351E+02  0.20746230340E+03  0.17300000000E+03 0.  1.
<mgrwt>
<rscale>  2 0.19913393E+03</rscale>
<asrwt>0</asrwt>
<pdfrwt beam="1">  1       21 0.20378622E-01 0.19913393E+03</pdfrwt>
<pdfrwt beam="2">  1       21 0.46810124E-01 0.19913393E+03</pdfrwt>
<totfact> 0.97118992E+04</totfact>
</mgrwt>
</event>
<event>
 4    1  0.4319182E+000  0.2316375E+03  0.7546771E-02  0.1125493E+00
         21   -1    0    0  501  502  0.00000000000E+00  0.00000000000E+00  0.28548409446E+03  0.28548409446E+03  0.00000000000E+00 0. -1.
         21   -1    0    0  502  503 -0.00000000000E+00 -0.00000000000E+00 -0.35252114030E+03  0.35252114030E+03  0.00000000000E+00 0. -1.
          6    1    1    2  501    0  0.92332362094E+02 -0.12329495275E+03  0.18444424575E+03  0.29610064210E+03  0.17300000000E+03 0. -1.
         -6    1    1    2    0  503 -0.92332362094E+02  0.12329495275E+03 -0.25148129159E+03  0.34190459266E+03  0.17300000000E+03 0. -1.
<mgrwt>
<rscale>  2 0.23163745E+03</rscale>
<asrwt>0</asrwt>
<pdfrwt beam="1">  1       21 0.43920630E-01 0.23163745E+03</pdfrwt>
<pdfrwt beam="2">  1       21 0.54234021E-01 0.23163745E+03</pdfrwt>
<totfact> 0.15634067E+04</totfact>
</mgrwt>
</event>
<event>
 4    1  0.4319182E+000  0.2222873E+03  0.7546771E-02  0.1132189E+00
         21   -1    0    0  503  502  0.00000000000E+00  0.00000000000E+00  0.38729100135E+03  0.38729100135E+03  0.00000000000E+00 0. -1.
         21   -1    0    0  501  503 -0.00000000000E+00 -0.00000000000E+00 -0.14519219187E+03  0.14519219187E+03  0.00000000000E+00 0.  1.
          6    1    1    2  501    0 -0.13417232641E+03 -0.38476280155E+02  0.28328532195E+02  0.22408512455E+03  0.17300000000E+03 0.  1.
         -6    1    1    2    0  502  0.13417232641E+03  0.38476280155E+02  0.21377027728E+03  0.30839806867E+03  0.17300000000E+03 0. -1.
<mgrwt>
<rscale>  2 0.22228729E+03</rscale>
<asrwt>0</asrwt>
<pdfrwt beam="1">  1       21 0.59583230E-01 0.22228729E+03</pdfrwt>
<pdfrwt beam="2">  1       21 0.22337261E-01 0.22228729E+03</pdfrwt>
<totfact> 0.48642197E+04</totfact>
</mgrwt>
</event>
<event>
 4    1  0.4319182E+000  0.3058387E+03  0.7546771E-02  0.1082358E+00
         21   -1    0    0  503  502  0.00000000000E+00  0.00000000000E+00  0.40059213849E+03  0.40059213849E+03  0.00000000000E+00 0. -1.
         21   -1    0    0  501  503 -0.00000000000E+00 -0.00000000000E+00 -0.69003086285E+03  0.69003086285E+03  0.00000000000E+00 0.  1.
          6    1    1    2  501    0  0.12403566356E+02 -0.25190174605E+03 -0.58827343377E+03  0.66302561866E+03  0.17300000000E+03 0.  1.
         -6    1    1    2    0  502 -0.12403566356E+02  0.25190174605E+03  0.29883470941E+03  0.42759738268E+03  0.17300000000E+03 0. -1.
<mgrwt>
<rscale>  2 0.30583875E+03</rscale>
<asrwt>0</asrwt>
<pdfrwt beam="1">  1       21 0.61629560E-01 0.30583875E+03</pdfrwt>
<pdfrwt beam="2">  1       21 0.10615859E+00 0.30583875E+03</pdfrwt>
<totfact> 0.15985464E+03</totfact>
</mgrwt>
</event>
<event>
 4    1  0.4319182E+000  0.1960062E+03  0.7546771E-02  0.1153153E+00
         21   -1    0    0  501  502  0.00000000000E+00  0.00000000000E+00  0.49097897065E+02  0.49097897065E+02  0.00000000000E+00 0.  1.
         21   -1    0    0  502  503 -0.00000000000E+00 -0.00000000000E+00 -0.85408812313E+03  0.85408812313E+03  0.00000000000E+00 0.  1.
          6    1    1    2  501    0 -0.40258308615E+00  0.92137140425E+02 -0.27173991407E+03  0.33505372049E+03  0.17300000000E+03 0.  1.
         -6    1    1    2    0  503  0.40258308615E+00 -0.92137140425E+02 -0.53325031200E+03  0.56813229970E+03  0.17300000000E+03 0.  1.
<mgrwt>
<rscale>  2 0.19600616E+03</rscale>
<asrwt>0</asrwt>
<pdfrwt beam="1">  1       21 0.75535231E-02 0.19600616E+03</pdfrwt>
<pdfrwt beam="2">  1       21 0.13139817E+00 0.19600616E+03</pdfrwt>
<totfact> 0.55688423E+04</totfact>
</mgrwt>
</event>
<event>
 4    1  0.4319182E+000  0.2658876E+03  0.7546771E-02  0.1103657E+00
         21   -1    0    0  501  502  0.00000000000E+00  0.00000000000E+00  0.93040756789E+03  0.93040756789E+03  0.00000000000E+00 0.  1.
         21   -1    0    0  502  503 -0.00000000000E+00 -0.00000000000E+00 -0.12531504627E+03  0.12531504627E+03  0.00000000000E+00 0. -1.
          6    1    1    2  501    0  0.10121337995E+03  0.17470851211E+03  0.73373670434E+03  0.78042665497E+03  0.17300000000E+03 0. -1.
         -6    1    1    2    0  503 -0.10121337995E+03 -0.17470851211E+03  0.71355817280E+02  0.27529595919E+03  0.17300000000E+03 0. -1.
<mgrwt>
<rscale>  2 0.26588759E+03</rscale>
<asrwt>0</asrwt>
<pdfrwt beam="1">  1       21 0.14313962E+00 0.26588759E+03</pdfrwt>
<pdfrwt beam="2">  1       21 0.19279239E-01 0.26588759E+03</pdfrwt>
<totfact> 0.79472330E+03</totfact>
</mgrwt>
</event>
<event>
 4    1  0.4319182E+000  0.2040100E+03  0.7546771E-02  0.1146399E+00
         21   -1    0    0  503  502  0.00000000000E+00  0.00000000000E+00  0.22862326459E+02  0.22862326459E+02  0.00000000000E+00 0.  1.
         21   -1    0    0  501  503 -0.00000000000E+00 -0.00000000000E+00 -0.19482260886E+04  0.19482260886E+04  0.00000000000E+00 0.  1.
          6    1    1    2  501    0  0.21875349014E+02  0.10588934716E+03 -0.12150614982E+04  0.12320692063E+04  0.17300000000E+03 0.  1.
         -6    1    1    2    0  502 -0.21875349014E+02 -0.10588934716E+03 -0.71030226397E+03  0.73901920878E+03  0.17300000000E+03 0.  1.
<mgrwt>
<rscale>  2 0.20401001E+03</rscale>
<asrwt>0</asrwt>
<pdfrwt beam="1">  1       21 0.35172809E-02 0.20401001E+03</pdfrwt>
<pdfrwt beam="2">  1       21 0.29972710E+00 0.20401001E+03</pdfrwt>
<totfact> 0.16456768E+04</totfact>
</mgrwt>
</event>
<event>
 4    1  0.4319182E+000  0.3012897E+03  0.7546771E-02  0.1084598E+00
         21   -1    0    0  503  502  0.00000000000E+00  0.00000000000E+00  0.13401615324E+04  0.13401615324E+04  0.00000000000E+00 0. -1.
         21   -1    0    0  501  503 -0.00000000000E+00 -0.00000000000E+00 -0.17606203558E+03  0.17606203558E+03  0.00000000000E+00 0.  1.
          6    1    1    2  501    0  0.15686198749E+03  0.19037017672E+03 -0.12611101033E+02  0.30155352290E+03  0.17300000000E+03 0.  1.
         -6    1    1    2    0  502 -0.15686198749E+03 -0.19037017672E+03  0.11767105979E+04  0.12146700451E+04  0.17300000000E+03 0. -1.
<mgrwt>
<rscale>  2 0.30128971E+03</rscale>
<asrwt>0</asrwt>
<pdfrwt beam="1">  1       21 0.20617869E+00 0.30128971E+03</pdfrwt>
<pdfrwt beam="2">  1       21 0.27086468E-01 0.30128971E+03</pdfrwt>
<totfact> 0.14491298E+03</totfact>
</mgrwt>
</event>
<event>
 4    1  0.4319182E+000  0.2793628E+03  0.7546771E-02  0.1096038E+00
         21   -1    0    0  501  502  0.00000000000E+00  0.00000000000E+00  0.17778547195E+03  0.17778547195E+03  0.00000000000E+00 0. -1.
         21   -1    0    0  502  503 -0.00000000000E+00 -0.00000000000E+00 -0.51338376039E+03  0.51338376039E+03  0.00000000000E+00 0.  1.
          6    1    1    2  501    0  0.59301331129E+02  0.21118214953E+03 -0.36233477038E+02  0.28170270324E+03  0.17300000000E+03 0. -1.
         -6    1    1    2    0  503 -0.59301331129E+02 -0.21118214953E+03 -0.29936481140E+03  0.40946652910E+03  0.17300000000E+03 0.  1.
<mgrwt>
<rscale>  2 0.27936275E+03</rscale>
<asrwt>0</asrwt>
<pdfrwt beam="1">  1       21 0.27351611E-01 0.27936275E+03</pdfrwt>
<pdfrwt beam="2">  1       21 0.78982116E-01 0.27936275E+03</pdfrwt>
<totfact> 0.17228407E+04</totfact>
</mgrwt>
</event>
<event>
 4    1  0.4319182E+000  0.3182090E+03  0.7546771E-02  0.1076477E+00
         21   -1    0    0  501  502  0.00000000000E+00  0.00000000000E+00  0.75168226460E+03  0.75168226460E+03  0.00000000000E+00 0. -1.
         21   -1    0    0  502  503 -0.00000000000E+00 -0.00000000000E+00 -0.16045213590E+03  0.16045213590E+03  0.00000000000E+00 0. -1.
          6    1    1    2  501    0 -0.24563146337E+03 -0.10484808100E+03  0.11293007569E+03  0.33765387290E+03  0.17300000000E+03 0. -1.
         -6    1    1    2    0  503  0.24563146337E+03  0.10484808100E+03  0.47830005301E+03  0.57448052760E+03  0.17300000000E+03 0. -1.
<mgrwt>
<rscale>  2 0.31820895E+03</rscale>
<asrwt>0</asrwt>
<pdfrwt beam="1">  1       21 0.11564342E+00 0.31820895E+03</pdfrwt>
<pdfrwt beam="2">  1       21 0.24684944E-01 0.31820895E+03</pdfrwt>
<totfact> 0.83407633E+03</totfact>
</mgrwt>
</event>
<event>
 4    1  0.4319182E+000  0.1776023E+03  0.7546771E-02  0.1170144E+00
         21   -1    0    0  501  502  0.00000000000E+00  0.00000000000E+00  0.63767632530E+03  0.63767632530E+03  0.00000000000E+00 0. -1.
         21   -1    0    0  502  503 -0.00000000000E+00 -0.00000000000E+00 -0.10316479127E+03  0.10316479127E+03  0.00000000000E+00 0. -1.
          6    1    1    2  501    0 -0.37556578616E+02  0.14250158606E+02  0.53450485784E+03  0.56323885401E+03  0.17300000000E+03 0. -1.
         -6    1    1    2    0  503  0.37556578616E+02 -0.14250158606E+02  0.66761882686E-02  0.17760226255E+03  0.17300000000E+03 0. -1.
<mgrwt>
<rscale>  2 0.17760226E+03</rscale>
<asrwt>0</asrwt>
<pdfrwt beam="1">  1       21 0.98104048E-01 0.17760226E+03</pdfrwt>
<pdfrwt beam="2">  1       21 0.15871507E-01 0.17760226E+03</pdfrwt>
<totfact> 0.30654507E+04</totfact>
</mgrwt>
</event>
<event>
 4    1  0.4319182E+000  0.1801331E+03  0.7546771E-02  0.1167674E+00
         21   -1    0    0  501  502  0.00000000000E+00  0.00000000000E+00  0.30334928991E+03  0.30334928991E+03  0.00000000000E+00 0.  1.
         21   -1    0    0  502  503 -0.00000000000E+00 -0.00000000000E+00 -0.10697501629E+03  0.10697501629E+03  0.00000000000E+00 0.  1.
          6    1    1    2  501    0 -0.49916911422E+02 -0.52203786057E+01  0.10010807214E+03  0.20608148026E+03  0.17300000000E+03 0.  1.
         -6    1    1    2    0  503  0.49916911422E+02  0.52203786057E+01  0.96266201479E+02  0.20424282593E+03  0.17300000000E+03 0.  1.
<mgrwt>
<rscale>  2 0.18013315E+03</rscale>
<asrwt>0</asrwt>
<pdfrwt beam="1">  1       21 0.46669121E-01 0.18013315E+03</pdfrwt>
<pdfrwt beam="2">  1       21 0.16457695E-01 0.18013315E+03</pdfrwt>
<totfact> 0.14616774E+05</totfact>
</mgrwt>
</event>
<event>
 4    1  0.4319182E+000  0.2030081E+03  0.7546771E-02  0.1147226E+00
         21   -1    0    0  503  502  0.00000000000E+00  0.00000000000E+00  0.25056233692E+03  0.25056233692E+03  0.00000000000E+00 0.  1.
         21   -1    0    0  501  503 -0.00000000000E+00 -0.00000000000E+00 -0.17407651976E+03  0.17407651976E+03  0.00000000000E+00 0.  1.
          6    1    1    2  501    0 -0.94660655756E+02  0.48193841887E+02 -0.11610541088E+02  0.20333984068E+03  0.17300000000E+03 0.  1.
         -6    1    1    2    0  502  0.94660655756E+02 -0.48193841887E+02  0.88096358243E+02  0.22129901599E+03  0.17300000000E+03 0.  1.
<mgrwt>
<rscale>  2 0.20300809E+03</rscale>
<asrwt>0</asrwt>
<pdfrwt beam="1">  1       21 0.38548052E-01 0.20300809E+03</pdfrwt>
<pdfrwt beam="2">  1       21 0.26781003E-01 0.20300809E+03</pdfrwt>
<totfact> 0.85775318E+04</totfact>
</mgrwt>
</event>
<event>
 4    1  0.4319182E+000  0.1912443E+03  0.7546771E-02  0.1157344E+00
         21   -1    0    0  501  502  0.00000000000E+00  0.00000000000E+00  0.82755286287E+02  0.82755286287E+02  0.00000000000E+00 0. -1.
         21   -1    0    0  502  503 -0.00000000000E+00 -0.00000000000E+00 -0.51324679175E+03  0.51324679175E+03  0.00000000000E+00 0. -1.
          6    1    1    2  501    0  0.64753513558E+02 -0.49521307963E+02 -0.10418396215E+03  0.21778125592E+03  0.17300000000E+03 0. -1.
         -6    1    1    2    0  503 -0.64753513558E+02  0.49521307963E+02 -0.32630754332E+03  0.37822082212E+03  0.17300000000E+03 0. -1.
<mgrwt>
<rscale>  2 0.19124429E+03</rscale>
<asrwt>0</asrwt>
<pdfrwt beam="1">  1       21 0.12731583E-01 0.19124429E+03</pdfrwt>
<pdfrwt beam="2">  1       21 0.78961043E-01 0.19124429E+03</pdfrwt>
<totfact> 0.74805528E+04</totfact>
</mgrwt>
</event>
<event>
 4    1  0.4319182E+000  0.1757499E+03  0.7546771E-02  0.1171981E+00
         21   -1    0    0  501  502  0.00000000000E+00  0.00000000000E+00  0.11143713321E+04  0.11143713321E+04  0.00000000000E+00 0. -1.
         21   -1    0    0  502  503 -0.00000000000E+00 -0.00000000000E+00 -0.38181297494E+02  0.38181297494E+02  0.00000000000E+00 0. -1.
          6    1    1    2  501    0  0.28969118484E+02 -0.10946136074E+02  0.83977180291E+03  0.85796544725E+03  0.17300000000E+03 0. -1.
         -6    1    1    2    0  503 -0.28969118484E+02  0.10946136074E+02  0.23641823170E+03  0.29458718234E+03  0.17300000000E+03 0. -1.
<mgrwt>
<rscale>  2 0.17574990E+03</rscale>
<asrwt>0</asrwt>
<pdfrwt beam="1">  1       21 0.17144172E+00 0.17574990E+03</pdfrwt>
<pdfrwt beam="2">  1       21 0.58740466E-02 0.17574990E+03</pdfrwt>
<totfact> 0.43077366E+04</totfact>
</mgrwt>
</event>
<event>
 4    1  0.4319182E+000  0.2567202E+03  0.7546771E-02  0.1109130E+00
         21   -1    0    0  501  502  0.00000000000E+00  0.00000000000E+00  0.82412743981E+03  0.82412743981E+03  0.00000000000E+00 0. -1.
         21   -1    0    0  502  503 -0.00000000000E+00 -0.00000000000E+00 -0.87396933006E+02  0.87396933006E+02  0.00000000000E+00 0.  1.
          6    1    1    2  501    0 -0.17787211127E+03 -0.65861783821E+02  0.50122773361E+03  0.56314696437E+03  0.17300000000E+03 0. -1.
         -6    1    1    2    0  503  0.17787211127E+03  0.65861783821E+02  0.23550277319E+03  0.34837740845E+03  0.17300000000E+03 0.  1.
<mgrwt>
<rscale>  2 0.25672020E+03</rscale>
<asrwt>0</asrwt>
<pdfrwt beam="1">  1       21 0.12678883E+00 0.25672020E+03</pdfrwt>
<pdfrwt beam="2">  1       21 0.13445683E-01 0.25672020E+03</pdfrwt>
<totfact> 0.21228595E+04</totfact>
</mgrwt>
</event>
<event>
 4    1  0.4319182E+000  0.2145139E+03  0.7546771E-02  0.1138041E+00
         21   -1    0    0  503  502  0.00000000000E+00  0.00000000000E+00  0.59257921752E+03  0.59257921752E+03  0.00000000000E+00 0.  1.
         21   -1    0    0  501  503 -0.00000000000E+00 -0.00000000000E+00 -0.12686561963E+03  0.12686561963E+03  0.00000000000E+00 0. -1.
          6    1    1    2  501    0 -0.36841251064E+02 -0.12136696988E+03  0.88151187946E+01  0.21469495913E+03  0.17300000000E+03 0. -1.
         -6    1    1    2    0  502  0.36841251064E+02  0.12136696988E+03  0.45689847910E+03  0.50474987802E+03  0.17300000000E+03 0.  1.
<mgrwt>
<rscale>  2 0.21451391E+03</rscale>
<asrwt>0</asrwt>
<pdfrwt beam="1">  1       21 0.91166032E-01 0.21451391E+03</pdfrwt>
<pdfrwt beam="2">  1       21 0.19517788E-01 0.21451391E+03</pdfrwt>
<totfact> 0.24323917E+04</totfact>
</mgrwt>
</event>
<event>
 4    1  0.4319182E+000  0.2009738E+03  0.7546771E-02  0.1148920E+00
         21   -1    0    0  503  502  0.00000000000E+00  0.00000000000E+00  0.28138308086E+02  0.28138308086E+02  0.00000000000E+00 0.  1.
         21   -1    0    0  501  503 -0.00000000000E+00 -0.00000000000E+00 -0.14820199892E+04  0.14820199892E+04  0.00000000000E+00 0.  1.
          6    1    1    2  501    0  0.93358736402E+02  0.41780622506E+02 -0.86082460046E+03  0.88397367994E+03  0.17300000000E+03 0.  1.
         -6    1    1    2    0  502 -0.93358736402E+02 -0.41780622506E+02 -0.59305708064E+03  0.62618461733E+03  0.17300000000E+03 0.  1.
<mgrwt>
<rscale>  2 0.20097381E+03</rscale>
<asrwt>0</asrwt>
<pdfrwt beam="1">  1       21 0.43289705E-02 0.20097381E+03</pdfrwt>
<pdfrwt beam="2">  1       21 0.22800307E+00 0.20097381E+03</pdfrwt>
<totfact> 0.30657450E+04</totfact>
</mgrwt>
</event>
<event>
 4    1  0.4319182E+000  0.1916367E+03  0.7546771E-02  0.1156993E+00
         21   -1    0    0  503  502  0.00000000000E+00  0.00000000000E+00  0.14493537398E+03  0.14493537398E+03  0.00000000000E+00 0. -1.
         21   -1    0    0  501  503 -0.00000000000E+00 -0.00000000000E+00 -0.43550214188E+03  0.43550214188E+03  0.00000000000E+00 0. -1.
          6    1    1    2  501    0  0.83793499479E+01 -0.82008591168E+02 -0.33295747575E+03  0.38416832663E+03  0.17300000000E+03 0. -1.
         -6    1    1    2    0  502 -0.83793499479E+01  0.82008591168E+02  0.42390707850E+02  0.19626918923E+03  0.17300000000E+03 0. -1.
<mgrwt>
<rscale>  2 0.19163669E+03</rscale>
<asrwt>0</asrwt>
<pdfrwt beam="1">  1       21 0.22297750E-01 0.19163669E+03</pdfrwt>
<pdfrwt beam="2">  1       21 0.67000329E-01 0.19163669E+03</pdfrwt>
<totfact> 0.38414157E+04</totfact>
</mgrwt>
</event>
<event>
 4    1  0.4319182E+000  0.2982327E+03  0.7546771E-02  0.1086127E+00
         21   -1    0    0  501  502  0.00000000000E+00  0.00000000000E+00  0.20852088352E+03  0.20852088352E+03  0.00000000000E+00 0.  1.
         21   -1    0    0  502  503 -0.00000000000E+00 -0.00000000000E+00 -0.48523676366E+03  0.48523676366E+03  0.00000000000E+00 0. -1.
          6    1    1    2  501    0  0.22664331218E+02 -0.24186782167E+03 -0.25900150445E+03  0.39499935997E+03  0.17300000000E+03 0. -1.
         -6    1    1    2    0  503 -0.22664331218E+02  0.24186782167E+03 -0.17714375696E+02  0.29875828721E+03  0.17300000000E+03 0.  1.
<mgrwt>
<rscale>  2 0.29823265E+03</rscale>
<asrwt>0</asrwt>
<pdfrwt beam="1">  1       21 0.32080136E-01 0.29823265E+03</pdfrwt>
<pdfrwt beam="2">  1       21 0.74651809E-01 0.29823265E+03</pdfrwt>
<totfact> 0.14193781E+04</totfact>
</mgrwt>
</event>
<event>
 4    1  0.4319182E+000  0.2596164E+03  0.7546771E-02  0.1107374E+00
         21   -1    0    0  503  502  0.00000000000E+00  0.00000000000E+00  0.15221613807E+03  0.15221613807E+03  0.00000000000E+00 0. -1.
         21   -1    0    0  501  503 -0.00000000000E+00 -0.00000000000E+00 -0.61264258421E+03  0.61264258421E+03  0.00000000000E+00 0.  1.
          6    1    1    2  501    0 -0.58840188427E+01  0.19348661403E+03 -0.43157456325E+03  0.50364401628E+03  0.17300000000E+03 0.  1.
         -6    1    1    2    0  502  0.58840188427E+01 -0.19348661403E+03 -0.28851882887E+02  0.26121470600E+03  0.17300000000E+03 0. -1.
<mgrwt>
<rscale>  2 0.25961643E+03</rscale>
<asrwt>0</asrwt>
<pdfrwt beam="1">  1       21 0.23417868E-01 0.25961643E+03</pdfrwt>
<pdfrwt beam="2">  1       21 0.94252704E-01 0.25961643E+03</pdfrwt>
<totfact> 0.15574800E+04</totfact>
</mgrwt>
</event>
<event>
 4    1  0.4319182E+000  0.1869486E+03  0.7546771E-02  0.1161243E+00
         21   -1    0    0  503  502  0.00000000000E+00  0.00000000000E+00  0.31194469904E+03  0.31194469904E+03  0.00000000000E+00 0.  1.
         21   -1    0    0  501  503 -0.00000000000E+00 -0.00000000000E+00 -0.11540809019E+03  0.11540809019E+03  0.00000000000E+00 0.  1.
          6    1    1    2  501    0 -0.69630824852E+02 -0.13126989324E+02  0.61756224139E+02  0.19688473998E+03  0.17300000000E+03 0.  1.
         -6    1    1    2    0  502  0.69630824852E+02  0.13126989324E+02  0.13478038471E+03  0.23046804924E+03  0.17300000000E+03 0.  1.
<mgrwt>
<rscale>  2 0.18694857E+03</rscale>
<asrwt>0</asrwt>
<pdfrwt beam="1">  1       21 0.47991492E-01 0.18694857E+03</pdfrwt>
<pdfrwt beam="2">  1       21 0.17755091E-01 0.18694857E+03</pdfrwt>
<totfact> 0.11972639E+05</totfact>
</mgrwt>
</event>
<event>
 4    1  0.4319182E+000  0.1867729E+03  0.7546771E-02  0.1161405E+00
         21   -1    0    0  501  502  0.00000000000E+00  0.00000000000E+00  0.99812952869E+03  0.99812952869E+03  0.00000000000E+00 0. -1.
         21   -1    0    0  502  503 -0.00000000000E+00 -0.00000000000E+00 -0.48544643873E+02  0.48544643873E+02  0.00000000000E+00 0. -1.
          6    1    1    2  501    0 -0.66339590660E+02 -0.23540721020E+02  0.75174354244E+03  0.77459825744E+03  0.17300000000E+03 0. -1.
         -6    1    1    2    0  503  0.66339590660E+02  0.23540721020E+02  0.19784134239E+03  0.27207591513E+03  0.17300000000E+03 0. -1.
<mgrwt>
<rscale>  2 0.18677287E+03</rscale>
<asrwt>0</asrwt>
<pdfrwt beam="1">  1       21 0.15355837E+00 0.18677287E+03</pdfrwt>
<pdfrwt beam="2">  1       21 0.74684075E-02 0.18677287E+03</pdfrwt>
<totfact> 0.38126569E+04</totfact>
</mgrwt>
</event>
<event>
 4    1  0.4319182E+000  0.2262912E+03  0.7546771E-02  0.1129278E+00
         21   -1    0    0  503  502  0.00000000000E+00  0.00000000000E+00  0.20736848177E+03  0.20736848177E+03  0.00000000000E+00 0.  1.
         21   -1    0    0  501  503 -0.00000000000E+00 -0.00000000000E+00 -0.24713950869E+03  0.24713950869E+03  0.00000000000E+00 0. -1.
          6    1    1    2  501    0 -0.11160313222E+03 -0.93933299392E+02 -0.13440445314E+02  0.22669002939E+03  0.17300000000E+03 0. -1.
         -6    1    1    2    0  502  0.11160313222E+03  0.93933299392E+02 -0.26330581607E+02  0.22781796107E+03  0.17300000000E+03 0.  1.
<mgrwt>
<rscale>  2 0.22629124E+03</rscale>
<asrwt>0</asrwt>
<pdfrwt beam="1">  1       21 0.31902843E-01 0.22629124E+03</pdfrwt>
<pdfrwt beam="2">  1       21 0.38021463E-01 0.22629124E+03</pdfrwt>
<totfact> 0.62101982E+04</totfact>
</mgrwt>
</event>
<event>
 4    1  0.4319182E+000  0.1900553E+03  0.7546771E-02  0.1158411E+00
         21   -1    0    0  501  502  0.00000000000E+00  0.00000000000E+00  0.57251342269E+03  0.57251342269E+03  0.00000000000E+00 0.  1.
         21   -1    0    0  502  503 -0.00000000000E+00 -0.00000000000E+00 -0.63473948124E+02  0.63473948124E+02  0.00000000000E+00 0.  1.
          6    1    1    2  501    0 -0.40177006821E+02 -0.67659563277E+02  0.27918759052E+03  0.33773764830E+03  0.17300000000E+03 0.  1.
         -6    1    1    2    0  503  0.40177006821E+02  0.67659563277E+02  0.22985188405E+03  0.29824972252E+03  0.17300000000E+03 0.  1.
<mgrwt>
<rscale>  2 0.19005528E+03</rscale>
<asrwt>0</asrwt>
<pdfrwt beam="1">  1       21 0.88078985E-01 0.19005528E+03</pdfrwt>
<pdfrwt beam="2">  1       21 0.97652232E-02 0.19005528E+03</pdfrwt>
<totfact> 0.93543657E+04</totfact>
</mgrwt>
</event>
<event>
 4    1  0.4319182E+000  0.2081241E+03  0.7546771E-02  0.1143060E+00
         21   -1    0    0  503  502  0.00000000000E+00  0.00000000000E+00  0.31135674498E+03  0.31135674498E+03  0.00000000000E+00 0.  1.
         21   -1    0    0  501  503 -0.00000000000E+00 -0.00000000000E+00 -0.28337809876E+03  0.28337809876E+03  0.00000000000E+00 0.  1.
          6    1    1    2  501    0 -0.89405797613E+02  0.73438646898E+02 -0.19817965765E+03  0.28738616566E+03  0.17300000000E+03 0.  1.
         -6    1    1    2    0  502  0.89405797613E+02 -0.73438646898E+02  0.22615830387E+03  0.30734867808E+03  0.17300000000E+03 0.  1.
<mgrwt>
<rscale>  2 0.20812408E+03</rscale>
<asrwt>0</asrwt>
<pdfrwt beam="1">  1       21 0.47901037E-01 0.20812408E+03</pdfrwt>
<pdfrwt beam="2">  1       21 0.43596631E-01 0.20812408E+03</pdfrwt>
<totfact> 0.20871998E+04</totfact>
</mgrwt>
</event>
<event>
 4    1  0.4319182E+000  0.1911261E+03  0.7546771E-02  0.1157450E+00
         21   -1    0    0  503  502  0.00000000000E+00  0.00000000000E+00  0.19296344806E+03  0.19296344806E+03  0.00000000000E+00 0. -1.
         21   -1    0    0  501  503 -0.00000000000E+00 -0.00000000000E+00 -0.49264288967E+03  0.49264288967E+03  0.00000000000E+00 0. -1.
          6    1    1    2  501    0  0.36734428080E+02 -0.72462088754E+02 -0.41883286223E+03  0.46038042856E+03  0.17300000000E+03 0. -1.
         -6    1    1    2    0  502 -0.36734428080E+02  0.72462088754E+02  0.11915342062E+03  0.22522590917E+03  0.17300000000E+03 0. -1.
<mgrwt>
<rscale>  2 0.19112606E+03</rscale>
<asrwt>0</asrwt>
<pdfrwt beam="1">  1       21 0.29686684E-01 0.19112606E+03</pdfrwt>
<pdfrwt beam="2">  1       21 0.75791215E-01 0.19112606E+03</pdfrwt>
<totfact> 0.16908360E+04</totfact>
</mgrwt>
</event>
<event>
 4    1  0.4319182E+000  0.2721416E+03  0.7546771E-02  0.1100060E+00
         21   -1    0    0  501  502  0.00000000000E+00  0.00000000000E+00  0.20525827714E+03  0.20525827714E+03  0.00000000000E+00 0.  1.
         21   -1    0    0  502  503 -0.00000000000E+00 -0.00000000000E+00 -0.48182387586E+03  0.48182387586E+03  0.00000000000E+00 0. -1.
          6    1    1    2  501    0  0.20253703886E+03  0.55774435147E+02  0.33878826827E+02  0.27424225537E+03  0.17300000000E+03 0. -1.
         -6    1    1    2    0  503 -0.20253703886E+03 -0.55774435147E+02 -0.31044442554E+03  0.41283989763E+03  0.17300000000E+03 0.  1.
<mgrwt>
<rscale>  2 0.27214158E+03</rscale>
<asrwt>0</asrwt>
<pdfrwt beam="1">  1       21 0.31578197E-01 0.27214158E+03</pdfrwt>
<pdfrwt beam="2">  1       21 0.74126750E-01 0.27214158E+03</pdfrwt>
<totfact> 0.15053742E+04</totfact>
</mgrwt>
</event>
<event>
 4    1  0.4319182E+000  0.3444749E+03  0.7546771E-02  0.1064906E+00
         21   -1    0    0  503  502  0.00000000000E+00  0.00000000000E+00  0.12489777157E+03  0.12489777157E+03  0.00000000000E+00 0. -1.
         21   -1    0    0  501  503 -0.00000000000E+00 -0.00000000000E+00 -0.10297116535E+04  0.10297116535E+04  0.00000000000E+00 0. -1.
          6    1    1    2  501    0  0.24599375713E+03 -0.16799107372E+03 -0.61294905001E+03  0.70311412111E+03  0.17300000000E+03 0. -1.
         -6    1    1    2    0  502 -0.24599375713E+03  0.16799107372E+03 -0.29186483194E+03  0.45149530399E+03  0.17300000000E+03 0. -1.
<mgrwt>
<rscale>  2 0.34447486E+03</rscale>
<asrwt>0</asrwt>
<pdfrwt beam="1">  1       21 0.19215042E-01 0.34447486E+03</pdfrwt>
<pdfrwt beam="2">  1       21 0.15841718E+00 0.34447486E+03</pdfrwt>
<totfact> 0.58479123E+03</totfact>
</mgrwt>
</event>
<event>
 4    1  0.4319182E+000  0.3097815E+03  0.7546771E-02  0.1080451E+00
         21   -1    0    0  501  502  0.00000000000E+00  0.00000000000E+00  0.97768504361E+03  0.97768504361E+03  0.00000000000E+00 0. -1.
         21   -1    0    0  502  503 -0.00000000000E+00 -0.00000000000E+00 -0.21587701827E+03  0.21587701827E+03  0.00000000000E+00 0. -1.
          6    1    1    2  501    0 -0.17359841734E+03  0.18947076724E+03  0.82160176000E+03  0.87806265959E+03  0.17300000000E+03 0. -1.
         -6    1    1    2    0  503  0.17359841734E+03 -0.18947076724E+03 -0.59793734658E+02  0.31549940229E+03  0.17300000000E+03 0. -1.
<mgrwt>
<rscale>  2 0.30978151E+03</rscale>
<asrwt>0</asrwt>
<pdfrwt beam="1">  1       21 0.15041308E+00 0.30978151E+03</pdfrwt>
<pdfrwt beam="2">  1       21 0.33211850E-01 0.30978151E+03</pdfrwt>
<totfact> 0.23752634E+03</totfact>
</mgrwt>
</event>
<event>
 4    1  0.4319182E+000  0.1870192E+03  0.7546771E-02  0.1161178E+00
         21   -1    0    0  501  502  0.00000000000E+00  0.00000000000E+00  0.19869369440E+03  0.19869369440E+03  0.00000000000E+00 0. -1.
         21   -1    0    0  502  503 -0.00000000000E+00 -0.00000000000E+00 -0.19863838315E+03  0.19863838315E+03  0.00000000000E+00 0.  1.
          6    1    1    2  501    0 -0.34397722881E+02  0.62160799871E+02  0.67050233210E+02  0.19867536876E+03  0.17300000000E+03 0. -1.
         -6    1    1    2    0  503  0.34397722881E+02 -0.62160799871E+02 -0.66994921961E+02  0.19865670879E+03  0.17300000000E+03 0.  1.
<mgrwt>
<rscale>  2 0.18701917E+03</rscale>
<asrwt>0</asrwt>
<pdfrwt beam="1">  1       21 0.30568261E-01 0.18701917E+03</pdfrwt>
<pdfrwt beam="2">  1       21 0.30559751E-01 0.18701917E+03</pdfrwt>
<totfact> 0.10581286E+05</totfact>
</mgrwt>
</event>
<event>
 4    1  0.4319182E+000  0.1777932E+03  0.7546771E-02  0.1169956E+00
         21   -1    0    0  501  502  0.00000000000E+00  0.00000000000E+00  0.77798184780E+03  0.77798184780E+03  0.00000000000E+00 0.  1.
         21   -1    0    0  502  503 -0.00000000000E+00 -0.00000000000E+00 -0.69278180559E+02  0.69278180559E+02  0.00000000000E+00 0.  1.
          6    1    1    2  501    0 -0.40115417140E+02  0.84958851717E+01  0.62676433153E+03  0.65149363315E+03  0.17300000000E+03 0. -1.
         -6    1    1    2    0  503  0.40115417140E+02 -0.84958851717E+01  0.81939335716E+02  0.19576639521E+03  0.17300000000E+03 0. -1.
<mgrwt>
<rscale>  2 0.17779321E+03</rscale>
<asrwt>0</asrwt>
<pdfrwt beam="1">  1       21 0.11968951E+00 0.17779321E+03</pdfrwt>
<pdfrwt beam="2">  1       21 0.10658182E-01 0.17779321E+03</pdfrwt>
<totfact> 0.38844921E+04</totfact>
</mgrwt>
</event>
<event>
 4    1  0.4319182E+000  0.1871699E+03  0.7546771E-02  0.1161039E+00
         21   -1    0    0  503  502  0.00000000000E+00  0.00000000000E+00  0.17090148800E+03  0.17090148800E+03  0.00000000000E+00 0. -1.
         21   -1    0    0  501  503 -0.00000000000E+00 -0.00000000000E+00 -0.26323903546E+03  0.26323903546E+03  0.00000000000E+00 0. -1.
          6    1    1    2  501    0  0.11252582210E+02  0.70547447329E+02 -0.14828180812E+03  0.23878872995E+03  0.17300000000E+03 0. -1.
         -6    1    1    2    0  502 -0.11252582210E+02 -0.70547447329E+02  0.55944260657E+02  0.19535179352E+03  0.17300000000E+03 0. -1.
<mgrwt>
<rscale>  2 0.18716988E+03</rscale>
<asrwt>0</asrwt>
<pdfrwt beam="1">  1       21 0.26292536E-01 0.18716988E+03</pdfrwt>
<pdfrwt beam="2">  1       21 0.40498313E-01 0.18716988E+03</pdfrwt>
<totfact> 0.80975081E+04</totfact>
</mgrwt>
</event>
<event>
 4    1  0.4319182E+000  0.1887446E+03  0.7546771E-02  0.1159599E+00
         21   -1    0    0  501  502  0.00000000000E+00  0.00000000000E+00  0.53920963165E+02  0.53920963165E+02  0.00000000000E+00 0. -1.
         21   -1    0    0  502  503 -0.00000000000E+00 -0.00000000000E+00 -0.95099098998E+03  0.95099098998E+03  0.00000000000E+00 0. -1.
          6    1    1    2  501    0  0.75159618692E+02 -0.68228918078E+01 -0.17092105330E+03  0.25463410336E+03  0.17300000000E+03 0. -1.
         -6    1    1    2    0  503 -0.75159618692E+02  0.68228918078E+01 -0.72614897351E+03  0.75027784978E+03  0.17300000000E+03 0. -1.
<mgrwt>
<rscale>  2 0.18874459E+03</rscale>
<asrwt>0</asrwt>
<pdfrwt beam="1">  1       21 0.82955330E-02 0.18874459E+03</pdfrwt>
<pdfrwt beam="2">  1       21 0.14630630E+00 0.18874459E+03</pdfrwt>
<totfact> 0.36030877E+04</totfact>
</mgrwt>
</event>
<event>
 4    1  0.4319182E+000  0.1783314E+03  0.7546771E-02  0.1169428E+00
         21   -1    0    0  503  502  0.00000000000E+00  0.00000000000E+00  0.28260000143E+02  0.28260000143E+02  0.00000000000E+00 0.  1.
         21   -1    0    0  501  503 -0.00000000000E+00 -0.00000000000E+00 -0.11561099771E+04  0.11561099771E+04  0.00000000000E+00 0.  1.
          6    1    1    2  501    0 -0.42338106344E+02  0.89754787356E+01 -0.66053673213E+03  0.68418626774E+03  0.17300000000E+03 0.  1.
         -6    1    1    2    0  502  0.42338106344E+02 -0.89754787356E+01 -0.46731324486E+03  0.50018370954E+03  0.17300000000E+03 0.  1.
<mgrwt>
<rscale>  2 0.17833136E+03</rscale>
<asrwt>0</asrwt>
<pdfrwt beam="1">  1       21 0.43476922E-02 0.17833136E+03</pdfrwt>
<pdfrwt beam="2">  1       21 0.17786308E+00 0.17833136E+03</pdfrwt>
<totfact> 0.64641363E+04</totfact>
</mgrwt>
</event>
<event>
 4    1  0.4319182E+000  0.1855831E+03  0.7546771E-02  0.1162506E+00
         21   -1    0    0  501  502  0.00000000000E+00  0.00000000000E+00  0.12158654528E+03  0.12158654528E+03  0.00000000000E+00 0.  1.
         21   -1    0    0  502  503 -0.00000000000E+00 -0.00000000000E+00 -0.42862177535E+03  0.42862177535E+03  0.00000000000E+00 0. -1.
          6    1    1    2  501    0  0.34555819566E+02  0.57601920530E+02  0.66885560811E+01  0.18570358827E+03  0.17300000000E+03 0.  1.
         -6    1    1    2    0  503 -0.34555819566E+02 -0.57601920530E+02 -0.31372378615E+03  0.36450473236E+03  0.17300000000E+03 0. -1.
<mgrwt>
<rscale>  2 0.18558310E+03</rscale>
<asrwt>0</asrwt>
<pdfrwt beam="1">  1       21 0.18705623E-01 0.18558310E+03</pdfrwt>
<pdfrwt beam="2">  1       21 0.65941810E-01 0.18558310E+03</pdfrwt>
<totfact> 0.55405985E+04</totfact>
</mgrwt>
</event>
<event>
 4    1  0.4319182E+000  0.2149099E+03  0.7546771E-02  0.1137736E+00
         21   -1    0    0  503  502  0.00000000000E+00  0.00000000000E+00  0.22421147106E+04  0.22421147106E+04  0.00000000000E+00 0.  1.
         21   -1    0    0  501  503 -0.00000000000E+00 -0.00000000000E+00 -0.29642635411E+02  0.29642635411E+02  0.00000000000E+00 0.  1.
          6    1    1    2  501    0 -0.79904483386E+01  0.12725331720E+03  0.47884968212E+03  0.52486500366E+03  0.17300000000E+03 0.  1.
         -6    1    1    2    0  502  0.79904483386E+01 -0.12725331720E+03  0.17336223931E+04  0.17468923423E+04  0.17300000000E+03 0.  1.
<mgrwt>
<rscale>  2 0.21490987E+03</rscale>
<asrwt>0</asrwt>
<pdfrwt beam="1">  1       21 0.34494059E+00 0.21490987E+03</pdfrwt>
<pdfrwt beam="2">  1       21 0.45604072E-02 0.21490987E+03</pdfrwt>
<totfact> 0.57332144E+03</totfact>
</mgrwt>
</event>
<event>
 4    1  0.4319182E+000  0.2780549E+03  0.7546771E-02  0.1096756E+00
         21   -1    0    0  503  502  0.00000000000E+00  0.00000000000E+00  0.11213847310E+04  0.11213847310E+04  0.00000000000E+00 0.  1.
         21   -1    0    0  501  503 -0.00000000000E+00 -0.00000000000E+00 -0.84274694266E+02  0.84274694266E+02  0.00000000000E+00 0.  1.
          6    1    1    2  501    0 -0.20444401453E+03  0.74754262394E+02  0.26145378704E+03  0.38167084979E+03  0.17300000000E+03 0.  1.
         -6    1    1    2    0  502  0.20444401453E+03 -0.74754262394E+02  0.77565624967E+03  0.82398857545E+03  0.17300000000E+03 0.  1.
<mgrwt>
<rscale>  2 0.27805495E+03</rscale>
<asrwt>0</asrwt>
<pdfrwt beam="1">  1       21 0.17252072E+00 0.27805495E+03</pdfrwt>
<pdfrwt beam="2">  1       21 0.12965338E-01 0.27805495E+03</pdfrwt>
<totfact> 0.98789945E+03</totfact>
</mgrwt>
</event>
<event>
 4    1  0.4319182E+000  0.2055495E+03  0.7546771E-02  0.1145140E+00
         21   -1    0    0  501  502  0.00000000000E+00  0.00000000000E+00  0.24856706598E+04  0.24856706598E+04  0.00000000000E+00 0. -1.
         21   -1    0    0  502  503 -0.00000000000E+00 -0.00000000000E+00 -0.25868474560E+02  0.25868474560E+02  0.00000000000E+00 0. -1.
          6    1    1    2  501    0  0.10084948887E+03  0.46378849580E+02  0.19652712068E+04  0.19759912787E+04  0.17300000000E+03 0.  1.
         -6    1    1    2    0  503 -0.10084948887E+03 -0.46378849580E+02  0.49453097838E+03  0.53554785563E+03  0.17300000000E+03 0.  1.
<mgrwt>
<rscale>  2 0.20554955E+03</rscale>
<asrwt>0</asrwt>
<pdfrwt beam="1">  1       21 0.38241068E+00 0.20554955E+03</pdfrwt>
<pdfrwt beam="2">  1       21 0.39797673E-02 0.20554955E+03</pdfrwt>
<totfact> 0.43445781E+03</totfact>
</mgrwt>
</event>
<event>
 4    1  0.4319182E+000  0.1900432E+03  0.7546771E-02  0.1158422E+00
         21   -1    0    0  503  502  0.00000000000E+00  0.00000000000E+00  0.12609502213E+04  0.12609502213E+04  0.00000000000E+00 0.  1.
         21   -1    0    0  501  503 -0.00000000000E+00 -0.00000000000E+00 -0.43067974434E+02  0.43067974434E+02  0.00000000000E+00 0.  1.
          6    1    1    2  501    0 -0.64428064910E+02 -0.45126950916E+02  0.23158999156E+03  0.29958361344E+03  0.17300000000E+03 0.  1.
         -6    1    1    2    0  502  0.64428064910E+02  0.45126950916E+02  0.98629225534E+03  0.10044345823E+04  0.17300000000E+03 0.  1.
<mgrwt>
<rscale>  2 0.19004320E+03</rscale>
<asrwt>0</asrwt>
<pdfrwt beam="1">  1       21 0.19399231E+00 0.19004320E+03</pdfrwt>
<pdfrwt beam="2">  1       21 0.66258432E-02 0.19004320E+03</pdfrwt>
<totfact> 0.24466220E+04</totfact>
</mgrwt>
</event>
<event>
 4    1  0.4319182E+000  0.2617581E+03  0.7546771E-02  0.1106092E+00
         21   -1    0    0  501  502  0.00000000000E+00  0.00000000000E+00  0.19745867949E+04  0.19745867949E+04  0.00000000000E+00 0.  1.
         21   -1    0    0  502  503 -0.00000000000E+00 -0.00000000000E+00 -0.37156093558E+02  0.37156093558E+02  0.00000000000E+00 0. -1.
          6    1    1    2  501    0  0.19609846394E+03 -0.11561677272E+02  0.12273515973E+04  0.12549538730E+04  0.17300000000E+03 0.  1.
         -6    1    1    2    0  503 -0.19609846394E+03  0.11561677272E+02  0.71007910410E+03  0.75678901552E+03  0.17300000000E+03 0. -1.
<mgrwt>
<rscale>  2 0.26175806E+03</rscale>
<asrwt>0</asrwt>
<pdfrwt beam="1">  1       21 0.30378250E+00 0.26175806E+03</pdfrwt>
<pdfrwt beam="2">  1       21 0.57163237E-02 0.26175806E+03</pdfrwt>
<totfact> 0.65000104E+03</totfact>
</mgrwt>
</event>
<event>
 4    1  0.4319182E+000  0.1904971E+03  0.7546771E-02  0.1158014E+00
         21   -1    0    0  501  502  0.00000000000E+00  0.00000000000E+00  0.16298152656E+03  0.16298152656E+03  0.00000000000E+00 0. -1.
         21   -1    0    0  502  503 -0.00000000000E+00 -0.00000000000E+00 -0.63476173525E+03  0.63476173525E+03  0.00000000000E+00 0. -1.
          6    1    1    2  501    0  0.16639583366E+01 -0.79733083486E+02  0.85498947872E+02  0.20880422277E+03  0.17300000000E+03 0. -1.
         -6    1    1    2    0  503 -0.16639583366E+01  0.79733083486E+02 -0.55727915656E+03  0.58893903903E+03  0.17300000000E+03 0. -1.
<mgrwt>
<rscale>  2 0.19049707E+03</rscale>
<asrwt>0</asrwt>
<pdfrwt beam="1">  1       21 0.25074081E-01 0.19049707E+03</pdfrwt>
<pdfrwt beam="2">  1       21 0.97655650E-01 0.19049707E+03</pdfrwt>
<totfact> 0.13096633E+04</totfact>
</mgrwt>
</event>
<event>
 4    1  0.4319182E+000  0.2735796E+03  0.7546771E-02  0.1099248E+00
         21   -1    0    0  503  502  0.00000000000E+00  0.00000000000E+00  0.47386355792E+03  0.47386355792E+03  0.00000000000E+00 0. -1.
         21   -1    0    0  501  503 -0.00000000000E+00 -0.00000000000E+00 -0.16541545835E+03  0.16541545835E+03  0.00000000000E+00 0.  1.
          6    1    1    2  501    0 -0.19630745090E+03  0.79876085333E+02  0.86310156921E+02  0.28687148251E+03  0.17300000000E+03 0.  1.
         -6    1    1    2    0  502  0.19630745090E+03 -0.79876085333E+02  0.22213794265E+03  0.35240753376E+03  0.17300000000E+03 0. -1.
<mgrwt>
<rscale>  2 0.27357961E+03</rscale>
<asrwt>0</asrwt>
<pdfrwt beam="1">  1       21 0.72902085E-01 0.27357961E+03</pdfrwt>
<pdfrwt beam="2">  1       21 0.25448532E-01 0.27357961E+03</pdfrwt>
<totfact> 0.23800906E+04</totfact>
</mgrwt>
</event>
<event>
 4    1  0.4319182E+000  0.1919922E+03  0.7546771E-02  0.1156677E+00
         21   -1    0    0  501  502  0.00000000000E+00  0.00000000000E+00  0.43147683200E+03  0.43147683200E+03  0.00000000000E+00 0. -1.
         21   -1    0    0  502  503 -0.00000000000E+00 -0.00000000000E+00 -0.85555838157E+02  0.85555838157E+02  0.00000000000E+00 0.  1.
          6    1    1    2  501    0  0.50194425476E+02  0.66426880596E+02  0.18287997818E+03  0.26515296950E+03  0.17300000000E+03 0. -1.
         -6    1    1    2    0  503 -0.50194425476E+02 -0.66426880596E+02  0.16304101566E+03  0.25187970065E+03  0.17300000000E+03 0. -1.
<mgrwt>
<rscale>  2 0.19199222E+03</rscale>
<asrwt>0</asrwt>
<pdfrwt beam="1">  1       21 0.66381049E-01 0.19199222E+03</pdfrwt>
<pdfrwt beam="2">  1       21 0.13162437E-01 0.19199222E+03</pdfrwt>
<totfact> 0.10351208E+05</totfact>
</mgrwt>
</event>
<event>
 4    1  0.4319182E+000  0.1777091E+03  0.7546771E-02  0.1170039E+00
         21   -1    0    0  503  502  0.00000000000E+00  0.00000000000E+00  0.11373610872E+03  0.11373610872E+03  0.00000000000E+00 0. -1.
         21   -1    0    0  501  503 -0.00000000000E+00 -0.00000000000E+00 -0.36093894883E+03  0.36093894883E+03  0.00000000000E+00 0. -1.
          6    1    1    2  501    0 -0.40212516090E+02 -0.58706689719E+01 -0.23760138137E+03  0.29670680416E+03  0.17300000000E+03 0. -1.
         -6    1    1    2    0  502  0.40212516090E+02  0.58706689719E+01 -0.96014587358E+01  0.17796825339E+03  0.17300000000E+03 0. -1.
<mgrwt>
<rscale>  2 0.17770906E+03</rscale>
<asrwt>0</asrwt>
<pdfrwt beam="1">  1       21 0.17497863E-01 0.17770906E+03</pdfrwt>
<pdfrwt beam="2">  1       21 0.55529068E-01 0.17770906E+03</pdfrwt>
<totfact> 0.90954066E+04</totfact>
</mgrwt>
</event>
<event>
 4    1  0.4319182E+000  0.1923953E+03  0.7546771E-02  0.1156319E+00
         21   -1    0    0  503  502  0.00000000000E+00  0.00000000000E+00  0.12428824578E+03  0.12428824578E+03  0.00000000000E+00 0. -1.
         21   -1    0    0  501  503 -0.00000000000E+00 -0.00000000000E+00 -0.30330585845E+03  0.30330585845E+03  0.00000000000E+00 0. -1.
          6    1    1    2  501    0  0.41406236293E+02  0.73297094226E+02 -0.11825308281E+03  0.22583120250E+03  0.17300000000E+03 0. -1.
         -6    1    1    2    0  502 -0.41406236293E+02 -0.73297094226E+02 -0.60764529852E+02  0.20176290173E+03  0.17300000000E+03 0. -1.
<mgrwt>
<rscale>  2 0.19239527E+03</rscale>
<asrwt>0</asrwt>
<pdfrwt beam="1">  1       21 0.19121269E-01 0.19239527E+03</pdfrwt>
<pdfrwt beam="2">  1       21 0.46662439E-01 0.19239527E+03</pdfrwt>
<totfact> 0.11039514E+05</totfact>
</mgrwt>
</event>
<event>
 4    1  0.4319182E+000  0.1763733E+03  0.7546771E-02  0.1171360E+00
         21   -1    0    0  501  502  0.00000000000E+00  0.00000000000E+00  0.67243948689E+03  0.67243948689E+03  0.00000000000E+00 0.  1.
         21   -1    0    0  502  503 -0.00000000000E+00 -0.00000000000E+00 -0.54373329950E+02  0.54373329950E+02  0.00000000000E+00 0.  1.
          6    1    1    2  501    0 -0.17684084381E+02  0.29424490935E+02  0.44940498709E+03  0.48277569318E+03  0.17300000000E+03 0.  1.
         -6    1    1    2    0  503  0.17684084381E+02 -0.29424490935E+02  0.16866116985E+03  0.24403712365E+03  0.17300000000E+03 0.  1.
<mgrwt>
<rscale>  2 0.17637326E+03</rscale>
<asrwt>0</asrwt>
<pdfrwt beam="1">  1       21 0.10345222E+00 0.17637326E+03</pdfrwt>
<pdfrwt beam="2">  1       21 0.83651282E-02 0.17637326E+03</pdfrwt>
<totfact> 0.84655643E+04</totfact>
</mgrwt>
</event>
<event>
 4    1  0.4319182E+000  0.2045276E+03  0.7546771E-02  0.1145974E+00
         21   -1    0    0  501  502  0.00000000000E+00  0.00000000000E+00  0.28542666896E+02  0.28542666896E+02  0.00000000000E+00 0.  1.
         21   -1    0    0  502  503 -0.00000000000E+00 -0.00000000000E+00 -0.15205251735E+04  0.15205251735E+04  0.00000000000E+00 0.  1.
          6    1    1    2  501    0  0.98153117573E+02 -0.47628837559E+02 -0.89322634467E+03  0.91634319088E+03  0.17300000000E+03 0.  1.
         -6    1    1    2    0  503 -0.98153117573E+02  0.47628837559E+02 -0.59875616197E+03  0.63272464956E+03  0.17300000000E+03 0.  1.
<mgrwt>
<rscale>  2 0.20452760E+03</rscale>
<asrwt>0</asrwt>
<pdfrwt beam="1">  1       21 0.43911792E-02 0.20452760E+03</pdfrwt>
<pdfrwt beam="2">  1       21 0.23392697E+00 0.20452760E+03</pdfrwt>
<totfact> 0.27485903E+04</totfact>
</mgrwt>
</event>
<event>
 4    1  0.4319182E+000  0.2136613E+03  0.7546771E-02  0.1138699E+00
         21   -1    0    0  501  502  0.00000000000E+00  0.00000000000E+00  0.11306218788E+03  0.11306218788E+03  0.00000000000E+00 0.  1.
         21   -1    0    0  502  503 -0.00000000000E+00 -0.00000000000E+00 -0.40378896345E+03  0.40378896345E+03  0.00000000000E+00 0. -1.
          6    1    1    2  501    0 -0.44986351902E+02 -0.11704006231E+03 -0.14712259567E+03  0.25941512331E+03  0.17300000000E+03 0. -1.
         -6    1    1    2    0  503  0.44986351902E+02  0.11704006231E+03 -0.14360417989E+03  0.25743602803E+03  0.17300000000E+03 0. -1.
<mgrwt>
<rscale>  2 0.21366129E+03</rscale>
<asrwt>0</asrwt>
<pdfrwt beam="1">  1       21 0.17394182E-01 0.21366129E+03</pdfrwt>
<pdfrwt beam="2">  1       21 0.62121380E-01 0.21366129E+03</pdfrwt>
<totfact> 0.71243778E+04</totfact>
</mgrwt>
</event>
<event>
 4    1  0.4319182E+000  0.1739050E+03  0.7546771E-02  0.1173836E+00
         21   -1    0    0  503  502  0.00000000000E+00  0.00000000000E+00  0.86831185346E+02  0.86831185346E+02  0.00000000000E+00 0.  1.
         21   -1    0    0  501  503 -0.00000000000E+00 -0.00000000000E+00 -0.77764085343E+03  0.77764085343E+03  0.00000000000E+00 0.  1.
          6    1    1    2  501    0 -0.80664712290E+01  0.15776137739E+02 -0.66657452354E+03  0.68888645648E+03  0.17300000000E+03 0.  1.
         -6    1    1    2    0  502  0.80664712290E+01 -0.15776137739E+02 -0.24235144540E+02  0.17558558230E+03  0.17300000000E+03 0.  1.
<mgrwt>
<rscale>  2 0.17390502E+03</rscale>
<asrwt>0</asrwt>
<pdfrwt beam="1">  1       21 0.13358644E-01 0.17390502E+03</pdfrwt>
<pdfrwt beam="2">  1       21 0.11963705E+00 0.17390502E+03</pdfrwt>
<totfact> 0.26048312E+04</totfact>
</mgrwt>
</event>
<event>
 4    1  0.4319182E+000  0.2255255E+03  0.7546771E-02  0.1129829E+00
         21   -1    0    0  503  502  0.00000000000E+00  0.00000000000E+00  0.55170799628E+03  0.55170799628E+03  0.00000000000E+00 0.  1.
         21   -1    0    0  501  503 -0.00000000000E+00 -0.00000000000E+00 -0.10532556754E+03  0.10532556754E+03  0.00000000000E+00 0. -1.
          6    1    1    2  501    0 -0.20446446999E+02 -0.14322955458E+03  0.10717438302E+03  0.24969603696E+03  0.17300000000E+03 0. -1.
         -6    1    1    2    0  502  0.20446446999E+02  0.14322955458E+03  0.33920804573E+03  0.40733752686E+03  0.17300000000E+03 0. -1.
<mgrwt>
<rscale>  2 0.22552553E+03</rscale>
<asrwt>0</asrwt>
<pdfrwt beam="1">  1       21 0.84878152E-01 0.22552553E+03</pdfrwt>
<pdfrwt beam="2">  1       21 0.16203934E-01 0.22552553E+03</pdfrwt>
<totfact> 0.40280401E+04</totfact>
</mgrwt>
</event>
<event>
 4    1  0.4319182E+000  0.1811350E+03  0.7546771E-02  0.1166709E+00
         21   -1    0    0  503  502  0.00000000000E+00  0.00000000000E+00  0.23008260703E+03  0.23008260703E+03  0.00000000000E+00 0.  1.
         21   -1    0    0  501  503 -0.00000000000E+00 -0.00000000000E+00 -0.15541729498E+03  0.15541729498E+03  0.00000000000E+00 0.  1.
          6    1    1    2  501    0 -0.44926077461E+02  0.29368992223E+02 -0.18019515766E+02  0.18202909957E+03  0.17300000000E+03 0.  1.
         -6    1    1    2    0  502  0.44926077461E+02 -0.29368992223E+02  0.92684827813E+02  0.20347080244E+03  0.17300000000E+03 0.  1.
<mgrwt>
<rscale>  2 0.18113501E+03</rscale>
<asrwt>0</asrwt>
<pdfrwt beam="1">  1       21 0.35397324E-01 0.18113501E+03</pdfrwt>
<pdfrwt beam="2">  1       21 0.23910353E-01 0.18113501E+03</pdfrwt>
<totfact> 0.12738004E+05</totfact>
</mgrwt>
</event>
<event>
 4    1  0.4319182E+000  0.2279995E+03  0.7546771E-02  0.1128056E+00
         21   -1    0    0  501  502  0.00000000000E+00  0.00000000000E+00  0.25808407715E+03  0.25808407715E+03  0.00000000000E+00 0. -1.
         21   -1    0    0  502  503 -0.00000000000E+00 -0.00000000000E+00 -0.90433772262E+03  0.90433772262E+03  0.00000000000E+00 0. -1.
          6    1    1    2  501    0  0.14781979344E+03  0.14285487522E+02  0.18928614142E+03  0.29633260000E+03  0.17300000000E+03 0. -1.
         -6    1    1    2    0  503 -0.14781979344E+03 -0.14285487522E+02 -0.83553978689E+03  0.86608919977E+03  0.17300000000E+03 0. -1.
<mgrwt>
<rscale>  2 0.22799949E+03</rscale>
<asrwt>0</asrwt>
<pdfrwt beam="1">  1       21 0.39705243E-01 0.22799949E+03</pdfrwt>
<pdfrwt beam="2">  1       21 0.13912888E+00 0.22799949E+03</pdfrwt>
<totfact> 0.21551865E+03</totfact>
</mgrwt>
</event>
<event>
 4    1  0.4319182E+000  0.2362215E+03  0.7546771E-02  0.1122336E+00
         21   -1    0    0  501  502  0.00000000000E+00  0.00000000000E+00  0.33205934693E+03  0.33205934693E+03  0.00000000000E+00 0.  1.
         21   -1    0    0  502  503 -0.00000000000E+00 -0.00000000000E+00 -0.85469931194E+03  0.85469931194E+03  0.00000000000E+00 0. -1.
          6    1    1    2  501    0  0.15407370835E+03 -0.46183155808E+02  0.27053730980E+03  0.35915320893E+03  0.17300000000E+03 0.  1.
         -6    1    1    2    0  503 -0.15407370835E+03  0.46183155808E+02 -0.79317727481E+03  0.82760544994E+03  0.17300000000E+03 0. -1.
<mgrwt>
<rscale>  2 0.23622149E+03</rscale>
<asrwt>0</asrwt>
<pdfrwt beam="1">  1       21 0.51086054E-01 0.23622149E+03</pdfrwt>
<pdfrwt beam="2">  1       21 0.13149220E+00 0.23622149E+03</pdfrwt>
<totfact> 0.14710818E+03</totfact>
</mgrwt>
</event>
<event>
 4    1  0.4319182E+000  0.1931901E+03  0.7546771E-02  0.1155615E+00
         21   -1    0    0  501  502  0.00000000000E+00  0.00000000000E+00  0.12201804276E+03  0.12201804276E+03  0.00000000000E+00 0. -1.
         21   -1    0    0  502  503 -0.00000000000E+00 -0.00000000000E+00 -0.37785660627E+03  0.37785660627E+03  0.00000000000E+00 0. -1.
          6    1    1    2  501    0 -0.18814986162E+02 -0.83901100282E+02 -0.23700682768E+03  0.30576892370E+03  0.17300000000E+03 0. -1.
         -6    1    1    2    0  503  0.18814986162E+02  0.83901100282E+02 -0.18831735825E+02  0.19410572533E+03  0.17300000000E+03 0. -1.
<mgrwt>
<rscale>  2 0.19319006E+03</rscale>
<asrwt>0</asrwt>
<pdfrwt beam="1">  1       21 0.18772007E-01 0.19319006E+03</pdfrwt>
<pdfrwt beam="2">  1       21 0.58131784E-01 0.19319006E+03</pdfrwt>
<totfact> 0.72010944E+04</totfact>
</mgrwt>
</event>
<event>
 4    1  0.4319182E+000  0.1893625E+03  0.7546771E-02  0.1159038E+00
         21   -1    0    0  501  502  0.00000000000E+00  0.00000000000E+00  0.62134214593E+03  0.62134214593E+03  0.00000000000E+00 0. -1.
         21   -1    0    0  502  503 -0.00000000000E+00 -0.00000000000E+00 -0.20461131453E+03  0.20461131453E+03  0.00000000000E+00 0. -1.
          6    1    1    2  501    0  0.55687665619E+02 -0.53179407975E+02  0.55828833239E+03  0.58952864868E+03  0.17300000000E+03 0. -1.
         -6    1    1    2    0  503 -0.55687665619E+02  0.53179407975E+02 -0.14155750099E+03  0.23642481177E+03  0.17300000000E+03 0. -1.
<mgrwt>
<rscale>  2 0.18936252E+03</rscale>
<asrwt>0</asrwt>
<pdfrwt beam="1">  1       21 0.95591098E-01 0.18936252E+03</pdfrwt>
<pdfrwt beam="2">  1       21 0.31478664E-01 0.18936252E+03</pdfrwt>
<totfact> 0.88768551E+03</totfact>
</mgrwt>
</event>
<event>
 4    1  0.4319182E+000  0.1993280E+03  0.7546771E-02  0.1150307E+00
         21   -1    0    0  503  502  0.00000000000E+00  0.00000000000E+00  0.54439571521E+02  0.54439571521E+02  0.00000000000E+00 0. -1.
         21   -1    0    0  501  503 -0.00000000000E+00 -0.00000000000E+00 -0.11435920360E+04  0.11435920360E+04  0.00000000000E+00 0.  1.
          6    1    1    2  501    0  0.85136440621E+02 -0.50541466972E+02 -0.90488749512E+03  0.92658136838E+03  0.17300000000E+03 0.  1.
         -6    1    1    2    0  502 -0.85136440621E+02  0.50541466972E+02 -0.18426496941E+03  0.27145023919E+03  0.17300000000E+03 0. -1.
<mgrwt>
<rscale>  2 0.19932800E+03</rscale>
<asrwt>0</asrwt>
<pdfrwt beam="1">  1       21 0.83753185E-02 0.19932800E+03</pdfrwt>
<pdfrwt beam="2">  1       21 0.17593724E+00 0.19932800E+03</pdfrwt>
<totfact> 0.21391676E+04</totfact>
</mgrwt>
</event>
<event>
 4    1  0.4319182E+000  0.1741591E+03  0.7546771E-02  0.1173579E+00
         21   -1    0    0  503  502  0.00000000000E+00  0.00000000000E+00  0.10452343352E+03  0.10452343352E+03  0.00000000000E+00 0.  1.
         21   -1    0    0  501  503 -0.00000000000E+00 -0.00000000000E+00 -0.33261531421E+03  0.33261531421E+03  0.00000000000E+00 0.  1.
          6    1    1    2  501    0 -0.12934840465E+02 -0.15332780716E+02 -0.19210853956E+03  0.25930116705E+03  0.17300000000E+03 0.  1.
         -6    1    1    2    0  502  0.12934840465E+02  0.15332780716E+02 -0.35983341124E+02  0.17783758068E+03  0.17300000000E+03 0.  1.
<mgrwt>
<rscale>  2 0.17415913E+03</rscale>
<asrwt>0</asrwt>
<pdfrwt beam="1">  1       21 0.16080528E-01 0.17415913E+03</pdfrwt>
<pdfrwt beam="2">  1       21 0.51171587E-01 0.17415913E+03</pdfrwt>
<totfact> 0.12625038E+05</totfact>
</mgrwt>
</event>
<event>
 4    1  0.4319182E+000  0.2105105E+03  0.7546771E-02  0.1141162E+00
         21   -1    0    0  503  502  0.00000000000E+00  0.00000000000E+00  0.63622052927E+02  0.63622052927E+02  0.00000000000E+00 0.  1.
         21   -1    0    0  501  503 -0.00000000000E+00 -0.00000000000E+00 -0.84781302592E+03  0.84781302592E+03  0.00000000000E+00 0. -1.
          6    1    1    2  501    0  0.87731094592E+02 -0.81785746087E+02 -0.58460010258E+03  0.62134687024E+03  0.17300000000E+03 0. -1.
         -6    1    1    2    0  502 -0.87731094592E+02  0.81785746087E+02 -0.19959087042E+03  0.29008820861E+03  0.17300000000E+03 0.  1.
<mgrwt>
<rscale>  2 0.21051046E+03</rscale>
<asrwt>0</asrwt>
<pdfrwt beam="1">  1       21 0.97880085E-02 0.21051046E+03</pdfrwt>
<pdfrwt beam="2">  1       21 0.13043277E+00 0.21051046E+03</pdfrwt>
<totfact> 0.35754177E+04</totfact>
</mgrwt>
</event>
<event>
 4    1  0.4319182E+000  0.1787366E+03  0.7546771E-02  0.1169031E+00
         21   -1    0    0  501  502  0.00000000000E+00  0.00000000000E+00  0.15776945604E+03  0.15776945604E+03  0.00000000000E+00 0.  1.
         21   -1    0    0  502  503 -0.00000000000E+00 -0.00000000000E+00 -0.23137958468E+03  0.23137958468E+03  0.00000000000E+00 0. -1.
          6    1    1    2  501    0  0.25843431778E+02 -0.36740609054E+02  0.31948185894E+02  0.18156938592E+03  0.17300000000E+03 0.  1.
         -6    1    1    2    0  503 -0.25843431778E+02  0.36740609054E+02 -0.10555831454E+03  0.20757965480E+03  0.17300000000E+03 0. -1.
<mgrwt>
<rscale>  2 0.17873655E+03</rscale>
<asrwt>0</asrwt>
<pdfrwt beam="1">  1       21 0.24272224E-01 0.17873655E+03</pdfrwt>
<pdfrwt beam="2">  1       21 0.35596859E-01 0.17873655E+03</pdfrwt>
<totfact> 0.12252829E+05</totfact>
</mgrwt>
</event>
<event>
 4    1  0.4319182E+000  0.2613338E+03  0.7546771E-02  0.1106344E+00
         21   -1    0    0  503  502  0.00000000000E+00  0.00000000000E+00  0.25542917006E+03  0.25542917006E+03  0.00000000000E+00 0.  1.
         21   -1    0    0  501  503 -0.00000000000E+00 -0.00000000000E+00 -0.63506168838E+03  0.63506168838E+03  0.00000000000E+00 0. -1.
          6    1    1    2  501    0  0.92251121363E+02 -0.17278918613E+03 -0.52860617220E+03  0.58967775736E+03  0.17300000000E+03 0. -1.
         -6    1    1    2    0  502 -0.92251121363E+02  0.17278918613E+03  0.14897365387E+03  0.30081310108E+03  0.17300000000E+03 0.  1.
<mgrwt>
<rscale>  2 0.26133383E+03</rscale>
<asrwt>0</asrwt>
<pdfrwt beam="1">  1       21 0.39296796E-01 0.26133383E+03</pdfrwt>
<pdfrwt beam="2">  1       21 0.97701797E-01 0.26133383E+03</pdfrwt>
<totfact> 0.51636206E+03</totfact>
</mgrwt>
</event>
<event>
 4    1  0.4319182E+000  0.1952230E+03  0.7546771E-02  0.1153833E+00
         21   -1    0    0  501  502  0.00000000000E+00  0.00000000000E+00  0.90786619563E+02  0.90786619563E+02  0.00000000000E+00 0.  1.
         21   -1    0    0  502  503 -0.00000000000E+00 -0.00000000000E+00 -0.44829461685E+03  0.44829461685E+03  0.00000000000E+00 0. -1.
          6    1    1    2  501    0  0.77131228410E+02 -0.47262914196E+02 -0.24671218566E+03  0.31460914165E+03  0.17300000000E+03 0. -1.
         -6    1    1    2    0  503 -0.77131228410E+02  0.47262914196E+02 -0.11079581162E+03  0.22447209476E+03  0.17300000000E+03 0.  1.
<mgrwt>
<rscale>  2 0.19522297E+03</rscale>
<asrwt>0</asrwt>
<pdfrwt beam="1">  1       21 0.13967172E-01 0.19522297E+03</pdfrwt>
<pdfrwt beam="2">  1       21 0.68968403E-01 0.19522297E+03</pdfrwt>
<totfact> 0.85397563E+04</totfact>
</mgrwt>
</event>
<event>
 4    1  0.4319182E+000  0.2108487E+03  0.7546771E-02  0.1140896E+00
         21   -1    0    0  503  502  0.00000000000E+00  0.00000000000E+00  0.26398449291E+03  0.26398449291E+03  0.00000000000E+00 0.  1.
         21   -1    0    0  501  503 -0.00000000000E+00 -0.00000000000E+00 -0.18850989101E+03  0.18850989101E+03  0.00000000000E+00 0. -1.
          6    1    1    2  501    0 -0.89643547519E+02 -0.80574142830E+02 -0.36143607267E+02  0.21392409507E+03  0.17300000000E+03 0. -1.
         -6    1    1    2    0  502  0.89643547519E+02  0.80574142830E+02  0.11161820916E+03  0.23857028885E+03  0.17300000000E+03 0.  1.
<mgrwt>
<rscale>  2 0.21084866E+03</rscale>
<asrwt>0</asrwt>
<pdfrwt beam="1">  1       21 0.40612999E-01 0.21084866E+03</pdfrwt>
<pdfrwt beam="2">  1       21 0.29001522E-01 0.21084866E+03</pdfrwt>
<totfact> 0.65939089E+04</totfact>
</mgrwt>
</event>
<event>
 4    1  0.4319182E+000  0.1857435E+03  0.7546771E-02  0.1162357E+00
         21   -1    0    0  503  502  0.00000000000E+00  0.00000000000E+00  0.33054388939E+02  0.33054388939E+02  0.00000000000E+00 0. -1.
         21   -1    0    0  501  503 -0.00000000000E+00 -0.00000000000E+00 -0.14395871338E+04  0.14395871338E+04  0.00000000000E+00 0. -1.
          6    1    1    2  501    0  0.46370272056E+01  0.67454830896E+02 -0.10893701475E+04  0.11050918399E+04  0.17300000000E+03 0. -1.
         -6    1    1    2    0  502 -0.46370272056E+01 -0.67454830896E+02 -0.31716259739E+03  0.36754968293E+03  0.17300000000E+03 0. -1.
<mgrwt>
<rscale>  2 0.18574352E+03</rscale>
<asrwt>0</asrwt>
<pdfrwt beam="1">  1       21 0.50852910E-02 0.18574352E+03</pdfrwt>
<pdfrwt beam="2">  1       21 0.22147493E+00 0.18574352E+03</pdfrwt>
<totfact> 0.25892348E+04</totfact>
</mgrwt>
</event>
<event>
 4    1  0.4319182E+000  0.2868137E+03  0.7546771E-02  0.1092025E+00
         21   -1    0    0  503  502  0.00000000000E+00  0.00000000000E+00  0.51446269622E+03  0.51446269622E+03  0.00000000000E+00 0.  1.
         21   -1    0    0  501  503 -0.00000000000E+00 -0.00000000000E+00 -0.52224758384E+03  0.52224758384E+03  0.00000000000E+00 0.  1.
          6    1    1    2  501    0  0.16871616756E+03  0.15449251935E+03 -0.43566243880E+03  0.52159739676E+03  0.17300000000E+03 0.  1.
         -6    1    1    2    0  502 -0.16871616756E+03 -0.15449251935E+03  0.42787755118E+03  0.51511288329E+03  0.17300000000E+03 0.  1.
<mgrwt>
<rscale>  2 0.28681367E+03</rscale>
<asrwt>0</asrwt>
<pdfrwt beam="1">  1       21 0.79148107E-01 0.28681367E+03</pdfrwt>
<pdfrwt beam="2">  1       21 0.80345782E-01 0.28681367E+03</pdfrwt>
<totfact> 0.17861454E+03</totfact>
</mgrwt>
</event>
<event>
 4    1  0.4319182E+000  0.1996360E+03  0.7546771E-02  0.1150046E+00
         21   -1    0    0  501  502  0.00000000000E+00  0.00000000000E+00  0.25349869043E+03  0.25349869043E+03  0.00000000000E+00 0.  1.
         21   -1    0    0  502  503 -0.00000000000E+00 -0.00000000000E+00 -0.15874853490E+03  0.15874853490E+03  0.00000000000E+00 0. -1.
          6    1    1    2  501    0 -0.49842956648E+02  0.86262472363E+02  0.27135233107E+02  0.20147172343E+03  0.17300000000E+03 0.  1.
         -6    1    1    2    0  503  0.49842956648E+02 -0.86262472363E+02  0.67614922421E+02  0.21077550190E+03  0.17300000000E+03 0.  1.
<mgrwt>
<rscale>  2 0.19963600E+03</rscale>
<asrwt>0</asrwt>
<pdfrwt beam="1">  1       21 0.38999799E-01 0.19963600E+03</pdfrwt>
<pdfrwt beam="2">  1       21 0.24422851E-01 0.19963600E+03</pdfrwt>
<totfact> 0.10010827E+05</totfact>
</mgrwt>
</event>
<event>
 4    1  0.4319182E+000  0.1854612E+03  0.7546771E-02  0.1162620E+00
         21   -1    0    0  503  502  0.00000000000E+00  0.00000000000E+00  0.70835590311E+02  0.70835590311E+02  0.00000000000E+00 0.  1.
         21   -1    0    0  501  503 -0.00000000000E+00 -0.00000000000E+00 -0.92403691527E+03  0.92403691527E+03  0.00000000000E+00 0.  1.
          6    1    1    2  501    0 -0.34316676322E+02  0.57351789050E+02 -0.76925767017E+03  0.79129844250E+03  0.17300000000E+03 0.  1.
         -6    1    1    2    0  502  0.34316676322E+02 -0.57351789050E+02 -0.83943654785E+02  0.20357406308E+03  0.17300000000E+03 0.  1.
<mgrwt>
<rscale>  2 0.18546121E+03</rscale>
<asrwt>0</asrwt>
<pdfrwt beam="1">  1       21 0.10897784E-01 0.18546121E+03</pdfrwt>
<pdfrwt beam="2">  1       21 0.14215952E+00 0.18546121E+03</pdfrwt>
<totfact> 0.24074490E+04</totfact>
</mgrwt>
</event>
<event>
 4    1  0.4319182E+000  0.1836806E+03  0.7546771E-02  0.1164288E+00
         21   -1    0    0  503  502  0.00000000000E+00  0.00000000000E+00  0.11436279647E+03  0.11436279647E+03  0.00000000000E+00 0.  1.
         21   -1    0    0  501  503 -0.00000000000E+00 -0.00000000000E+00 -0.65511437159E+03  0.65511437159E+03  0.00000000000E+00 0.  1.
          6    1    1    2  501    0  0.31057516678E+01 -0.61643380838E+02 -0.55562164994E+03  0.58519566811E+03  0.17300000000E+03 0.  1.
         -6    1    1    2    0  502 -0.31057516678E+01  0.61643380838E+02  0.14870074823E+02  0.18428149994E+03  0.17300000000E+03 0.  1.
<mgrwt>
<rscale>  2 0.18368057E+03</rscale>
<asrwt>0</asrwt>
<pdfrwt beam="1">  1       21 0.17594277E-01 0.18368057E+03</pdfrwt>
<pdfrwt beam="2">  1       21 0.10078682E+00 0.18368057E+03</pdfrwt>
<totfact> 0.23722390E+04</totfact>
</mgrwt>
</event>
<event>
 4    1  0.4319182E+000  0.1851363E+03  0.7546771E-02  0.1162923E+00
         21   -1    0    0  503  502  0.00000000000E+00  0.00000000000E+00  0.10497501690E+04  0.10497501690E+04  0.00000000000E+00 0.  1.
         21   -1    0    0  501  503 -0.00000000000E+00 -0.00000000000E+00 -0.49519059621E+02  0.49519059621E+02  0.00000000000E+00 0. -1.
          6    1    1    2  501    0 -0.60148827134E+02 -0.26992290155E+02  0.17932648848E+03  0.25774688088E+03  0.17300000000E+03 0. -1.
         -6    1    1    2    0  502  0.60148827134E+02  0.26992290155E+02  0.82090462091E+03  0.84152234775E+03  0.17300000000E+03 0.  1.
<mgrwt>
<rscale>  2 0.18513634E+03</rscale>
<asrwt>0</asrwt>
<pdfrwt beam="1">  1       21 0.16150001E+00 0.18513634E+03</pdfrwt>
<pdfrwt beam="2">  1       21 0.76183176E-02 0.18513634E+03</pdfrwt>
<totfact> 0.32216706E+04</totfact>
</mgrwt>
</event>
<event>
 4    1  0.4319182E+000  0.2067089E+03  0.7546771E-02  0.1144199E+00
         21   -1    0    0  501  502  0.00000000000E+00  0.00000000000E+00  0.16570110909E+03  0.16570110909E+03  0.00000000000E+00 0. -1.
         21   -1    0    0  502  503 -0.00000000000E+00 -0.00000000000E+00 -0.27614665142E+03  0.27614665142E+03  0.00000000000E+00 0. -1.
          6    1    1    2  501    0 -0.87398244827E+02 -0.71840900139E+02  0.16202015884E+01  0.20671524662E+03  0.17300000000E+03 0. -1.
         -6    1    1    2    0  503  0.87398244827E+02  0.71840900139E+02 -0.11206574392E+03  0.23513251390E+03  0.17300000000E+03 0. -1.
<mgrwt>
<rscale>  2 0.20670890E+03</rscale>
<asrwt>0</asrwt>
<pdfrwt beam="1">  1       21 0.25492479E-01 0.20670890E+03</pdfrwt>
<pdfrwt beam="2">  1       21 0.42484100E-01 0.20670890E+03</pdfrwt>
<totfact> 0.77312026E+04</totfact>
</mgrwt>
</event>
<event>
 4    1  0.4319182E+000  0.3094190E+03  0.7546771E-02  0.1080625E+00
         21   -1    0    0  501  502  0.00000000000E+00  0.00000000000E+00  0.55696910338E+03  0.55696910338E+03  0.00000000000E+00 0. -1.
         21   -1    0    0  502  503 -0.00000000000E+00 -0.00000000000E+00 -0.45189247130E+03  0.45189247130E+03  0.00000000000E+00 0.  1.
          6    1    1    2  501    0  0.23410907672E+03 -0.10490019970E+03  0.44960295809E+03  0.54578652568E+03  0.17300000000E+03 0. -1.
         -6    1    1    2    0  503 -0.23410907672E+03  0.10490019970E+03 -0.34452632600E+03  0.46307504900E+03  0.17300000000E+03 0.  1.
<mgrwt>
<rscale>  2 0.30941899E+03</rscale>
<asrwt>0</asrwt>
<pdfrwt beam="1">  1       21 0.85687555E-01 0.30941899E+03</pdfrwt>
<pdfrwt beam="2">  1       21 0.69521918E-01 0.30941899E+03</pdfrwt>
<totfact> 0.20355433E+03</totfact>
</mgrwt>
</event>
<event>
 4    1  0.4319182E+000  0.2437824E+03  0.7546771E-02  0.1117298E+00
         21   -1    0    0  503  502  0.00000000000E+00  0.00000000000E+00  0.19018620896E+03  0.19018620896E+03  0.00000000000E+00 0.  1.
         21   -1    0    0  501  503 -0.00000000000E+00 -0.00000000000E+00 -0.32210197359E+03  0.32210197359E+03  0.00000000000E+00 0. -1.
          6    1    1    2  501    0 -0.17083994999E+03 -0.17736273132E+02 -0.11022314871E+03  0.26754253197E+03  0.17300000000E+03 0. -1.
         -6    1    1    2    0  502  0.17083994999E+03  0.17736273132E+02 -0.21692615918E+02  0.24474565059E+03  0.17300000000E+03 0.  1.
<mgrwt>
<rscale>  2 0.24378241E+03</rscale>
<asrwt>0</asrwt>
<pdfrwt beam="1">  1       21 0.29259417E-01 0.24378241E+03</pdfrwt>
<pdfrwt beam="2">  1       21 0.49554149E-01 0.24378241E+03</pdfrwt>
<totfact> 0.42402980E+04</totfact>
</mgrwt>
</event>
<event>
 4    1  0.4319182E+000  0.1799222E+03  0.7546771E-02  0.1167878E+00
         21   -1    0    0  503  502  0.00000000000E+00  0.00000000000E+00  0.70784207121E+03  0.70784207121E+03  0.00000000000E+00 0.  1.
         21   -1    0    0  501  503 -0.00000000000E+00 -0.00000000000E+00 -0.21252391944E+03  0.21252391944E+03  0.00000000000E+00 0.  1.
          6    1    1    2  501    0  0.38616443890E+02  0.30850873447E+02 -0.16001432164E+03  0.24078328277E+03  0.17300000000E+03 0.  1.
         -6    1    1    2    0  502 -0.38616443890E+02 -0.30850873447E+02  0.65533247342E+03  0.67958270788E+03  0.17300000000E+03 0.  1.
<mgrwt>
<rscale>  2 0.17992222E+03</rscale>
<asrwt>0</asrwt>
<pdfrwt beam="1">  1       21 0.10889878E+00 0.17992222E+03</pdfrwt>
<pdfrwt beam="2">  1       21 0.32695988E-01 0.17992222E+03</pdfrwt>
<totfact> 0.60855032E+03</totfact>
</mgrwt>
</event>
<event>
 4    1  0.4319182E+000  0.1801018E+03  0.7546771E-02  0.1167705E+00
         21   -1    0    0  501  502  0.00000000000E+00  0.00000000000E+00  0.74561303690E+03  0.74561303690E+03  0.00000000000E+00 0.  1.
         21   -1    0    0  502  503 -0.00000000000E+00 -0.00000000000E+00 -0.45923279220E+02  0.45923279220E+02  0.00000000000E+00 0.  1.
          6    1    1    2  501    0  0.25860979778E+02  0.42882130099E+02  0.25899477231E+03  0.31545991733E+03  0.17300000000E+03 0.  1.
         -6    1    1    2    0  503 -0.25860979778E+02 -0.42882130099E+02  0.44069498536E+03  0.47607639879E+03  0.17300000000E+03 0.  1.
<mgrwt>
<rscale>  2 0.18010182E+03</rscale>
<asrwt>0</asrwt>
<pdfrwt beam="1">  1       21 0.11470969E+00 0.18010182E+03</pdfrwt>
<pdfrwt beam="2">  1       21 0.70651204E-02 0.18010182E+03</pdfrwt>
<totfact> 0.88302127E+04</totfact>
</mgrwt>
</event>
<event>
 4    1  0.4319182E+000  0.2097037E+03  0.7546771E-02  0.1141801E+00
         21   -1    0    0  503  502  0.00000000000E+00  0.00000000000E+00  0.14770557134E+03  0.14770557134E+03  0.00000000000E+00 0.  1.
         21   -1    0    0  501  503 -0.00000000000E+00 -0.00000000000E+00 -0.29832056893E+03  0.29832056893E+03  0.00000000000E+00 0.  1.
          6    1    1    2  501    0 -0.75353979993E+02 -0.91479047407E+02 -0.65342857330E+02  0.21964819011E+03  0.17300000000E+03 0.  1.
         -6    1    1    2    0  502  0.75353979993E+02  0.91479047407E+02 -0.85272140261E+02  0.22637795016E+03  0.17300000000E+03 0.  1.
<mgrwt>
<rscale>  2 0.20970369E+03</rscale>
<asrwt>0</asrwt>
<pdfrwt beam="1">  1       21 0.22723934E-01 0.20970369E+03</pdfrwt>
<pdfrwt beam="2">  1       21 0.45895472E-01 0.20970369E+03</pdfrwt>
<totfact> 0.82034226E+04</totfact>
</mgrwt>
</event>
<event>
 4    1  0.4319182E+000  0.2013766E+03  0.7546771E-02  0.1148583E+00
         21   -1    0    0  501  502  0.00000000000E+00  0.00000000000E+00  0.87825325719E+03  0.87825325719E+03  0.00000000000E+00 0.  1.
         21   -1    0    0  502  503 -0.00000000000E+00 -0.00000000000E+00 -0.56443841928E+02  0.56443841928E+02  0.00000000000E+00 0.  1.
          6    1    1    2  501    0  0.20812435232E+02 -0.10094737701E+03  0.61025319410E+03  0.64262079899E+03  0.17300000000E+03 0.  1.
         -6    1    1    2    0  503 -0.20812435232E+02  0.10094737701E+03  0.21155622116E+03  0.29207630013E+03  0.17300000000E+03 0.  1.
<mgrwt>
<rscale>  2 0.20137659E+03</rscale>
<asrwt>0</asrwt>
<pdfrwt beam="1">  1       21 0.13511588E+00 0.20137659E+03</pdfrwt>
<pdfrwt beam="2">  1       21 0.86836686E-02 0.20137659E+03</pdfrwt>
<totfact> 0.40563029E+04</totfact>
</mgrwt>
</event>
<event>
 4    1  0.4319182E+000  0.1894175E+03  0.7546771E-02  0.1158988E+00
         21   -1    0    0  503  502  0.00000000000E+00  0.00000000000E+00  0.80116350401E+03  0.80116350401E+03  0.00000000000E+00 0.  1.
         21   -1    0    0  501  503 -0.00000000000E+00 -0.00000000000E+00 -0.44853091213E+02  0.44853091213E+02  0.00000000000E+00 0.  1.
          6    1    1    2  501    0  0.99946521620E+01 -0.76485889015E+02  0.36150483541E+03  0.40812342535E+03  0.17300000000E+03 0.  1.
         -6    1    1    2    0  502 -0.99946521620E+01  0.76485889015E+02  0.39480557738E+03  0.43789316988E+03  0.17300000000E+03 0.  1.
<mgrwt>
<rscale>  2 0.18941749E+03</rscale>
<asrwt>0</asrwt>
<pdfrwt beam="1">  1       21 0.12325591E+00 0.18941749E+03</pdfrwt>
<pdfrwt beam="2">  1       21 0.69004762E-02 0.18941749E+03</pdfrwt>
<totfact> 0.76723872E+04</totfact>
</mgrwt>
</event>
<event>
 4    1  0.4319182E+000  0.1971962E+03  0.7546771E-02  0.1152126E+00
         21   -1    0    0  501  502  0.00000000000E+00  0.00000000000E+00  0.10587399855E+04  0.10587399855E+04  0.00000000000E+00 0.  1.
         21   -1    0    0  502  503 -0.00000000000E+00 -0.00000000000E+00 -0.59661025376E+02  0.59661025376E+02  0.00000000000E+00 0.  1.
          6    1    1    2  501    0 -0.85149633990E+02 -0.41314654627E+02  0.84623186345E+03  0.86890432591E+03  0.17300000000E+03 0.  1.
         -6    1    1    2    0  503  0.85149633990E+02  0.41314654627E+02  0.15284709670E+03  0.24949668500E+03  0.17300000000E+03 0.  1.
<mgrwt>
<rscale>  2 0.19719625E+03</rscale>
<asrwt>0</asrwt>
<pdfrwt beam="1">  1       21 0.16288306E+00 0.19719625E+03</pdfrwt>
<pdfrwt beam="2">  1       21 0.91786201E-02 0.19719625E+03</pdfrwt>
<totfact> 0.22562406E+04</totfact>
</mgrwt>
</event>
<event>
 4    1  0.4319182E+000  0.2193204E+03  0.7546771E-02  0.1134391E+00
         21   -1    0    0  501  502  0.00000000000E+00  0.00000000000E+00  0.10620661374E+04  0.10620661374E+04  0.00000000000E+00 0.  1.
         21   -1    0    0  502  503 -0.00000000000E+00 -0.00000000000E+00 -0.62569197250E+02  0.62569197250E+02  0.00000000000E+00 0.  1.
          6    1    1    2  501    0 -0.19257737710E+02 -0.13342257775E+03  0.79524859218E+03  0.82493743283E+03  0.17300000000E+03 0.  1.
         -6    1    1    2    0  503  0.19257737710E+02  0.13342257775E+03  0.20424834801E+03  0.29969790186E+03  0.17300000000E+03 0.  1.
<mgrwt>
<rscale>  2 0.21932042E+03</rscale>
<asrwt>0</asrwt>
<pdfrwt beam="1">  1       21 0.16339478E+00 0.21932042E+03</pdfrwt>
<pdfrwt beam="2">  1       21 0.96260311E-02 0.21932042E+03</pdfrwt>
<totfact> 0.20271643E+04</totfact>
</mgrwt>
</event>
<event>
 4    1  0.4319182E+000  0.1743643E+03  0.7546771E-02  0.1173372E+00
         21   -1    0    0  501  502  0.00000000000E+00  0.00000000000E+00  0.62450608610E+03  0.62450608610E+03  0.00000000000E+00 0. -1.
         21   -1    0    0  502  503 -0.00000000000E+00 -0.00000000000E+00 -0.53730564604E+02  0.53730564604E+02  0.00000000000E+00 0. -1.
          6    1    1    2  501    0  0.12463558781E+02 -0.17848208884E+02  0.38932633184E+03  0.42658866783E+03  0.17300000000E+03 0.  1.
         -6    1    1    2    0  503 -0.12463558781E+02  0.17848208884E+02  0.18144918966E+03  0.25164798288E+03  0.17300000000E+03 0.  1.
<mgrwt>
<rscale>  2 0.17436427E+03</rscale>
<asrwt>0</asrwt>
<pdfrwt beam="1">  1       21 0.96077855E-01 0.17436427E+03</pdfrwt>
<pdfrwt beam="2">  1       21 0.82662411E-02 0.17436427E+03</pdfrwt>
<totfact> 0.10302549E+05</totfact>
</mgrwt>
</event>
<event>
 4    1  0.4319182E+000  0.1887551E+03  0.7546771E-02  0.1159589E+00
         21   -1    0    0  501  502  0.00000000000E+00  0.00000000000E+00  0.12772239742E+04  0.12772239742E+04  0.00000000000E+00 0. -1.
         21   -1    0    0  502  503 -0.00000000000E+00 -0.00000000000E+00 -0.27943310439E+02  0.27943310439E+02  0.00000000000E+00 0. -1.
          6    1    1    2  501    0  0.18710650523E+02  0.73139704216E+02  0.65169927167E+03  0.67848393162E+03  0.17300000000E+03 0. -1.
         -6    1    1    2    0  503 -0.18710650523E+02 -0.73139704216E+02  0.59758139212E+03  0.62668335305E+03  0.17300000000E+03 0. -1.
<mgrwt>
<rscale>  2 0.18875515E+03</rscale>
<asrwt>0</asrwt>
<pdfrwt beam="1">  1       21 0.19649595E+00 0.18875515E+03</pdfrwt>
<pdfrwt beam="2">  1       21 0.42989718E-02 0.18875515E+03</pdfrwt>
<totfact> 0.49228855E+04</totfact>
</mgrwt>
</event>
<event>
 4    1  0.4319182E+000  0.2026600E+03  0.7546771E-02  0.1147514E+00
         21   -1    0    0  501  502  0.00000000000E+00  0.00000000000E+00  0.72813141306E+03  0.72813141306E+03  0.00000000000E+00 0.  1.
         21   -1    0    0  502  503 -0.00000000000E+00 -0.00000000000E+00 -0.12005897214E+03  0.12005897214E+03  0.00000000000E+00 0.  1.
          6    1    1    2  501    0 -0.85156580635E+02 -0.62373473954E+02  0.61283448654E+03  0.64547440024E+03  0.17300000000E+03 0.  1.
         -6    1    1    2    0  503  0.85156580635E+02  0.62373473954E+02 -0.47620456208E+01  0.20271598496E+03  0.17300000000E+03 0.  1.
<mgrwt>
<rscale>  2 0.20266004E+03</rscale>
<asrwt>0</asrwt>
<pdfrwt beam="1">  1       21 0.11202022E+00 0.20266004E+03</pdfrwt>
<pdfrwt beam="2">  1       21 0.18470611E-01 0.20266004E+03</pdfrwt>
<totfact> 0.16617636E+04</totfact>
</mgrwt>
</event>
<event>
 4    1  0.4319182E+000  0.1768068E+03  0.7546771E-02  0.1170930E+00
         21   -1    0    0  503  502  0.00000000000E+00  0.00000000000E+00  0.83774315193E+03  0.83774315193E+03  0.00000000000E+00 0. -1.
         21   -1    0    0  501  503 -0.00000000000E+00 -0.00000000000E+00 -0.37322526252E+02  0.37322526252E+02  0.00000000000E+00 0. -1.
          6    1    1    2  501    0  0.33543063433E+01 -0.36336987751E+02  0.40630292915E+03  0.44310574165E+03  0.17300000000E+03 0. -1.
         -6    1    1    2    0  502 -0.33543063433E+01  0.36336987751E+02  0.39411769653E+03  0.43195993653E+03  0.17300000000E+03 0. -1.
<mgrwt>
<rscale>  2 0.17680675E+03</rscale>
<asrwt>0</asrwt>
<pdfrwt beam="1">  1       21 0.12888355E+00 0.17680675E+03</pdfrwt>
<pdfrwt beam="2">  1       21 0.57419277E-02 0.17680675E+03</pdfrwt>
<totfact> 0.94581852E+04</totfact>
</mgrwt>
</event>
<event>
 4    1  0.4319182E+000  0.1851808E+03  0.7546771E-02  0.1162881E+00
         21   -1    0    0  503  502  0.00000000000E+00  0.00000000000E+00  0.86187405798E+03  0.86187405798E+03  0.00000000000E+00 0.  1.
         21   -1    0    0  501  503 -0.00000000000E+00 -0.00000000000E+00 -0.45664297738E+02  0.45664297738E+02  0.00000000000E+00 0.  1.
          6    1    1    2  501    0  0.66052163577E+02 -0.15115017521E+00  0.24532046941E+03  0.30736630244E+03  0.17300000000E+03 0.  1.
         -6    1    1    2    0  502 -0.66052163577E+02  0.15115017521E+00  0.57088929083E+03  0.60017205328E+03  0.17300000000E+03 0.  1.
<mgrwt>
<rscale>  2 0.18518075E+03</rscale>
<asrwt>0</asrwt>
<pdfrwt beam="1">  1       21 0.13259600E+00 0.18518075E+03</pdfrwt>
<pdfrwt beam="2">  1       21 0.70252772E-02 0.18518075E+03</pdfrwt>
<totfact> 0.62044390E+04</totfact>
</mgrwt>
</event>
<event>
 4    1  0.4319182E+000  0.2372804E+03  0.7546771E-02  0.1121618E+00
         21   -1    0    0  501  502  0.00000000000E+00  0.00000000000E+00  0.16267109090E+03  0.16267109090E+03  0.00000000000E+00 0. -1.
         21   -1    0    0  502  503 -0.00000000000E+00 -0.00000000000E+00 -0.57506694311E+03  0.57506694311E+03  0.00000000000E+00 0.  1.
          6    1    1    2  501    0  0.16239298298E+03  0.12236238929E+01  0.26552532303E+02  0.23876141888E+03  0.17300000000E+03 0. -1.
         -6    1    1    2    0  503 -0.16239298298E+03 -0.12236238929E+01 -0.43894838451E+03  0.49897661513E+03  0.17300000000E+03 0.  1.
<mgrwt>
<rscale>  2 0.23728038E+03</rscale>
<asrwt>0</asrwt>
<pdfrwt beam="1">  1       21 0.25026322E-01 0.23728038E+03</pdfrwt>
<pdfrwt beam="2">  1       21 0.88471837E-01 0.23728038E+03</pdfrwt>
<totfact> 0.16087409E+04</totfact>
</mgrwt>
</event>
<event>
 4    1  0.4319182E+000  0.2022215E+03  0.7546771E-02  0.1147878E+00
         21   -1    0    0  503  502  0.00000000000E+00  0.00000000000E+00  0.14902511488E+04  0.14902511488E+04  0.00000000000E+00 0. -1.
         21   -1    0    0  501  503 -0.00000000000E+00 -0.00000000000E+00 -0.42599981779E+02  0.42599981779E+02  0.00000000000E+00 0. -1.
          6    1    1    2  501    0  0.72816325872E+02 -0.75248425680E+02  0.26662738512E+03  0.33463966498E+03  0.17300000000E+03 0. -1.
         -6    1    1    2    0  502 -0.72816325872E+02  0.75248425680E+02  0.11810237819E+04  0.11982114656E+04  0.17300000000E+03 0. -1.
<mgrwt>
<rscale>  2 0.20222152E+03</rscale>
<asrwt>0</asrwt>
<pdfrwt beam="1">  1       21 0.22926937E+00 0.20222152E+03</pdfrwt>
<pdfrwt beam="2">  1       21 0.65538445E-02 0.20222152E+03</pdfrwt>
<totfact> 0.14849273E+04</totfact>
</mgrwt>
</event>
<event>
 4    1  0.4319182E+000  0.3007378E+03  0.7546771E-02  0.1084872E+00
         21   -1    0    0  501  502  0.00000000000E+00  0.00000000000E+00  0.29036000849E+03  0.29036000849E+03  0.00000000000E+00 0.  1.
         21   -1    0    0  502  503 -0.00000000000E+00 -0.00000000000E+00 -0.31880662797E+03  0.31880662797E+03  0.00000000000E+00 0. -1.
          6    1    1    2  501    0  0.11430009321E+03 -0.21782960178E+03  0.31929626284E+02  0.30242808692E+03  0.17300000000E+03 0.  1.
         -6    1    1    2    0  503 -0.11430009321E+03  0.21782960178E+03 -0.60376245757E+02  0.30673854954E+03  0.17300000000E+03 0. -1.
<mgrwt>
<rscale>  2 0.30073784E+03</rscale>
<asrwt>0</asrwt>
<pdfrwt beam="1">  1       21 0.44670771E-01 0.30073784E+03</pdfrwt>
<pdfrwt beam="2">  1       21 0.49047173E-01 0.30073784E+03</pdfrwt>
<totfact> 0.18072290E+04</totfact>
</mgrwt>
</event>
<event>
 4    1  0.4319182E+000  0.1874645E+03  0.7546771E-02  0.1160768E+00
         21   -1    0    0  503  502  0.00000000000E+00  0.00000000000E+00  0.97934006131E+03  0.97934006131E+03  0.00000000000E+00 0. -1.
         21   -1    0    0  501  503 -0.00000000000E+00 -0.00000000000E+00 -0.38299914428E+02  0.38299914428E+02  0.00000000000E+00 0. -1.
          6    1    1    2  501    0 -0.40241821561E+02  0.59954316600E+02  0.34273508765E+03  0.39065363763E+03  0.17300000000E+03 0. -1.
         -6    1    1    2    0  502  0.40241821561E+02 -0.59954316600E+02  0.59830505923E+03  0.62698633811E+03  0.17300000000E+03 0. -1.
<mgrwt>
<rscale>  2 0.18746446E+03</rscale>
<asrwt>0</asrwt>
<pdfrwt beam="1">  1       21 0.15066768E+00 0.18746446E+03</pdfrwt>
<pdfrwt beam="2">  1       21 0.58922953E-02 0.18746446E+03</pdfrwt>
<totfact> 0.60252337E+04</totfact>
</mgrwt>
</event>
<event>
 4    1  0.4319182E+000  0.1973271E+03  0.7546771E-02  0.1152014E+00
         21   -1    0    0  503  502  0.00000000000E+00  0.00000000000E+00  0.10826568597E+04  0.10826568597E+04  0.00000000000E+00 0.  1.
         21   -1    0    0  501  503 -0.00000000000E+00 -0.00000000000E+00 -0.36101751044E+02  0.36101751044E+02  0.00000000000E+00 0.  1.
          6    1    1    2  501    0  0.73491888900E+02 -0.60065892180E+02  0.55768019367E+03  0.59156163462E+03  0.17300000000E+03 0.  1.
         -6    1    1    2    0  502 -0.73491888900E+02  0.60065892180E+02  0.48887491500E+03  0.52719697614E+03  0.17300000000E+03 0.  1.
<mgrwt>
<rscale>  2 0.19732706E+03</rscale>
<asrwt>0</asrwt>
<pdfrwt beam="1">  1       21 0.16656257E+00 0.19732706E+03</pdfrwt>
<pdfrwt beam="2">  1       21 0.55541164E-02 0.19732706E+03</pdfrwt>
<totfact> 0.50631065E+04</totfact>
</mgrwt>
</event>
<event>
 4    1  0.4319182E+000  0.1883225E+03  0.7546771E-02  0.1159983E+00
         21   -1    0    0  501  502  0.00000000000E+00  0.00000000000E+00  0.40816928724E+03  0.40816928724E+03  0.00000000000E+00 0.  1.
         21   -1    0    0  502  503 -0.00000000000E+00 -0.00000000000E+00 -0.16461801503E+03  0.16461801503E+03  0.00000000000E+00 0. -1.
          6    1    1    2  501    0 -0.12366764719E+02 -0.73371872154E+02  0.31857180917E+03  0.37007210931E+03  0.17300000000E+03 0.  1.
         -6    1    1    2    0  503  0.12366764719E+02  0.73371872154E+02 -0.75020536959E+02  0.20271519296E+03  0.17300000000E+03 0. -1.
<mgrwt>
<rscale>  2 0.18832251E+03</rscale>
<asrwt>0</asrwt>
<pdfrwt beam="1">  1       21 0.62795275E-01 0.18832251E+03</pdfrwt>
<pdfrwt beam="2">  1       21 0.25325849E-01 0.18832251E+03</pdfrwt>
<totfact> 0.34788343E+04</totfact>
</mgrwt>
</event>
<event>
 4    1  0.4319182E+000  0.1943695E+03  0.7546771E-02  0.1154578E+00
         21   -1    0    0  501  502  0.00000000000E+00  0.00000000000E+00  0.77525315610E+02  0.77525315610E+02  0.00000000000E+00 0. -1.
         21   -1    0    0  502  503 -0.00000000000E+00 -0.00000000000E+00 -0.15953298187E+04  0.15953298187E+04  0.00000000000E+00 0. -1.
          6    1    1    2  501    0 -0.83088649745E+02  0.30769970518E+02 -0.61834150076E+02  0.20396807818E+03  0.17300000000E+03 0. -1.
         -6    1    1    2    0  503  0.83088649745E+02 -0.30769970518E+02 -0.14559703530E+04  0.14688870561E+04  0.17300000000E+03 0. -1.
<mgrwt>
<rscale>  2 0.19436953E+03</rscale>
<asrwt>0</asrwt>
<pdfrwt beam="1">  1       21 0.11926972E-01 0.19436953E+03</pdfrwt>
<pdfrwt beam="2">  1       21 0.24543535E+00 0.19436953E+03</pdfrwt>
<totfact> 0.41894193E+03</totfact>
</mgrwt>
</event>
<event>
 4    1  0.4319182E+000  0.2387107E+03  0.7546771E-02  0.1120655E+00
         21   -1    0    0  503  502  0.00000000000E+00  0.00000000000E+00  0.52339779625E+03  0.52339779625E+03  0.00000000000E+00 0.  1.
         21   -1    0    0  501  503 -0.00000000000E+00 -0.00000000000E+00 -0.14620859500E+03  0.14620859500E+03  0.00000000000E+00 0. -1.
          6    1    1    2  501    0 -0.27752053134E+02  0.16212224782E+03  0.35778541361E+03  0.43010836063E+03  0.17300000000E+03 0.  1.
         -6    1    1    2    0  502  0.27752053134E+02 -0.16212224782E+03  0.19403787639E+02  0.23949803061E+03  0.17300000000E+03 0. -1.
<mgrwt>
<rscale>  2 0.23871070E+03</rscale>
<asrwt>0</asrwt>
<pdfrwt beam="1">  1       21 0.80522737E-01 0.23871070E+03</pdfrwt>
<pdfrwt beam="2">  1       21 0.22493630E-01 0.23871070E+03</pdfrwt>
<totfact> 0.24466020E+04</totfact>
</mgrwt>
</event>
<event>
 4    1  0.4319182E+000  0.1743690E+03  0.7546771E-02  0.1173367E+00
         21   -1    0    0  501  502  0.00000000000E+00  0.00000000000E+00  0.58504771136E+03  0.58504771136E+03  0.00000000000E+00 0.  1.
         21   -1    0    0  502  503 -0.00000000000E+00 -0.00000000000E+00 -0.85197986526E+02  0.85197986526E+02  0.00000000000E+00 0.  1.
          6    1    1    2  501    0  0.16968509239E+02  0.13697831224E+02  0.45921342958E+03  0.49120416813E+03  0.17300000000E+03 0.  1.
         -6    1    1    2    0  503 -0.16968509239E+02 -0.13697831224E+02  0.40636295262E+02  0.17904152976E+03  0.17300000000E+03 0.  1.
<mgrwt>
<rscale>  2 0.17436904E+03</rscale>
<asrwt>0</asrwt>
<pdfrwt beam="1">  1       21 0.90007338E-01 0.17436904E+03</pdfrwt>
<pdfrwt beam="2">  1       21 0.13107383E-01 0.17436904E+03</pdfrwt>
<totfact> 0.53079326E+04</totfact>
</mgrwt>
</event>
<event>
 4    1  0.4319182E+000  0.1779174E+03  0.7546771E-02  0.1169834E+00
         21   -1    0    0  503  502  0.00000000000E+00  0.00000000000E+00  0.79914593785E+02  0.79914593785E+02  0.00000000000E+00 0.  1.
         21   -1    0    0  501  503 -0.00000000000E+00 -0.00000000000E+00 -0.41553991439E+03  0.41553991439E+03  0.00000000000E+00 0. -1.
          6    1    1    2  501    0 -0.38205694188E+02  0.16306914374E+02 -0.11423843669E+03  0.21143559526E+03  0.17300000000E+03 0.  1.
         -6    1    1    2    0  502  0.38205694188E+02 -0.16306914374E+02 -0.22138688391E+03  0.28401891291E+03  0.17300000000E+03 0. -1.
<mgrwt>
<rscale>  2 0.17791737E+03</rscale>
<asrwt>0</asrwt>
<pdfrwt beam="1">  1       21 0.12294553E-01 0.17791737E+03</pdfrwt>
<pdfrwt beam="2">  1       21 0.63929216E-01 0.17791737E+03</pdfrwt>
<totfact> 0.12762862E+05</totfact>
</mgrwt>
</event>
<event>
 4    1  0.4319182E+000  0.1771870E+03  0.7546771E-02  0.1170554E+00
         21   -1    0    0  503  502  0.00000000000E+00  0.00000000000E+00  0.19923172379E+02  0.19923172379E+02  0.00000000000E+00 0. -1.
         21   -1    0    0  501  503 -0.00000000000E+00 -0.00000000000E+00 -0.21776805817E+04  0.21776805817E+04  0.00000000000E+00 0. -1.
          6    1    1    2  501    0  0.19366615363E+02  0.33032777256E+02 -0.16565384772E+04  0.16659876820E+04  0.17300000000E+03 0. -1.
         -6    1    1    2    0  502 -0.19366615363E+02 -0.33032777256E+02 -0.50121893210E+03  0.53161607205E+03  0.17300000000E+03 0. -1.
<mgrwt>
<rscale>  2 0.17718699E+03</rscale>
<asrwt>0</asrwt>
<pdfrwt beam="1">  1       21 0.30651042E-02 0.17718699E+03</pdfrwt>
<pdfrwt beam="2">  1       21 0.33502770E+00 0.17718699E+03</pdfrwt>
<totfact> 0.13311946E+04</totfact>
</mgrwt>
</event>
<event>
 4    1  0.4319182E+000  0.1873275E+03  0.7546771E-02  0.1160894E+00
         21   -1    0    0  503  502  0.00000000000E+00  0.00000000000E+00  0.47550166946E+03  0.47550166946E+03  0.00000000000E+00 0. -1.
         21   -1    0    0  501  503 -0.00000000000E+00 -0.00000000000E+00 -0.88261002613E+02  0.88261002613E+02  0.00000000000E+00 0. -1.
          6    1    1    2  501    0  0.70877490403E+02 -0.11787952552E+02  0.79517805673E+02  0.20350591119E+03  0.17300000000E+03 0. -1.
         -6    1    1    2    0  502 -0.70877490403E+02  0.11787952552E+02  0.30772286117E+03  0.36025676088E+03  0.17300000000E+03 0. -1.
<mgrwt>
<rscale>  2 0.18732745E+03</rscale>
<asrwt>0</asrwt>
<pdfrwt beam="1">  1       21 0.73154102E-01 0.18732745E+03</pdfrwt>
<pdfrwt beam="2">  1       21 0.13578616E-01 0.18732745E+03</pdfrwt>
<totfact> 0.79153500E+04</totfact>
</mgrwt>
</event>
<event>
 4    1  0.4319182E+000  0.2087417E+03  0.7546771E-02  0.1142566E+00
         21   -1    0    0  501  502  0.00000000000E+00  0.00000000000E+00  0.69905944266E+03  0.69905944266E+03  0.00000000000E+00 0.  1.
         21   -1    0    0  502  503 -0.00000000000E+00 -0.00000000000E+00 -0.13452647248E+03  0.13452647248E+03  0.00000000000E+00 0. -1.
          6    1    1    2  501    0 -0.11439810916E+03  0.23604351032E+02  0.58759783393E+03  0.62357381857E+03  0.17300000000E+03 0.  1.
         -6    1    1    2    0  503  0.11439810916E+03 -0.23604351032E+02 -0.23064863752E+02  0.21001209658E+03  0.17300000000E+03 0. -1.
<mgrwt>
<rscale>  2 0.20874169E+03</rscale>
<asrwt>0</asrwt>
<pdfrwt beam="1">  1       21 0.10754760E+00 0.20874169E+03</pdfrwt>
<pdfrwt beam="2">  1       21 0.20696381E-01 0.20874169E+03</pdfrwt>
<totfact> 0.14774950E+04</totfact>
</mgrwt>
</event>
<event>
 4    1  0.4319182E+000  0.2354263E+03  0.7546771E-02  0.1122878E+00
         21   -1    0    0  501  502  0.00000000000E+00  0.00000000000E+00  0.21000549654E+03  0.21000549654E+03  0.00000000000E+00 0.  1.
         21   -1    0    0  502  503 -0.00000000000E+00 -0.00000000000E+00 -0.58587646268E+03  0.58587646268E+03  0.00000000000E+00 0. -1.
          6    1    1    2  501    0  0.41650739958E+02  0.15414856011E+03  0.10705722693E+03  0.25862484908E+03  0.17300000000E+03 0.  1.
         -6    1    1    2    0  503 -0.41650739958E+02 -0.15414856011E+03 -0.48292819308E+03  0.53725711014E+03  0.17300000000E+03 0. -1.
<mgrwt>
<rscale>  2 0.23542634E+03</rscale>
<asrwt>0</asrwt>
<pdfrwt beam="1">  1       21 0.32308538E-01 0.23542634E+03</pdfrwt>
<pdfrwt beam="2">  1       21 0.90134839E-01 0.23542634E+03</pdfrwt>
<totfact> 0.93803767E+03</totfact>
</mgrwt>
</event>
<event>
 4    1  0.4319182E+000  0.1845241E+03  0.7546771E-02  0.1163495E+00
         21   -1    0    0  503  502  0.00000000000E+00  0.00000000000E+00  0.11642217190E+03  0.11642217190E+03  0.00000000000E+00 0. -1.
         21   -1    0    0  501  503 -0.00000000000E+00 -0.00000000000E+00 -0.29487967727E+03  0.29487967727E+03  0.00000000000E+00 0. -1.
          6    1    1    2  501    0 -0.62018662518E+02  0.16547765990E+02 -0.70610270363E+02  0.19757265332E+03  0.17300000000E+03 0.  1.
         -6    1    1    2    0  502  0.62018662518E+02 -0.16547765990E+02 -0.10784723500E+03  0.21372919585E+03  0.17300000000E+03 0.  1.
<mgrwt>
<rscale>  2 0.18452410E+03</rscale>
<asrwt>0</asrwt>
<pdfrwt beam="1">  1       21 0.17911103E-01 0.18452410E+03</pdfrwt>
<pdfrwt beam="2">  1       21 0.45366104E-01 0.18452410E+03</pdfrwt>
<totfact> 0.13241152E+05</totfact>
</mgrwt>
</event>
<event>
 4    1  0.4319182E+000  0.1910835E+03  0.7546771E-02  0.1157488E+00
         21   -1    0    0  501  502  0.00000000000E+00  0.00000000000E+00  0.24265579624E+03  0.24265579624E+03  0.00000000000E+00 0. -1.
         21   -1    0    0  502  503 -0.00000000000E+00 -0.00000000000E+00 -0.46300812432E+03  0.46300812432E+03  0.00000000000E+00 0. -1.
          6    1    1    2  501    0  0.62910344663E+02 -0.51246526088E+02  0.17970745871E+03  0.26231219685E+03  0.17300000000E+03 0. -1.
         -6    1    1    2    0  503 -0.62910344663E+02  0.51246526088E+02 -0.40005978679E+03  0.44335172370E+03  0.17300000000E+03 0. -1.
<mgrwt>
<rscale>  2 0.19108354E+03</rscale>
<asrwt>0</asrwt>
<pdfrwt beam="1">  1       21 0.37331661E-01 0.19108354E+03</pdfrwt>
<pdfrwt beam="2">  1       21 0.71232019E-01 0.19108354E+03</pdfrwt>
<totfact> 0.12351238E+04</totfact>
</mgrwt>
</event>
<event>
 4    1  0.4319182E+000  0.2284424E+03  0.7546771E-02  0.1127741E+00
         21   -1    0    0  501  502  0.00000000000E+00  0.00000000000E+00  0.84965860703E+02  0.84965860703E+02  0.00000000000E+00 0. -1.
         21   -1    0    0  502  503 -0.00000000000E+00 -0.00000000000E+00 -0.84277861708E+03  0.84277861708E+03  0.00000000000E+00 0.  1.
          6    1    1    2  501    0  0.91071513789E+01 -0.14890934056E+03 -0.13732661916E+03  0.26654180205E+03  0.17300000000E+03 0. -1.
         -6    1    1    2    0  503 -0.91071513789E+01  0.14890934056E+03 -0.62048613722E+03  0.66120267573E+03  0.17300000000E+03 0.  1.
<mgrwt>
<rscale>  2 0.22844240E+03</rscale>
<asrwt>0</asrwt>
<pdfrwt beam="1">  1       21 0.13071671E-01 0.22844240E+03</pdfrwt>
<pdfrwt beam="2">  1       21 0.12965824E+00 0.22844240E+03</pdfrwt>
<totfact> 0.21427123E+04</totfact>
</mgrwt>
</event>
<event>
 4    1  0.4319182E+000  0.2273399E+03  0.7546771E-02  0.1128526E+00
         21   -1    0    0  501  502  0.00000000000E+00  0.00000000000E+00  0.29815035163E+03  0.29815035163E+03  0.00000000000E+00 0. -1.
         21   -1    0    0  502  503 -0.00000000000E+00 -0.00000000000E+00 -0.42963779847E+03  0.42963779847E+03  0.00000000000E+00 0. -1.
          6    1    1    2  501    0  0.16732288083E+01 -0.14748435752E+03  0.21531064874E+03  0.31311676875E+03  0.17300000000E+03 0. -1.
         -6    1    1    2    0  503 -0.16732288083E+01  0.14748435752E+03 -0.34679809558E+03  0.41467138135E+03  0.17300000000E+03 0. -1.
<mgrwt>
<rscale>  2 0.22733991E+03</rscale>
<asrwt>0</asrwt>
<pdfrwt beam="1">  1       21 0.45869285E-01 0.22733991E+03</pdfrwt>
<pdfrwt beam="2">  1       21 0.66098123E-01 0.22733991E+03</pdfrwt>
<totfact> 0.93550566E+03</totfact>
</mgrwt>
</event>
<event>
 4    1  0.4319182E+000  0.1978311E+03  0.7546771E-02  0.1151582E+00
         21   -1    0    0  501  502  0.00000000000E+00  0.00000000000E+00  0.66481361078E+03  0.66481361078E+03  0.00000000000E+00 0.  1.
         21   -1    0    0  502  503 -0.00000000000E+00 -0.00000000000E+00 -0.19885187985E+03  0.19885187985E+03  0.00000000000E+00 0.  1.
          6    1    1    2  501    0 -0.22754719473E+02  0.93222205766E+02  0.59529694829E+03  0.62730822851E+03  0.17300000000E+03 0.  1.
         -6    1    1    2    0  503  0.22754719473E+02 -0.93222205766E+02 -0.12933521736E+03  0.23635726212E+03  0.17300000000E+03 0.  1.
<mgrwt>
<rscale>  2 0.19783113E+03</rscale>
<asrwt>0</asrwt>
<pdfrwt beam="1">  1       21 0.10227902E+00 0.19783113E+03</pdfrwt>
<pdfrwt beam="2">  1       21 0.30592597E-01 0.19783113E+03</pdfrwt>
<totfact> 0.79500603E+03</totfact>
</mgrwt>
</event>
<event>
 4    1  0.4319182E+000  0.2547344E+03  0.7546771E-02  0.1110349E+00
         21   -1    0    0  503  502  0.00000000000E+00  0.00000000000E+00  0.10025715635E+03  0.10025715635E+03  0.00000000000E+00 0.  1.
         21   -1    0    0  501  503 -0.00000000000E+00 -0.00000000000E+00 -0.14030116103E+04  0.14030116103E+04  0.00000000000E+00 0. -1.
          6    1    1    2  501    0  0.16042929416E+03 -0.96036744621E+02 -0.12030399815E+04  0.12297133047E+04  0.17300000000E+03 0. -1.
         -6    1    1    2    0  502 -0.16042929416E+03  0.96036744621E+02 -0.99714472494E+02  0.27355546196E+03  0.17300000000E+03 0.  1.
<mgrwt>
<rscale>  2 0.25473440E+03</rscale>
<asrwt>0</asrwt>
<pdfrwt beam="1">  1       21 0.15424178E-01 0.25473440E+03</pdfrwt>
<pdfrwt beam="2">  1       21 0.21584793E+00 0.25473440E+03</pdfrwt>
<totfact> 0.37677048E+03</totfact>
</mgrwt>
</event>
<event>
 4    1  0.4319182E+000  0.2094260E+03  0.7546771E-02  0.1142021E+00
         21   -1    0    0  503  502  0.00000000000E+00  0.00000000000E+00  0.12543804015E+04  0.12543804015E+04  0.00000000000E+00 0. -1.
         21   -1    0    0  501  503 -0.00000000000E+00 -0.00000000000E+00 -0.42647102791E+02  0.42647102791E+02  0.00000000000E+00 0. -1.
          6    1    1    2  501    0 -0.21122763765E+02 -0.11612087827E+03  0.33062220349E+03  0.39136973690E+03  0.17300000000E+03 0.  1.
         -6    1    1    2    0  502  0.21122763765E+02  0.11612087827E+03  0.88111109518E+03  0.90565776735E+03  0.17300000000E+03 0.  1.
<mgrwt>
<rscale>  2 0.20942595E+03</rscale>
<asrwt>0</asrwt>
<pdfrwt beam="1">  1       21 0.19298157E+00 0.20942595E+03</pdfrwt>
<pdfrwt beam="2">  1       21 0.65610937E-02 0.20942595E+03</pdfrwt>
<totfact> 0.24918179E+04</totfact>
</mgrwt>
</event>
<event>
 4    1  0.4319182E+000  0.3422759E+03  0.7546771E-02  0.1065831E+00
         21   -1    0    0  503  502  0.00000000000E+00  0.00000000000E+00  0.21463741707E+03  0.21463741707E+03  0.00000000000E+00 0. -1.
         21   -1    0    0  501  503 -0.00000000000E+00 -0.00000000000E+00 -0.73809674066E+03  0.73809674066E+03  0.00000000000E+00 0.  1.
          6    1    1    2  501    0 -0.14772118191E+03  0.25573859108E+03 -0.50486704422E+03  0.60995369242E+03  0.17300000000E+03 0.  1.
         -6    1    1    2    0  502  0.14772118191E+03 -0.25573859108E+03 -0.18592279372E+02  0.34278046532E+03  0.17300000000E+03 0. -1.
<mgrwt>
<rscale>  2 0.34227587E+03</rscale>
<asrwt>0</asrwt>
<pdfrwt beam="1">  1       21 0.33021141E-01 0.34227587E+03</pdfrwt>
<pdfrwt beam="2">  1       21 0.11355334E+00 0.34227587E+03</pdfrwt>
<totfact> 0.48758968E+03</totfact>
</mgrwt>
</event>
<event>
 4    1  0.4319182E+000  0.2433625E+03  0.7546771E-02  0.1117573E+00
         21   -1    0    0  503  502  0.00000000000E+00  0.00000000000E+00  0.17921625924E+03  0.17921625924E+03  0.00000000000E+00 0.  1.
         21   -1    0    0  501  503 -0.00000000000E+00 -0.00000000000E+00 -0.69517533312E+03  0.69517533312E+03  0.00000000000E+00 0.  1.
          6    1    1    2  501    0 -0.88013921668E+02  0.14679862024E+03 -0.57464514136E+03  0.62405314181E+03  0.17300000000E+03 0.  1.
         -6    1    1    2    0  502  0.88013921668E+02 -0.14679862024E+03  0.58686067479E+02  0.25033845056E+03  0.17300000000E+03 0.  1.
<mgrwt>
<rscale>  2 0.24336246E+03</rscale>
<asrwt>0</asrwt>
<pdfrwt beam="1">  1       21 0.27571732E-01 0.24336246E+03</pdfrwt>
<pdfrwt beam="2">  1       21 0.10695005E+00 0.24336246E+03</pdfrwt>
<totfact> 0.84802550E+03</totfact>
</mgrwt>
</event>
<event>
 4    1  0.4319182E+000  0.1972118E+03  0.7546771E-02  0.1152113E+00
         21   -1    0    0  503  502  0.00000000000E+00  0.00000000000E+00  0.25201764653E+03  0.25201764653E+03  0.00000000000E+00 0.  1.
         21   -1    0    0  501  503 -0.00000000000E+00 -0.00000000000E+00 -0.15943904639E+03  0.15943904639E+03  0.00000000000E+00 0.  1.
          6    1    1    2  501    0  0.65571519043E+02  0.68292425906E+02  0.94421975925E+01  0.19743767280E+03  0.17300000000E+03 0.  1.
         -6    1    1    2    0  502 -0.65571519043E+02 -0.68292425906E+02  0.83136402542E+02  0.21401902012E+03  0.17300000000E+03 0.  1.
<mgrwt>
<rscale>  2 0.19721176E+03</rscale>
<asrwt>0</asrwt>
<pdfrwt beam="1">  1       21 0.38771946E-01 0.19721176E+03</pdfrwt>
<pdfrwt beam="2">  1       21 0.24529084E-01 0.19721176E+03</pdfrwt>
<totfact> 0.10056138E+05</totfact>
</mgrwt>
</event>
<event>
 4    1  0.4319182E+000  0.3068927E+03  0.7546771E-02  0.1081845E+00
         21   -1    0    0  503  502  0.00000000000E+00  0.00000000000E+00  0.34419924851E+03  0.34419924851E+03  0.00000000000E+00 0.  1.
         21   -1    0    0  501  503 -0.00000000000E+00 -0.00000000000E+00 -0.43968344548E+03  0.43968344548E+03  0.00000000000E+00 0. -1.
          6    1    1    2  501    0 -0.19185263233E+03  0.16567042160E+03  0.19312385819E+03  0.36260163503E+03  0.17300000000E+03 0.  1.
         -6    1    1    2    0  502  0.19185263233E+03 -0.16567042160E+03 -0.28860805517E+03  0.42128105895E+03  0.17300000000E+03 0. -1.
<mgrwt>
<rscale>  2 0.30689269E+03</rscale>
<asrwt>0</asrwt>
<pdfrwt beam="1">  1       21 0.52953731E-01 0.30689269E+03</pdfrwt>
<pdfrwt beam="2">  1       21 0.67643607E-01 0.30689269E+03</pdfrwt>
<totfact> 0.63020630E+03</totfact>
</mgrwt>
</event>
<event>
 4    1  0.4319182E+000  0.2882206E+03  0.7546771E-02  0.1091282E+00
         21   -1    0    0  503  502  0.00000000000E+00  0.00000000000E+00  0.67082942049E+03  0.67082942049E+03  0.00000000000E+00 0. -1.
         21   -1    0    0  501  503 -0.00000000000E+00 -0.00000000000E+00 -0.15813868672E+03  0.15813868672E+03  0.00000000000E+00 0.  1.
          6    1    1    2  501    0  0.14988924728E+03  0.17514377814E+03  0.63295770597E+02  0.29508894260E+03  0.17300000000E+03 0.  1.
         -6    1    1    2    0  502 -0.14988924728E+03 -0.17514377814E+03  0.44939496318E+03  0.53387916461E+03  0.17300000000E+03 0. -1.
<mgrwt>
<rscale>  2 0.28822063E+03</rscale>
<asrwt>0</asrwt>
<pdfrwt beam="1">  1       21 0.10320452E+00 0.28822063E+03</pdfrwt>
<pdfrwt beam="2">  1       21 0.24329029E-01 0.28822063E+03</pdfrwt>
<totfact> 0.11494781E+04</totfact>
</mgrwt>
</event>
<event>
 4    1  0.4319182E+000  0.1894189E+03  0.7546771E-02  0.1158986E+00
         21   -1    0    0  501  502  0.00000000000E+00  0.00000000000E+00  0.16009812250E+04  0.16009812250E+04  0.00000000000E+00 0. -1.
         21   -1    0    0  502  503 -0.00000000000E+00 -0.00000000000E+00 -0.26554465957E+02  0.26554465957E+02  0.00000000000E+00 0. -1.
          6    1    1    2  501    0  0.68745855648E+02  0.34993282721E+02  0.11086651665E+04  0.11247301782E+04  0.17300000000E+03 0. -1.
         -6    1    1    2    0  503 -0.68745855648E+02 -0.34993282721E+02  0.46576159262E+03  0.50280551277E+03  0.17300000000E+03 0. -1.
<mgrwt>
<rscale>  2 0.18941891E+03</rscale>
<asrwt>0</asrwt>
<pdfrwt beam="1">  1       21 0.24630473E+00 0.18941891E+03</pdfrwt>
<pdfrwt beam="2">  1       21 0.40853037E-02 0.18941891E+03</pdfrwt>
<totfact> 0.26514397E+04</totfact>
</mgrwt>
</event>
<event>
 4    1  0.4319182E+000  0.2584082E+03  0.7546771E-02  0.1108103E+00
         21   -1    0    0  503  502  0.00000000000E+00  0.00000000000E+00  0.12999578765E+03  0.12999578765E+03  0.00000000000E+00 0. -1.
         21   -1    0    0  501  503 -0.00000000000E+00 -0.00000000000E+00 -0.14584688812E+04  0.14584688812E+04  0.00000000000E+00 0. -1.
          6    1    1    2  501    0  0.18569845515E+03  0.48599317487E+02 -0.13034838268E+04  0.13288509686E+04  0.17300000000E+03 0. -1.
         -6    1    1    2    0  502 -0.18569845515E+03 -0.48599317487E+02 -0.24989266704E+02  0.25961370025E+03  0.17300000000E+03 0. -1.
<mgrwt>
<rscale>  2 0.25840822E+03</rscale>
<asrwt>0</asrwt>
<pdfrwt beam="1">  1       21 0.19999352E-01 0.25840822E+03</pdfrwt>
<pdfrwt beam="2">  1       21 0.22437982E+00 0.25840822E+03</pdfrwt>
<totfact> 0.20515995E+03</totfact>
</mgrwt>
</event>
<event>
 4    1  0.4319182E+000  0.2028142E+03  0.7546771E-02  0.1147386E+00
         21   -1    0    0  501  502  0.00000000000E+00  0.00000000000E+00  0.17660192553E+03  0.17660192553E+03  0.00000000000E+00 0. -1.
         21   -1    0    0  502  503 -0.00000000000E+00 -0.00000000000E+00 -0.26026875484E+03  0.26026875484E+03  0.00000000000E+00 0. -1.
          6    1    1    2  501    0  0.12000236729E+02 -0.10516943055E+03  0.28978021007E+02  0.20487396249E+03  0.17300000000E+03 0. -1.
         -6    1    1    2    0  503 -0.12000236729E+02  0.10516943055E+03 -0.11264485032E+03  0.23199671788E+03  0.17300000000E+03 0. -1.
<mgrwt>
<rscale>  2 0.20281424E+03</rscale>
<asrwt>0</asrwt>
<pdfrwt beam="1">  1       21 0.27169527E-01 0.20281424E+03</pdfrwt>
<pdfrwt beam="2">  1       21 0.40041347E-01 0.20281424E+03</pdfrwt>
<totfact> 0.77276026E+04</totfact>
</mgrwt>
</event>
<event>
 4    1  0.4319182E+000  0.1996947E+03  0.7546771E-02  0.1149997E+00
         21   -1    0    0  503  502  0.00000000000E+00  0.00000000000E+00  0.53128547688E+02  0.53128547688E+02  0.00000000000E+00 0.  1.
         21   -1    0    0  501  503 -0.00000000000E+00 -0.00000000000E+00 -0.87462429974E+03  0.87462429974E+03  0.00000000000E+00 0. -1.
          6    1    1    2  501    0  0.94805825469E+02 -0.30997461878E+02 -0.58543256143E+03  0.61855417804E+03  0.17300000000E+03 0. -1.
         -6    1    1    2    0  502 -0.94805825469E+02  0.30997461878E+02 -0.23606319062E+03  0.30919866939E+03  0.17300000000E+03 0. -1.
<mgrwt>
<rscale>  2 0.19969473E+03</rscale>
<asrwt>0</asrwt>
<pdfrwt beam="1">  1       21 0.81736221E-02 0.19969473E+03</pdfrwt>
<pdfrwt beam="2">  1       21 0.13455759E+00 0.19969473E+03</pdfrwt>
<totfact> 0.45611364E+04</totfact>
</mgrwt>
</event>
<event>
 4    1  0.4319182E+000  0.1956292E+03  0.7546771E-02  0.1153480E+00
         21   -1    0    0  501  502  0.00000000000E+00  0.00000000000E+00  0.48393460104E+03  0.48393460104E+03  0.00000000000E+00 0. -1.
         21   -1    0    0  502  503 -0.00000000000E+00 -0.00000000000E+00 -0.10662897569E+03  0.10662897569E+03  0.00000000000E+00 0. -1.
          6    1    1    2  501    0 -0.80725643571E+02 -0.42721624729E+02  0.33873595851E+03  0.39116852678E+03  0.17300000000E+03 0. -1.
         -6    1    1    2    0  503  0.80725643571E+02  0.42721624729E+02  0.38569666833E+02  0.19939504996E+03  0.17300000000E+03 0. -1.
<mgrwt>
<rscale>  2 0.19562916E+03</rscale>
<asrwt>0</asrwt>
<pdfrwt beam="1">  1       21 0.74451476E-01 0.19562916E+03</pdfrwt>
<pdfrwt beam="2">  1       21 0.16404458E-01 0.19562916E+03</pdfrwt>
<totfact> 0.53757001E+04</totfact>
</mgrwt>
</event>
<event>
 4    1  0.4319182E+000  0.1780006E+03  0.7546771E-02  0.1169752E+00
         21   -1    0    0  501  502  0.00000000000E+00  0.00000000000E+00  0.87993596939E+03  0.87993596939E+03  0.00000000000E+00 0. -1.
         21   -1    0    0  502  503 -0.00000000000E+00 -0.00000000000E+00 -0.36621461577E+02  0.36621461577E+02  0.00000000000E+00 0. -1.
          6    1    1    2  501    0 -0.64357639670E+01 -0.41398006731E+02  0.36231490126E+03  0.40367846326E+03  0.17300000000E+03 0. -1.
         -6    1    1    2    0  503  0.64357639670E+01  0.41398006731E+02  0.48099960655E+03  0.51287896771E+03  0.17300000000E+03 0. -1.
<mgrwt>
<rscale>  2 0.17800060E+03</rscale>
<asrwt>0</asrwt>
<pdfrwt beam="1">  1       21 0.13537475E+00 0.17800060E+03</pdfrwt>
<pdfrwt beam="2">  1       21 0.56340717E-02 0.17800060E+03</pdfrwt>
<totfact> 0.86241957E+04</totfact>
</mgrwt>
</event>
<event>
 4    1  0.4319182E+000  0.2906774E+03  0.7546771E-02  0.1089996E+00
         21   -1    0    0  501  502  0.00000000000E+00  0.00000000000E+00  0.17946060882E+03  0.17946060882E+03  0.00000000000E+00 0.  1.
         21   -1    0    0  502  503 -0.00000000000E+00 -0.00000000000E+00 -0.70802282321E+03  0.70802282321E+03  0.00000000000E+00 0.  1.
          6    1    1    2  501    0 -0.41625149106E+02 -0.22985145896E+03 -0.74379055851E+01  0.29077253767E+03  0.17300000000E+03 0.  1.
         -6    1    1    2    0  503  0.41625149106E+02  0.22985145896E+03 -0.52112430881E+03  0.59671089436E+03  0.17300000000E+03 0.  1.
<mgrwt>
<rscale>  2 0.29067739E+03</rscale>
<asrwt>0</asrwt>
<pdfrwt beam="1">  1       21 0.27609325E-01 0.29067739E+03</pdfrwt>
<pdfrwt beam="2">  1       21 0.10892659E+00 0.29067739E+03</pdfrwt>
<totfact> 0.78819782E+03</totfact>
</mgrwt>
</event>
<event>
 4    1  0.4319182E+000  0.1874926E+03  0.7546771E-02  0.1160742E+00
         21   -1    0    0  501  502  0.00000000000E+00  0.00000000000E+00  0.23380962051E+04  0.23380962051E+04  0.00000000000E+00 0. -1.
         21   -1    0    0  502  503 -0.00000000000E+00 -0.00000000000E+00 -0.16720710832E+02  0.16720710832E+02  0.00000000000E+00 0. -1.
          6    1    1    2  501    0  0.66589602766E+02  0.28112249485E+02  0.15345231695E+04  0.15459349377E+04  0.17300000000E+03 0. -1.
         -6    1    1    2    0  503 -0.66589602766E+02 -0.28112249485E+02  0.78685232472E+03  0.80888197822E+03  0.17300000000E+03 0. -1.
<mgrwt>
<rscale>  2 0.18749260E+03</rscale>
<asrwt>0</asrwt>
<pdfrwt beam="1">  1       21 0.35970685E+00 0.18749260E+03</pdfrwt>
<pdfrwt beam="2">  1       21 0.25724189E-02 0.18749260E+03</pdfrwt>
<totfact> 0.12568025E+04</totfact>
</mgrwt>
</event>
<event>
 4    1  0.4319182E+000  0.2534134E+03  0.7546771E-02  0.1111166E+00
         21   -1    0    0  501  502  0.00000000000E+00  0.00000000000E+00  0.34464605162E+03  0.34464605162E+03  0.00000000000E+00 0. -1.
         21   -1    0    0  502  503 -0.00000000000E+00 -0.00000000000E+00 -0.19222539173E+03  0.19222539173E+03  0.00000000000E+00 0.  1.
          6    1    1    2  501    0  0.16331514517E+03  0.87278371181E+02  0.12321521139E+03  0.28178065767E+03  0.17300000000E+03 0. -1.
         -6    1    1    2    0  503 -0.16331514517E+03 -0.87278371181E+02  0.29205448491E+02  0.25509078568E+03  0.17300000000E+03 0.  1.
<mgrwt>
<rscale>  2 0.25341340E+03</rscale>
<asrwt>0</asrwt>
<pdfrwt beam="1">  1       21 0.53022469E-01 0.25341340E+03</pdfrwt>
<pdfrwt beam="2">  1       21 0.29573137E-01 0.25341340E+03</pdfrwt>
<totfact> 0.35867392E+04</totfact>
</mgrwt>
</event>
<event>
 4    1  0.4319182E+000  0.1921172E+03  0.7546771E-02  0.1156566E+00
         21   -1    0    0  503  502  0.00000000000E+00  0.00000000000E+00  0.27056505485E+04  0.27056505485E+04  0.00000000000E+00 0. -1.
         21   -1    0    0  501  503 -0.00000000000E+00 -0.00000000000E+00 -0.13657531086E+02  0.13657531086E+02  0.00000000000E+00 0. -1.
          6    1    1    2  501    0 -0.17615458889E+02 -0.81668265014E+02  0.12993484066E+04  0.13134745112E+04  0.17300000000E+03 0. -1.
         -6    1    1    2    0  502  0.17615458889E+02  0.81668265014E+02  0.13926446108E+04  0.14058335684E+04  0.17300000000E+03 0. -1.
<mgrwt>
<rscale>  2 0.19211718E+03</rscale>
<asrwt>0</asrwt>
<pdfrwt beam="1">  1       21 0.41625350E+00 0.19211718E+03</pdfrwt>
<pdfrwt beam="2">  1       21 0.21011608E-02 0.19211718E+03</pdfrwt>
<totfact> 0.78267012E+03</totfact>
</mgrwt>
</event>
<event>
 4    1  0.4319182E+000  0.3683112E+03  0.7546771E-02  0.1055341E+00
         21   -1    0    0  503  502  0.00000000000E+00  0.00000000000E+00  0.31543814569E+03  0.31543814569E+03  0.00000000000E+00 0.  1.
         21   -1    0    0  501  503 -0.00000000000E+00 -0.00000000000E+00 -0.44987054429E+03  0.44987054429E+03  0.00000000000E+00 0. -1.
          6    1    1    2  501    0 -0.20951588497E+02  0.32447682071E+03  0.13109650409E+02  0.36854448737E+03  0.17300000000E+03 0.  1.
         -6    1    1    2    0  502  0.20951588497E+02 -0.32447682071E+03 -0.14754204901E+03  0.39676420260E+03  0.17300000000E+03 0. -1.
<mgrwt>
<rscale>  2 0.36831125E+03</rscale>
<asrwt>0</asrwt>
<pdfrwt beam="1">  1       21 0.48528945E-01 0.36831125E+03</pdfrwt>
<pdfrwt beam="2">  1       21 0.69210853E-01 0.36831125E+03</pdfrwt>
<totfact> 0.70170991E+03</totfact>
</mgrwt>
</event>
<event>
 4    1  0.4319182E+000  0.1800919E+03  0.7546771E-02  0.1167714E+00
         21   -1    0    0  501  502  0.00000000000E+00  0.00000000000E+00  0.95601597348E+02  0.95601597348E+02  0.00000000000E+00 0. -1.
         21   -1    0    0  502  503 -0.00000000000E+00 -0.00000000000E+00 -0.62703431311E+03  0.62703431311E+03  0.00000000000E+00 0. -1.
          6    1    1    2  501    0  0.39336353065E+02  0.30931111962E+02 -0.20936571812E+02  0.18130477765E+03  0.17300000000E+03 0. -1.
         -6    1    1    2    0  503 -0.39336353065E+02 -0.30931111962E+02 -0.51049614395E+03  0.54133113281E+03  0.17300000000E+03 0. -1.
<mgrwt>
<rscale>  2 0.18009187E+03</rscale>
<asrwt>0</asrwt>
<pdfrwt beam="1">  1       21 0.14707938E-01 0.18009187E+03</pdfrwt>
<pdfrwt beam="2">  1       21 0.96466818E-01 0.18009187E+03</pdfrwt>
<totfact> 0.36579259E+04</totfact>
</mgrwt>
</event>
<event>
 4    1  0.4319182E+000  0.2410063E+03  0.7546771E-02  0.1119124E+00
         21   -1    0    0  501  502  0.00000000000E+00  0.00000000000E+00  0.16916784357E+03  0.16916784357E+03  0.00000000000E+00 0. -1.
         21   -1    0    0  502  503 -0.00000000000E+00 -0.00000000000E+00 -0.37131013387E+03  0.37131013387E+03  0.00000000000E+00 0.  1.
          6    1    1    2  501    0  0.10957888457E+03 -0.12707282269E+03 -0.26916644195E+02  0.24250472149E+03  0.17300000000E+03 0. -1.
         -6    1    1    2    0  503 -0.10957888457E+03  0.12707282269E+03 -0.17522564611E+03  0.29797325595E+03  0.17300000000E+03 0.  1.
<mgrwt>
<rscale>  2 0.24100629E+03</rscale>
<asrwt>0</asrwt>
<pdfrwt beam="1">  1       21 0.26025822E-01 0.24100629E+03</pdfrwt>
<pdfrwt beam="2">  1       21 0.57124635E-01 0.24100629E+03</pdfrwt>
<totfact> 0.39437868E+04</totfact>
</mgrwt>
</event>
<event>
 4    1  0.4319182E+000  0.2694287E+03  0.7546771E-02  0.1101607E+00
         21   -1    0    0  501  502  0.00000000000E+00  0.00000000000E+00  0.17883773498E+03  0.17883773498E+03  0.00000000000E+00 0.  1.
         21   -1    0    0  502  503 -0.00000000000E+00 -0.00000000000E+00 -0.52247225877E+03  0.52247225877E+03  0.00000000000E+00 0. -1.
          6    1    1    2  501    0  0.20642020626E+03 -0.73145238461E+01 -0.61908110953E+01  0.26949977728E+03  0.17300000000E+03 0.  1.
         -6    1    1    2    0  503 -0.20642020626E+03  0.73145238461E+01 -0.33744371270E+03  0.43181021647E+03  0.17300000000E+03 0. -1.
<mgrwt>
<rscale>  2 0.26942866E+03</rscale>
<asrwt>0</asrwt>
<pdfrwt beam="1">  1       21 0.27513497E-01 0.26942866E+03</pdfrwt>
<pdfrwt beam="2">  1       21 0.80380348E-01 0.26942866E+03</pdfrwt>
<totfact> 0.16438664E+04</totfact>
</mgrwt>
</event>
<event>
 4    1  0.4319182E+000  0.1930218E+03  0.7546771E-02  0.1155764E+00
         21   -1    0    0  503  502  0.00000000000E+00  0.00000000000E+00  0.47554234102E+02  0.47554234102E+02  0.00000000000E+00 0. -1.
         21   -1    0    0  501  503 -0.00000000000E+00 -0.00000000000E+00 -0.78657821761E+03  0.78657821761E+03  0.00000000000E+00 0. -1.
          6    1    1    2  501    0 -0.68108037206E+02 -0.51862490832E+02 -0.34330406448E+03  0.39384654801E+03  0.17300000000E+03 0. -1.
         -6    1    1    2    0  502  0.68108037206E+02  0.51862490832E+02 -0.39571991902E+03  0.44028590370E+03  0.17300000000E+03 0. -1.
<mgrwt>
<rscale>  2 0.19302182E+03</rscale>
<asrwt>0</asrwt>
<pdfrwt beam="1">  1       21 0.73160363E-02 0.19302182E+03</pdfrwt>
<pdfrwt beam="2">  1       21 0.12101203E+00 0.19302182E+03</pdfrwt>
<totfact> 0.72474425E+04</totfact>
</mgrwt>
</event>
<event>
 4    1  0.4319182E+000  0.1984526E+03  0.7546771E-02  0.1151051E+00
         21   -1    0    0  501  502  0.00000000000E+00  0.00000000000E+00  0.64920932579E+03  0.64920932579E+03  0.00000000000E+00 0.  1.
         21   -1    0    0  502  503 -0.00000000000E+00 -0.00000000000E+00 -0.82447530208E+02  0.82447530208E+02  0.00000000000E+00 0.  1.
          6    1    1    2  501    0  0.50682294316E+02 -0.82980447659E+02  0.47142321560E+03  0.51149124905E+03  0.17300000000E+03 0.  1.
         -6    1    1    2    0  503 -0.50682294316E+02  0.82980447659E+02  0.95338579990E+02  0.22016560695E+03  0.17300000000E+03 0.  1.
<mgrwt>
<rscale>  2 0.19845264E+03</rscale>
<asrwt>0</asrwt>
<pdfrwt beam="1">  1       21 0.99878354E-01 0.19845264E+03</pdfrwt>
<pdfrwt beam="2">  1       21 0.12684236E-01 0.19845264E+03</pdfrwt>
<totfact> 0.43609321E+04</totfact>
</mgrwt>
</event>
<event>
 4    1  0.4319182E+000  0.2055837E+03  0.7546771E-02  0.1145112E+00
         21   -1    0    0  501  502  0.00000000000E+00  0.00000000000E+00  0.10179318016E+04  0.10179318016E+04  0.00000000000E+00 0.  1.
         21   -1    0    0  502  503 -0.00000000000E+00 -0.00000000000E+00 -0.41544935365E+02  0.41544935365E+02  0.00000000000E+00 0. -1.
          6    1    1    2  501    0 -0.75403092989E+02 -0.81547785781E+02  0.47525104465E+03  0.51781099181E+03  0.17300000000E+03 0.  1.
         -6    1    1    2    0  503  0.75403092989E+02  0.81547785781E+02  0.50113582156E+03  0.54166574513E+03  0.17300000000E+03 0.  1.
<mgrwt>
<rscale>  2 0.20558372E+03</rscale>
<asrwt>0</asrwt>
<pdfrwt beam="1">  1       21 0.15660487E+00 0.20558372E+03</pdfrwt>
<pdfrwt beam="2">  1       21 0.63915293E-02 0.20558372E+03</pdfrwt>
<totfact> 0.46817887E+04</totfact>
</mgrwt>
</event>
<event>
 4    1  0.4319182E+000  0.2515248E+03  0.7546771E-02  0.1112345E+00
         21   -1    0    0  501  502  0.00000000000E+00  0.00000000000E+00  0.44136330036E+03  0.44136330036E+03  0.00000000000E+00 0.  1.
         21   -1    0    0  502  503 -0.00000000000E+00 -0.00000000000E+00 -0.18075611676E+03  0.18075611676E+03  0.00000000000E+00 0. -1.
          6    1    1    2  501    0 -0.18249823649E+03  0.54865046885E+01 -0.11220591622E+02  0.25177491879E+03  0.17300000000E+03 0. -1.
         -6    1    1    2    0  503  0.18249823649E+03 -0.54865046885E+01  0.27182777522E+03  0.37034449832E+03  0.17300000000E+03 0.  1.
<mgrwt>
<rscale>  2 0.25152477E+03</rscale>
<asrwt>0</asrwt>
<pdfrwt beam="1">  1       21 0.67902046E-01 0.25152477E+03</pdfrwt>
<pdfrwt beam="2">  1       21 0.27808633E-01 0.25152477E+03</pdfrwt>
<totfact> 0.23710602E+04</totfact>
</mgrwt>
</event>
<event>
 4    1  0.4319182E+000  0.1894173E+03  0.7546771E-02  0.1158988E+00
         21   -1    0    0  503  502  0.00000000000E+00  0.00000000000E+00  0.77425684901E+03  0.77425684901E+03  0.00000000000E+00 0.  1.
         21   -1    0    0  501  503 -0.00000000000E+00 -0.00000000000E+00 -0.71266433938E+02  0.71266433938E+02  0.00000000000E+00 0.  1.
          6    1    1    2  501    0  0.76997564845E+02 -0.46124871779E+01  0.10146932791E+03  0.21488351388E+03  0.17300000000E+03 0.  1.
         -6    1    1    2    0  502 -0.76997564845E+02  0.46124871779E+01  0.60152108717E+03  0.63063976907E+03  0.17300000000E+03 0.  1.
<mgrwt>
<rscale>  2 0.18941726E+03</rscale>
<asrwt>0</asrwt>
<pdfrwt beam="1">  1       21 0.11911643E+00 0.18941726E+03</pdfrwt>
<pdfrwt beam="2">  1       21 0.10964067E-01 0.18941726E+03</pdfrwt>
<totfact> 0.37143251E+04</totfact>
</mgrwt>
</event>
<event>
 4    1  0.4319182E+000  0.1892784E+03  0.7546771E-02  0.1159114E+00
         21   -1    0    0  503  502  0.00000000000E+00  0.00000000000E+00  0.25124095653E+02  0.25124095653E+02  0.00000000000E+00 0.  1.
         21   -1    0    0  501  503 -0.00000000000E+00 -0.00000000000E+00 -0.14848312556E+04  0.14848312556E+04  0.00000000000E+00 0.  1.
          6    1    1    2  501    0  0.48249867330E+02  0.59743370293E+02 -0.88016558969E+03  0.90028761252E+03  0.17300000000E+03 0. -1.
         -6    1    1    2    0  502 -0.48249867330E+02 -0.59743370293E+02 -0.57954157028E+03  0.60966773875E+03  0.17300000000E+03 0. -1.
<mgrwt>
<rscale>  2 0.18927842E+03</rscale>
<asrwt>0</asrwt>
<pdfrwt beam="1">  1       21 0.38652437E-02 0.18927842E+03</pdfrwt>
<pdfrwt beam="2">  1       21 0.22843568E+00 0.18927842E+03</pdfrwt>
<totfact> 0.37187082E+04</totfact>
</mgrwt>
</event>
<event>
 4    1  0.4319182E+000  0.1852380E+03  0.7546771E-02  0.1162828E+00
         21   -1    0    0  501  502  0.00000000000E+00  0.00000000000E+00  0.23911692788E+03  0.23911692788E+03  0.00000000000E+00 0.  1.
         21   -1    0    0  502  503 -0.00000000000E+00 -0.00000000000E+00 -0.26508475943E+03  0.26508475943E+03  0.00000000000E+00 0. -1.
          6    1    1    2  501    0 -0.95723953771E+01 -0.65517011554E+02  0.15775116169E+03  0.24330749797E+03  0.17300000000E+03 0.  1.
         -6    1    1    2    0  503  0.95723953771E+01  0.65517011554E+02 -0.18371899323E+03  0.26089418934E+03  0.17300000000E+03 0. -1.
<mgrwt>
<rscale>  2 0.18523798E+03</rscale>
<asrwt>0</asrwt>
<pdfrwt beam="1">  1       21 0.36787220E-01 0.18523798E+03</pdfrwt>
<pdfrwt beam="2">  1       21 0.40782271E-01 0.18523798E+03</pdfrwt>
<totfact> 0.41428002E+04</totfact>
</mgrwt>
</event>
<event>
 4    1  0.4319182E+000  0.2106261E+03  0.7546771E-02  0.1141071E+00
         21   -1    0    0  501  502  0.00000000000E+00  0.00000000000E+00  0.53015264497E+02  0.53015264497E+02  0.00000000000E+00 0. -1.
         21   -1    0    0  502  503 -0.00000000000E+00 -0.00000000000E+00 -0.94647984506E+03  0.94647984506E+03  0.00000000000E+00 0. -1.
          6    1    1    2  501    0  0.58922986629E+02 -0.10470174254E+03 -0.27661402675E+03  0.34767613239E+03  0.17300000000E+03 0. -1.
         -6    1    1    2    0  503 -0.58922986629E+02  0.10470174254E+03 -0.61685055381E+03  0.65181897716E+03  0.17300000000E+03 0. -1.
<mgrwt>
<rscale>  2 0.21062615E+03</rscale>
<asrwt>0</asrwt>
<pdfrwt beam="1">  1       21 0.81561952E-02 0.21062615E+03</pdfrwt>
<pdfrwt beam="2">  1       21 0.14561227E+00 0.21062615E+03</pdfrwt>
<totfact> 0.37093086E+04</totfact>
</mgrwt>
</event>
<event>
 4    1  0.4319182E+000  0.1799428E+03  0.7546771E-02  0.1167858E+00
         21   -1    0    0  503  502  0.00000000000E+00  0.00000000000E+00  0.55941096602E+02  0.55941096602E+02  0.00000000000E+00 0. -1.
         21   -1    0    0  501  503 -0.00000000000E+00 -0.00000000000E+00 -0.59701605987E+03  0.59701605987E+03  0.00000000000E+00 0.  1.
          6    1    1    2  501    0  0.35297504470E+02 -0.34705867864E+02 -0.21352909409E+03  0.27923840192E+03  0.17300000000E+03 0. -1.
         -6    1    1    2    0  502 -0.35297504470E+02  0.34705867864E+02 -0.32754586918E+03  0.37371875455E+03  0.17300000000E+03 0.  1.
<mgrwt>
<rscale>  2 0.17994280E+03</rscale>
<asrwt>0</asrwt>
<pdfrwt beam="1">  1       21 0.86063220E-02 0.17994280E+03</pdfrwt>
<pdfrwt beam="2">  1       21 0.91848630E-01 0.17994280E+03</pdfrwt>
<totfact> 0.10640704E+05</totfact>
</mgrwt>
</event>
<event>
 4    1  0.4319182E+000  0.1870045E+03  0.7546771E-02  0.1161191E+00
         21   -1    0    0  503  502  0.00000000000E+00  0.00000000000E+00  0.17653208304E+03  0.17653208304E+03  0.00000000000E+00 0. -1.
         21   -1    0    0  501  503 -0.00000000000E+00 -0.00000000000E+00 -0.19880846431E+03  0.19880846431E+03  0.00000000000E+00 0. -1.
          6    1    1    2  501    0  0.62357090479E+02  0.33959952295E+02  0.79227162128E-01  0.18700452232E+03  0.17300000000E+03 0. -1.
         -6    1    1    2    0  502 -0.62357090479E+02 -0.33959952295E+02 -0.22355608430E+02  0.18833602502E+03  0.17300000000E+03 0. -1.
<mgrwt>
<rscale>  2 0.18700451E+03</rscale>
<asrwt>0</asrwt>
<pdfrwt beam="1">  1       21 0.27158782E-01 0.18700451E+03</pdfrwt>
<pdfrwt beam="2">  1       21 0.30585918E-01 0.18700451E+03</pdfrwt>
<totfact> 0.13285777E+05</totfact>
</mgrwt>
</event>
<event>
 4    1  0.4319182E+000  0.1976821E+03  0.7546771E-02  0.1151709E+00
         21   -1    0    0  503  502  0.00000000000E+00  0.00000000000E+00  0.38047507674E+03  0.38047507674E+03  0.00000000000E+00 0. -1.
         21   -1    0    0  501  503 -0.00000000000E+00 -0.00000000000E+00 -0.11905032483E+03  0.11905032483E+03  0.00000000000E+00 0. -1.
          6    1    1    2  501    0  0.80311830396E+02 -0.51954171838E+02  0.38177483974E+02  0.20133491092E+03  0.17300000000E+03 0. -1.
         -6    1    1    2    0  502 -0.80311830396E+02  0.51954171838E+02  0.22324726793E+03  0.29819049065E+03  0.17300000000E+03 0. -1.
<mgrwt>
<rscale>  2 0.19768213E+03</rscale>
<asrwt>0</asrwt>
<pdfrwt beam="1">  1       21 0.58534627E-01 0.19768213E+03</pdfrwt>
<pdfrwt beam="2">  1       21 0.18315435E-01 0.19768213E+03</pdfrwt>
<totfact> 0.74117392E+04</totfact>
</mgrwt>
</event>
<event>
 4    1  0.4319182E+000  0.1896312E+03  0.7546771E-02  0.1158794E+00
         21   -1    0    0  503  502  0.00000000000E+00  0.00000000000E+00  0.53124423904E+03  0.53124423904E+03  0.00000000000E+00 0.  1.
         21   -1    0    0  501  503 -0.00000000000E+00 -0.00000000000E+00 -0.68650505581E+02  0.68650505581E+02  0.00000000000E+00 0.  1.
          6    1    1    2  501    0 -0.61778294799E+02  0.47057761490E+02  0.19582008939E+03  0.27259034839E+03  0.17300000000E+03 0.  1.
         -6    1    1    2    0  502  0.61778294799E+02 -0.47057761490E+02  0.26677364407E+03  0.32730439623E+03  0.17300000000E+03 0.  1.
<mgrwt>
<rscale>  2 0.18963120E+03</rscale>
<asrwt>0</asrwt>
<pdfrwt beam="1">  1       21 0.81729880E-01 0.18963120E+03</pdfrwt>
<pdfrwt beam="2">  1       21 0.10561617E-01 0.18963120E+03</pdfrwt>
<totfact> 0.96642062E+04</totfact>
</mgrwt>
</event>
<event>
 4    1  0.4319182E+000  0.1781522E+03  0.7546771E-02  0.1169603E+00
         21   -1    0    0  503  502  0.00000000000E+00  0.00000000000E+00  0.25850050681E+03  0.25850050681E+03  0.00000000000E+00 0.  1.
         21   -1    0    0  501  503 -0.00000000000E+00 -0.00000000000E+00 -0.12487861576E+03  0.12487861576E+03  0.00000000000E+00 0.  1.
          6    1    1    2  501    0 -0.15617396116E+02 -0.39563738232E+02  0.41949816388E+02  0.18302453262E+03  0.17300000000E+03 0. -1.
         -6    1    1    2    0  502  0.15617396116E+02  0.39563738232E+02  0.91672074655E+02  0.20035458995E+03  0.17300000000E+03 0. -1.
<mgrwt>
<rscale>  2 0.17815216E+03</rscale>
<asrwt>0</asrwt>
<pdfrwt beam="1">  1       21 0.39769309E-01 0.17815216E+03</pdfrwt>
<pdfrwt beam="2">  1       21 0.19212095E-01 0.17815216E+03</pdfrwt>
<totfact> 0.15232937E+05</totfact>
</mgrwt>
</event>
<event>
 4    1  0.4319182E+000  0.1833220E+03  0.7546771E-02  0.1164626E+00
         21   -1    0    0  503  502  0.00000000000E+00  0.00000000000E+00  0.54986437488E+03  0.54986437488E+03  0.00000000000E+00 0.  1.
         21   -1    0    0  501  503 -0.00000000000E+00 -0.00000000000E+00 -0.92383942788E+02  0.92383942788E+02  0.00000000000E+00 0.  1.
          6    1    1    2  501    0  0.82916640218E+01  0.60076732850E+02  0.41927679285E+02  0.18805556576E+03  0.17300000000E+03 0.  1.
         -6    1    1    2    0  502 -0.82916640218E+01 -0.60076732850E+02  0.41555275281E+03  0.45419275191E+03  0.17300000000E+03 0.  1.
<mgrwt>
<rscale>  2 0.18332203E+03</rscale>
<asrwt>0</asrwt>
<pdfrwt beam="1">  1       21 0.84594517E-01 0.18332203E+03</pdfrwt>
<pdfrwt beam="2">  1       21 0.14212915E-01 0.18332203E+03</pdfrwt>
<totfact> 0.52646056E+04</totfact>
</mgrwt>
</event>
<event>
 4    1  0.4319182E+000  0.2527405E+03  0.7546771E-02  0.1111585E+00
         21   -1    0    0  501  502  0.00000000000E+00  0.00000000000E+00  0.22074766124E+04  0.22074766124E+04  0.00000000000E+00 0. -1.
         21   -1    0    0  502  503 -0.00000000000E+00 -0.00000000000E+00 -0.30679411787E+02  0.30679411787E+02  0.00000000000E+00 0.  1.
          6    1    1    2  501    0  0.81832223024E+02  0.16508253714E+03  0.82170542247E+03  0.85969620105E+03  0.17300000000E+03 0.  1.
         -6    1    1    2    0  503 -0.81832223024E+02 -0.16508253714E+03  0.13550917782E+04  0.13784598232E+04  0.17300000000E+03 0.  1.
<mgrwt>
<rscale>  2 0.25274049E+03</rscale>
<asrwt>0</asrwt>
<pdfrwt beam="1">  1       21 0.33961166E+00 0.25274049E+03</pdfrwt>
<pdfrwt beam="2">  1       21 0.47199112E-02 0.25274049E+03</pdfrwt>
<totfact> 0.55937704E+03</totfact>
</mgrwt>
</event>
<event>
 4    1  0.4319182E+000  0.2076999E+03  0.7546771E-02  0.1143400E+00
         21   -1    0    0  501  502  0.00000000000E+00  0.00000000000E+00  0.19837791371E+03  0.19837791371E+03  0.00000000000E+00 0.  1.
         21   -1    0    0  502  503 -0.00000000000E+00 -0.00000000000E+00 -0.38639124299E+03  0.38639124299E+03  0.00000000000E+00 0. -1.
          6    1    1    2  501    0 -0.10945830898E+03  0.35059098592E+02  0.99321803179E+02  0.23022615487E+03  0.17300000000E+03 0.  1.
         -6    1    1    2    0  503  0.10945830898E+03 -0.35059098592E+02 -0.28733513247E+03  0.35454300183E+03  0.17300000000E+03 0. -1.
<mgrwt>
<rscale>  2 0.20769993E+03</rscale>
<asrwt>0</asrwt>
<pdfrwt beam="1">  1       21 0.30519680E-01 0.20769993E+03</pdfrwt>
<pdfrwt beam="2">  1       21 0.59444806E-01 0.20769993E+03</pdfrwt>
<totfact> 0.27011155E+04</totfact>
</mgrwt>
</event>
<event>
 4    1  0.4319182E+000  0.2127940E+03  0.7546771E-02  0.1139372E+00
         21   -1    0    0  503  502  0.00000000000E+00  0.00000000000E+00  0.11313116861E+03  0.11313116861E+03  0.00000000000E+00 0. -1.
         21   -1    0    0  501  503 -0.00000000000E+00 -0.00000000000E+00 -0.49064039485E+03  0.49064039485E+03  0.00000000000E+00 0. -1.
          6    1    1    2  501    0  0.11364952242E+03  0.49356379664E+02 -0.59182603565E+02  0.22087065609E+03  0.17300000000E+03 0. -1.
         -6    1    1    2    0  502 -0.11364952242E+03 -0.49356379664E+02 -0.31832662268E+03  0.38290090737E+03  0.17300000000E+03 0. -1.
<mgrwt>
<rscale>  2 0.21279395E+03</rscale>
<asrwt>0</asrwt>
<pdfrwt beam="1">  1       21 0.17404795E-01 0.21279395E+03</pdfrwt>
<pdfrwt beam="2">  1       21 0.75483136E-01 0.21279395E+03</pdfrwt>
<totfact> 0.46352639E+04</totfact>
</mgrwt>
</event>
<event>
 4    1  0.4319182E+000  0.1980764E+03  0.7546771E-02  0.1151372E+00
         21   -1    0    0  503  502  0.00000000000E+00  0.00000000000E+00  0.86015520776E+02  0.86015520776E+02  0.00000000000E+00 0. -1.
         21   -1    0    0  501  503 -0.00000000000E+00 -0.00000000000E+00 -0.70065972984E+03  0.70065972984E+03  0.00000000000E+00 0.  1.
          6    1    1    2  501    0 -0.56294108633E+02 -0.78334003232E+02 -0.53969096056E+03  0.57489179472E+03  0.17300000000E+03 0.  1.
         -6    1    1    2    0  502  0.56294108633E+02  0.78334003232E+02 -0.74953248505E+02  0.21178345589E+03  0.17300000000E+03 0. -1.
<mgrwt>
<rscale>  2 0.19807636E+03</rscale>
<asrwt>0</asrwt>
<pdfrwt beam="1">  1       21 0.13233157E-01 0.19807636E+03</pdfrwt>
<pdfrwt beam="2">  1       21 0.10779381E+00 0.19807636E+03</pdfrwt>
<totfact> 0.33660877E+04</totfact>
</mgrwt>
</event>
<event>
 4    1  0.4319182E+000  0.1791065E+03  0.7546771E-02  0.1168671E+00
         21   -1    0    0  501  502  0.00000000000E+00  0.00000000000E+00  0.67584892380E+02  0.67584892380E+02  0.00000000000E+00 0. -1.
         21   -1    0    0  502  503 -0.00000000000E+00 -0.00000000000E+00 -0.48050640755E+03  0.48050640755E+03  0.00000000000E+00 0. -1.
          6    1    1    2  501    0 -0.28547297791E+02 -0.36540468941E+02 -0.17620575156E+03  0.25125210639E+03  0.17300000000E+03 0. -1.
         -6    1    1    2    0  503  0.28547297791E+02  0.36540468941E+02 -0.23671576361E+03  0.29683919354E+03  0.17300000000E+03 0. -1.
<mgrwt>
<rscale>  2 0.17910654E+03</rscale>
<asrwt>0</asrwt>
<pdfrwt beam="1">  1       21 0.10397676E-01 0.17910654E+03</pdfrwt>
<pdfrwt beam="2">  1       21 0.73924061E-01 0.17910654E+03</pdfrwt>
<totfact> 0.12496903E+05</totfact>
</mgrwt>
</event>
<event>
 4    1  0.4319182E+000  0.1934832E+03  0.7546771E-02  0.1155357E+00
         21   -1    0    0  501  502  0.00000000000E+00  0.00000000000E+00  0.52190946470E+02  0.52190946470E+02  0.00000000000E+00 0. -1.
         21   -1    0    0  502  503 -0.00000000000E+00 -0.00000000000E+00 -0.88861727847E+03  0.88861727847E+03  0.00000000000E+00 0. -1.
          6    1    1    2  501    0 -0.74599082571E+02 -0.44065026517E+02 -0.21165891456E+03  0.28676688407E+03  0.17300000000E+03 0. -1.
         -6    1    1    2    0  503  0.74599082571E+02  0.44065026517E+02 -0.62476741744E+03  0.65404134087E+03  0.17300000000E+03 0. -1.
<mgrwt>
<rscale>  2 0.19348320E+03</rscale>
<asrwt>0</asrwt>
<pdfrwt beam="1">  1       21 0.80293761E-02 0.19348320E+03</pdfrwt>
<pdfrwt beam="2">  1       21 0.13671036E+00 0.19348320E+03</pdfrwt>
<totfact> 0.45343724E+04</totfact>
</mgrwt>
</event>
<event>
 4    1  0.4319182E+000  0.1998237E+03  0.7546771E-02  0.1149888E+00
         21   -1    0    0  501  502  0.00000000000E+00  0.00000000000E+00  0.12870309377E+03  0.12870309377E+03  0.00000000000E+00 0. -1.
         21   -1    0    0  502  503 -0.00000000000E+00 -0.00000000000E+00 -0.41518566296E+03  0.41518566296E+03  0.00000000000E+00 0.  1.
          6    1    1    2  501    0 -0.96638597099E+02  0.25719739104E+02 -0.65218363641E+01  0.19993013224E+03  0.17300000000E+03 0. -1.
         -6    1    1    2    0  503  0.96638597099E+02 -0.25719739104E+02 -0.27996073283E+03  0.34395862448E+03  0.17300000000E+03 0.  1.
<mgrwt>
<rscale>  2 0.19982373E+03</rscale>
<asrwt>0</asrwt>
<pdfrwt beam="1">  1       21 0.19800476E-01 0.19982373E+03</pdfrwt>
<pdfrwt beam="2">  1       21 0.63874719E-01 0.19982373E+03</pdfrwt>
<totfact> 0.53057696E+04</totfact>
</mgrwt>
</event>
<event>
 4    1  0.4319182E+000  0.1906548E+03  0.7546771E-02  0.1157872E+00
         21   -1    0    0  501  502  0.00000000000E+00  0.00000000000E+00  0.41542608108E+02  0.41542608108E+02  0.00000000000E+00 0.  1.
         21   -1    0    0  502  503 -0.00000000000E+00 -0.00000000000E+00 -0.89733793785E+03  0.89733793785E+03  0.00000000000E+00 0.  1.
          6    1    1    2  501    0  0.78294603659E+02  0.17035571730E+02 -0.35380981027E+03  0.40190874277E+03  0.17300000000E+03 0.  1.
         -6    1    1    2    0  503 -0.78294603659E+02 -0.17035571730E+02 -0.50198551947E+03  0.53697180319E+03  0.17300000000E+03 0.  1.
<mgrwt>
<rscale>  2 0.19065481E+03</rscale>
<asrwt>0</asrwt>
<pdfrwt beam="1">  1       21 0.63911704E-02 0.19065481E+03</pdfrwt>
<pdfrwt beam="2">  1       21 0.13805199E+00 0.19065481E+03</pdfrwt>
<totfact> 0.65711539E+04</totfact>
</mgrwt>
</event>
<event>
 4    1  0.4319182E+000  0.2328960E+03  0.7546771E-02  0.1124618E+00
         21   -1    0    0  501  502  0.00000000000E+00  0.00000000000E+00  0.67086291973E+03  0.67086291973E+03  0.00000000000E+00 0.  1.
         21   -1    0    0  502  503 -0.00000000000E+00 -0.00000000000E+00 -0.80891334021E+02  0.80891334021E+02  0.00000000000E+00 0.  1.
          6    1    1    2  501    0 -0.56680874444E+02  0.14525433000E+03  0.28668673680E+03  0.36936408457E+03  0.17300000000E+03 0.  1.
         -6    1    1    2    0  503  0.56680874444E+02 -0.14525433000E+03  0.30328484891E+03  0.38239016918E+03  0.17300000000E+03 0.  1.
<mgrwt>
<rscale>  2 0.23289599E+03</rscale>
<asrwt>0</asrwt>
<pdfrwt beam="1">  1       21 0.10320968E+00 0.23289599E+03</pdfrwt>
<pdfrwt beam="2">  1       21 0.12444821E-01 0.23289599E+03</pdfrwt>
<totfact> 0.41007670E+04</totfact>
</mgrwt>
</event>
<event>
 4    1  0.4319182E+000  0.2661130E+03  0.7546771E-02  0.1103525E+00
         21   -1    0    0  503  502  0.00000000000E+00  0.00000000000E+00  0.33914822108E+03  0.33914822108E+03  0.00000000000E+00 0. -1.
         21   -1    0    0  501  503 -0.00000000000E+00 -0.00000000000E+00 -0.51326945470E+03  0.51326945470E+03  0.00000000000E+00 0. -1.
          6    1    1    2  501    0  0.19852123436E+03 -0.38424589285E+02 -0.41532021989E+03  0.49326160868E+03  0.17300000000E+03 0. -1.
         -6    1    1    2    0  502 -0.19852123436E+03  0.38424589285E+02  0.24119898627E+03  0.35915606709E+03  0.17300000000E+03 0. -1.
<mgrwt>
<rscale>  2 0.26611300E+03</rscale>
<asrwt>0</asrwt>
<pdfrwt beam="1">  1       21 0.52176649E-01 0.26611300E+03</pdfrwt>
<pdfrwt beam="2">  1       21 0.78964532E-01 0.26611300E+03</pdfrwt>
<totfact> 0.46939206E+03</totfact>
</mgrwt>
</event>
<event>
 4    1  0.4319182E+000  0.2024015E+03  0.7546771E-02  0.1147729E+00
         21   -1    0    0  501  502  0.00000000000E+00  0.00000000000E+00  0.42841418817E+03  0.42841418817E+03  0.00000000000E+00 0. -1.
         21   -1    0    0  502  503 -0.00000000000E+00 -0.00000000000E+00 -0.57294912835E+03  0.57294912835E+03  0.00000000000E+00 0.  1.
          6    1    1    2  501    0  0.62661380727E+02 -0.84326296567E+02  0.38472718819E+03  0.43471988943E+03  0.17300000000E+03 0. -1.
         -6    1    1    2    0  503 -0.62661380727E+02  0.84326296567E+02 -0.52926212838E+03  0.56664342709E+03  0.17300000000E+03 0.  1.
<mgrwt>
<rscale>  2 0.20240151E+03</rscale>
<asrwt>0</asrwt>
<pdfrwt beam="1">  1       21 0.65909875E-01 0.20240151E+03</pdfrwt>
<pdfrwt beam="2">  1       21 0.88146020E-01 0.20240151E+03</pdfrwt>
<totfact> 0.23108518E+03</totfact>
</mgrwt>
</event>
<event>
 4    1  0.4319182E+000  0.1781461E+03  0.7546771E-02  0.1169609E+00
         21   -1    0    0  501  502  0.00000000000E+00  0.00000000000E+00  0.31991465521E+03  0.31991465521E+03  0.00000000000E+00 0. -1.
         21   -1    0    0  502  503 -0.00000000000E+00 -0.00000000000E+00 -0.18508426295E+03  0.18508426295E+03  0.00000000000E+00 0. -1.
          6    1    1    2  501    0  0.35906162784E+02 -0.22754854992E+02  0.23941523020E+03  0.29842199718E+03  0.17300000000E+03 0. -1.
         -6    1    1    2    0  503 -0.35906162784E+02  0.22754854992E+02 -0.10458483794E+03  0.20657692097E+03  0.17300000000E+03 0. -1.
<mgrwt>
<rscale>  2 0.17814611E+03</rscale>
<asrwt>0</asrwt>
<pdfrwt beam="1">  1       21 0.49217639E-01 0.17814611E+03</pdfrwt>
<pdfrwt beam="2">  1       21 0.28474502E-01 0.17814611E+03</pdfrwt>
<totfact> 0.46764912E+04</totfact>
</mgrwt>
</event>
<event>
 4    1  0.4319182E+000  0.2197219E+03  0.7546771E-02  0.1134091E+00
         21   -1    0    0  503  502  0.00000000000E+00  0.00000000000E+00  0.44564518030E+02  0.44564518030E+02  0.00000000000E+00 0.  1.
         21   -1    0    0  501  503 -0.00000000000E+00 -0.00000000000E+00 -0.13445117517E+04  0.13445117517E+04  0.00000000000E+00 0. -1.
          6    1    1    2  501    0 -0.12008733436E+03 -0.62671831160E+02 -0.95609368137E+03  0.98101623526E+03  0.17300000000E+03 0. -1.
         -6    1    1    2    0  502  0.12008733436E+03  0.62671831160E+02 -0.34385355226E+03  0.40806003443E+03  0.17300000000E+03 0.  1.
<mgrwt>
<rscale>  2 0.21972193E+03</rscale>
<asrwt>0</asrwt>
<pdfrwt beam="1">  1       21 0.68560796E-02 0.21972193E+03</pdfrwt>
<pdfrwt beam="2">  1       21 0.20684796E+00 0.21972193E+03</pdfrwt>
<totfact> 0.18657874E+04</totfact>
</mgrwt>
</event>
<event>
 4    1  0.4319182E+000  0.1736331E+03  0.7546771E-02  0.1174111E+00
         21   -1    0    0  501  502  0.00000000000E+00  0.00000000000E+00  0.66934512810E+02  0.66934512810E+02  0.00000000000E+00 0. -1.
         21   -1    0    0  502  503 -0.00000000000E+00 -0.00000000000E+00 -0.47442500586E+03  0.47442500586E+03  0.00000000000E+00 0. -1.
          6    1    1    2  501    0  0.13963536026E+02  0.49476641000E+01 -0.14285500349E+03  0.22484664049E+03  0.17300000000E+03 0. -1.
         -6    1    1    2    0  503 -0.13963536026E+02 -0.49476641000E+01 -0.26463548956E+03  0.31651287818E+03  0.17300000000E+03 0. -1.
<mgrwt>
<rscale>  2 0.17363312E+03</rscale>
<asrwt>0</asrwt>
<pdfrwt beam="1">  1       21 0.10297617E-01 0.17363312E+03</pdfrwt>
<pdfrwt beam="2">  1       21 0.72988463E-01 0.17363312E+03</pdfrwt>
<totfact> 0.13103255E+05</totfact>
</mgrwt>
</event>
<event>
 4    1  0.4319182E+000  0.2073340E+03  0.7546771E-02  0.1143695E+00
         21   -1    0    0  503  502  0.00000000000E+00  0.00000000000E+00  0.48443029835E+03  0.48443029835E+03  0.00000000000E+00 0.  1.
         21   -1    0    0  501  503 -0.00000000000E+00 -0.00000000000E+00 -0.93087143173E+02  0.93087143173E+02  0.00000000000E+00 0. -1.
          6    1    1    2  501    0 -0.99481285108E+02  0.56230605633E+02  0.13325659030E+03  0.24646445171E+03  0.17300000000E+03 0. -1.
         -6    1    1    2    0  502  0.99481285108E+02 -0.56230605633E+02  0.25808656487E+03  0.33105298981E+03  0.17300000000E+03 0. -1.
<mgrwt>
<rscale>  2 0.20733405E+03</rscale>
<asrwt>0</asrwt>
<pdfrwt beam="1">  1       21 0.74527737E-01 0.20733405E+03</pdfrwt>
<pdfrwt beam="2">  1       21 0.14321099E-01 0.20733405E+03</pdfrwt>
<totfact> 0.68349866E+04</totfact>
</mgrwt>
</event>
<event>
 4    1  0.4319182E+000  0.1977578E+03  0.7546771E-02  0.1151645E+00
         21   -1    0    0  501  502  0.00000000000E+00  0.00000000000E+00  0.14549226433E+03  0.14549226433E+03  0.00000000000E+00 0.  1.
         21   -1    0    0  502  503 -0.00000000000E+00 -0.00000000000E+00 -0.51400617672E+03  0.51400617672E+03  0.00000000000E+00 0.  1.
          6    1    1    2  501    0 -0.74301605470E+02  0.60484957150E+02  0.43497193109E+02  0.20248497333E+03  0.17300000000E+03 0.  1.
         -6    1    1    2    0  503  0.74301605470E+02 -0.60484957150E+02 -0.41201110550E+03  0.45701346771E+03  0.17300000000E+03 0.  1.
<mgrwt>
<rscale>  2 0.19775783E+03</rscale>
<asrwt>0</asrwt>
<pdfrwt beam="1">  1       21 0.22383426E-01 0.19775783E+03</pdfrwt>
<pdfrwt beam="2">  1       21 0.79077872E-01 0.19775783E+03</pdfrwt>
<totfact> 0.26301394E+04</totfact>
</mgrwt>
</event>
<event>
 4    1  0.4319182E+000  0.1906862E+03  0.7546771E-02  0.1157844E+00
         21   -1    0    0  503  502  0.00000000000E+00  0.00000000000E+00  0.39844563932E+03  0.39844563932E+03  0.00000000000E+00 0. -1.
         21   -1    0    0  501  503 -0.00000000000E+00 -0.00000000000E+00 -0.21377256253E+03  0.21377256253E+03  0.00000000000E+00 0.  1.
          6    1    1    2  501    0 -0.79628358832E+01  0.79804966499E+02 -0.13940005500E+03  0.23620672041E+03  0.17300000000E+03 0.  1.
         -6    1    1    2    0  502  0.79628358832E+01 -0.79804966499E+02  0.32407313178E+03  0.37601148144E+03  0.17300000000E+03 0. -1.
<mgrwt>
<rscale>  2 0.19068623E+03</rscale>
<asrwt>0</asrwt>
<pdfrwt beam="1">  1       21 0.61299329E-01 0.19068623E+03</pdfrwt>
<pdfrwt beam="2">  1       21 0.32888087E-01 0.19068623E+03</pdfrwt>
<totfact> 0.22048779E+04</totfact>
</mgrwt>
</event>
<event>
 4    1  0.4319182E+000  0.1797047E+03  0.7546771E-02  0.1168089E+00
         21   -1    0    0  501  502  0.00000000000E+00  0.00000000000E+00  0.26802666109E+02  0.26802666109E+02  0.00000000000E+00 0. -1.
         21   -1    0    0  502  503 -0.00000000000E+00 -0.00000000000E+00 -0.14309544459E+04  0.14309544459E+04  0.00000000000E+00 0. -1.
          6    1    1    2  501    0  0.17299121415E+01 -0.48598152360E+02 -0.41235753539E+03  0.44981386151E+03  0.17300000000E+03 0. -1.
         -6    1    1    2    0  503 -0.17299121415E+01  0.48598152360E+02 -0.99179424439E+03  0.10079432505E+04  0.17300000000E+03 0. -1.
<mgrwt>
<rscale>  2 0.17970468E+03</rscale>
<asrwt>0</asrwt>
<pdfrwt beam="1">  1       21 0.41234870E-02 0.17970468E+03</pdfrwt>
<pdfrwt beam="2">  1       21 0.22014684E+00 0.17970468E+03</pdfrwt>
<totfact> 0.37742239E+04</totfact>
</mgrwt>
</event>
<event>
 4    1  0.4319182E+000  0.1767833E+03  0.7546771E-02  0.1170953E+00
         21   -1    0    0  501  502  0.00000000000E+00  0.00000000000E+00  0.10846751729E+03  0.10846751729E+03  0.00000000000E+00 0. -1.
         21   -1    0    0  502  503 -0.00000000000E+00 -0.00000000000E+00 -0.54099815218E+03  0.54099815218E+03  0.00000000000E+00 0. -1.
          6    1    1    2  501    0  0.35893203503E+02  0.59185104110E+01  0.57477345023E+01  0.17687675731E+03  0.17300000000E+03 0. -1.
         -6    1    1    2    0  503 -0.35893203503E+02 -0.59185104110E+01 -0.43827836939E+03  0.47258891216E+03  0.17300000000E+03 0. -1.
<mgrwt>
<rscale>  2 0.17678334E+03</rscale>
<asrwt>0</asrwt>
<pdfrwt beam="1">  1       21 0.16687310E-01 0.17678334E+03</pdfrwt>
<pdfrwt beam="2">  1       21 0.83230486E-01 0.17678334E+03</pdfrwt>
<totfact> 0.40916241E+04</totfact>
</mgrwt>
</event>
<event>
 4    1  0.4319182E+000  0.1767153E+03  0.7546771E-02  0.1171020E+00
         21   -1    0    0  503  502  0.00000000000E+00  0.00000000000E+00  0.68425296108E+02  0.68425296108E+02  0.00000000000E+00 0.  1.
         21   -1    0    0  501  503 -0.00000000000E+00 -0.00000000000E+00 -0.45654290551E+03  0.45654290551E+03  0.00000000000E+00 0.  1.
          6    1    1    2  501    0 -0.96424395439E+01  0.34732193216E+02 -0.19893516349E+03  0.26608927291E+03  0.17300000000E+03 0.  1.
         -6    1    1    2    0  502  0.96424395439E+01 -0.34732193216E+02 -0.18918244591E+03  0.25887892870E+03  0.17300000000E+03 0.  1.
<mgrwt>
<rscale>  2 0.17671531E+03</rscale>
<asrwt>0</asrwt>
<pdfrwt beam="1">  1       21 0.10526969E-01 0.17671531E+03</pdfrwt>
<pdfrwt beam="2">  1       21 0.70237369E-01 0.17671531E+03</pdfrwt>
<totfact> 0.13703266E+05</totfact>
</mgrwt>
</event>
<event>
 4    1  0.4319182E+000  0.1784641E+03  0.7546771E-02  0.1169298E+00
         21   -1    0    0  501  502  0.00000000000E+00  0.00000000000E+00  0.39697834588E+03  0.39697834588E+03  0.00000000000E+00 0.  1.
         21   -1    0    0  502  503 -0.00000000000E+00 -0.00000000000E+00 -0.80812018848E+02  0.80812018848E+02  0.00000000000E+00 0.  1.
          6    1    1    2  501    0  0.70982995359E+01 -0.43243963270E+02  0.17836351865E+03  0.25231522150E+03  0.17300000000E+03 0.  1.
         -6    1    1    2    0  503 -0.70982995359E+01  0.43243963270E+02  0.13780280838E+03  0.22547514323E+03  0.17300000000E+03 0.  1.
<mgrwt>
<rscale>  2 0.17846408E+03</rscale>
<asrwt>0</asrwt>
<pdfrwt beam="1">  1       21 0.61073590E-01 0.17846408E+03</pdfrwt>
<pdfrwt beam="2">  1       21 0.12432619E-01 0.17846408E+03</pdfrwt>
<totfact> 0.13803798E+05</totfact>
</mgrwt>
</event>
<event>
 4    1  0.4319182E+000  0.1752526E+03  0.7546771E-02  0.1172478E+00
         21   -1    0    0  501  502  0.00000000000E+00  0.00000000000E+00  0.22580338851E+02  0.22580338851E+02  0.00000000000E+00 0.  1.
         21   -1    0    0  502  503 -0.00000000000E+00 -0.00000000000E+00 -0.22862513816E+04  0.22862513816E+04  0.00000000000E+00 0.  1.
          6    1    1    2  501    0 -0.19377951671E+02  0.20222636814E+02 -0.39711676541E+03  0.43406818061E+03  0.17300000000E+03 0.  1.
         -6    1    1    2    0  503  0.19377951671E+02 -0.20222636814E+02 -0.18665542774E+04  0.18747635399E+04  0.17300000000E+03 0.  1.
<mgrwt>
<rscale>  2 0.17525256E+03</rscale>
<asrwt>0</asrwt>
<pdfrwt beam="1">  1       21 0.34738974E-02 0.17525256E+03</pdfrwt>
<pdfrwt beam="2">  1       21 0.35173107E+00 0.17525256E+03</pdfrwt>
<totfact> 0.86611067E+03</totfact>
</mgrwt>
</event>
<event>
 4    1  0.4319182E+000  0.1916429E+03  0.7546771E-02  0.1156988E+00
         21   -1    0    0  503  502  0.00000000000E+00  0.00000000000E+00  0.17093494839E+03  0.17093494839E+03  0.00000000000E+00 0. -1.
         21   -1    0    0  501  503 -0.00000000000E+00 -0.00000000000E+00 -0.57522477170E+03  0.57522477170E+03  0.00000000000E+00 0. -1.
          6    1    1    2  501    0  0.20285738667E+02 -0.79915494794E+02 -0.49743881519E+03  0.53307820473E+03  0.17300000000E+03 0. -1.
         -6    1    1    2    0  502 -0.20285738667E+02  0.79915494794E+02  0.93148991873E+02  0.21308151536E+03  0.17300000000E+03 0. -1.
<mgrwt>
<rscale>  2 0.19164289E+03</rscale>
<asrwt>0</asrwt>
<pdfrwt beam="1">  1       21 0.26297684E-01 0.19164289E+03</pdfrwt>
<pdfrwt beam="2">  1       21 0.88496119E-01 0.19164289E+03</pdfrwt>
<totfact> 0.15027659E+04</totfact>
</mgrwt>
</event>
<event>
 4    1  0.4319182E+000  0.1743625E+03  0.7546771E-02  0.1173373E+00
         21   -1    0    0  501  502  0.00000000000E+00  0.00000000000E+00  0.41215395297E+02  0.41215395297E+02  0.00000000000E+00 0.  1.
         21   -1    0    0  502  503 -0.00000000000E+00 -0.00000000000E+00 -0.10605940690E+04  0.10605940690E+04  0.00000000000E+00 0.  1.
          6    1    1    2  501    0  0.21750486845E+02 -0.42875163165E+00 -0.20569188166E+03  0.26965054735E+03  0.17300000000E+03 0.  1.
         -6    1    1    2    0  503 -0.21750486845E+02  0.42875163165E+00 -0.81368679206E+03  0.83215891696E+03  0.17300000000E+03 0.  1.
<mgrwt>
<rscale>  2 0.17436246E+03</rscale>
<asrwt>0</asrwt>
<pdfrwt beam="1">  1       21 0.63408295E-02 0.17436246E+03</pdfrwt>
<pdfrwt beam="2">  1       21 0.16316833E+00 0.17436246E+03</pdfrwt>
<totfact> 0.43290602E+04</totfact>
</mgrwt>
</event>
<event>
 4    1  0.4319182E+000  0.2135642E+03  0.7546771E-02  0.1138774E+00
         21   -1    0    0  503  502  0.00000000000E+00  0.00000000000E+00  0.10064740098E+04  0.10064740098E+04  0.00000000000E+00 0.  1.
         21   -1    0    0  501  503 -0.00000000000E+00 -0.00000000000E+00 -0.76410266379E+02  0.76410266379E+02  0.00000000000E+00 0. -1.
          6    1    1    2  501    0  0.17614749852E+02 -0.12397732480E+03  0.11963817470E+03  0.24479164471E+03  0.17300000000E+03 0. -1.
         -6    1    1    2    0  502 -0.17614749852E+02  0.12397732480E+03  0.81042556877E+03  0.83809263151E+03  0.17300000000E+03 0.  1.
<mgrwt>
<rscale>  2 0.21356417E+03</rscale>
<asrwt>0</asrwt>
<pdfrwt beam="1">  1       21 0.15484215E+00 0.21356417E+03</pdfrwt>
<pdfrwt beam="2">  1       21 0.11755426E-01 0.21356417E+03</pdfrwt>
<totfact> 0.16492065E+04</totfact>
</mgrwt>
</event>
<event>
 4    1  0.4319182E+000  0.2039156E+03  0.7546771E-02  0.1146477E+00
         21   -1    0    0  501  502  0.00000000000E+00  0.00000000000E+00  0.14509444791E+03  0.14509444791E+03  0.00000000000E+00 0. -1.
         21   -1    0    0  502  503 -0.00000000000E+00 -0.00000000000E+00 -0.32853483447E+03  0.32853483447E+03  0.00000000000E+00 0. -1.
          6    1    1    2  501    0  0.79932153545E+02 -0.72549490295E+02 -0.70960689553E+01  0.20403904506E+03  0.17300000000E+03 0. -1.
         -6    1    1    2    0  503 -0.79932153545E+02  0.72549490295E+02 -0.17634431761E+03  0.26959023733E+03  0.17300000000E+03 0. -1.
<mgrwt>
<rscale>  2 0.20391561E+03</rscale>
<asrwt>0</asrwt>
<pdfrwt beam="1">  1       21 0.22322223E-01 0.20391561E+03</pdfrwt>
<pdfrwt beam="2">  1       21 0.50543820E-01 0.20391561E+03</pdfrwt>
<totfact> 0.69613076E+04</totfact>
</mgrwt>
</event>
<event>
 4    1  0.4319182E+000  0.1899813E+03  0.7546771E-02  0.1158478E+00
         21   -1    0    0  503  502  0.00000000000E+00  0.00000000000E+00  0.22044490467E+03  0.22044490467E+03  0.00000000000E+00 0.  1.
         21   -1    0    0  501  503 -0.00000000000E+00 -0.00000000000E+00 -0.17376278940E+03  0.17376278940E+03  0.00000000000E+00 0.  1.
          6    1    1    2  501    0  0.19018636472E+02 -0.76172001935E+02 -0.24026687757E+02  0.19149455380E+03  0.17300000000E+03 0. -1.
         -6    1    1    2    0  502 -0.19018636472E+02  0.76172001935E+02  0.70708803022E+02  0.20271314027E+03  0.17300000000E+03 0. -1.
<mgrwt>
<rscale>  2 0.18998127E+03</rscale>
<asrwt>0</asrwt>
<pdfrwt beam="1">  1       21 0.33914601E-01 0.18998127E+03</pdfrwt>
<pdfrwt beam="2">  1       21 0.26732737E-01 0.18998127E+03</pdfrwt>
<totfact> 0.11169563E+05</totfact>
</mgrwt>
</event>
<event>
 4    1  0.4319182E+000  0.1839693E+03  0.7546771E-02  0.1164016E+00
         21   -1    0    0  501  502  0.00000000000E+00  0.00000000000E+00  0.16991593974E+03  0.16991593974E+03  0.00000000000E+00 0.  1.
         21   -1    0    0  502  503 -0.00000000000E+00 -0.00000000000E+00 -0.34853733479E+03  0.34853733479E+03  0.00000000000E+00 0.  1.
          6    1    1    2  501    0 -0.31617754649E+02 -0.54000185847E+02  0.80381164552E+02  0.20076312932E+03  0.17300000000E+03 0.  1.
         -6    1    1    2    0  503  0.31617754649E+02  0.54000185847E+02 -0.25900255961E+03  0.31769014521E+03  0.17300000000E+03 0.  1.
<mgrwt>
<rscale>  2 0.18396930E+03</rscale>
<asrwt>0</asrwt>
<pdfrwt beam="1">  1       21 0.26140914E-01 0.18396930E+03</pdfrwt>
<pdfrwt beam="2">  1       21 0.53621129E-01 0.18396930E+03</pdfrwt>
<totfact> 0.45958815E+04</totfact>
</mgrwt>
</event>
<event>
 4    1  0.4319182E+000  0.2043846E+03  0.7546771E-02  0.1146092E+00
         21   -1    0    0  501  502  0.00000000000E+00  0.00000000000E+00  0.80278184041E+03  0.80278184041E+03  0.00000000000E+00 0. -1.
         21   -1    0    0  502  503 -0.00000000000E+00 -0.00000000000E+00 -0.52941590118E+02  0.52941590118E+02  0.00000000000E+00 0. -1.
          6    1    1    2  501    0  0.11276482595E+02 -0.10824470664E+03  0.43089771311E+03  0.47691290058E+03  0.17300000000E+03 0. -1.
         -6    1    1    2    0  503 -0.11276482595E+02  0.10824470664E+03  0.31894253719E+03  0.37881052996E+03  0.17300000000E+03 0. -1.
<mgrwt>
<rscale>  2 0.20438463E+03</rscale>
<asrwt>0</asrwt>
<pdfrwt beam="1">  1       21 0.12350489E+00 0.20438463E+03</pdfrwt>
<pdfrwt beam="2">  1       21 0.81448606E-02 0.20438463E+03</pdfrwt>
<totfact> 0.56828971E+04</totfact>
</mgrwt>
</event>
<event>
 4    1  0.4319182E+000  0.2032289E+03  0.7546771E-02  0.1147043E+00
         21   -1    0    0  503  502  0.00000000000E+00  0.00000000000E+00  0.26702726290E+03  0.26702726290E+03  0.00000000000E+00 0.  1.
         21   -1    0    0  501  503 -0.00000000000E+00 -0.00000000000E+00 -0.31664229336E+03  0.31664229336E+03  0.00000000000E+00 0.  1.
          6    1    1    2  501    0 -0.10654714940E+03  0.45502220702E+01 -0.23352963066E+03  0.30957727301E+03  0.17300000000E+03 0.  1.
         -6    1    1    2    0  502  0.10654714940E+03 -0.45502220702E+01  0.18391460020E+03  0.27409228325E+03  0.17300000000E+03 0.  1.
<mgrwt>
<rscale>  2 0.20322893E+03</rscale>
<asrwt>0</asrwt>
<pdfrwt beam="1">  1       21 0.41081118E-01 0.20322893E+03</pdfrwt>
<pdfrwt beam="2">  1       21 0.48714199E-01 0.20322893E+03</pdfrwt>
<totfact> 0.22816014E+04</totfact>
</mgrwt>
</event>
<event>
 4    1  0.4319182E+000  0.2087561E+03  0.7546771E-02  0.1142555E+00
         21   -1    0    0  503  502  0.00000000000E+00  0.00000000000E+00  0.28623276549E+02  0.28623276549E+02  0.00000000000E+00 0. -1.
         21   -1    0    0  501  503 -0.00000000000E+00 -0.00000000000E+00 -0.15251875197E+04  0.15251875197E+04  0.00000000000E+00 0. -1.
          6    1    1    2  501    0  0.21760104174E+02  0.11478939303E+03 -0.71570545577E+03  0.74552894397E+03  0.17300000000E+03 0. -1.
         -6    1    1    2    0  502 -0.21760104174E+02 -0.11478939303E+03 -0.78085878741E+03  0.80828185230E+03  0.17300000000E+03 0. -1.
<mgrwt>
<rscale>  2 0.20875609E+03</rscale>
<asrwt>0</asrwt>
<pdfrwt beam="1">  1       21 0.44035805E-02 0.20875609E+03</pdfrwt>
<pdfrwt beam="2">  1       21 0.23464426E+00 0.20875609E+03</pdfrwt>
<totfact> 0.26996878E+04</totfact>
</mgrwt>
</event>
<event>
 4    1  0.4319182E+000  0.1762781E+03  0.7546771E-02  0.1171455E+00
         21   -1    0    0  503  502  0.00000000000E+00  0.00000000000E+00  0.82163991966E+02  0.82163991966E+02  0.00000000000E+00 0.  1.
         21   -1    0    0  501  503 -0.00000000000E+00 -0.00000000000E+00 -0.43088435478E+03  0.43088435478E+03  0.00000000000E+00 0. -1.
          6    1    1    2  501    0  0.24366345776E+02  0.23478603970E+02 -0.84656194374E+02  0.19555212834E+03  0.17300000000E+03 0.  1.
         -6    1    1    2    0  502 -0.24366345776E+02 -0.23478603970E+02 -0.26406416844E+03  0.31749621841E+03  0.17300000000E+03 0. -1.
<mgrwt>
<rscale>  2 0.17627809E+03</rscale>
<asrwt>0</asrwt>
<pdfrwt beam="1">  1       21 0.12640614E-01 0.17627809E+03</pdfrwt>
<pdfrwt beam="2">  1       21 0.66289902E-01 0.17627809E+03</pdfrwt>
<totfact> 0.11231169E+05</totfact>
</mgrwt>
</event>
<event>
 4    1  0.4319182E+000  0.3241035E+03  0.7546771E-02  0.1073776E+00
         21   -1    0    0  501  502  0.00000000000E+00  0.00000000000E+00  0.41566631645E+03  0.41566631645E+03  0.00000000000E+00 0.  1.
         21   -1    0    0  502  503 -0.00000000000E+00 -0.00000000000E+00 -0.28190871369E+03  0.28190871369E+03  0.00000000000E+00 0. -1.
          6    1    1    2  501    0 -0.25642933426E+03  0.96737113433E+02  0.17912919309E+03  0.37031113999E+03  0.17300000000E+03 0.  1.
         -6    1    1    2    0  503  0.25642933426E+03 -0.96737113433E+02 -0.45371590326E+02  0.32726389015E+03  0.17300000000E+03 0. -1.
<mgrwt>
<rscale>  2 0.32410349E+03</rscale>
<asrwt>0</asrwt>
<pdfrwt beam="1">  1       21 0.63948664E-01 0.32410349E+03</pdfrwt>
<pdfrwt beam="2">  1       21 0.43370571E-01 0.32410349E+03</pdfrwt>
<totfact> 0.10761727E+04</totfact>
</mgrwt>
</event>
<event>
 4    1  0.4319182E+000  0.1747908E+03  0.7546771E-02  0.1172942E+00
         21   -1    0    0  501  502  0.00000000000E+00  0.00000000000E+00  0.35332755046E+03  0.35332755046E+03  0.00000000000E+00 0.  1.
         21   -1    0    0  502  503 -0.00000000000E+00 -0.00000000000E+00 -0.11817971399E+03  0.11817971399E+03  0.00000000000E+00 0.  1.
          6    1    1    2  501    0  0.45839243006E+01  0.24531745844E+02  0.23969513384E+03  0.29665733785E+03  0.17300000000E+03 0.  1.
         -6    1    1    2    0  503 -0.45839243006E+01 -0.24531745844E+02 -0.45472973675E+01  0.17484992659E+03  0.17300000000E+03 0.  1.
<mgrwt>
<rscale>  2 0.17479079E+03</rscale>
<asrwt>0</asrwt>
<pdfrwt beam="1">  1       21 0.54358084E-01 0.17479079E+03</pdfrwt>
<pdfrwt beam="2">  1       21 0.18181495E-01 0.17479079E+03</pdfrwt>
<totfact> 0.88755204E+04</totfact>
</mgrwt>
</event>
<event>
 4    1  0.4319182E+000  0.2123310E+03  0.7546771E-02  0.1139733E+00
         21   -1    0    0  503  502  0.00000000000E+00  0.00000000000E+00  0.51325413502E+02  0.51325413502E+02  0.00000000000E+00 0.  1.
         21   -1    0    0  501  503 -0.00000000000E+00 -0.00000000000E+00 -0.10831689968E+04  0.10831689968E+04  0.00000000000E+00 0. -1.
          6    1    1    2  501    0  0.69892314115E+02  0.10134356081E+03 -0.76255526748E+03  0.79156489870E+03  0.17300000000E+03 0. -1.
         -6    1    1    2    0  502 -0.69892314115E+02 -0.10134356081E+03 -0.26928831580E+03  0.34292951159E+03  0.17300000000E+03 0. -1.
<mgrwt>
<rscale>  2 0.21233100E+03</rscale>
<asrwt>0</asrwt>
<pdfrwt beam="1">  1       21 0.78962173E-02 0.21233100E+03</pdfrwt>
<pdfrwt beam="2">  1       21 0.16664139E+00 0.21233100E+03</pdfrwt>
<totfact> 0.27315159E+04</totfact>
</mgrwt>
</event>
<event>
 4    1  0.4319182E+000  0.2258487E+03  0.7546771E-02  0.1129596E+00
         21   -1    0    0  501  502  0.00000000000E+00  0.00000000000E+00  0.37098397600E+03  0.37098397600E+03  0.00000000000E+00 0.  1.
         21   -1    0    0  502  503 -0.00000000000E+00 -0.00000000000E+00 -0.17331331942E+03  0.17331331942E+03  0.00000000000E+00 0. -1.
          6    1    1    2  501    0 -0.10769402709E+03 -0.97368595554E+02  0.22255985547E+03  0.31708127686E+03  0.17300000000E+03 0. -1.
         -6    1    1    2    0  503  0.10769402709E+03  0.97368595554E+02 -0.24889198883E+02  0.22721601856E+03  0.17300000000E+03 0. -1.
<mgrwt>
<rscale>  2 0.22584873E+03</rscale>
<asrwt>0</asrwt>
<pdfrwt beam="1">  1       21 0.57074458E-01 0.22584873E+03</pdfrwt>
<pdfrwt beam="2">  1       21 0.26663588E-01 0.22584873E+03</pdfrwt>
<totfact> 0.37967733E+04</totfact>
</mgrwt>
</event>
<event>
 4    1  0.4319182E+000  0.1828103E+03  0.7546771E-02  0.1165111E+00
         21   -1    0    0  501  502  0.00000000000E+00  0.00000000000E+00  0.38219299404E+03  0.38219299404E+03  0.00000000000E+00 0.  1.
         21   -1    0    0  502  503 -0.00000000000E+00 -0.00000000000E+00 -0.24371104801E+03  0.24371104801E+03  0.00000000000E+00 0.  1.
          6    1    1    2  501    0 -0.30929183145E+02  0.50338900349E+02  0.31983862682E+03  0.36839702288E+03  0.17300000000E+03 0.  1.
         -6    1    1    2    0  503  0.30929183145E+02 -0.50338900349E+02 -0.18135668079E+03  0.25750701918E+03  0.17300000000E+03 0.  1.
<mgrwt>
<rscale>  2 0.18281034E+03</rscale>
<asrwt>0</asrwt>
<pdfrwt beam="1">  1       21 0.58798922E-01 0.18281034E+03</pdfrwt>
<pdfrwt beam="2">  1       21 0.37494007E-01 0.18281034E+03</pdfrwt>
<totfact> 0.18674896E+04</totfact>
</mgrwt>
</event>
<event>
 4    1  0.4319182E+000  0.2289814E+03  0.7546771E-02  0.1127359E+00
         21   -1    0    0  503  502  0.00000000000E+00  0.00000000000E+00  0.10204479885E+03  0.10204479885E+03  0.00000000000E+00 0.  1.
         21   -1    0    0  501  503 -0.00000000000E+00 -0.00000000000E+00 -0.55669451034E+03  0.55669451034E+03  0.00000000000E+00 0.  1.
          6    1    1    2  501    0  0.14129844006E+03 -0.50380755046E+02 -0.31873282845E+03  0.39245775005E+03  0.17300000000E+03 0.  1.
         -6    1    1    2    0  502 -0.14129844006E+03  0.50380755046E+02 -0.13591688303E+03  0.26628155914E+03  0.17300000000E+03 0.  1.
<mgrwt>
<rscale>  2 0.22898137E+03</rscale>
<asrwt>0</asrwt>
<pdfrwt beam="1">  1       21 0.15699200E-01 0.22898137E+03</pdfrwt>
<pdfrwt beam="2">  1       21 0.85645309E-01 0.22898137E+03</pdfrwt>
<totfact> 0.41749333E+04</totfact>
</mgrwt>
</event>
<event>
 4    1  0.4319182E+000  0.1870718E+03  0.7546771E-02  0.1161129E+00
         21   -1    0    0  503  502  0.00000000000E+00  0.00000000000E+00  0.49524976368E+03  0.49524976368E+03  0.00000000000E+00 0.  1.
         21   -1    0    0  501  503 -0.00000000000E+00 -0.00000000000E+00 -0.10686316055E+03  0.10686316055E+03  0.00000000000E+00 0.  1.
          6    1    1    2  501    0  0.44806958812E+02  0.55310056473E+02  0.18971230632E+02  0.18803130988E+03  0.17300000000E+03 0.  1.
         -6    1    1    2    0  502 -0.44806958812E+02 -0.55310056473E+02  0.36941537250E+03  0.41408161435E+03  0.17300000000E+03 0.  1.
<mgrwt>
<rscale>  2 0.18707182E+03</rscale>
<asrwt>0</asrwt>
<pdfrwt beam="1">  1       21 0.76192270E-01 0.18707182E+03</pdfrwt>
<pdfrwt beam="2">  1       21 0.16440487E-01 0.18707182E+03</pdfrwt>
<totfact> 0.51054043E+04</totfact>
</mgrwt>
</event>
<event>
 4    1  0.4319182E+000  0.1790287E+03  0.7546771E-02  0.1168746E+00
         21   -1    0    0  503  502  0.00000000000E+00  0.00000000000E+00  0.12532076927E+03  0.12532076927E+03  0.00000000000E+00 0. -1.
         21   -1    0    0  501  503 -0.00000000000E+00 -0.00000000000E+00 -0.42254119103E+03  0.42254119103E+03  0.00000000000E+00 0. -1.
          6    1    1    2  501    0 -0.45543676242E+02  0.69323668106E+01 -0.32071304129E+03  0.36729843317E+03  0.17300000000E+03 0. -1.
         -6    1    1    2    0  502  0.45543676242E+02 -0.69323668106E+01  0.23492619536E+02  0.18056352713E+03  0.17300000000E+03 0. -1.
<mgrwt>
<rscale>  2 0.17902872E+03</rscale>
<asrwt>0</asrwt>
<pdfrwt beam="1">  1       21 0.19280118E-01 0.17902872E+03</pdfrwt>
<pdfrwt beam="2">  1       21 0.65006338E-01 0.17902872E+03</pdfrwt>
<totfact> 0.54200563E+04</totfact>
</mgrwt>
</event>
<event>
 4    1  0.4319182E+000  0.2233359E+03  0.7546771E-02  0.1131420E+00
         21   -1    0    0  501  502  0.00000000000E+00  0.00000000000E+00  0.72881892623E+02  0.72881892623E+02  0.00000000000E+00 0.  1.
         21   -1    0    0  502  503 -0.00000000000E+00 -0.00000000000E+00 -0.12740223939E+04  0.12740223939E+04  0.00000000000E+00 0.  1.
          6    1    1    2  501    0 -0.66302558012E+02  0.12471520571E+03 -0.14241512624E+03  0.26487917984E+03  0.17300000000E+03 0.  1.
         -6    1    1    2    0  503  0.66302558012E+02 -0.12471520571E+03 -0.10587253750E+04  0.10820251066E+04  0.17300000000E+03 0.  1.
<mgrwt>
<rscale>  2 0.22333587E+03</rscale>
<asrwt>0</asrwt>
<pdfrwt beam="1">  1       21 0.11212599E-01 0.22333587E+03</pdfrwt>
<pdfrwt beam="2">  1       21 0.19600344E+00 0.22333587E+03</pdfrwt>
<totfact> 0.92074127E+03</totfact>
</mgrwt>
</event>
<event>
 4    1  0.4319182E+000  0.1794802E+03  0.7546771E-02  0.1168307E+00
         21   -1    0    0  503  502  0.00000000000E+00  0.00000000000E+00  0.96278480479E+02  0.96278480479E+02  0.00000000000E+00 0. -1.
         21   -1    0    0  501  503 -0.00000000000E+00 -0.00000000000E+00 -0.33535634071E+03  0.33535634071E+03  0.00000000000E+00 0. -1.
          6    1    1    2  501    0  0.23961519347E+02 -0.41351984629E+02 -0.10917501427E+03  0.21007694967E+03  0.17300000000E+03 0.  1.
         -6    1    1    2    0  502 -0.23961519347E+02  0.41351984629E+02 -0.12990284596E+03  0.22155787152E+03  0.17300000000E+03 0.  1.
<mgrwt>
<rscale>  2 0.17948020E+03</rscale>
<asrwt>0</asrwt>
<pdfrwt beam="1">  1       21 0.14812074E-01 0.17948020E+03</pdfrwt>
<pdfrwt beam="2">  1       21 0.51593283E-01 0.17948020E+03</pdfrwt>
<totfact> 0.14386806E+05</totfact>
</mgrwt>
</event>
<event>
 4    1  0.4319182E+000  0.2962863E+03  0.7546771E-02  0.1087112E+00
         21   -1    0    0  503  502  0.00000000000E+00  0.00000000000E+00  0.96372836635E+02  0.96372836635E+02  0.00000000000E+00 0.  1.
         21   -1    0    0  501  503 -0.00000000000E+00 -0.00000000000E+00 -0.15158000583E+04  0.15158000583E+04  0.00000000000E+00 0. -1.
          6    1    1    2  501    0 -0.71215525263E+02  0.22974970707E+03 -0.12189320300E+04  0.12544245185E+04  0.17300000000E+03 0. -1.
         -6    1    1    2    0  502  0.71215525263E+02 -0.22974970707E+03 -0.20049519167E+03  0.35774837641E+03  0.17300000000E+03 0.  1.
<mgrwt>
<rscale>  2 0.29628631E+03</rscale>
<asrwt>0</asrwt>
<pdfrwt beam="1">  1       21 0.14826589E-01 0.29628631E+03</pdfrwt>
<pdfrwt beam="2">  1       21 0.23320003E+00 0.29628631E+03</pdfrwt>
<totfact> 0.30686154E+03</totfact>
</mgrwt>
</event>
<event>
 4    1  0.4319182E+000  0.1824098E+03  0.7546771E-02  0.1165491E+00
         21   -1    0    0  501  502  0.00000000000E+00  0.00000000000E+00  0.33707521326E+03  0.33707521326E+03  0.00000000000E+00 0. -1.
         21   -1    0    0  502  503 -0.00000000000E+00 -0.00000000000E+00 -0.21757828112E+03  0.21757828112E+03  0.00000000000E+00 0. -1.
          6    1    1    2  501    0  0.39937834573E+02 -0.41824720859E+02  0.26472941076E+03  0.32148872270E+03  0.17300000000E+03 0. -1.
         -6    1    1    2    0  503 -0.39937834573E+02  0.41824720859E+02 -0.14523247862E+03  0.23316477168E+03  0.17300000000E+03 0. -1.
<mgrwt>
<rscale>  2 0.18240981E+03</rscale>
<asrwt>0</asrwt>
<pdfrwt beam="1">  1       21 0.51857725E-01 0.18240981E+03</pdfrwt>
<pdfrwt beam="2">  1       21 0.33473582E-01 0.18240981E+03</pdfrwt>
<totfact> 0.30514656E+04</totfact>
</mgrwt>
</event>
<event>
 4    1  0.4319182E+000  0.1846357E+03  0.7546771E-02  0.1163391E+00
         21   -1    0    0  503  502  0.00000000000E+00  0.00000000000E+00  0.27396881714E+03  0.27396881714E+03  0.00000000000E+00 0.  1.
         21   -1    0    0  501  503 -0.00000000000E+00 -0.00000000000E+00 -0.12455591197E+03  0.12455591197E+03  0.00000000000E+00 0.  1.
          6    1    1    2  501    0 -0.18461215256E+01 -0.64482068236E+02  0.81004555306E+02  0.20162361784E+03  0.17300000000E+03 0. -1.
         -6    1    1    2    0  502  0.18461215256E+01  0.64482068236E+02  0.68408349869E+02  0.19690111127E+03  0.17300000000E+03 0. -1.
<mgrwt>
<rscale>  2 0.18463571E+03</rscale>
<asrwt>0</asrwt>
<pdfrwt beam="1">  1       21 0.42149049E-01 0.18463571E+03</pdfrwt>
<pdfrwt beam="2">  1       21 0.19162448E-01 0.18463571E+03</pdfrwt>
<totfact> 0.13578650E+05</totfact>
</mgrwt>
</event>
<event>
 4    1  0.4319182E+000  0.3201633E+03  0.7546771E-02  0.1075574E+00
         21   -1    0    0  503  502  0.00000000000E+00  0.00000000000E+00  0.10270935274E+04  0.10270935274E+04  0.00000000000E+00 0.  1.
         21   -1    0    0  501  503 -0.00000000000E+00 -0.00000000000E+00 -0.15135552652E+03  0.15135552652E+03  0.00000000000E+00 0. -1.
          6    1    1    2  501    0 -0.26924570045E+03  0.90720328535E+01  0.93981202424E+02  0.33367201771E+03  0.17300000000E+03 0. -1.
         -6    1    1    2    0  502  0.26924570045E+03 -0.90720328535E+01  0.78175679843E+03  0.84477703619E+03  0.17300000000E+03 0.  1.
<mgrwt>
<rscale>  2 0.32016332E+03</rscale>
<asrwt>0</asrwt>
<pdfrwt beam="1">  1       21 0.15801438E+00 0.32016332E+03</pdfrwt>
<pdfrwt beam="2">  1       21 0.23285466E-01 0.32016332E+03</pdfrwt>
<totfact> 0.41366791E+03</totfact>
</mgrwt>
</event>
<event>
 4    1  0.4319182E+000  0.1960021E+03  0.7546771E-02  0.1153157E+00
         21   -1    0    0  501  502  0.00000000000E+00  0.00000000000E+00  0.12849207334E+03  0.12849207334E+03  0.00000000000E+00 0.  1.
         21   -1    0    0  502  503 -0.00000000000E+00 -0.00000000000E+00 -0.36587979416E+03  0.36587979416E+03  0.00000000000E+00 0.  1.
          6    1    1    2  501    0 -0.55615815934E+02 -0.73448731676E+02 -0.12997512364E+02  0.19643261057E+03  0.17300000000E+03 0. -1.
         -6    1    1    2    0  503  0.55615815934E+02  0.73448731676E+02 -0.22439020846E+03  0.29793925693E+03  0.17300000000E+03 0. -1.
<mgrwt>
<rscale>  2 0.19600213E+03</rscale>
<asrwt>0</asrwt>
<pdfrwt beam="1">  1       21 0.19768011E-01 0.19600213E+03</pdfrwt>
<pdfrwt beam="2">  1       21 0.56289199E-01 0.19600213E+03</pdfrwt>
<totfact> 0.69956273E+04</totfact>
</mgrwt>
</event>
<event>
 4    1  0.4319182E+000  0.1912591E+03  0.7546771E-02  0.1157331E+00
         21   -1    0    0  503  502  0.00000000000E+00  0.00000000000E+00  0.32439118031E+03  0.32439118031E+03  0.00000000000E+00 0.  1.
         21   -1    0    0  501  503 -0.00000000000E+00 -0.00000000000E+00 -0.13065317836E+03  0.13065317836E+03  0.00000000000E+00 0.  1.
          6    1    1    2  501    0 -0.56560126002E+02  0.58753682148E+02  0.12682176292E+02  0.19167910845E+03  0.17300000000E+03 0.  1.
         -6    1    1    2    0  502  0.56560126002E+02 -0.58753682148E+02  0.18105582566E+03  0.26336525022E+03  0.17300000000E+03 0.  1.
<mgrwt>
<rscale>  2 0.19125910E+03</rscale>
<asrwt>0</asrwt>
<pdfrwt beam="1">  1       21 0.49906335E-01 0.19125910E+03</pdfrwt>
<pdfrwt beam="2">  1       21 0.20100489E-01 0.19125910E+03</pdfrwt>
<totfact> 0.87529725E+04</totfact>
</mgrwt>
</event>
<event>
 4    1  0.4319182E+000  0.2099500E+03  0.7546771E-02  0.1141606E+00
         21   -1    0    0  503  502  0.00000000000E+00  0.00000000000E+00  0.11110623035E+03  0.11110623035E+03  0.00000000000E+00 0.  1.
         21   -1    0    0  501  503 -0.00000000000E+00 -0.00000000000E+00 -0.45546292641E+03  0.45546292641E+03  0.00000000000E+00 0. -1.
          6    1    1    2  501    0  0.86428147635E+02 -0.81732356430E+02 -0.27390692267E+03  0.34511448112E+03  0.17300000000E+03 0. -1.
         -6    1    1    2    0  502 -0.86428147635E+02  0.81732356430E+02 -0.70449773386E+02  0.22145467564E+03  0.17300000000E+03 0.  1.
<mgrwt>
<rscale>  2 0.20995000E+03</rscale>
<asrwt>0</asrwt>
<pdfrwt beam="1">  1       21 0.17093266E-01 0.20995000E+03</pdfrwt>
<pdfrwt beam="2">  1       21 0.70071219E-01 0.20995000E+03</pdfrwt>
<totfact> 0.56630156E+04</totfact>
</mgrwt>
</event>
<event>
 4    1  0.4319182E+000  0.2588021E+03  0.7546771E-02  0.1107865E+00
         21   -1    0    0  501  502  0.00000000000E+00  0.00000000000E+00  0.17560787806E+04  0.17560787806E+04  0.00000000000E+00 0. -1.
         21   -1    0    0  502  503 -0.00000000000E+00 -0.00000000000E+00 -0.39386180193E+02  0.39386180193E+02  0.00000000000E+00 0. -1.
          6    1    1    2  501    0 -0.71443533871E+02  0.17873261559E+03  0.69872218866E+03  0.74511155093E+03  0.17300000000E+03 0. -1.
         -6    1    1    2    0  503  0.71443533871E+02 -0.17873261559E+03  0.10179704117E+04  0.10503534098E+04  0.17300000000E+03 0. -1.
<mgrwt>
<rscale>  2 0.25880210E+03</rscale>
<asrwt>0</asrwt>
<pdfrwt beam="1">  1       21 0.27016591E+00 0.25880210E+03</pdfrwt>
<pdfrwt beam="2">  1       21 0.60594137E-02 0.25880210E+03</pdfrwt>
<totfact> 0.92765942E+03</totfact>
</mgrwt>
</event>
<event>
 4    1  0.4319182E+000  0.1784082E+03  0.7546771E-02  0.1169353E+00
         21   -1    0    0  503  502  0.00000000000E+00  0.00000000000E+00  0.58841500269E+02  0.58841500269E+02  0.00000000000E+00 0.  1.
         21   -1    0    0  501  503 -0.00000000000E+00 -0.00000000000E+00 -0.73496093665E+03  0.73496093665E+03  0.00000000000E+00 0.  1.
          6    1    1    2  501    0 -0.32850990080E+02  0.28658569730E+02 -0.54198862277E+03  0.57059720327E+03  0.17300000000E+03 0.  1.
         -6    1    1    2    0  502  0.32850990080E+02 -0.28658569730E+02 -0.13413081361E+03  0.22320523365E+03  0.17300000000E+03 0.  1.
<mgrwt>
<rscale>  2 0.17840824E+03</rscale>
<asrwt>0</asrwt>
<pdfrwt beam="1">  1       21 0.90525386E-02 0.17840824E+03</pdfrwt>
<pdfrwt beam="2">  1       21 0.11307091E+00 0.17840824E+03</pdfrwt>
<totfact> 0.59484079E+04</totfact>
</mgrwt>
</event>
<event>
 4    1  0.4319182E+000  0.1755543E+03  0.7546771E-02  0.1172176E+00
         21   -1    0    0  503  502  0.00000000000E+00  0.00000000000E+00  0.13890474464E+03  0.13890474464E+03  0.00000000000E+00 0. -1.
         21   -1    0    0  501  503 -0.00000000000E+00 -0.00000000000E+00 -0.25412684786E+03  0.25412684786E+03  0.00000000000E+00 0. -1.
          6    1    1    2  501    0  0.12686016611E+02 -0.27007212305E+02 -0.12762063972E+03  0.21703997838E+03  0.17300000000E+03 0.  1.
         -6    1    1    2    0  502 -0.12686016611E+02  0.27007212305E+02  0.12398536501E+02  0.17599161412E+03  0.17300000000E+03 0.  1.
<mgrwt>
<rscale>  2 0.17555433E+03</rscale>
<asrwt>0</asrwt>
<pdfrwt beam="1">  1       21 0.21369961E-01 0.17555433E+03</pdfrwt>
<pdfrwt beam="2">  1       21 0.39096438E-01 0.17555433E+03</pdfrwt>
<totfact> 0.12936071E+05</totfact>
</mgrwt>
</event>
<event>
 4    1  0.4319182E+000  0.2340042E+03  0.7546771E-02  0.1123853E+00
         21   -1    0    0  503  502  0.00000000000E+00  0.00000000000E+00  0.78388110897E+03  0.78388110897E+03  0.00000000000E+00 0.  1.
         21   -1    0    0  501  503 -0.00000000000E+00 -0.00000000000E+00 -0.72845524434E+02  0.72845524434E+02  0.00000000000E+00 0.  1.
          6    1    1    2  501    0 -0.16163740611E+02  0.15674081588E+03  0.26872362650E+03  0.35632897344E+03  0.17300000000E+03 0. -1.
         -6    1    1    2    0  502  0.16163740611E+02 -0.15674081588E+03  0.44231195804E+03  0.50039765996E+03  0.17300000000E+03 0. -1.
<mgrwt>
<rscale>  2 0.23400417E+03</rscale>
<asrwt>0</asrwt>
<pdfrwt beam="1">  1       21 0.12059709E+00 0.23400417E+03</pdfrwt>
<pdfrwt beam="2">  1       21 0.11207004E-01 0.23400417E+03</pdfrwt>
<totfact> 0.33812843E+04</totfact>
</mgrwt>
</event>
<event>
 4    1  0.4319182E+000  0.3776841E+03  0.7546771E-02  0.1051793E+00
         21   -1    0    0  501  502  0.00000000000E+00  0.00000000000E+00  0.12240527679E+04  0.12240527679E+04  0.00000000000E+00 0. -1.
         21   -1    0    0  502  503 -0.00000000000E+00 -0.00000000000E+00 -0.15928540344E+03  0.15928540344E+03  0.00000000000E+00 0.  1.
          6    1    1    2  501    0  0.49720792695E+02  0.33203031081E+03  0.89071045574E+03  0.96747630488E+03  0.17300000000E+03 0. -1.
         -6    1    1    2    0  503 -0.49720792695E+02 -0.33203031081E+03  0.17405690876E+03  0.41586186650E+03  0.17300000000E+03 0.  1.
<mgrwt>
<rscale>  2 0.37768411E+03</rscale>
<asrwt>0</asrwt>
<pdfrwt beam="1">  1       21 0.18831580E+00 0.37768411E+03</pdfrwt>
<pdfrwt beam="2">  1       21 0.24505448E-01 0.37768411E+03</pdfrwt>
<totfact> 0.22104833E+03</totfact>
</mgrwt>
</event>
<event>
 4    1  0.4319182E+000  0.2174001E+03  0.7546771E-02  0.1135836E+00
         21   -1    0    0  503  502  0.00000000000E+00  0.00000000000E+00  0.84849856269E+02  0.84849856269E+02  0.00000000000E+00 0.  1.
         21   -1    0    0  501  503 -0.00000000000E+00 -0.00000000000E+00 -0.74616793884E+03  0.74616793884E+03  0.00000000000E+00 0. -1.
          6    1    1    2  501    0 -0.13164889019E+03  0.15393659187E+01 -0.53986134129E+03  0.58199060796E+03  0.17300000000E+03 0. -1.
         -6    1    1    2    0  502  0.13164889019E+03 -0.15393659187E+01 -0.12145674128E+03  0.24902718715E+03  0.17300000000E+03 0.  1.
<mgrwt>
<rscale>  2 0.21740009E+03</rscale>
<asrwt>0</asrwt>
<pdfrwt beam="1">  1       21 0.13053824E-01 0.21740009E+03</pdfrwt>
<pdfrwt beam="2">  1       21 0.11479507E+00 0.21740009E+03</pdfrwt>
<totfact> 0.29289232E+04</totfact>
</mgrwt>
</event>
<event>
 4    1  0.4319182E+000  0.1889688E+03  0.7546771E-02  0.1159395E+00
         21   -1    0    0  503  502  0.00000000000E+00  0.00000000000E+00  0.26406638961E+03  0.26406638961E+03  0.00000000000E+00 0.  1.
         21   -1    0    0  501  503 -0.00000000000E+00 -0.00000000000E+00 -0.30397472247E+03  0.30397472247E+03  0.00000000000E+00 0. -1.
          6    1    1    2  501    0 -0.30069159019E+02  0.69828696801E+02 -0.23157019407E+03  0.29888786527E+03  0.17300000000E+03 0. -1.
         -6    1    1    2    0  502  0.30069159019E+02 -0.69828696801E+02  0.19166186122E+03  0.26915324681E+03  0.17300000000E+03 0.  1.
<mgrwt>
<rscale>  2 0.18896878E+03</rscale>
<asrwt>0</asrwt>
<pdfrwt beam="1">  1       21 0.40625599E-01 0.18896878E+03</pdfrwt>
<pdfrwt beam="2">  1       21 0.46765342E-01 0.18896878E+03</pdfrwt>
<totfact> 0.25606902E+04</totfact>
</mgrwt>
</event>
<event>
 4    1  0.4319182E+000  0.2045338E+03  0.7546771E-02  0.1145969E+00
         21   -1    0    0  503  502  0.00000000000E+00  0.00000000000E+00  0.40077518206E+03  0.40077518206E+03  0.00000000000E+00 0. -1.
         21   -1    0    0  501  503 -0.00000000000E+00 -0.00000000000E+00 -0.16808044516E+03  0.16808044516E+03  0.00000000000E+00 0. -1.
          6    1    1    2  501    0  0.84707615794E+02  0.68772745872E+02  0.29144281748E+03  0.35605194370E+03  0.17300000000E+03 0. -1.
         -6    1    1    2    0  502 -0.84707615794E+02 -0.68772745872E+02 -0.58748080584E+02  0.21280368352E+03  0.17300000000E+03 0. -1.
<mgrwt>
<rscale>  2 0.20453379E+03</rscale>
<asrwt>0</asrwt>
<pdfrwt beam="1">  1       21 0.61657720E-01 0.20453379E+03</pdfrwt>
<pdfrwt beam="2">  1       21 0.25858530E-01 0.20453379E+03</pdfrwt>
<totfact> 0.34477780E+04</totfact>
</mgrwt>
</event>
<event>
 4    1  0.4319182E+000  0.2367930E+03  0.7546771E-02  0.1121948E+00
         21   -1    0    0  503  502  0.00000000000E+00  0.00000000000E+00  0.28788396239E+03  0.28788396239E+03  0.00000000000E+00 0.  1.
         21   -1    0    0  501  503 -0.00000000000E+00 -0.00000000000E+00 -0.55696803643E+03  0.55696803643E+03  0.00000000000E+00 0.  1.
          6    1    1    2  501    0  0.16080145783E+03  0.16876312171E+02 -0.47519255284E+03  0.53092266954E+03  0.17300000000E+03 0.  1.
         -6    1    1    2    0  502 -0.16080145783E+03 -0.16876312171E+02  0.20610847880E+03  0.31392932929E+03  0.17300000000E+03 0.  1.
<mgrwt>
<rscale>  2 0.23679299E+03</rscale>
<asrwt>0</asrwt>
<pdfrwt beam="1">  1       21 0.44289841E-01 0.23679299E+03</pdfrwt>
<pdfrwt beam="2">  1       21 0.85687390E-01 0.23679299E+03</pdfrwt>
<totfact> 0.55800271E+03</totfact>
</mgrwt>
</event>
<event>
 4    1  0.4319182E+000  0.1860028E+03  0.7546771E-02  0.1162117E+00
         21   -1    0    0  501  502  0.00000000000E+00  0.00000000000E+00  0.45598087165E+03  0.45598087165E+03  0.00000000000E+00 0.  1.
         21   -1    0    0  502  503 -0.00000000000E+00 -0.00000000000E+00 -0.11046581014E+03  0.11046581014E+03  0.00000000000E+00 0.  1.
          6    1    1    2  501    0 -0.64292952611E+02  0.23118386170E+02  0.33124773350E+03  0.37989749207E+03  0.17300000000E+03 0. -1.
         -6    1    1    2    0  503  0.64292952611E+02 -0.23118386170E+02  0.14267328012E+02  0.18654918971E+03  0.17300000000E+03 0. -1.
<mgrwt>
<rscale>  2 0.18600281E+03</rscale>
<asrwt>0</asrwt>
<pdfrwt beam="1">  1       21 0.70150902E-01 0.18600281E+03</pdfrwt>
<pdfrwt beam="2">  1       21 0.16994740E-01 0.18600281E+03</pdfrwt>
<totfact> 0.57739336E+04</totfact>
</mgrwt>
</event>
<event>
 4    1  0.4319182E+000  0.1869211E+03  0.7546771E-02  0.1161268E+00
         21   -1    0    0  501  502  0.00000000000E+00  0.00000000000E+00  0.10593169909E+03  0.10593169909E+03  0.00000000000E+00 0.  1.
         21   -1    0    0  502  503 -0.00000000000E+00 -0.00000000000E+00 -0.86755131028E+03  0.86755131028E+03  0.00000000000E+00 0. -1.
          6    1    1    2  501    0 -0.70350445762E+02  0.78308843080E+01  0.23934651488E+01  0.18693645082E+03  0.17300000000E+03 0.  1.
         -6    1    1    2    0  503  0.70350445762E+02 -0.78308843080E+01 -0.76401307634E+03  0.78654655856E+03  0.17300000000E+03 0. -1.
<mgrwt>
<rscale>  2 0.18692113E+03</rscale>
<asrwt>0</asrwt>
<pdfrwt beam="1">  1       21 0.16297185E-01 0.18692113E+03</pdfrwt>
<pdfrwt beam="2">  1       21 0.13346943E+00 0.18692113E+03</pdfrwt>
<totfact> 0.13687259E+04</totfact>
</mgrwt>
</event>
<event>
 4    1  0.4319182E+000  0.2309887E+03  0.7546771E-02  0.1125946E+00
         21   -1    0    0  501  502  0.00000000000E+00  0.00000000000E+00  0.90841583902E+03  0.90841583902E+03  0.00000000000E+00 0. -1.
         21   -1    0    0  502  503 -0.00000000000E+00 -0.00000000000E+00 -0.59273486687E+02  0.59273486687E+02  0.00000000000E+00 0.  1.
          6    1    1    2  501    0 -0.15251086278E+03 -0.12931752207E+02  0.47068891519E+03  0.52431273909E+03  0.17300000000E+03 0. -1.
         -6    1    1    2    0  503  0.15251086278E+03  0.12931752207E+02  0.37845343714E+03  0.44337658662E+03  0.17300000000E+03 0. -1.
<mgrwt>
<rscale>  2 0.23098873E+03</rscale>
<asrwt>0</asrwt>
<pdfrwt beam="1">  1       21 0.13975627E+00 0.23098873E+03</pdfrwt>
<pdfrwt beam="2">  1       21 0.91189986E-02 0.23098873E+03</pdfrwt>
<totfact> 0.33569736E+04</totfact>
</mgrwt>
</event>
<event>
 4    1  0.4319182E+000  0.3654246E+03  0.7546771E-02  0.1056456E+00
         21   -1    0    0  501  502  0.00000000000E+00  0.00000000000E+00  0.11235524264E+04  0.11235524264E+04  0.00000000000E+00 0.  1.
         21   -1    0    0  502  503 -0.00000000000E+00 -0.00000000000E+00 -0.17491260253E+03  0.17491260253E+03  0.00000000000E+00 0. -1.
          6    1    1    2  501    0  0.11527581517E+03  0.30052885099E+03  0.84187568001E+03  0.91776345778E+03  0.17300000000E+03 0. -1.
         -6    1    1    2    0  503 -0.11527581517E+03 -0.30052885099E+03  0.10676414382E+03  0.38070157111E+03  0.17300000000E+03 0. -1.
<mgrwt>
<rscale>  2 0.36542455E+03</rscale>
<asrwt>0</asrwt>
<pdfrwt beam="1">  1       21 0.17285422E+00 0.36542455E+03</pdfrwt>
<pdfrwt beam="2">  1       21 0.26909632E-01 0.36542455E+03</pdfrwt>
<totfact> 0.23778929E+03</totfact>
</mgrwt>
</event>
<event>
 4    1  0.4319182E+000  0.1918291E+03  0.7546771E-02  0.1156822E+00
         21   -1    0    0  503  502  0.00000000000E+00  0.00000000000E+00  0.21909517022E+03  0.21909517022E+03  0.00000000000E+00 0.  1.
         21   -1    0    0  501  503 -0.00000000000E+00 -0.00000000000E+00 -0.17300660364E+03  0.17300660364E+03  0.00000000000E+00 0.  1.
          6    1    1    2  501    0 -0.74756878267E+02  0.35788599622E+02  0.56540526697E+02  0.19998811432E+03  0.17300000000E+03 0.  1.
         -6    1    1    2    0  502  0.74756878267E+02 -0.35788599622E+02 -0.10451960113E+02  0.19211365954E+03  0.17300000000E+03 0.  1.
<mgrwt>
<rscale>  2 0.19182913E+03</rscale>
<asrwt>0</asrwt>
<pdfrwt beam="1">  1       21 0.33706949E-01 0.19182913E+03</pdfrwt>
<pdfrwt beam="2">  1       21 0.26616401E-01 0.19182913E+03</pdfrwt>
<totfact> 0.11393835E+05</totfact>
</mgrwt>
</event>
<event>
 4    1  0.4319182E+000  0.1775581E+03  0.7546771E-02  0.1170187E+00
         21   -1    0    0  501  502  0.00000000000E+00  0.00000000000E+00  0.83343607925E+02  0.83343607925E+02  0.00000000000E+00 0. -1.
         21   -1    0    0  502  503 -0.00000000000E+00 -0.00000000000E+00 -0.10943471342E+04  0.10943471342E+04  0.00000000000E+00 0.  1.
          6    1    1    2  501    0  0.36530375129E+02  0.16230473585E+02 -0.29178535383E+02  0.17993966630E+03  0.17300000000E+03 0. -1.
         -6    1    1    2    0  503 -0.36530375129E+02 -0.16230473585E+02 -0.98182499093E+03  0.99775107587E+03  0.17300000000E+03 0.  1.
<mgrwt>
<rscale>  2 0.17755815E+03</rscale>
<asrwt>0</asrwt>
<pdfrwt beam="1">  1       21 0.12822094E-01 0.17755815E+03</pdfrwt>
<pdfrwt beam="2">  1       21 0.16836109E+00 0.17755815E+03</pdfrwt>
<totfact> 0.11554291E+04</totfact>
</mgrwt>
</event>
<event>
 4    1  0.4319182E+000  0.1768857E+03  0.7546771E-02  0.1170852E+00
         21   -1    0    0  503  502  0.00000000000E+00  0.00000000000E+00  0.24773292980E+02  0.24773292980E+02  0.00000000000E+00 0. -1.
         21   -1    0    0  501  503 -0.00000000000E+00 -0.00000000000E+00 -0.12938510635E+04  0.12938510635E+04  0.00000000000E+00 0.  1.
          6    1    1    2  501    0  0.49839444259E+00 -0.36868804309E+02 -0.73635483479E+03  0.75730244938E+03  0.17300000000E+03 0.  1.
         -6    1    1    2    0  502 -0.49839444259E+00  0.36868804309E+02 -0.53272293571E+03  0.56132190707E+03  0.17300000000E+03 0. -1.
<mgrwt>
<rscale>  2 0.17688572E+03</rscale>
<asrwt>0</asrwt>
<pdfrwt beam="1">  1       21 0.38112745E-02 0.17688572E+03</pdfrwt>
<pdfrwt beam="2">  1       21 0.19905408E+00 0.17688572E+03</pdfrwt>
<totfact> 0.58442420E+04</totfact>
</mgrwt>
</event>
<event>
 4    1  0.4319182E+000  0.2580032E+03  0.7546771E-02  0.1108349E+00
         21   -1    0    0  503  502  0.00000000000E+00  0.00000000000E+00  0.61720720659E+03  0.61720720659E+03  0.00000000000E+00 0. -1.
         21   -1    0    0  501  503 -0.00000000000E+00 -0.00000000000E+00 -0.13189078921E+03  0.13189078921E+03  0.00000000000E+00 0.  1.
          6    1    1    2  501    0  0.17521821967E+03 -0.77040458972E+02  0.82747399453E+02  0.27094794507E+03  0.17300000000E+03 0.  1.
         -6    1    1    2    0  502 -0.17521821967E+03  0.77040458972E+02  0.40256901792E+03  0.47815005073E+03  0.17300000000E+03 0. -1.
<mgrwt>
<rscale>  2 0.25800321E+03</rscale>
<asrwt>0</asrwt>
<pdfrwt beam="1">  1       21 0.94954953E-01 0.25800321E+03</pdfrwt>
<pdfrwt beam="2">  1       21 0.20290891E-01 0.25800321E+03</pdfrwt>
<totfact> 0.20100341E+04</totfact>
</mgrwt>
</event>
<event>
 4    1  0.4319182E+000  0.3803590E+03  0.7546771E-02  0.1050801E+00
         21   -1    0    0  503  502  0.00000000000E+00  0.00000000000E+00  0.54551519315E+03  0.54551519315E+03  0.00000000000E+00 0. -1.
         21   -1    0    0  501  503 -0.00000000000E+00 -0.00000000000E+00 -0.64691716861E+03  0.64691716861E+03  0.00000000000E+00 0.  1.
          6    1    1    2  501    0  0.16902227719E+03  0.29355657714E+03 -0.50868234563E+03  0.63516196590E+03  0.17300000000E+03 0.  1.
         -6    1    1    2    0  502 -0.16902227719E+03 -0.29355657714E+03  0.40728037018E+03  0.55727039586E+03  0.17300000000E+03 0. -1.
<mgrwt>
<rscale>  2 0.38035903E+03</rscale>
<asrwt>0</asrwt>
<pdfrwt beam="1">  1       21 0.83925415E-01 0.38035903E+03</pdfrwt>
<pdfrwt beam="2">  1       21 0.99525718E-01 0.38035903E+03</pdfrwt>
<totfact> 0.89633008E+02</totfact>
</mgrwt>
</event>
<event>
 4    1  0.4319182E+000  0.2760043E+03  0.7546771E-02  0.1097892E+00
         21   -1    0    0  503  502  0.00000000000E+00  0.00000000000E+00  0.32680372972E+03  0.32680372972E+03  0.00000000000E+00 0. -1.
         21   -1    0    0  501  503 -0.00000000000E+00 -0.00000000000E+00 -0.34044106977E+03  0.34044106977E+03  0.00000000000E+00 0. -1.
          6    1    1    2  501    0 -0.18418224998E+03  0.11102374343E+03 -0.19415179043E+03  0.33745116764E+03  0.17300000000E+03 0. -1.
         -6    1    1    2    0  502  0.18418224998E+03 -0.11102374343E+03  0.18051445037E+03  0.32979363185E+03  0.17300000000E+03 0. -1.
<mgrwt>
<rscale>  2 0.27600430E+03</rscale>
<asrwt>0</asrwt>
<pdfrwt beam="1">  1       21 0.50277497E-01 0.27600430E+03</pdfrwt>
<pdfrwt beam="2">  1       21 0.52375549E-01 0.27600430E+03</pdfrwt>
<totfact> 0.12423529E+04</totfact>
</mgrwt>
</event>
<event>
 4    1  0.4319182E+000  0.2053368E+03  0.7546771E-02  0.1145313E+00
         21   -1    0    0  501  502  0.00000000000E+00  0.00000000000E+00  0.18576357978E+04  0.18576357978E+04  0.00000000000E+00 0. -1.
         21   -1    0    0  502  503 -0.00000000000E+00 -0.00000000000E+00 -0.22710447228E+02  0.22710447228E+02  0.00000000000E+00 0.  1.
          6    1    1    2  501    0 -0.58967089806E+02  0.93579354508E+02  0.89479367557E+03  0.91805170612E+03  0.17300000000E+03 0. -1.
         -6    1    1    2    0  503  0.58967089806E+02 -0.93579354508E+02  0.94013167501E+03  0.96229453891E+03  0.17300000000E+03 0.  1.
<mgrwt>
<rscale>  2 0.20533683E+03</rscale>
<asrwt>0</asrwt>
<pdfrwt beam="1">  1       21 0.28579000E+00 0.20533683E+03</pdfrwt>
<pdfrwt beam="2">  1       21 0.34939164E-02 0.20533683E+03</pdfrwt>
<totfact> 0.20004502E+04</totfact>
</mgrwt>
</event>
<event>
 4    1  0.4319182E+000  0.1805959E+03  0.7546771E-02  0.1167228E+00
         21   -1    0    0  501  502  0.00000000000E+00  0.00000000000E+00  0.10211359702E+04  0.10211359702E+04  0.00000000000E+00 0. -1.
         21   -1    0    0  502  503 -0.00000000000E+00 -0.00000000000E+00 -0.51467720287E+02  0.51467720287E+02  0.00000000000E+00 0. -1.
          6    1    1    2  501    0 -0.21441053016E+02 -0.47182366660E+02  0.81518057926E+03  0.83494566965E+03  0.17300000000E+03 0. -1.
         -6    1    1    2    0  503  0.21441053016E+02  0.47182366660E+02  0.15448767064E+03  0.23765802081E+03  0.17300000000E+03 0. -1.
<mgrwt>
<rscale>  2 0.18059594E+03</rscale>
<asrwt>0</asrwt>
<pdfrwt beam="1">  1       21 0.15709783E+00 0.18059594E+03</pdfrwt>
<pdfrwt beam="2">  1       21 0.79181116E-02 0.18059594E+03</pdfrwt>
<totfact> 0.32546349E+04</totfact>
</mgrwt>
</event>
<event>
 4    1  0.4319182E+000  0.1843253E+03  0.7546771E-02  0.1163681E+00
         21   -1    0    0  503  502  0.00000000000E+00  0.00000000000E+00  0.29918801816E+02  0.29918801816E+02  0.00000000000E+00 0. -1.
         21   -1    0    0  501  503 -0.00000000000E+00 -0.00000000000E+00 -0.12206195358E+04  0.12206195358E+04  0.00000000000E+00 0. -1.
          6    1    1    2  501    0 -0.29330673008E+02  0.56449299607E+02 -0.76036956587E+03  0.78239228556E+03  0.17300000000E+03 0. -1.
         -6    1    1    2    0  502  0.29330673008E+02 -0.56449299607E+02 -0.43033116812E+03  0.46814605206E+03  0.17300000000E+03 0. -1.
<mgrwt>
<rscale>  2 0.18432529E+03</rscale>
<asrwt>0</asrwt>
<pdfrwt beam="1">  1       21 0.46028932E-02 0.18432529E+03</pdfrwt>
<pdfrwt beam="2">  1       21 0.18778760E+00 0.18432529E+03</pdfrwt>
<totfact> 0.50173861E+04</totfact>
</mgrwt>
</event>
<event>
 4    1  0.4319182E+000  0.2680591E+03  0.7546771E-02  0.1102396E+00
         21   -1    0    0  501  502  0.00000000000E+00  0.00000000000E+00  0.11526551234E+03  0.11526551234E+03  0.00000000000E+00 0. -1.
         21   -1    0    0  502  503 -0.00000000000E+00 -0.00000000000E+00 -0.13615200209E+04  0.13615200209E+04  0.00000000000E+00 0.  1.
          6    1    1    2  501    0  0.18599699137E+03  0.85625873111E+02 -0.79450107047E+02  0.27958539027E+03  0.17300000000E+03 0. -1.
         -6    1    1    2    0  503 -0.18599699137E+03 -0.85625873111E+02 -0.11668044015E+04  0.11972001429E+04  0.17300000000E+03 0.  1.
<mgrwt>
<rscale>  2 0.26805908E+03</rscale>
<asrwt>0</asrwt>
<pdfrwt beam="1">  1       21 0.17733155E-01 0.26805908E+03</pdfrwt>
<pdfrwt beam="2">  1       21 0.20946463E+00 0.26805908E+03</pdfrwt>
<totfact> 0.31634354E+03</totfact>
</mgrwt>
</event>
<event>
 4    1  0.4319182E+000  0.3402266E+03  0.7546771E-02  0.1066699E+00
         21   -1    0    0  503  502  0.00000000000E+00  0.00000000000E+00  0.10466313171E+04  0.10466313171E+04  0.00000000000E+00 0. -1.
         21   -1    0    0  501  503 -0.00000000000E+00 -0.00000000000E+00 -0.12372363882E+03  0.12372363882E+03  0.00000000000E+00 0. -1.
          6    1    1    2  501    0 -0.26002680170E+03 -0.13494886403E+03  0.27084615549E+03  0.43486983506E+03  0.17300000000E+03 0. -1.
         -6    1    1    2    0  502  0.26002680170E+03  0.13494886403E+03  0.65206152277E+03  0.73548512084E+03  0.17300000000E+03 0. -1.
<mgrwt>
<rscale>  2 0.34022659E+03</rscale>
<asrwt>0</asrwt>
<pdfrwt beam="1">  1       21 0.16102020E+00 0.34022659E+03</pdfrwt>
<pdfrwt beam="2">  1       21 0.19034407E-01 0.34022659E+03</pdfrwt>
<totfact> 0.57026176E+03</totfact>
</mgrwt>
</event>
<event>
 4    1  0.4319182E+000  0.1935907E+03  0.7546771E-02  0.1155262E+00
         21   -1    0    0  503  502  0.00000000000E+00  0.00000000000E+00  0.14074421178E+03  0.14074421178E+03  0.00000000000E+00 0. -1.
         21   -1    0    0  501  503 -0.00000000000E+00 -0.00000000000E+00 -0.37033947515E+03  0.37033947515E+03  0.00000000000E+00 0. -1.
          6    1    1    2  501    0  0.58083492605E+02 -0.64611659677E+02 -0.25025510934E+03  0.31639370795E+03  0.17300000000E+03 0. -1.
         -6    1    1    2    0  502 -0.58083492605E+02  0.64611659677E+02  0.20659845969E+02  0.19468997898E+03  0.17300000000E+03 0. -1.
<mgrwt>
<rscale>  2 0.19359070E+03</rscale>
<asrwt>0</asrwt>
<pdfrwt beam="1">  1       21 0.21652956E-01 0.19359070E+03</pdfrwt>
<pdfrwt beam="2">  1       21 0.56975304E-01 0.19359070E+03</pdfrwt>
<totfact> 0.57544245E+04</totfact>
</mgrwt>
</event>
<event>
 4    1  0.4319182E+000  0.2595107E+03  0.7546771E-02  0.1107438E+00
         21   -1    0    0  501  502  0.00000000000E+00  0.00000000000E+00  0.52571045143E+03  0.52571045143E+03  0.00000000000E+00 0. -1.
         21   -1    0    0  502  503 -0.00000000000E+00 -0.00000000000E+00 -0.19666333662E+03  0.19666333662E+03  0.00000000000E+00 0.  1.
          6    1    1    2  501    0  0.18464226061E+03  0.57654684090E+02  0.37778006251E+03  0.45832696040E+03  0.17300000000E+03 0. -1.
         -6    1    1    2    0  503 -0.18464226061E+03 -0.57654684090E+02 -0.48732947708E+02  0.26404682765E+03  0.17300000000E+03 0.  1.
<mgrwt>
<rscale>  2 0.25951075E+03</rscale>
<asrwt>0</asrwt>
<pdfrwt beam="1">  1       21 0.80878530E-01 0.25951075E+03</pdfrwt>
<pdfrwt beam="2">  1       21 0.30255898E-01 0.25951075E+03</pdfrwt>
<totfact> 0.13525784E+04</totfact>
</mgrwt>
</event>
<event>
 4    1  0.4319182E+000  0.1842021E+03  0.7546771E-02  0.1163797E+00
         21   -1    0    0  501  502  0.00000000000E+00  0.00000000000E+00  0.15255122452E+04  0.15255122452E+04  0.00000000000E+00 0. -1.
         21   -1    0    0  502  503 -0.00000000000E+00 -0.00000000000E+00 -0.33355278099E+02  0.33355278099E+02  0.00000000000E+00 0. -1.
          6    1    1    2  501    0 -0.39069584054E+02  0.49749126119E+02  0.11959810549E+04  0.12100830928E+04  0.17300000000E+03 0. -1.
         -6    1    1    2    0  503  0.39069584054E+02 -0.49749126119E+02  0.29617591221E+03  0.34878443044E+03  0.17300000000E+03 0. -1.
<mgrwt>
<rscale>  2 0.18420208E+03</rscale>
<asrwt>0</asrwt>
<pdfrwt beam="1">  1       21 0.23469414E+00 0.18420208E+03</pdfrwt>
<pdfrwt beam="2">  1       21 0.51315824E-02 0.18420208E+03</pdfrwt>
<totfact> 0.21243926E+04</totfact>
</mgrwt>
</event>
<event>
 4    1  0.4319182E+000  0.2391204E+03  0.7546771E-02  0.1120380E+00
         21   -1    0    0  503  502  0.00000000000E+00  0.00000000000E+00  0.32350045539E+03  0.32350045539E+03  0.00000000000E+00 0.  1.
         21   -1    0    0  501  503 -0.00000000000E+00 -0.00000000000E+00 -0.18902426548E+03  0.18902426548E+03  0.00000000000E+00 0.  1.
          6    1    1    2  501    0 -0.46890417702E+02  0.15827468797E+03  0.19355334271E+01  0.23912828025E+03  0.17300000000E+03 0.  1.
         -6    1    1    2    0  502  0.46890417702E+02 -0.15827468797E+03  0.13254065648E+03  0.27339644062E+03  0.17300000000E+03 0.  1.
<mgrwt>
<rscale>  2 0.23912045E+03</rscale>
<asrwt>0</asrwt>
<pdfrwt beam="1">  1       21 0.49769301E-01 0.23912045E+03</pdfrwt>
<pdfrwt beam="2">  1       21 0.29080656E-01 0.23912045E+03</pdfrwt>
<totfact> 0.42609853E+04</totfact>
</mgrwt>
</event>
<event>
 4    1  0.4319182E+000  0.1822379E+03  0.7546771E-02  0.1165655E+00
         21   -1    0    0  501  502  0.00000000000E+00  0.00000000000E+00  0.23099072493E+03  0.23099072493E+03  0.00000000000E+00 0. -1.
         21   -1    0    0  502  503 -0.00000000000E+00 -0.00000000000E+00 -0.21349042358E+03  0.21349042358E+03  0.00000000000E+00 0. -1.
          6    1    1    2  501    0  0.47980025029E+02  0.31298326499E+02  0.13574874158E+03  0.22724081694E+03  0.17300000000E+03 0. -1.
         -6    1    1    2    0  503 -0.47980025029E+02 -0.31298326499E+02 -0.11824844022E+03  0.21724033157E+03  0.17300000000E+03 0. -1.
<mgrwt>
<rscale>  2 0.18223794E+03</rscale>
<asrwt>0</asrwt>
<pdfrwt beam="1">  1       21 0.35537034E-01 0.18223794E+03</pdfrwt>
<pdfrwt beam="2">  1       21 0.32844681E-01 0.18223794E+03</pdfrwt>
<totfact> 0.68429700E+04</totfact>
</mgrwt>
</event>
<event>
 4    1  0.4319182E+000  0.2063851E+03  0.7546771E-02  0.1144461E+00
         21   -1    0    0  503  502  0.00000000000E+00  0.00000000000E+00  0.21268065092E+03  0.21268065092E+03  0.00000000000E+00 0.  1.
         21   -1    0    0  501  503 -0.00000000000E+00 -0.00000000000E+00 -0.20766948555E+03  0.20766948555E+03  0.00000000000E+00 0.  1.
          6    1    1    2  501    0 -0.32602654850E+02  0.10771657448E+03  0.42163007650E+02  0.21064784056E+03  0.17300000000E+03 0.  1.
         -6    1    1    2    0  502  0.32602654850E+02 -0.10771657448E+03 -0.37151842281E+02  0.20970229590E+03  0.17300000000E+03 0.  1.
<mgrwt>
<rscale>  2 0.20638506E+03</rscale>
<asrwt>0</asrwt>
<pdfrwt beam="1">  1       21 0.32720100E-01 0.20638506E+03</pdfrwt>
<pdfrwt beam="2">  1       21 0.31949152E-01 0.20638506E+03</pdfrwt>
<totfact> 0.84212824E+04</totfact>
</mgrwt>
</event>
<event>
 4    1  0.4319182E+000  0.2476823E+03  0.7546771E-02  0.1114778E+00
         21   -1    0    0  501  502  0.00000000000E+00  0.00000000000E+00  0.55252529223E+03  0.55252529223E+03  0.00000000000E+00 0.  1.
         21   -1    0    0  502  503 -0.00000000000E+00 -0.00000000000E+00 -0.32293876899E+03  0.32293876899E+03  0.00000000000E+00 0. -1.
          6    1    1    2  501    0  0.11541360016E+03  0.13452590178E+03  0.46938072507E+03  0.53072100243E+03  0.17300000000E+03 0.  1.
         -6    1    1    2    0  503 -0.11541360016E+03 -0.13452590178E+03 -0.23979420183E+03  0.34474305879E+03  0.17300000000E+03 0. -1.
<mgrwt>
<rscale>  2 0.24768229E+03</rscale>
<asrwt>0</asrwt>
<pdfrwt beam="1">  1       21 0.85003891E-01 0.24768229E+03</pdfrwt>
<pdfrwt beam="2">  1       21 0.49682888E-01 0.24768229E+03</pdfrwt>
<totfact> 0.44458575E+03</totfact>
</mgrwt>
</event>
<event>
 4    1  0.4319182E+000  0.1966796E+03  0.7546771E-02  0.1152571E+00
         21   -1    0    0  503  502  0.00000000000E+00  0.00000000000E+00  0.26209903766E+03  0.26209903766E+03  0.00000000000E+00 0. -1.
         21   -1    0    0  501  503 -0.00000000000E+00 -0.00000000000E+00 -0.14869685418E+03  0.14869685418E+03  0.00000000000E+00 0. -1.
          6    1    1    2  501    0 -0.87008682794E+02  0.34399777597E+02  0.38969578819E+02  0.20050307642E+03  0.17300000000E+03 0. -1.
         -6    1    1    2    0  502  0.87008682794E+02 -0.34399777597E+02  0.74432604669E+02  0.21029281542E+03  0.17300000000E+03 0. -1.
<mgrwt>
<rscale>  2 0.19667958E+03</rscale>
<asrwt>0</asrwt>
<pdfrwt beam="1">  1       21 0.40322929E-01 0.19667958E+03</pdfrwt>
<pdfrwt beam="2">  1       21 0.22876439E-01 0.19667958E+03</pdfrwt>
<totfact> 0.10609594E+05</totfact>
</mgrwt>
</event>
<event>
 4    1  0.4319182E+000  0.2780728E+03  0.7546771E-02  0.1096746E+00
         21   -1    0    0  501  502  0.00000000000E+00  0.00000000000E+00  0.42958952675E+03  0.42958952675E+03  0.00000000000E+00 0. -1.
         21   -1    0    0  502  503 -0.00000000000E+00 -0.00000000000E+00 -0.24300558340E+03  0.24300558340E+03  0.00000000000E+00 0.  1.
          6    1    1    2  501    0  0.10987236748E+03  0.18794558493E+03 -0.77953153568E+02  0.28879261449E+03  0.17300000000E+03 0.  1.
         -6    1    1    2    0  503 -0.10987236748E+03 -0.18794558493E+03  0.26453709691E+03  0.38380249566E+03  0.17300000000E+03 0. -1.
<mgrwt>
<rscale>  2 0.27807280E+03</rscale>
<asrwt>0</asrwt>
<pdfrwt beam="1">  1       21 0.66090696E-01 0.27807280E+03</pdfrwt>
<pdfrwt beam="2">  1       21 0.37385474E-01 0.27807280E+03</pdfrwt>
<totfact> 0.13832258E+04</totfact>
</mgrwt>
</event>
<event>
 4    1  0.4319182E+000  0.2345065E+03  0.7546771E-02  0.1123507E+00
         21   -1    0    0  501  502  0.00000000000E+00  0.00000000000E+00  0.51461009966E+02  0.51461009966E+02  0.00000000000E+00 0. -1.
         21   -1    0    0  502  503 -0.00000000000E+00 -0.00000000000E+00 -0.13124096262E+04  0.13124096262E+04  0.00000000000E+00 0.  1.
          6    1    1    2  501    0 -0.12394003768E+03  0.98504763429E+02 -0.33657551903E+03  0.41021506721E+03  0.17300000000E+03 0. -1.
         -6    1    1    2    0  503  0.12394003768E+03 -0.98504763429E+02 -0.92437309719E+03  0.95365556894E+03  0.17300000000E+03 0.  1.
<mgrwt>
<rscale>  2 0.23450655E+03</rscale>
<asrwt>0</asrwt>
<pdfrwt beam="1">  1       21 0.79170788E-02 0.23450655E+03</pdfrwt>
<pdfrwt beam="2">  1       21 0.20190916E+00 0.23450655E+03</pdfrwt>
<totfact> 0.15463421E+04</totfact>
</mgrwt>
</event>
<event>
 4    1  0.4319182E+000  0.1755542E+03  0.7546771E-02  0.1172176E+00
         21   -1    0    0  503  502  0.00000000000E+00  0.00000000000E+00  0.37534692934E+02  0.37534692934E+02  0.00000000000E+00 0.  1.
         21   -1    0    0  501  503 -0.00000000000E+00 -0.00000000000E+00 -0.86014183080E+03  0.86014183080E+03  0.00000000000E+00 0.  1.
          6    1    1    2  501    0 -0.29734705568E+02  0.24765776882E+01 -0.50694292159E+03  0.53647964724E+03  0.17300000000E+03 0. -1.
         -6    1    1    2    0  502  0.29734705568E+02 -0.24765776882E+01 -0.31566421628E+03  0.36119687649E+03  0.17300000000E+03 0. -1.
<mgrwt>
<rscale>  2 0.17555423E+03</rscale>
<asrwt>0</asrwt>
<pdfrwt beam="1">  1       21 0.57745690E-02 0.17555423E+03</pdfrwt>
<pdfrwt beam="2">  1       21 0.13232949E+00 0.17555423E+03</pdfrwt>
<totfact> 0.87704560E+04</totfact>
</mgrwt>
</event>
<event>
 4    1  0.4319182E+000  0.2635007E+03  0.7546771E-02  0.1105058E+00
         21   -1    0    0  501  502  0.00000000000E+00  0.00000000000E+00  0.13268197980E+04  0.13268197980E+04  0.00000000000E+00 0.  1.
         21   -1    0    0  502  503 -0.00000000000E+00 -0.00000000000E+00 -0.58636049585E+02  0.58636049585E+02  0.00000000000E+00 0. -1.
          6    1    1    2  501    0  0.18636262151E+03  0.69084049169E+02  0.40691973114E+03  0.48478479776E+03  0.17300000000E+03 0.  1.
         -6    1    1    2    0  503 -0.18636262151E+03 -0.69084049169E+02  0.86126401730E+03  0.90067104986E+03  0.17300000000E+03 0. -1.
<mgrwt>
<rscale>  2 0.26350073E+03</rscale>
<asrwt>0</asrwt>
<pdfrwt beam="1">  1       21 0.20412610E+00 0.26350073E+03</pdfrwt>
<pdfrwt beam="2">  1       21 0.90209317E-02 0.26350073E+03</pdfrwt>
<totfact> 0.11677000E+04</totfact>
</mgrwt>
</event>
<event>
 4    1  0.4319182E+000  0.2029300E+03  0.7546771E-02  0.1147290E+00
         21   -1    0    0  503  502  0.00000000000E+00  0.00000000000E+00  0.10292891684E+04  0.10292891684E+04  0.00000000000E+00 0. -1.
         21   -1    0    0  501  503 -0.00000000000E+00 -0.00000000000E+00 -0.61164124259E+02  0.61164124259E+02  0.00000000000E+00 0.  1.
          6    1    1    2  501    0 -0.42292351022E+01  0.10598910405E+03  0.16340678678E+03  0.26054242374E+03  0.17300000000E+03 0.  1.
         -6    1    1    2    0  502  0.42292351022E+01 -0.10598910405E+03  0.80471825736E+03  0.82991086891E+03  0.17300000000E+03 0. -1.
<mgrwt>
<rscale>  2 0.20292998E+03</rscale>
<asrwt>0</asrwt>
<pdfrwt beam="1">  1       21 0.15835217E+00 0.20292998E+03</pdfrwt>
<pdfrwt beam="2">  1       21 0.94098661E-02 0.20292998E+03</pdfrwt>
<totfact> 0.23218443E+04</totfact>
</mgrwt>
</event>
<event>
 4    1  0.4319182E+000  0.2110552E+03  0.7546771E-02  0.1140733E+00
         21   -1    0    0  501  502  0.00000000000E+00  0.00000000000E+00  0.11432386483E+04  0.11432386483E+04  0.00000000000E+00 0. -1.
         21   -1    0    0  502  503 -0.00000000000E+00 -0.00000000000E+00 -0.88937716967E+02  0.88937716967E+02  0.00000000000E+00 0.  1.
          6    1    1    2  501    0  0.97608492075E+02 -0.71329292785E+02  0.98897181301E+03  0.10112415798E+04  0.17300000000E+03 0. -1.
         -6    1    1    2    0  503 -0.97608492075E+02  0.71329292785E+02  0.65329118304E+02  0.22093478547E+03  0.17300000000E+03 0.  1.
<mgrwt>
<rscale>  2 0.21105517E+03</rscale>
<asrwt>0</asrwt>
<pdfrwt beam="1">  1       21 0.17588286E+00 0.21105517E+03</pdfrwt>
<pdfrwt beam="2">  1       21 0.13682726E-01 0.21105517E+03</pdfrwt>
<totfact> 0.88686268E+03</totfact>
</mgrwt>
</event>
<event>
 4    1  0.4319182E+000  0.2095094E+03  0.7546771E-02  0.1141955E+00
         21   -1    0    0  501  502  0.00000000000E+00  0.00000000000E+00  0.12361896914E+04  0.12361896914E+04  0.00000000000E+00 0. -1.
         21   -1    0    0  502  503 -0.00000000000E+00 -0.00000000000E+00 -0.41080130743E+02  0.41080130743E+02  0.00000000000E+00 0. -1.
          6    1    1    2  501    0 -0.20494044944E+02 -0.11638374881E+03  0.83276776255E+03  0.85871784028E+03  0.17300000000E+03 0. -1.
         -6    1    1    2    0  503  0.20494044944E+02  0.11638374881E+03  0.36234179806E+03  0.41855198182E+03  0.17300000000E+03 0. -1.
<mgrwt>
<rscale>  2 0.20950939E+03</rscale>
<asrwt>0</asrwt>
<pdfrwt beam="1">  1       21 0.19018300E+00 0.20950939E+03</pdfrwt>
<pdfrwt beam="2">  1       21 0.63200211E-02 0.20950939E+03</pdfrwt>
<totfact> 0.27728745E+04</totfact>
</mgrwt>
</event>
<event>
 4    1  0.4319182E+000  0.2222150E+03  0.7546771E-02  0.1132242E+00
         21   -1    0    0  503  502  0.00000000000E+00  0.00000000000E+00  0.41232977718E+03  0.41232977718E+03  0.00000000000E+00 0. -1.
         21   -1    0    0  501  503 -0.00000000000E+00 -0.00000000000E+00 -0.14916211883E+03  0.14916211883E+03  0.00000000000E+00 0. -1.
          6    1    1    2  501    0  0.20567775902E+02  0.13794013262E+03  0.69335515109E+01  0.22232316058E+03  0.17300000000E+03 0. -1.
         -6    1    1    2    0  502 -0.20567775902E+02 -0.13794013262E+03  0.25623410684E+03  0.33916873544E+03  0.17300000000E+03 0. -1.
<mgrwt>
<rscale>  2 0.22221502E+03</rscale>
<asrwt>0</asrwt>
<pdfrwt beam="1">  1       21 0.63435350E-01 0.22221502E+03</pdfrwt>
<pdfrwt beam="2">  1       21 0.22948018E-01 0.22221502E+03</pdfrwt>
<totfact> 0.40358316E+04</totfact>
</mgrwt>
</event>
<event>
 4    1  0.4319182E+000  0.1903723E+03  0.7546771E-02  0.1158126E+00
         21   -1    0    0  501  502  0.00000000000E+00  0.00000000000E+00  0.40185182659E+03  0.40185182659E+03  0.00000000000E+00 0. -1.
         21   -1    0    0  502  503 -0.00000000000E+00 -0.00000000000E+00 -0.10728024480E+03  0.10728024480E+03  0.00000000000E+00 0.  1.
          6    1    1    2  501    0 -0.78409009399E+02 -0.12831793841E+02  0.24890097836E+03  0.31335814129E+03  0.17300000000E+03 0. -1.
         -6    1    1    2    0  503  0.78409009399E+02  0.12831793841E+02  0.45670603439E+02  0.19577393010E+03  0.17300000000E+03 0.  1.
<mgrwt>
<rscale>  2 0.19037234E+03</rscale>
<asrwt>0</asrwt>
<pdfrwt beam="1">  1       21 0.61823357E-01 0.19037234E+03</pdfrwt>
<pdfrwt beam="2">  1       21 0.16504653E-01 0.19037234E+03</pdfrwt>
<totfact> 0.80102337E+04</totfact>
</mgrwt>
</event>
<event>
 4    1  0.4319182E+000  0.1870474E+03  0.7546771E-02  0.1161152E+00
         21   -1    0    0  503  502  0.00000000000E+00  0.00000000000E+00  0.60649514959E+03  0.60649514959E+03  0.00000000000E+00 0.  1.
         21   -1    0    0  501  503 -0.00000000000E+00 -0.00000000000E+00 -0.63146098082E+02  0.63146098082E+02  0.00000000000E+00 0.  1.
          6    1    1    2  501    0  0.60841474649E+02  0.36824694211E+02  0.37012294316E+03  0.41470198480E+03  0.17300000000E+03 0. -1.
         -6    1    1    2    0  502 -0.60841474649E+02 -0.36824694211E+02  0.17322610834E+03  0.25493926287E+03  0.17300000000E+03 0. -1.
<mgrwt>
<rscale>  2 0.18704744E+03</rscale>
<asrwt>0</asrwt>
<pdfrwt beam="1">  1       21 0.93306942E-01 0.18704744E+03</pdfrwt>
<pdfrwt beam="2">  1       21 0.97147848E-02 0.18704744E+03</pdfrwt>
<totfact> 0.82699568E+04</totfact>
</mgrwt>
</event>
<event>
 4    1  0.4319182E+000  0.2241867E+03  0.7546771E-02  0.1130800E+00
         21   -1    0    0  501  502  0.00000000000E+00  0.00000000000E+00  0.76771718536E+03  0.76771718536E+03  0.00000000000E+00 0.  1.
         21   -1    0    0  502  503 -0.00000000000E+00 -0.00000000000E+00 -0.73505415363E+02  0.73505415363E+02  0.00000000000E+00 0.  1.
          6    1    1    2  501    0  0.12825266579E+03  0.62305302495E+02  0.48620427771E+03  0.53540106151E+03  0.17300000000E+03 0.  1.
         -6    1    1    2    0  503 -0.12825266579E+03 -0.62305302495E+02  0.20800749228E+03  0.30582153921E+03  0.17300000000E+03 0.  1.
<mgrwt>
<rscale>  2 0.22418675E+03</rscale>
<asrwt>0</asrwt>
<pdfrwt beam="1">  1       21 0.11811033E+00 0.22418675E+03</pdfrwt>
<pdfrwt beam="2">  1       21 0.11308526E-01 0.22418675E+03</pdfrwt>
<totfact> 0.35218506E+04</totfact>
</mgrwt>
</event>
<event>
 4    1  0.4319182E+000  0.1805747E+03  0.7546771E-02  0.1167248E+00
         21   -1    0    0  501  502  0.00000000000E+00  0.00000000000E+00  0.23148650584E+03  0.23148650584E+03  0.00000000000E+00 0.  1.
         21   -1    0    0  502  503 -0.00000000000E+00 -0.00000000000E+00 -0.27110780523E+03  0.27110780523E+03  0.00000000000E+00 0.  1.
          6    1    1    2  501    0  0.51394108259E+02 -0.60727490906E+01  0.15437062173E+03  0.23756582561E+03  0.17300000000E+03 0.  1.
         -6    1    1    2    0  503 -0.51394108259E+02  0.60727490906E+01 -0.19399192112E+03  0.26502848546E+03  0.17300000000E+03 0.  1.
<mgrwt>
<rscale>  2 0.18057473E+03</rscale>
<asrwt>0</asrwt>
<pdfrwt beam="1">  1       21 0.35613309E-01 0.18057473E+03</pdfrwt>
<pdfrwt beam="2">  1       21 0.41708893E-01 0.18057473E+03</pdfrwt>
<totfact> 0.42321932E+04</totfact>
</mgrwt>
</event>
<event>
 4    1  0.4319182E+000  0.1795755E+03  0.7546771E-02  0.1168215E+00
         21   -1    0    0  503  502  0.00000000000E+00  0.00000000000E+00  0.11936699490E+04  0.11936699490E+04  0.00000000000E+00 0. -1.
         21   -1    0    0  501  503 -0.00000000000E+00 -0.00000000000E+00 -0.61174770526E+02  0.61174770526E+02  0.00000000000E+00 0. -1.
          6    1    1    2  501    0  0.24555299700E+02  0.41417231527E+02  0.97402476754E+02  0.20429046059E+03  0.17300000000E+03 0. -1.
         -6    1    1    2    0  502 -0.24555299700E+02 -0.41417231527E+02  0.10350927017E+04  0.10505542589E+04  0.17300000000E+03 0. -1.
<mgrwt>
<rscale>  2 0.17957547E+03</rscale>
<asrwt>0</asrwt>
<pdfrwt beam="1">  1       21 0.18364151E+00 0.17957547E+03</pdfrwt>
<pdfrwt beam="2">  1       21 0.94115041E-02 0.17957547E+03</pdfrwt>
<totfact> 0.15682681E+04</totfact>
</mgrwt>
</event>
<event>
 4    1  0.4319182E+000  0.1820226E+03  0.7546771E-02  0.1165860E+00
         21   -1    0    0  501  502  0.00000000000E+00  0.00000000000E+00  0.85591755585E+02  0.85591755585E+02  0.00000000000E+00 0.  1.
         21   -1    0    0  502  503 -0.00000000000E+00 -0.00000000000E+00 -0.62986269970E+03  0.62986269970E+03  0.00000000000E+00 0.  1.
          6    1    1    2  501    0 -0.51774164605E+02  0.22862030221E+02 -0.50048286275E+02  0.18877782578E+03  0.17300000000E+03 0.  1.
         -6    1    1    2    0  503  0.51774164605E+02 -0.22862030221E+02 -0.49422265784E+03  0.52667662951E+03  0.17300000000E+03 0.  1.
<mgrwt>
<rscale>  2 0.18202263E+03</rscale>
<asrwt>0</asrwt>
<pdfrwt beam="1">  1       21 0.13167962E-01 0.18202263E+03</pdfrwt>
<pdfrwt beam="2">  1       21 0.96901957E-01 0.18202263E+03</pdfrwt>
<totfact> 0.44159036E+04</totfact>
</mgrwt>
</event>
<event>
 4    1  0.4319182E+000  0.2008712E+03  0.7546771E-02  0.1149006E+00
         21   -1    0    0  501  502  0.00000000000E+00  0.00000000000E+00  0.63993902923E+03  0.63993902923E+03  0.00000000000E+00 0. -1.
         21   -1    0    0  502  503 -0.00000000000E+00 -0.00000000000E+00 -0.86560380103E+02  0.86560380103E+02  0.00000000000E+00 0. -1.
          6    1    1    2  501    0  0.58752079953E+02  0.83477044057E+02  0.46599346065E+03  0.50744372019E+03  0.17300000000E+03 0. -1.
         -6    1    1    2    0  503 -0.58752079953E+02 -0.83477044057E+02  0.87385188471E+02  0.21905568915E+03  0.17300000000E+03 0. -1.
<mgrwt>
<rscale>  2 0.20087116E+03</rscale>
<asrwt>0</asrwt>
<pdfrwt beam="1">  1       21 0.98452155E-01 0.20087116E+03</pdfrwt>
<pdfrwt beam="2">  1       21 0.13316982E-01 0.20087116E+03</pdfrwt>
<totfact> 0.41276441E+04</totfact>
</mgrwt>
</event>
<event>
 4    1  0.4319182E+000  0.1833393E+03  0.7546771E-02  0.1164610E+00
         21   -1    0    0  503  502  0.00000000000E+00  0.00000000000E+00  0.76317229345E+02  0.76317229345E+02  0.00000000000E+00 0. -1.
         21   -1    0    0  501  503 -0.00000000000E+00 -0.00000000000E+00 -0.57580569455E+03  0.57580569455E+03  0.00000000000E+00 0. -1.
          6    1    1    2  501    0  0.27188478835E+02  0.54268757988E+02 -0.40783722796E+03  0.44715155818E+03  0.17300000000E+03 0. -1.
         -6    1    1    2    0  502 -0.27188478835E+02 -0.54268757988E+02 -0.91651237252E+02  0.20497136572E+03  0.17300000000E+03 0. -1.
<mgrwt>
<rscale>  2 0.18333933E+03</rscale>
<asrwt>0</asrwt>
<pdfrwt beam="1">  1       21 0.11741112E-01 0.18333933E+03</pdfrwt>
<pdfrwt beam="2">  1       21 0.88585491E-01 0.18333933E+03</pdfrwt>
<totfact> 0.66770901E+04</totfact>
</mgrwt>
</event>
<event>
 4    1  0.4319182E+000  0.1908706E+03  0.7546771E-02  0.1157678E+00
         21   -1    0    0  501  502  0.00000000000E+00  0.00000000000E+00  0.33577740090E+03  0.33577740090E+03  0.00000000000E+00 0.  1.
         21   -1    0    0  502  503 -0.00000000000E+00 -0.00000000000E+00 -0.12152432157E+03  0.12152432157E+03  0.00000000000E+00 0.  1.
          6    1    1    2  501    0  0.53562284086E+02  0.60279904239E+02  0.32269638313E+02  0.19357922070E+03  0.17300000000E+03 0. -1.
         -6    1    1    2    0  503 -0.53562284086E+02 -0.60279904239E+02  0.18198344102E+03  0.26372250176E+03  0.17300000000E+03 0. -1.
<mgrwt>
<rscale>  2 0.19087060E+03</rscale>
<asrwt>0</asrwt>
<pdfrwt beam="1">  1       21 0.51658061E-01 0.19087060E+03</pdfrwt>
<pdfrwt beam="2">  1       21 0.18696050E-01 0.19087060E+03</pdfrwt>
<totfact> 0.93215807E+04</totfact>
</mgrwt>
</event>
<event>
 4    1  0.4319182E+000  0.2456446E+03  0.7546771E-02  0.1116089E+00
         21   -1    0    0  501  502  0.00000000000E+00  0.00000000000E+00  0.81773628455E+02  0.81773628455E+02  0.00000000000E+00 0.  1.
         21   -1    0    0  502  503 -0.00000000000E+00 -0.00000000000E+00 -0.13582191743E+04  0.13582191743E+04  0.00000000000E+00 0.  1.
          6    1    1    2  501    0  0.32417188874E+02 -0.17135170798E+03 -0.15164667932E+03  0.28868321273E+03  0.17300000000E+03 0.  1.
         -6    1    1    2    0  503 -0.32417188874E+02  0.17135170798E+03 -0.11247988665E+04  0.11513095900E+04  0.17300000000E+03 0.  1.
<mgrwt>
<rscale>  2 0.24564463E+03</rscale>
<asrwt>0</asrwt>
<pdfrwt beam="1">  1       21 0.12580559E-01 0.24564463E+03</pdfrwt>
<pdfrwt beam="2">  1       21 0.20895678E+00 0.24564463E+03</pdfrwt>
<totfact> 0.60776635E+03</totfact>
</mgrwt>
</event>
<event>
 4    1  0.4319182E+000  0.1983834E+03  0.7546771E-02  0.1151110E+00
         21   -1    0    0  503  502  0.00000000000E+00  0.00000000000E+00  0.49190999377E+03  0.49190999377E+03  0.00000000000E+00 0. -1.
         21   -1    0    0  501  503 -0.00000000000E+00 -0.00000000000E+00 -0.10852515574E+03  0.10852515574E+03  0.00000000000E+00 0. -1.
          6    1    1    2  501    0 -0.91723849743E+02 -0.31839021744E+02  0.37793500465E+02  0.20195132234E+03  0.17300000000E+03 0. -1.
         -6    1    1    2    0  502  0.91723849743E+02  0.31839021744E+02  0.34559133757E+03  0.39848382718E+03  0.17300000000E+03 0. -1.
<mgrwt>
<rscale>  2 0.19838344E+03</rscale>
<asrwt>0</asrwt>
<pdfrwt beam="1">  1       21 0.75678459E-01 0.19838344E+03</pdfrwt>
<pdfrwt beam="2">  1       21 0.16696178E-01 0.19838344E+03</pdfrwt>
<totfact> 0.50108531E+04</totfact>
</mgrwt>
</event>
<event>
 4    1  0.4319182E+000  0.2680121E+03  0.7546771E-02  0.1102423E+00
         21   -1    0    0  503  502  0.00000000000E+00  0.00000000000E+00  0.37048657994E+03  0.37048657994E+03  0.00000000000E+00 0.  1.
         21   -1    0    0  501  503 -0.00000000000E+00 -0.00000000000E+00 -0.24862779080E+03  0.24862779080E+03  0.00000000000E+00 0.  1.
          6    1    1    2  501    0  0.17281501507E+03  0.10971076928E+03 -0.84329764965E+02  0.28096617516E+03  0.17300000000E+03 0.  1.
         -6    1    1    2    0  502 -0.17281501507E+03 -0.10971076928E+03  0.20618855411E+03  0.33814819558E+03  0.17300000000E+03 0.  1.
<mgrwt>
<rscale>  2 0.26801209E+03</rscale>
<asrwt>0</asrwt>
<pdfrwt beam="1">  1       21 0.56997936E-01 0.26801209E+03</pdfrwt>
<pdfrwt beam="2">  1       21 0.38250429E-01 0.26801209E+03</pdfrwt>
<totfact> 0.18307387E+04</totfact>
</mgrwt>
</event>
<event>
 4    1  0.4319182E+000  0.2220651E+03  0.7546771E-02  0.1132353E+00
         21   -1    0    0  501  502  0.00000000000E+00  0.00000000000E+00  0.21016411562E+03  0.21016411562E+03  0.00000000000E+00 0.  1.
         21   -1    0    0  502  503 -0.00000000000E+00 -0.00000000000E+00 -0.27074054288E+03  0.27074054288E+03  0.00000000000E+00 0.  1.
          6    1    1    2  501    0 -0.18717968158E+02  0.13796214582E+03  0.57514710654E+02  0.22939236682E+03  0.17300000000E+03 0.  1.
         -6    1    1    2    0  503  0.18717968158E+02 -0.13796214582E+03 -0.11809113792E+03  0.25151229168E+03  0.17300000000E+03 0.  1.
<mgrwt>
<rscale>  2 0.22206512E+03</rscale>
<asrwt>0</asrwt>
<pdfrwt beam="1">  1       21 0.32332941E-01 0.22206512E+03</pdfrwt>
<pdfrwt beam="2">  1       21 0.41652391E-01 0.22206512E+03</pdfrwt>
<totfact> 0.50368790E+04</totfact>
</mgrwt>
</event>
<event>
 4    1  0.4319182E+000  0.2306307E+03  0.7546771E-02  0.1126197E+00
         21   -1    0    0  501  502  0.00000000000E+00  0.00000000000E+00  0.19146762002E+03  0.19146762002E+03  0.00000000000E+00 0.  1.
         21   -1    0    0  502  503 -0.00000000000E+00 -0.00000000000E+00 -0.28414783636E+03  0.28414783636E+03  0.00000000000E+00 0. -1.
          6    1    1    2  501    0  0.14522605089E+03 -0.46593307383E+02 -0.10808325170E+02  0.23088387134E+03  0.17300000000E+03 0.  1.
         -6    1    1    2    0  503 -0.14522605089E+03  0.46593307383E+02 -0.81871891168E+02  0.24473158504E+03  0.17300000000E+03 0. -1.
<mgrwt>
<rscale>  2 0.23063075E+03</rscale>
<asrwt>0</asrwt>
<pdfrwt beam="1">  1       21 0.29456557E-01 0.23063075E+03</pdfrwt>
<pdfrwt beam="2">  1       21 0.43715052E-01 0.23063075E+03</pdfrwt>
<totfact> 0.54579412E+04</totfact>
</mgrwt>
</event>
<event>
 4    1  0.4319182E+000  0.3085256E+03  0.7546771E-02  0.1081055E+00
         21   -1    0    0  503  502  0.00000000000E+00  0.00000000000E+00  0.25159232933E+03  0.25159232933E+03  0.00000000000E+00 0. -1.
         21   -1    0    0  501  503 -0.00000000000E+00 -0.00000000000E+00 -0.39199156837E+03  0.39199156837E+03  0.00000000000E+00 0. -1.
          6    1    1    2  501    0  0.54914896059E+01 -0.25539951639E+03 -0.10153021665E+02  0.30869265181E+03  0.17300000000E+03 0. -1.
         -6    1    1    2    0  502 -0.54914896059E+01  0.25539951639E+03 -0.13024621737E+03  0.33489124589E+03  0.17300000000E+03 0. -1.
<mgrwt>
<rscale>  2 0.30852564E+03</rscale>
<asrwt>0</asrwt>
<pdfrwt beam="1">  1       21 0.38706513E-01 0.30852564E+03</pdfrwt>
<pdfrwt beam="2">  1       21 0.60306395E-01 0.30852564E+03</pdfrwt>
<totfact> 0.15548735E+04</totfact>
</mgrwt>
</event>
<event>
 4    1  0.4319182E+000  0.1776314E+03  0.7546771E-02  0.1170115E+00
         21   -1    0    0  501  502  0.00000000000E+00  0.00000000000E+00  0.43749069721E+02  0.43749069721E+02  0.00000000000E+00 0.  1.
         21   -1    0    0  502  503 -0.00000000000E+00 -0.00000000000E+00 -0.80719842166E+03  0.80719842166E+03  0.00000000000E+00 0.  1.
          6    1    1    2  501    0  0.40297310320E+02 -0.16453476774E+00 -0.24286823793E+03  0.30089513337E+03  0.17300000000E+03 0.  1.
         -6    1    1    2    0  503 -0.40297310320E+02  0.16453476774E+00 -0.52058111402E+03  0.55005235802E+03  0.17300000000E+03 0.  1.
<mgrwt>
<rscale>  2 0.17763136E+03</rscale>
<asrwt>0</asrwt>
<pdfrwt beam="1">  1       21 0.67306263E-02 0.17763136E+03</pdfrwt>
<pdfrwt beam="2">  1       21 0.12418437E+00 0.17763136E+03</pdfrwt>
<totfact> 0.79042147E+04</totfact>
</mgrwt>
</event>
<event>
 4    1  0.4319182E+000  0.2081689E+03  0.7546771E-02  0.1143024E+00
         21   -1    0    0  501  502  0.00000000000E+00  0.00000000000E+00  0.10704769386E+03  0.10704769386E+03  0.00000000000E+00 0. -1.
         21   -1    0    0  502  503 -0.00000000000E+00 -0.00000000000E+00 -0.43517079991E+03  0.43517079991E+03  0.00000000000E+00 0. -1.
          6    1    1    2  501    0  0.90180637351E+02  0.72613586310E+02 -0.92455325289E+02  0.22777679303E+03  0.17300000000E+03 0. -1.
         -6    1    1    2    0  503 -0.90180637351E+02 -0.72613586310E+02 -0.23566778077E+03  0.31444170074E+03  0.17300000000E+03 0. -1.
<mgrwt>
<rscale>  2 0.20816887E+03</rscale>
<asrwt>0</asrwt>
<pdfrwt beam="1">  1       21 0.16468876E-01 0.20816887E+03</pdfrwt>
<pdfrwt beam="2">  1       21 0.66949354E-01 0.20816887E+03</pdfrwt>
<totfact> 0.67099903E+04</totfact>
</mgrwt>
</event>
<event>
 4    1  0.4319182E+000  0.1837136E+03  0.7546771E-02  0.1164257E+00
         21   -1    0    0  501  502  0.00000000000E+00  0.00000000000E+00  0.12970603761E+04  0.12970603761E+04  0.00000000000E+00 0. -1.
         21   -1    0    0  502  503 -0.00000000000E+00 -0.00000000000E+00 -0.27334600254E+02  0.27334600254E+02  0.00000000000E+00 0. -1.
          6    1    1    2  501    0  0.58612395092E+02  0.19653979721E+02  0.78003312796E+03  0.80137530065E+03  0.17300000000E+03 0.  1.
         -6    1    1    2    0  503 -0.58612395092E+02 -0.19653979721E+02  0.48969264786E+03  0.52301967568E+03  0.17300000000E+03 0.  1.
<mgrwt>
<rscale>  2 0.18371361E+03</rscale>
<asrwt>0</asrwt>
<pdfrwt beam="1">  1       21 0.19954770E+00 0.18371361E+03</pdfrwt>
<pdfrwt beam="2">  1       21 0.42053241E-02 0.18371361E+03</pdfrwt>
<totfact> 0.48985301E+04</totfact>
</mgrwt>
</event>
<event>
 4    1  0.4319182E+000  0.1790127E+03  0.7546771E-02  0.1168762E+00
         21   -1    0    0  503  502  0.00000000000E+00  0.00000000000E+00  0.71499819765E+03  0.71499819765E+03  0.00000000000E+00 0.  1.
         21   -1    0    0  501  503 -0.00000000000E+00 -0.00000000000E+00 -0.13847556491E+03  0.13847556491E+03  0.00000000000E+00 0.  1.
          6    1    1    2  501    0 -0.44531314672E+02  0.11554541199E+02 -0.62686532747E+02  0.18967115436E+03  0.17300000000E+03 0.  1.
         -6    1    1    2    0  502  0.44531314672E+02 -0.11554541199E+02  0.63920916548E+03  0.66380260820E+03  0.17300000000E+03 0.  1.
<mgrwt>
<rscale>  2 0.17901270E+03</rscale>
<asrwt>0</asrwt>
<pdfrwt beam="1">  1       21 0.10999972E+00 0.17901270E+03</pdfrwt>
<pdfrwt beam="2">  1       21 0.21303933E-01 0.17901270E+03</pdfrwt>
<totfact> 0.13518480E+04</totfact>
</mgrwt>
</event>
<event>
 4    1  0.4319182E+000  0.2245840E+03  0.7546771E-02  0.1130511E+00
         21   -1    0    0  503  502  0.00000000000E+00  0.00000000000E+00  0.32428567118E+03  0.32428567118E+03  0.00000000000E+00 0.  1.
         21   -1    0    0  501  503 -0.00000000000E+00 -0.00000000000E+00 -0.15556836075E+03  0.15556836075E+03  0.00000000000E+00 0.  1.
          6    1    1    2  501    0  0.12388116890E+03 -0.71850198872E+02  0.87835690258E+02  0.24114954607E+03  0.17300000000E+03 0. -1.
         -6    1    1    2    0  502 -0.12388116890E+03  0.71850198872E+02  0.80881620176E+02  0.23870448586E+03  0.17300000000E+03 0. -1.
<mgrwt>
<rscale>  2 0.22458405E+03</rscale>
<asrwt>0</asrwt>
<pdfrwt beam="1">  1       21 0.49890103E-01 0.22458405E+03</pdfrwt>
<pdfrwt beam="2">  1       21 0.23933594E-01 0.22458405E+03</pdfrwt>
<totfact> 0.62112112E+04</totfact>
</mgrwt>
</event>
<event>
 4    1  0.4319182E+000  0.2002229E+03  0.7546771E-02  0.1149551E+00
         21   -1    0    0  501  502  0.00000000000E+00  0.00000000000E+00  0.66227319401E+02  0.66227319401E+02  0.00000000000E+00 0. -1.
         21   -1    0    0  502  503 -0.00000000000E+00 -0.00000000000E+00 -0.85474427464E+03  0.85474427464E+03  0.00000000000E+00 0. -1.
          6    1    1    2  501    0  0.22906948407E+02  0.98160518933E+02 -0.14550967778E+03  0.24751218574E+03  0.17300000000E+03 0. -1.
         -6    1    1    2    0  503 -0.22906948407E+02 -0.98160518933E+02 -0.64300727745E+03  0.67345940829E+03  0.17300000000E+03 0. -1.
<mgrwt>
<rscale>  2 0.20022292E+03</rscale>
<asrwt>0</asrwt>
<pdfrwt beam="1">  1       21 0.10188819E-01 0.20022292E+03</pdfrwt>
<pdfrwt beam="2">  1       21 0.13149911E+00 0.20022292E+03</pdfrwt>
<totfact> 0.32817544E+04</totfact>
</mgrwt>
</event>
<event>
 4    1  0.4319182E+000  0.1743416E+03  0.7546771E-02  0.1173394E+00
         21   -1    0    0  503  502  0.00000000000E+00  0.00000000000E+00  0.17952403938E+03  0.17952403938E+03  0.00000000000E+00 0. -1.
         21   -1    0    0  501  503 -0.00000000000E+00 -0.00000000000E+00 -0.52295347961E+03  0.52295347961E+03  0.00000000000E+00 0. -1.
          6    1    1    2  501    0 -0.12821687155E+02  0.17366147143E+02 -0.46055286178E+03  0.49244686741E+03  0.17300000000E+03 0. -1.
         -6    1    1    2    0  502  0.12821687155E+02 -0.17366147143E+02  0.11712342155E+03  0.21003065158E+03  0.17300000000E+03 0. -1.
<mgrwt>
<rscale>  2 0.17434156E+03</rscale>
<asrwt>0</asrwt>
<pdfrwt beam="1">  1       21 0.27619083E-01 0.17434156E+03</pdfrwt>
<pdfrwt beam="2">  1       21 0.80454382E-01 0.17434156E+03</pdfrwt>
<totfact> 0.17185575E+04</totfact>
</mgrwt>
</event>
<event>
 4    1  0.4319182E+000  0.2128284E+03  0.7546771E-02  0.1139346E+00
         21   -1    0    0  503  502  0.00000000000E+00  0.00000000000E+00  0.18515823753E+04  0.18515823753E+04  0.00000000000E+00 0.  1.
         21   -1    0    0  501  503 -0.00000000000E+00 -0.00000000000E+00 -0.24975391294E+02  0.24975391294E+02  0.00000000000E+00 0.  1.
          6    1    1    2  501    0  0.32856662489E+02  0.11952978989E+03  0.77895804203E+03  0.80750948117E+03  0.17300000000E+03 0.  1.
         -6    1    1    2    0  502 -0.32856662489E+02 -0.11952978989E+03  0.10476489420E+04  0.10690482854E+04  0.17300000000E+03 0.  1.
<mgrwt>
<rscale>  2 0.21282841E+03</rscale>
<asrwt>0</asrwt>
<pdfrwt beam="1">  1       21 0.28485872E+00 0.21282841E+03</pdfrwt>
<pdfrwt beam="2">  1       21 0.38423694E-02 0.21282841E+03</pdfrwt>
<totfact> 0.17158636E+04</totfact>
</mgrwt>
</event>
<event>
 4    1  0.4319182E+000  0.1975466E+03  0.7546771E-02  0.1151826E+00
         21   -1    0    0  501  502  0.00000000000E+00  0.00000000000E+00  0.14956988800E+03  0.14956988800E+03  0.00000000000E+00 0. -1.
         21   -1    0    0  502  503 -0.00000000000E+00 -0.00000000000E+00 -0.62312369954E+03  0.62312369954E+03  0.00000000000E+00 0. -1.
          6    1    1    2  501    0 -0.22867458846E+02 -0.92589030605E+02  0.57781304008E+02  0.20582353693E+03  0.17300000000E+03 0. -1.
         -6    1    1    2    0  503  0.22867458846E+02  0.92589030605E+02 -0.53133511555E+03  0.56687005061E+03  0.17300000000E+03 0. -1.
<mgrwt>
<rscale>  2 0.19754657E+03</rscale>
<asrwt>0</asrwt>
<pdfrwt beam="1">  1       21 0.23010752E-01 0.19754657E+03</pdfrwt>
<pdfrwt beam="2">  1       21 0.95865183E-01 0.19754657E+03</pdfrwt>
<totfact> 0.16030694E+04</totfact>
</mgrwt>
</event>
<event>
 4    1  0.4319182E+000  0.1777002E+03  0.7546771E-02  0.1170048E+00
         21   -1    0    0  503  502  0.00000000000E+00  0.00000000000E+00  0.82215579738E+03  0.82215579738E+03  0.00000000000E+00 0.  1.
         21   -1    0    0  501  503 -0.00000000000E+00 -0.00000000000E+00 -0.92717549454E+02  0.92717549454E+02  0.00000000000E+00 0.  1.
          6    1    1    2  501    0 -0.40494958914E+02  0.29182356794E+01  0.14622343084E+02  0.17830078719E+03  0.17300000000E+03 0.  1.
         -6    1    1    2    0  502  0.40494958914E+02 -0.29182356794E+01  0.71481590485E+03  0.73657255964E+03  0.17300000000E+03 0.  1.
<mgrwt>
<rscale>  2 0.17770019E+03</rscale>
<asrwt>0</asrwt>
<pdfrwt beam="1">  1       21 0.12648550E+00 0.17770019E+03</pdfrwt>
<pdfrwt beam="2">  1       21 0.14264239E-01 0.17770019E+03</pdfrwt>
<totfact> 0.20099541E+04</totfact>
</mgrwt>
</event>
<event>
 4    1  0.4319182E+000  0.2025493E+03  0.7546771E-02  0.1147606E+00
         21   -1    0    0  503  502  0.00000000000E+00  0.00000000000E+00  0.47731488867E+02  0.47731488867E+02  0.00000000000E+00 0. -1.
         21   -1    0    0  501  503 -0.00000000000E+00 -0.00000000000E+00 -0.87131430487E+03  0.87131430487E+03  0.00000000000E+00 0.  1.
          6    1    1    2  501    0 -0.22035848415E+02  0.10301280477E+03 -0.46525248234E+03  0.50743087105E+03  0.17300000000E+03 0.  1.
         -6    1    1    2    0  502  0.22035848415E+02 -0.10301280477E+03 -0.35833033366E+03  0.41161492269E+03  0.17300000000E+03 0. -1.
<mgrwt>
<rscale>  2 0.20254929E+03</rscale>
<asrwt>0</asrwt>
<pdfrwt beam="1">  1       21 0.73433062E-02 0.20254929E+03</pdfrwt>
<pdfrwt beam="2">  1       21 0.13404835E+00 0.20254929E+03</pdfrwt>
<totfact> 0.55398381E+04</totfact>
</mgrwt>
</event>
<event>
 4    1  0.4319182E+000  0.2476338E+03  0.7546771E-02  0.1114809E+00
         21   -1    0    0  503  502  0.00000000000E+00  0.00000000000E+00  0.36258258946E+03  0.36258258946E+03  0.00000000000E+00 0.  1.
         21   -1    0    0  501  503 -0.00000000000E+00 -0.00000000000E+00 -0.16978167194E+03  0.16978167194E+03  0.00000000000E+00 0. -1.
          6    1    1    2  501    0 -0.55183432096E+02 -0.16836947791E+03  0.79871040914E+02  0.26019584057E+03  0.17300000000E+03 0. -1.
         -6    1    1    2    0  502  0.55183432096E+02  0.16836947791E+03  0.11292987660E+03  0.27216842083E+03  0.17300000000E+03 0. -1.
<mgrwt>
<rscale>  2 0.24763379E+03</rscale>
<asrwt>0</asrwt>
<pdfrwt beam="1">  1       21 0.55781937E-01 0.24763379E+03</pdfrwt>
<pdfrwt beam="2">  1       21 0.26120257E-01 0.24763379E+03</pdfrwt>
<totfact> 0.41089765E+04</totfact>
</mgrwt>
</event>
<event>
 4    1  0.4319182E+000  0.2903364E+03  0.7546771E-02  0.1090174E+00
         21   -1    0    0  501  502  0.00000000000E+00  0.00000000000E+00  0.47253001080E+03  0.47253001080E+03  0.00000000000E+00 0.  1.
         21   -1    0    0  502  503 -0.00000000000E+00 -0.00000000000E+00 -0.29029682902E+03  0.29029682902E+03  0.00000000000E+00 0. -1.
          6    1    1    2  501    0  0.18616098659E+02 -0.23242125257E+03  0.32792699625E+03  0.43798551648E+03  0.17300000000E+03 0.  1.
         -6    1    1    2    0  503 -0.18616098659E+02  0.23242125257E+03 -0.14569381447E+03  0.32484132334E+03  0.17300000000E+03 0. -1.
<mgrwt>
<rscale>  2 0.29033635E+03</rscale>
<asrwt>0</asrwt>
<pdfrwt beam="1">  1       21 0.72696924E-01 0.29033635E+03</pdfrwt>
<pdfrwt beam="2">  1       21 0.44661051E-01 0.29033635E+03</pdfrwt>
<totfact> 0.77342500E+03</totfact>
</mgrwt>
</event>
<event>
 4    1  0.4319182E+000  0.1816609E+03  0.7546771E-02  0.1166205E+00
         21   -1    0    0  503  502  0.00000000000E+00  0.00000000000E+00  0.63094008119E+02  0.63094008119E+02  0.00000000000E+00 0. -1.
         21   -1    0    0  501  503 -0.00000000000E+00 -0.00000000000E+00 -0.57557652818E+03  0.57557652818E+03  0.00000000000E+00 0. -1.
          6    1    1    2  501    0  0.43827365372E+02 -0.33924348737E+02 -0.35271862159E+03  0.39675070940E+03  0.17300000000E+03 0. -1.
         -6    1    1    2    0  502 -0.43827365372E+02  0.33924348737E+02 -0.15976389848E+03  0.24191982690E+03  0.17300000000E+03 0. -1.
<mgrwt>
<rscale>  2 0.18166095E+03</rscale>
<asrwt>0</asrwt>
<pdfrwt beam="1">  1       21 0.97067702E-02 0.18166095E+03</pdfrwt>
<pdfrwt beam="2">  1       21 0.88550238E-01 0.18166095E+03</pdfrwt>
<totfact> 0.93701848E+04</totfact>
</mgrwt>
</event>
<event>
 4    1  0.4319182E+000  0.1838397E+03  0.7546771E-02  0.1164138E+00
         21   -1    0    0  503  502  0.00000000000E+00  0.00000000000E+00  0.96386072449E+02  0.96386072449E+02  0.00000000000E+00 0. -1.
         21   -1    0    0  501  503 -0.00000000000E+00 -0.00000000000E+00 -0.48878987680E+03  0.48878987680E+03  0.00000000000E+00 0.  1.
          6    1    1    2  501    0 -0.47773772016E+02 -0.39820801865E+02 -0.35175085139E+03  0.39689506297E+03  0.17300000000E+03 0.  1.
         -6    1    1    2    0  502  0.47773772016E+02  0.39820801865E+02 -0.40652952956E+02  0.18828088628E+03  0.17300000000E+03 0. -1.
<mgrwt>
<rscale>  2 0.18383968E+03</rscale>
<asrwt>0</asrwt>
<pdfrwt beam="1">  1       21 0.14828626E-01 0.18383968E+03</pdfrwt>
<pdfrwt beam="2">  1       21 0.75198443E-01 0.18383968E+03</pdfrwt>
<totfact> 0.63563523E+04</totfact>
</mgrwt>
</event>
<event>
 4    1  0.4319182E+000  0.2398630E+03  0.7546771E-02  0.1119884E+00
         21   -1    0    0  501  502  0.00000000000E+00  0.00000000000E+00  0.28074489078E+03  0.28074489078E+03  0.00000000000E+00 0. -1.
         21   -1    0    0  502  503 -0.00000000000E+00 -0.00000000000E+00 -0.24244273543E+03  0.24244273543E+03  0.00000000000E+00 0. -1.
          6    1    1    2  501    0  0.16313738683E+03 -0.31487301759E+02  0.12204444156E+03  0.26912655549E+03  0.17300000000E+03 0. -1.
         -6    1    1    2    0  503 -0.16313738683E+03  0.31487301759E+02 -0.83742286202E+02  0.25406107072E+03  0.17300000000E+03 0. -1.
<mgrwt>
<rscale>  2 0.23986300E+03</rscale>
<asrwt>0</asrwt>
<pdfrwt beam="1">  1       21 0.43191522E-01 0.23986300E+03</pdfrwt>
<pdfrwt beam="2">  1       21 0.37298882E-01 0.23986300E+03</pdfrwt>
<totfact> 0.34905388E+04</totfact>
</mgrwt>
</event>
<event>
 4    1  0.4319182E+000  0.1824212E+03  0.7546771E-02  0.1165480E+00
         21   -1    0    0  503  502  0.00000000000E+00  0.00000000000E+00  0.44478974848E+03  0.44478974848E+03  0.00000000000E+00 0.  1.
         21   -1    0    0  501  503 -0.00000000000E+00 -0.00000000000E+00 -0.10452728214E+03  0.10452728214E+03  0.00000000000E+00 0.  1.
          6    1    1    2  501    0  0.38195346046E+02 -0.43469546616E+02  0.23698773877E+02  0.18395411881E+03  0.17300000000E+03 0.  1.
         -6    1    1    2    0  502 -0.38195346046E+02  0.43469546616E+02  0.31656369246E+03  0.36536291181E+03  0.17300000000E+03 0.  1.
<mgrwt>
<rscale>  2 0.18242118E+03</rscale>
<asrwt>0</asrwt>
<pdfrwt beam="1">  1       21 0.68429191E-01 0.18242118E+03</pdfrwt>
<pdfrwt beam="2">  1       21 0.16081121E-01 0.18242118E+03</pdfrwt>
<totfact> 0.67591267E+04</totfact>
</mgrwt>
</event>
<event>
 4    1  0.4319182E+000  0.1856697E+03  0.7546771E-02  0.1162426E+00
         21   -1    0    0  503  502  0.00000000000E+00  0.00000000000E+00  0.46572415057E+02  0.46572415057E+02  0.00000000000E+00 0. -1.
         21   -1    0    0  501  503 -0.00000000000E+00 -0.00000000000E+00 -0.74266624589E+03  0.74266624589E+03  0.00000000000E+00 0. -1.
          6    1    1    2  501    0  0.66761146856E+02  0.93374168234E+01 -0.32533976298E+03  0.37459204404E+03  0.17300000000E+03 0. -1.
         -6    1    1    2    0  502 -0.66761146856E+02 -0.93374168234E+01 -0.37075406786E+03  0.41464661691E+03  0.17300000000E+03 0. -1.
<mgrwt>
<rscale>  2 0.18566970E+03</rscale>
<asrwt>0</asrwt>
<pdfrwt beam="1">  1       21 0.71649878E-02 0.18566970E+03</pdfrwt>
<pdfrwt beam="2">  1       21 0.11425633E+00 0.18566970E+03</pdfrwt>
<totfact> 0.86806093E+04</totfact>
</mgrwt>
</event>
<event>
 4    1  0.4319182E+000  0.1837458E+03  0.7546771E-02  0.1164226E+00
         21   -1    0    0  503  502  0.00000000000E+00  0.00000000000E+00  0.26230829326E+03  0.26230829326E+03  0.00000000000E+00 0. -1.
         21   -1    0    0  501  503 -0.00000000000E+00 -0.00000000000E+00 -0.25517009815E+03  0.25517009815E+03  0.00000000000E+00 0. -1.
          6    1    1    2  501    0  0.60788293521E+02  0.11759493002E+02 -0.17857656819E+03  0.25622664384E+03  0.17300000000E+03 0. -1.
         -6    1    1    2    0  502 -0.60788293521E+02 -0.11759493002E+02  0.18571476330E+03  0.26125174757E+03  0.17300000000E+03 0. -1.
<mgrwt>
<rscale>  2 0.18374575E+03</rscale>
<asrwt>0</asrwt>
<pdfrwt beam="1">  1       21 0.40355122E-01 0.18374575E+03</pdfrwt>
<pdfrwt beam="2">  1       21 0.39256938E-01 0.18374575E+03</pdfrwt>
<totfact> 0.37182045E+04</totfact>
</mgrwt>
</event>
<event>
 4    1  0.4319182E+000  0.1839680E+03  0.7546771E-02  0.1164017E+00
         21   -1    0    0  503  502  0.00000000000E+00  0.00000000000E+00  0.13731024257E+03  0.13731024257E+03  0.00000000000E+00 0. -1.
         21   -1    0    0  501  503 -0.00000000000E+00 -0.00000000000E+00 -0.28754894407E+03  0.28754894407E+03  0.00000000000E+00 0. -1.
          6    1    1    2  501    0  0.37084478508E+02 -0.50398038231E+02 -0.15540098365E+03  0.24081878358E+03  0.17300000000E+03 0. -1.
         -6    1    1    2    0  502 -0.37084478508E+02  0.50398038231E+02  0.51622821566E+01  0.18404040307E+03  0.17300000000E+03 0. -1.
<mgrwt>
<rscale>  2 0.18396799E+03</rscale>
<asrwt>0</asrwt>
<pdfrwt beam="1">  1       21 0.21124653E-01 0.18396799E+03</pdfrwt>
<pdfrwt beam="2">  1       21 0.44238299E-01 0.18396799E+03</pdfrwt>
<totfact> 0.10258052E+05</totfact>
</mgrwt>
</event>
<event>
 4    1  0.4319182E+000  0.2012188E+03  0.7546771E-02  0.1148715E+00
         21   -1    0    0  503  502  0.00000000000E+00  0.00000000000E+00  0.13565867459E+03  0.13565867459E+03  0.00000000000E+00 0.  1.
         21   -1    0    0  501  503 -0.00000000000E+00 -0.00000000000E+00 -0.30636094861E+03  0.30636094861E+03  0.00000000000E+00 0.  1.
          6    1    1    2  501    0  0.98838244502E+02 -0.28125190761E+02 -0.12083788504E+03  0.23471433572E+03  0.17300000000E+03 0.  1.
         -6    1    1    2    0  502 -0.98838244502E+02  0.28125190761E+02 -0.49864388977E+02  0.20730528749E+03  0.17300000000E+03 0.  1.
<mgrwt>
<rscale>  2 0.20121885E+03</rscale>
<asrwt>0</asrwt>
<pdfrwt beam="1">  1       21 0.20870566E-01 0.20121885E+03</pdfrwt>
<pdfrwt beam="2">  1       21 0.47132453E-01 0.20121885E+03</pdfrwt>
<totfact> 0.91482958E+04</totfact>
</mgrwt>
</event>
<event>
 4    1  0.4319182E+000  0.1758461E+03  0.7546771E-02  0.1171885E+00
         21   -1    0    0  503  502  0.00000000000E+00  0.00000000000E+00  0.28581429562E+03  0.28581429562E+03  0.00000000000E+00 0.  1.
         21   -1    0    0  501  503 -0.00000000000E+00 -0.00000000000E+00 -0.85949647350E+03  0.85949647350E+03  0.00000000000E+00 0.  1.
          6    1    1    2  501    0  0.13560048163E+02 -0.28442432749E+02 -0.82224343614E+03  0.84083655675E+03  0.17300000000E+03 0.  1.
         -6    1    1    2    0  502 -0.13560048163E+02  0.28442432749E+02  0.24856125826E+03  0.30447421236E+03  0.17300000000E+03 0.  1.
<mgrwt>
<rscale>  2 0.17584609E+03</rscale>
<asrwt>0</asrwt>
<pdfrwt beam="1">  1       21 0.43971431E-01 0.17584609E+03</pdfrwt>
<pdfrwt beam="2">  1       21 0.13223022E+00 0.17584609E+03</pdfrwt>
<totfact> 0.20909746E+03</totfact>
</mgrwt>
</event>
<event>
 4    1  0.4319182E+000  0.2028249E+03  0.7546771E-02  0.1147377E+00
         21   -1    0    0  501  502  0.00000000000E+00  0.00000000000E+00  0.12358263340E+04  0.12358263340E+04  0.00000000000E+00 0. -1.
         21   -1    0    0  502  503 -0.00000000000E+00 -0.00000000000E+00 -0.90843402705E+02  0.90843402705E+02  0.00000000000E+00 0. -1.
          6    1    1    2  501    0  0.92334573129E+02 -0.51800070088E+02  0.11004866868E+04  0.11190213887E+04  0.17300000000E+03 0. -1.
         -6    1    1    2    0  503 -0.92334573129E+02  0.51800070088E+02  0.44496244563E+02  0.20764834802E+03  0.17300000000E+03 0. -1.
<mgrwt>
<rscale>  2 0.20282485E+03</rscale>
<asrwt>0</asrwt>
<pdfrwt beam="1">  1       21 0.19012712E+00 0.20282485E+03</pdfrwt>
<pdfrwt beam="2">  1       21 0.13975909E-01 0.20282485E+03</pdfrwt>
<totfact> 0.68827098E+03</totfact>
</mgrwt>
</event>
<event>
 4    1  0.4319182E+000  0.2306715E+03  0.7546771E-02  0.1126168E+00
         21   -1    0    0  503  502  0.00000000000E+00  0.00000000000E+00  0.18922203528E+03  0.18922203528E+03  0.00000000000E+00 0.  1.
         21   -1    0    0  501  503 -0.00000000000E+00 -0.00000000000E+00 -0.28159395801E+03  0.28159395801E+03  0.00000000000E+00 0. -1.
          6    1    1    2  501    0 -0.68403489889E+02 -0.13638657311E+03 -0.37386671981E+02  0.23368161672E+03  0.17300000000E+03 0. -1.
         -6    1    1    2    0  502  0.68403489889E+02  0.13638657311E+03 -0.54985250746E+02  0.23713437657E+03  0.17300000000E+03 0.  1.
<mgrwt>
<rscale>  2 0.23067149E+03</rscale>
<asrwt>0</asrwt>
<pdfrwt beam="1">  1       21 0.29111082E-01 0.23067149E+03</pdfrwt>
<pdfrwt beam="2">  1       21 0.43322147E-01 0.23067149E+03</pdfrwt>
<totfact> 0.56894981E+04</totfact>
</mgrwt>
</event>
<event>
 4    1  0.4319182E+000  0.2166232E+03  0.7546771E-02  0.1136426E+00
         21   -1    0    0  501  502  0.00000000000E+00  0.00000000000E+00  0.53745610022E+02  0.53745610022E+02  0.00000000000E+00 0. -1.
         21   -1    0    0  502  503 -0.00000000000E+00 -0.00000000000E+00 -0.88859288850E+03  0.88859288850E+03  0.00000000000E+00 0.  1.
          6    1    1    2  501    0  0.71044814794E+02 -0.10931266484E+03 -0.35522153940E+03  0.41606245500E+03  0.17300000000E+03 0.  1.
         -6    1    1    2    0  503 -0.71044814794E+02  0.10931266484E+03 -0.47962573907E+03  0.52627604352E+03  0.17300000000E+03 0. -1.
<mgrwt>
<rscale>  2 0.21662323E+03</rscale>
<asrwt>0</asrwt>
<pdfrwt beam="1">  1       21 0.82685560E-02 0.21662323E+03</pdfrwt>
<pdfrwt beam="2">  1       21 0.13670659E+00 0.21662323E+03</pdfrwt>
<totfact> 0.42532854E+04</totfact>
</mgrwt>
</event>
<event>
 4    1  0.4319182E+000  0.2048392E+03  0.7546771E-02  0.1145719E+00
         21   -1    0    0  501  502  0.00000000000E+00  0.00000000000E+00  0.15816398187E+04  0.15816398187E+04  0.00000000000E+00 0.  1.
         21   -1    0    0  502  503 -0.00000000000E+00 -0.00000000000E+00 -0.93921975592E+02  0.93921975592E+02  0.00000000000E+00 0. -1.
          6    1    1    2  501    0 -0.10691591873E+03 -0.24475794406E+02  0.14535259992E+04  0.14678885886E+04  0.17300000000E+03 0.  1.
         -6    1    1    2    0  503  0.10691591873E+03  0.24475794406E+02  0.34191843960E+02  0.20767320574E+03  0.17300000000E+03 0. -1.
<mgrwt>
<rscale>  2 0.20483915E+03</rscale>
<asrwt>0</asrwt>
<pdfrwt beam="1">  1       21 0.24332918E+00 0.20483915E+03</pdfrwt>
<pdfrwt beam="2">  1       21 0.14449536E-01 0.20483915E+03</pdfrwt>
<totfact> 0.30174557E+03</totfact>
</mgrwt>
</event>
<event>
 4    1  0.4319182E+000  0.1963185E+03  0.7546771E-02  0.1152883E+00
         21   -1    0    0  501  502  0.00000000000E+00  0.00000000000E+00  0.37163744826E+02  0.37163744826E+02  0.00000000000E+00 0. -1.
         21   -1    0    0  502  503 -0.00000000000E+00 -0.00000000000E+00 -0.10482452382E+04  0.10482452382E+04  0.00000000000E+00 0. -1.
          6    1    1    2  501    0 -0.41163841361E+02  0.83171518262E+02 -0.56160565415E+03  0.59493014217E+03  0.17300000000E+03 0. -1.
         -6    1    1    2    0  503  0.41163841361E+02 -0.83171518262E+02 -0.44947583925E+03  0.49047884089E+03  0.17300000000E+03 0. -1.
<mgrwt>
<rscale>  2 0.19631853E+03</rscale>
<asrwt>0</asrwt>
<pdfrwt beam="1">  1       21 0.57174991E-02 0.19631853E+03</pdfrwt>
<pdfrwt beam="2">  1       21 0.16126850E+00 0.19631853E+03</pdfrwt>
<totfact> 0.52644712E+04</totfact>
</mgrwt>
</event>
<event>
 4    1  0.4319182E+000  0.2444265E+03  0.7546771E-02  0.1116879E+00
         21   -1    0    0  503  502  0.00000000000E+00  0.00000000000E+00  0.33082590280E+03  0.33082590280E+03  0.00000000000E+00 0.  1.
         21   -1    0    0  501  503 -0.00000000000E+00 -0.00000000000E+00 -0.75919599349E+03  0.75919599349E+03  0.00000000000E+00 0.  1.
          6    1    1    2  501    0 -0.65595236134E+02  0.15972653443E+03 -0.68997933453E+03  0.73199438719E+03  0.17300000000E+03 0.  1.
         -6    1    1    2    0  502  0.65595236134E+02 -0.15972653443E+03  0.26160924384E+03  0.35802750909E+03  0.17300000000E+03 0.  1.
<mgrwt>
<rscale>  2 0.24442647E+03</rscale>
<asrwt>0</asrwt>
<pdfrwt beam="1">  1       21 0.50896292E-01 0.24442647E+03</pdfrwt>
<pdfrwt beam="2">  1       21 0.11679938E+00 0.24442647E+03</pdfrwt>
<totfact> 0.19845468E+03</totfact>
</mgrwt>
</event>
<event>
 4    1  0.4319182E+000  0.1930418E+03  0.7546771E-02  0.1155746E+00
         21   -1    0    0  501  502  0.00000000000E+00  0.00000000000E+00  0.56115825299E+02  0.56115825299E+02  0.00000000000E+00 0. -1.
         21   -1    0    0  502  503 -0.00000000000E+00 -0.00000000000E+00 -0.10622358005E+04  0.10622358005E+04  0.00000000000E+00 0. -1.
          6    1    1    2  501    0  0.84823787798E+02  0.11877199450E+02 -0.16071268778E+03  0.25118461509E+03  0.17300000000E+03 0. -1.
         -6    1    1    2    0  503 -0.84823787798E+02 -0.11877199450E+02 -0.84540728746E+03  0.86716701075E+03  0.17300000000E+03 0. -1.
<mgrwt>
<rscale>  2 0.19304182E+03</rscale>
<asrwt>0</asrwt>
<pdfrwt beam="1">  1       21 0.86332046E-02 0.19304182E+03</pdfrwt>
<pdfrwt beam="2">  1       21 0.16342088E+00 0.19304182E+03</pdfrwt>
<totfact> 0.24967981E+04</totfact>
</mgrwt>
</event>
<event>
 4    1  0.4319182E+000  0.1870357E+03  0.7546771E-02  0.1161162E+00
         21   -1    0    0  501  502  0.00000000000E+00  0.00000000000E+00  0.44199516891E+02  0.44199516891E+02  0.00000000000E+00 0.  1.
         21   -1    0    0  502  503 -0.00000000000E+00 -0.00000000000E+00 -0.12490274878E+04  0.12490274878E+04  0.00000000000E+00 0. -1.
          6    1    1    2  501    0  0.47823146904E+02 -0.52595454032E+02 -0.21104684577E+03  0.28199841537E+03  0.17300000000E+03 0.  1.
         -6    1    1    2    0  503 -0.47823146904E+02  0.52595454032E+02 -0.99378112512E+03  0.10112285893E+04  0.17300000000E+03 0. -1.
<mgrwt>
<rscale>  2 0.18703565E+03</rscale>
<asrwt>0</asrwt>
<pdfrwt beam="1">  1       21 0.67999254E-02 0.18703565E+03</pdfrwt>
<pdfrwt beam="2">  1       21 0.19215808E+00 0.18703565E+03</pdfrwt>
<totfact> 0.24104938E+04</totfact>
</mgrwt>
</event>
<event>
 4    1  0.4319182E+000  0.1999840E+03  0.7546771E-02  0.1149752E+00
         21   -1    0    0  503  502  0.00000000000E+00  0.00000000000E+00  0.13777726282E+03  0.13777726282E+03  0.00000000000E+00 0. -1.
         21   -1    0    0  501  503 -0.00000000000E+00 -0.00000000000E+00 -0.32137611558E+03  0.32137611558E+03  0.00000000000E+00 0.  1.
          6    1    1    2  501    0  0.33191391828E+02  0.94672793509E+02 -0.16321504371E+03  0.25813321525E+03  0.17300000000E+03 0.  1.
         -6    1    1    2    0  502 -0.33191391828E+02 -0.94672793509E+02 -0.20383809054E+02  0.20102016315E+03  0.17300000000E+03 0. -1.
<mgrwt>
<rscale>  2 0.19998402E+03</rscale>
<asrwt>0</asrwt>
<pdfrwt beam="1">  1       21 0.21196502E-01 0.19998402E+03</pdfrwt>
<pdfrwt beam="2">  1       21 0.49442479E-01 0.19998402E+03</pdfrwt>
<totfact> 0.80496363E+04</totfact>
</mgrwt>
</event>
<event>
 4    1  0.4319182E+000  0.1790307E+03  0.7546771E-02  0.1168744E+00
         21   -1    0    0  503  502  0.00000000000E+00  0.00000000000E+00  0.63787562951E+02  0.63787562951E+02  0.00000000000E+00 0.  1.
         21   -1    0    0  501  503 -0.00000000000E+00 -0.00000000000E+00 -0.52959645678E+03  0.52959645678E+03  0.00000000000E+00 0.  1.
          6    1    1    2  501    0  0.43787363397E+02 -0.14340230582E+02 -0.30003955438E+03  0.34939334509E+03  0.17300000000E+03 0.  1.
         -6    1    1    2    0  502 -0.43787363397E+02  0.14340230582E+02 -0.16576933945E+03  0.24399067463E+03  0.17300000000E+03 0.  1.
<mgrwt>
<rscale>  2 0.17903065E+03</rscale>
<asrwt>0</asrwt>
<pdfrwt beam="1">  1       21 0.98134711E-02 0.17903065E+03</pdfrwt>
<pdfrwt beam="2">  1       21 0.81476379E-01 0.17903065E+03</pdfrwt>
<totfact> 0.11127397E+05</totfact>
</mgrwt>
</event>
<event>
 4    1  0.4319182E+000  0.1916828E+03  0.7546771E-02  0.1156952E+00
         21   -1    0    0  501  502  0.00000000000E+00  0.00000000000E+00  0.24926242538E+04  0.24926242538E+04  0.00000000000E+00 0.  1.
         21   -1    0    0  502  503 -0.00000000000E+00 -0.00000000000E+00 -0.14759863587E+02  0.14759863587E+02  0.00000000000E+00 0.  1.
          6    1    1    2  501    0  0.68667897648E+02 -0.45804307937E+02  0.12844413607E+04  0.12986654395E+04  0.17300000000E+03 0.  1.
         -6    1    1    2    0  503 -0.68667897648E+02  0.45804307937E+02  0.11934230295E+04  0.12087186778E+04  0.17300000000E+03 0.  1.
<mgrwt>
<rscale>  2 0.19168285E+03</rscale>
<asrwt>0</asrwt>
<pdfrwt beam="1">  1       21 0.38348032E+00 0.19168285E+03</pdfrwt>
<pdfrwt beam="2">  1       21 0.22707502E-02 0.19168285E+03</pdfrwt>
<totfact> 0.11031448E+04</totfact>
</mgrwt>
</event>
<event>
 4    1  0.4319182E+000  0.2730325E+03  0.7546771E-02  0.1099556E+00
         21   -1    0    0  503  502  0.00000000000E+00  0.00000000000E+00  0.15423007364E+03  0.15423007364E+03  0.00000000000E+00 0.  1.
         21   -1    0    0  501  503 -0.00000000000E+00 -0.00000000000E+00 -0.48371884977E+03  0.48371884977E+03  0.00000000000E+00 0. -1.
          6    1    1    2  501    0  0.11901714993E+03  0.17450686378E+03 -0.15590698658E+03  0.31441010790E+03  0.17300000000E+03 0. -1.
         -6    1    1    2    0  502 -0.11901714993E+03 -0.17450686378E+03 -0.17358178955E+03  0.32353881552E+03  0.17300000000E+03 0.  1.
<mgrwt>
<rscale>  2 0.27303247E+03</rscale>
<asrwt>0</asrwt>
<pdfrwt beam="1">  1       21 0.23727704E-01 0.27303247E+03</pdfrwt>
<pdfrwt beam="2">  1       21 0.74418284E-01 0.27303247E+03</pdfrwt>
<totfact> 0.26004272E+04</totfact>
</mgrwt>
</event>
<event>
 4    1  0.4319182E+000  0.4652112E+03  0.7546771E-02  0.1023281E+00
         21   -1    0    0  503  502  0.00000000000E+00  0.00000000000E+00  0.27771792774E+03  0.27771792774E+03  0.00000000000E+00 0.  1.
         21   -1    0    0  501  503 -0.00000000000E+00 -0.00000000000E+00 -0.90315957088E+03  0.90315957088E+03  0.00000000000E+00 0. -1.
          6    1    1    2  501    0  0.39339408890E+02  0.43005218816E+03 -0.53138785888E+03  0.70625387092E+03  0.17300000000E+03 0. -1.
         -6    1    1    2    0  502 -0.39339408890E+02 -0.43005218816E+03 -0.94053784264E+02  0.47462362769E+03  0.17300000000E+03 0.  1.
<mgrwt>
<rscale>  2 0.46521121E+03</rscale>
<asrwt>0</asrwt>
<pdfrwt beam="1">  1       21 0.42725835E-01 0.46521121E+03</pdfrwt>
<pdfrwt beam="2">  1       21 0.13894763E+00 0.46521121E+03</pdfrwt>
<totfact> 0.16334203E+03</totfact>
</mgrwt>
</event>
<event>
 4    1  0.4319182E+000  0.2638591E+03  0.7546771E-02  0.1104847E+00
         21   -1    0    0  501  502  0.00000000000E+00  0.00000000000E+00  0.57476342268E+03  0.57476342268E+03  0.00000000000E+00 0.  1.
         21   -1    0    0  502  503 -0.00000000000E+00 -0.00000000000E+00 -0.19893935126E+03  0.19893935126E+03  0.00000000000E+00 0. -1.
          6    1    1    2  501    0 -0.15728436993E+03  0.12228765024E+03  0.42984611093E+03  0.50437022266E+03  0.17300000000E+03 0.  1.
         -6    1    1    2    0  503  0.15728436993E+03 -0.12228765024E+03 -0.54022039499E+02  0.26933255128E+03  0.17300000000E+03 0. -1.
<mgrwt>
<rscale>  2 0.26385913E+03</rscale>
<asrwt>0</asrwt>
<pdfrwt beam="1">  1       21 0.88425141E-01 0.26385913E+03</pdfrwt>
<pdfrwt beam="2">  1       21 0.30606054E-01 0.26385913E+03</pdfrwt>
<totfact> 0.10741744E+04</totfact>
</mgrwt>
</event>
<event>
 4    1  0.4319182E+000  0.1759919E+03  0.7546771E-02  0.1171739E+00
         21   -1    0    0  503  502  0.00000000000E+00  0.00000000000E+00  0.14981461493E+03  0.14981461493E+03  0.00000000000E+00 0. -1.
         21   -1    0    0  501  503 -0.00000000000E+00 -0.00000000000E+00 -0.26396593514E+03  0.26396593514E+03  0.00000000000E+00 0. -1.
          6    1    1    2  501    0 -0.28569999596E+02 -0.15096127010E+02 -0.15340327785E+03  0.23346456601E+03  0.17300000000E+03 0. -1.
         -6    1    1    2    0  502  0.28569999596E+02  0.15096127010E+02  0.39251957639E+02  0.18031598406E+03  0.17300000000E+03 0. -1.
<mgrwt>
<rscale>  2 0.17599187E+03</rscale>
<asrwt>0</asrwt>
<pdfrwt beam="1">  1       21 0.23048402E-01 0.17599187E+03</pdfrwt>
<pdfrwt beam="2">  1       21 0.40610144E-01 0.17599187E+03</pdfrwt>
<totfact> 0.10391798E+05</totfact>
</mgrwt>
</event>
<event>
 4    1  0.4319182E+000  0.2175836E+03  0.7546771E-02  0.1135697E+00
         21   -1    0    0  501  502  0.00000000000E+00  0.00000000000E+00  0.47460189247E+03  0.47460189247E+03  0.00000000000E+00 0.  1.
         21   -1    0    0  502  503 -0.00000000000E+00 -0.00000000000E+00 -0.10033326945E+03  0.10033326945E+03  0.00000000000E+00 0. -1.
          6    1    1    2  501    0  0.80196569155E+02 -0.10479571418E+03  0.20900901663E+03  0.30170747496E+03  0.17300000000E+03 0.  1.
         -6    1    1    2    0  503 -0.80196569155E+02  0.10479571418E+03  0.16525960640E+03  0.27322768696E+03  0.17300000000E+03 0.  1.
<mgrwt>
<rscale>  2 0.21758362E+03</rscale>
<asrwt>0</asrwt>
<pdfrwt beam="1">  1       21 0.73015675E-01 0.21758362E+03</pdfrwt>
<pdfrwt beam="2">  1       21 0.15435888E-01 0.21758362E+03</pdfrwt>
<totfact> 0.62123811E+04</totfact>
</mgrwt>
</event>
<event>
 4    1  0.4319182E+000  0.2900057E+03  0.7546771E-02  0.1090346E+00
         21   -1    0    0  501  502  0.00000000000E+00  0.00000000000E+00  0.38500351998E+03  0.38500351998E+03  0.00000000000E+00 0.  1.
         21   -1    0    0  502  503 -0.00000000000E+00 -0.00000000000E+00 -0.57777820923E+03  0.57777820923E+03  0.00000000000E+00 0. -1.
          6    1    1    2  501    0 -0.16676362053E+03 -0.16237064657E+03  0.28324569294E+03  0.40537816242E+03  0.17300000000E+03 0.  1.
         -6    1    1    2    0  503  0.16676362053E+03  0.16237064657E+03 -0.47602038219E+03  0.55740356678E+03  0.17300000000E+03 0. -1.
<mgrwt>
<rscale>  2 0.29000574E+03</rscale>
<asrwt>0</asrwt>
<pdfrwt beam="1">  1       21 0.59231311E-01 0.29000574E+03</pdfrwt>
<pdfrwt beam="2">  1       21 0.88888955E-01 0.29000574E+03</pdfrwt>
<totfact> 0.26865170E+03</totfact>
</mgrwt>
</event>
<event>
 4    1  0.4319182E+000  0.1911882E+03  0.7546771E-02  0.1157394E+00
         21   -1    0    0  501  502  0.00000000000E+00  0.00000000000E+00  0.16516638703E+03  0.16516638703E+03  0.00000000000E+00 0.  1.
         21   -1    0    0  502  503 -0.00000000000E+00 -0.00000000000E+00 -0.23251153338E+03  0.23251153338E+03  0.00000000000E+00 0. -1.
          6    1    1    2  501    0  0.18118566469E+01  0.81367437901E+02  0.99711238844E+01  0.19144807674E+03  0.17300000000E+03 0.  1.
         -6    1    1    2    0  503 -0.18118566469E+01 -0.81367437901E+02 -0.77316270233E+02  0.20622984366E+03  0.17300000000E+03 0. -1.
<mgrwt>
<rscale>  2 0.19118824E+03</rscale>
<asrwt>0</asrwt>
<pdfrwt beam="1">  1       21 0.25410213E-01 0.19118824E+03</pdfrwt>
<pdfrwt beam="2">  1       21 0.35771005E-01 0.19118824E+03</pdfrwt>
<totfact> 0.11071206E+05</totfact>
</mgrwt>
</event>
<event>
 4    1  0.4319182E+000  0.4962329E+03  0.7546771E-02  0.1014767E+00
         21   -1    0    0  503  502  0.00000000000E+00  0.00000000000E+00  0.14934435652E+03  0.14934435652E+03  0.00000000000E+00 0. -1.
         21   -1    0    0  501  503 -0.00000000000E+00 -0.00000000000E+00 -0.23584802222E+04  0.23584802222E+04  0.00000000000E+00 0.  1.
          6    1    1    2  501    0 -0.28644744572E+03 -0.36642323081E+03 -0.17923735144E+04  0.18597983596E+04  0.17300000000E+03 0.  1.
         -6    1    1    2    0  502  0.28644744572E+03  0.36642323081E+03 -0.41676235131E+03  0.64802621915E+03  0.17300000000E+03 0. -1.
<mgrwt>
<rscale>  2 0.49623293E+03</rscale>
<asrwt>0</asrwt>
<pdfrwt beam="1">  1       21 0.22976055E-01 0.49623293E+03</pdfrwt>
<pdfrwt beam="2">  1       21 0.36284311E+00 0.49623293E+03</pdfrwt>
<totfact> 0.19490834E+02</totfact>
</mgrwt>
</event>
<event>
 4    1  0.4319182E+000  0.2107667E+03  0.7546771E-02  0.1140960E+00
         21   -1    0    0  503  502  0.00000000000E+00  0.00000000000E+00  0.48799658091E+03  0.48799658091E+03  0.00000000000E+00 0. -1.
         21   -1    0    0  501  503 -0.00000000000E+00 -0.00000000000E+00 -0.23668023677E+03  0.23668023677E+03  0.00000000000E+00 0. -1.
          6    1    1    2  501    0  0.98714720150E+02 -0.68913022344E+02 -0.15858375720E+03  0.26376392602E+03  0.17300000000E+03 0. -1.
         -6    1    1    2    0  502 -0.98714720150E+02  0.68913022344E+02  0.40990010134E+03  0.46091289166E+03  0.17300000000E+03 0. -1.
<mgrwt>
<rscale>  2 0.21076670E+03</rscale>
<asrwt>0</asrwt>
<pdfrwt beam="1">  1       21 0.75076397E-01 0.21076670E+03</pdfrwt>
<pdfrwt beam="2">  1       21 0.36412344E-01 0.21076670E+03</pdfrwt>
<totfact> 0.11399844E+04</totfact>
</mgrwt>
</event>
<event>
 4    1  0.4319182E+000  0.2114320E+03  0.7546771E-02  0.1140437E+00
         21   -1    0    0  501  502  0.00000000000E+00  0.00000000000E+00  0.19269546224E+03  0.19269546224E+03  0.00000000000E+00 0.  1.
         21   -1    0    0  502  503 -0.00000000000E+00 -0.00000000000E+00 -0.23209498683E+03  0.23209498683E+03  0.00000000000E+00 0.  1.
          6    1    1    2  501    0 -0.85555100631E+02 -0.86341241404E+02 -0.15189713314E+02  0.21197691526E+03  0.17300000000E+03 0.  1.
         -6    1    1    2    0  503  0.85555100631E+02  0.86341241404E+02 -0.24209811276E+02  0.21281353381E+03  0.17300000000E+03 0.  1.
<mgrwt>
<rscale>  2 0.21143199E+03</rscale>
<asrwt>0</asrwt>
<pdfrwt beam="1">  1       21 0.29645456E-01 0.21143199E+03</pdfrwt>
<pdfrwt beam="2">  1       21 0.35706921E-01 0.21143199E+03</pdfrwt>
<totfact> 0.81827279E+04</totfact>
</mgrwt>
</event>
<event>
 4    1  0.4319182E+000  0.1958298E+03  0.7546771E-02  0.1153306E+00
         21   -1    0    0  503  502  0.00000000000E+00  0.00000000000E+00  0.23725691087E+03  0.23725691087E+03  0.00000000000E+00 0.  1.
         21   -1    0    0  501  503 -0.00000000000E+00 -0.00000000000E+00 -0.31566226460E+03  0.31566226460E+03  0.00000000000E+00 0. -1.
          6    1    1    2  501    0  0.36448374957E+02  0.84213033231E+02 -0.23231827407E+03  0.30384387351E+03  0.17300000000E+03 0. -1.
         -6    1    1    2    0  502 -0.36448374957E+02 -0.84213033231E+02  0.15391292033E+03  0.24907530196E+03  0.17300000000E+03 0.  1.
<mgrwt>
<rscale>  2 0.19582982E+03</rscale>
<asrwt>0</asrwt>
<pdfrwt beam="1">  1       21 0.36501063E-01 0.19582982E+03</pdfrwt>
<pdfrwt beam="2">  1       21 0.48563425E-01 0.19582982E+03</pdfrwt>
<totfact> 0.29255786E+04</totfact>
</mgrwt>
</event>
<event>
 4    1  0.4319182E+000  0.2346051E+03  0.7546771E-02  0.1123440E+00
         21   -1    0    0  503  502  0.00000000000E+00  0.00000000000E+00  0.23141272504E+03  0.23141272504E+03  0.00000000000E+00 0.  1.
         21   -1    0    0  501  503 -0.00000000000E+00 -0.00000000000E+00 -0.24598513285E+03  0.24598513285E+03  0.00000000000E+00 0.  1.
          6    1    1    2  501    0 -0.15756925819E+03  0.16807318313E+02 -0.50717648734E+02  0.24002465908E+03  0.17300000000E+03 0.  1.
         -6    1    1    2    0  502  0.15756925819E+03 -0.16807318313E+02  0.36145240922E+02  0.23737319881E+03  0.17300000000E+03 0.  1.
<mgrwt>
<rscale>  2 0.23460511E+03</rscale>
<asrwt>0</asrwt>
<pdfrwt beam="1">  1       21 0.35601958E-01 0.23460511E+03</pdfrwt>
<pdfrwt beam="2">  1       21 0.37843867E-01 0.23460511E+03</pdfrwt>
<totfact> 0.50251857E+04</totfact>
</mgrwt>
</event>
<event>
 4    1  0.4319182E+000  0.1791280E+03  0.7546771E-02  0.1168650E+00
         21   -1    0    0  503  502  0.00000000000E+00  0.00000000000E+00  0.35572658328E+03  0.35572658328E+03  0.00000000000E+00 0.  1.
         21   -1    0    0  501  503 -0.00000000000E+00 -0.00000000000E+00 -0.11452273737E+03  0.11452273737E+03  0.00000000000E+00 0.  1.
          6    1    1    2  501    0  0.27556581049E+02  0.37396111422E+02  0.12246386912E+02  0.17954611748E+03  0.17300000000E+03 0.  1.
         -6    1    1    2    0  502 -0.27556581049E+02 -0.37396111422E+02  0.22895745900E+03  0.29070320318E+03  0.17300000000E+03 0.  1.
<mgrwt>
<rscale>  2 0.17912798E+03</rscale>
<asrwt>0</asrwt>
<pdfrwt beam="1">  1       21 0.54727166E-01 0.17912798E+03</pdfrwt>
<pdfrwt beam="2">  1       21 0.17618883E-01 0.17912798E+03</pdfrwt>
<totfact> 0.92556035E+04</totfact>
</mgrwt>
</event>
<event>
 4    1  0.4319182E+000  0.1837179E+03  0.7546771E-02  0.1164253E+00
         21   -1    0    0  503  502  0.00000000000E+00  0.00000000000E+00  0.14444826917E+03  0.14444826917E+03  0.00000000000E+00 0.  1.
         21   -1    0    0  501  503 -0.00000000000E+00 -0.00000000000E+00 -0.66076100068E+03  0.66076100068E+03  0.00000000000E+00 0.  1.
          6    1    1    2  501    0 -0.27837177722E+02 -0.55212037374E+02 -0.58183953787E+03  0.61015532888E+03  0.17300000000E+03 0.  1.
         -6    1    1    2    0  502  0.27837177722E+02  0.55212037374E+02  0.65526806362E+02  0.19505394097E+03  0.17300000000E+03 0.  1.
<mgrwt>
<rscale>  2 0.18371793E+03</rscale>
<asrwt>0</asrwt>
<pdfrwt beam="1">  1       21 0.22222811E-01 0.18371793E+03</pdfrwt>
<pdfrwt beam="2">  1       21 0.10165554E+00 0.18371793E+03</pdfrwt>
<totfact> 0.15040189E+04</totfact>
</mgrwt>
</event>
<event>
 4    1  0.4319182E+000  0.2116758E+03  0.7546771E-02  0.1140246E+00
         21   -1    0    0  501  502  0.00000000000E+00  0.00000000000E+00  0.23052335281E+02  0.23052335281E+02  0.00000000000E+00 0.  1.
         21   -1    0    0  502  503 -0.00000000000E+00 -0.00000000000E+00 -0.20149838309E+04  0.20149838309E+04  0.00000000000E+00 0. -1.
          6    1    1    2  501    0  0.73375301769E+02 -0.97435574945E+02 -0.80428973137E+03  0.83167818185E+03  0.17300000000E+03 0.  1.
         -6    1    1    2    0  503 -0.73375301769E+02  0.97435574945E+02 -0.11876417642E+04  0.12063579843E+04  0.17300000000E+03 0. -1.
<mgrwt>
<rscale>  2 0.21167576E+03</rscale>
<asrwt>0</asrwt>
<pdfrwt beam="1">  1       21 0.35465114E-02 0.21167576E+03</pdfrwt>
<pdfrwt beam="2">  1       21 0.30999767E+00 0.21167576E+03</pdfrwt>
<totfact> 0.14049426E+04</totfact>
</mgrwt>
</event>
<event>
 4    1  0.4319182E+000  0.1866988E+03  0.7546771E-02  0.1161473E+00
         21   -1    0    0  503  502  0.00000000000E+00  0.00000000000E+00  0.54325127766E+02  0.54325127766E+02  0.00000000000E+00 0.  1.
         21   -1    0    0  501  503 -0.00000000000E+00 -0.00000000000E+00 -0.10785407448E+04  0.10785407448E+04  0.00000000000E+00 0. -1.
          6    1    1    2  501    0  0.89840545695E+01 -0.69618419378E+02 -0.87262697571E+03  0.89237563632E+03  0.17300000000E+03 0. -1.
         -6    1    1    2    0  502 -0.89840545695E+01  0.69618419378E+02 -0.15158864132E+03  0.24049023625E+03  0.17300000000E+03 0.  1.
<mgrwt>
<rscale>  2 0.18669879E+03</rscale>
<asrwt>0</asrwt>
<pdfrwt beam="1">  1       21 0.83577121E-02 0.18669879E+03</pdfrwt>
<pdfrwt beam="2">  1       21 0.16592934E+00 0.18669879E+03</pdfrwt>
<totfact> 0.25456468E+04</totfact>
</mgrwt>
</event>
<event>
 4    1  0.4319182E+000  0.1897125E+03  0.7546771E-02  0.1158721E+00
         21   -1    0    0  503  502  0.00000000000E+00  0.00000000000E+00  0.77171796160E+02  0.77171796160E+02  0.00000000000E+00 0.  1.
         21   -1    0    0  501  503 -0.00000000000E+00 -0.00000000000E+00 -0.67961464512E+03  0.67961464512E+03  0.00000000000E+00 0. -1.
          6    1    1    2  501    0 -0.38927243492E+02  0.67427625131E+02 -0.51317871204E+03  0.54712266029E+03  0.17300000000E+03 0. -1.
         -6    1    1    2    0  502  0.38927243492E+02 -0.67427625131E+02 -0.89264136918E+02  0.20966378098E+03  0.17300000000E+03 0.  1.
<mgrwt>
<rscale>  2 0.18971245E+03</rscale>
<asrwt>0</asrwt>
<pdfrwt beam="1">  1       21 0.11872584E-01 0.18971245E+03</pdfrwt>
<pdfrwt beam="2">  1       21 0.10455610E+00 0.18971245E+03</pdfrwt>
<totfact> 0.44214542E+04</totfact>
</mgrwt>
</event>
<event>
 4    1  0.4319182E+000  0.1896020E+03  0.7546771E-02  0.1158821E+00
         21   -1    0    0  501  502  0.00000000000E+00  0.00000000000E+00  0.98435273672E+03  0.98435273672E+03  0.00000000000E+00 0.  1.
         21   -1    0    0  502  503 -0.00000000000E+00 -0.00000000000E+00 -0.36782115750E+02  0.36782115750E+02  0.00000000000E+00 0. -1.
          6    1    1    2  501    0  0.56907198512E+02 -0.52739840358E+02  0.51685579470E+03  0.55053504205E+03  0.17300000000E+03 0. -1.
         -6    1    1    2    0  503 -0.56907198512E+02  0.52739840358E+02  0.43071482626E+03  0.47059981042E+03  0.17300000000E+03 0. -1.
<mgrwt>
<rscale>  2 0.18960200E+03</rscale>
<asrwt>0</asrwt>
<pdfrwt beam="1">  1       21 0.15143886E+00 0.18960200E+03</pdfrwt>
<pdfrwt beam="2">  1       21 0.56587878E-02 0.18960200E+03</pdfrwt>
<totfact> 0.63624102E+04</totfact>
</mgrwt>
</event>
<event>
 4    1  0.4319182E+000  0.2465905E+03  0.7546771E-02  0.1115479E+00
         21   -1    0    0  503  502  0.00000000000E+00  0.00000000000E+00  0.37846549288E+03  0.37846549288E+03  0.00000000000E+00 0.  1.
         21   -1    0    0  501  503 -0.00000000000E+00 -0.00000000000E+00 -0.26341893458E+03  0.26341893458E+03  0.00000000000E+00 0. -1.
          6    1    1    2  501    0 -0.17520736825E+03 -0.13426123101E+02 -0.14292324769E+03  0.28501567922E+03  0.17300000000E+03 0. -1.
         -6    1    1    2    0  502  0.17520736825E+03  0.13426123101E+02  0.25796980599E+03  0.35686874824E+03  0.17300000000E+03 0.  1.
<mgrwt>
<rscale>  2 0.24659052E+03</rscale>
<asrwt>0</asrwt>
<pdfrwt beam="1">  1       21 0.58225460E-01 0.24659052E+03</pdfrwt>
<pdfrwt beam="2">  1       21 0.40525990E-01 0.24659052E+03</pdfrwt>
<totfact> 0.15714379E+04</totfact>
</mgrwt>
</event>
<event>
 4    1  0.4319182E+000  0.1825749E+03  0.7546771E-02  0.1165334E+00
         21   -1    0    0  503  502  0.00000000000E+00  0.00000000000E+00  0.10062696128E+04  0.10062696128E+04  0.00000000000E+00 0. -1.
         21   -1    0    0  501  503 -0.00000000000E+00 -0.00000000000E+00 -0.10181491519E+03  0.10181491519E+03  0.00000000000E+00 0. -1.
          6    1    1    2  501    0  0.57678686159E+02 -0.88178670666E+01 -0.28454124723E+01  0.18259704814E+03  0.17300000000E+03 0. -1.
         -6    1    1    2    0  502 -0.57678686159E+02  0.88178670666E+01  0.90730011005E+03  0.92548747983E+03  0.17300000000E+03 0. -1.
<mgrwt>
<rscale>  2 0.18257488E+03</rscale>
<asrwt>0</asrwt>
<pdfrwt beam="1">  1       21 0.15481070E+00 0.18257488E+03</pdfrwt>
<pdfrwt beam="2">  1       21 0.15663834E-01 0.18257488E+03</pdfrwt>
<totfact> 0.10045006E+04</totfact>
</mgrwt>
</event>
<event>
 4    1  0.4319182E+000  0.2221596E+03  0.7546771E-02  0.1132283E+00
         21   -1    0    0  501  502  0.00000000000E+00  0.00000000000E+00  0.52516688326E+03  0.52516688326E+03  0.00000000000E+00 0.  1.
         21   -1    0    0  502  503 -0.00000000000E+00 -0.00000000000E+00 -0.17887442907E+03  0.17887442907E+03  0.00000000000E+00 0. -1.
          6    1    1    2  501    0 -0.13898187755E+03  0.10483742302E+02  0.41565928964E+03  0.47130405919E+03  0.17300000000E+03 0.  1.
         -6    1    1    2    0  503  0.13898187755E+03 -0.10483742302E+02 -0.69366835450E+02  0.23273725314E+03  0.17300000000E+03 0. -1.
<mgrwt>
<rscale>  2 0.22215956E+03</rscale>
<asrwt>0</asrwt>
<pdfrwt beam="1">  1       21 0.80794905E-01 0.22215956E+03</pdfrwt>
<pdfrwt beam="2">  1       21 0.27519143E-01 0.22215956E+03</pdfrwt>
<totfact> 0.16641766E+04</totfact>
</mgrwt>
</event>
<event>
 4    1  0.4319182E+000  0.1969714E+03  0.7546771E-02  0.1152320E+00
         21   -1    0    0  503  502  0.00000000000E+00  0.00000000000E+00  0.78123109657E+03  0.78123109657E+03  0.00000000000E+00 0.  1.
         21   -1    0    0  501  503 -0.00000000000E+00 -0.00000000000E+00 -0.55708765816E+02  0.55708765816E+02  0.00000000000E+00 0.  1.
          6    1    1    2  501    0 -0.23690854656E+02 -0.91145250800E+02  0.22489611056E+03  0.29895814737E+03  0.17300000000E+03 0.  1.
         -6    1    1    2    0  502  0.23690854656E+02  0.91145250800E+02  0.50062622019E+03  0.53798171501E+03  0.17300000000E+03 0.  1.
<mgrwt>
<rscale>  2 0.19697135E+03</rscale>
<asrwt>0</asrwt>
<pdfrwt beam="1">  1       21 0.12018939E+00 0.19697135E+03</pdfrwt>
<pdfrwt beam="2">  1       21 0.85705799E-02 0.19697135E+03</pdfrwt>
<totfact> 0.55852613E+04</totfact>
</mgrwt>
</event>
<event>
 4    1  0.4319182E+000  0.2059427E+03  0.7546771E-02  0.1144820E+00
         21   -1    0    0  501  502  0.00000000000E+00  0.00000000000E+00  0.33758369620E+03  0.33758369620E+03  0.00000000000E+00 0. -1.
         21   -1    0    0  502  503 -0.00000000000E+00 -0.00000000000E+00 -0.13510499598E+03  0.13510499598E+03  0.00000000000E+00 0.  1.
          6    1    1    2  501    0  0.28783025306E+02  0.10795796158E+03  0.38667271333E+02  0.20954126536E+03  0.17300000000E+03 0.  1.
         -6    1    1    2    0  503 -0.28783025306E+02 -0.10795796158E+03  0.16381142889E+03  0.26314742683E+03  0.17300000000E+03 0.  1.
<mgrwt>
<rscale>  2 0.20594267E+03</rscale>
<asrwt>0</asrwt>
<pdfrwt beam="1">  1       21 0.51935953E-01 0.20594267E+03</pdfrwt>
<pdfrwt beam="2">  1       21 0.20785384E-01 0.20594267E+03</pdfrwt>
<totfact> 0.75150584E+04</totfact>
</mgrwt>
</event>
<event>
 4    1  0.4319182E+000  0.2041963E+03  0.7546771E-02  0.1146246E+00
         21   -1    0    0  501  502  0.00000000000E+00  0.00000000000E+00  0.57918141955E+02  0.57918141955E+02  0.00000000000E+00 0.  1.
         21   -1    0    0  502  503 -0.00000000000E+00 -0.00000000000E+00 -0.14587662035E+04  0.14587662035E+04  0.00000000000E+00 0.  1.
          6    1    1    2  501    0  0.10600517600E+03 -0.23022837035E+02 -0.16072603180E+03  0.25986343656E+03  0.17300000000E+03 0.  1.
         -6    1    1    2    0  503 -0.10600517600E+03  0.23022837035E+02 -0.12401220297E+04  0.12568209089E+04  0.17300000000E+03 0.  1.
<mgrwt>
<rscale>  2 0.20419635E+03</rscale>
<asrwt>0</asrwt>
<pdfrwt beam="1">  1       21 0.89104829E-02 0.20419635E+03</pdfrwt>
<pdfrwt beam="2">  1       21 0.22442558E+00 0.20419635E+03</pdfrwt>
<totfact> 0.93005103E+03</totfact>
</mgrwt>
</event>
<event>
 4    1  0.4319182E+000  0.2053354E+03  0.7546771E-02  0.1145314E+00
         21   -1    0    0  503  502  0.00000000000E+00  0.00000000000E+00  0.12847673203E+03  0.12847673203E+03  0.00000000000E+00 0.  1.
         21   -1    0    0  501  503 -0.00000000000E+00 -0.00000000000E+00 -0.39664304989E+03  0.39664304989E+03  0.00000000000E+00 0.  1.
          6    1    1    2  501    0 -0.40542540856E+02  0.10290730552E+03 -0.24317150872E+03  0.31826874462E+03  0.17300000000E+03 0.  1.
         -6    1    1    2    0  502  0.40542540856E+02 -0.10290730552E+03 -0.24994809137E+02  0.20685103730E+03  0.17300000000E+03 0.  1.
<mgrwt>
<rscale>  2 0.20533536E+03</rscale>
<asrwt>0</asrwt>
<pdfrwt beam="1">  1       21 0.19765651E-01 0.20533536E+03</pdfrwt>
<pdfrwt beam="2">  1       21 0.61022007E-01 0.20533536E+03</pdfrwt>
<totfact> 0.58611297E+04</totfact>
</mgrwt>
</event>
<event>
 4    1  0.4319182E+000  0.1990575E+03  0.7546771E-02  0.1150537E+00
         21   -1    0    0  501  502  0.00000000000E+00  0.00000000000E+00  0.21221811834E+04  0.21221811834E+04  0.00000000000E+00 0. -1.
         21   -1    0    0  502  503 -0.00000000000E+00 -0.00000000000E+00 -0.19897897725E+02  0.19897897725E+02  0.00000000000E+00 0. -1.
          6    1    1    2  501    0  0.78328693555E+02  0.59661578820E+02  0.78522077075E+03  0.81005897751E+03  0.17300000000E+03 0. -1.
         -6    1    1    2    0  503 -0.78328693555E+02 -0.59661578820E+02  0.13170625149E+04  0.13320201036E+04  0.17300000000E+03 0. -1.
<mgrwt>
<rscale>  2 0.19905750E+03</rscale>
<asrwt>0</asrwt>
<pdfrwt beam="1">  1       21 0.32648923E+00 0.19905750E+03</pdfrwt>
<pdfrwt beam="2">  1       21 0.30612167E-02 0.19905750E+03</pdfrwt>
<totfact> 0.14585633E+04</totfact>
</mgrwt>
</event>
<event>
 4    1  0.4319182E+000  0.3194759E+03  0.7546771E-02  0.1075891E+00
         21   -1    0    0  503  502  0.00000000000E+00  0.00000000000E+00  0.10510797176E+04  0.10510797176E+04  0.00000000000E+00 0.  1.
         21   -1    0    0  501  503 -0.00000000000E+00 -0.00000000000E+00 -0.10430532391E+03  0.10430532391E+03  0.00000000000E+00 0. -1.
          6    1    1    2  501    0 -0.10414496132E+03 -0.24756749630E+03  0.32160287309E+03  0.45331362893E+03  0.17300000000E+03 0. -1.
         -6    1    1    2    0  502  0.10414496132E+03  0.24756749630E+03  0.62517152059E+03  0.70207141257E+03  0.17300000000E+03 0.  1.
<mgrwt>
<rscale>  2 0.31947588E+03</rscale>
<asrwt>0</asrwt>
<pdfrwt beam="1">  1       21 0.16170456E+00 0.31947588E+03</pdfrwt>
<pdfrwt beam="2">  1       21 0.16046974E-01 0.31947588E+03</pdfrwt>
<totfact> 0.78311692E+03</totfact>
</mgrwt>
</event>
<event>
 4    1  0.4319182E+000  0.2087097E+03  0.7546771E-02  0.1142592E+00
         21   -1    0    0  503  502  0.00000000000E+00  0.00000000000E+00  0.10388715377E+03  0.10388715377E+03  0.00000000000E+00 0.  1.
         21   -1    0    0  501  503 -0.00000000000E+00 -0.00000000000E+00 -0.77212460193E+03  0.77212460193E+03  0.00000000000E+00 0.  1.
          6    1    1    2  501    0 -0.76231680403E+02 -0.88427727618E+02 -0.63020383637E+03  0.66386490153E+03  0.17300000000E+03 0.  1.
         -6    1    1    2    0  502  0.76231680403E+02  0.88427727618E+02 -0.38033611792E+02  0.21214685417E+03  0.17300000000E+03 0.  1.
<mgrwt>
<rscale>  2 0.20870968E+03</rscale>
<asrwt>0</asrwt>
<pdfrwt beam="1">  1       21 0.15982639E-01 0.20870968E+03</pdfrwt>
<pdfrwt beam="2">  1       21 0.11878840E+00 0.20870968E+03</pdfrwt>
<totfact> 0.18727120E+04</totfact>
</mgrwt>
</event>
<event>
 4    1  0.4319182E+000  0.3282248E+03  0.7546771E-02  0.1071925E+00
         21   -1    0    0  503  502  0.00000000000E+00  0.00000000000E+00  0.27066761436E+03  0.27066761436E+03  0.00000000000E+00 0. -1.
         21   -1    0    0  501  503 -0.00000000000E+00 -0.00000000000E+00 -0.50974486475E+03  0.50974486475E+03  0.00000000000E+00 0.  1.
          6    1    1    2  501    0  0.38281377737E+02 -0.27629156644E+03  0.63140971478E+02  0.33424283963E+03  0.17300000000E+03 0. -1.
         -6    1    1    2    0  502 -0.38281377737E+02  0.27629156644E+03 -0.30221822186E+03  0.44616963948E+03  0.17300000000E+03 0.  1.
<mgrwt>
<rscale>  2 0.32822476E+03</rscale>
<asrwt>0</asrwt>
<pdfrwt beam="1">  1       21 0.41641172E-01 0.32822476E+03</pdfrwt>
<pdfrwt beam="2">  1       21 0.78422286E-01 0.32822476E+03</pdfrwt>
<totfact> 0.73977410E+03</totfact>
</mgrwt>
</event>
<event>
 4    1  0.4319182E+000  0.1866567E+03  0.7546771E-02  0.1161512E+00
         21   -1    0    0  503  502  0.00000000000E+00  0.00000000000E+00  0.16472827688E+03  0.16472827688E+03  0.00000000000E+00 0. -1.
         21   -1    0    0  501  503 -0.00000000000E+00 -0.00000000000E+00 -0.21151184679E+03  0.21151184679E+03  0.00000000000E+00 0. -1.
          6    1    1    2  501    0 -0.26703463708E+02 -0.64797095864E+02 -0.24515609940E+02  0.18825980383E+03  0.17300000000E+03 0. -1.
         -6    1    1    2    0  502  0.26703463708E+02  0.64797095864E+02 -0.22267959970E+02  0.18798031984E+03  0.17300000000E+03 0. -1.
<mgrwt>
<rscale>  2 0.18665674E+03</rscale>
<asrwt>0</asrwt>
<pdfrwt beam="1">  1       21 0.25342812E-01 0.18665674E+03</pdfrwt>
<pdfrwt beam="2">  1       21 0.32540284E-01 0.18665674E+03</pdfrwt>
<totfact> 0.13439128E+05</totfact>
</mgrwt>
</event>
<event>
 4    1  0.4319182E+000  0.1968240E+03  0.7546771E-02  0.1152447E+00
         21   -1    0    0  501  502  0.00000000000E+00  0.00000000000E+00  0.21792918914E+03  0.21792918914E+03  0.00000000000E+00 0. -1.
         21   -1    0    0  502  503 -0.00000000000E+00 -0.00000000000E+00 -0.83098176990E+03  0.83098176990E+03  0.00000000000E+00 0. -1.
          6    1    1    2  501    0  0.51752474669E+01 -0.93722573592E+02  0.15846227332E+03  0.25268556756E+03  0.17300000000E+03 0. -1.
         -6    1    1    2    0  503 -0.51752474669E+01  0.93722573592E+02 -0.77151485407E+03  0.79622539148E+03  0.17300000000E+03 0. -1.
<mgrwt>
<rscale>  2 0.19682404E+03</rscale>
<asrwt>0</asrwt>
<pdfrwt beam="1">  1       21 0.33527568E-01 0.19682404E+03</pdfrwt>
<pdfrwt beam="2">  1       21 0.12784335E+00 0.19682404E+03</pdfrwt>
<totfact> 0.38494362E+03</totfact>
</mgrwt>
</event>
<event>
 4    1  0.4319182E+000  0.1804054E+03  0.7546771E-02  0.1167411E+00
         21   -1    0    0  503  502  0.00000000000E+00  0.00000000000E+00  0.22056006374E+03  0.22056006374E+03  0.00000000000E+00 0. -1.
         21   -1    0    0  501  503 -0.00000000000E+00 -0.00000000000E+00 -0.17137819816E+03  0.17137819816E+03  0.00000000000E+00 0. -1.
          6    1    1    2  501    0 -0.39570365152E+02  0.32423431918E+02  0.97646616519E+02  0.20513642888E+03  0.17300000000E+03 0. -1.
         -6    1    1    2    0  502  0.39570365152E+02 -0.32423431918E+02 -0.48464750937E+02  0.18680183302E+03  0.17300000000E+03 0. -1.
<mgrwt>
<rscale>  2 0.18040536E+03</rscale>
<asrwt>0</asrwt>
<pdfrwt beam="1">  1       21 0.33932317E-01 0.18040536E+03</pdfrwt>
<pdfrwt beam="2">  1       21 0.26365877E-01 0.18040536E+03</pdfrwt>
<totfact> 0.11496969E+05</totfact>
</mgrwt>
</event>
<event>
 4    1  0.4319182E+000  0.2004652E+03  0.7546771E-02  0.1149347E+00
         21   -1    0    0  503  502  0.00000000000E+00  0.00000000000E+00  0.78542274130E+02  0.78542274130E+02  0.00000000000E+00 0. -1.
         21   -1    0    0  501  503 -0.00000000000E+00 -0.00000000000E+00 -0.52593556840E+03  0.52593556840E+03  0.00000000000E+00 0. -1.
          6    1    1    2  501    0  0.41884776970E+01 -0.10119168729E+03 -0.27350527223E+03  0.33910387031E+03  0.17300000000E+03 0. -1.
         -6    1    1    2    0  502 -0.41884776970E+01  0.10119168729E+03 -0.17388802205E+03  0.26537397222E+03  0.17300000000E+03 0. -1.
<mgrwt>
<rscale>  2 0.20046521E+03</rscale>
<asrwt>0</asrwt>
<pdfrwt beam="1">  1       21 0.12083426E-01 0.20046521E+03</pdfrwt>
<pdfrwt beam="2">  1       21 0.80913167E-01 0.20046521E+03</pdfrwt>
<totfact> 0.77420929E+04</totfact>
</mgrwt>
</event>
<event>
 4    1  0.4319182E+000  0.2269520E+03  0.7546771E-02  0.1128804E+00
         21   -1    0    0  503  502  0.00000000000E+00  0.00000000000E+00  0.40611889841E+03  0.40611889841E+03  0.00000000000E+00 0. -1.
         21   -1    0    0  501  503 -0.00000000000E+00 -0.00000000000E+00 -0.13187400548E+03  0.13187400548E+03  0.00000000000E+00 0. -1.
          6    1    1    2  501    0  0.11142783202E+03  0.95718551391E+02  0.84503086531E+02  0.24217343880E+03  0.17300000000E+03 0. -1.
         -6    1    1    2    0  502 -0.11142783202E+03 -0.95718551391E+02  0.18974180640E+03  0.29581946509E+03  0.17300000000E+03 0. -1.
<mgrwt>
<rscale>  2 0.22695198E+03</rscale>
<asrwt>0</asrwt>
<pdfrwt beam="1">  1       21 0.62479830E-01 0.22695198E+03</pdfrwt>
<pdfrwt beam="2">  1       21 0.20288309E-01 0.22695198E+03</pdfrwt>
<totfact> 0.52522985E+04</totfact>
</mgrwt>
</event>
<event>
 4    1  0.4319182E+000  0.1918290E+03  0.7546771E-02  0.1156822E+00
         21   -1    0    0  503  502  0.00000000000E+00  0.00000000000E+00  0.71818941167E+03  0.71818941167E+03  0.00000000000E+00 0.  1.
         21   -1    0    0  501  503 -0.00000000000E+00 -0.00000000000E+00 -0.68443106587E+02  0.68443106587E+02  0.00000000000E+00 0.  1.
          6    1    1    2  501    0 -0.65476178111E+01  0.82622643114E+02  0.12767196154E+03  0.23043112250E+03  0.17300000000E+03 0. -1.
         -6    1    1    2    0  502  0.65476178111E+01 -0.82622643114E+02  0.52207434354E+03  0.55620139575E+03  0.17300000000E+03 0. -1.
<mgrwt>
<rscale>  2 0.19182902E+03</rscale>
<asrwt>0</asrwt>
<pdfrwt beam="1">  1       21 0.11049067E+00 0.19182902E+03</pdfrwt>
<pdfrwt beam="2">  1       21 0.10529709E-01 0.19182902E+03</pdfrwt>
<totfact> 0.47873641E+04</totfact>
</mgrwt>
</event>
<event>
 4    1  0.4319182E+000  0.1873797E+03  0.7546771E-02  0.1160846E+00
         21   -1    0    0  501  502  0.00000000000E+00  0.00000000000E+00  0.68970949382E+03  0.68970949382E+03  0.00000000000E+00 0. -1.
         21   -1    0    0  502  503 -0.00000000000E+00 -0.00000000000E+00 -0.53476295476E+02  0.53476295476E+02  0.00000000000E+00 0.  1.
          6    1    1    2  501    0  0.68998157169E+02  0.20528414176E+02  0.39956433779E+03  0.44131940985E+03  0.17300000000E+03 0. -1.
         -6    1    1    2    0  503 -0.68998157169E+02 -0.20528414176E+02  0.23666886056E+03  0.30186637944E+03  0.17300000000E+03 0. -1.
<mgrwt>
<rscale>  2 0.18737973E+03</rscale>
<asrwt>0</asrwt>
<pdfrwt beam="1">  1       21 0.10610915E+00 0.18737973E+03</pdfrwt>
<pdfrwt beam="2">  1       21 0.82271229E-02 0.18737973E+03</pdfrwt>
<totfact> 0.81608796E+04</totfact>
</mgrwt>
</event>
<event>
 4    1  0.4319182E+000  0.1887579E+03  0.7546771E-02  0.1159586E+00
         21   -1    0    0  501  502  0.00000000000E+00  0.00000000000E+00  0.68724144753E+03  0.68724144753E+03  0.00000000000E+00 0. -1.
         21   -1    0    0  502  503 -0.00000000000E+00 -0.00000000000E+00 -0.69403168804E+02  0.69403168804E+02  0.00000000000E+00 0. -1.
          6    1    1    2  501    0 -0.47128048730E+02  0.58987120165E+02  0.49921130111E+03  0.53370540233E+03  0.17300000000E+03 0.  1.
         -6    1    1    2    0  503  0.47128048730E+02 -0.58987120165E+02  0.11862697762E+03  0.22293921401E+03  0.17300000000E+03 0.  1.
<mgrwt>
<rscale>  2 0.18875787E+03</rscale>
<asrwt>0</asrwt>
<pdfrwt beam="1">  1       21 0.10572945E+00 0.18875787E+03</pdfrwt>
<pdfrwt beam="2">  1       21 0.10677411E-01 0.18875787E+03</pdfrwt>
<totfact> 0.52020002E+04</totfact>
</mgrwt>
</event>
<event>
 4    1  0.4319182E+000  0.2151343E+03  0.7546771E-02  0.1137563E+00
         21   -1    0    0  503  502  0.00000000000E+00  0.00000000000E+00  0.18929193347E+03  0.18929193347E+03  0.00000000000E+00 0.  1.
         21   -1    0    0  501  503 -0.00000000000E+00 -0.00000000000E+00 -0.27777610367E+03  0.27777610367E+03  0.00000000000E+00 0.  1.
          6    1    1    2  501    0 -0.97849849024E+02  0.82335730228E+02 -0.12506571320E+03  0.24884573142E+03  0.17300000000E+03 0.  1.
         -6    1    1    2    0  502  0.97849849024E+02 -0.82335730228E+02  0.36581543003E+02  0.21822230572E+03  0.17300000000E+03 0.  1.
<mgrwt>
<rscale>  2 0.21513430E+03</rscale>
<asrwt>0</asrwt>
<pdfrwt beam="1">  1       21 0.29121836E-01 0.21513430E+03</pdfrwt>
<pdfrwt beam="2">  1       21 0.42734785E-01 0.21513430E+03</pdfrwt>
<totfact> 0.58854734E+04</totfact>
</mgrwt>
</event>
<event>
 4    1  0.4319182E+000  0.1870189E+03  0.7546771E-02  0.1161178E+00
         21   -1    0    0  501  502  0.00000000000E+00  0.00000000000E+00  0.12126638451E+03  0.12126638451E+03  0.00000000000E+00 0.  1.
         21   -1    0    0  502  503 -0.00000000000E+00 -0.00000000000E+00 -0.29681124668E+03  0.29681124668E+03  0.00000000000E+00 0.  1.
          6    1    1    2  501    0 -0.68063360956E+02 -0.20358239815E+02 -0.52631880406E+02  0.19428379723E+03  0.17300000000E+03 0.  1.
         -6    1    1    2    0  503  0.68063360956E+02  0.20358239815E+02 -0.12291298176E+03  0.22379383396E+03  0.17300000000E+03 0.  1.
<mgrwt>
<rscale>  2 0.18701893E+03</rscale>
<asrwt>0</asrwt>
<pdfrwt beam="1">  1       21 0.18656367E-01 0.18701893E+03</pdfrwt>
<pdfrwt beam="2">  1       21 0.45663269E-01 0.18701893E+03</pdfrwt>
<totfact> 0.12105395E+05</totfact>
</mgrwt>
</event>
<event>
 4    1  0.4319182E+000  0.2072190E+03  0.7546771E-02  0.1143787E+00
         21   -1    0    0  501  502  0.00000000000E+00  0.00000000000E+00  0.54316524156E+03  0.54316524156E+03  0.00000000000E+00 0.  1.
         21   -1    0    0  502  503 -0.00000000000E+00 -0.00000000000E+00 -0.83668089762E+02  0.83668089762E+02  0.00000000000E+00 0.  1.
          6    1    1    2  501    0 -0.86924825970E+02 -0.73856557778E+02  0.30334495626E+03  0.36736613750E+03  0.17300000000E+03 0.  1.
         -6    1    1    2    0  503  0.86924825970E+02  0.73856557778E+02  0.15615219554E+03  0.25946719382E+03  0.17300000000E+03 0.  1.
<mgrwt>
<rscale>  2 0.20721901E+03</rscale>
<asrwt>0</asrwt>
<pdfrwt beam="1">  1       21 0.83563881E-01 0.20721901E+03</pdfrwt>
<pdfrwt beam="2">  1       21 0.12872014E-01 0.20721901E+03</pdfrwt>
<totfact> 0.64022952E+04</totfact>
</mgrwt>
</event>
<event>
 4    1  0.4319182E+000  0.2061919E+03  0.7546771E-02  0.1144618E+00
         21   -1    0    0  501  502  0.00000000000E+00  0.00000000000E+00  0.93127943632E+02  0.93127943632E+02  0.00000000000E+00 0. -1.
         21   -1    0    0  502  503 -0.00000000000E+00 -0.00000000000E+00 -0.57351585246E+03  0.57351585246E+03  0.00000000000E+00 0.  1.
          6    1    1    2  501    0  0.59208649150E+02  0.95291414662E+02 -0.89647888844E+02  0.22483741196E+03  0.17300000000E+03 0. -1.
         -6    1    1    2    0  503 -0.59208649150E+02 -0.95291414662E+02 -0.39074001999E+03  0.44180638414E+03  0.17300000000E+03 0.  1.
<mgrwt>
<rscale>  2 0.20619194E+03</rscale>
<asrwt>0</asrwt>
<pdfrwt beam="1">  1       21 0.14327376E-01 0.20619194E+03</pdfrwt>
<pdfrwt beam="2">  1       21 0.88233207E-01 0.20619194E+03</pdfrwt>
<totfact> 0.46572201E+04</totfact>
</mgrwt>
</event>
<event>
 4    1  0.4319182E+000  0.2027090E+03  0.7546771E-02  0.1147473E+00
         21   -1    0    0  501  502  0.00000000000E+00  0.00000000000E+00  0.47867164639E+03  0.47867164639E+03  0.00000000000E+00 0.  1.
         21   -1    0    0  502  503 -0.00000000000E+00 -0.00000000000E+00 -0.86360428304E+02  0.86360428304E+02  0.00000000000E+00 0.  1.
          6    1    1    2  501    0 -0.82654445174E+02  0.65804147700E+02  0.21800899002E+03  0.29768920520E+03  0.17300000000E+03 0.  1.
         -6    1    1    2    0  503  0.82654445174E+02 -0.65804147700E+02  0.17430222807E+03  0.26734286950E+03  0.17300000000E+03 0.  1.
<mgrwt>
<rscale>  2 0.20270901E+03</rscale>
<asrwt>0</asrwt>
<pdfrwt beam="1">  1       21 0.73641791E-01 0.20270901E+03</pdfrwt>
<pdfrwt beam="2">  1       21 0.13286220E-01 0.20270901E+03</pdfrwt>
<totfact> 0.80579974E+04</totfact>
</mgrwt>
</event>
<event>
 4    1  0.4319182E+000  0.1778788E+03  0.7546771E-02  0.1169872E+00
         21   -1    0    0  501  502  0.00000000000E+00  0.00000000000E+00  0.31122039962E+03  0.31122039962E+03  0.00000000000E+00 0. -1.
         21   -1    0    0  502  503 -0.00000000000E+00 -0.00000000000E+00 -0.37995580145E+03  0.37995580145E+03  0.00000000000E+00 0. -1.
          6    1    1    2  501    0 -0.34587311226E+02  0.22706818078E+02  0.26139269016E+03  0.31617561600E+03  0.17300000000E+03 0. -1.
         -6    1    1    2    0  503  0.34587311226E+02 -0.22706818078E+02 -0.33012809199E+03  0.37500058507E+03  0.17300000000E+03 0. -1.
<mgrwt>
<rscale>  2 0.17787884E+03</rscale>
<asrwt>0</asrwt>
<pdfrwt beam="1">  1       21 0.47880061E-01 0.17787884E+03</pdfrwt>
<pdfrwt beam="2">  1       21 0.58454739E-01 0.17787884E+03</pdfrwt>
<totfact> 0.11539900E+04</totfact>
</mgrwt>
</event>
<event>
 4    1  0.4319182E+000  0.1850219E+03  0.7546771E-02  0.1163029E+00
         21   -1    0    0  503  502  0.00000000000E+00  0.00000000000E+00  0.10941685745E+03  0.10941685745E+03  0.00000000000E+00 0. -1.
         21   -1    0    0  501  503 -0.00000000000E+00 -0.00000000000E+00 -0.49318257756E+03  0.49318257756E+03  0.00000000000E+00 0. -1.
          6    1    1    2  501    0 -0.60340281730E+01 -0.65327611282E+02 -0.37406654331E+03  0.41732347779E+03  0.17300000000E+03 0. -1.
         -6    1    1    2    0  502  0.60340281730E+01  0.65327611282E+02 -0.96991767997E+01  0.18527595722E+03  0.17300000000E+03 0. -1.
<mgrwt>
<rscale>  2 0.18502191E+03</rscale>
<asrwt>0</asrwt>
<pdfrwt beam="1">  1       21 0.16833363E-01 0.18502191E+03</pdfrwt>
<pdfrwt beam="2">  1       21 0.75874243E-01 0.18502191E+03</pdfrwt>
<totfact> 0.49396695E+04</totfact>
</mgrwt>
</event>
<event>
 4    1  0.4319182E+000  0.1827488E+03  0.7546771E-02  0.1165169E+00
         21   -1    0    0  503  502  0.00000000000E+00  0.00000000000E+00  0.14144151697E+03  0.14144151697E+03  0.00000000000E+00 0.  1.
         21   -1    0    0  501  503 -0.00000000000E+00 -0.00000000000E+00 -0.53628033746E+03  0.53628033746E+03  0.00000000000E+00 0.  1.
          6    1    1    2  501    0  0.21868958652E+01 -0.58850310646E+02 -0.45093365136E+03  0.48655760142E+03  0.17300000000E+03 0.  1.
         -6    1    1    2    0  502 -0.21868958652E+01  0.58850310646E+02  0.56094830867E+02  0.19116425300E+03  0.17300000000E+03 0.  1.
<mgrwt>
<rscale>  2 0.18274885E+03</rscale>
<asrwt>0</asrwt>
<pdfrwt beam="1">  1       21 0.21760233E-01 0.18274885E+03</pdfrwt>
<pdfrwt beam="2">  1       21 0.82504667E-01 0.18274885E+03</pdfrwt>
<totfact> 0.25416620E+04</totfact>
</mgrwt>
</event>
<event>
 4    1  0.4319182E+000  0.1975304E+03  0.7546771E-02  0.1151840E+00
         21   -1    0    0  503  502  0.00000000000E+00  0.00000000000E+00  0.53194496267E+03  0.53194496267E+03  0.00000000000E+00 0. -1.
         21   -1    0    0  501  503 -0.00000000000E+00 -0.00000000000E+00 -0.73574915141E+02  0.73574915141E+02  0.00000000000E+00 0.  1.
          6    1    1    2  501    0  0.87613676979E+02  0.37591011277E+02  0.21245093204E+03  0.29009246637E+03  0.17300000000E+03 0. -1.
         -6    1    1    2    0  502 -0.87613676979E+02 -0.37591011277E+02  0.24591911549E+03  0.31542741144E+03  0.17300000000E+03 0.  1.
<mgrwt>
<rscale>  2 0.19753035E+03</rscale>
<asrwt>0</asrwt>
<pdfrwt beam="1">  1       21 0.81837684E-01 0.19753035E+03</pdfrwt>
<pdfrwt beam="2">  1       21 0.11319218E-01 0.19753035E+03</pdfrwt>
<totfact> 0.84906136E+04</totfact>
</mgrwt>
</event>
<event>
 4    1  0.4319182E+000  0.4410819E+03  0.7546771E-02  0.1030415E+00
         21   -1    0    0  501  502  0.00000000000E+00  0.00000000000E+00  0.78984308572E+03  0.78984308572E+03  0.00000000000E+00 0. -1.
         21   -1    0    0  502  503 -0.00000000000E+00 -0.00000000000E+00 -0.25947228350E+03  0.25947228350E+03  0.00000000000E+00 0.  1.
          6    1    1    2  501    0  0.26660155761E+03  0.30585591909E+03  0.38331269636E+03  0.58436448981E+03  0.17300000000E+03 0.  1.
         -6    1    1    2    0  503 -0.26660155761E+03 -0.30585591909E+03  0.14705810586E+03  0.46495087941E+03  0.17300000000E+03 0.  1.
<mgrwt>
<rscale>  2 0.44108189E+03</rscale>
<asrwt>0</asrwt>
<pdfrwt beam="1">  1       21 0.12151432E+00 0.44108189E+03</pdfrwt>
<pdfrwt beam="2">  1       21 0.39918813E-01 0.44108189E+03</pdfrwt>
<totfact> 0.26881413E+03</totfact>
</mgrwt>
</event>
<event>
 4    1  0.4319182E+000  0.1900426E+03  0.7546771E-02  0.1158423E+00
         21   -1    0    0  501  502  0.00000000000E+00  0.00000000000E+00  0.49271531807E+03  0.49271531807E+03  0.00000000000E+00 0.  1.
         21   -1    0    0  502  503 -0.00000000000E+00 -0.00000000000E+00 -0.74354721844E+02  0.74354721844E+02  0.00000000000E+00 0.  1.
          6    1    1    2  501    0 -0.46591648091E+02 -0.63375097317E+02  0.17541598224E+03  0.25862511761E+03  0.17300000000E+03 0.  1.
         -6    1    1    2    0  503  0.46591648091E+02  0.63375097317E+02  0.24294461398E+03  0.30844492230E+03  0.17300000000E+03 0.  1.
<mgrwt>
<rscale>  2 0.19004259E+03</rscale>
<asrwt>0</asrwt>
<pdfrwt beam="1">  1       21 0.75802355E-01 0.19004259E+03</pdfrwt>
<pdfrwt beam="2">  1       21 0.11439188E-01 0.19004259E+03</pdfrwt>
<totfact> 0.99341284E+04</totfact>
</mgrwt>
</event>
<event>
 4    1  0.4319182E+000  0.3038325E+03  0.7546771E-02  0.1083340E+00
         21   -1    0    0  503  502  0.00000000000E+00  0.00000000000E+00  0.34723704514E+03  0.34723704514E+03  0.00000000000E+00 0.  1.
         21   -1    0    0  501  503 -0.00000000000E+00 -0.00000000000E+00 -0.26611046909E+03  0.26611046909E+03  0.00000000000E+00 0. -1.
          6    1    1    2  501    0  0.24133960745E+03 -0.64345853666E+02  0.31034037419E+02  0.30541333711E+03  0.17300000000E+03 0. -1.
         -6    1    1    2    0  502 -0.24133960745E+03  0.64345853666E+02  0.50092538635E+02  0.30793417711E+03  0.17300000000E+03 0.  1.
<mgrwt>
<rscale>  2 0.30383251E+03</rscale>
<asrwt>0</asrwt>
<pdfrwt beam="1">  1       21 0.53421084E-01 0.30383251E+03</pdfrwt>
<pdfrwt beam="2">  1       21 0.40940072E-01 0.30383251E+03</pdfrwt>
<totfact> 0.18032761E+04</totfact>
</mgrwt>
</event>
<event>
 4    1  0.4319182E+000  0.2147993E+03  0.7546771E-02  0.1137821E+00
         21   -1    0    0  503  502  0.00000000000E+00  0.00000000000E+00  0.42711312420E+03  0.42711312420E+03  0.00000000000E+00 0. -1.
         21   -1    0    0  501  503 -0.00000000000E+00 -0.00000000000E+00 -0.21919821144E+03  0.21919821144E+03  0.00000000000E+00 0. -1.
          6    1    1    2  501    0 -0.11612665144E+03 -0.52195414077E+02 -0.12618352805E+03  0.24912053945E+03  0.17300000000E+03 0. -1.
         -6    1    1    2    0  502  0.11612665144E+03  0.52195414077E+02  0.33409844081E+03  0.39719079619E+03  0.17300000000E+03 0. -1.
<mgrwt>
<rscale>  2 0.21479935E+03</rscale>
<asrwt>0</asrwt>
<pdfrwt beam="1">  1       21 0.65709711E-01 0.21479935E+03</pdfrwt>
<pdfrwt beam="2">  1       21 0.33722802E-01 0.21479935E+03</pdfrwt>
<totfact> 0.17789781E+04</totfact>
</mgrwt>
</event>
<event>
 4    1  0.4319182E+000  0.2154337E+03  0.7546771E-02  0.1137334E+00
         21   -1    0    0  501  502  0.00000000000E+00  0.00000000000E+00  0.27589868105E+03  0.27589868105E+03  0.00000000000E+00 0.  1.
         21   -1    0    0  502  503 -0.00000000000E+00 -0.00000000000E+00 -0.17904530066E+03  0.17904530066E+03  0.00000000000E+00 0.  1.
          6    1    1    2  501    0  0.50922561139E+02 -0.11785404312E+03 -0.75060337168E+01  0.21556442948E+03  0.17300000000E+03 0.  1.
         -6    1    1    2    0  503 -0.50922561139E+02  0.11785404312E+03  0.10435941411E+03  0.23937955223E+03  0.17300000000E+03 0.  1.
<mgrwt>
<rscale>  2 0.21543371E+03</rscale>
<asrwt>0</asrwt>
<pdfrwt beam="1">  1       21 0.42445951E-01 0.21543371E+03</pdfrwt>
<pdfrwt beam="2">  1       21 0.27545431E-01 0.21543371E+03</pdfrwt>
<totfact> 0.66476794E+04</totfact>
</mgrwt>
</event>
<event>
 4    1  0.4319182E+000  0.2319228E+03  0.7546771E-02  0.1125294E+00
         21   -1    0    0  501  502  0.00000000000E+00  0.00000000000E+00  0.89965333111E+02  0.89965333111E+02  0.00000000000E+00 0. -1.
         21   -1    0    0  502  503 -0.00000000000E+00 -0.00000000000E+00 -0.64227149853E+03  0.64227149853E+03  0.00000000000E+00 0.  1.
          6    1    1    2  501    0 -0.67140686524E+02  0.13910904893E+03 -0.37240891513E+03  0.43872155104E+03  0.17300000000E+03 0.  1.
         -6    1    1    2    0  503  0.67140686524E+02 -0.13910904893E+03 -0.17989725029E+03  0.29351528060E+03  0.17300000000E+03 0. -1.
<mgrwt>
<rscale>  2 0.23192283E+03</rscale>
<asrwt>0</asrwt>
<pdfrwt beam="1">  1       21 0.13840820E-01 0.23192283E+03</pdfrwt>
<pdfrwt beam="2">  1       21 0.98811000E-01 0.23192283E+03</pdfrwt>
<totfact> 0.37565641E+04</totfact>
</mgrwt>
</event>
<event>
 4    1  0.4319182E+000  0.2642583E+03  0.7546771E-02  0.1104611E+00
         21   -1    0    0  503  502  0.00000000000E+00  0.00000000000E+00  0.14413107244E+04  0.14413107244E+04  0.00000000000E+00 0. -1.
         21   -1    0    0  501  503 -0.00000000000E+00 -0.00000000000E+00 -0.69485248409E+02  0.69485248409E+02  0.00000000000E+00 0.  1.
          6    1    1    2  501    0  0.19973972246E+03  0.27356977469E+01  0.27029255148E+03  0.37800860329E+03  0.17300000000E+03 0.  1.
         -6    1    1    2    0  502 -0.19973972246E+03 -0.27356977469E+01  0.11015329245E+04  0.11327873696E+04  0.17300000000E+03 0. -1.
<mgrwt>
<rscale>  2 0.26425828E+03</rscale>
<asrwt>0</asrwt>
<pdfrwt beam="1">  1       21 0.22174009E+00 0.26425828E+03</pdfrwt>
<pdfrwt beam="2">  1       21 0.10690039E-01 0.26425828E+03</pdfrwt>
<totfact> 0.66779360E+03</totfact>
</mgrwt>
</event>
<event>
 4    1  0.4319182E+000  0.2534331E+03  0.7546771E-02  0.1111154E+00
         21   -1    0    0  503  502  0.00000000000E+00  0.00000000000E+00  0.48679955298E+03  0.48679955298E+03  0.00000000000E+00 0. -1.
         21   -1    0    0  501  503 -0.00000000000E+00 -0.00000000000E+00 -0.15641903828E+03  0.15641903828E+03  0.00000000000E+00 0.  1.
          6    1    1    2  501    0 -0.18247534762E+03  0.31655583021E+02  0.37962741751E+02  0.25626060599E+03  0.17300000000E+03 0.  1.
         -6    1    1    2    0  502  0.18247534762E+03 -0.31655583021E+02  0.29241777295E+03  0.38695798527E+03  0.17300000000E+03 0. -1.
<mgrwt>
<rscale>  2 0.25343308E+03</rscale>
<asrwt>0</asrwt>
<pdfrwt beam="1">  1       21 0.74892238E-01 0.25343308E+03</pdfrwt>
<pdfrwt beam="2">  1       21 0.24064468E-01 0.25343308E+03</pdfrwt>
<totfact> 0.25169305E+04</totfact>
</mgrwt>
</event>
<event>
 4    1  0.4319182E+000  0.2388768E+03  0.7546771E-02  0.1120543E+00
         21   -1    0    0  501  502  0.00000000000E+00  0.00000000000E+00  0.32859273292E+03  0.32859273292E+03  0.00000000000E+00 0.  1.
         21   -1    0    0  502  503 -0.00000000000E+00 -0.00000000000E+00 -0.21467222278E+03  0.21467222278E+03  0.00000000000E+00 0.  1.
          6    1    1    2  501    0 -0.14729241832E+03 -0.73743104164E+02  0.17569328857E+03  0.29653032485E+03  0.17300000000E+03 0.  1.
         -6    1    1    2    0  503  0.14729241832E+03  0.73743104164E+02 -0.61772778429E+02  0.24673463085E+03  0.17300000000E+03 0.  1.
<mgrwt>
<rscale>  2 0.23887675E+03</rscale>
<asrwt>0</asrwt>
<pdfrwt beam="1">  1       21 0.50552728E-01 0.23887675E+03</pdfrwt>
<pdfrwt beam="2">  1       21 0.33026496E-01 0.23887675E+03</pdfrwt>
<totfact> 0.32111519E+04</totfact>
</mgrwt>
</event>
<event>
 4    1  0.4319182E+000  0.1892701E+03  0.7546771E-02  0.1159121E+00
         21   -1    0    0  501  502  0.00000000000E+00  0.00000000000E+00  0.41897615534E+03  0.41897615534E+03  0.00000000000E+00 0.  1.
         21   -1    0    0  502  503 -0.00000000000E+00 -0.00000000000E+00 -0.14270582232E+03  0.14270582232E+03  0.00000000000E+00 0.  1.
          6    1    1    2  501    0  0.70254903035E+02  0.30958436131E+02  0.31594398116E+03  0.36829848683E+03  0.17300000000E+03 0.  1.
         -6    1    1    2    0  503 -0.70254903035E+02 -0.30958436131E+02 -0.39673648148E+02  0.19338349083E+03  0.17300000000E+03 0.  1.
<mgrwt>
<rscale>  2 0.18927011E+03</rscale>
<asrwt>0</asrwt>
<pdfrwt beam="1">  1       21 0.64457869E-01 0.18927011E+03</pdfrwt>
<pdfrwt beam="2">  1       21 0.21954742E-01 0.18927011E+03</pdfrwt>
<totfact> 0.43083477E+04</totfact>
</mgrwt>
</event>
<event>
 4    1  0.4319182E+000  0.1875052E+03  0.7546771E-02  0.1160731E+00
         21   -1    0    0  503  502  0.00000000000E+00  0.00000000000E+00  0.28981630005E+04  0.28981630005E+04  0.00000000000E+00 0.  1.
         21   -1    0    0  501  503 -0.00000000000E+00 -0.00000000000E+00 -0.13958863485E+02  0.13958863485E+02  0.00000000000E+00 0.  1.
          6    1    1    2  501    0 -0.51218372464E+02  0.51047669187E+02  0.91523264290E+03  0.93424246148E+03  0.17300000000E+03 0.  1.
         -6    1    1    2    0  502  0.51218372464E+02 -0.51047669187E+02  0.19689714941E+04  0.19778794025E+04  0.17300000000E+03 0.  1.
<mgrwt>
<rscale>  2 0.18750516E+03</rscale>
<asrwt>0</asrwt>
<pdfrwt beam="1">  1       21 0.44587075E+00 0.18750516E+03</pdfrwt>
<pdfrwt beam="2">  1       21 0.21475198E-02 0.18750516E+03</pdfrwt>
<totfact> 0.48925491E+03</totfact>
</mgrwt>
</event>
<event>
 4    1  0.4319182E+000  0.1771346E+03  0.7546771E-02  0.1170605E+00
         21   -1    0    0  501  502  0.00000000000E+00  0.00000000000E+00  0.24299682813E+03  0.24299682813E+03  0.00000000000E+00 0. -1.
         21   -1    0    0  502  503 -0.00000000000E+00 -0.00000000000E+00 -0.14138586696E+03  0.14138586696E+03  0.00000000000E+00 0. -1.
          6    1    1    2  501    0 -0.36914124521E+02  0.92206583512E+01  0.10740499763E+03  0.20715334090E+03  0.17300000000E+03 0. -1.
         -6    1    1    2    0  503  0.36914124521E+02 -0.92206583512E+01 -0.57940364562E+01  0.17722935419E+03  0.17300000000E+03 0. -1.
<mgrwt>
<rscale>  2 0.17713462E+03</rscale>
<asrwt>0</asrwt>
<pdfrwt beam="1">  1       21 0.37384127E-01 0.17713462E+03</pdfrwt>
<pdfrwt beam="2">  1       21 0.21751672E-01 0.17713462E+03</pdfrwt>
<totfact> 0.13679768E+05</totfact>
</mgrwt>
</event>
