<event>
 4    1  0.4538619E+000  0.2271362E+03  0.7818608E-02  0.1128672E+00
         21   -1    0    0  503  502  0.00000000000E+00  0.00000000000E+00  0.17986382959E+03  0.17986382959E+03  0.00000000000E+00 0.  1.
         21   -1    0    0  501  503 -0.00000000000E+00 -0.00000000000E+00 -0.29647074106E+03  0.29647074106E+03  0.00000000000E+00 0.  1.
          6    1    1    2  501    0 -0.77178194374E+02 -0.12669010624E+03 -0.10124542546E+03  0.24867949832E+03  0.17200000000E+03 0.  1.
         -6    1    1    2    0  502  0.77178194374E+02  0.12669010624E+03 -0.15361486007E+02  0.22765507233E+03  0.17200000000E+03 0.  1.
</event>
<event>
 4    1  0.4538619E+000  0.2869270E+03  0.7818608E-02  0.1091965E+00
         21   -1    0    0  503  502  0.00000000000E+00  0.00000000000E+00  0.10606544561E+04  0.10606544561E+04  0.00000000000E+00 0.  1.
         21   -1    0    0  501  503 -0.00000000000E+00 -0.00000000000E+00 -0.10544591562E+03  0.10544591562E+03  0.00000000000E+00 0. -1.
          6    1    1    2  501    0 -0.14107738498E+02  0.22922489767E+03  0.17808654085E+03  0.33770090025E+03  0.17200000000E+03 0. -1.
         -6    1    1    2    0  502  0.14107738498E+02 -0.22922489767E+03  0.77712199963E+03  0.82839947145E+03  0.17200000000E+03 0.  1.
</event>
<event>
 4    1  0.4538619E+000  0.2507709E+03  0.7818608E-02  0.1112819E+00
         21   -1    0    0  503  502  0.00000000000E+00  0.00000000000E+00  0.18641319727E+03  0.18641319727E+03  0.00000000000E+00 0.  1.
         21   -1    0    0  501  503 -0.00000000000E+00 -0.00000000000E+00 -0.40203532330E+03  0.40203532330E+03  0.00000000000E+00 0.  1.
          6    1    1    2  501    0  0.24405963108E+02  0.18084903735E+03 -0.22583161874E+03  0.33746991772E+03  0.17200000000E+03 0.  1.
         -6    1    1    2    0  502 -0.24405963108E+02 -0.18084903735E+03  0.10209492717E+02  0.25097860285E+03  0.17200000000E+03 0.  1.
</event>
<event>
 4    1  0.4538619E+000  0.1858884E+03  0.7818608E-02  0.1162223E+00
         21   -1    0    0  501  502  0.00000000000E+00  0.00000000000E+00  0.27744250419E+03  0.27744250419E+03  0.00000000000E+00 0.  1.
         21   -1    0    0  502  503 -0.00000000000E+00 -0.00000000000E+00 -0.19273575803E+03  0.19273575803E+03  0.00000000000E+00 0.  1.
          6    1    1    2  501    0  0.64170131799E+02  0.29201161872E+02  0.18218620275E+03  0.26028124432E+03  0.17200000000E+03 0.  1.
         -6    1    1    2    0  503 -0.64170131799E+02 -0.29201161872E+02 -0.97479456582E+02  0.20989701790E+03  0.17200000000E+03 0.  1.
</event>
<event>
 4    1  0.4538619E+000  0.1738998E+03  0.7818608E-02  0.1173841E+00
         21   -1    0    0  501  502  0.00000000000E+00  0.00000000000E+00  0.18200532859E+03  0.18200532859E+03  0.00000000000E+00 0.  1.
         21   -1    0    0  502  503 -0.00000000000E+00 -0.00000000000E+00 -0.16639415447E+03  0.16639415447E+03  0.00000000000E+00 0.  1.
          6    1    1    2  501    0 -0.83876267005E+01 -0.24223661073E+02  0.12046623976E+01  0.17390396559E+03  0.17200000000E+03 0.  1.
         -6    1    1    2    0  503  0.83876267005E+01  0.24223661073E+02  0.14406511719E+02  0.17449551747E+03  0.17200000000E+03 0.  1.
</event>
<event>
 4    1  0.4538619E+000  0.1945755E+03  0.7818608E-02  0.1154398E+00
         21   -1    0    0  501  502  0.00000000000E+00  0.00000000000E+00  0.16471138180E+03  0.16471138180E+03  0.00000000000E+00 0. -1.
         21   -1    0    0  502  503 -0.00000000000E+00 -0.00000000000E+00 -0.26793188163E+03  0.26793188163E+03  0.00000000000E+00 0.  1.
          6    1    1    2  501    0  0.56748491429E+02  0.71100053634E+02  0.29939530169E+02  0.19686539659E+03  0.17200000000E+03 0. -1.
         -6    1    1    2    0  503 -0.56748491429E+02 -0.71100053634E+02 -0.13316003000E+03  0.23577786685E+03  0.17200000000E+03 0.  1.
</event>
<event>
 4    1  0.4538619E+000  0.2360411E+03  0.7818608E-02  0.1122459E+00
         21   -1    0    0  503  502  0.00000000000E+00  0.00000000000E+00  0.16732569576E+03  0.16732569576E+03  0.00000000000E+00 0. -1.
         21   -1    0    0  501  503 -0.00000000000E+00 -0.00000000000E+00 -0.33760055954E+03  0.33760055954E+03  0.00000000000E+00 0.  1.
          6    1    1    2  501    0  0.15945701009E+03  0.26549535191E+02 -0.55588718282E+02  0.24249849790E+03  0.17200000000E+03 0.  1.
         -6    1    1    2    0  502 -0.15945701009E+03 -0.26549535191E+02 -0.11468614550E+03  0.26242775740E+03  0.17200000000E+03 0. -1.
</event>
<event>
 4    1  0.4538619E+000  0.2593642E+03  0.7818608E-02  0.1107526E+00
         21   -1    0    0  503  502  0.00000000000E+00  0.00000000000E+00  0.90596718419E+02  0.90596718419E+02  0.00000000000E+00 0. -1.
         21   -1    0    0  501  503 -0.00000000000E+00 -0.00000000000E+00 -0.11499960098E+04  0.11499960098E+04  0.00000000000E+00 0. -1.
          6    1    1    2  501    0  0.19394407059E+03 -0.84535937452E+01 -0.89893453896E+03  0.93560305210E+03  0.17200000000E+03 0. -1.
         -6    1    1    2    0  502 -0.19394407059E+03  0.84535937452E+01 -0.16046475241E+03  0.30498967611E+03  0.17200000000E+03 0. -1.
</event>
<event>
 4    1  0.4538619E+000  0.2676231E+03  0.7818608E-02  0.1102648E+00
         21   -1    0    0  501  502  0.00000000000E+00  0.00000000000E+00  0.38454053644E+03  0.38454053644E+03  0.00000000000E+00 0. -1.
         21   -1    0    0  502  503 -0.00000000000E+00 -0.00000000000E+00 -0.20529792205E+03  0.20529792205E+03  0.00000000000E+00 0.  1.
          6    1    1    2  501    0  0.17911024395E+03  0.99788034969E+02  0.17944510895E+03  0.32221526738E+03  0.17200000000E+03 0. -1.
         -6    1    1    2    0  503 -0.17911024395E+03 -0.99788034969E+02 -0.20249455431E+00  0.26762319110E+03  0.17200000000E+03 0.  1.
</event>
<event>
 4    1  0.4538619E+000  0.3014146E+03  0.7818608E-02  0.1084536E+00
         21   -1    0    0  501  502  0.00000000000E+00  0.00000000000E+00  0.11041682271E+04  0.11041682271E+04  0.00000000000E+00 0.  1.
         21   -1    0    0  502  503 -0.00000000000E+00 -0.00000000000E+00 -0.82295120891E+02  0.82295120891E+02  0.00000000000E+00 0.  1.
          6    1    1    2  501    0  0.13460520427E+03  0.20772147784E+03  0.50285002794E+03  0.58626693918E+03  0.17200000000E+03 0.  1.
         -6    1    1    2    0  503 -0.13460520427E+03 -0.20772147784E+03  0.51902307823E+03  0.60019640878E+03  0.17200000000E+03 0.  1.
</event>
<event>
 4    1  0.4538619E+000  0.2211136E+03  0.7818608E-02  0.1133056E+00
         21   -1    0    0  503  502  0.00000000000E+00  0.00000000000E+00  0.22186345109E+03  0.22186345109E+03  0.00000000000E+00 0. -1.
         21   -1    0    0  501  503 -0.00000000000E+00 -0.00000000000E+00 -0.45154374687E+03  0.45154374687E+03  0.00000000000E+00 0. -1.
          6    1    1    2  501    0 -0.13137787757E+03  0.45244487046E+02 -0.35575892383E+03  0.41887423197E+03  0.17200000000E+03 0. -1.
         -6    1    1    2    0  502  0.13137787757E+03 -0.45244487046E+02  0.12607862805E+03  0.25453296599E+03  0.17200000000E+03 0. -1.
</event>
<event>
 4    1  0.4538619E+000  0.1891695E+03  0.7818608E-02  0.1159213E+00
         21   -1    0    0  503  502  0.00000000000E+00  0.00000000000E+00  0.12469574425E+04  0.12469574425E+04  0.00000000000E+00 0.  1.
         21   -1    0    0  501  503 -0.00000000000E+00 -0.00000000000E+00 -0.46064133502E+02  0.46064133502E+02  0.00000000000E+00 0.  1.
          6    1    1    2  501    0  0.43053506936E+02  0.65935405669E+02  0.20348649761E+03  0.27783418956E+03  0.17200000000E+03 0.  1.
         -6    1    1    2    0  502 -0.43053506936E+02 -0.65935405669E+02  0.99740681134E+03  0.10151873864E+04  0.17200000000E+03 0.  1.
</event>
<event>
 4    1  0.4538619E+000  0.1811006E+03  0.7818608E-02  0.1166742E+00
         21   -1    0    0  503  502  0.00000000000E+00  0.00000000000E+00  0.28082236818E+03  0.28082236818E+03  0.00000000000E+00 0. -1.
         21   -1    0    0  501  503 -0.00000000000E+00 -0.00000000000E+00 -0.12135143224E+03  0.12135143224E+03  0.00000000000E+00 0. -1.
          6    1    1    2  501    0  0.56611653306E+02  0.29242781064E+01  0.11871892542E+03  0.21654471581E+03  0.17200000000E+03 0. -1.
         -6    1    1    2    0  502 -0.56611653306E+02 -0.29242781064E+01  0.40752010525E+02  0.18562908461E+03  0.17200000000E+03 0. -1.
</event>
<event>
 4    1  0.4538619E+000  0.2348836E+03  0.7818608E-02  0.1123249E+00
         21   -1    0    0  503  502  0.00000000000E+00  0.00000000000E+00  0.26389812084E+03  0.26389812084E+03  0.00000000000E+00 0. -1.
         21   -1    0    0  501  503 -0.00000000000E+00 -0.00000000000E+00 -0.22004572088E+03  0.22004572088E+03  0.00000000000E+00 0.  1.
          6    1    1    2  501    0 -0.11380327395E+03  0.11240608956E+03 -0.32141736071E+02  0.23707257397E+03  0.17200000000E+03 0.  1.
         -6    1    1    2    0  502  0.11380327395E+03 -0.11240608956E+03  0.75994136034E+02  0.24687126776E+03  0.17200000000E+03 0. -1.
</event>
<event>
 4    1  0.4538619E+000  0.1968636E+03  0.7818608E-02  0.1152413E+00
         21   -1    0    0  503  502  0.00000000000E+00  0.00000000000E+00  0.58948618595E+03  0.58948618595E+03  0.00000000000E+00 0.  1.
         21   -1    0    0  501  503 -0.00000000000E+00 -0.00000000000E+00 -0.83829342793E+02  0.83829342793E+02  0.00000000000E+00 0. -1.
          6    1    1    2  501    0  0.79442794488E+02 -0.53479911667E+02  0.96458804351E+02  0.21922490617E+03  0.17200000000E+03 0.  1.
         -6    1    1    2    0  502 -0.79442794488E+02  0.53479911667E+02  0.40919803880E+03  0.45409062257E+03  0.17200000000E+03 0.  1.
</event>
<event>
 4    1  0.4538619E+000  0.2950223E+03  0.7818608E-02  0.1087756E+00
         21   -1    0    0  503  502  0.00000000000E+00  0.00000000000E+00  0.58113154306E+02  0.58113154306E+02  0.00000000000E+00 0.  1.
         21   -1    0    0  501  503 -0.00000000000E+00 -0.00000000000E+00 -0.15639365506E+04  0.15639365506E+04  0.00000000000E+00 0.  1.
          6    1    1    2  501    0  0.11096563790E+03 -0.21246356653E+03 -0.91977341898E+03  0.96593026775E+03  0.17200000000E+03 0.  1.
         -6    1    1    2    0  502 -0.11096563790E+03  0.21246356653E+03 -0.58604997731E+03  0.65611943715E+03  0.17200000000E+03 0.  1.
</event>
<event>
 4    1  0.4538619E+000  0.1862927E+03  0.7818608E-02  0.1161848E+00
         21   -1    0    0  503  502  0.00000000000E+00  0.00000000000E+00  0.55749179127E+03  0.55749179127E+03  0.00000000000E+00 0.  1.
         21   -1    0    0  501  503 -0.00000000000E+00 -0.00000000000E+00 -0.92473428276E+02  0.92473428276E+02  0.00000000000E+00 0. -1.
          6    1    1    2  501    0  0.71470303876E+02  0.36019495172E+01  0.46724824675E+02  0.19206297826E+03  0.17200000000E+03 0. -1.
         -6    1    1    2    0  502 -0.71470303876E+02 -0.36019495172E+01  0.41829353832E+03  0.45790224129E+03  0.17200000000E+03 0.  1.
</event>
<event>
 4    1  0.4538619E+000  0.1916116E+03  0.7818608E-02  0.1157016E+00
         21   -1    0    0  501  502  0.00000000000E+00  0.00000000000E+00  0.34458802842E+03  0.34458802842E+03  0.00000000000E+00 0. -1.
         21   -1    0    0  502  503 -0.00000000000E+00 -0.00000000000E+00 -0.12984797460E+03  0.12984797460E+03  0.00000000000E+00 0.  1.
          6    1    1    2  501    0 -0.81872058921E+02  0.20687726792E+02  0.68825802105E+01  0.19173519756E+03  0.17200000000E+03 0.  1.
         -6    1    1    2    0  503  0.81872058921E+02 -0.20687726792E+02  0.20785747361E+03  0.28270080546E+03  0.17200000000E+03 0. -1.
</event>
<event>
 4    1  0.4538619E+000  0.1937562E+03  0.7818608E-02  0.1155116E+00
         21   -1    0    0  501  502  0.00000000000E+00  0.00000000000E+00  0.32276450262E+02  0.32276450262E+02  0.00000000000E+00 0. -1.
         21   -1    0    0  502  503 -0.00000000000E+00 -0.00000000000E+00 -0.12986588151E+04  0.12986588151E+04  0.00000000000E+00 0.  1.
          6    1    1    2  501    0  0.70514068419E+02  0.54637159013E+02 -0.41820632954E+03  0.46090995548E+03  0.17200000000E+03 0. -1.
         -6    1    1    2    0  503 -0.70514068419E+02 -0.54637159013E+02 -0.84817603533E+03  0.87002530992E+03  0.17200000000E+03 0.  1.
</event>
<event>
 4    1  0.4538619E+000  0.1987382E+03  0.7818608E-02  0.1150808E+00
         21   -1    0    0  503  502  0.00000000000E+00  0.00000000000E+00  0.40230770150E+03  0.40230770150E+03  0.00000000000E+00 0.  1.
         21   -1    0    0  501  503 -0.00000000000E+00 -0.00000000000E+00 -0.99378265745E+02  0.99378265745E+02  0.00000000000E+00 0. -1.
          6    1    1    2  501    0 -0.32912157323E+02 -0.93966209312E+02  0.12387149591E+03  0.23418156650E+03  0.17200000000E+03 0.  1.
         -6    1    1    2    0  502  0.32912157323E+02  0.93966209312E+02  0.17905793985E+03  0.26750440074E+03  0.17200000000E+03 0. -1.
</event>
<event>
 4    1  0.4538619E+000  0.1737057E+03  0.7818608E-02  0.1174038E+00
         21   -1    0    0  501  502  0.00000000000E+00  0.00000000000E+00  0.78410125497E+03  0.78410125497E+03  0.00000000000E+00 0.  1.
         21   -1    0    0  502  503 -0.00000000000E+00 -0.00000000000E+00 -0.64819536042E+02  0.64819536042E+02  0.00000000000E+00 0.  1.
          6    1    1    2  501    0  0.22444040969E+02 -0.92703454987E+01  0.63020668784E+03  0.65370799572E+03  0.17200000000E+03 0.  1.
         -6    1    1    2    0  503 -0.22444040969E+02  0.92703454987E+01  0.89075031096E+02  0.19521279529E+03  0.17200000000E+03 0.  1.
</event>
<event>
 4    1  0.4538619E+000  0.1945155E+03  0.7818608E-02  0.1154451E+00
         21   -1    0    0  503  502  0.00000000000E+00  0.00000000000E+00  0.25828239972E+03  0.25828239972E+03  0.00000000000E+00 0. -1.
         21   -1    0    0  501  503 -0.00000000000E+00 -0.00000000000E+00 -0.26011056380E+03  0.26011056380E+03  0.00000000000E+00 0. -1.
          6    1    1    2  501    0 -0.26975658768E+02  0.86744390775E+02 -0.17222102904E+03  0.25980061266E+03  0.17200000000E+03 0. -1.
         -6    1    1    2    0  502  0.26975658768E+02 -0.86744390775E+02  0.17039286496E+03  0.25859235086E+03  0.17200000000E+03 0. -1.
</event>
<event>
 4    1  0.4538619E+000  0.2118483E+03  0.7818608E-02  0.1140111E+00
         21   -1    0    0  503  502  0.00000000000E+00  0.00000000000E+00  0.29826981660E+03  0.29826981660E+03  0.00000000000E+00 0. -1.
         21   -1    0    0  501  503 -0.00000000000E+00 -0.00000000000E+00 -0.35265155796E+03  0.35265155796E+03  0.00000000000E+00 0. -1.
          6    1    1    2  501    0 -0.84970981514E+02 -0.89864619440E+02 -0.27362439857E+03  0.34604917139E+03  0.17200000000E+03 0. -1.
         -6    1    1    2    0  502  0.84970981514E+02  0.89864619440E+02  0.21924265720E+03  0.30487220317E+03  0.17200000000E+03 0. -1.
</event>
<event>
 4    1  0.4538619E+000  0.2173855E+03  0.7818608E-02  0.1135847E+00
         21   -1    0    0  501  502  0.00000000000E+00  0.00000000000E+00  0.56536910034E+02  0.56536910034E+02  0.00000000000E+00 0.  1.
         21   -1    0    0  502  503 -0.00000000000E+00 -0.00000000000E+00 -0.11211646620E+04  0.11211646620E+04  0.00000000000E+00 0. -1.
          6    1    1    2  501    0 -0.13113002613E+03 -0.21849222841E+02 -0.23526267613E+03  0.32032015090E+03  0.17200000000E+03 0.  1.
         -6    1    1    2    0  503  0.13113002613E+03  0.21849222841E+02 -0.82936507585E+03  0.85738142115E+03  0.17200000000E+03 0. -1.
</event>
<event>
 4    1  0.4538619E+000  0.2376132E+03  0.7818608E-02  0.1121393E+00
         21   -1    0    0  503  502  0.00000000000E+00  0.00000000000E+00  0.18246781988E+03  0.18246781988E+03  0.00000000000E+00 0.  1.
         21   -1    0    0  501  503 -0.00000000000E+00 -0.00000000000E+00 -0.53582781160E+03  0.53582781160E+03  0.00000000000E+00 0. -1.
          6    1    1    2  501    0  0.14552519034E+03  0.75488005480E+02 -0.41013433981E+03  0.47399387833E+03  0.17200000000E+03 0. -1.
         -6    1    1    2    0  502 -0.14552519034E+03 -0.75488005480E+02  0.56774348092E+02  0.24430175316E+03  0.17200000000E+03 0.  1.
</event>
<event>
 4    1  0.4538619E+000  0.1819973E+03  0.7818608E-02  0.1165884E+00
         21   -1    0    0  503  502  0.00000000000E+00  0.00000000000E+00  0.39421433578E+02  0.39421433578E+02  0.00000000000E+00 0.  1.
         21   -1    0    0  501  503 -0.00000000000E+00 -0.00000000000E+00 -0.86172064349E+03  0.86172064349E+03  0.00000000000E+00 0. -1.
          6    1    1    2  501    0 -0.47388778641E+00  0.59487658637E+02 -0.33999198671E+03  0.38563915404E+03  0.17200000000E+03 0.  1.
         -6    1    1    2    0  502  0.47388778641E+00 -0.59487658637E+02 -0.48230722320E+03  0.51550292302E+03  0.17200000000E+03 0. -1.
</event>
<event>
 4    1  0.4538619E+000  0.2055700E+03  0.7818608E-02  0.1145123E+00
         21   -1    0    0  501  502  0.00000000000E+00  0.00000000000E+00  0.32042993410E+03  0.32042993410E+03  0.00000000000E+00 0. -1.
         21   -1    0    0  502  503 -0.00000000000E+00 -0.00000000000E+00 -0.13300373942E+03  0.13300373942E+03  0.00000000000E+00 0. -1.
          6    1    1    2  501    0 -0.36380166591E+02  0.10654349125E+03  0.72894926536E+02  0.21811167406E+03  0.17200000000E+03 0. -1.
         -6    1    1    2    0  503  0.36380166591E+02 -0.10654349125E+03  0.11453126814E+03  0.23532199946E+03  0.17200000000E+03 0. -1.
</event>
<event>
 4    1  0.4538619E+000  0.1775931E+03  0.7818608E-02  0.1170153E+00
         21   -1    0    0  503  502  0.00000000000E+00  0.00000000000E+00  0.16136109260E+03  0.16136109260E+03  0.00000000000E+00 0.  1.
         21   -1    0    0  501  503 -0.00000000000E+00 -0.00000000000E+00 -0.19712200588E+03  0.19712200588E+03  0.00000000000E+00 0.  1.
          6    1    1    2  501    0  0.42385175953E+02  0.12601311049E+02 -0.34349369998E+02  0.18088442553E+03  0.17200000000E+03 0.  1.
         -6    1    1    2    0  502 -0.42385175953E+02 -0.12601311049E+02 -0.14115432822E+01  0.17759867295E+03  0.17200000000E+03 0.  1.
</event>
<event>
 4    1  0.4538619E+000  0.1889538E+03  0.7818608E-02  0.1159408E+00
         21   -1    0    0  503  502  0.00000000000E+00  0.00000000000E+00  0.20302999937E+03  0.20302999937E+03  0.00000000000E+00 0.  1.
         21   -1    0    0  501  503 -0.00000000000E+00 -0.00000000000E+00 -0.17891742335E+03  0.17891742335E+03  0.00000000000E+00 0.  1.
          6    1    1    2  501    0 -0.52394025660E+02 -0.58089658272E+02  0.37047309589E+02  0.19255140994E+03  0.17200000000E+03 0.  1.
         -6    1    1    2    0  502  0.52394025660E+02  0.58089658272E+02 -0.12934733572E+02  0.18939601278E+03  0.17200000000E+03 0.  1.
</event>
<event>
 4    1  0.4538619E+000  0.2447771E+03  0.7818608E-02  0.1116651E+00
         21   -1    0    0  503  502  0.00000000000E+00  0.00000000000E+00  0.52945238537E+02  0.52945238537E+02  0.00000000000E+00 0. -1.
         21   -1    0    0  501  503 -0.00000000000E+00 -0.00000000000E+00 -0.12025798272E+04  0.12025798272E+04  0.00000000000E+00 0.  1.
          6    1    1    2  501    0 -0.13772658829E+03 -0.10659841935E+03 -0.42236560351E+03  0.48816855609E+03  0.17200000000E+03 0.  1.
         -6    1    1    2    0  502  0.13772658829E+03  0.10659841935E+03 -0.72726898513E+03  0.76735650962E+03  0.17200000000E+03 0.  1.
</event>
<event>
 4    1  0.4538619E+000  0.1783328E+03  0.7818608E-02  0.1169426E+00
         21   -1    0    0  503  502  0.00000000000E+00  0.00000000000E+00  0.52404234011E+03  0.52404234011E+03  0.00000000000E+00 0. -1.
         21   -1    0    0  501  503 -0.00000000000E+00 -0.00000000000E+00 -0.68069854132E+02  0.68069854132E+02  0.00000000000E+00 0. -1.
          6    1    1    2  501    0 -0.10006440791E+02 -0.46026527352E+02  0.32548701115E+03  0.37113927912E+03  0.17200000000E+03 0. -1.
         -6    1    1    2    0  502  0.10006440791E+02  0.46026527352E+02  0.13048547483E+03  0.22097291513E+03  0.17200000000E+03 0. -1.
</event>
<event>
 4    1  0.4538619E+000  0.2231024E+03  0.7818608E-02  0.1131591E+00
         21   -1    0    0  503  502  0.00000000000E+00  0.00000000000E+00  0.14567633142E+03  0.14567633142E+03  0.00000000000E+00 0. -1.
         21   -1    0    0  501  503 -0.00000000000E+00 -0.00000000000E+00 -0.52949285875E+03  0.52949285875E+03  0.00000000000E+00 0. -1.
          6    1    1    2  501    0 -0.13872000541E+03  0.30780813303E+02 -0.39296339118E+03  0.45187932590E+03  0.17200000000E+03 0. -1.
         -6    1    1    2    0  502  0.13872000541E+03 -0.30780813303E+02  0.91468638398E+01  0.22328986427E+03  0.17200000000E+03 0. -1.
</event>
<event>
 4    1  0.4538619E+000  0.1885182E+03  0.7818608E-02  0.1159805E+00
         21   -1    0    0  503  502  0.00000000000E+00  0.00000000000E+00  0.23960355170E+04  0.23960355170E+04  0.00000000000E+00 0. -1.
         21   -1    0    0  501  503 -0.00000000000E+00 -0.00000000000E+00 -0.13441556565E+03  0.13441556565E+03  0.00000000000E+00 0.  1.
          6    1    1    2  501    0 -0.27272334102E+02 -0.72189604207E+02 -0.62568138246E+02  0.19863003571E+03  0.17200000000E+03 0.  1.
         -6    1    1    2    0  502  0.27272334102E+02  0.72189604207E+02  0.23241880896E+04  0.23318210470E+04  0.17200000000E+03 0. -1.
</event>
<event>
 4    1  0.4538619E+000  0.2185973E+03  0.7818608E-02  0.1134933E+00
         21   -1    0    0  503  502  0.00000000000E+00  0.00000000000E+00  0.22984755915E+03  0.22984755915E+03  0.00000000000E+00 0. -1.
         21   -1    0    0  501  503 -0.00000000000E+00 -0.00000000000E+00 -0.22476933068E+03  0.22476933068E+03  0.00000000000E+00 0. -1.
          6    1    1    2  501    0 -0.12542264625E+03 -0.49698306018E+02 -0.59737720530E+02  0.22661279105E+03  0.17200000000E+03 0. -1.
         -6    1    1    2    0  502  0.12542264625E+03  0.49698306018E+02  0.64815948994E+02  0.22800409877E+03  0.17200000000E+03 0. -1.
</event>
<event>
 4    1  0.4538619E+000  0.1978700E+03  0.7818608E-02  0.1151549E+00
         21   -1    0    0  503  502  0.00000000000E+00  0.00000000000E+00  0.36820421262E+02  0.36820421262E+02  0.00000000000E+00 0. -1.
         21   -1    0    0  501  503 -0.00000000000E+00 -0.00000000000E+00 -0.12608478020E+04  0.12608478020E+04  0.00000000000E+00 0. -1.
          6    1    1    2  501    0 -0.78280372123E+02  0.58657570215E+02 -0.86881512263E+03  0.89106242459E+03  0.17200000000E+03 0. -1.
         -6    1    1    2    0  502  0.78280372123E+02 -0.58657570215E+02 -0.35521225809E+03  0.40660579866E+03  0.17200000000E+03 0. -1.
</event>
<event>
 4    1  0.4538619E+000  0.1748846E+03  0.7818608E-02  0.1172848E+00
         21   -1    0    0  503  502  0.00000000000E+00  0.00000000000E+00  0.26661426615E+03  0.26661426615E+03  0.00000000000E+00 0. -1.
         21   -1    0    0  501  503 -0.00000000000E+00 -0.00000000000E+00 -0.41059910230E+03  0.41059910230E+03  0.00000000000E+00 0. -1.
          6    1    1    2  501    0  0.14677985124E+02  0.28020987648E+02 -0.35943257779E+03  0.39972039850E+03  0.17200000000E+03 0. -1.
         -6    1    1    2    0  502 -0.14677985124E+02 -0.28020987648E+02  0.21544774165E+03  0.27749296996E+03  0.17200000000E+03 0. -1.
</event>
<event>
 4    1  0.4538619E+000  0.2266391E+03  0.7818608E-02  0.1129028E+00
         21   -1    0    0  501  502  0.00000000000E+00  0.00000000000E+00  0.17197192067E+02  0.17197192067E+02  0.00000000000E+00 0.  1.
         21   -1    0    0  502  503 -0.00000000000E+00 -0.00000000000E+00 -0.30215062519E+04  0.30215062519E+04  0.00000000000E+00 0.  1.
          6    1    1    2  501    0  0.30360382780E+02  0.14442830545E+03 -0.16648929687E+04  0.16802481619E+04  0.17200000000E+03 0.  1.
         -6    1    1    2    0  503 -0.30360382780E+02 -0.14442830545E+03 -0.13394160912E+04  0.13584552821E+04  0.17200000000E+03 0.  1.
</event>
<event>
 4    1  0.4538619E+000  0.2194813E+03  0.7818608E-02  0.1134270E+00
         21   -1    0    0  503  502  0.00000000000E+00  0.00000000000E+00  0.15632075508E+03  0.15632075508E+03  0.00000000000E+00 0.  1.
         21   -1    0    0  501  503 -0.00000000000E+00 -0.00000000000E+00 -0.58797852005E+03  0.58797852005E+03  0.00000000000E+00 0. -1.
          6    1    1    2  501    0 -0.55174137316E+02 -0.12467500651E+03 -0.47255728131E+03  0.52103975548E+03  0.17200000000E+03 0. -1.
         -6    1    1    2    0  502  0.55174137316E+02  0.12467500651E+03  0.40899516337E+02  0.22325951965E+03  0.17200000000E+03 0.  1.
</event>
<event>
 4    1  0.4538619E+000  0.1884031E+03  0.7818608E-02  0.1159910E+00
         21   -1    0    0  501  502  0.00000000000E+00  0.00000000000E+00  0.17430679665E+03  0.17430679665E+03  0.00000000000E+00 0. -1.
         21   -1    0    0  502  503 -0.00000000000E+00 -0.00000000000E+00 -0.20651068465E+03  0.20651068465E+03  0.00000000000E+00 0.  1.
          6    1    1    2  501    0 -0.55520229208E+02 -0.53190553933E+02  0.63500028264E+01  0.18851008836E+03  0.17200000000E+03 0. -1.
         -6    1    1    2    0  503  0.55520229208E+02  0.53190553933E+02 -0.38553890835E+02  0.19230739294E+03  0.17200000000E+03 0. -1.
</event>
<event>
 4    1  0.4538619E+000  0.2254338E+03  0.7818608E-02  0.1129896E+00
         21   -1    0    0  503  502  0.00000000000E+00  0.00000000000E+00  0.15953364193E+04  0.15953364193E+04  0.00000000000E+00 0. -1.
         21   -1    0    0  501  503 -0.00000000000E+00 -0.00000000000E+00 -0.34391624388E+02  0.34391624388E+02  0.00000000000E+00 0. -1.
          6    1    1    2  501    0  0.13320916728E+02 -0.14511695314E+03  0.55919518676E+03  0.60292589412E+03  0.17200000000E+03 0. -1.
         -6    1    1    2    0  502 -0.13320916728E+02  0.14511695314E+03  0.10017496081E+04  0.10268021496E+04  0.17200000000E+03 0. -1.
</event>
<event>
 4    1  0.4538619E+000  0.1895831E+03  0.7818608E-02  0.1158838E+00
         21   -1    0    0  501  502  0.00000000000E+00  0.00000000000E+00  0.10799413265E+04  0.10799413265E+04  0.00000000000E+00 0.  1.
         21   -1    0    0  502  503 -0.00000000000E+00 -0.00000000000E+00 -0.46671462183E+02  0.46671462183E+02  0.00000000000E+00 0. -1.
          6    1    1    2  501    0  0.34083792501E+02  0.72083659327E+02  0.81836131334E+03  0.84003392671E+03  0.17200000000E+03 0.  1.
         -6    1    1    2    0  503 -0.34083792501E+02 -0.72083659327E+02  0.21490855102E+03  0.28657886202E+03  0.17200000000E+03 0. -1.
</event>
<event>
 4    1  0.4538619E+000  0.1755760E+03  0.7818608E-02  0.1172155E+00
         21   -1    0    0  503  502  0.00000000000E+00  0.00000000000E+00  0.20627046051E+03  0.20627046051E+03  0.00000000000E+00 0. -1.
         21   -1    0    0  501  503 -0.00000000000E+00 -0.00000000000E+00 -0.18637745203E+03  0.18637745203E+03  0.00000000000E+00 0. -1.
          6    1    1    2  501    0 -0.92708403941E+01  0.34014365189E+02 -0.77442509281E+02  0.19189650274E+03  0.17200000000E+03 0. -1.
         -6    1    1    2    0  502  0.92708403941E+01 -0.34014365189E+02  0.97335517758E+02  0.20075140980E+03  0.17200000000E+03 0. -1.
</event>
<event>
 4    1  0.4538619E+000  0.3002766E+03  0.7818608E-02  0.1085102E+00
         21   -1    0    0  501  502  0.00000000000E+00  0.00000000000E+00  0.13442080436E+03  0.13442080436E+03  0.00000000000E+00 0.  1.
         21   -1    0    0  502  503 -0.00000000000E+00 -0.00000000000E+00 -0.81077115062E+03  0.81077115062E+03  0.00000000000E+00 0. -1.
          6    1    1    2  501    0  0.40329972541E+02 -0.24280757418E+03 -0.53455639878E+03  0.61312035380E+03  0.17200000000E+03 0. -1.
         -6    1    1    2    0  503 -0.40329972541E+02  0.24280757418E+03 -0.14179394748E+03  0.33207160117E+03  0.17200000000E+03 0.  1.
</event>
<event>
 4    1  0.4538619E+000  0.3708560E+03  0.7818608E-02  0.1054366E+00
         21   -1    0    0  501  502  0.00000000000E+00  0.00000000000E+00  0.66369438341E+03  0.66369438341E+03  0.00000000000E+00 0. -1.
         21   -1    0    0  502  503 -0.00000000000E+00 -0.00000000000E+00 -0.20750213213E+03  0.20750213213E+03  0.00000000000E+00 0. -1.
          6    1    1    2  501    0 -0.16935572570E+03 -0.28154716520E+03  0.21218133835E+03  0.42726465850E+03  0.17200000000E+03 0. -1.
         -6    1    1    2    0  503  0.16935572570E+03  0.28154716520E+03  0.24401091294E+03  0.44393185704E+03  0.17200000000E+03 0. -1.
</event>
<event>
 4    1  0.4538619E+000  0.2132549E+03  0.7818608E-02  0.1139014E+00
         21   -1    0    0  501  502  0.00000000000E+00  0.00000000000E+00  0.86007956373E+02  0.86007956373E+02  0.00000000000E+00 0. -1.
         21   -1    0    0  502  503 -0.00000000000E+00 -0.00000000000E+00 -0.53488091669E+03  0.53488091669E+03  0.00000000000E+00 0. -1.
          6    1    1    2  501    0 -0.10436100374E+03  0.70727915141E+02 -0.19122972737E+03  0.28643754242E+03  0.17200000000E+03 0. -1.
         -6    1    1    2    0  503  0.10436100374E+03 -0.70727915141E+02 -0.25764323295E+03  0.33445133063E+03  0.17200000000E+03 0. -1.
</event>
<event>
 4    1  0.4538619E+000  0.1975452E+03  0.7818608E-02  0.1151827E+00
         21   -1    0    0  503  502  0.00000000000E+00  0.00000000000E+00  0.59205088233E+03  0.59205088233E+03  0.00000000000E+00 0. -1.
         21   -1    0    0  501  503 -0.00000000000E+00 -0.00000000000E+00 -0.85834778425E+02  0.85834778425E+02  0.00000000000E+00 0. -1.
          6    1    1    2  501    0 -0.96296050693E+02 -0.12929144633E+02  0.89820003944E+02  0.21700627933E+03  0.17200000000E+03 0. -1.
         -6    1    1    2    0  502  0.96296050693E+02  0.12929144633E+02  0.41639609996E+03  0.46087938143E+03  0.17200000000E+03 0. -1.
</event>
<event>
 4    1  0.4538619E+000  0.1725764E+03  0.7818608E-02  0.1175187E+00
         21   -1    0    0  503  502  0.00000000000E+00  0.00000000000E+00  0.14010341449E+03  0.14010341449E+03  0.00000000000E+00 0.  1.
         21   -1    0    0  501  503 -0.00000000000E+00 -0.00000000000E+00 -0.24308572262E+03  0.24308572262E+03  0.00000000000E+00 0.  1.
          6    1    1    2  501    0  0.13977873409E+02  0.17966761713E+01 -0.11936826216E+03  0.20983658166E+03  0.17200000000E+03 0.  1.
         -6    1    1    2    0  502 -0.13977873409E+02 -0.17966761713E+01  0.16385954031E+02  0.17335255545E+03  0.17200000000E+03 0.  1.
</event>
<event>
 4    1  0.4538619E+000  0.1884389E+03  0.7818608E-02  0.1159877E+00
         21   -1    0    0  503  502  0.00000000000E+00  0.00000000000E+00  0.63636264267E+03  0.63636264267E+03  0.00000000000E+00 0. -1.
         21   -1    0    0  501  503 -0.00000000000E+00 -0.00000000000E+00 -0.25236079853E+03  0.25236079853E+03  0.00000000000E+00 0. -1.
          6    1    1    2  501    0  0.57161951605E+02  0.51553128538E+02 -0.20016859880E+03  0.27491213454E+03  0.17200000000E+03 0. -1.
         -6    1    1    2    0  502 -0.57161951605E+02 -0.51553128538E+02  0.58417044294E+03  0.61381130666E+03  0.17200000000E+03 0. -1.
</event>
<event>
 4    1  0.4538619E+000  0.1745843E+03  0.7818608E-02  0.1173150E+00
         21   -1    0    0  501  502  0.00000000000E+00  0.00000000000E+00  0.33834863248E+03  0.33834863248E+03  0.00000000000E+00 0.  1.
         21   -1    0    0  502  503 -0.00000000000E+00 -0.00000000000E+00 -0.21023303047E+03  0.21023303047E+03  0.00000000000E+00 0.  1.
          6    1    1    2  501    0 -0.62380352954E+01 -0.29270518904E+02  0.27141618607E+03  0.32271724841E+03  0.17200000000E+03 0.  1.
         -6    1    1    2    0  503  0.62380352954E+01  0.29270518904E+02 -0.14330058406E+03  0.22586441453E+03  0.17200000000E+03 0.  1.
</event>
<event>
 4    1  0.4538619E+000  0.1905512E+03  0.7818608E-02  0.1157965E+00
         21   -1    0    0  503  502  0.00000000000E+00  0.00000000000E+00  0.10707077622E+03  0.10707077622E+03  0.00000000000E+00 0. -1.
         21   -1    0    0  501  503 -0.00000000000E+00 -0.00000000000E+00 -0.40418920133E+03  0.40418920133E+03  0.00000000000E+00 0.  1.
          6    1    1    2  501    0  0.69683462571E+02 -0.43243087307E+02 -0.25112678000E+03  0.31523706823E+03  0.17200000000E+03 0.  1.
         -6    1    1    2    0  502 -0.69683462571E+02  0.43243087307E+02 -0.45991645111E+02  0.19602290931E+03  0.17200000000E+03 0. -1.
</event>
<event>
 4    1  0.4538619E+000  0.2007115E+03  0.7818608E-02  0.1149140E+00
         21   -1    0    0  503  502  0.00000000000E+00  0.00000000000E+00  0.10938785152E+03  0.10938785152E+03  0.00000000000E+00 0.  1.
         21   -1    0    0  501  503 -0.00000000000E+00 -0.00000000000E+00 -0.37064818130E+03  0.37064818130E+03  0.00000000000E+00 0. -1.
          6    1    1    2  501    0  0.76032900538E+02  0.70143544153E+02 -0.11143593015E+03  0.22957152541E+03  0.17200000000E+03 0.  1.
         -6    1    1    2    0  502 -0.76032900538E+02 -0.70143544153E+02 -0.14982439963E+03  0.25046450741E+03  0.17200000000E+03 0. -1.
</event>
<event>
 4    1  0.4538619E+000  0.2210586E+03  0.7818608E-02  0.1133096E+00
         21   -1    0    0  501  502  0.00000000000E+00  0.00000000000E+00  0.66570399598E+03  0.66570399598E+03  0.00000000000E+00 0. -1.
         21   -1    0    0  502  503 -0.00000000000E+00 -0.00000000000E+00 -0.73971618288E+02  0.73971618288E+02  0.00000000000E+00 0. -1.
          6    1    1    2  501    0 -0.10588204698E+02 -0.13845866358E+03  0.26353663836E+03  0.34397452138E+03  0.17200000000E+03 0. -1.
         -6    1    1    2    0  503  0.10588204698E+02  0.13845866358E+03  0.32819573933E+03  0.39570109289E+03  0.17200000000E+03 0. -1.
</event>
<event>
 4    1  0.4538619E+000  0.2086353E+03  0.7818608E-02  0.1142651E+00
         21   -1    0    0  503  502  0.00000000000E+00  0.00000000000E+00  0.13566074395E+03  0.13566074395E+03  0.00000000000E+00 0. -1.
         21   -1    0    0  501  503 -0.00000000000E+00 -0.00000000000E+00 -0.32454840556E+03  0.32454840556E+03  0.00000000000E+00 0. -1.
          6    1    1    2  501    0 -0.21876332607E+00  0.11808748338E+03 -0.69928014615E+02  0.22004233414E+03  0.17200000000E+03 0. -1.
         -6    1    1    2    0  502  0.21876332607E+00 -0.11808748338E+03 -0.11895964700E+03  0.24016681536E+03  0.17200000000E+03 0. -1.
</event>
<event>
 4    1  0.4538619E+000  0.2881958E+03  0.7818608E-02  0.1091295E+00
         21   -1    0    0  503  502  0.00000000000E+00  0.00000000000E+00  0.47696930097E+03  0.47696930097E+03  0.00000000000E+00 0.  1.
         21   -1    0    0  501  503 -0.00000000000E+00 -0.00000000000E+00 -0.26701525578E+03  0.26701525578E+03  0.00000000000E+00 0. -1.
          6    1    1    2  501    0  0.98403201906E+02  0.20925973643E+03 -0.11441896257E+03  0.31007825856E+03  0.17200000000E+03 0. -1.
         -6    1    1    2    0  502 -0.98403201906E+02 -0.20925973643E+03  0.32437300776E+03  0.43390629818E+03  0.17200000000E+03 0.  1.
</event>
<event>
 4    1  0.4538619E+000  0.2114700E+03  0.7818608E-02  0.1140407E+00
         21   -1    0    0  501  502  0.00000000000E+00  0.00000000000E+00  0.12942553852E+03  0.12942553852E+03  0.00000000000E+00 0. -1.
         21   -1    0    0  502  503 -0.00000000000E+00 -0.00000000000E+00 -0.10284374025E+04  0.10284374025E+04  0.00000000000E+00 0. -1.
          6    1    1    2  501    0  0.11028732975E+03 -0.54518443283E+02  0.22254189649E+02  0.21263773118E+03  0.17200000000E+03 0. -1.
         -6    1    1    2    0  503 -0.11028732975E+03  0.54518443283E+02 -0.92126605361E+03  0.94522520983E+03  0.17200000000E+03 0. -1.
</event>
<event>
 4    1  0.4538619E+000  0.1940919E+03  0.7818608E-02  0.1154822E+00
         21   -1    0    0  501  502  0.00000000000E+00  0.00000000000E+00  0.15406532287E+03  0.15406532287E+03  0.00000000000E+00 0.  1.
         21   -1    0    0  502  503 -0.00000000000E+00 -0.00000000000E+00 -0.44933151369E+03  0.44933151369E+03  0.00000000000E+00 0.  1.
          6    1    1    2  501    0  0.86838647757E+02 -0.23382246409E+02  0.56056732552E+02  0.20202484366E+03  0.17200000000E+03 0.  1.
         -6    1    1    2    0  503 -0.86838647757E+02  0.23382246409E+02 -0.35132292338E+03  0.40137199289E+03  0.17200000000E+03 0.  1.
</event>
<event>
 4    1  0.4538619E+000  0.2470522E+03  0.7818608E-02  0.1115182E+00
         21   -1    0    0  503  502  0.00000000000E+00  0.00000000000E+00  0.66003091704E+03  0.66003091704E+03  0.00000000000E+00 0.  1.
         21   -1    0    0  501  503 -0.00000000000E+00 -0.00000000000E+00 -0.18649234067E+03  0.18649234067E+03  0.00000000000E+00 0. -1.
          6    1    1    2  501    0 -0.16029683946E+03 -0.75866397024E+02 -0.63760746611E+02  0.25514744707E+03  0.17200000000E+03 0. -1.
         -6    1    1    2    0  502  0.16029683946E+03  0.75866397024E+02  0.53729932297E+03  0.59137581064E+03  0.17200000000E+03 0.  1.
</event>
<event>
 4    1  0.4538619E+000  0.1896617E+03  0.7818608E-02  0.1158767E+00
         21   -1    0    0  503  502  0.00000000000E+00  0.00000000000E+00  0.85692533939E+02  0.85692533939E+02  0.00000000000E+00 0. -1.
         21   -1    0    0  501  503 -0.00000000000E+00 -0.00000000000E+00 -0.95119210898E+03  0.95119210898E+03  0.00000000000E+00 0. -1.
          6    1    1    2  501    0  0.12588122740E+01  0.79912301877E+02 -0.82026093681E+03  0.84190234888E+03  0.17200000000E+03 0. -1.
         -6    1    1    2    0  502 -0.12588122740E+01 -0.79912301877E+02 -0.45238638235E+02  0.19498229404E+03  0.17200000000E+03 0. -1.
</event>
<event>
 4    1  0.4538619E+000  0.2565654E+03  0.7818608E-02  0.1109225E+00
         21   -1    0    0  503  502  0.00000000000E+00  0.00000000000E+00  0.44941933961E+03  0.44941933961E+03  0.00000000000E+00 0.  1.
         21   -1    0    0  501  503 -0.00000000000E+00 -0.00000000000E+00 -0.16759295476E+03  0.16759295476E+03  0.00000000000E+00 0. -1.
          6    1    1    2  501    0 -0.93843438800E+02 -0.16563585884E+03  0.25044178406E+03  0.35853439994E+03  0.17200000000E+03 0. -1.
         -6    1    1    2    0  502  0.93843438800E+02  0.16563585884E+03  0.31384600793E+02  0.25847789443E+03  0.17200000000E+03 0. -1.
</event>
<event>
 4    1  0.4538619E+000  0.1834937E+03  0.7818608E-02  0.1164464E+00
         21   -1    0    0  503  502  0.00000000000E+00  0.00000000000E+00  0.65408755559E+03  0.65408755559E+03  0.00000000000E+00 0. -1.
         21   -1    0    0  501  503 -0.00000000000E+00 -0.00000000000E+00 -0.51895964931E+02  0.51895964931E+02  0.00000000000E+00 0. -1.
          6    1    1    2  501    0  0.63793229648E+02  0.40451806006E+01  0.26934880322E+03  0.32591213145E+03  0.17200000000E+03 0. -1.
         -6    1    1    2    0  502 -0.63793229648E+02 -0.40451806006E+01  0.33284278744E+03  0.38007138906E+03  0.17200000000E+03 0. -1.
</event>
<event>
 4    1  0.4538619E+000  0.1968980E+03  0.7818608E-02  0.1152383E+00
         21   -1    0    0  501  502  0.00000000000E+00  0.00000000000E+00  0.12069030762E+03  0.12069030762E+03  0.00000000000E+00 0.  1.
         21   -1    0    0  502  503 -0.00000000000E+00 -0.00000000000E+00 -0.43167367636E+03  0.43167367636E+03  0.00000000000E+00 0.  1.
          6    1    1    2  501    0  0.56997771054E+02  0.77045903785E+02 -0.15791608758E+02  0.19753023086E+03  0.17200000000E+03 0.  1.
         -6    1    1    2    0  503 -0.56997771054E+02 -0.77045903785E+02 -0.29519175999E+03  0.35483375313E+03  0.17200000000E+03 0.  1.
</event>
<event>
 4    1  0.4538619E+000  0.2236573E+03  0.7818608E-02  0.1131185E+00
         21   -1    0    0  503  502  0.00000000000E+00  0.00000000000E+00  0.77099964275E+02  0.77099964275E+02  0.00000000000E+00 0.  1.
         21   -1    0    0  501  503 -0.00000000000E+00 -0.00000000000E+00 -0.65646357546E+03  0.65646357546E+03  0.00000000000E+00 0. -1.
          6    1    1    2  501    0  0.10271430984E+03  0.99440116138E+02 -0.32930759831E+03  0.39807795775E+03  0.17200000000E+03 0. -1.
         -6    1    1    2    0  502 -0.10271430984E+03 -0.99440116138E+02 -0.25005601287E+03  0.33548558198E+03  0.17200000000E+03 0.  1.
</event>
<event>
 4    1  0.4538619E+000  0.1724469E+03  0.7818608E-02  0.1175320E+00
         21   -1    0    0  501  502  0.00000000000E+00  0.00000000000E+00  0.32898460669E+02  0.32898460669E+02  0.00000000000E+00 0. -1.
         21   -1    0    0  502  503 -0.00000000000E+00 -0.00000000000E+00 -0.14004369130E+04  0.14004369130E+04  0.00000000000E+00 0. -1.
          6    1    1    2  501    0  0.63866013094E+01 -0.10637041211E+02 -0.25704401424E+03  0.30953119484E+03  0.17200000000E+03 0. -1.
         -6    1    1    2    0  503 -0.63866013094E+01  0.10637041211E+02 -0.11104944380E+04  0.11238041788E+04  0.17200000000E+03 0. -1.
</event>
<event>
 4    1  0.4538619E+000  0.2647672E+03  0.7818608E-02  0.1104312E+00
         21   -1    0    0  503  502  0.00000000000E+00  0.00000000000E+00  0.30179021665E+03  0.30179021665E+03  0.00000000000E+00 0. -1.
         21   -1    0    0  501  503 -0.00000000000E+00 -0.00000000000E+00 -0.43839923069E+03  0.43839923069E+03  0.00000000000E+00 0. -1.
          6    1    1    2  501    0 -0.40600390321E+02  0.19715286972E+03 -0.32206904091E+03  0.41692938593E+03  0.17200000000E+03 0. -1.
         -6    1    1    2    0  502  0.40600390321E+02 -0.19715286972E+03  0.18546002688E+03  0.32326006141E+03  0.17200000000E+03 0. -1.
</event>
<event>
 4    1  0.4538619E+000  0.2875770E+03  0.7818608E-02  0.1091621E+00
         21   -1    0    0  501  502  0.00000000000E+00  0.00000000000E+00  0.15134052911E+03  0.15134052911E+03  0.00000000000E+00 0. -1.
         21   -1    0    0  502  503 -0.00000000000E+00 -0.00000000000E+00 -0.18275183304E+04  0.18275183304E+04  0.00000000000E+00 0. -1.
          6    1    1    2  501    0 -0.16924850634E+03  0.15643357269E+03 -0.96899221916E+01  0.28774018516E+03  0.17200000000E+03 0. -1.
         -6    1    1    2    0  503  0.16924850634E+03 -0.15643357269E+03 -0.16664878791E+04  0.16911186743E+04  0.17200000000E+03 0. -1.
</event>
<event>
 4    1  0.4538619E+000  0.2105204E+03  0.7818608E-02  0.1141155E+00
         21   -1    0    0  501  502  0.00000000000E+00  0.00000000000E+00  0.38821493570E+03  0.38821493570E+03  0.00000000000E+00 0.  1.
         21   -1    0    0  502  503 -0.00000000000E+00 -0.00000000000E+00 -0.76545078740E+03  0.76545078740E+03  0.00000000000E+00 0. -1.
          6    1    1    2  501    0  0.27416499108E+02 -0.11825045812E+03  0.34346415930E+03  0.40284794153E+03  0.17200000000E+03 0.  1.
         -6    1    1    2    0  503 -0.27416499108E+02  0.11825045812E+03 -0.72070001100E+03  0.75081778157E+03  0.17200000000E+03 0. -1.
</event>
<event>
 4    1  0.4538619E+000  0.1778959E+03  0.7818608E-02  0.1169855E+00
         21   -1    0    0  501  502  0.00000000000E+00  0.00000000000E+00  0.75036835093E+02  0.75036835093E+02  0.00000000000E+00 0.  1.
         21   -1    0    0  502  503 -0.00000000000E+00 -0.00000000000E+00 -0.88690849887E+03  0.88690849887E+03  0.00000000000E+00 0.  1.
          6    1    1    2  501    0 -0.41526618705E+02  0.18398607236E+02 -0.57614296300E+02  0.18699298369E+03  0.17200000000E+03 0.  1.
         -6    1    1    2    0  503  0.41526618705E+02 -0.18398607236E+02 -0.75425736748E+03  0.77495235028E+03  0.17200000000E+03 0.  1.
</event>
<event>
 4    1  0.4538619E+000  0.2998173E+03  0.7818608E-02  0.1085332E+00
         21   -1    0    0  501  502  0.00000000000E+00  0.00000000000E+00  0.63417254815E+03  0.63417254815E+03  0.00000000000E+00 0.  1.
         21   -1    0    0  502  503 -0.00000000000E+00 -0.00000000000E+00 -0.14318400682E+03  0.14318400682E+03  0.00000000000E+00 0.  1.
          6    1    1    2  501    0  0.24344613174E+02 -0.24436391555E+03  0.20652065918E+03  0.36406203603E+03  0.17200000000E+03 0.  1.
         -6    1    1    2    0  503 -0.24344613174E+02  0.24436391555E+03  0.28446788215E+03  0.41329451894E+03  0.17200000000E+03 0.  1.
</event>
<event>
 4    1  0.4538619E+000  0.2436155E+03  0.7818608E-02  0.1117407E+00
         21   -1    0    0  501  502  0.00000000000E+00  0.00000000000E+00  0.42490661982E+03  0.42490661982E+03  0.00000000000E+00 0. -1.
         21   -1    0    0  502  503 -0.00000000000E+00 -0.00000000000E+00 -0.13976613804E+03  0.13976613804E+03  0.00000000000E+00 0. -1.
          6    1    1    2  501    0  0.17819685698E+02 -0.17160123393E+03  0.14980847827E+03  0.28599144191E+03  0.17200000000E+03 0. -1.
         -6    1    1    2    0  503 -0.17819685698E+02  0.17160123393E+03  0.13533200352E+03  0.27868131595E+03  0.17200000000E+03 0. -1.
</event>
<event>
 4    1  0.4538619E+000  0.1908277E+03  0.7818608E-02  0.1157717E+00
         21   -1    0    0  503  502  0.00000000000E+00  0.00000000000E+00  0.15173306110E+03  0.15173306110E+03  0.00000000000E+00 0.  1.
         21   -1    0    0  501  503 -0.00000000000E+00 -0.00000000000E+00 -0.10458195478E+04  0.10458195478E+04  0.00000000000E+00 0.  1.
          6    1    1    2  501    0  0.73992195905E+02 -0.36829124732E+02 -0.97264448142E+03  0.99118742765E+03  0.17200000000E+03 0.  1.
         -6    1    1    2    0  502 -0.73992195905E+02  0.36829124732E+02  0.78557994748E+02  0.20636518123E+03  0.17200000000E+03 0.  1.
</event>
<event>
 4    1  0.4538619E+000  0.2224639E+03  0.7818608E-02  0.1132059E+00
         21   -1    0    0  501  502  0.00000000000E+00  0.00000000000E+00  0.74607474815E+03  0.74607474815E+03  0.00000000000E+00 0. -1.
         21   -1    0    0  502  503 -0.00000000000E+00 -0.00000000000E+00 -0.68946326572E+02  0.68946326572E+02  0.00000000000E+00 0. -1.
          6    1    1    2  501    0  0.19564443292E+02  0.13972629298E+03  0.41788515394E+03  0.47341124435E+03  0.17200000000E+03 0. -1.
         -6    1    1    2    0  503 -0.19564443292E+02 -0.13972629298E+03  0.25924326763E+03  0.34160983037E+03  0.17200000000E+03 0. -1.
</event>
<event>
 4    1  0.4538619E+000  0.2331098E+03  0.7818608E-02  0.1124470E+00
         21   -1    0    0  501  502  0.00000000000E+00  0.00000000000E+00  0.18175562860E+04  0.18175562860E+04  0.00000000000E+00 0. -1.
         21   -1    0    0  502  503 -0.00000000000E+00 -0.00000000000E+00 -0.46782298486E+02  0.46782298486E+02  0.00000000000E+00 0. -1.
          6    1    1    2  501    0 -0.13606804516E+03  0.79004192246E+02  0.14454069042E+04  0.14640837729E+04  0.17200000000E+03 0. -1.
         -6    1    1    2    0  503  0.13606804516E+03 -0.79004192246E+02  0.32536708329E+03  0.40025481158E+03  0.17200000000E+03 0. -1.
</event>
<event>
 4    1  0.4538619E+000  0.1834716E+03  0.7818608E-02  0.1164485E+00
         21   -1    0    0  501  502  0.00000000000E+00  0.00000000000E+00  0.67978592794E+03  0.67978592794E+03  0.00000000000E+00 0.  1.
         21   -1    0    0  502  503 -0.00000000000E+00 -0.00000000000E+00 -0.74945535206E+02  0.74945535206E+02  0.00000000000E+00 0.  1.
          6    1    1    2  501    0  0.11173976682E+02 -0.62872659851E+02  0.52222608749E+03  0.55351776445E+03  0.17200000000E+03 0.  1.
         -6    1    1    2    0  503 -0.11173976682E+02  0.62872659851E+02  0.82614305251E+02  0.20121369870E+03  0.17200000000E+03 0.  1.
</event>
<event>
 4    1  0.4538619E+000  0.2007615E+03  0.7818608E-02  0.1149098E+00
         21   -1    0    0  501  502  0.00000000000E+00  0.00000000000E+00  0.33020426425E+03  0.33020426425E+03  0.00000000000E+00 0.  1.
         21   -1    0    0  502  503 -0.00000000000E+00 -0.00000000000E+00 -0.81634194308E+03  0.81634194308E+03  0.00000000000E+00 0.  1.
          6    1    1    2  501    0 -0.88669941509E+02 -0.53467891919E+02  0.28561133905E+03  0.34911174570E+03  0.17200000000E+03 0.  1.
         -6    1    1    2    0  503  0.88669941509E+02  0.53467891919E+02 -0.77174901788E+03  0.79743446162E+03  0.17200000000E+03 0.  1.
</event>
<event>
 4    1  0.4538619E+000  0.2804312E+03  0.7818608E-02  0.1095454E+00
         21   -1    0    0  503  502  0.00000000000E+00  0.00000000000E+00  0.15787249462E+04  0.15787249462E+04  0.00000000000E+00 0. -1.
         21   -1    0    0  501  503 -0.00000000000E+00 -0.00000000000E+00 -0.56068201440E+02  0.56068201440E+02  0.00000000000E+00 0.  1.
          6    1    1    2  501    0 -0.16537769004E+03  0.14733589955E+03  0.48831653684E+03  0.56311161221E+03  0.17200000000E+03 0.  1.
         -6    1    1    2    0  502  0.16537769004E+03 -0.14733589955E+03  0.10343402079E+04  0.10716815354E+04  0.17200000000E+03 0. -1.
</event>
<event>
 4    1  0.4538619E+000  0.1990129E+03  0.7818608E-02  0.1150575E+00
         21   -1    0    0  501  502  0.00000000000E+00  0.00000000000E+00  0.18176764990E+04  0.18176764990E+04  0.00000000000E+00 0.  1.
         21   -1    0    0  502  503 -0.00000000000E+00 -0.00000000000E+00 -0.29263971554E+02  0.29263971554E+02  0.00000000000E+00 0. -1.
          6    1    1    2  501    0  0.48288316619E+01 -0.99994027702E+02  0.13609180144E+04  0.13753922950E+04  0.17200000000E+03 0. -1.
         -6    1    1    2    0  503 -0.48288316619E+01  0.99994027702E+02  0.42749451299E+03  0.47154817551E+03  0.17200000000E+03 0. -1.
</event>
<event>
 4    1  0.4538619E+000  0.2470695E+03  0.7818608E-02  0.1115171E+00
         21   -1    0    0  501  502  0.00000000000E+00  0.00000000000E+00  0.20048536448E+03  0.20048536448E+03  0.00000000000E+00 0.  1.
         21   -1    0    0  502  503 -0.00000000000E+00 -0.00000000000E+00 -0.35841812146E+03  0.35841812146E+03  0.00000000000E+00 0.  1.
          6    1    1    2  501    0 -0.16231861995E+02  0.17662355486E+03  0.29443383788E+02  0.24881773715E+03  0.17200000000E+03 0.  1.
         -6    1    1    2    0  503  0.16231861995E+02 -0.17662355486E+03 -0.18737614076E+03  0.31008574879E+03  0.17200000000E+03 0.  1.
</event>
<event>
 4    1  0.4538619E+000  0.2067987E+03  0.7818608E-02  0.1144126E+00
         21   -1    0    0  501  502  0.00000000000E+00  0.00000000000E+00  0.11116190620E+03  0.11116190620E+03  0.00000000000E+00 0. -1.
         21   -1    0    0  502  503 -0.00000000000E+00 -0.00000000000E+00 -0.54375079679E+03  0.54375079679E+03  0.00000000000E+00 0. -1.
          6    1    1    2  501    0 -0.10239266336E+03  0.51936739102E+02 -0.39201791513E+02  0.21048150236E+03  0.17200000000E+03 0. -1.
         -6    1    1    2    0  503  0.10239266336E+03 -0.51936739102E+02 -0.39338709907E+03  0.44443120063E+03  0.17200000000E+03 0. -1.
</event>
<event>
 4    1  0.4538619E+000  0.2020819E+03  0.7818608E-02  0.1147994E+00
         21   -1    0    0  503  502  0.00000000000E+00  0.00000000000E+00  0.40895847770E+02  0.40895847770E+02  0.00000000000E+00 0.  1.
         21   -1    0    0  501  503 -0.00000000000E+00 -0.00000000000E+00 -0.12722607308E+04  0.12722607308E+04  0.00000000000E+00 0.  1.
          6    1    1    2  501    0  0.28656260097E+02 -0.10213667899E+03 -0.31114968309E+03  0.37101375679E+03  0.17200000000E+03 0.  1.
         -6    1    1    2    0  502 -0.28656260097E+02  0.10213667899E+03 -0.92021519995E+03  0.94214282179E+03  0.17200000000E+03 0.  1.
</event>
<event>
 4    1  0.4538619E+000  0.1751058E+03  0.7818608E-02  0.1172625E+00
         21   -1    0    0  503  502  0.00000000000E+00  0.00000000000E+00  0.44976396720E+02  0.44976396720E+02  0.00000000000E+00 0.  1.
         21   -1    0    0  501  503 -0.00000000000E+00 -0.00000000000E+00 -0.72220152599E+03  0.72220152599E+03  0.00000000000E+00 0.  1.
          6    1    1    2  501    0  0.24971577493E+02  0.21318485939E+02 -0.42941051959E+03  0.46374071620E+03  0.17200000000E+03 0.  1.
         -6    1    1    2    0  502 -0.24971577493E+02 -0.21318485939E+02 -0.24781460968E+03  0.30343720651E+03  0.17200000000E+03 0.  1.
</event>
<event>
 4    1  0.4538619E+000  0.2389693E+03  0.7818608E-02  0.1120481E+00
         21   -1    0    0  503  502  0.00000000000E+00  0.00000000000E+00  0.16513799135E+03  0.16513799135E+03  0.00000000000E+00 0. -1.
         21   -1    0    0  501  503 -0.00000000000E+00 -0.00000000000E+00 -0.35480342874E+03  0.35480342874E+03  0.00000000000E+00 0.  1.
          6    1    1    2  501    0 -0.13413958323E+03 -0.97615991265E+02 -0.13622332876E+03  0.27506927280E+03  0.17200000000E+03 0.  1.
         -6    1    1    2    0  502  0.13413958323E+03  0.97615991265E+02 -0.53442108627E+02  0.24487214728E+03  0.17200000000E+03 0. -1.
</event>
<event>
 4    1  0.4538619E+000  0.1836076E+03  0.7818608E-02  0.1164357E+00
         21   -1    0    0  503  502  0.00000000000E+00  0.00000000000E+00  0.26050446967E+03  0.26050446967E+03  0.00000000000E+00 0. -1.
         21   -1    0    0  501  503 -0.00000000000E+00 -0.00000000000E+00 -0.17778569968E+03  0.17778569968E+03  0.00000000000E+00 0. -1.
          6    1    1    2  501    0 -0.29302931214E+02 -0.57175899540E+02 -0.72954591347E+02  0.19757053845E+03  0.17200000000E+03 0. -1.
         -6    1    1    2    0  502  0.29302931214E+02  0.57175899540E+02  0.15567336134E+03  0.24071963089E+03  0.17200000000E+03 0. -1.
</event>
<event>
 4    1  0.4538619E+000  0.1874306E+03  0.7818608E-02  0.1160799E+00
         21   -1    0    0  501  502  0.00000000000E+00  0.00000000000E+00  0.59850389081E+02  0.59850389081E+02  0.00000000000E+00 0.  1.
         21   -1    0    0  502  503 -0.00000000000E+00 -0.00000000000E+00 -0.60112459570E+03  0.60112459570E+03  0.00000000000E+00 0. -1.
          6    1    1    2  501    0  0.12096380901E+01 -0.74463242180E+02 -0.21991949876E+03  0.28895470855E+03  0.17200000000E+03 0. -1.
         -6    1    1    2    0  503 -0.12096380901E+01  0.74463242180E+02 -0.32135470786E+03  0.37202027623E+03  0.17200000000E+03 0.  1.
</event>
<event>
 4    1  0.4538619E+000  0.2024013E+03  0.7818608E-02  0.1147729E+00
         21   -1    0    0  501  502  0.00000000000E+00  0.00000000000E+00  0.36409593709E+03  0.36409593709E+03  0.00000000000E+00 0. -1.
         21   -1    0    0  502  503 -0.00000000000E+00 -0.00000000000E+00 -0.30022523869E+03  0.30022523869E+03  0.00000000000E+00 0. -1.
          6    1    1    2  501    0 -0.10643059674E+03 -0.74043469243E+01  0.29457987228E+03  0.35741236329E+03  0.17200000000E+03 0. -1.
         -6    1    1    2    0  503  0.10643059674E+03  0.74043469243E+01 -0.23070917387E+03  0.30690881249E+03  0.17200000000E+03 0. -1.
</event>
<event>
 4    1  0.4538619E+000  0.2461814E+03  0.7818608E-02  0.1115742E+00
         21   -1    0    0  503  502  0.00000000000E+00  0.00000000000E+00  0.35807569266E+03  0.35807569266E+03  0.00000000000E+00 0. -1.
         21   -1    0    0  501  503 -0.00000000000E+00 -0.00000000000E+00 -0.24413649863E+03  0.24413649863E+03  0.00000000000E+00 0. -1.
          6    1    1    2  501    0 -0.60326697405E+02  0.16547503649E+03 -0.10979235128E+03  0.26955455574E+03  0.17200000000E+03 0. -1.
         -6    1    1    2    0  502  0.60326697405E+02 -0.16547503649E+03  0.22373154531E+03  0.33265763555E+03  0.17200000000E+03 0. -1.
</event>
<event>
 4    1  0.4538619E+000  0.1785471E+03  0.7818608E-02  0.1169217E+00
         21   -1    0    0  503  502  0.00000000000E+00  0.00000000000E+00  0.57694630255E+02  0.57694630255E+02  0.00000000000E+00 0. -1.
         21   -1    0    0  501  503 -0.00000000000E+00 -0.00000000000E+00 -0.64894523936E+03  0.64894523936E+03  0.00000000000E+00 0. -1.
          6    1    1    2  501    0  0.45942866593E+02 -0.13576259567E+02 -0.43179988728E+03  0.46725817753E+03  0.17200000000E+03 0. -1.
         -6    1    1    2    0  502 -0.45942866593E+02  0.13576259567E+02 -0.15945072183E+03  0.23938169208E+03  0.17200000000E+03 0. -1.
</event>
<event>
 4    1  0.4538619E+000  0.1860054E+03  0.7818608E-02  0.1162114E+00
         21   -1    0    0  501  502  0.00000000000E+00  0.00000000000E+00  0.23819737496E+03  0.23819737496E+03  0.00000000000E+00 0.  1.
         21   -1    0    0  502  503 -0.00000000000E+00 -0.00000000000E+00 -0.14563628118E+03  0.14563628118E+03  0.00000000000E+00 0. -1.
          6    1    1    2  501    0 -0.43085288374E+02  0.56193269637E+02  0.36388925999E+02  0.18953147380E+03  0.17200000000E+03 0. -1.
         -6    1    1    2    0  503  0.43085288374E+02 -0.56193269637E+02  0.56172167774E+02  0.19430218233E+03  0.17200000000E+03 0.  1.
</event>
<event>
 4    1  0.4538619E+000  0.1779946E+03  0.7818608E-02  0.1169758E+00
         21   -1    0    0  501  502  0.00000000000E+00  0.00000000000E+00  0.13632742110E+04  0.13632742110E+04  0.00000000000E+00 0.  1.
         21   -1    0    0  502  503 -0.00000000000E+00 -0.00000000000E+00 -0.47967339013E+02  0.47967339013E+02  0.00000000000E+00 0.  1.
          6    1    1    2  501    0  0.35393082350E+02  0.29076098789E+02  0.11642821869E+04  0.11778094500E+04  0.17200000000E+03 0.  1.
         -6    1    1    2    0  503 -0.35393082350E+02 -0.29076098789E+02  0.15102468504E+03  0.23343209996E+03  0.17200000000E+03 0.  1.
</event>
<event>
 4    1  0.4538619E+000  0.2458044E+03  0.7818608E-02  0.1115985E+00
         21   -1    0    0  503  502  0.00000000000E+00  0.00000000000E+00  0.40401526265E+03  0.40401526265E+03  0.00000000000E+00 0. -1.
         21   -1    0    0  501  503 -0.00000000000E+00 -0.00000000000E+00 -0.19990385472E+03  0.19990385472E+03  0.00000000000E+00 0.  1.
          6    1    1    2  501    0 -0.14640022768E+03  0.96967881917E+02 -0.49496368029E+02  0.25073828435E+03  0.17200000000E+03 0.  1.
         -6    1    1    2    0  502  0.14640022768E+03 -0.96967881917E+02  0.25360777595E+03  0.35318083302E+03  0.17200000000E+03 0. -1.
</event>
<event>
 4    1  0.4538619E+000  0.2037099E+03  0.7818608E-02  0.1146646E+00
         21   -1    0    0  503  502  0.00000000000E+00  0.00000000000E+00  0.17563538554E+03  0.17563538554E+03  0.00000000000E+00 0. -1.
         21   -1    0    0  501  503 -0.00000000000E+00 -0.00000000000E+00 -0.41767312014E+03  0.41767312014E+03  0.00000000000E+00 0. -1.
          6    1    1    2  501    0 -0.11630827836E+02  0.10852854997E+03 -0.31652136395E+03  0.37640868235E+03  0.17200000000E+03 0. -1.
         -6    1    1    2    0  502  0.11630827836E+02 -0.10852854997E+03  0.74483629352E+02  0.21689982332E+03  0.17200000000E+03 0. -1.
</event>
<event>
 4    1  0.4538619E+000  0.2318402E+03  0.7818608E-02  0.1125351E+00
         21   -1    0    0  503  502  0.00000000000E+00  0.00000000000E+00  0.51647920906E+03  0.51647920906E+03  0.00000000000E+00 0. -1.
         21   -1    0    0  501  503 -0.00000000000E+00 -0.00000000000E+00 -0.11560602967E+03  0.11560602967E+03  0.00000000000E+00 0. -1.
          6    1    1    2  501    0 -0.11103410161E+03 -0.10879943615E+03  0.10060055608E+03  0.25272586119E+03  0.17200000000E+03 0. -1.
         -6    1    1    2    0  502  0.11103410161E+03  0.10879943615E+03  0.30027262330E+03  0.37935937755E+03  0.17200000000E+03 0. -1.
</event>
<event>
 4    1  0.4538619E+000  0.1968426E+03  0.7818608E-02  0.1152431E+00
         21   -1    0    0  503  502  0.00000000000E+00  0.00000000000E+00  0.11777148702E+03  0.11777148702E+03  0.00000000000E+00 0. -1.
         21   -1    0    0  501  503 -0.00000000000E+00 -0.00000000000E+00 -0.13571091680E+04  0.13571091680E+04  0.00000000000E+00 0. -1.
          6    1    1    2  501    0  0.84230133031E+02  0.45478555405E+02 -0.12615265435E+04  0.12767913824E+04  0.17200000000E+03 0. -1.
         -6    1    1    2    0  502 -0.84230133031E+02 -0.45478555405E+02  0.22188862476E+02  0.19808927263E+03  0.17200000000E+03 0. -1.
</event>
<event>
 4    1  0.4538619E+000  0.2866377E+03  0.7818608E-02  0.1092118E+00
         21   -1    0    0  501  502  0.00000000000E+00  0.00000000000E+00  0.53137899936E+02  0.53137899936E+02  0.00000000000E+00 0. -1.
         21   -1    0    0  502  503 -0.00000000000E+00 -0.00000000000E+00 -0.28865308183E+04  0.28865308183E+04  0.00000000000E+00 0. -1.
          6    1    1    2  501    0  0.13020998016E+03 -0.18873938011E+03 -0.41511053292E+03  0.50445807266E+03  0.17200000000E+03 0. -1.
         -6    1    1    2    0  503 -0.13020998016E+03  0.18873938011E+03 -0.24182823855E+04  0.24352106456E+04  0.17200000000E+03 0. -1.
</event>
<event>
 4    1  0.4538619E+000  0.1816524E+03  0.7818608E-02  0.1166213E+00
         21   -1    0    0  503  502  0.00000000000E+00  0.00000000000E+00  0.76307793636E+03  0.76307793636E+03  0.00000000000E+00 0. -1.
         21   -1    0    0  501  503 -0.00000000000E+00 -0.00000000000E+00 -0.43360134123E+02  0.43360134123E+02  0.00000000000E+00 0.  1.
          6    1    1    2  501    0  0.26777905756E+02  0.51928234485E+02  0.33888024075E+03  0.38449631383E+03  0.17200000000E+03 0.  1.
         -6    1    1    2    0  502 -0.26777905756E+02 -0.51928234485E+02  0.38083756148E+03  0.42194175666E+03  0.17200000000E+03 0. -1.
</event>
<event>
 4    1  0.4538619E+000  0.1807777E+03  0.7818608E-02  0.1167052E+00
         21   -1    0    0  501  502  0.00000000000E+00  0.00000000000E+00  0.19020786071E+03  0.19020786071E+03  0.00000000000E+00 0.  1.
         21   -1    0    0  502  503 -0.00000000000E+00 -0.00000000000E+00 -0.18484545605E+03  0.18484545605E+03  0.00000000000E+00 0.  1.
          6    1    1    2  501    0 -0.28567975888E+02  0.47754087652E+02  0.52470592650E+02  0.18823853279E+03  0.17200000000E+03 0. -1.
         -6    1    1    2    0  503  0.28567975888E+02 -0.47754087652E+02 -0.47108187997E+02  0.18681478397E+03  0.17200000000E+03 0. -1.
</event>
<event>
 4    1  0.4538619E+000  0.2065736E+03  0.7818608E-02  0.1144308E+00
         21   -1    0    0  501  502  0.00000000000E+00  0.00000000000E+00  0.31299160485E+02  0.31299160485E+02  0.00000000000E+00 0.  1.
         21   -1    0    0  502  503 -0.00000000000E+00 -0.00000000000E+00 -0.15953081042E+04  0.15953081042E+04  0.00000000000E+00 0.  1.
          6    1    1    2  501    0 -0.11438668215E+03 -0.20868609374E+01 -0.47190105021E+03  0.51513422448E+03  0.17200000000E+03 0.  1.
         -6    1    1    2    0  503  0.11438668215E+03  0.20868609374E+01 -0.10921078935E+04  0.11114730402E+04  0.17200000000E+03 0.  1.
</event>
<event>
 4    1  0.4538619E+000  0.2352338E+03  0.7818608E-02  0.1123009E+00
         21   -1    0    0  501  502  0.00000000000E+00  0.00000000000E+00  0.58426825386E+03  0.58426825386E+03  0.00000000000E+00 0.  1.
         21   -1    0    0  502  503 -0.00000000000E+00 -0.00000000000E+00 -0.95063263283E+02  0.95063263283E+02  0.00000000000E+00 0. -1.
          6    1    1    2  501    0  0.82141877645E+02 -0.13785366194E+03  0.26536483169E+03  0.35461727831E+03  0.17200000000E+03 0. -1.
         -6    1    1    2    0  503 -0.82141877645E+02  0.13785366194E+03  0.22384015889E+03  0.32471423884E+03  0.17200000000E+03 0.  1.
</event>
<event>
 4    1  0.4538619E+000  0.2085102E+03  0.7818608E-02  0.1142751E+00
         21   -1    0    0  503  502  0.00000000000E+00  0.00000000000E+00  0.36024888824E+03  0.36024888824E+03  0.00000000000E+00 0.  1.
         21   -1    0    0  501  503 -0.00000000000E+00 -0.00000000000E+00 -0.13903557474E+03  0.13903557474E+03  0.00000000000E+00 0. -1.
          6    1    1    2  501    0 -0.41483944189E+02  0.11032494222E+03  0.19911503102E+02  0.20945877508E+03  0.17200000000E+03 0. -1.
         -6    1    1    2    0  502  0.41483944189E+02 -0.11032494222E+03  0.20130181039E+03  0.28982568791E+03  0.17200000000E+03 0.  1.
</event>
<event>
 4    1  0.4538619E+000  0.2276246E+03  0.7818608E-02  0.1128323E+00
         21   -1    0    0  501  502  0.00000000000E+00  0.00000000000E+00  0.14802069500E+03  0.14802069500E+03  0.00000000000E+00 0.  1.
         21   -1    0    0  502  503 -0.00000000000E+00 -0.00000000000E+00 -0.35562848040E+03  0.35562848040E+03  0.00000000000E+00 0. -1.
          6    1    1    2  501    0  0.14850013689E+03  0.13291559683E+02 -0.72231951274E+02  0.23881040807E+03  0.17200000000E+03 0.  1.
         -6    1    1    2    0  503 -0.14850013689E+03 -0.13291559683E+02 -0.13537583413E+03  0.26483876733E+03  0.17200000000E+03 0. -1.
</event>
<event>
 4    1  0.4538619E+000  0.2339915E+03  0.7818608E-02  0.1123861E+00
         21   -1    0    0  501  502  0.00000000000E+00  0.00000000000E+00  0.89897486129E+02  0.89897486129E+02  0.00000000000E+00 0.  1.
         21   -1    0    0  502  503 -0.00000000000E+00 -0.00000000000E+00 -0.16294813431E+04  0.16294813431E+04  0.00000000000E+00 0.  1.
          6    1    1    2  501    0  0.17029767371E+02  0.15772764076E+03 -0.89478759019E+02  0.25051640655E+03  0.17200000000E+03 0.  1.
         -6    1    1    2    0  503 -0.17029767371E+02 -0.15772764076E+03 -0.14501050980E+04  0.14688624227E+04  0.17200000000E+03 0.  1.
</event>
<event>
 4    1  0.4538619E+000  0.1724297E+03  0.7818608E-02  0.1175337E+00
         21   -1    0    0  501  502  0.00000000000E+00  0.00000000000E+00  0.16626517234E+03  0.16626517234E+03  0.00000000000E+00 0. -1.
         21   -1    0    0  502  503 -0.00000000000E+00 -0.00000000000E+00 -0.22611194249E+03  0.22611194249E+03  0.00000000000E+00 0. -1.
          6    1    1    2  501    0  0.12099665060E+02  0.12642684029E+01  0.59797332107E+02  0.18250403063E+03  0.17200000000E+03 0. -1.
         -6    1    1    2    0  503 -0.12099665060E+02 -0.12642684029E+01 -0.11964410226E+03  0.20987308421E+03  0.17200000000E+03 0. -1.
</event>
<event>
 4    1  0.4538619E+000  0.1810676E+03  0.7818608E-02  0.1166774E+00
         21   -1    0    0  501  502  0.00000000000E+00  0.00000000000E+00  0.30306273111E+03  0.30306273111E+03  0.00000000000E+00 0.  1.
         21   -1    0    0  502  503 -0.00000000000E+00 -0.00000000000E+00 -0.14249326775E+03  0.14249326775E+03  0.00000000000E+00 0.  1.
          6    1    1    2  501    0  0.50535820282E+02 -0.25448119692E+02  0.18960559197E+03  0.26217504922E+03  0.17200000000E+03 0.  1.
         -6    1    1    2    0  503 -0.50535820282E+02  0.25448119692E+02 -0.29036128600E+02  0.18338094964E+03  0.17200000000E+03 0.  1.
</event>
<event>
 4    1  0.4538619E+000  0.1809858E+03  0.7818608E-02  0.1166852E+00
         21   -1    0    0  501  502  0.00000000000E+00  0.00000000000E+00  0.21705642939E+03  0.21705642939E+03  0.00000000000E+00 0.  1.
         21   -1    0    0  502  503 -0.00000000000E+00 -0.00000000000E+00 -0.21108952030E+03  0.21108952030E+03  0.00000000000E+00 0.  1.
          6    1    1    2  501    0  0.33917352874E+02 -0.44960873356E+02  0.11728572140E+03  0.21566596255E+03  0.17200000000E+03 0.  1.
         -6    1    1    2    0  503 -0.33917352874E+02  0.44960873356E+02 -0.11131881231E+03  0.21247998713E+03  0.17200000000E+03 0.  1.
</event>
<event>
 4    1  0.4538619E+000  0.2198509E+03  0.7818608E-02  0.1133994E+00
         21   -1    0    0  503  502  0.00000000000E+00  0.00000000000E+00  0.97346409067E+02  0.97346409067E+02  0.00000000000E+00 0.  1.
         21   -1    0    0  501  503 -0.00000000000E+00 -0.00000000000E+00 -0.49785562520E+03  0.49785562520E+03  0.00000000000E+00 0. -1.
          6    1    1    2  501    0 -0.11483420525E+03  0.74588948670E+02 -0.21567091081E+03  0.30797458942E+03  0.17200000000E+03 0.  1.
         -6    1    1    2    0  502  0.11483420525E+03 -0.74588948670E+02 -0.18483830533E+03  0.28722744485E+03  0.17200000000E+03 0.  1.
</event>
<event>
 4    1  0.4538619E+000  0.2208236E+03  0.7818608E-02  0.1133271E+00
         21   -1    0    0  501  502  0.00000000000E+00  0.00000000000E+00  0.16367972598E+03  0.16367972598E+03  0.00000000000E+00 0. -1.
         21   -1    0    0  502  503 -0.00000000000E+00 -0.00000000000E+00 -0.30133609005E+03  0.30133609005E+03  0.00000000000E+00 0.  1.
          6    1    1    2  501    0 -0.48814343382E+02  0.12960015862E+03 -0.93593329467E+02  0.23983901383E+03  0.17200000000E+03 0. -1.
         -6    1    1    2    0  503  0.48814343382E+02 -0.12960015862E+03 -0.44063034603E+02  0.22517680221E+03  0.17200000000E+03 0. -1.
</event>
<event>
 4    1  0.4538619E+000  0.2343108E+03  0.7818608E-02  0.1123642E+00
         21   -1    0    0  503  502  0.00000000000E+00  0.00000000000E+00  0.14180402686E+03  0.14180402686E+03  0.00000000000E+00 0. -1.
         21   -1    0    0  501  503 -0.00000000000E+00 -0.00000000000E+00 -0.66128226632E+03  0.66128226632E+03  0.00000000000E+00 0.  1.
          6    1    1    2  501    0 -0.58902322144E+02  0.14781091681E+03 -0.51826677409E+03  0.56877236203E+03  0.17200000000E+03 0.  1.
         -6    1    1    2    0  502  0.58902322144E+02 -0.14781091681E+03 -0.12114653708E+01  0.23431393115E+03  0.17200000000E+03 0. -1.
</event>
<event>
 4    1  0.4538619E+000  0.1969475E+03  0.7818608E-02  0.1152340E+00
         21   -1    0    0  501  502  0.00000000000E+00  0.00000000000E+00  0.20325337143E+04  0.20325337143E+04  0.00000000000E+00 0.  1.
         21   -1    0    0  502  503 -0.00000000000E+00 -0.00000000000E+00 -0.30600671312E+02  0.30600671312E+02  0.00000000000E+00 0.  1.
          6    1    1    2  501    0  0.66005315999E+02 -0.69624894048E+02  0.16338162437E+04  0.16456439001E+04  0.17200000000E+03 0.  1.
         -6    1    1    2    0  503 -0.66005315999E+02  0.69624894048E+02  0.36811679928E+03  0.41749048555E+03  0.17200000000E+03 0.  1.
</event>
<event>
 4    1  0.4538619E+000  0.2065676E+03  0.7818608E-02  0.1144313E+00
         21   -1    0    0  501  502  0.00000000000E+00  0.00000000000E+00  0.44155979201E+03  0.44155979201E+03  0.00000000000E+00 0. -1.
         21   -1    0    0  502  503 -0.00000000000E+00 -0.00000000000E+00 -0.13675825845E+03  0.13675825845E+03  0.00000000000E+00 0. -1.
          6    1    1    2  501    0  0.57183802564E+02 -0.99076750473E+02  0.30902441746E+03  0.37170725087E+03  0.17200000000E+03 0. -1.
         -6    1    1    2    0  503 -0.57183802564E+02  0.99076750473E+02 -0.42228839059E+01  0.20661079959E+03  0.17200000000E+03 0. -1.
</event>
<event>
 4    1  0.4538619E+000  0.2530638E+03  0.7818608E-02  0.1111384E+00
         21   -1    0    0  503  502  0.00000000000E+00  0.00000000000E+00  0.10897039861E+03  0.10897039861E+03  0.00000000000E+00 0. -1.
         21   -1    0    0  501  503 -0.00000000000E+00 -0.00000000000E+00 -0.10451348249E+04  0.10451348249E+04  0.00000000000E+00 0. -1.
          6    1    1    2  501    0  0.14513152480E+03  0.11573298465E+03 -0.84984761293E+03  0.88672557673E+03  0.17200000000E+03 0. -1.
         -6    1    1    2    0  502 -0.14513152480E+03 -0.11573298465E+03 -0.86316813317E+02  0.26737964674E+03  0.17200000000E+03 0. -1.
</event>
<event>
 4    1  0.4538619E+000  0.1728237E+03  0.7818608E-02  0.1174935E+00
         21   -1    0    0  501  502  0.00000000000E+00  0.00000000000E+00  0.52863139870E+02  0.52863139870E+02  0.00000000000E+00 0.  1.
         21   -1    0    0  502  503 -0.00000000000E+00 -0.00000000000E+00 -0.13579217438E+04  0.13579217438E+04  0.00000000000E+00 0.  1.
          6    1    1    2  501    0 -0.15298683171E+02 -0.70697034512E+01 -0.11350698300E+03  0.20676524273E+03  0.17200000000E+03 0.  1.
         -6    1    1    2    0  503  0.15298683171E+02  0.70697034512E+01 -0.11915516209E+04  0.12040196409E+04  0.17200000000E+03 0.  1.
</event>
<event>
 4    1  0.4538619E+000  0.4082306E+03  0.7818608E-02  0.1040966E+00
         21   -1    0    0  503  502  0.00000000000E+00  0.00000000000E+00  0.26260988086E+03  0.26260988086E+03  0.00000000000E+00 0.  1.
         21   -1    0    0  501  503 -0.00000000000E+00 -0.00000000000E+00 -0.63857205978E+03  0.63857205978E+03  0.00000000000E+00 0. -1.
          6    1    1    2  501    0  0.36797216395E+03 -0.40800981405E+02 -0.15244376194E+03  0.43576522817E+03  0.17200000000E+03 0.  1.
         -6    1    1    2    0  502 -0.36797216395E+03  0.40800981405E+02 -0.22351841698E+03  0.46541671248E+03  0.17200000000E+03 0. -1.
</event>
<event>
 4    1  0.4538619E+000  0.1782178E+03  0.7818608E-02  0.1169539E+00
         21   -1    0    0  503  502  0.00000000000E+00  0.00000000000E+00  0.22928933843E+03  0.22928933843E+03  0.00000000000E+00 0. -1.
         21   -1    0    0  501  503 -0.00000000000E+00 -0.00000000000E+00 -0.47051210492E+03  0.47051210492E+03  0.00000000000E+00 0. -1.
          6    1    1    2  501    0  0.14131280759E+02  0.44473674213E+02 -0.41452658960E+03  0.45121380107E+03  0.17200000000E+03 0. -1.
         -6    1    1    2    0  502 -0.14131280759E+02 -0.44473674213E+02  0.17330382311E+03  0.24858764229E+03  0.17200000000E+03 0. -1.
</event>
<event>
 4    1  0.4538619E+000  0.1728854E+03  0.7818608E-02  0.1174872E+00
         21   -1    0    0  501  502  0.00000000000E+00  0.00000000000E+00  0.25818876660E+03  0.25818876660E+03  0.00000000000E+00 0. -1.
         21   -1    0    0  502  503 -0.00000000000E+00 -0.00000000000E+00 -0.14317028845E+03  0.14317028845E+03  0.00000000000E+00 0. -1.
          6    1    1    2  501    0 -0.16680407616E+02  0.52065947083E+01  0.14530833878E+03  0.22584033729E+03  0.17200000000E+03 0. -1.
         -6    1    1    2    0  503  0.16680407616E+02 -0.52065947083E+01 -0.30289860626E+02  0.17551871776E+03  0.17200000000E+03 0. -1.
</event>
<event>
 4    1  0.4538619E+000  0.2452855E+03  0.7818608E-02  0.1116321E+00
         21   -1    0    0  501  502  0.00000000000E+00  0.00000000000E+00  0.23562360264E+03  0.23562360264E+03  0.00000000000E+00 0.  1.
         21   -1    0    0  502  503 -0.00000000000E+00 -0.00000000000E+00 -0.32616666431E+03  0.32616666431E+03  0.00000000000E+00 0. -1.
          6    1    1    2  501    0  0.12094934785E+03  0.12630222503E+03  0.85620001948E+02  0.25979950256E+03  0.17200000000E+03 0.  1.
         -6    1    1    2    0  503 -0.12094934785E+03 -0.12630222503E+03 -0.17616306362E+03  0.30199076439E+03  0.17200000000E+03 0. -1.
</event>
<event>
 4    1  0.4538619E+000  0.2108274E+03  0.7818608E-02  0.1140912E+00
         21   -1    0    0  501  502  0.00000000000E+00  0.00000000000E+00  0.11740153431E+03  0.11740153431E+03  0.00000000000E+00 0.  1.
         21   -1    0    0  502  503 -0.00000000000E+00 -0.00000000000E+00 -0.57493398256E+03  0.57493398256E+03  0.00000000000E+00 0.  1.
          6    1    1    2  501    0  0.33410829449E+02  0.11725139321E+03 -0.26475570340E+02  0.21248324300E+03  0.17200000000E+03 0.  1.
         -6    1    1    2    0  503 -0.33410829449E+02 -0.11725139321E+03 -0.43105687791E+03  0.47985227386E+03  0.17200000000E+03 0.  1.
</event>
<event>
 4    1  0.4538619E+000  0.2905799E+03  0.7818608E-02  0.1090047E+00
         21   -1    0    0  501  502  0.00000000000E+00  0.00000000000E+00  0.32066194575E+03  0.32066194575E+03  0.00000000000E+00 0.  1.
         21   -1    0    0  502  503 -0.00000000000E+00 -0.00000000000E+00 -0.31276882396E+03  0.31276882396E+03  0.00000000000E+00 0.  1.
          6    1    1    2  501    0 -0.20321974199E+03 -0.11642345977E+03  0.12987843378E+03  0.31828461019E+03  0.17200000000E+03 0.  1.
         -6    1    1    2    0  503  0.20321974199E+03  0.11642345977E+03 -0.12198531199E+03  0.31514615952E+03  0.17200000000E+03 0.  1.
</event>
<event>
 4    1  0.4538619E+000  0.2229436E+03  0.7818608E-02  0.1131707E+00
         21   -1    0    0  503  502  0.00000000000E+00  0.00000000000E+00  0.98352972479E+02  0.98352972479E+02  0.00000000000E+00 0. -1.
         21   -1    0    0  501  503 -0.00000000000E+00 -0.00000000000E+00 -0.54379291102E+03  0.54379291102E+03  0.00000000000E+00 0.  1.
          6    1    1    2  501    0  0.30442393660E+02 -0.13853912465E+03 -0.30807493608E+03  0.38028146764E+03  0.17200000000E+03 0.  1.
         -6    1    1    2    0  502 -0.30442393660E+02  0.13853912465E+03 -0.13736500246E+03  0.26186441586E+03  0.17200000000E+03 0. -1.
</event>
<event>
 4    1  0.4538619E+000  0.1759971E+03  0.7818608E-02  0.1171734E+00
         21   -1    0    0  501  502  0.00000000000E+00  0.00000000000E+00  0.12821452201E+03  0.12821452201E+03  0.00000000000E+00 0. -1.
         21   -1    0    0  502  503 -0.00000000000E+00 -0.00000000000E+00 -0.32071632981E+03  0.32071632981E+03  0.00000000000E+00 0. -1.
          6    1    1    2  501    0  0.21098473422E+02 -0.30754638962E+02  0.15244505351E+02  0.17665613021E+03  0.17200000000E+03 0. -1.
         -6    1    1    2    0  503 -0.21098473422E+02  0.30754638962E+02 -0.20774631316E+03  0.27227472161E+03  0.17200000000E+03 0. -1.
</event>
<event>
 4    1  0.4538619E+000  0.1848147E+03  0.7818608E-02  0.1163223E+00
         21   -1    0    0  503  502  0.00000000000E+00  0.00000000000E+00  0.76574913979E+03  0.76574913979E+03  0.00000000000E+00 0. -1.
         21   -1    0    0  501  503 -0.00000000000E+00 -0.00000000000E+00 -0.48784231131E+02  0.48784231131E+02  0.00000000000E+00 0. -1.
          6    1    1    2  501    0 -0.59136660113E+02  0.32792417468E+02  0.23928400657E+03  0.30234636266E+03  0.17200000000E+03 0.  1.
         -6    1    1    2    0  502  0.59136660113E+02 -0.32792417468E+02  0.47768090209E+03  0.51218700827E+03  0.17200000000E+03 0.  1.
</event>
<event>
 4    1  0.4538619E+000  0.1723859E+03  0.7818608E-02  0.1175382E+00
         21   -1    0    0  501  502  0.00000000000E+00  0.00000000000E+00  0.86970115223E+02  0.86970115223E+02  0.00000000000E+00 0.  1.
         21   -1    0    0  502  503 -0.00000000000E+00 -0.00000000000E+00 -0.34499576019E+03  0.34499576019E+03  0.00000000000E+00 0.  1.
          6    1    1    2  501    0  0.91288406926E+01  0.70410644902E+01 -0.15015148439E+03  0.22860966862E+03  0.17200000000E+03 0. -1.
         -6    1    1    2    0  503 -0.91288406926E+01 -0.70410644902E+01 -0.10787416058E+03  0.20335620680E+03  0.17200000000E+03 0. -1.
</event>
<event>
 4    1  0.4538619E+000  0.1801707E+03  0.7818608E-02  0.1167638E+00
         21   -1    0    0  503  502  0.00000000000E+00  0.00000000000E+00  0.50379004163E+02  0.50379004163E+02  0.00000000000E+00 0. -1.
         21   -1    0    0  501  503 -0.00000000000E+00 -0.00000000000E+00 -0.10820749735E+04  0.10820749735E+04  0.00000000000E+00 0. -1.
          6    1    1    2  501    0 -0.41138154662E+02 -0.34425754088E+02 -0.87598256694E+03  0.89431925949E+03  0.17200000000E+03 0. -1.
         -6    1    1    2    0  502  0.41138154662E+02  0.34425754088E+02 -0.15571340240E+03  0.23813471817E+03  0.17200000000E+03 0. -1.
</event>
<event>
 4    1  0.4538619E+000  0.1798680E+03  0.7818608E-02  0.1167931E+00
         21   -1    0    0  503  502  0.00000000000E+00  0.00000000000E+00  0.62651111635E+02  0.62651111635E+02  0.00000000000E+00 0.  1.
         21   -1    0    0  501  503 -0.00000000000E+00 -0.00000000000E+00 -0.68807725193E+03  0.68807725193E+03  0.00000000000E+00 0.  1.
          6    1    1    2  501    0 -0.43046294762E+02  0.30257363359E+02 -0.50021319345E+03  0.53156912103E+03  0.17200000000E+03 0.  1.
         -6    1    1    2    0  502  0.43046294762E+02 -0.30257363359E+02 -0.12521294684E+03  0.21915924253E+03  0.17200000000E+03 0.  1.
</event>
<event>
 4    1  0.4538619E+000  0.2225190E+03  0.7818608E-02  0.1132019E+00
         21   -1    0    0  501  502  0.00000000000E+00  0.00000000000E+00  0.27106604299E+03  0.27106604299E+03  0.00000000000E+00 0. -1.
         21   -1    0    0  502  503 -0.00000000000E+00 -0.00000000000E+00 -0.18742685886E+03  0.18742685886E+03  0.00000000000E+00 0. -1.
          6    1    1    2  501    0  0.13609471215E+03  0.37535995805E+02  0.52853213215E+01  0.22258179683E+03  0.17200000000E+03 0. -1.
         -6    1    1    2    0  503 -0.13609471215E+03 -0.37535995805E+02  0.78353862816E+02  0.23591110503E+03  0.17200000000E+03 0. -1.
</event>
<event>
 4    1  0.4538619E+000  0.1851485E+03  0.7818608E-02  0.1162911E+00
         21   -1    0    0  503  502  0.00000000000E+00  0.00000000000E+00  0.25074851249E+03  0.25074851249E+03  0.00000000000E+00 0. -1.
         21   -1    0    0  501  503 -0.00000000000E+00 -0.00000000000E+00 -0.15018044513E+03  0.15018044513E+03  0.00000000000E+00 0. -1.
          6    1    1    2  501    0  0.91434513321E+01 -0.67914342814E+02 -0.97521743582E+01  0.18540513900E+03  0.17200000000E+03 0. -1.
         -6    1    1    2    0  502 -0.91434513321E+01  0.67914342814E+02  0.11032024171E+03  0.21552381862E+03  0.17200000000E+03 0. -1.
</event>
<event>
 4    1  0.4538619E+000  0.1821783E+03  0.7818608E-02  0.1165711E+00
         21   -1    0    0  501  502  0.00000000000E+00  0.00000000000E+00  0.35967255126E+03  0.35967255126E+03  0.00000000000E+00 0.  1.
         21   -1    0    0  502  503 -0.00000000000E+00 -0.00000000000E+00 -0.94637773271E+02  0.94637773271E+02  0.00000000000E+00 0. -1.
          6    1    1    2  501    0 -0.11524651999E+02 -0.58924610795E+02  0.16840668296E+03  0.24809219703E+03  0.17200000000E+03 0.  1.
         -6    1    1    2    0  503  0.11524651999E+02  0.58924610795E+02  0.96628095025E+02  0.20621812750E+03  0.17200000000E+03 0. -1.
</event>
<event>
 4    1  0.4538619E+000  0.2135158E+03  0.7818608E-02  0.1138812E+00
         21   -1    0    0  501  502  0.00000000000E+00  0.00000000000E+00  0.12761395085E+04  0.12761395085E+04  0.00000000000E+00 0. -1.
         21   -1    0    0  502  503 -0.00000000000E+00 -0.00000000000E+00 -0.37368398636E+02  0.37368398636E+02  0.00000000000E+00 0.  1.
          6    1    1    2  501    0 -0.54523427526E+02 -0.11415855307E+03  0.75714971533E+03  0.78667952231E+03  0.17200000000E+03 0. -1.
         -6    1    1    2    0  503  0.54523427526E+02  0.11415855307E+03  0.48162139450E+03  0.52682838480E+03  0.17200000000E+03 0.  1.
</event>
<event>
 4    1  0.4538619E+000  0.1752968E+03  0.7818608E-02  0.1172434E+00
         21   -1    0    0  503  502  0.00000000000E+00  0.00000000000E+00  0.13197971998E+03  0.13197971998E+03  0.00000000000E+00 0.  1.
         21   -1    0    0  501  503 -0.00000000000E+00 -0.00000000000E+00 -0.25556110985E+03  0.25556110985E+03  0.00000000000E+00 0.  1.
          6    1    1    2  501    0 -0.92582050376E+01  0.32545949540E+02 -0.11957928300E+03  0.21219839329E+03  0.17200000000E+03 0.  1.
         -6    1    1    2    0  502  0.92582050376E+01 -0.32545949540E+02 -0.40021068648E+01  0.17534243654E+03  0.17200000000E+03 0.  1.
</event>
<event>
 4    1  0.4538619E+000  0.1761387E+03  0.7818608E-02  0.1171593E+00
         21   -1    0    0  503  502  0.00000000000E+00  0.00000000000E+00  0.18822119836E+03  0.18822119836E+03  0.00000000000E+00 0.  1.
         21   -1    0    0  501  503 -0.00000000000E+00 -0.00000000000E+00 -0.16793939498E+03  0.16793939498E+03  0.00000000000E+00 0. -1.
          6    1    1    2  501    0 -0.18363677218E+02 -0.33220928041E+02  0.34364905552E+02  0.17945974879E+03  0.17200000000E+03 0.  1.
         -6    1    1    2    0  502  0.18363677218E+02  0.33220928041E+02 -0.14083102169E+02  0.17670084456E+03  0.17200000000E+03 0. -1.
</event>
<event>
 4    1  0.4538619E+000  0.2031949E+03  0.7818608E-02  0.1147071E+00
         21   -1    0    0  501  502  0.00000000000E+00  0.00000000000E+00  0.23588411598E+03  0.23588411598E+03  0.00000000000E+00 0. -1.
         21   -1    0    0  502  503 -0.00000000000E+00 -0.00000000000E+00 -0.27171288029E+03  0.27171288029E+03  0.00000000000E+00 0. -1.
          6    1    1    2  501    0 -0.15236365953E+02  0.10710749879E+03  0.13347510398E+03  0.24311266221E+03  0.17200000000E+03 0. -1.
         -6    1    1    2    0  503  0.15236365953E+02 -0.10710749879E+03 -0.16930386828E+03  0.26448433406E+03  0.17200000000E+03 0. -1.
</event>
<event>
 4    1  0.4538619E+000  0.1882787E+03  0.7818608E-02  0.1160023E+00
         21   -1    0    0  501  502  0.00000000000E+00  0.00000000000E+00  0.14237598352E+03  0.14237598352E+03  0.00000000000E+00 0.  1.
         21   -1    0    0  502  503 -0.00000000000E+00 -0.00000000000E+00 -0.56742573345E+03  0.56742573345E+03  0.00000000000E+00 0.  1.
          6    1    1    2  501    0  0.53265147791E+02 -0.55024495999E+02  0.53345397326E+02  0.19569006757E+03  0.17200000000E+03 0.  1.
         -6    1    1    2    0  503 -0.53265147791E+02  0.55024495999E+02 -0.47839514726E+03  0.51411164940E+03  0.17200000000E+03 0.  1.
</event>
<event>
 4    1  0.4538619E+000  0.1930999E+03  0.7818608E-02  0.1155695E+00
         21   -1    0    0  501  502  0.00000000000E+00  0.00000000000E+00  0.58461707233E+02  0.58461707233E+02  0.00000000000E+00 0. -1.
         21   -1    0    0  502  503 -0.00000000000E+00 -0.00000000000E+00 -0.12259197766E+04  0.12259197766E+04  0.00000000000E+00 0. -1.
          6    1    1    2  501    0 -0.79160491587E+02  0.37910125398E+02 -0.13893230493E+03  0.23788599452E+03  0.17200000000E+03 0. -1.
         -6    1    1    2    0  503  0.79160491587E+02 -0.37910125398E+02 -0.10285257644E+04  0.10464954893E+04  0.17200000000E+03 0. -1.
</event>
<event>
 4    1  0.4538619E+000  0.2156343E+03  0.7818608E-02  0.1137180E+00
         21   -1    0    0  503  502  0.00000000000E+00  0.00000000000E+00  0.99436461469E+02  0.99436461469E+02  0.00000000000E+00 0. -1.
         21   -1    0    0  501  503 -0.00000000000E+00 -0.00000000000E+00 -0.70039841331E+03  0.70039841331E+03  0.00000000000E+00 0. -1.
          6    1    1    2  501    0 -0.10276008716E+03  0.79715335951E+02 -0.53103462667E+03  0.57314565777E+03  0.17200000000E+03 0. -1.
         -6    1    1    2    0  502  0.10276008716E+03 -0.79715335951E+02 -0.69927325165E+02  0.22668921700E+03  0.17200000000E+03 0. -1.
</event>
<event>
 4    1  0.4538619E+000  0.4218452E+03  0.7818608E-02  0.1036467E+00
         21   -1    0    0  501  502  0.00000000000E+00  0.00000000000E+00  0.48411994579E+03  0.48411994579E+03  0.00000000000E+00 0. -1.
         21   -1    0    0  502  503 -0.00000000000E+00 -0.00000000000E+00 -0.41416264942E+03  0.41416264942E+03  0.00000000000E+00 0. -1.
          6    1    1    2  501    0  0.87431830540E+02 -0.37513337660E+03  0.18560611464E+03  0.46087200503E+03  0.17200000000E+03 0. -1.
         -6    1    1    2    0  503 -0.87431830540E+02  0.37513337660E+03 -0.11564881828E+03  0.43741059018E+03  0.17200000000E+03 0. -1.
</event>
<event>
 4    1  0.4538619E+000  0.1746299E+03  0.7818608E-02  0.1173104E+00
         21   -1    0    0  501  502  0.00000000000E+00  0.00000000000E+00  0.61431683210E+03  0.61431683210E+03  0.00000000000E+00 0. -1.
         21   -1    0    0  502  503 -0.00000000000E+00 -0.00000000000E+00 -0.52946132523E+02  0.52946132523E+02  0.00000000000E+00 0. -1.
          6    1    1    2  501    0  0.28364998377E+02 -0.10345496989E+02  0.36403661453E+03  0.40375519707E+03  0.17200000000E+03 0. -1.
         -6    1    1    2    0  503 -0.28364998377E+02  0.10345496989E+02  0.19733408505E+03  0.26350776756E+03  0.17200000000E+03 0. -1.
</event>
<event>
 4    1  0.4538619E+000  0.2594586E+03  0.7818608E-02  0.1107469E+00
         21   -1    0    0  501  502  0.00000000000E+00  0.00000000000E+00  0.31672378061E+03  0.31672378061E+03  0.00000000000E+00 0. -1.
         21   -1    0    0  502  503 -0.00000000000E+00 -0.00000000000E+00 -0.26798421074E+03  0.26798421074E+03  0.00000000000E+00 0.  1.
          6    1    1    2  501    0 -0.14527369942E+02 -0.19371045324E+03  0.15733986918E+03  0.30343799796E+03  0.17200000000E+03 0. -1.
         -6    1    1    2    0  503  0.14527369942E+02  0.19371045324E+03 -0.10860029930E+03  0.28126999339E+03  0.17200000000E+03 0.  1.
</event>
<event>
 4    1  0.4538619E+000  0.1909655E+03  0.7818608E-02  0.1157593E+00
         21   -1    0    0  503  502  0.00000000000E+00  0.00000000000E+00  0.45437363317E+03  0.45437363317E+03  0.00000000000E+00 0. -1.
         21   -1    0    0  501  503 -0.00000000000E+00 -0.00000000000E+00 -0.10779093099E+03  0.10779093099E+03  0.00000000000E+00 0.  1.
          6    1    1    2  501    0  0.81959356780E+02  0.12902575322E+02  0.31236344831E+02  0.19350328641E+03  0.17200000000E+03 0.  1.
         -6    1    1    2    0  502 -0.81959356780E+02 -0.12902575322E+02  0.31534635735E+03  0.36866127775E+03  0.17200000000E+03 0. -1.
</event>
<event>
 4    1  0.4538619E+000  0.1945062E+03  0.7818608E-02  0.1154459E+00
         21   -1    0    0  501  502  0.00000000000E+00  0.00000000000E+00  0.44759770152E+03  0.44759770152E+03  0.00000000000E+00 0.  1.
         21   -1    0    0  502  503 -0.00000000000E+00 -0.00000000000E+00 -0.91855214975E+02  0.91855214975E+02  0.00000000000E+00 0.  1.
          6    1    1    2  501    0 -0.56009233510E+02  0.71495689039E+02  0.25407299132E+03  0.31997773783E+03  0.17200000000E+03 0.  1.
         -6    1    1    2    0  503  0.56009233510E+02 -0.71495689039E+02  0.10166949522E+03  0.21947517866E+03  0.17200000000E+03 0.  1.
</event>
<event>
 4    1  0.4538619E+000  0.1798677E+03  0.7818608E-02  0.1167931E+00
         21   -1    0    0  501  502  0.00000000000E+00  0.00000000000E+00  0.36083929037E+03  0.36083929037E+03  0.00000000000E+00 0. -1.
         21   -1    0    0  502  503 -0.00000000000E+00 -0.00000000000E+00 -0.14670634628E+03  0.14670634628E+03  0.00000000000E+00 0. -1.
          6    1    1    2  501    0 -0.48746831012E+02 -0.19802444779E+02  0.26531490792E+03  0.32053765881E+03  0.17200000000E+03 0. -1.
         -6    1    1    2    0  503  0.48746831012E+02  0.19802444779E+02 -0.51181963828E+02  0.18700797784E+03  0.17200000000E+03 0. -1.
</event>
<event>
 4    1  0.4538619E+000  0.2956043E+03  0.7818608E-02  0.1087459E+00
         21   -1    0    0  503  502  0.00000000000E+00  0.00000000000E+00  0.60939756295E+02  0.60939756295E+02  0.00000000000E+00 0. -1.
         21   -1    0    0  501  503 -0.00000000000E+00 -0.00000000000E+00 -0.16545395299E+04  0.16545395299E+04  0.00000000000E+00 0.  1.
          6    1    1    2  501    0  0.23616942264E+03 -0.44965937614E+02 -0.11100216034E+04  0.11487079228E+04  0.17200000000E+03 0.  1.
         -6    1    1    2    0  502 -0.23616942264E+03  0.44965937614E+02 -0.48357817018E+03  0.56677136343E+03  0.17200000000E+03 0. -1.
</event>
<event>
 4    1  0.4538619E+000  0.1740229E+03  0.7818608E-02  0.1173716E+00
         21   -1    0    0  501  502  0.00000000000E+00  0.00000000000E+00  0.21159084070E+02  0.21159084070E+02  0.00000000000E+00 0. -1.
         21   -1    0    0  502  503 -0.00000000000E+00 -0.00000000000E+00 -0.15106540350E+04  0.15106540350E+04  0.00000000000E+00 0. -1.
          6    1    1    2  501    0  0.23687430368E+02 -0.11785224925E+02 -0.56915394222E+03  0.59516400751E+03  0.17200000000E+03 0. -1.
         -6    1    1    2    0  503 -0.23687430368E+02  0.11785224925E+02 -0.92034100867E+03  0.93664911153E+03  0.17200000000E+03 0. -1.
</event>
<event>
 4    1  0.4538619E+000  0.1778092E+03  0.7818608E-02  0.1169940E+00
         21   -1    0    0  503  502  0.00000000000E+00  0.00000000000E+00  0.63754416123E+03  0.63754416123E+03  0.00000000000E+00 0.  1.
         21   -1    0    0  501  503 -0.00000000000E+00 -0.00000000000E+00 -0.54723595638E+02  0.54723595638E+02  0.00000000000E+00 0.  1.
          6    1    1    2  501    0  0.36401840303E+02 -0.26589578338E+02  0.18539981890E+03  0.25688361664E+03  0.17200000000E+03 0. -1.
         -6    1    1    2    0  502 -0.36401840303E+02  0.26589578338E+02  0.39742074670E+03  0.43538414022E+03  0.17200000000E+03 0. -1.
</event>
<event>
 4    1  0.4538619E+000  0.1813458E+03  0.7818608E-02  0.1166507E+00
         21   -1    0    0  503  502  0.00000000000E+00  0.00000000000E+00  0.79924321673E+02  0.79924321673E+02  0.00000000000E+00 0.  1.
         21   -1    0    0  501  503 -0.00000000000E+00 -0.00000000000E+00 -0.41431842957E+03  0.41431842957E+03  0.00000000000E+00 0.  1.
          6    1    1    2  501    0  0.57374582507E+02 -0.32338947566E+01 -0.18769443341E+03  0.26098946555E+03  0.17200000000E+03 0.  1.
         -6    1    1    2    0  502 -0.57374582507E+02  0.32338947566E+01 -0.14669967448E+03  0.23325328569E+03  0.17200000000E+03 0.  1.
</event>
<event>
 4    1  0.4538619E+000  0.1783026E+03  0.7818608E-02  0.1169456E+00
         21   -1    0    0  503  502  0.00000000000E+00  0.00000000000E+00  0.77284634291E+02  0.77284634291E+02  0.00000000000E+00 0. -1.
         21   -1    0    0  501  503 -0.00000000000E+00 -0.00000000000E+00 -0.41273962896E+03  0.41273962896E+03  0.00000000000E+00 0. -1.
          6    1    1    2  501    0 -0.11576828026E+01  0.46973160042E+02 -0.18189223688E+03  0.25470886092E+03  0.17200000000E+03 0. -1.
         -6    1    1    2    0  502  0.11576828026E+01 -0.46973160042E+02 -0.15356275778E+03  0.23531540233E+03  0.17200000000E+03 0. -1.
</event>
<event>
 4    1  0.4538619E+000  0.2555026E+03  0.7818608E-02  0.1109876E+00
         21   -1    0    0  503  502  0.00000000000E+00  0.00000000000E+00  0.25638983679E+04  0.25638983679E+04  0.00000000000E+00 0.  1.
         21   -1    0    0  501  503 -0.00000000000E+00 -0.00000000000E+00 -0.35304658634E+02  0.35304658634E+02  0.00000000000E+00 0. -1.
          6    1    1    2  501    0  0.11208861622E+03  0.15209774940E+03  0.57809193467E+03  0.63203786927E+03  0.17200000000E+03 0. -1.
         -6    1    1    2    0  502 -0.11208861622E+03 -0.15209774940E+03  0.19505017746E+04  0.19671651573E+04  0.17200000000E+03 0. -1.
</event>
<event>
 4    1  0.4538619E+000  0.2057572E+03  0.7818608E-02  0.1144971E+00
         21   -1    0    0  503  502  0.00000000000E+00  0.00000000000E+00  0.67176075795E+03  0.67176075795E+03  0.00000000000E+00 0. -1.
         21   -1    0    0  501  503 -0.00000000000E+00 -0.00000000000E+00 -0.82070143203E+02  0.82070143203E+02  0.00000000000E+00 0.  1.
          6    1    1    2  501    0 -0.82656889219E+02  0.76940655662E+02  0.11326353567E+03  0.23487156989E+03  0.17200000000E+03 0.  1.
         -6    1    1    2    0  502  0.82656889219E+02 -0.76940655662E+02  0.47642707908E+03  0.51895933126E+03  0.17200000000E+03 0. -1.
</event>
<event>
 4    1  0.4538619E+000  0.2415535E+03  0.7818608E-02  0.1118762E+00
         21   -1    0    0  501  502  0.00000000000E+00  0.00000000000E+00  0.60816783118E+03  0.60816783118E+03  0.00000000000E+00 0. -1.
         21   -1    0    0  502  503 -0.00000000000E+00 -0.00000000000E+00 -0.47766086329E+03  0.47766086329E+03  0.00000000000E+00 0. -1.
          6    1    1    2  501    0  0.53362134193E+02 -0.16098621238E+03  0.55059116523E+03  0.60124762717E+03  0.17200000000E+03 0. -1.
         -6    1    1    2    0  503 -0.53362134193E+02  0.16098621238E+03 -0.42008419734E+03  0.48458106731E+03  0.17200000000E+03 0. -1.
</event>
<event>
 4    1  0.4538619E+000  0.2968918E+03  0.7818608E-02  0.1086805E+00
         21   -1    0    0  501  502  0.00000000000E+00  0.00000000000E+00  0.19324646447E+03  0.19324646447E+03  0.00000000000E+00 0.  1.
         21   -1    0    0  502  503 -0.00000000000E+00 -0.00000000000E+00 -0.94188203789E+03  0.94188203789E+03  0.00000000000E+00 0. -1.
          6    1    1    2  501    0  0.24171210922E+03 -0.11661063080E+02  0.33274454941E+02  0.29875058742E+03  0.17200000000E+03 0.  1.
         -6    1    1    2    0  503 -0.24171210922E+03  0.11661063080E+02 -0.78191002837E+03  0.83637791494E+03  0.17200000000E+03 0. -1.
</event>
<event>
 4    1  0.4538619E+000  0.3192330E+03  0.7818608E-02  0.1076003E+00
         21   -1    0    0  503  502  0.00000000000E+00  0.00000000000E+00  0.23529745621E+03  0.23529745621E+03  0.00000000000E+00 0. -1.
         21   -1    0    0  501  503 -0.00000000000E+00 -0.00000000000E+00 -0.46528684306E+03  0.46528684306E+03  0.00000000000E+00 0. -1.
          6    1    1    2  501    0 -0.23010673976E+03 -0.13919977505E+03 -0.20711205935E+03  0.38053264536E+03  0.17200000000E+03 0. -1.
         -6    1    1    2    0  502  0.23010673976E+03  0.13919977505E+03 -0.22877327497E+02  0.32005165391E+03  0.17200000000E+03 0. -1.
</event>
<event>
 4    1  0.4538619E+000  0.1903472E+03  0.7818608E-02  0.1158149E+00
         21   -1    0    0  503  502  0.00000000000E+00  0.00000000000E+00  0.78527732298E+03  0.78527732298E+03  0.00000000000E+00 0.  1.
         21   -1    0    0  501  503 -0.00000000000E+00 -0.00000000000E+00 -0.58805925910E+02  0.58805925910E+02  0.00000000000E+00 0.  1.
          6    1    1    2  501    0 -0.79236018825E+02 -0.19227571583E+02  0.16736142862E+03  0.25345984688E+03  0.17200000000E+03 0.  1.
         -6    1    1    2    0  502  0.79236018825E+02  0.19227571583E+02  0.55910996845E+03  0.59062340202E+03  0.17200000000E+03 0.  1.
</event>
<event>
 4    1  0.4538619E+000  0.2706607E+03  0.7818608E-02  0.1100902E+00
         21   -1    0    0  503  502  0.00000000000E+00  0.00000000000E+00  0.10625567003E+04  0.10625567003E+04  0.00000000000E+00 0.  1.
         21   -1    0    0  501  503 -0.00000000000E+00 -0.00000000000E+00 -0.10338834237E+03  0.10338834237E+03  0.00000000000E+00 0. -1.
          6    1    1    2  501    0  0.19261187194E+03  0.81079463393E+02  0.14309628288E+03  0.30615969488E+03  0.17200000000E+03 0. -1.
         -6    1    1    2    0  502 -0.19261187194E+03 -0.81079463393E+02  0.81607207510E+03  0.85978534783E+03  0.17200000000E+03 0.  1.
</event>
<event>
 4    1  0.4538619E+000  0.1835859E+03  0.7818608E-02  0.1164377E+00
         21   -1    0    0  501  502  0.00000000000E+00  0.00000000000E+00  0.44081420513E+03  0.44081420513E+03  0.00000000000E+00 0. -1.
         21   -1    0    0  502  503 -0.00000000000E+00 -0.00000000000E+00 -0.85370732707E+02  0.85370732707E+02  0.00000000000E+00 0. -1.
          6    1    1    2  501    0 -0.42981234215E+02  0.47669572130E+02  0.26272962625E+03  0.32051619477E+03  0.17200000000E+03 0.  1.
         -6    1    1    2    0  503  0.42981234215E+02 -0.47669572130E+02  0.92713846174E+02  0.20566874307E+03  0.17200000000E+03 0.  1.
</event>
<event>
 4    1  0.4538619E+000  0.1735377E+03  0.7818608E-02  0.1174208E+00
         21   -1    0    0  501  502  0.00000000000E+00  0.00000000000E+00  0.53531165924E+02  0.53531165924E+02  0.00000000000E+00 0.  1.
         21   -1    0    0  502  503 -0.00000000000E+00 -0.00000000000E+00 -0.85617686822E+03  0.85617686822E+03  0.00000000000E+00 0.  1.
          6    1    1    2  501    0 -0.10896299666E+02 -0.20312667553E+02 -0.13496275075E+03  0.21984148357E+03  0.17200000000E+03 0.  1.
         -6    1    1    2    0  503  0.10896299666E+02  0.20312667553E+02 -0.66768295155E+03  0.68986655057E+03  0.17200000000E+03 0.  1.
</event>
<event>
 4    1  0.4538619E+000  0.2411514E+03  0.7818608E-02  0.1119028E+00
         21   -1    0    0  501  502  0.00000000000E+00  0.00000000000E+00  0.19729292194E+04  0.19729292194E+04  0.00000000000E+00 0. -1.
         21   -1    0    0  502  503 -0.00000000000E+00 -0.00000000000E+00 -0.75138565780E+02  0.75138565780E+02  0.00000000000E+00 0.  1.
          6    1    1    2  501    0 -0.16428060393E+03 -0.39773160662E+02  0.17471898199E+04  0.17637534657E+04  0.17200000000E+03 0. -1.
         -6    1    1    2    0  503  0.16428060393E+03  0.39773160662E+02  0.15060083377E+03  0.28431431949E+03  0.17200000000E+03 0.  1.
</event>
<event>
 4    1  0.4538619E+000  0.3270564E+03  0.7818608E-02  0.1072447E+00
         21   -1    0    0  501  502  0.00000000000E+00  0.00000000000E+00  0.66999025950E+03  0.66999025950E+03  0.00000000000E+00 0.  1.
         21   -1    0    0  502  503 -0.00000000000E+00 -0.00000000000E+00 -0.43798513855E+03  0.43798513855E+03  0.00000000000E+00 0. -1.
          6    1    1    2  501    0  0.24265819127E+03  0.13601074751E+03  0.55762603650E+03  0.64646169091E+03  0.17200000000E+03 0.  1.
         -6    1    1    2    0  503 -0.24265819127E+03 -0.13601074751E+03 -0.32562091555E+03  0.46151370713E+03  0.17200000000E+03 0. -1.
</event>
<event>
 4    1  0.4538619E+000  0.2122829E+03  0.7818608E-02  0.1139771E+00
         21   -1    0    0  501  502  0.00000000000E+00  0.00000000000E+00  0.78922148879E+03  0.78922148879E+03  0.00000000000E+00 0. -1.
         21   -1    0    0  502  503 -0.00000000000E+00 -0.00000000000E+00 -0.58527924503E+02  0.58527924503E+02  0.00000000000E+00 0. -1.
          6    1    1    2  501    0 -0.12040236565E+03 -0.31357460999E+02  0.29912359410E+03  0.36679550783E+03  0.17200000000E+03 0.  1.
         -6    1    1    2    0  503  0.12040236565E+03  0.31357460999E+02  0.43156997018E+03  0.48095390546E+03  0.17200000000E+03 0.  1.
</event>
<event>
 4    1  0.4538619E+000  0.2121667E+03  0.7818608E-02  0.1139862E+00
         21   -1    0    0  501  502  0.00000000000E+00  0.00000000000E+00  0.12421156358E+03  0.12421156358E+03  0.00000000000E+00 0.  1.
         21   -1    0    0  502  503 -0.00000000000E+00 -0.00000000000E+00 -0.46069038122E+03  0.46069038122E+03  0.00000000000E+00 0. -1.
          6    1    1    2  501    0  0.10319576326E+03  0.69147172341E+02 -0.30332107964E+03  0.37015993077E+03  0.17200000000E+03 0.  1.
         -6    1    1    2    0  503 -0.10319576326E+03 -0.69147172341E+02 -0.33157738006E+02  0.21474201402E+03  0.17200000000E+03 0. -1.
</event>
<event>
 4    1  0.4538619E+000  0.2241862E+03  0.7818608E-02  0.1130800E+00
         21   -1    0    0  501  502  0.00000000000E+00  0.00000000000E+00  0.40269062738E+03  0.40269062738E+03  0.00000000000E+00 0.  1.
         21   -1    0    0  502  503 -0.00000000000E+00 -0.00000000000E+00 -0.15834532514E+03  0.15834532514E+03  0.00000000000E+00 0. -1.
          6    1    1    2  501    0  0.14305344603E+03 -0.14531483822E+02  0.25126936867E+03  0.33674285156E+03  0.17200000000E+03 0.  1.
         -6    1    1    2    0  503 -0.14305344603E+03  0.14531483822E+02 -0.69240664371E+01  0.22429310096E+03  0.17200000000E+03 0. -1.
</event>
<event>
 4    1  0.4538619E+000  0.1739369E+03  0.7818608E-02  0.1173803E+00
         21   -1    0    0  501  502  0.00000000000E+00  0.00000000000E+00  0.91985768320E+03  0.91985768320E+03  0.00000000000E+00 0. -1.
         21   -1    0    0  502  503 -0.00000000000E+00 -0.00000000000E+00 -0.38127418288E+02  0.38127418288E+02  0.00000000000E+00 0. -1.
          6    1    1    2  501    0  0.10704494454E+02 -0.23568266750E+02  0.26333509849E+03  0.31559376340E+03  0.17200000000E+03 0. -1.
         -6    1    1    2    0  503 -0.10704494454E+02  0.23568266750E+02  0.61839516642E+03  0.64239133809E+03  0.17200000000E+03 0. -1.
</event>
<event>
 4    1  0.4538619E+000  0.2109039E+03  0.7818608E-02  0.1140852E+00
         21   -1    0    0  501  502  0.00000000000E+00  0.00000000000E+00  0.12062554474E+03  0.12062554474E+03  0.00000000000E+00 0.  1.
         21   -1    0    0  502  503 -0.00000000000E+00 -0.00000000000E+00 -0.50807272358E+03  0.50807272358E+03  0.00000000000E+00 0.  1.
          6    1    1    2  501    0 -0.13586589541E+02 -0.12129254103E+03 -0.29111090009E+02  0.21290357321E+03  0.17200000000E+03 0.  1.
         -6    1    1    2    0  503  0.13586589541E+02  0.12129254103E+03 -0.35833608883E+03  0.41579469511E+03  0.17200000000E+03 0.  1.
</event>
<event>
 4    1  0.4538619E+000  0.1947852E+03  0.7818608E-02  0.1154215E+00
         21   -1    0    0  501  502  0.00000000000E+00  0.00000000000E+00  0.11019508505E+03  0.11019508505E+03  0.00000000000E+00 0.  1.
         21   -1    0    0  502  503 -0.00000000000E+00 -0.00000000000E+00 -0.35040273893E+03  0.35040273893E+03  0.00000000000E+00 0.  1.
          6    1    1    2  501    0 -0.65575282876E+02  0.63695906156E+02 -0.15047133137E+03  0.24613595380E+03  0.17200000000E+03 0.  1.
         -6    1    1    2    0  503  0.65575282876E+02 -0.63695906156E+02 -0.89736322514E+02  0.21446187019E+03  0.17200000000E+03 0.  1.
</event>
<event>
 4    1  0.4538619E+000  0.2870604E+03  0.7818608E-02  0.1091894E+00
         21   -1    0    0  503  502  0.00000000000E+00  0.00000000000E+00  0.12294103895E+03  0.12294103895E+03  0.00000000000E+00 0.  1.
         21   -1    0    0  501  503 -0.00000000000E+00 -0.00000000000E+00 -0.70031776511E+03  0.70031776511E+03  0.00000000000E+00 0. -1.
          6    1    1    2  501    0 -0.20931111880E+03 -0.94913235840E+02 -0.20342424998E+03  0.35183105644E+03  0.17200000000E+03 0.  1.
         -6    1    1    2    0  502  0.20931111880E+03  0.94913235840E+02 -0.37395247617E+03  0.47142774762E+03  0.17200000000E+03 0. -1.
</event>
<event>
 4    1  0.4538619E+000  0.2024264E+03  0.7818608E-02  0.1147708E+00
         21   -1    0    0  501  502  0.00000000000E+00  0.00000000000E+00  0.89216236842E+03  0.89216236842E+03  0.00000000000E+00 0.  1.
         21   -1    0    0  502  503 -0.00000000000E+00 -0.00000000000E+00 -0.45958410871E+02  0.45958410871E+02  0.00000000000E+00 0. -1.
          6    1    1    2  501    0 -0.41333343147E+02  0.98407410310E+02  0.43489113817E+03  0.47969445038E+03  0.17200000000E+03 0.  1.
         -6    1    1    2    0  503  0.41333343147E+02 -0.98407410310E+02  0.41131281938E+03  0.45842632891E+03  0.17200000000E+03 0.  1.
</event>
<event>
 4    1  0.4538619E+000  0.1806450E+03  0.7818608E-02  0.1167180E+00
         21   -1    0    0  503  502  0.00000000000E+00  0.00000000000E+00  0.55505868662E+02  0.55505868662E+02  0.00000000000E+00 0. -1.
         21   -1    0    0  501  503 -0.00000000000E+00 -0.00000000000E+00 -0.89394250961E+03  0.89394250961E+03  0.00000000000E+00 0.  1.
          6    1    1    2  501    0  0.53161398457E+02 -0.14915271301E+02 -0.69697755264E+03  0.72000715863E+03  0.17200000000E+03 0.  1.
         -6    1    1    2    0  502 -0.53161398457E+02  0.14915271301E+02 -0.14145908832E+03  0.22944121964E+03  0.17200000000E+03 0. -1.
</event>
<event>
 4    1  0.4538619E+000  0.2009558E+03  0.7818608E-02  0.1148935E+00
         21   -1    0    0  503  502  0.00000000000E+00  0.00000000000E+00  0.43284725617E+03  0.43284725617E+03  0.00000000000E+00 0. -1.
         21   -1    0    0  501  503 -0.00000000000E+00 -0.00000000000E+00 -0.24359679326E+03  0.24359679326E+03  0.00000000000E+00 0. -1.
          6    1    1    2  501    0  0.42486627256E+02 -0.94837335059E+02 -0.17104670617E+03  0.26389431465E+03  0.17200000000E+03 0. -1.
         -6    1    1    2    0  502 -0.42486627256E+02  0.94837335059E+02  0.36029716908E+03  0.41254973478E+03  0.17200000000E+03 0. -1.
</event>
<event>
 4    1  0.4538619E+000  0.1771808E+03  0.7818608E-02  0.1170560E+00
         21   -1    0    0  501  502  0.00000000000E+00  0.00000000000E+00  0.65750264108E+02  0.65750264108E+02  0.00000000000E+00 0.  1.
         21   -1    0    0  502  503 -0.00000000000E+00 -0.00000000000E+00 -0.96319791479E+03  0.96319791479E+03  0.00000000000E+00 0.  1.
          6    1    1    2  501    0 -0.18370153546E+02 -0.38360915899E+02 -0.83375254006E+02  0.19581740319E+03  0.17200000000E+03 0.  1.
         -6    1    1    2    0  503  0.18370153546E+02  0.38360915899E+02 -0.81407239667E+03  0.83313077571E+03  0.17200000000E+03 0.  1.
</event>
<event>
 4    1  0.4538619E+000  0.2524116E+03  0.7818608E-02  0.1111790E+00
         21   -1    0    0  503  502  0.00000000000E+00  0.00000000000E+00  0.69860300618E+03  0.69860300618E+03  0.00000000000E+00 0.  1.
         21   -1    0    0  501  503 -0.00000000000E+00 -0.00000000000E+00 -0.13745300819E+03  0.13745300819E+03  0.00000000000E+00 0.  1.
          6    1    1    2  501    0  0.12942602534E+03  0.13181995372E+03  0.38078790164E+02  0.25526768400E+03  0.17200000000E+03 0.  1.
         -6    1    1    2    0  502 -0.12942602534E+03 -0.13181995372E+03  0.52307120782E+03  0.58078833037E+03  0.17200000000E+03 0.  1.
</event>
<event>
 4    1  0.4538619E+000  0.1859352E+03  0.7818608E-02  0.1162179E+00
         21   -1    0    0  503  502  0.00000000000E+00  0.00000000000E+00  0.20767420377E+04  0.20767420377E+04  0.00000000000E+00 0. -1.
         21   -1    0    0  501  503 -0.00000000000E+00 -0.00000000000E+00 -0.98444438859E+02  0.98444438859E+02  0.00000000000E+00 0. -1.
          6    1    1    2  501    0 -0.62707652545E+02 -0.32490718229E+02 -0.22314959266E+01  0.18594858438E+03  0.17200000000E+03 0. -1.
         -6    1    1    2    0  502  0.62707652545E+02  0.32490718229E+02  0.19805290947E+04  0.19892378922E+04  0.17200000000E+03 0. -1.
</event>
<event>
 4    1  0.4538619E+000  0.1820591E+03  0.7818608E-02  0.1165825E+00
         21   -1    0    0  503  502  0.00000000000E+00  0.00000000000E+00  0.37143636155E+03  0.37143636155E+03  0.00000000000E+00 0.  1.
         21   -1    0    0  501  503 -0.00000000000E+00 -0.00000000000E+00 -0.10630265159E+03  0.10630265159E+03  0.00000000000E+00 0.  1.
          6    1    1    2  501    0  0.17863499239E+02 -0.56942271493E+02  0.36855880484E+02  0.18575220810E+03  0.17200000000E+03 0.  1.
         -6    1    1    2    0  502 -0.17863499239E+02  0.56942271493E+02  0.22827782947E+03  0.29198680504E+03  0.17200000000E+03 0.  1.
</event>
<event>
 4    1  0.4538619E+000  0.1781503E+03  0.7818608E-02  0.1169605E+00
         21   -1    0    0  503  502  0.00000000000E+00  0.00000000000E+00  0.12077213311E+04  0.12077213311E+04  0.00000000000E+00 0. -1.
         21   -1    0    0  501  503 -0.00000000000E+00 -0.00000000000E+00 -0.35633387913E+02  0.35633387913E+02  0.00000000000E+00 0. -1.
          6    1    1    2  501    0  0.46137874056E+02 -0.49843332798E+01  0.26751620808E+03  0.32140701390E+03  0.17200000000E+03 0. -1.
         -6    1    1    2    0  502 -0.46137874056E+02  0.49843332798E+01  0.90457173507E+03  0.92194770507E+03  0.17200000000E+03 0. -1.
</event>
<event>
 4    1  0.4538619E+000  0.1783063E+03  0.7818608E-02  0.1169452E+00
         21   -1    0    0  501  502  0.00000000000E+00  0.00000000000E+00  0.41153846765E+02  0.41153846765E+02  0.00000000000E+00 0.  1.
         21   -1    0    0  502  503 -0.00000000000E+00 -0.00000000000E+00 -0.80274509863E+03  0.80274509863E+03  0.00000000000E+00 0.  1.
          6    1    1    2  501    0 -0.39270568409E+02 -0.25825714289E+02 -0.46263930483E+03  0.49581072138E+03  0.17200000000E+03 0.  1.
         -6    1    1    2    0  503  0.39270568409E+02  0.25825714289E+02 -0.29895194704E+03  0.34808822402E+03  0.17200000000E+03 0.  1.
</event>
<event>
 4    1  0.4538619E+000  0.2235927E+03  0.7818608E-02  0.1131233E+00
         21   -1    0    0  501  502  0.00000000000E+00  0.00000000000E+00  0.73729505565E+02  0.73729505565E+02  0.00000000000E+00 0.  1.
         21   -1    0    0  502  503 -0.00000000000E+00 -0.00000000000E+00 -0.99582055068E+03  0.99582055068E+03  0.00000000000E+00 0. -1.
          6    1    1    2  501    0 -0.11653982704E+03  0.82632725285E+02 -0.15896386451E+03  0.27434140918E+03  0.17200000000E+03 0.  1.
         -6    1    1    2    0  503  0.11653982704E+03 -0.82632725285E+02 -0.76312718061E+03  0.79520864706E+03  0.17200000000E+03 0. -1.
</event>
<event>
 4    1  0.4538619E+000  0.1960055E+03  0.7818608E-02  0.1153154E+00
         21   -1    0    0  501  502  0.00000000000E+00  0.00000000000E+00  0.70388073724E+03  0.70388073724E+03  0.00000000000E+00 0. -1.
         21   -1    0    0  502  503 -0.00000000000E+00 -0.00000000000E+00 -0.67327532690E+02  0.67327532690E+02  0.00000000000E+00 0.  1.
          6    1    1    2  501    0 -0.91218561953E+02 -0.22656457706E+02  0.48606054738E+03  0.52409254606E+03  0.17200000000E+03 0. -1.
         -6    1    1    2    0  503  0.91218561953E+02  0.22656457706E+02  0.15049265718E+03  0.24711572387E+03  0.17200000000E+03 0. -1.
</event>
<event>
 4    1  0.4538619E+000  0.2145606E+03  0.7818608E-02  0.1138005E+00
         21   -1    0    0  503  502  0.00000000000E+00  0.00000000000E+00  0.42103223196E+02  0.42103223196E+02  0.00000000000E+00 0. -1.
         21   -1    0    0  501  503 -0.00000000000E+00 -0.00000000000E+00 -0.12677895442E+04  0.12677895442E+04  0.00000000000E+00 0. -1.
          6    1    1    2  501    0  0.57481869790E+02  0.11466515738E+03 -0.85574156287E+03  0.88223006416E+03  0.17200000000E+03 0. -1.
         -6    1    1    2    0  502 -0.57481869790E+02 -0.11466515738E+03 -0.36994475811E+03  0.42766270322E+03  0.17200000000E+03 0. -1.
</event>
<event>
 4    1  0.4538619E+000  0.2468924E+03  0.7818608E-02  0.1115285E+00
         21   -1    0    0  501  502  0.00000000000E+00  0.00000000000E+00  0.31284751595E+03  0.31284751595E+03  0.00000000000E+00 0.  1.
         21   -1    0    0  502  503 -0.00000000000E+00 -0.00000000000E+00 -0.20390101427E+03  0.20390101427E+03  0.00000000000E+00 0.  1.
          6    1    1    2  501    0 -0.64725792381E+02 -0.16487088569E+03  0.10893353746E+03  0.26985617045E+03  0.17200000000E+03 0.  1.
         -6    1    1    2    0  503  0.64725792381E+02  0.16487088569E+03  0.12964222592E-01  0.24689235977E+03  0.17200000000E+03 0.  1.
</event>
<event>
 4    1  0.4538619E+000  0.1725217E+03  0.7818608E-02  0.1175243E+00
         21   -1    0    0  503  502  0.00000000000E+00  0.00000000000E+00  0.23022919044E+03  0.23022919044E+03  0.00000000000E+00 0. -1.
         21   -1    0    0  501  503 -0.00000000000E+00 -0.00000000000E+00 -0.12927963144E+03  0.12927963144E+03  0.00000000000E+00 0. -1.
          6    1    1    2  501    0 -0.11709608598E+02 -0.65274907742E+01  0.49984061839E+02  0.17961661813E+03  0.17200000000E+03 0.  1.
         -6    1    1    2    0  502  0.11709608598E+02  0.65274907742E+01  0.50965497169E+02  0.17989220375E+03  0.17200000000E+03 0.  1.
</event>
<event>
 4    1  0.4538619E+000  0.1786286E+03  0.7818608E-02  0.1169137E+00
         21   -1    0    0  503  502  0.00000000000E+00  0.00000000000E+00  0.76028856088E+03  0.76028856088E+03  0.00000000000E+00 0. -1.
         21   -1    0    0  501  503 -0.00000000000E+00 -0.00000000000E+00 -0.60712973689E+02  0.60712973689E+02  0.00000000000E+00 0. -1.
          6    1    1    2  501    0 -0.16481307117E+02 -0.45304882649E+02  0.12169586566E+03  0.21614358560E+03  0.17200000000E+03 0. -1.
         -6    1    1    2    0  502  0.16481307117E+02  0.45304882649E+02  0.57787972153E+03  0.60485794897E+03  0.17200000000E+03 0. -1.
</event>
<event>
 4    1  0.4538619E+000  0.2377872E+03  0.7818608E-02  0.1121276E+00
         21   -1    0    0  501  502  0.00000000000E+00  0.00000000000E+00  0.93991321648E+03  0.93991321648E+03  0.00000000000E+00 0.  1.
         21   -1    0    0  502  503 -0.00000000000E+00 -0.00000000000E+00 -0.15814247200E+03  0.15814247200E+03  0.00000000000E+00 0.  1.
          6    1    1    2  501    0  0.52163250841E+02  0.15568479510E+03  0.82305078707E+03  0.85671194590E+03  0.17200000000E+03 0.  1.
         -6    1    1    2    0  503 -0.52163250841E+02 -0.15568479510E+03 -0.41280042578E+02  0.24134374257E+03  0.17200000000E+03 0.  1.
</event>
<event>
 4    1  0.4538619E+000  0.2718895E+03  0.7818608E-02  0.1100203E+00
         21   -1    0    0  501  502  0.00000000000E+00  0.00000000000E+00  0.67453678751E+03  0.67453678751E+03  0.00000000000E+00 0. -1.
         21   -1    0    0  502  503 -0.00000000000E+00 -0.00000000000E+00 -0.15818705261E+03  0.15818705261E+03  0.00000000000E+00 0.  1.
          6    1    1    2  501    0  0.21015518376E+03  0.13217750817E+02  0.48894578126E+03  0.55945677867E+03  0.17200000000E+03 0. -1.
         -6    1    1    2    0  503 -0.21015518376E+03 -0.13217750817E+02  0.27403953635E+02  0.27326706144E+03  0.17200000000E+03 0.  1.
</event>
<event>
 4    1  0.4538619E+000  0.1836923E+03  0.7818608E-02  0.1164277E+00
         21   -1    0    0  503  502  0.00000000000E+00  0.00000000000E+00  0.14520198089E+03  0.14520198089E+03  0.00000000000E+00 0. -1.
         21   -1    0    0  501  503 -0.00000000000E+00 -0.00000000000E+00 -0.30943662052E+03  0.30943662052E+03  0.00000000000E+00 0. -1.
          6    1    1    2  501    0  0.52650562590E+02 -0.37239730794E+02 -0.19555023022E+03  0.26829605258E+03  0.17200000000E+03 0. -1.
         -6    1    1    2    0  502 -0.52650562590E+02  0.37239730794E+02  0.31315590584E+02  0.18634254883E+03  0.17200000000E+03 0. -1.
</event>
<event>
 4    1  0.4538619E+000  0.2598863E+03  0.7818608E-02  0.1107212E+00
         21   -1    0    0  501  502  0.00000000000E+00  0.00000000000E+00  0.82992160960E+03  0.82992160960E+03  0.00000000000E+00 0. -1.
         21   -1    0    0  502  503 -0.00000000000E+00 -0.00000000000E+00 -0.93592534043E+02  0.93592534043E+02  0.00000000000E+00 0.  1.
          6    1    1    2  501    0 -0.63247855203E+02  0.18427309045E+03  0.53494929938E+03  0.59473659377E+03  0.17200000000E+03 0. -1.
         -6    1    1    2    0  503  0.63247855203E+02 -0.18427309045E+03  0.20137977618E+03  0.32877754988E+03  0.17200000000E+03 0.  1.
</event>
<event>
 4    1  0.4538619E+000  0.1839103E+03  0.7818608E-02  0.1164071E+00
         21   -1    0    0  503  502  0.00000000000E+00  0.00000000000E+00  0.94901396075E+03  0.94901396075E+03  0.00000000000E+00 0. -1.
         21   -1    0    0  501  503 -0.00000000000E+00 -0.00000000000E+00 -0.44777806482E+02  0.44777806482E+02  0.00000000000E+00 0. -1.
          6    1    1    2  501    0 -0.52355203332E+02  0.38703207602E+02  0.22765171775E+03  0.29265732553E+03  0.17200000000E+03 0. -1.
         -6    1    1    2    0  502  0.52355203332E+02 -0.38703207602E+02  0.67658443652E+03  0.70113444170E+03  0.17200000000E+03 0. -1.
</event>
<event>
 4    1  0.4538619E+000  0.2044611E+03  0.7818608E-02  0.1146029E+00
         21   -1    0    0  503  502  0.00000000000E+00  0.00000000000E+00  0.77752703630E+02  0.77752703630E+02  0.00000000000E+00 0. -1.
         21   -1    0    0  501  503 -0.00000000000E+00 -0.00000000000E+00 -0.71870737919E+03  0.71870737919E+03  0.00000000000E+00 0. -1.
          6    1    1    2  501    0  0.11031790801E+03 -0.70920408560E+01 -0.52035160133E+03  0.55907971424E+03  0.17200000000E+03 0. -1.
         -6    1    1    2    0  502 -0.11031790801E+03  0.70920408560E+01 -0.12060307423E+03  0.23738036858E+03  0.17200000000E+03 0. -1.
</event>
<event>
 4    1  0.4538619E+000  0.2777456E+03  0.7818608E-02  0.1096927E+00
         21   -1    0    0  501  502  0.00000000000E+00  0.00000000000E+00  0.75467820145E+02  0.75467820145E+02  0.00000000000E+00 0. -1.
         21   -1    0    0  502  503 -0.00000000000E+00 -0.00000000000E+00 -0.10554838836E+04  0.10554838836E+04  0.00000000000E+00 0.  1.
          6    1    1    2  501    0 -0.21537363302E+03 -0.34246513263E+02 -0.38957989238E+03  0.47845074775E+03  0.17200000000E+03 0. -1.
         -6    1    1    2    0  503  0.21537363302E+03  0.34246513263E+02 -0.59043617109E+03  0.65250095602E+03  0.17200000000E+03 0.  1.
</event>
<event>
 4    1  0.4538619E+000  0.1903772E+03  0.7818608E-02  0.1158122E+00
         21   -1    0    0  503  502  0.00000000000E+00  0.00000000000E+00  0.11301781984E+03  0.11301781984E+03  0.00000000000E+00 0. -1.
         21   -1    0    0  501  503 -0.00000000000E+00 -0.00000000000E+00 -0.32496786379E+03  0.32496786379E+03  0.00000000000E+00 0. -1.
          6    1    1    2  501    0 -0.48241429269E+02 -0.65819693583E+02 -0.13110665251E+03  0.23115454115E+03  0.17200000000E+03 0. -1.
         -6    1    1    2    0  502  0.48241429269E+02  0.65819693583E+02 -0.80843391448E+02  0.20683114249E+03  0.17200000000E+03 0. -1.
</event>
<event>
 4    1  0.4538619E+000  0.1981600E+03  0.7818608E-02  0.1151301E+00
         21   -1    0    0  501  502  0.00000000000E+00  0.00000000000E+00  0.26051713765E+03  0.26051713765E+03  0.00000000000E+00 0.  1.
         21   -1    0    0  502  503 -0.00000000000E+00 -0.00000000000E+00 -0.15322650625E+03  0.15322650625E+03  0.00000000000E+00 0. -1.
          6    1    1    2  501    0 -0.62807633954E+02 -0.75753384626E+02  0.80058791205E+02  0.21372127693E+03  0.17200000000E+03 0.  1.
         -6    1    1    2    0  503  0.62807633954E+02  0.75753384626E+02  0.27231840197E+02  0.20002236696E+03  0.17200000000E+03 0. -1.
</event>
<event>
 4    1  0.4538619E+000  0.2420702E+03  0.7818608E-02  0.1118421E+00
         21   -1    0    0  503  502  0.00000000000E+00  0.00000000000E+00  0.87538006714E+03  0.87538006714E+03  0.00000000000E+00 0. -1.
         21   -1    0    0  501  503 -0.00000000000E+00 -0.00000000000E+00 -0.75330862083E+02  0.75330862083E+02  0.00000000000E+00 0.  1.
          6    1    1    2  501    0 -0.17008573544E+03 -0.92096577163E+01  0.24137670422E+03  0.34184892648E+03  0.17200000000E+03 0.  1.
         -6    1    1    2    0  502  0.17008573544E+03  0.92096577163E+01  0.55867250084E+03  0.60886200275E+03  0.17200000000E+03 0. -1.
</event>
<event>
 4    1  0.4538619E+000  0.4927703E+03  0.7818608E-02  0.1015683E+00
         21   -1    0    0  503  502  0.00000000000E+00  0.00000000000E+00  0.15063264428E+03  0.15063264428E+03  0.00000000000E+00 0. -1.
         21   -1    0    0  501  503 -0.00000000000E+00 -0.00000000000E+00 -0.16121010610E+04  0.16121010610E+04  0.00000000000E+00 0.  1.
          6    1    1    2  501    0 -0.20697578321E+03 -0.41279482418E+03 -0.72440972783E+03  0.87612327642E+03  0.17200000000E+03 0.  1.
         -6    1    1    2    0  502  0.20697578321E+03  0.41279482418E+03 -0.73705868891E+03  0.88661042888E+03  0.17200000000E+03 0. -1.
</event>
<event>
 4    1  0.4538619E+000  0.1991995E+03  0.7818608E-02  0.1150416E+00
         21   -1    0    0  503  502  0.00000000000E+00  0.00000000000E+00  0.32933245384E+02  0.32933245384E+02  0.00000000000E+00 0. -1.
         21   -1    0    0  501  503 -0.00000000000E+00 -0.00000000000E+00 -0.15745080802E+04  0.15745080802E+04  0.00000000000E+00 0. -1.
          6    1    1    2  501    0 -0.28831698008E+02 -0.96255760830E+02 -0.11602073746E+04  0.11771837539E+04  0.17200000000E+03 0. -1.
         -6    1    1    2    0  502  0.28831698008E+02  0.96255760830E+02 -0.38136746021E+03  0.43025757170E+03  0.17200000000E+03 0. -1.
</event>
<event>
 4    1  0.4538619E+000  0.2148200E+03  0.7818608E-02  0.1137805E+00
         21   -1    0    0  501  502  0.00000000000E+00  0.00000000000E+00  0.92323505852E+03  0.92323505852E+03  0.00000000000E+00 0.  1.
         21   -1    0    0  502  503 -0.00000000000E+00 -0.00000000000E+00 -0.57390947004E+02  0.57390947004E+02  0.00000000000E+00 0.  1.
          6    1    1    2  501    0 -0.60102669197E+02  0.11380380301E+03  0.60905902751E+03  0.64583321021E+03  0.17200000000E+03 0.  1.
         -6    1    1    2    0  503  0.60102669197E+02 -0.11380380301E+03  0.25678508401E+03  0.33479279531E+03  0.17200000000E+03 0.  1.
</event>
<event>
 4    1  0.4538619E+000  0.4739983E+03  0.7818608E-02  0.1020798E+00
         21   -1    0    0  501  502  0.00000000000E+00  0.00000000000E+00  0.11460389482E+04  0.11460389482E+04  0.00000000000E+00 0. -1.
         21   -1    0    0  502  503 -0.00000000000E+00 -0.00000000000E+00 -0.23060993431E+03  0.23060993431E+03  0.00000000000E+00 0.  1.
          6    1    1    2  501    0  0.35417229608E+03 -0.26391734319E+03  0.72420184704E+03  0.86553029676E+03  0.17200000000E+03 0. -1.
         -6    1    1    2    0  503 -0.35417229608E+03  0.26391734319E+03  0.19122716683E+03  0.51111858573E+03  0.17200000000E+03 0.  1.
</event>
<event>
 4    1  0.4538619E+000  0.2305854E+03  0.7818608E-02  0.1126228E+00
         21   -1    0    0  503  502  0.00000000000E+00  0.00000000000E+00  0.67922017005E+02  0.67922017005E+02  0.00000000000E+00 0. -1.
         21   -1    0    0  501  503 -0.00000000000E+00 -0.00000000000E+00 -0.79266331937E+03  0.79266331937E+03  0.00000000000E+00 0.  1.
          6    1    1    2  501    0  0.19000558144E+01 -0.15356441132E+03 -0.31438193524E+03  0.38987900667E+03  0.17200000000E+03 0. -1.
         -6    1    1    2    0  502 -0.19000558144E+01  0.15356441132E+03 -0.41035936713E+03  0.47070632971E+03  0.17200000000E+03 0.  1.
</event>
<event>
 4    1  0.4538619E+000  0.2026075E+03  0.7818608E-02  0.1147558E+00
         21   -1    0    0  501  502  0.00000000000E+00  0.00000000000E+00  0.32342486449E+03  0.32342486449E+03  0.00000000000E+00 0. -1.
         21   -1    0    0  502  503 -0.00000000000E+00 -0.00000000000E+00 -0.12882294087E+03  0.12882294087E+03  0.00000000000E+00 0. -1.
          6    1    1    2  501    0 -0.90929061733E+02 -0.56548221845E+02  0.12476796065E+03  0.23794293363E+03  0.17200000000E+03 0. -1.
         -6    1    1    2    0  503  0.90929061733E+02  0.56548221845E+02  0.69833962969E+02  0.21430487173E+03  0.17200000000E+03 0. -1.
</event>
<event>
 4    1  0.4538619E+000  0.1766031E+03  0.7818608E-02  0.1171132E+00
         21   -1    0    0  501  502  0.00000000000E+00  0.00000000000E+00  0.85144402455E+02  0.85144402455E+02  0.00000000000E+00 0. -1.
         21   -1    0    0  502  503 -0.00000000000E+00 -0.00000000000E+00 -0.36630409691E+03  0.36630409691E+03  0.00000000000E+00 0. -1.
          6    1    1    2  501    0 -0.75254427600E+01 -0.39345110738E+02 -0.14023351882E+03  0.22550855822E+03  0.17200000000E+03 0. -1.
         -6    1    1    2    0  503  0.75254427600E+01  0.39345110738E+02 -0.14092617563E+03  0.22593994115E+03  0.17200000000E+03 0. -1.
</event>
<event>
 4    1  0.4538619E+000  0.2120643E+03  0.7818608E-02  0.1139942E+00
         21   -1    0    0  503  502  0.00000000000E+00  0.00000000000E+00  0.21219519913E+03  0.21219519913E+03  0.00000000000E+00 0. -1.
         21   -1    0    0  501  503 -0.00000000000E+00 -0.00000000000E+00 -0.52238303570E+03  0.52238303570E+03  0.00000000000E+00 0. -1.
          6    1    1    2  501    0 -0.94115173755E+02 -0.80805852674E+02 -0.43823905051E+03  0.48685184312E+03  0.17200000000E+03 0. -1.
         -6    1    1    2    0  502  0.94115173755E+02  0.80805852674E+02  0.12805121394E+03  0.24772639171E+03  0.17200000000E+03 0. -1.
</event>
<event>
 4    1  0.4538619E+000  0.1867671E+03  0.7818608E-02  0.1161410E+00
         21   -1    0    0  503  502  0.00000000000E+00  0.00000000000E+00  0.79223725061E+02  0.79223725061E+02  0.00000000000E+00 0.  1.
         21   -1    0    0  501  503 -0.00000000000E+00 -0.00000000000E+00 -0.47849676146E+03  0.47849676146E+03  0.00000000000E+00 0.  1.
          6    1    1    2  501    0  0.64771220272E+02  0.33206205312E+02 -0.27842773642E+03  0.33526700919E+03  0.17200000000E+03 0.  1.
         -6    1    1    2    0  502 -0.64771220272E+02 -0.33206205312E+02 -0.12084529998E+03  0.22245347732E+03  0.17200000000E+03 0.  1.
</event>
<event>
 4    1  0.4538619E+000  0.2341422E+03  0.7818608E-02  0.1123758E+00
         21   -1    0    0  503  502  0.00000000000E+00  0.00000000000E+00  0.32977372990E+03  0.32977372990E+03  0.00000000000E+00 0.  1.
         21   -1    0    0  501  503 -0.00000000000E+00 -0.00000000000E+00 -0.16901467830E+03  0.16901467830E+03  0.00000000000E+00 0.  1.
          6    1    1    2  501    0 -0.12780620054E+03 -0.94361861985E+02  0.11231642682E+03  0.25968743833E+03  0.17200000000E+03 0.  1.
         -6    1    1    2    0  502  0.12780620054E+03  0.94361861985E+02  0.48442624783E+02  0.23910096986E+03  0.17200000000E+03 0.  1.
</event>
<event>
 4    1  0.4538619E+000  0.2652584E+03  0.7818608E-02  0.1104024E+00
         21   -1    0    0  501  502  0.00000000000E+00  0.00000000000E+00  0.79474745174E+03  0.79474745174E+03  0.00000000000E+00 0.  1.
         21   -1    0    0  502  503 -0.00000000000E+00 -0.00000000000E+00 -0.15475167100E+03  0.15475167100E+03  0.00000000000E+00 0. -1.
          6    1    1    2  501    0  0.17793783578E+03  0.95478497668E+02  0.63055000066E+03  0.68407259867E+03  0.17200000000E+03 0.  1.
         -6    1    1    2    0  503 -0.17793783578E+03 -0.95478497668E+02  0.94457800753E+01  0.26542652407E+03  0.17200000000E+03 0. -1.
</event>
<event>
 4    1  0.4538619E+000  0.1901164E+03  0.7818608E-02  0.1158356E+00
         21   -1    0    0  503  502  0.00000000000E+00  0.00000000000E+00  0.16747658143E+03  0.16747658143E+03  0.00000000000E+00 0.  1.
         21   -1    0    0  501  503 -0.00000000000E+00 -0.00000000000E+00 -0.21581921595E+03  0.21581921595E+03  0.00000000000E+00 0.  1.
          6    1    1    2  501    0 -0.11230220490E+02 -0.80212963695E+02 -0.23512529030E+02  0.19156480997E+03  0.17200000000E+03 0.  1.
         -6    1    1    2    0  502  0.11230220490E+02  0.80212963695E+02 -0.24830105493E+02  0.19173098742E+03  0.17200000000E+03 0.  1.
</event>
<event>
 4    1  0.4538619E+000  0.3776123E+03  0.7818608E-02  0.1051820E+00
         21   -1    0    0  503  502  0.00000000000E+00  0.00000000000E+00  0.44681899630E+03  0.44681899630E+03  0.00000000000E+00 0.  1.
         21   -1    0    0  501  503 -0.00000000000E+00 -0.00000000000E+00 -0.41991879217E+03  0.41991879217E+03  0.00000000000E+00 0. -1.
          6    1    1    2  501    0  0.30305947789E+03 -0.14547155056E+03  0.22577084328E+03  0.43995851263E+03  0.17200000000E+03 0.  1.
         -6    1    1    2    0  502 -0.30305947789E+03  0.14547155056E+03 -0.19887063915E+03  0.42677927583E+03  0.17200000000E+03 0. -1.
</event>
<event>
 4    1  0.4538619E+000  0.4642229E+03  0.7818608E-02  0.1023564E+00
         21   -1    0    0  501  502  0.00000000000E+00  0.00000000000E+00  0.37647800253E+03  0.37647800253E+03  0.00000000000E+00 0.  1.
         21   -1    0    0  502  503 -0.00000000000E+00 -0.00000000000E+00 -0.67307656371E+03  0.67307656371E+03  0.00000000000E+00 0. -1.
          6    1    1    2  501    0 -0.40744056284E+03  0.14110667810E+03  0.54640627880E+02  0.46742753991E+03  0.17200000000E+03 0.  1.
         -6    1    1    2    0  503  0.40744056284E+03 -0.14110667810E+03 -0.35123918906E+03  0.58212702633E+03  0.17200000000E+03 0. -1.
</event>
<event>
 4    1  0.4538619E+000  0.2122099E+03  0.7818608E-02  0.1139828E+00
         21   -1    0    0  503  502  0.00000000000E+00  0.00000000000E+00  0.33753786666E+03  0.33753786666E+03  0.00000000000E+00 0. -1.
         21   -1    0    0  501  503 -0.00000000000E+00 -0.00000000000E+00 -0.23466506055E+03  0.23466506055E+03  0.00000000000E+00 0. -1.
          6    1    1    2  501    0  0.11333326561E+03  0.51035416097E+02 -0.13649129234E+03  0.25231511186E+03  0.17200000000E+03 0. -1.
         -6    1    1    2    0  502 -0.11333326561E+03 -0.51035416097E+02  0.23936409844E+03  0.31988781536E+03  0.17200000000E+03 0. -1.
</event>
<event>
 4    1  0.4538619E+000  0.1770526E+03  0.7818608E-02  0.1170686E+00
         21   -1    0    0  501  502  0.00000000000E+00  0.00000000000E+00  0.10799177901E+04  0.10799177901E+04  0.00000000000E+00 0.  1.
         21   -1    0    0  502  503 -0.00000000000E+00 -0.00000000000E+00 -0.34461943059E+02  0.34461943059E+02  0.00000000000E+00 0.  1.
          6    1    1    2  501    0 -0.39256372900E+02 -0.14917899803E+02  0.74398644853E+03  0.76476365117E+03  0.17200000000E+03 0.  1.
         -6    1    1    2    0  503  0.39256372900E+02  0.14917899803E+02  0.30146939849E+03  0.34961608197E+03  0.17200000000E+03 0.  1.
</event>
<event>
 4    1  0.4538619E+000  0.1989263E+03  0.7818608E-02  0.1150648E+00
         21   -1    0    0  501  502  0.00000000000E+00  0.00000000000E+00  0.30322296216E+03  0.30322296216E+03  0.00000000000E+00 0.  1.
         21   -1    0    0  502  503 -0.00000000000E+00 -0.00000000000E+00 -0.13865524997E+03  0.13865524997E+03  0.00000000000E+00 0. -1.
          6    1    1    2  501    0  0.96852821313E+02  0.24641103429E+02  0.13585492185E+03  0.24089045802E+03  0.17200000000E+03 0.  1.
         -6    1    1    2    0  503 -0.96852821313E+02 -0.24641103429E+02  0.28712790335E+02  0.20098775411E+03  0.17200000000E+03 0.  1.
</event>
<event>
 4    1  0.4538619E+000  0.1771053E+03  0.7818608E-02  0.1170634E+00
         21   -1    0    0  503  502  0.00000000000E+00  0.00000000000E+00  0.18747927438E+03  0.18747927438E+03  0.00000000000E+00 0. -1.
         21   -1    0    0  501  503 -0.00000000000E+00 -0.00000000000E+00 -0.53076403769E+03  0.53076403769E+03  0.00000000000E+00 0. -1.
          6    1    1    2  501    0  0.21846120199E+02  0.36125234380E+02 -0.46882156015E+03  0.50115859844E+03  0.17200000000E+03 0. -1.
         -6    1    1    2    0  502 -0.21846120199E+02 -0.36125234380E+02  0.12553679685E+03  0.21708471362E+03  0.17200000000E+03 0. -1.
</event>
<event>
 4    1  0.4538619E+000  0.1982526E+03  0.7818608E-02  0.1151222E+00
         21   -1    0    0  503  502  0.00000000000E+00  0.00000000000E+00  0.40049665686E+03  0.40049665686E+03  0.00000000000E+00 0.  1.
         21   -1    0    0  501  503 -0.00000000000E+00 -0.00000000000E+00 -0.11303036952E+03  0.11303036952E+03  0.00000000000E+00 0.  1.
          6    1    1    2  501    0  0.80389158138E+02  0.57075984979E+02  0.50533897750E+02  0.20459169003E+03  0.17200000000E+03 0.  1.
         -6    1    1    2    0  502 -0.80389158138E+02 -0.57075984979E+02  0.23693238959E+03  0.30893533635E+03  0.17200000000E+03 0.  1.
</event>
<event>
 4    1  0.4538619E+000  0.2557163E+03  0.7818608E-02  0.1109745E+00
         21   -1    0    0  503  502  0.00000000000E+00  0.00000000000E+00  0.15417907121E+03  0.15417907121E+03  0.00000000000E+00 0.  1.
         21   -1    0    0  501  503 -0.00000000000E+00 -0.00000000000E+00 -0.84592188377E+03  0.84592188377E+03  0.00000000000E+00 0. -1.
          6    1    1    2  501    0  0.14937612434E+03 -0.11616200614E+03 -0.69897456531E+03  0.74428239341E+03  0.17200000000E+03 0. -1.
         -6    1    1    2    0  502 -0.14937612434E+03  0.11616200614E+03  0.72317527531E+01  0.25581856156E+03  0.17200000000E+03 0. -1.
</event>
<event>
 4    1  0.4538619E+000  0.1736173E+03  0.7818608E-02  0.1174127E+00
         21   -1    0    0  501  502  0.00000000000E+00  0.00000000000E+00  0.86129863738E+03  0.86129863738E+03  0.00000000000E+00 0.  1.
         21   -1    0    0  502  503 -0.00000000000E+00 -0.00000000000E+00 -0.60557890334E+02  0.60557890334E+02  0.00000000000E+00 0.  1.
          6    1    1    2  501    0  0.15226568513E+02 -0.18086243284E+02  0.69982777413E+03  0.72104221376E+03  0.17200000000E+03 0.  1.
         -6    1    1    2    0  503 -0.15226568513E+02  0.18086243284E+02  0.10091297292E+03  0.20081431395E+03  0.17200000000E+03 0.  1.
</event>
<event>
 4    1  0.4538619E+000  0.1878237E+03  0.7818608E-02  0.1160439E+00
         21   -1    0    0  503  502  0.00000000000E+00  0.00000000000E+00  0.41138458886E+03  0.41138458886E+03  0.00000000000E+00 0. -1.
         21   -1    0    0  501  503 -0.00000000000E+00 -0.00000000000E+00 -0.87481971678E+02  0.87481971678E+02  0.00000000000E+00 0.  1.
          6    1    1    2  501    0  0.51690025147E+02  0.54971650588E+02  0.12689194406E+03  0.22667003890E+03  0.17200000000E+03 0.  1.
         -6    1    1    2    0  502 -0.51690025147E+02 -0.54971650588E+02  0.19701067312E+03  0.27219652164E+03  0.17200000000E+03 0. -1.
</event>
<event>
 4    1  0.4538619E+000  0.1869648E+03  0.7818608E-02  0.1161228E+00
         21   -1    0    0  501  502  0.00000000000E+00  0.00000000000E+00  0.72785194295E+02  0.72785194295E+02  0.00000000000E+00 0.  1.
         21   -1    0    0  502  503 -0.00000000000E+00 -0.00000000000E+00 -0.48209525257E+03  0.48209525257E+03  0.00000000000E+00 0.  1.
          6    1    1    2  501    0 -0.63082753333E+02  0.37315050407E+02 -0.22177106599E+03  0.29006594503E+03  0.17200000000E+03 0.  1.
         -6    1    1    2    0  503  0.63082753333E+02 -0.37315050407E+02 -0.18753899228E+03  0.26481450183E+03  0.17200000000E+03 0.  1.
</event>
<event>
 4    1  0.4538619E+000  0.2183021E+03  0.7818608E-02  0.1135155E+00
         21   -1    0    0  501  502  0.00000000000E+00  0.00000000000E+00  0.18641596538E+03  0.18641596538E+03  0.00000000000E+00 0.  1.
         21   -1    0    0  502  503 -0.00000000000E+00 -0.00000000000E+00 -0.33957879358E+03  0.33957879358E+03  0.00000000000E+00 0.  1.
          6    1    1    2  501    0 -0.37955656806E+02 -0.12896198564E+03 -0.20733580492E+03  0.30107135637E+03  0.17200000000E+03 0.  1.
         -6    1    1    2    0  503  0.37955656806E+02  0.12896198564E+03  0.54172976719E+02  0.22492340258E+03  0.17200000000E+03 0.  1.
</event>
<event>
 4    1  0.4538619E+000  0.1844439E+03  0.7818608E-02  0.1163570E+00
         21   -1    0    0  501  502  0.00000000000E+00  0.00000000000E+00  0.26925291332E+04  0.26925291332E+04  0.00000000000E+00 0. -1.
         21   -1    0    0  502  503 -0.00000000000E+00 -0.00000000000E+00 -0.13161353135E+02  0.13161353135E+02  0.00000000000E+00 0. -1.
          6    1    1    2  501    0  0.33285352444E+02  0.57685692112E+02  0.16102796523E+04  0.16208084749E+04  0.17200000000E+03 0. -1.
         -6    1    1    2    0  503 -0.33285352444E+02 -0.57685692112E+02  0.10690881278E+04  0.10848820114E+04  0.17200000000E+03 0. -1.
</event>
<event>
 4    1  0.4538619E+000  0.2323480E+03  0.7818608E-02  0.1124998E+00
         21   -1    0    0  501  502  0.00000000000E+00  0.00000000000E+00  0.32743712643E+03  0.32743712643E+03  0.00000000000E+00 0. -1.
         21   -1    0    0  502  503 -0.00000000000E+00 -0.00000000000E+00 -0.16605723056E+03  0.16605723056E+03  0.00000000000E+00 0. -1.
          6    1    1    2  501    0  0.14081957982E+03  0.67612367067E+02  0.10152604105E+03  0.25356088668E+03  0.17200000000E+03 0. -1.
         -6    1    1    2    0  503 -0.14081957982E+03 -0.67612367067E+02  0.59853854821E+02  0.23993347032E+03  0.17200000000E+03 0. -1.
</event>
<event>
 4    1  0.4538619E+000  0.3556525E+03  0.7818608E-02  0.1060319E+00
         21   -1    0    0  503  502  0.00000000000E+00  0.00000000000E+00  0.31332302300E+03  0.31332302300E+03  0.00000000000E+00 0. -1.
         21   -1    0    0  501  503 -0.00000000000E+00 -0.00000000000E+00 -0.50141778277E+03  0.50141778277E+03  0.00000000000E+00 0.  1.
          6    1    1    2  501    0  0.31110648932E+03 -0.10837346506E+02 -0.27388272437E+03  0.44888800662E+03  0.17200000000E+03 0.  1.
         -6    1    1    2    0  502 -0.31110648932E+03  0.10837346506E+02  0.85787964600E+02  0.36585279915E+03  0.17200000000E+03 0. -1.
</event>
<event>
 4    1  0.4538619E+000  0.1735184E+03  0.7818608E-02  0.1174228E+00
         21   -1    0    0  501  502  0.00000000000E+00  0.00000000000E+00  0.88848370736E+03  0.88848370736E+03  0.00000000000E+00 0. -1.
         21   -1    0    0  502  503 -0.00000000000E+00 -0.00000000000E+00 -0.33905910448E+02  0.33905910448E+02  0.00000000000E+00 0. -1.
          6    1    1    2  501    0 -0.34294814538E+00  0.22902584121E+02  0.41659292613E+03  0.45128517822E+03  0.17200000000E+03 0. -1.
         -6    1    1    2    0  503  0.34294814538E+00 -0.22902584121E+02  0.43798487078E+03  0.47110443960E+03  0.17200000000E+03 0. -1.
</event>
<event>
 4    1  0.4538619E+000  0.2064629E+03  0.7818608E-02  0.1144398E+00
         21   -1    0    0  501  502  0.00000000000E+00  0.00000000000E+00  0.27558164660E+03  0.27558164660E+03  0.00000000000E+00 0.  1.
         21   -1    0    0  502  503 -0.00000000000E+00 -0.00000000000E+00 -0.15962553052E+03  0.15962553052E+03  0.00000000000E+00 0. -1.
          6    1    1    2  501    0 -0.60205486441E+02  0.97047552443E+02  0.19675492711E+02  0.20739829567E+03  0.17200000000E+03 0.  1.
         -6    1    1    2    0  503  0.60205486441E+02 -0.97047552443E+02  0.96280623374E+02  0.22780888146E+03  0.17200000000E+03 0.  1.
</event>
<event>
 4    1  0.4538619E+000  0.1970504E+03  0.7818608E-02  0.1152252E+00
         21   -1    0    0  503  502  0.00000000000E+00  0.00000000000E+00  0.36044093872E+03  0.36044093872E+03  0.00000000000E+00 0.  1.
         21   -1    0    0  501  503 -0.00000000000E+00 -0.00000000000E+00 -0.15621761153E+03  0.15621761153E+03  0.00000000000E+00 0.  1.
          6    1    1    2  501    0  0.80178211123E+02  0.53068936627E+02 -0.41815237424E+02  0.20143825767E+03  0.17200000000E+03 0.  1.
         -6    1    1    2    0  502 -0.80178211123E+02 -0.53068936627E+02  0.24603856461E+03  0.31522029257E+03  0.17200000000E+03 0.  1.
</event>
<event>
 4    1  0.4538619E+000  0.2665046E+03  0.7818608E-02  0.1103297E+00
         21   -1    0    0  503  502  0.00000000000E+00  0.00000000000E+00  0.52620575919E+03  0.52620575919E+03  0.00000000000E+00 0.  1.
         21   -1    0    0  501  503 -0.00000000000E+00 -0.00000000000E+00 -0.15463028712E+03  0.15463028712E+03  0.00000000000E+00 0.  1.
          6    1    1    2  501    0  0.82772765983E+02 -0.18598213453E+03  0.64419890735E+02  0.27417988160E+03  0.17200000000E+03 0.  1.
         -6    1    1    2    0  502 -0.82772765983E+02  0.18598213453E+03  0.30715558133E+03  0.40665616471E+03  0.17200000000E+03 0.  1.
</event>
<event>
 4    1  0.4538619E+000  0.2941455E+03  0.7818608E-02  0.1088204E+00
         21   -1    0    0  501  502  0.00000000000E+00  0.00000000000E+00  0.16033563362E+04  0.16033563362E+04  0.00000000000E+00 0. -1.
         21   -1    0    0  502  503 -0.00000000000E+00 -0.00000000000E+00 -0.33172961812E+03  0.33172961812E+03  0.00000000000E+00 0.  1.
          6    1    1    2  501    0 -0.13046450614E+03  0.19979135215E+03  0.15211701749E+04  0.15493483381E+04  0.17200000000E+03 0. -1.
         -6    1    1    2    0  503  0.13046450614E+03 -0.19979135215E+03 -0.24954345679E+03  0.38573761624E+03  0.17200000000E+03 0.  1.
</event>
<event>
 4    1  0.4538619E+000  0.2195228E+03  0.7818608E-02  0.1134239E+00
         21   -1    0    0  501  502  0.00000000000E+00  0.00000000000E+00  0.33743043778E+03  0.33743043778E+03  0.00000000000E+00 0.  1.
         21   -1    0    0  502  503 -0.00000000000E+00 -0.00000000000E+00 -0.14741852716E+03  0.14741852716E+03  0.00000000000E+00 0. -1.
          6    1    1    2  501    0 -0.12682729971E+03  0.50210573795E+02  0.13784369505E+03  0.25921255744E+03  0.17200000000E+03 0.  1.
         -6    1    1    2    0  503  0.12682729971E+03 -0.50210573795E+02  0.52168215578E+02  0.22563640750E+03  0.17200000000E+03 0. -1.
</event>
<event>
 4    1  0.4538619E+000  0.2179218E+03  0.7818608E-02  0.1135442E+00
         21   -1    0    0  501  502  0.00000000000E+00  0.00000000000E+00  0.18952098449E+03  0.18952098449E+03  0.00000000000E+00 0. -1.
         21   -1    0    0  502  503 -0.00000000000E+00 -0.00000000000E+00 -0.30065094679E+03  0.30065094679E+03  0.00000000000E+00 0. -1.
          6    1    1    2  501    0  0.84970166382E+02 -0.10337298818E+03 -0.15558481015E+03  0.26776209031E+03  0.17200000000E+03 0.  1.
         -6    1    1    2    0  503 -0.84970166382E+02  0.10337298818E+03  0.44454847847E+02  0.22240984096E+03  0.17200000000E+03 0.  1.
</event>
<event>
 4    1  0.4538619E+000  0.1902732E+03  0.7818608E-02  0.1158215E+00
         21   -1    0    0  501  502  0.00000000000E+00  0.00000000000E+00  0.52561270349E+03  0.52561270349E+03  0.00000000000E+00 0. -1.
         21   -1    0    0  502  503 -0.00000000000E+00 -0.00000000000E+00 -0.16966356850E+03  0.16966356850E+03  0.00000000000E+00 0. -1.
          6    1    1    2  501    0 -0.77601038973E+02  0.24453700351E+02  0.44590941572E+03  0.48480832474E+03  0.17200000000E+03 0. -1.
         -6    1    1    2    0  503  0.77601038973E+02 -0.24453700351E+02 -0.89960280734E+02  0.21046794725E+03  0.17200000000E+03 0. -1.
</event>
<event>
 4    1  0.4538619E+000  0.3050811E+03  0.7818608E-02  0.1082728E+00
         21   -1    0    0  501  502  0.00000000000E+00  0.00000000000E+00  0.17438259608E+03  0.17438259608E+03  0.00000000000E+00 0. -1.
         21   -1    0    0  502  503 -0.00000000000E+00 -0.00000000000E+00 -0.93685376445E+03  0.93685376445E+03  0.00000000000E+00 0.  1.
          6    1    1    2  501    0 -0.23398305862E+03  0.93500981612E+02 -0.16770621684E+02  0.30554174680E+03  0.17200000000E+03 0. -1.
         -6    1    1    2    0  503  0.23398305862E+03 -0.93500981612E+02 -0.74570054668E+03  0.80569461373E+03  0.17200000000E+03 0.  1.
</event>
<event>
 4    1  0.4538619E+000  0.1795028E+03  0.7818608E-02  0.1168285E+00
         21   -1    0    0  503  502  0.00000000000E+00  0.00000000000E+00  0.12244676984E+04  0.12244676984E+04  0.00000000000E+00 0.  1.
         21   -1    0    0  501  503 -0.00000000000E+00 -0.00000000000E+00 -0.26440416234E+02  0.26440416234E+02  0.00000000000E+00 0.  1.
          6    1    1    2  501    0  0.39507223893E+02  0.32809151459E+02  0.64217487076E+03  0.66679069114E+03  0.17200000000E+03 0.  1.
         -6    1    1    2    0  502 -0.39507223893E+02 -0.32809151459E+02  0.55585241141E+03  0.58411742349E+03  0.17200000000E+03 0.  1.
</event>
<event>
 4    1  0.4538619E+000  0.1935953E+03  0.7818608E-02  0.1155258E+00
         21   -1    0    0  503  502  0.00000000000E+00  0.00000000000E+00  0.33087974151E+03  0.33087974151E+03  0.00000000000E+00 0. -1.
         21   -1    0    0  501  503 -0.00000000000E+00 -0.00000000000E+00 -0.14248211133E+03  0.14248211133E+03  0.00000000000E+00 0. -1.
          6    1    1    2  501    0  0.27298400468E+02 -0.84557225474E+02 -0.12966946472E+02  0.19402904099E+03  0.17200000000E+03 0. -1.
         -6    1    1    2    0  502 -0.27298400468E+02  0.84557225474E+02  0.20136457665E+03  0.27933281185E+03  0.17200000000E+03 0. -1.
</event>
<event>
 4    1  0.4538619E+000  0.1950243E+03  0.7818608E-02  0.1154006E+00
         21   -1    0    0  501  502  0.00000000000E+00  0.00000000000E+00  0.18942882539E+03  0.18942882539E+03  0.00000000000E+00 0. -1.
         21   -1    0    0  502  503 -0.00000000000E+00 -0.00000000000E+00 -0.22341823270E+03  0.22341823270E+03  0.00000000000E+00 0. -1.
          6    1    1    2  501    0  0.84068789128E+02 -0.37187833897E+02  0.48706252219E+02  0.20101441565E+03  0.17200000000E+03 0.  1.
         -6    1    1    2    0  503 -0.84068789128E+02  0.37187833897E+02 -0.82695659532E+02  0.21183264243E+03  0.17200000000E+03 0.  1.
</event>
<event>
 4    1  0.4538619E+000  0.1864093E+03  0.7818608E-02  0.1161740E+00
         21   -1    0    0  503  502  0.00000000000E+00  0.00000000000E+00  0.55113691399E+02  0.55113691399E+02  0.00000000000E+00 0. -1.
         21   -1    0    0  501  503 -0.00000000000E+00 -0.00000000000E+00 -0.63141842063E+03  0.63141842063E+03  0.00000000000E+00 0.  1.
          6    1    1    2  501    0 -0.28177533685E+02 -0.66109283416E+02 -0.30134338825E+03  0.35433917142E+03  0.17200000000E+03 0. -1.
         -6    1    1    2    0  502  0.28177533685E+02  0.66109283416E+02 -0.27496134098E+03  0.33219294061E+03  0.17200000000E+03 0. -1.
</event>
<event>
 4    1  0.4538619E+000  0.1743912E+03  0.7818608E-02  0.1173344E+00
         21   -1    0    0  501  502  0.00000000000E+00  0.00000000000E+00  0.45577296182E+03  0.45577296182E+03  0.00000000000E+00 0. -1.
         21   -1    0    0  502  503 -0.00000000000E+00 -0.00000000000E+00 -0.26496403420E+03  0.26496403420E+03  0.00000000000E+00 0. -1.
          6    1    1    2  501    0 -0.18545084962E+02 -0.22008045411E+02  0.40711103916E+03  0.44289013587E+03  0.17200000000E+03 0. -1.
         -6    1    1    2    0  503  0.18545084962E+02  0.22008045411E+02 -0.21630211154E+03  0.27784686015E+03  0.17200000000E+03 0. -1.
</event>
<event>
 4    1  0.4538619E+000  0.1824158E+03  0.7818608E-02  0.1165485E+00
         21   -1    0    0  503  502  0.00000000000E+00  0.00000000000E+00  0.16176046712E+04  0.16176046712E+04  0.00000000000E+00 0.  1.
         21   -1    0    0  501  503 -0.00000000000E+00 -0.00000000000E+00 -0.27386984054E+02  0.27386984054E+02  0.00000000000E+00 0.  1.
          6    1    1    2  501    0  0.11610234284E+02  0.59638265646E+02  0.38478162952E+03  0.42583144868E+03  0.17200000000E+03 0.  1.
         -6    1    1    2    0  502 -0.11610234284E+02 -0.59638265646E+02  0.12054360576E+04  0.12191602066E+04  0.17200000000E+03 0.  1.
</event>
<event>
 4    1  0.4538619E+000  0.2570483E+03  0.7818608E-02  0.1108930E+00
         21   -1    0    0  501  502  0.00000000000E+00  0.00000000000E+00  0.14645757336E+04  0.14645757336E+04  0.00000000000E+00 0.  1.
         21   -1    0    0  502  503 -0.00000000000E+00 -0.00000000000E+00 -0.56306387405E+02  0.56306387405E+02  0.00000000000E+00 0. -1.
          6    1    1    2  501    0  0.16086896475E+03  0.10300980997E+03  0.10431623673E+04  0.10743656590E+04  0.17200000000E+03 0. -1.
         -6    1    1    2    0  503 -0.16086896475E+03 -0.10300980997E+03  0.36510697891E+03  0.44651646198E+03  0.17200000000E+03 0. -1.
</event>
<event>
 4    1  0.4538619E+000  0.1724549E+03  0.7818608E-02  0.1175312E+00
         21   -1    0    0  503  502  0.00000000000E+00  0.00000000000E+00  0.23245823561E+03  0.23245823561E+03  0.00000000000E+00 0. -1.
         21   -1    0    0  501  503 -0.00000000000E+00 -0.00000000000E+00 -0.33502344912E+03  0.33502344912E+03  0.00000000000E+00 0. -1.
          6    1    1    2  501    0 -0.19799426731E+01  0.12360170866E+02 -0.27436074076E+03  0.32405942367E+03  0.17200000000E+03 0. -1.
         -6    1    1    2    0  502  0.19799426731E+01 -0.12360170866E+02  0.17179552725E+03  0.24342226106E+03  0.17200000000E+03 0. -1.
</event>
<event>
 4    1  0.4538619E+000  0.1895218E+03  0.7818608E-02  0.1158893E+00
         21   -1    0    0  503  502  0.00000000000E+00  0.00000000000E+00  0.96210531439E+02  0.96210531439E+02  0.00000000000E+00 0. -1.
         21   -1    0    0  501  503 -0.00000000000E+00 -0.00000000000E+00 -0.43682089405E+03  0.43682089405E+03  0.00000000000E+00 0. -1.
          6    1    1    2  501    0 -0.53058512517E+02 -0.59323850301E+02 -0.27191087566E+03  0.33144237700E+03  0.17200000000E+03 0. -1.
         -6    1    1    2    0  502  0.53058512517E+02  0.59323850301E+02 -0.68699486948E+02  0.20158904849E+03  0.17200000000E+03 0. -1.
</event>
<event>
 4    1  0.4538619E+000  0.3144645E+03  0.7818608E-02  0.1078225E+00
         21   -1    0    0  503  502  0.00000000000E+00  0.00000000000E+00  0.10711993530E+04  0.10711993530E+04  0.00000000000E+00 0.  1.
         21   -1    0    0  501  503 -0.00000000000E+00 -0.00000000000E+00 -0.12852401565E+03  0.12852401565E+03  0.00000000000E+00 0. -1.
          6    1    1    2  501    0 -0.24762127316E+03  0.89373371987E+02  0.15294238070E+03  0.34968452404E+03  0.17200000000E+03 0. -1.
         -6    1    1    2    0  502  0.24762127316E+03 -0.89373371987E+02  0.78973295668E+03  0.85003884465E+03  0.17200000000E+03 0.  1.
</event>
<event>
 4    1  0.4538619E+000  0.1981646E+03  0.7818608E-02  0.1151297E+00
         21   -1    0    0  503  502  0.00000000000E+00  0.00000000000E+00  0.25333406247E+03  0.25333406247E+03  0.00000000000E+00 0.  1.
         21   -1    0    0  501  503 -0.00000000000E+00 -0.00000000000E+00 -0.16714855917E+03  0.16714855917E+03  0.00000000000E+00 0.  1.
          6    1    1    2  501    0 -0.91089891017E+02 -0.37253708419E+02 -0.13564798388E+02  0.19862832324E+03  0.17200000000E+03 0.  1.
         -6    1    1    2    0  502  0.91089891017E+02  0.37253708419E+02  0.99750301685E+02  0.22185429841E+03  0.17200000000E+03 0.  1.
</event>
<event>
 4    1  0.4538619E+000  0.2086562E+03  0.7818608E-02  0.1142635E+00
         21   -1    0    0  501  502  0.00000000000E+00  0.00000000000E+00  0.44446722010E+03  0.44446722010E+03  0.00000000000E+00 0.  1.
         21   -1    0    0  502  503 -0.00000000000E+00 -0.00000000000E+00 -0.12867808710E+03  0.12867808710E+03  0.00000000000E+00 0. -1.
          6    1    1    2  501    0  0.20815325662E+02 -0.11627603404E+03  0.29792457568E+03  0.36372578499E+03  0.17200000000E+03 0.  1.
         -6    1    1    2    0  503 -0.20815325662E+02  0.11627603404E+03  0.17864557317E+02  0.20941952221E+03  0.17200000000E+03 0. -1.
</event>
<event>
 4    1  0.4538619E+000  0.3561665E+03  0.7818608E-02  0.1060112E+00
         21   -1    0    0  503  502  0.00000000000E+00  0.00000000000E+00  0.16228933204E+04  0.16228933204E+04  0.00000000000E+00 0. -1.
         21   -1    0    0  501  503 -0.00000000000E+00 -0.00000000000E+00 -0.79644483884E+02  0.79644483884E+02  0.00000000000E+00 0.  1.
          6    1    1    2  501    0 -0.18112128267E+03 -0.25390086727E+03  0.65562832820E+03  0.74612537430E+03  0.17200000000E+03 0. -1.
         -6    1    1    2    0  502  0.18112128267E+03  0.25390086727E+03  0.88762050827E+03  0.95641242994E+03  0.17200000000E+03 0. -1.
</event>
<event>
 4    1  0.4538619E+000  0.2462983E+03  0.7818608E-02  0.1115667E+00
         21   -1    0    0  503  502  0.00000000000E+00  0.00000000000E+00  0.24336357251E+03  0.24336357251E+03  0.00000000000E+00 0.  1.
         21   -1    0    0  501  503 -0.00000000000E+00 -0.00000000000E+00 -0.26455001361E+03  0.26455001361E+03  0.00000000000E+00 0. -1.
          6    1    1    2  501    0 -0.16542231279E+03  0.60945140854E+02 -0.71629822499E+02  0.25650279381E+03  0.17200000000E+03 0. -1.
         -6    1    1    2    0  502  0.16542231279E+03 -0.60945140854E+02  0.50443381403E+02  0.25141079231E+03  0.17200000000E+03 0.  1.
</event>
<event>
 4    1  0.4538619E+000  0.2058705E+03  0.7818608E-02  0.1144879E+00
         21   -1    0    0  501  502  0.00000000000E+00  0.00000000000E+00  0.54324348448E+03  0.54324348448E+03  0.00000000000E+00 0.  1.
         21   -1    0    0  502  503 -0.00000000000E+00 -0.00000000000E+00 -0.12874643641E+03  0.12874643641E+03  0.00000000000E+00 0.  1.
          6    1    1    2  501    0  0.97879636468E+02 -0.56729391826E+02  0.41815594581E+03  0.46608694698E+03  0.17200000000E+03 0.  1.
         -6    1    1    2    0  503 -0.97879636468E+02  0.56729391826E+02 -0.36588977350E+01  0.20590297391E+03  0.17200000000E+03 0.  1.
</event>
<event>
 4    1  0.4538619E+000  0.1936538E+03  0.7818608E-02  0.1155206E+00
         21   -1    0    0  503  502  0.00000000000E+00  0.00000000000E+00  0.28772976160E+03  0.28772976160E+03  0.00000000000E+00 0. -1.
         21   -1    0    0  501  503 -0.00000000000E+00 -0.00000000000E+00 -0.14596732943E+03  0.14596732943E+03  0.00000000000E+00 0. -1.
          6    1    1    2  501    0 -0.38633869416E+02  0.80157551692E+02 -0.78840643026E-01  0.19365385402E+03  0.17200000000E+03 0. -1.
         -6    1    1    2    0  502  0.38633869416E+02 -0.80157551692E+02  0.14184127281E+03  0.24004323701E+03  0.17200000000E+03 0. -1.
</event>
<event>
 4    1  0.4538619E+000  0.2103938E+03  0.7818608E-02  0.1141255E+00
         21   -1    0    0  503  502  0.00000000000E+00  0.00000000000E+00  0.72747999104E+03  0.72747999104E+03  0.00000000000E+00 0.  1.
         21   -1    0    0  501  503 -0.00000000000E+00 -0.00000000000E+00 -0.77300481505E+02  0.77300481505E+02  0.00000000000E+00 0. -1.
          6    1    1    2  501    0 -0.87077100153E+02  0.84256359677E+02  0.13944840950E+03  0.25241120107E+03  0.17200000000E+03 0. -1.
         -6    1    1    2    0  502  0.87077100153E+02 -0.84256359677E+02  0.51073110004E+03  0.55236927147E+03  0.17200000000E+03 0.  1.
</event>
<event>
 4    1  0.4538619E+000  0.2349459E+03  0.7818608E-02  0.1123206E+00
         21   -1    0    0  503  502  0.00000000000E+00  0.00000000000E+00  0.11512200347E+04  0.11512200347E+04  0.00000000000E+00 0. -1.
         21   -1    0    0  501  503 -0.00000000000E+00 -0.00000000000E+00 -0.10700980875E+03  0.10700980875E+03  0.00000000000E+00 0. -1.
          6    1    1    2  501    0 -0.73511434533E+02 -0.14216767426E+03  0.54726589732E+02  0.24123552441E+03  0.17200000000E+03 0. -1.
         -6    1    1    2    0  502  0.73511434533E+02  0.14216767426E+03  0.98948363623E+03  0.10169943190E+04  0.17200000000E+03 0. -1.
</event>
<event>
 4    1  0.4538619E+000  0.1796273E+03  0.7818608E-02  0.1168164E+00
         21   -1    0    0  501  502  0.00000000000E+00  0.00000000000E+00  0.14280832346E+04  0.14280832346E+04  0.00000000000E+00 0. -1.
         21   -1    0    0  502  503 -0.00000000000E+00 -0.00000000000E+00 -0.24803942999E+02  0.24803942999E+02  0.00000000000E+00 0. -1.
          6    1    1    2  501    0 -0.26837926343E+02  0.44290969920E+02  0.91848108063E+03  0.93588111413E+03  0.17200000000E+03 0. -1.
         -6    1    1    2    0  503  0.26837926343E+02 -0.44290969920E+02  0.48479821101E+03  0.51700606351E+03  0.17200000000E+03 0. -1.
</event>
<event>
 4    1  0.4538619E+000  0.2402799E+03  0.7818608E-02  0.1119606E+00
         21   -1    0    0  501  502  0.00000000000E+00  0.00000000000E+00  0.20262307561E+03  0.20262307561E+03  0.00000000000E+00 0. -1.
         21   -1    0    0  502  503 -0.00000000000E+00 -0.00000000000E+00 -0.34912064322E+03  0.34912064322E+03  0.00000000000E+00 0.  1.
          6    1    1    2  501    0 -0.15585312303E+03 -0.62130852172E+02  0.45038494851E+02  0.24446452661E+03  0.17200000000E+03 0. -1.
         -6    1    1    2    0  503  0.15585312303E+03  0.62130852172E+02 -0.19153606246E+03  0.30727919222E+03  0.17200000000E+03 0.  1.
</event>
<event>
 4    1  0.4538619E+000  0.2662663E+03  0.7818608E-02  0.1103436E+00
         21   -1    0    0  501  502  0.00000000000E+00  0.00000000000E+00  0.15261843524E+03  0.15261843524E+03  0.00000000000E+00 0. -1.
         21   -1    0    0  502  503 -0.00000000000E+00 -0.00000000000E+00 -0.59026326746E+03  0.59026326746E+03  0.00000000000E+00 0. -1.
          6    1    1    2  501    0  0.20085052645E+03 -0.31189498384E+02 -0.47398802384E+02  0.27045214966E+03  0.17200000000E+03 0. -1.
         -6    1    1    2    0  503 -0.20085052645E+03  0.31189498384E+02 -0.39024602984E+03  0.47242955304E+03  0.17200000000E+03 0. -1.
</event>
<event>
 4    1  0.4538619E+000  0.1859156E+03  0.7818608E-02  0.1162198E+00
         21   -1    0    0  503  502  0.00000000000E+00  0.00000000000E+00  0.16022742433E+04  0.16022742433E+04  0.00000000000E+00 0. -1.
         21   -1    0    0  501  503 -0.00000000000E+00 -0.00000000000E+00 -0.21572222442E+02  0.21572222442E+02  0.00000000000E+00 0. -1.
          6    1    1    2  501    0 -0.66458165096E+02  0.23747125914E+02  0.79057761749E+03  0.81214381914E+03  0.17200000000E+03 0. -1.
         -6    1    1    2    0  502  0.66458165096E+02 -0.23747125914E+02  0.79012440337E+03  0.81170264660E+03  0.17200000000E+03 0. -1.
</event>
<event>
 4    1  0.4538619E+000  0.1961480E+03  0.7818608E-02  0.1153030E+00
         21   -1    0    0  503  502  0.00000000000E+00  0.00000000000E+00  0.31106240591E+03  0.31106240591E+03  0.00000000000E+00 0. -1.
         21   -1    0    0  501  503 -0.00000000000E+00 -0.00000000000E+00 -0.12563306398E+03  0.12563306398E+03  0.00000000000E+00 0. -1.
          6    1    1    2  501    0  0.82324371002E+02  0.45964515846E+02  0.65531749283E+02  0.20680534070E+03  0.17200000000E+03 0. -1.
         -6    1    1    2    0  502 -0.82324371002E+02 -0.45964515846E+02  0.11989759265E+03  0.22989012920E+03  0.17200000000E+03 0. -1.
</event>
<event>
 4    1  0.4538619E+000  0.1729638E+03  0.7818608E-02  0.1174792E+00
         21   -1    0    0  503  502  0.00000000000E+00  0.00000000000E+00  0.19838932266E+03  0.19838932266E+03  0.00000000000E+00 0.  1.
         21   -1    0    0  501  503 -0.00000000000E+00 -0.00000000000E+00 -0.15106292081E+03  0.15106292081E+03  0.00000000000E+00 0.  1.
          6    1    1    2  501    0  0.15192371228E+01 -0.18170302063E+02  0.30997309318E+02  0.17571938181E+03  0.17200000000E+03 0.  1.
         -6    1    1    2    0  502 -0.15192371228E+01  0.18170302063E+02  0.16329092534E+02  0.17373286166E+03  0.17200000000E+03 0.  1.
</event>
<event>
 4    1  0.4538619E+000  0.1986300E+03  0.7818608E-02  0.1150900E+00
         21   -1    0    0  503  502  0.00000000000E+00  0.00000000000E+00  0.96338844561E+02  0.96338844561E+02  0.00000000000E+00 0.  1.
         21   -1    0    0  501  503 -0.00000000000E+00 -0.00000000000E+00 -0.40960500685E+03  0.40960500685E+03  0.00000000000E+00 0.  1.
          6    1    1    2  501    0  0.80112796333E+02 -0.58752085125E+02 -0.16000367803E+03  0.25505890423E+03  0.17200000000E+03 0.  1.
         -6    1    1    2    0  502 -0.80112796333E+02  0.58752085125E+02 -0.15326248426E+03  0.25088494719E+03  0.17200000000E+03 0.  1.
</event>
<event>
 4    1  0.4538619E+000  0.1750009E+03  0.7818608E-02  0.1172731E+00
         21   -1    0    0  503  502  0.00000000000E+00  0.00000000000E+00  0.72320691056E+03  0.72320691056E+03  0.00000000000E+00 0.  1.
         21   -1    0    0  501  503 -0.00000000000E+00 -0.00000000000E+00 -0.24586478647E+03  0.24586478647E+03  0.00000000000E+00 0.  1.
          6    1    1    2  501    0  0.20147500370E+02 -0.25206948107E+02 -0.20216734205E+03  0.26738912879E+03  0.17200000000E+03 0.  1.
         -6    1    1    2    0  502 -0.20147500370E+02  0.25206948107E+02  0.67950946614E+03  0.70168256824E+03  0.17200000000E+03 0.  1.
</event>
<event>
 4    1  0.4538619E+000  0.1995283E+03  0.7818608E-02  0.1150138E+00
         21   -1    0    0  501  502  0.00000000000E+00  0.00000000000E+00  0.65771846791E+02  0.65771846791E+02  0.00000000000E+00 0.  1.
         21   -1    0    0  502  503 -0.00000000000E+00 -0.00000000000E+00 -0.81062649123E+03  0.81062649123E+03  0.00000000000E+00 0. -1.
          6    1    1    2  501    0  0.65637003702E+01  0.10091806018E+03 -0.15188789190E+03  0.25076177687E+03  0.17200000000E+03 0.  1.
         -6    1    1    2    0  503 -0.65637003702E+01 -0.10091806018E+03 -0.59296675253E+03  0.62563656115E+03  0.17200000000E+03 0. -1.
</event>
<event>
 4    1  0.4538619E+000  0.2181554E+03  0.7818608E-02  0.1135266E+00
         21   -1    0    0  501  502  0.00000000000E+00  0.00000000000E+00  0.10235580555E+04  0.10235580555E+04  0.00000000000E+00 0. -1.
         21   -1    0    0  502  503 -0.00000000000E+00 -0.00000000000E+00 -0.78483265231E+02  0.78483265231E+02  0.00000000000E+00 0. -1.
          6    1    1    2  501    0 -0.98452103494E+02  0.91186367115E+02  0.82431254394E+03  0.85269158570E+03  0.17200000000E+03 0. -1.
         -6    1    1    2    0  503  0.98452103494E+02 -0.91186367115E+02  0.12076224636E+03  0.24934973506E+03  0.17200000000E+03 0. -1.
</event>
<event>
 4    1  0.4538619E+000  0.1739686E+03  0.7818608E-02  0.1173771E+00
         21   -1    0    0  503  502  0.00000000000E+00  0.00000000000E+00  0.66272147752E+03  0.66272147752E+03  0.00000000000E+00 0.  1.
         21   -1    0    0  501  503 -0.00000000000E+00 -0.00000000000E+00 -0.45681362871E+02  0.45681362871E+02  0.00000000000E+00 0.  1.
          6    1    1    2  501    0 -0.29406100835E+01  0.25930935228E+02  0.31461349213E+03  0.35950898461E+03  0.17200000000E+03 0. -1.
         -6    1    1    2    0  502  0.29406100835E+01 -0.25930935228E+02  0.30242662252E+03  0.34889385578E+03  0.17200000000E+03 0. -1.
</event>
<event>
 4    1  0.4538619E+000  0.1818446E+03  0.7818608E-02  0.1166030E+00
         21   -1    0    0  503  502  0.00000000000E+00  0.00000000000E+00  0.58226435319E+02  0.58226435319E+02  0.00000000000E+00 0.  1.
         21   -1    0    0  501  503 -0.00000000000E+00 -0.00000000000E+00 -0.58472691542E+03  0.58472691542E+03  0.00000000000E+00 0.  1.
          6    1    1    2  501    0  0.53407565282E+02 -0.25121201243E+02 -0.20873335447E+03  0.27683398645E+03  0.17200000000E+03 0. -1.
         -6    1    1    2    0  502 -0.53407565282E+02  0.25121201243E+02 -0.31776712563E+03  0.36611936430E+03  0.17200000000E+03 0. -1.
</event>
<event>
 4    1  0.4538619E+000  0.1816985E+03  0.7818608E-02  0.1166169E+00
         21   -1    0    0  503  502  0.00000000000E+00  0.00000000000E+00  0.78295698702E+03  0.78295698702E+03  0.00000000000E+00 0. -1.
         21   -1    0    0  501  503 -0.00000000000E+00 -0.00000000000E+00 -0.86874794892E+02  0.86874794892E+02  0.00000000000E+00 0. -1.
          6    1    1    2  501    0  0.55510212612E+02  0.18680194174E+02  0.36041656906E+02  0.18523858775E+03  0.17200000000E+03 0. -1.
         -6    1    1    2    0  502 -0.55510212612E+02 -0.18680194174E+02  0.66004053522E+03  0.68459319416E+03  0.17200000000E+03 0. -1.
</event>
<event>
 4    1  0.4538619E+000  0.2470725E+03  0.7818608E-02  0.1115169E+00
         21   -1    0    0  501  502  0.00000000000E+00  0.00000000000E+00  0.14699928360E+04  0.14699928360E+04  0.00000000000E+00 0. -1.
         21   -1    0    0  502  503 -0.00000000000E+00 -0.00000000000E+00 -0.57604913401E+02  0.57604913401E+02  0.00000000000E+00 0.  1.
          6    1    1    2  501    0  0.16522778642E+03 -0.64502797694E+02  0.11097093034E+04  0.11368815112E+04  0.17200000000E+03 0. -1.
         -6    1    1    2    0  503 -0.16522778642E+03  0.64502797694E+02  0.30267861917E+03  0.39071623823E+03  0.17200000000E+03 0.  1.
</event>
<event>
 4    1  0.4538619E+000  0.1760827E+03  0.7818608E-02  0.1171649E+00
         21   -1    0    0  503  502  0.00000000000E+00  0.00000000000E+00  0.10317928095E+04  0.10317928095E+04  0.00000000000E+00 0.  1.
         21   -1    0    0  501  503 -0.00000000000E+00 -0.00000000000E+00 -0.16833714835E+03  0.16833714835E+03  0.00000000000E+00 0.  1.
          6    1    1    2  501    0  0.34459130063E+02 -0.15286840544E+02 -0.11214779580E+03  0.20876361570E+03  0.17200000000E+03 0.  1.
         -6    1    1    2    0  502 -0.34459130063E+02  0.15286840544E+02  0.97560345695E+03  0.99136634216E+03  0.17200000000E+03 0.  1.
</event>
<event>
 4    1  0.4538619E+000  0.2044596E+03  0.7818608E-02  0.1146030E+00
         21   -1    0    0  501  502  0.00000000000E+00  0.00000000000E+00  0.14392681807E+03  0.14392681807E+03  0.00000000000E+00 0.  1.
         21   -1    0    0  502  503 -0.00000000000E+00 -0.00000000000E+00 -0.64440386589E+03  0.64440386589E+03  0.00000000000E+00 0. -1.
          6    1    1    2  501    0  0.73379914036E+02  0.82674864595E+02  0.41888571821E+02  0.20870648641E+03  0.17200000000E+03 0.  1.
         -6    1    1    2    0  503 -0.73379914036E+02 -0.82674864595E+02 -0.54236561964E+03  0.57962419755E+03  0.17200000000E+03 0. -1.
</event>
<event>
 4    1  0.4538619E+000  0.2927150E+03  0.7818608E-02  0.1088940E+00
         21   -1    0    0  501  502  0.00000000000E+00  0.00000000000E+00  0.73328804814E+03  0.73328804814E+03  0.00000000000E+00 0.  1.
         21   -1    0    0  502  503 -0.00000000000E+00 -0.00000000000E+00 -0.11849324560E+03  0.11849324560E+03  0.00000000000E+00 0.  1.
          6    1    1    2  501    0 -0.76012617025E+02 -0.22432153083E+03  0.35760598913E+03  0.46212997155E+03  0.17200000000E+03 0.  1.
         -6    1    1    2    0  503  0.76012617025E+02  0.22432153083E+03  0.25718881341E+03  0.38965132219E+03  0.17200000000E+03 0.  1.
</event>
<event>
 4    1  0.4538619E+000  0.3083629E+03  0.7818608E-02  0.1081133E+00
         21   -1    0    0  503  502  0.00000000000E+00  0.00000000000E+00  0.22274358416E+03  0.22274358416E+03  0.00000000000E+00 0. -1.
         21   -1    0    0  501  503 -0.00000000000E+00 -0.00000000000E+00 -0.42733682352E+03  0.42733682352E+03  0.00000000000E+00 0.  1.
          6    1    1    2  501    0  0.18078804291E+03 -0.18116109507E+03 -0.91820589886E+02  0.32174318882E+03  0.17200000000E+03 0. -1.
         -6    1    1    2    0  502 -0.18078804291E+03  0.18116109507E+03 -0.11277264947E+03  0.32833721887E+03  0.17200000000E+03 0. -1.
</event>
<event>
 4    1  0.4538619E+000  0.2338464E+03  0.7818608E-02  0.1123961E+00
         21   -1    0    0  503  502  0.00000000000E+00  0.00000000000E+00  0.17022058691E+03  0.17022058691E+03  0.00000000000E+00 0. -1.
         21   -1    0    0  501  503 -0.00000000000E+00 -0.00000000000E+00 -0.61186637172E+03  0.61186637172E+03  0.00000000000E+00 0. -1.
          6    1    1    2  501    0 -0.12601383237E+03 -0.96024350812E+02 -0.49031949191E+03  0.54322864988E+03  0.17200000000E+03 0. -1.
         -6    1    1    2    0  502  0.12601383237E+03  0.96024350812E+02  0.48673707100E+02  0.23885830876E+03  0.17200000000E+03 0. -1.
</event>
<event>
 4    1  0.4538619E+000  0.1814355E+03  0.7818608E-02  0.1166421E+00
         21   -1    0    0  501  502  0.00000000000E+00  0.00000000000E+00  0.44643169818E+03  0.44643169818E+03  0.00000000000E+00 0. -1.
         21   -1    0    0  502  503 -0.00000000000E+00 -0.00000000000E+00 -0.82425743482E+02  0.82425743482E+02  0.00000000000E+00 0.  1.
          6    1    1    2  501    0  0.48972401120E+02 -0.30603051840E+02  0.26785260027E+03  0.32351794127E+03  0.17200000000E+03 0. -1.
         -6    1    1    2    0  503 -0.48972401120E+02  0.30603051840E+02  0.96153354430E+02  0.20533950039E+03  0.17200000000E+03 0.  1.
</event>
<event>
 4    1  0.4538619E+000  0.2197850E+03  0.7818608E-02  0.1134043E+00
         21   -1    0    0  503  502  0.00000000000E+00  0.00000000000E+00  0.50160330825E+02  0.50160330825E+02  0.00000000000E+00 0. -1.
         21   -1    0    0  501  503 -0.00000000000E+00 -0.00000000000E+00 -0.15174855170E+04  0.15174855170E+04  0.00000000000E+00 0.  1.
          6    1    1    2  501    0 -0.10219915128E+03 -0.90976779598E+02 -0.12074599664E+04  0.12272998865E+04  0.17200000000E+03 0.  1.
         -6    1    1    2    0  502  0.10219915128E+03  0.90976779598E+02 -0.25986521983E+03  0.34034596138E+03  0.17200000000E+03 0. -1.
</event>
<event>
 4    1  0.4538619E+000  0.1818839E+03  0.7818608E-02  0.1165992E+00
         21   -1    0    0  501  502  0.00000000000E+00  0.00000000000E+00  0.23659643890E+03  0.23659643890E+03  0.00000000000E+00 0. -1.
         21   -1    0    0  502  503 -0.00000000000E+00 -0.00000000000E+00 -0.14000422784E+03  0.14000422784E+03  0.00000000000E+00 0.  1.
          6    1    1    2  501    0  0.43854513478E+02 -0.39680633389E+02  0.55059216516E+02  0.19003496610E+03  0.17200000000E+03 0.  1.
         -6    1    1    2    0  503 -0.43854513478E+02  0.39680633389E+02  0.41532994544E+02  0.18656570064E+03  0.17200000000E+03 0.  1.
</event>
<event>
 4    1  0.4538619E+000  0.2516899E+03  0.7818608E-02  0.1112241E+00
         21   -1    0    0  503  502  0.00000000000E+00  0.00000000000E+00  0.10713010679E+03  0.10713010679E+03  0.00000000000E+00 0. -1.
         21   -1    0    0  501  503 -0.00000000000E+00 -0.00000000000E+00 -0.90221597044E+03  0.90221597044E+03  0.00000000000E+00 0. -1.
          6    1    1    2  501    0 -0.88980258775E+02  0.16076788570E+03 -0.69379735385E+03  0.73803967897E+03  0.17200000000E+03 0. -1.
         -6    1    1    2    0  502  0.88980258775E+02 -0.16076788570E+03 -0.10128850980E+03  0.27130639827E+03  0.17200000000E+03 0. -1.
</event>
<event>
 4    1  0.4538619E+000  0.1756023E+03  0.7818608E-02  0.1172128E+00
         21   -1    0    0  501  502  0.00000000000E+00  0.00000000000E+00  0.56531160174E+02  0.56531160174E+02  0.00000000000E+00 0. -1.
         21   -1    0    0  502  503 -0.00000000000E+00 -0.00000000000E+00 -0.58408022729E+03  0.58408022729E+03  0.00000000000E+00 0. -1.
          6    1    1    2  501    0 -0.35134132579E+02 -0.42162377720E+01 -0.18142399311E+03  0.25248930514E+03  0.17200000000E+03 0. -1.
         -6    1    1    2    0  503  0.35134132579E+02  0.42162377720E+01 -0.34612507400E+03  0.38812208232E+03  0.17200000000E+03 0. -1.
</event>
<event>
 4    1  0.4538619E+000  0.1768288E+03  0.7818608E-02  0.1170908E+00
         21   -1    0    0  503  502  0.00000000000E+00  0.00000000000E+00  0.48797161782E+03  0.48797161782E+03  0.00000000000E+00 0.  1.
         21   -1    0    0  501  503 -0.00000000000E+00 -0.00000000000E+00 -0.65967358320E+02  0.65967358320E+02  0.00000000000E+00 0.  1.
          6    1    1    2  501    0 -0.19173395256E+02 -0.36287780774E+02  0.16413343024E+03  0.24126376653E+03  0.17200000000E+03 0.  1.
         -6    1    1    2    0  502  0.19173395256E+02  0.36287780774E+02  0.25787082926E+03  0.31267520961E+03  0.17200000000E+03 0.  1.
</event>
<event>
 4    1  0.4538619E+000  0.1997218E+03  0.7818608E-02  0.1149974E+00
         21   -1    0    0  503  502  0.00000000000E+00  0.00000000000E+00  0.63776440276E+02  0.63776440276E+02  0.00000000000E+00 0. -1.
         21   -1    0    0  501  503 -0.00000000000E+00 -0.00000000000E+00 -0.19153326031E+04  0.19153326031E+04  0.00000000000E+00 0. -1.
          6    1    1    2  501    0  0.10065957386E+03 -0.13131242103E+02 -0.17378476479E+04  0.17492864907E+04  0.17200000000E+03 0. -1.
         -6    1    1    2    0  502 -0.10065957386E+03  0.13131242103E+02 -0.11370851488E+03  0.22982255260E+03  0.17200000000E+03 0. -1.
</event>
<event>
 4    1  0.4538619E+000  0.2090571E+03  0.7818608E-02  0.1142315E+00
         21   -1    0    0  503  502  0.00000000000E+00  0.00000000000E+00  0.93197676533E+03  0.93197676533E+03  0.00000000000E+00 0.  1.
         21   -1    0    0  501  503 -0.00000000000E+00 -0.00000000000E+00 -0.48842582115E+02  0.48842582115E+02  0.00000000000E+00 0. -1.
          6    1    1    2  501    0  0.11862583640E+03 -0.69842106676E+01  0.34363401464E+03  0.40223028762E+03  0.17200000000E+03 0. -1.
         -6    1    1    2    0  502 -0.11862583640E+03  0.69842106676E+01  0.53950016858E+03  0.57858905983E+03  0.17200000000E+03 0.  1.
</event>
<event>
 4    1  0.4538619E+000  0.1912266E+03  0.7818608E-02  0.1157360E+00
         21   -1    0    0  503  502  0.00000000000E+00  0.00000000000E+00  0.48010168593E+02  0.48010168593E+02  0.00000000000E+00 0. -1.
         21   -1    0    0  501  503 -0.00000000000E+00 -0.00000000000E+00 -0.83492287071E+03  0.83492287071E+03  0.00000000000E+00 0. -1.
          6    1    1    2  501    0  0.45885096042E+02 -0.69843880106E+02 -0.52422545929E+03  0.55801428458E+03  0.17200000000E+03 0. -1.
         -6    1    1    2    0  502 -0.45885096042E+02  0.69843880106E+02 -0.26268724283E+03  0.32491875473E+03  0.17200000000E+03 0. -1.
</event>
<event>
 4    1  0.4538619E+000  0.2543780E+03  0.7818608E-02  0.1110569E+00
         21   -1    0    0  503  502  0.00000000000E+00  0.00000000000E+00  0.37829650893E+03  0.37829650893E+03  0.00000000000E+00 0. -1.
         21   -1    0    0  501  503 -0.00000000000E+00 -0.00000000000E+00 -0.40898133917E+03  0.40898133917E+03  0.00000000000E+00 0.  1.
          6    1    1    2  501    0  0.18700586488E+03  0.12367249098E+02 -0.31558400342E+03  0.40534109780E+03  0.17200000000E+03 0.  1.
         -6    1    1    2    0  502 -0.18700586488E+03 -0.12367249098E+02  0.28489917318E+03  0.38193675030E+03  0.17200000000E+03 0. -1.
</event>
<event>
 4    1  0.4538619E+000  0.1905456E+03  0.7818608E-02  0.1157970E+00
         21   -1    0    0  503  502  0.00000000000E+00  0.00000000000E+00  0.31297708042E+03  0.31297708042E+03  0.00000000000E+00 0. -1.
         21   -1    0    0  501  503 -0.00000000000E+00 -0.00000000000E+00 -0.23153496050E+03  0.23153496050E+03  0.00000000000E+00 0. -1.
          6    1    1    2  501    0  0.56208280516E+02  0.59701498858E+02 -0.15159347588E+03  0.24349172818E+03  0.17200000000E+03 0. -1.
         -6    1    1    2    0  502 -0.56208280516E+02 -0.59701498858E+02  0.23303559580E+03  0.30102031273E+03  0.17200000000E+03 0. -1.
</event>
<event>
 4    1  0.4538619E+000  0.2056843E+03  0.7818608E-02  0.1145030E+00
         21   -1    0    0  503  502  0.00000000000E+00  0.00000000000E+00  0.11154208356E+04  0.11154208356E+04  0.00000000000E+00 0. -1.
         21   -1    0    0  501  503 -0.00000000000E+00 -0.00000000000E+00 -0.65505528917E+02  0.65505528917E+02  0.00000000000E+00 0.  1.
          6    1    1    2  501    0  0.76106050783E+02 -0.83245956875E+02  0.14184267970E+03  0.24985068759E+03  0.17200000000E+03 0.  1.
         -6    1    1    2    0  502 -0.76106050783E+02  0.83245956875E+02  0.90807262697E+03  0.93107567693E+03  0.17200000000E+03 0. -1.
</event>
<event>
 4    1  0.4538619E+000  0.2091043E+03  0.7818608E-02  0.1142277E+00
         21   -1    0    0  503  502  0.00000000000E+00  0.00000000000E+00  0.84954448685E+02  0.84954448685E+02  0.00000000000E+00 0.  1.
         21   -1    0    0  501  503 -0.00000000000E+00 -0.00000000000E+00 -0.55931511824E+03  0.55931511824E+03  0.00000000000E+00 0.  1.
          6    1    1    2  501    0 -0.34903858423E+01 -0.11886312925E+03 -0.32817840624E+03  0.38913454307E+03  0.17200000000E+03 0.  1.
         -6    1    1    2    0  502  0.34903858423E+01  0.11886312925E+03 -0.14618226331E+03  0.25513502385E+03  0.17200000000E+03 0.  1.
</event>
<event>
 4    1  0.4538619E+000  0.1804211E+03  0.7818608E-02  0.1167396E+00
         21   -1    0    0  501  502  0.00000000000E+00  0.00000000000E+00  0.51747059804E+03  0.51747059804E+03  0.00000000000E+00 0.  1.
         21   -1    0    0  502  503 -0.00000000000E+00 -0.00000000000E+00 -0.93229537217E+02  0.93229537217E+02  0.00000000000E+00 0.  1.
          6    1    1    2  501    0  0.30049783989E+02  0.45439833484E+02  0.38626691890E+03  0.42632604966E+03  0.17200000000E+03 0.  1.
         -6    1    1    2    0  503 -0.30049783989E+02 -0.45439833484E+02  0.37974141927E+02  0.18437408560E+03  0.17200000000E+03 0.  1.
</event>
<event>
 4    1  0.4538619E+000  0.2924413E+03  0.7818608E-02  0.1089081E+00
         21   -1    0    0  501  502  0.00000000000E+00  0.00000000000E+00  0.26766967120E+03  0.26766967120E+03  0.00000000000E+00 0. -1.
         21   -1    0    0  502  503 -0.00000000000E+00 -0.00000000000E+00 -0.32084943658E+03  0.32084943658E+03  0.00000000000E+00 0. -1.
          6    1    1    2  501    0 -0.18876823867E+03  0.14249365115E+03 -0.75442403616E+01  0.29253855150E+03  0.17200000000E+03 0. -1.
         -6    1    1    2    0  503  0.18876823867E+03 -0.14249365115E+03 -0.45635525020E+02  0.29598055628E+03  0.17200000000E+03 0. -1.
</event>
<event>
 4    1  0.4538619E+000  0.1725080E+03  0.7818608E-02  0.1175257E+00
         21   -1    0    0  501  502  0.00000000000E+00  0.00000000000E+00  0.17296351030E+03  0.17296351030E+03  0.00000000000E+00 0. -1.
         21   -1    0    0  502  503 -0.00000000000E+00 -0.00000000000E+00 -0.22952783108E+03  0.22952783108E+03  0.00000000000E+00 0. -1.
          6    1    1    2  501    0 -0.78034160611E+01  0.10682192639E+02  0.72421505811E+02  0.18709323089E+03  0.17200000000E+03 0. -1.
         -6    1    1    2    0  503  0.78034160611E+01 -0.10682192639E+02 -0.12898582659E+03  0.21539811049E+03  0.17200000000E+03 0. -1.
</event>
<event>
 4    1  0.4538619E+000  0.2042788E+03  0.7818608E-02  0.1146178E+00
         21   -1    0    0  501  502  0.00000000000E+00  0.00000000000E+00  0.40218651391E+03  0.40218651391E+03  0.00000000000E+00 0.  1.
         21   -1    0    0  502  503 -0.00000000000E+00 -0.00000000000E+00 -0.38909034064E+03  0.38909034064E+03  0.00000000000E+00 0. -1.
          6    1    1    2  501    0 -0.88766820858E+02 -0.65316860205E+02  0.34535258843E+03  0.40124587356E+03  0.17200000000E+03 0.  1.
         -6    1    1    2    0  503  0.88766820858E+02  0.65316860205E+02 -0.33225641517E+03  0.39003098099E+03  0.17200000000E+03 0. -1.
</event>
<event>
 4    1  0.4538619E+000  0.1721793E+03  0.7818608E-02  0.1175594E+00
         21   -1    0    0  501  502  0.00000000000E+00  0.00000000000E+00  0.26702733447E+03  0.26702733447E+03  0.00000000000E+00 0.  1.
         21   -1    0    0  502  503 -0.00000000000E+00 -0.00000000000E+00 -0.14009671484E+03  0.14009671484E+03  0.00000000000E+00 0.  1.
          6    1    1    2  501    0 -0.60836477395E+01 -0.49708203253E+01  0.15620076359E+03  0.23247451123E+03  0.17200000000E+03 0.  1.
         -6    1    1    2    0  503  0.60836477395E+01  0.49708203253E+01 -0.29270143959E+02  0.17464953808E+03  0.17200000000E+03 0.  1.
</event>
<event>
 4    1  0.4538619E+000  0.2868352E+03  0.7818608E-02  0.1092013E+00
         21   -1    0    0  501  502  0.00000000000E+00  0.00000000000E+00  0.15415200057E+03  0.15415200057E+03  0.00000000000E+00 0.  1.
         21   -1    0    0  502  503 -0.00000000000E+00 -0.00000000000E+00 -0.71103777253E+03  0.71103777253E+03  0.00000000000E+00 0. -1.
          6    1    1    2  501    0 -0.21715193538E+03  0.74400760394E+02 -0.62416022891E+02  0.29354760449E+03  0.17200000000E+03 0.  1.
         -6    1    1    2    0  503  0.21715193538E+03 -0.74400760394E+02 -0.49446974907E+03  0.57164216861E+03  0.17200000000E+03 0. -1.
</event>
<event>
 4    1  0.4538619E+000  0.2496462E+03  0.7818608E-02  0.1113529E+00
         21   -1    0    0  503  502  0.00000000000E+00  0.00000000000E+00  0.19480455127E+03  0.19480455127E+03  0.00000000000E+00 0. -1.
         21   -1    0    0  501  503 -0.00000000000E+00 -0.00000000000E+00 -0.32083382908E+03  0.32083382908E+03  0.00000000000E+00 0.  1.
          6    1    1    2  501    0 -0.93194435071E+02  0.15509359718E+03 -0.49307430403E+02  0.25446895549E+03  0.17200000000E+03 0. -1.
         -6    1    1    2    0  502  0.93194435071E+02 -0.15509359718E+03 -0.76721847405E+02  0.26116942486E+03  0.17200000000E+03 0.  1.
</event>
<event>
 4    1  0.4538619E+000  0.2611570E+03  0.7818608E-02  0.1106450E+00
         21   -1    0    0  501  502  0.00000000000E+00  0.00000000000E+00  0.23296723381E+03  0.23296723381E+03  0.00000000000E+00 0. -1.
         21   -1    0    0  502  503 -0.00000000000E+00 -0.00000000000E+00 -0.37428634156E+03  0.37428634156E+03  0.00000000000E+00 0.  1.
          6    1    1    2  501    0  0.10355549837E+03 -0.16701869866E+03 -0.21236703995E+03  0.33660473348E+03  0.17200000000E+03 0. -1.
         -6    1    1    2    0  503 -0.10355549837E+03  0.16701869866E+03  0.71047932202E+02  0.27064884189E+03  0.17200000000E+03 0. -1.
</event>
<event>
 4    1  0.4538619E+000  0.1908100E+03  0.7818608E-02  0.1157733E+00
         21   -1    0    0  501  502  0.00000000000E+00  0.00000000000E+00  0.13035741017E+03  0.13035741017E+03  0.00000000000E+00 0. -1.
         21   -1    0    0  502  503 -0.00000000000E+00 -0.00000000000E+00 -0.29269600811E+03  0.29269600811E+03  0.00000000000E+00 0.  1.
          6    1    1    2  501    0  0.78158230427E+02  0.26753785143E+02 -0.35912053928E+02  0.19416011336E+03  0.17200000000E+03 0. -1.
         -6    1    1    2    0  503 -0.78158230427E+02 -0.26753785143E+02 -0.12642654401E+03  0.22889330491E+03  0.17200000000E+03 0.  1.
</event>
<event>
 4    1  0.4538619E+000  0.2734029E+03  0.7818608E-02  0.1099348E+00
         21   -1    0    0  503  502  0.00000000000E+00  0.00000000000E+00  0.10255965684E+04  0.10255965684E+04  0.00000000000E+00 0. -1.
         21   -1    0    0  501  503 -0.00000000000E+00 -0.00000000000E+00 -0.74110472040E+02  0.74110472040E+02  0.00000000000E+00 0. -1.
          6    1    1    2  501    0 -0.36204867387E+02  0.20941428169E+03  0.54649087622E+03  0.61106579973E+03  0.17200000000E+03 0. -1.
         -6    1    1    2    0  502  0.36204867387E+02 -0.20941428169E+03  0.40499522016E+03  0.48864124074E+03  0.17200000000E+03 0. -1.
</event>
<event>
 4    1  0.4538619E+000  0.1959434E+03  0.7818608E-02  0.1153207E+00
         21   -1    0    0  501  502  0.00000000000E+00  0.00000000000E+00  0.10957582168E+04  0.10957582168E+04  0.00000000000E+00 0. -1.
         21   -1    0    0  502  503 -0.00000000000E+00 -0.00000000000E+00 -0.35777141011E+02  0.35777141011E+02  0.00000000000E+00 0. -1.
          6    1    1    2  501    0 -0.86586644479E+02  0.36229637273E+02  0.61127783607E+03  0.64191465670E+03  0.17200000000E+03 0. -1.
         -6    1    1    2    0  503  0.86586644479E+02 -0.36229637273E+02  0.44870323970E+03  0.48962070109E+03  0.17200000000E+03 0. -1.
</event>
<event>
 4    1  0.4538619E+000  0.2279868E+03  0.7818608E-02  0.1128065E+00
         21   -1    0    0  503  502  0.00000000000E+00  0.00000000000E+00  0.13039302648E+03  0.13039302648E+03  0.00000000000E+00 0. -1.
         21   -1    0    0  501  503 -0.00000000000E+00 -0.00000000000E+00 -0.40042068979E+03  0.40042068979E+03  0.00000000000E+00 0. -1.
          6    1    1    2  501    0  0.10684671724E+03 -0.10477487093E+03 -0.15278436846E+03  0.27444682146E+03  0.17200000000E+03 0. -1.
         -6    1    1    2    0  502 -0.10684671724E+03  0.10477487093E+03 -0.11724329485E+03  0.25636689480E+03  0.17200000000E+03 0. -1.
</event>
<event>
 4    1  0.4538619E+000  0.1734414E+03  0.7818608E-02  0.1174306E+00
         21   -1    0    0  503  502  0.00000000000E+00  0.00000000000E+00  0.54362561217E+03  0.54362561217E+03  0.00000000000E+00 0.  1.
         21   -1    0    0  501  503 -0.00000000000E+00 -0.00000000000E+00 -0.71301063931E+02  0.71301063931E+02  0.00000000000E+00 0.  1.
          6    1    1    2  501    0  0.93464866302E+01  0.20262043958E+02  0.90671766951E+02  0.19571222895E+03  0.17200000000E+03 0.  1.
         -6    1    1    2    0  502 -0.93464866302E+01 -0.20262043958E+02  0.38165278129E+03  0.41921444716E+03  0.17200000000E+03 0.  1.
</event>
<event>
 4    1  0.4538619E+000  0.2169620E+03  0.7818608E-02  0.1136168E+00
         21   -1    0    0  501  502  0.00000000000E+00  0.00000000000E+00  0.26363008912E+03  0.26363008912E+03  0.00000000000E+00 0. -1.
         21   -1    0    0  502  503 -0.00000000000E+00 -0.00000000000E+00 -0.20474446332E+03  0.20474446332E+03  0.00000000000E+00 0. -1.
          6    1    1    2  501    0  0.15861142582E+02 -0.13128957603E+03  0.11319934470E+03  0.24471742942E+03  0.17200000000E+03 0. -1.
         -6    1    1    2    0  503 -0.15861142582E+02  0.13128957603E+03 -0.54313718900E+02  0.22365712303E+03  0.17200000000E+03 0. -1.
</event>
<event>
 4    1  0.4538619E+000  0.1958819E+03  0.7818608E-02  0.1153261E+00
         21   -1    0    0  503  502  0.00000000000E+00  0.00000000000E+00  0.15429706430E+03  0.15429706430E+03  0.00000000000E+00 0. -1.
         21   -1    0    0  501  503 -0.00000000000E+00 -0.00000000000E+00 -0.25505578970E+03  0.25505578970E+03  0.00000000000E+00 0.  1.
          6    1    1    2  501    0  0.41626829465E+02  0.83981728550E+02 -0.82754322678E+02  0.21264524820E+03  0.17200000000E+03 0.  1.
         -6    1    1    2    0  502 -0.41626829465E+02 -0.83981728550E+02 -0.18004402729E+02  0.19670760580E+03  0.17200000000E+03 0. -1.
</event>
<event>
 4    1  0.4538619E+000  0.2516803E+03  0.7818608E-02  0.1112248E+00
         21   -1    0    0  503  502  0.00000000000E+00  0.00000000000E+00  0.78642105862E+02  0.78642105862E+02  0.00000000000E+00 0.  1.
         21   -1    0    0  501  503 -0.00000000000E+00 -0.00000000000E+00 -0.81040804145E+03  0.81040804145E+03  0.00000000000E+00 0. -1.
          6    1    1    2  501    0 -0.14925077422E+03  0.10715951661E+03 -0.40062259967E+03  0.47311882542E+03  0.17200000000E+03 0.  1.
         -6    1    1    2    0  502  0.14925077422E+03 -0.10715951661E+03 -0.33114333592E+03  0.41593132189E+03  0.17200000000E+03 0. -1.
</event>
<event>
 4    1  0.4538619E+000  0.2159029E+03  0.7818608E-02  0.1136975E+00
         21   -1    0    0  501  502  0.00000000000E+00  0.00000000000E+00  0.12335378146E+04  0.12335378146E+04  0.00000000000E+00 0.  1.
         21   -1    0    0  502  503 -0.00000000000E+00 -0.00000000000E+00 -0.44213091304E+02  0.44213091304E+02  0.00000000000E+00 0.  1.
          6    1    1    2  501    0 -0.84869607518E+02  0.99132376845E+02  0.83819033936E+03  0.86555018538E+03  0.17200000000E+03 0.  1.
         -6    1    1    2    0  503  0.84869607518E+02 -0.99132376845E+02  0.35113438397E+03  0.41220072055E+03  0.17200000000E+03 0.  1.
</event>
<event>
 4    1  0.4538619E+000  0.1966343E+03  0.7818608E-02  0.1152610E+00
         21   -1    0    0  501  502  0.00000000000E+00  0.00000000000E+00  0.74611635873E+03  0.74611635873E+03  0.00000000000E+00 0.  1.
         21   -1    0    0  502  503 -0.00000000000E+00 -0.00000000000E+00 -0.59176368930E+02  0.59176368930E+02  0.00000000000E+00 0.  1.
          6    1    1    2  501    0  0.54448558447E+02 -0.78207395445E+02  0.48541830760E+03  0.52373273296E+03  0.17200000000E+03 0.  1.
         -6    1    1    2    0  503 -0.54448558447E+02  0.78207395445E+02  0.20152168220E+03  0.28155999470E+03  0.17200000000E+03 0.  1.
</event>
<event>
 4    1  0.4538619E+000  0.3372104E+03  0.7818608E-02  0.1067990E+00
         21   -1    0    0  503  502  0.00000000000E+00  0.00000000000E+00  0.19779273976E+03  0.19779273976E+03  0.00000000000E+00 0. -1.
         21   -1    0    0  501  503 -0.00000000000E+00 -0.00000000000E+00 -0.17954003837E+04  0.17954003837E+04  0.00000000000E+00 0.  1.
          6    1    1    2  501    0 -0.14323578523E+03 -0.25221095267E+03 -0.16204935538E+04  0.16552070000E+04  0.17200000000E+03 0.  1.
         -6    1    1    2    0  502  0.14323578523E+03  0.25221095267E+03  0.22885909854E+02  0.33798612351E+03  0.17200000000E+03 0. -1.
</event>
<event>
 4    1  0.4538619E+000  0.1821864E+03  0.7818608E-02  0.1165704E+00
         21   -1    0    0  501  502  0.00000000000E+00  0.00000000000E+00  0.43163221987E+02  0.43163221987E+02  0.00000000000E+00 0.  1.
         21   -1    0    0  502  503 -0.00000000000E+00 -0.00000000000E+00 -0.77754670109E+03  0.77754670109E+03  0.00000000000E+00 0.  1.
          6    1    1    2  501    0  0.36444619426E+02 -0.47745884632E+02 -0.41025142780E+03  0.44888541277E+03  0.17200000000E+03 0.  1.
         -6    1    1    2    0  503 -0.36444619426E+02  0.47745884632E+02 -0.32413205129E+03  0.37182451030E+03  0.17200000000E+03 0.  1.
</event>
<event>
 4    1  0.4538619E+000  0.1763518E+03  0.7818608E-02  0.1171381E+00
         21   -1    0    0  503  502  0.00000000000E+00  0.00000000000E+00  0.84616436886E+03  0.84616436886E+03  0.00000000000E+00 0.  1.
         21   -1    0    0  501  503 -0.00000000000E+00 -0.00000000000E+00 -0.43489064059E+02  0.43489064059E+02  0.00000000000E+00 0.  1.
          6    1    1    2  501    0 -0.30097552738E+02  0.24700240932E+02  0.57639091036E+03  0.60276566436E+03  0.17200000000E+03 0.  1.
         -6    1    1    2    0  502  0.30097552738E+02 -0.24700240932E+02  0.22628439444E+03  0.28688776856E+03  0.17200000000E+03 0.  1.
</event>
<event>
 4    1  0.4538619E+000  0.2354730E+03  0.7818608E-02  0.1122846E+00
         21   -1    0    0  503  502  0.00000000000E+00  0.00000000000E+00  0.98783482848E+02  0.98783482848E+02  0.00000000000E+00 0.  1.
         21   -1    0    0  501  503 -0.00000000000E+00 -0.00000000000E+00 -0.85247679978E+03  0.85247679978E+03  0.00000000000E+00 0.  1.
          6    1    1    2  501    0  0.12629871660E+03 -0.99559908489E+02 -0.65482032672E+03  0.69587154093E+03  0.17200000000E+03 0.  1.
         -6    1    1    2    0  502 -0.12629871660E+03  0.99559908489E+02 -0.98872990214E+02  0.25538874170E+03  0.17200000000E+03 0.  1.
</event>
<event>
 4    1  0.4538619E+000  0.3290835E+03  0.7818608E-02  0.1071543E+00
         21   -1    0    0  501  502  0.00000000000E+00  0.00000000000E+00  0.78970348143E+03  0.78970348143E+03  0.00000000000E+00 0. -1.
         21   -1    0    0  502  503 -0.00000000000E+00 -0.00000000000E+00 -0.17383796937E+03  0.17383796937E+03  0.00000000000E+00 0. -1.
          6    1    1    2  501    0  0.28040620699E+03  0.91834738432E+01  0.52930275385E+03  0.62326349351E+03  0.17200000000E+03 0. -1.
         -6    1    1    2    0  503 -0.28040620699E+03 -0.91834738432E+01  0.86562758207E+02  0.34027795729E+03  0.17200000000E+03 0. -1.
</event>
<event>
 4    1  0.4538619E+000  0.2052419E+03  0.7818608E-02  0.1145390E+00
         21   -1    0    0  501  502  0.00000000000E+00  0.00000000000E+00  0.54941683116E+03  0.54941683116E+03  0.00000000000E+00 0. -1.
         21   -1    0    0  502  503 -0.00000000000E+00 -0.00000000000E+00 -0.30103158433E+03  0.30103158433E+03  0.00000000000E+00 0. -1.
          6    1    1    2  501    0 -0.10319070106E+03 -0.43496269971E+02  0.49129347423E+03  0.53244109919E+03  0.17200000000E+03 0. -1.
         -6    1    1    2    0  503  0.10319070106E+03  0.43496269971E+02 -0.24290822739E+03  0.31800731630E+03  0.17200000000E+03 0. -1.
</event>
<event>
 4    1  0.4538619E+000  0.1892787E+03  0.7818608E-02  0.1159114E+00
         21   -1    0    0  503  502  0.00000000000E+00  0.00000000000E+00  0.67580213789E+02  0.67580213789E+02  0.00000000000E+00 0.  1.
         21   -1    0    0  501  503 -0.00000000000E+00 -0.00000000000E+00 -0.53943859884E+03  0.53943859884E+03  0.00000000000E+00 0.  1.
          6    1    1    2  501    0  0.66633502610E+02  0.42454613215E+02 -0.19606323664E+03  0.27252011048E+03  0.17200000000E+03 0. -1.
         -6    1    1    2    0  502 -0.66633502610E+02 -0.42454613215E+02 -0.27579514841E+03  0.33449870215E+03  0.17200000000E+03 0. -1.
</event>
<event>
 4    1  0.4538619E+000  0.2567140E+03  0.7818608E-02  0.1109134E+00
         21   -1    0    0  503  502  0.00000000000E+00  0.00000000000E+00  0.47464297196E+03  0.47464297196E+03  0.00000000000E+00 0. -1.
         21   -1    0    0  501  503 -0.00000000000E+00 -0.00000000000E+00 -0.15732668332E+03  0.15732668332E+03  0.00000000000E+00 0.  1.
          6    1    1    2  501    0  0.18940672404E+03 -0.21052211191E+02  0.50358160840E+02  0.26160666481E+03  0.17200000000E+03 0.  1.
         -6    1    1    2    0  502 -0.18940672404E+03  0.21052211191E+02  0.26695812780E+03  0.37036299047E+03  0.17200000000E+03 0. -1.
</event>
<event>
 4    1  0.4538619E+000  0.2059636E+03  0.7818608E-02  0.1144803E+00
         21   -1    0    0  501  502  0.00000000000E+00  0.00000000000E+00  0.20783630557E+04  0.20783630557E+04  0.00000000000E+00 0.  1.
         21   -1    0    0  502  503 -0.00000000000E+00 -0.00000000000E+00 -0.25351428432E+02  0.25351428432E+02  0.00000000000E+00 0.  1.
          6    1    1    2  501    0 -0.78617588044E+02  0.81585943864E+02  0.14908585150E+04  0.15050183066E+04  0.17200000000E+03 0.  1.
         -6    1    1    2    0  503  0.78617588044E+02 -0.81585943864E+02  0.56215311228E+03  0.59869617756E+03  0.17200000000E+03 0.  1.
</event>
<event>
 4    1  0.4538619E+000  0.1798452E+03  0.7818608E-02  0.1167953E+00
         21   -1    0    0  501  502  0.00000000000E+00  0.00000000000E+00  0.27497299044E+03  0.27497299044E+03  0.00000000000E+00 0.  1.
         21   -1    0    0  502  503 -0.00000000000E+00 -0.00000000000E+00 -0.11830248965E+03  0.11830248965E+03  0.00000000000E+00 0.  1.
          6    1    1    2  501    0 -0.45933879920E+02 -0.25502527689E+02  0.93191806002E+02  0.20255619701E+03  0.17200000000E+03 0. -1.
         -6    1    1    2    0  503  0.45933879920E+02  0.25502527689E+02  0.63478694793E+02  0.19071928307E+03  0.17200000000E+03 0. -1.
</event>
<event>
 4    1  0.4538619E+000  0.1770008E+03  0.7818608E-02  0.1170738E+00
         21   -1    0    0  501  502  0.00000000000E+00  0.00000000000E+00  0.25219150916E+03  0.25219150916E+03  0.00000000000E+00 0.  1.
         21   -1    0    0  502  503 -0.00000000000E+00 -0.00000000000E+00 -0.24222339218E+03  0.24222339218E+03  0.00000000000E+00 0.  1.
          6    1    1    2  501    0  0.20479510098E+02  0.36412305961E+02  0.17752251013E+03  0.25068607453E+03  0.17200000000E+03 0.  1.
         -6    1    1    2    0  503 -0.20479510098E+02 -0.36412305961E+02 -0.16755439314E+03  0.24372882682E+03  0.17200000000E+03 0.  1.
</event>
<event>
 4    1  0.4538619E+000  0.1746589E+03  0.7818608E-02  0.1173075E+00
         21   -1    0    0  501  502  0.00000000000E+00  0.00000000000E+00  0.27900783962E+03  0.27900783962E+03  0.00000000000E+00 0.  1.
         21   -1    0    0  502  503 -0.00000000000E+00 -0.00000000000E+00 -0.25039894293E+03  0.25039894293E+03  0.00000000000E+00 0.  1.
          6    1    1    2  501    0 -0.27162378898E+02 -0.13562844436E+02  0.21298206108E+03  0.27543983720E+03  0.17200000000E+03 0.  1.
         -6    1    1    2    0  503  0.27162378898E+02  0.13562844436E+02 -0.18437316440E+03  0.25396694534E+03  0.17200000000E+03 0.  1.
</event>
<event>
 4    1  0.4538619E+000  0.2116945E+03  0.7818608E-02  0.1140231E+00
         21   -1    0    0  503  502  0.00000000000E+00  0.00000000000E+00  0.28175993015E+03  0.28175993015E+03  0.00000000000E+00 0. -1.
         21   -1    0    0  501  503 -0.00000000000E+00 -0.00000000000E+00 -0.16936947065E+03  0.16936947065E+03  0.00000000000E+00 0. -1.
          6    1    1    2  501    0  0.70602082023E+02 -0.10122215760E+03  0.52374366741E+00  0.21169519003E+03  0.17200000000E+03 0. -1.
         -6    1    1    2    0  502 -0.70602082023E+02  0.10122215760E+03  0.11186671583E+03  0.23943421077E+03  0.17200000000E+03 0. -1.
</event>
<event>
 4    1  0.4538619E+000  0.2529669E+03  0.7818608E-02  0.1111444E+00
         21   -1    0    0  501  502  0.00000000000E+00  0.00000000000E+00  0.40575360171E+03  0.40575360171E+03  0.00000000000E+00 0. -1.
         21   -1    0    0  502  503 -0.00000000000E+00 -0.00000000000E+00 -0.18144433401E+03  0.18144433401E+03  0.00000000000E+00 0.  1.
          6    1    1    2  501    0  0.17723997455E+03 -0.54719775776E+02  0.21833688007E+03  0.33416052376E+03  0.17200000000E+03 0. -1.
         -6    1    1    2    0  503 -0.17723997455E+03  0.54719775776E+02  0.59723876344E+01  0.25303741197E+03  0.17200000000E+03 0.  1.
</event>
<event>
 4    1  0.4538619E+000  0.2232055E+03  0.7818608E-02  0.1131516E+00
         21   -1    0    0  503  502  0.00000000000E+00  0.00000000000E+00  0.17545060794E+03  0.17545060794E+03  0.00000000000E+00 0.  1.
         21   -1    0    0  501  503 -0.00000000000E+00 -0.00000000000E+00 -0.34190926347E+03  0.34190926347E+03  0.00000000000E+00 0. -1.
          6    1    1    2  501    0  0.38198255086E+02  0.13703141730E+03  0.23267425295E+02  0.22441499304E+03  0.17200000000E+03 0.  1.
         -6    1    1    2    0  502 -0.38198255086E+02 -0.13703141730E+03 -0.18972608082E+03  0.29294487837E+03  0.17200000000E+03 0. -1.
</event>
<event>
 4    1  0.4538619E+000  0.1758771E+03  0.7818608E-02  0.1171854E+00
         21   -1    0    0  503  502  0.00000000000E+00  0.00000000000E+00  0.60451591572E+02  0.60451591572E+02  0.00000000000E+00 0.  1.
         21   -1    0    0  501  503 -0.00000000000E+00 -0.00000000000E+00 -0.55170688578E+03  0.55170688578E+03  0.00000000000E+00 0. -1.
          6    1    1    2  501    0  0.33239254446E+02  0.15617552137E+02 -0.32805589751E+03  0.37222765596E+03  0.17200000000E+03 0. -1.
         -6    1    1    2    0  502 -0.33239254446E+02 -0.15617552137E+02 -0.16319939669E+03  0.23993082139E+03  0.17200000000E+03 0.  1.
</event>
<event>
 4    1  0.4538619E+000  0.1961771E+03  0.7818608E-02  0.1153005E+00
         21   -1    0    0  501  502  0.00000000000E+00  0.00000000000E+00  0.25001685565E+03  0.25001685565E+03  0.00000000000E+00 0.  1.
         21   -1    0    0  502  503 -0.00000000000E+00 -0.00000000000E+00 -0.15492308608E+03  0.15492308608E+03  0.00000000000E+00 0. -1.
          6    1    1    2  501    0  0.28300889550E+02  0.90002833781E+02  0.63745748773E+02  0.20627401902E+03  0.17200000000E+03 0.  1.
         -6    1    1    2    0  503 -0.28300889550E+02 -0.90002833781E+02  0.31348020797E+02  0.19866592271E+03  0.17200000000E+03 0. -1.
</event>
<event>
 4    1  0.4538619E+000  0.1786449E+03  0.7818608E-02  0.1169121E+00
         21   -1    0    0  501  502  0.00000000000E+00  0.00000000000E+00  0.85261036546E+02  0.85261036546E+02  0.00000000000E+00 0.  1.
         21   -1    0    0  502  503 -0.00000000000E+00 -0.00000000000E+00 -0.38831682941E+03  0.38831682941E+03  0.00000000000E+00 0.  1.
          6    1    1    2  501    0 -0.25290763585E+02 -0.41114174670E+02 -0.10655517016E+03  0.20800962086E+03  0.17200000000E+03 0.  1.
         -6    1    1    2    0  503  0.25290763585E+02  0.41114174670E+02 -0.19650062270E+03  0.26556824509E+03  0.17200000000E+03 0.  1.
</event>
<event>
 4    1  0.4538619E+000  0.1877393E+03  0.7818608E-02  0.1160516E+00
         21   -1    0    0  503  502  0.00000000000E+00  0.00000000000E+00  0.19665972251E+03  0.19665972251E+03  0.00000000000E+00 0. -1.
         21   -1    0    0  501  503 -0.00000000000E+00 -0.00000000000E+00 -0.45771096364E+03  0.45771096364E+03  0.00000000000E+00 0. -1.
          6    1    1    2  501    0  0.17413808392E+02 -0.73203774483E+02 -0.38573759595E+03  0.42899828234E+03  0.17200000000E+03 0. -1.
         -6    1    1    2    0  502 -0.17413808392E+02  0.73203774483E+02  0.12468635481E+03  0.22537240381E+03  0.17200000000E+03 0. -1.
</event>
<event>
 4    1  0.4538619E+000  0.2415472E+03  0.7818608E-02  0.1118766E+00
         21   -1    0    0  503  502  0.00000000000E+00  0.00000000000E+00  0.10982417983E+04  0.10982417983E+04  0.00000000000E+00 0. -1.
         21   -1    0    0  501  503 -0.00000000000E+00 -0.00000000000E+00 -0.14022807412E+03  0.14022807412E+03  0.00000000000E+00 0.  1.
          6    1    1    2  501    0  0.14377928526E+03 -0.89936346487E+02 -0.90299566858E+01  0.24171588572E+03  0.17200000000E+03 0.  1.
         -6    1    1    2    0  502 -0.14377928526E+03  0.89936346487E+02  0.96704368090E+03  0.99675398673E+03  0.17200000000E+03 0. -1.
</event>
<event>
 4    1  0.4538619E+000  0.1788846E+03  0.7818608E-02  0.1168887E+00
         21   -1    0    0  503  502  0.00000000000E+00  0.00000000000E+00  0.30016992330E+03  0.30016992330E+03  0.00000000000E+00 0. -1.
         21   -1    0    0  501  503 -0.00000000000E+00 -0.00000000000E+00 -0.10660655600E+03  0.10660655600E+03  0.00000000000E+00 0. -1.
          6    1    1    2  501    0  0.36626085924E+02 -0.32775533206E+02  0.96084513585E+02  0.20305649337E+03  0.17200000000E+03 0. -1.
         -6    1    1    2    0  502 -0.36626085924E+02  0.32775533206E+02  0.97478853721E+02  0.20371998594E+03  0.17200000000E+03 0. -1.
</event>
<event>
 4    1  0.4538619E+000  0.1781994E+03  0.7818608E-02  0.1169557E+00
         21   -1    0    0  501  502  0.00000000000E+00  0.00000000000E+00  0.43856537896E+03  0.43856537896E+03  0.00000000000E+00 0. -1.
         21   -1    0    0  502  503 -0.00000000000E+00 -0.00000000000E+00 -0.12179156790E+03  0.12179156790E+03  0.00000000000E+00 0. -1.
          6    1    1    2  501    0 -0.34562691454E+02  0.31248317520E+02  0.33679865482E+03  0.38103591809E+03  0.17200000000E+03 0. -1.
         -6    1    1    2    0  503  0.34562691454E+02 -0.31248317520E+02 -0.20024843765E+02  0.17932102876E+03  0.17200000000E+03 0. -1.
</event>
<event>
 4    1  0.4538619E+000  0.1765981E+03  0.7818608E-02  0.1171137E+00
         21   -1    0    0  503  502  0.00000000000E+00  0.00000000000E+00  0.22228868486E+03  0.22228868486E+03  0.00000000000E+00 0. -1.
         21   -1    0    0  501  503 -0.00000000000E+00 -0.00000000000E+00 -0.18885819693E+03  0.18885819693E+03  0.00000000000E+00 0. -1.
          6    1    1    2  501    0 -0.39951321399E+02 -0.26056506111E+01 -0.87524775909E+02  0.19709765066E+03  0.17200000000E+03 0. -1.
         -6    1    1    2    0  502  0.39951321399E+02  0.26056506111E+01  0.12095526384E+03  0.21404923113E+03  0.17200000000E+03 0. -1.
</event>
<event>
 4    1  0.4538619E+000  0.2253365E+03  0.7818608E-02  0.1129966E+00
         21   -1    0    0  501  502  0.00000000000E+00  0.00000000000E+00  0.57415835721E+02  0.57415835721E+02  0.00000000000E+00 0. -1.
         21   -1    0    0  502  503 -0.00000000000E+00 -0.00000000000E+00 -0.99711177598E+03  0.99711177598E+03  0.00000000000E+00 0.  1.
          6    1    1    2  501    0 -0.58719856435E+02  0.13320861823E+03 -0.29254825495E+03  0.36927095605E+03  0.17200000000E+03 0.  1.
         -6    1    1    2    0  503  0.58719856435E+02 -0.13320861823E+03 -0.64714768531E+03  0.68525665565E+03  0.17200000000E+03 0.  1.
</event>
<event>
 4    1  0.4538619E+000  0.2352984E+03  0.7818608E-02  0.1122965E+00
         21   -1    0    0  503  502  0.00000000000E+00  0.00000000000E+00  0.29486653107E+03  0.29486653107E+03  0.00000000000E+00 0. -1.
         21   -1    0    0  501  503 -0.00000000000E+00 -0.00000000000E+00 -0.61800918741E+03  0.61800918741E+03  0.00000000000E+00 0.  1.
          6    1    1    2  501    0 -0.45024124153E+02  0.15412389680E+03 -0.54241097765E+03  0.59124869217E+03  0.17200000000E+03 0.  1.
         -6    1    1    2    0  502  0.45024124153E+02 -0.15412389680E+03  0.21926832131E+03  0.32162702631E+03  0.17200000000E+03 0. -1.
</event>
<event>
 4    1  0.4538619E+000  0.1754170E+03  0.7818608E-02  0.1172314E+00
         21   -1    0    0  501  502  0.00000000000E+00  0.00000000000E+00  0.37970155109E+03  0.37970155109E+03  0.00000000000E+00 0. -1.
         21   -1    0    0  502  503 -0.00000000000E+00 -0.00000000000E+00 -0.14394507322E+03  0.14394507322E+03  0.00000000000E+00 0. -1.
          6    1    1    2  501    0  0.34017959088E+02 -0.54678672771E+01  0.29096019226E+03  0.33974836658E+03  0.17200000000E+03 0. -1.
         -6    1    1    2    0  503 -0.34017959088E+02  0.54678672771E+01 -0.55203714388E+02  0.18389825773E+03  0.17200000000E+03 0. -1.
</event>
<event>
 4    1  0.4538619E+000  0.1797228E+03  0.7818608E-02  0.1168072E+00
         21   -1    0    0  503  502  0.00000000000E+00  0.00000000000E+00  0.15130973151E+03  0.15130973151E+03  0.00000000000E+00 0. -1.
         21   -1    0    0  501  503 -0.00000000000E+00 -0.00000000000E+00 -0.23438917039E+03  0.23438917039E+03  0.00000000000E+00 0. -1.
          6    1    1    2  501    0  0.32820190539E+02 -0.40486206386E+02 -0.99150995739E+02  0.20525890424E+03  0.17200000000E+03 0. -1.
         -6    1    1    2    0  502 -0.32820190539E+02  0.40486206386E+02  0.16071556853E+02  0.18043999766E+03  0.17200000000E+03 0. -1.
</event>
<event>
 4    1  0.4538619E+000  0.1727452E+03  0.7818608E-02  0.1175015E+00
         21   -1    0    0  503  502  0.00000000000E+00  0.00000000000E+00  0.19512422463E+03  0.19512422463E+03  0.00000000000E+00 0. -1.
         21   -1    0    0  501  503 -0.00000000000E+00 -0.00000000000E+00 -0.15368312969E+03  0.15368312969E+03  0.00000000000E+00 0. -1.
          6    1    1    2  501    0  0.14554446468E+02 -0.67148643345E+01  0.85354749563E+01  0.17295599338E+03  0.17200000000E+03 0.  1.
         -6    1    1    2    0  502 -0.14554446468E+02  0.67148643345E+01  0.32905619983E+02  0.17585136093E+03  0.17200000000E+03 0.  1.
</event>
<event>
 4    1  0.4538619E+000  0.2287753E+03  0.7818608E-02  0.1127505E+00
         21   -1    0    0  503  502  0.00000000000E+00  0.00000000000E+00  0.20547717494E+03  0.20547717494E+03  0.00000000000E+00 0. -1.
         21   -1    0    0  501  503 -0.00000000000E+00 -0.00000000000E+00 -0.26301439566E+03  0.26301439566E+03  0.00000000000E+00 0. -1.
          6    1    1    2  501    0 -0.66441322596E+02 -0.13542410524E+03 -0.70379101259E+02  0.23935612698E+03  0.17200000000E+03 0. -1.
         -6    1    1    2    0  502  0.66441322596E+02  0.13542410524E+03  0.12841880538E+02  0.22913544362E+03  0.17200000000E+03 0. -1.
</event>
<event>
 4    1  0.4538619E+000  0.1954719E+03  0.7818608E-02  0.1153617E+00
         21   -1    0    0  503  502  0.00000000000E+00  0.00000000000E+00  0.10999464346E+03  0.10999464346E+03  0.00000000000E+00 0. -1.
         21   -1    0    0  501  503 -0.00000000000E+00 -0.00000000000E+00 -0.44608289972E+03  0.44608289972E+03  0.00000000000E+00 0. -1.
          6    1    1    2  501    0  0.64802173501E+02 -0.66527611557E+02 -0.29883469398E+03  0.35708741103E+03  0.17200000000E+03 0. -1.
         -6    1    1    2    0  502 -0.64802173501E+02  0.66527611557E+02 -0.37253562280E+02  0.19899013215E+03  0.17200000000E+03 0. -1.
</event>
<event>
 4    1  0.4538619E+000  0.1736093E+03  0.7818608E-02  0.1174135E+00
         21   -1    0    0  501  502  0.00000000000E+00  0.00000000000E+00  0.32539131422E+02  0.32539131422E+02  0.00000000000E+00 0.  1.
         21   -1    0    0  502  503 -0.00000000000E+00 -0.00000000000E+00 -0.14849171638E+04  0.14849171638E+04  0.00000000000E+00 0.  1.
          6    1    1    2  501    0 -0.18726452607E+02 -0.14335999087E+02 -0.26081542377E+03  0.31331276095E+03  0.17200000000E+03 0.  1.
         -6    1    1    2    0  503  0.18726452607E+02  0.14335999087E+02 -0.11915626086E+04  0.12041435342E+04  0.17200000000E+03 0.  1.
</event>
<event>
 4    1  0.4538619E+000  0.2251996E+03  0.7818608E-02  0.1130065E+00
         21   -1    0    0  501  502  0.00000000000E+00  0.00000000000E+00  0.42190738810E+02  0.42190738810E+02  0.00000000000E+00 0.  1.
         21   -1    0    0  502  503 -0.00000000000E+00 -0.00000000000E+00 -0.23912331393E+04  0.23912331393E+04  0.00000000000E+00 0.  1.
          6    1    1    2  501    0  0.15454612569E+01  0.14535643338E+03 -0.31648950817E+03  0.38843337904E+03  0.17200000000E+03 0.  1.
         -6    1    1    2    0  503 -0.15454612569E+01 -0.14535643338E+03 -0.20325528923E+04  0.20449904991E+04  0.17200000000E+03 0.  1.
</event>
<event>
 4    1  0.4538619E+000  0.2058427E+03  0.7818608E-02  0.1144901E+00
         21   -1    0    0  503  502  0.00000000000E+00  0.00000000000E+00  0.61810481171E+02  0.61810481171E+02  0.00000000000E+00 0.  1.
         21   -1    0    0  501  503 -0.00000000000E+00 -0.00000000000E+00 -0.68718572376E+03  0.68718572376E+03  0.00000000000E+00 0.  1.
          6    1    1    2  501    0  0.93533997978E+02  0.63550022116E+02 -0.33122448431E+03  0.38997547755E+03  0.17200000000E+03 0.  1.
         -6    1    1    2    0  502 -0.93533997978E+02 -0.63550022116E+02 -0.29415075828E+03  0.35902072738E+03  0.17200000000E+03 0.  1.
</event>
<event>
 4    1  0.4538619E+000  0.1821875E+03  0.7818608E-02  0.1165703E+00
         21   -1    0    0  501  502  0.00000000000E+00  0.00000000000E+00  0.18185781599E+04  0.18185781599E+04  0.00000000000E+00 0. -1.
         21   -1    0    0  502  503 -0.00000000000E+00 -0.00000000000E+00 -0.21569405663E+02  0.21569405663E+02  0.00000000000E+00 0. -1.
          6    1    1    2  501    0 -0.44046387297E+02 -0.40843723269E+02  0.12593463597E+04  0.12724565013E+04  0.17200000000E+03 0. -1.
         -6    1    1    2    0  503  0.44046387297E+02  0.40843723269E+02  0.53766239453E+03  0.56769106428E+03  0.17200000000E+03 0. -1.
</event>
<event>
 4    1  0.4538619E+000  0.1867713E+03  0.7818608E-02  0.1161406E+00
         21   -1    0    0  503  502  0.00000000000E+00  0.00000000000E+00  0.61096426322E+03  0.61096426322E+03  0.00000000000E+00 0. -1.
         21   -1    0    0  501  503 -0.00000000000E+00 -0.00000000000E+00 -0.57335565769E+02  0.57335565769E+02  0.00000000000E+00 0.  1.
          6    1    1    2  501    0 -0.50127697034E+02 -0.52789552580E+02  0.29842058752E+03  0.35204881753E+03  0.17200000000E+03 0.  1.
         -6    1    1    2    0  502  0.50127697034E+02  0.52789552580E+02  0.25520810993E+03  0.31625101145E+03  0.17200000000E+03 0.  1.
</event>
<event>
 4    1  0.4538619E+000  0.1933679E+03  0.7818608E-02  0.1155458E+00
         21   -1    0    0  501  502  0.00000000000E+00  0.00000000000E+00  0.31381225735E+02  0.31381225735E+02  0.00000000000E+00 0.  1.
         21   -1    0    0  502  503 -0.00000000000E+00 -0.00000000000E+00 -0.11920775108E+04  0.11920775108E+04  0.00000000000E+00 0.  1.
          6    1    1    2  501    0  0.27339689564E+02 -0.84021828243E+02 -0.59366471239E+03  0.62436280877E+03  0.17200000000E+03 0.  1.
         -6    1    1    2    0  503 -0.27339689564E+02  0.84021828243E+02 -0.56703157269E+03  0.59909592778E+03  0.17200000000E+03 0.  1.
</event>
<event>
 4    1  0.4538619E+000  0.1773349E+03  0.7818608E-02  0.1170408E+00
         21   -1    0    0  503  502  0.00000000000E+00  0.00000000000E+00  0.33309601395E+02  0.33309601395E+02  0.00000000000E+00 0.  1.
         21   -1    0    0  501  503 -0.00000000000E+00 -0.00000000000E+00 -0.95254391111E+03  0.95254391111E+03  0.00000000000E+00 0.  1.
          6    1    1    2  501    0 -0.43130628009E+02  0.18474180383E+01 -0.50602144883E+03  0.53619527292E+03  0.17200000000E+03 0. -1.
         -6    1    1    2    0  502  0.43130628009E+02 -0.18474180383E+01 -0.41321286089E+03  0.44965823959E+03  0.17200000000E+03 0. -1.
</event>
<event>
 4    1  0.4538619E+000  0.1943187E+03  0.7818608E-02  0.1154623E+00
         21   -1    0    0  503  502  0.00000000000E+00  0.00000000000E+00  0.16002526737E+03  0.16002526737E+03  0.00000000000E+00 0. -1.
         21   -1    0    0  501  503 -0.00000000000E+00 -0.00000000000E+00 -0.23731849179E+03  0.23731849179E+03  0.00000000000E+00 0. -1.
          6    1    1    2  501    0 -0.79022541718E+02  0.43945265807E+02 -0.23621668544E+02  0.19574915507E+03  0.17200000000E+03 0. -1.
         -6    1    1    2    0  502  0.79022541718E+02 -0.43945265807E+02 -0.53671555871E+02  0.20159460408E+03  0.17200000000E+03 0. -1.
</event>
<event>
 4    1  0.4538619E+000  0.2072253E+03  0.7818608E-02  0.1143782E+00
         21   -1    0    0  503  502  0.00000000000E+00  0.00000000000E+00  0.26316609767E+03  0.26316609767E+03  0.00000000000E+00 0. -1.
         21   -1    0    0  501  503 -0.00000000000E+00 -0.00000000000E+00 -0.17224869154E+03  0.17224869154E+03  0.00000000000E+00 0. -1.
          6    1    1    2  501    0 -0.88751537392E+02 -0.74037182915E+02 -0.45065341842E+01  0.20727433197E+03  0.17200000000E+03 0. -1.
         -6    1    1    2    0  502  0.88751537392E+02  0.74037182915E+02  0.95423940311E+02  0.22814045724E+03  0.17200000000E+03 0. -1.
</event>
<event>
 4    1  0.4538619E+000  0.1748345E+03  0.7818608E-02  0.1172898E+00
         21   -1    0    0  503  502  0.00000000000E+00  0.00000000000E+00  0.11557166019E+04  0.11557166019E+04  0.00000000000E+00 0. -1.
         21   -1    0    0  501  503 -0.00000000000E+00 -0.00000000000E+00 -0.14085215959E+03  0.14085215959E+03  0.00000000000E+00 0. -1.
          6    1    1    2  501    0 -0.19840749287E+02 -0.24278180941E+02 -0.76824306147E+02  0.19096873937E+03  0.17200000000E+03 0. -1.
         -6    1    1    2    0  502  0.19840749287E+02  0.24278180941E+02  0.10916887485E+04  0.11056000222E+04  0.17200000000E+03 0. -1.
</event>
<event>
 4    1  0.4538619E+000  0.2353728E+03  0.7818608E-02  0.1122914E+00
         21   -1    0    0  503  502  0.00000000000E+00  0.00000000000E+00  0.66176337349E+02  0.66176337349E+02  0.00000000000E+00 0. -1.
         21   -1    0    0  501  503 -0.00000000000E+00 -0.00000000000E+00 -0.14787998138E+04  0.14787998138E+04  0.00000000000E+00 0.  1.
          6    1    1    2  501    0 -0.15250573812E+03 -0.50580027096E+02 -0.12151525551E+04  0.12377382887E+04  0.17200000000E+03 0.  1.
         -6    1    1    2    0  502  0.15250573812E+03  0.50580027096E+02 -0.19747092134E+03  0.30723786237E+03  0.17200000000E+03 0. -1.
</event>
<event>
 4    1  0.4538619E+000  0.2250538E+03  0.7818608E-02  0.1130170E+00
         21   -1    0    0  503  502  0.00000000000E+00  0.00000000000E+00  0.16950448019E+03  0.16950448019E+03  0.00000000000E+00 0. -1.
         21   -1    0    0  501  503 -0.00000000000E+00 -0.00000000000E+00 -0.38193806039E+03  0.38193806039E+03  0.00000000000E+00 0. -1.
          6    1    1    2  501    0 -0.33009260601E+02  0.14133510500E+03 -0.23485025019E+03  0.32527505776E+03  0.17200000000E+03 0. -1.
         -6    1    1    2    0  502  0.33009260601E+02 -0.14133510500E+03  0.22416669995E+02  0.22616748282E+03  0.17200000000E+03 0. -1.
</event>
<event>
 4    1  0.4538619E+000  0.1760196E+03  0.7818608E-02  0.1171712E+00
         21   -1    0    0  503  502  0.00000000000E+00  0.00000000000E+00  0.24661920294E+02  0.24661920294E+02  0.00000000000E+00 0.  1.
         21   -1    0    0  501  503 -0.00000000000E+00 -0.00000000000E+00 -0.23243811219E+04  0.23243811219E+04  0.00000000000E+00 0.  1.
          6    1    1    2  501    0 -0.23167746371E+02  0.29362312270E+02 -0.19460344319E+04  0.19539787358E+04  0.17200000000E+03 0.  1.
         -6    1    1    2    0  502  0.23167746371E+02 -0.29362312270E+02 -0.35368476965E+03  0.39506430633E+03  0.17200000000E+03 0.  1.
</event>
<event>
 4    1  0.4538619E+000  0.2109489E+03  0.7818608E-02  0.1140817E+00
         21   -1    0    0  503  502  0.00000000000E+00  0.00000000000E+00  0.49857663902E+02  0.49857663902E+02  0.00000000000E+00 0.  1.
         21   -1    0    0  501  503 -0.00000000000E+00 -0.00000000000E+00 -0.14933209839E+04  0.14933209839E+04  0.00000000000E+00 0. -1.
          6    1    1    2  501    0 -0.40384458075E+01 -0.12206196126E+03 -0.12111401984E+04  0.12293738291E+04  0.17200000000E+03 0. -1.
         -6    1    1    2    0  502  0.40384458075E+01  0.12206196126E+03 -0.23232312163E+03  0.31380481876E+03  0.17200000000E+03 0.  1.
</event>
<event>
 4    1  0.4538619E+000  0.2464501E+03  0.7818608E-02  0.1115569E+00
         21   -1    0    0  501  502  0.00000000000E+00  0.00000000000E+00  0.81714472141E+02  0.81714472141E+02  0.00000000000E+00 0.  1.
         21   -1    0    0  502  503 -0.00000000000E+00 -0.00000000000E+00 -0.76925285453E+03  0.76925285453E+03  0.00000000000E+00 0.  1.
          6    1    1    2  501    0 -0.17166009519E+03  0.41066394482E+02 -0.26560359536E+03  0.36232983165E+03  0.17200000000E+03 0.  1.
         -6    1    1    2    0  503  0.17166009519E+03 -0.41066394482E+02 -0.42193478703E+03  0.48863749502E+03  0.17200000000E+03 0.  1.
</event>
<event>
 4    1  0.4538619E+000  0.2112836E+03  0.7818608E-02  0.1140554E+00
         21   -1    0    0  503  502  0.00000000000E+00  0.00000000000E+00  0.92252335865E+02  0.92252335865E+02  0.00000000000E+00 0.  1.
         21   -1    0    0  501  503 -0.00000000000E+00 -0.00000000000E+00 -0.49673032821E+03  0.49673032821E+03  0.00000000000E+00 0.  1.
          6    1    1    2  501    0 -0.54090858011E+02 -0.11014055265E+03 -0.24957126322E+03  0.32699629613E+03  0.17200000000E+03 0.  1.
         -6    1    1    2    0  502  0.54090858011E+02  0.11014055265E+03 -0.15490672912E+03  0.26198636794E+03  0.17200000000E+03 0.  1.
</event>
<event>
 4    1  0.4538619E+000  0.2157118E+03  0.7818608E-02  0.1137121E+00
         21   -1    0    0  503  502  0.00000000000E+00  0.00000000000E+00  0.15521650241E+04  0.15521650241E+04  0.00000000000E+00 0. -1.
         21   -1    0    0  501  503 -0.00000000000E+00 -0.00000000000E+00 -0.45170955719E+02  0.45170955719E+02  0.00000000000E+00 0.  1.
          6    1    1    2  501    0  0.12995944779E+03 -0.76241242398E+01  0.29031620948E+03  0.36168368338E+03  0.17200000000E+03 0.  1.
         -6    1    1    2    0  502 -0.12995944779E+03  0.76241242398E+01  0.12166778589E+04  0.12356522964E+04  0.17200000000E+03 0. -1.
</event>
<event>
 4    1  0.4538619E+000  0.1747622E+03  0.7818608E-02  0.1172971E+00
         21   -1    0    0  503  502  0.00000000000E+00  0.00000000000E+00  0.35907782319E+02  0.35907782319E+02  0.00000000000E+00 0. -1.
         21   -1    0    0  501  503 -0.00000000000E+00 -0.00000000000E+00 -0.88315163319E+03  0.88315163319E+03  0.00000000000E+00 0. -1.
          6    1    1    2  501    0  0.30666627304E+02 -0.41700888339E+01 -0.51189513408E+03  0.54090522272E+03  0.17200000000E+03 0. -1.
         -6    1    1    2    0  502 -0.30666627304E+02  0.41700888339E+01 -0.33534871679E+03  0.37815419279E+03  0.17200000000E+03 0. -1.
</event>
<event>
 4    1  0.4538619E+000  0.1801736E+03  0.7818608E-02  0.1167635E+00
         21   -1    0    0  503  502  0.00000000000E+00  0.00000000000E+00  0.47370849849E+02  0.47370849849E+02  0.00000000000E+00 0.  1.
         21   -1    0    0  501  503 -0.00000000000E+00 -0.00000000000E+00 -0.33410834744E+04  0.33410834744E+04  0.00000000000E+00 0.  1.
          6    1    1    2  501    0 -0.15967804873E+02  0.51220485307E+02 -0.31573731713E+04  0.31625097394E+04  0.17200000000E+03 0.  1.
         -6    1    1    2    0  502  0.15967804873E+02 -0.51220485307E+02 -0.13633945322E+03  0.22594458483E+03  0.17200000000E+03 0.  1.
</event>
<event>
 4    1  0.4538619E+000  0.2430759E+03  0.7818608E-02  0.1117761E+00
         21   -1    0    0  503  502  0.00000000000E+00  0.00000000000E+00  0.32747553769E+03  0.32747553769E+03  0.00000000000E+00 0.  1.
         21   -1    0    0  501  503 -0.00000000000E+00 -0.00000000000E+00 -0.24942394165E+03  0.24942394165E+03  0.00000000000E+00 0.  1.
          6    1    1    2  501    0  0.60934034672E+02 -0.16058936392E+03 -0.11268324569E+03  0.26792426961E+03  0.17200000000E+03 0.  1.
         -6    1    1    2    0  502 -0.60934034672E+02  0.16058936392E+03  0.19073484173E+03  0.30897520974E+03  0.17200000000E+03 0.  1.
</event>
<event>
 4    1  0.4538619E+000  0.1745986E+03  0.7818608E-02  0.1173135E+00
         21   -1    0    0  503  502  0.00000000000E+00  0.00000000000E+00  0.93283525596E+02  0.93283525596E+02  0.00000000000E+00 0. -1.
         21   -1    0    0  501  503 -0.00000000000E+00 -0.00000000000E+00 -0.36293774757E+03  0.36293774757E+03  0.00000000000E+00 0. -1.
          6    1    1    2  501    0  0.12802932666E+02 -0.27143256649E+02 -0.20681091371E+03  0.27065739505E+03  0.17200000000E+03 0.  1.
         -6    1    1    2    0  502 -0.12802932666E+02  0.27143256649E+02 -0.62843308259E+02  0.18556387811E+03  0.17200000000E+03 0.  1.
</event>
<event>
 4    1  0.4538619E+000  0.2480578E+03  0.7818608E-02  0.1114538E+00
         21   -1    0    0  501  502  0.00000000000E+00  0.00000000000E+00  0.16100106200E+04  0.16100106200E+04  0.00000000000E+00 0. -1.
         21   -1    0    0  502  503 -0.00000000000E+00 -0.00000000000E+00 -0.39515384510E+02  0.39515384510E+02  0.00000000000E+00 0. -1.
          6    1    1    2  501    0  0.17860469042E+03  0.70024265434E+01  0.63584887468E+03  0.68252213213E+03  0.17200000000E+03 0. -1.
         -6    1    1    2    0  503 -0.17860469042E+03 -0.70024265434E+01  0.93464636076E+03  0.96700387233E+03  0.17200000000E+03 0. -1.
</event>
<event>
 4    1  0.4538619E+000  0.2254863E+03  0.7818608E-02  0.1129858E+00
         21   -1    0    0  503  502  0.00000000000E+00  0.00000000000E+00  0.67892372970E+03  0.67892372970E+03  0.00000000000E+00 0. -1.
         21   -1    0    0  501  503 -0.00000000000E+00 -0.00000000000E+00 -0.27809209603E+03  0.27809209603E+03  0.00000000000E+00 0. -1.
          6    1    1    2  501    0  0.14580073145E+03 -0.14850277617E+01 -0.20861849664E+03  0.30719006452E+03  0.17200000000E+03 0. -1.
         -6    1    1    2    0  502 -0.14580073145E+03  0.14850277617E+01  0.60945013031E+03  0.64982576122E+03  0.17200000000E+03 0. -1.
</event>
<event>
 4    1  0.4538619E+000  0.2549462E+03  0.7818608E-02  0.1110218E+00
         21   -1    0    0  501  502  0.00000000000E+00  0.00000000000E+00  0.12299592848E+04  0.12299592848E+04  0.00000000000E+00 0. -1.
         21   -1    0    0  502  503 -0.00000000000E+00 -0.00000000000E+00 -0.95243144526E+02  0.95243144526E+02  0.00000000000E+00 0.  1.
          6    1    1    2  501    0  0.63036031399E+02  0.17731333870E+03  0.10094445967E+04  0.10411416595E+04  0.17200000000E+03 0. -1.
         -6    1    1    2    0  503 -0.63036031399E+02 -0.17731333870E+03  0.12527154361E+03  0.28406076986E+03  0.17200000000E+03 0.  1.
</event>
<event>
 4    1  0.4538619E+000  0.3376529E+03  0.7818608E-02  0.1067800E+00
         21   -1    0    0  503  502  0.00000000000E+00  0.00000000000E+00  0.16971356868E+03  0.16971356868E+03  0.00000000000E+00 0.  1.
         21   -1    0    0  501  503 -0.00000000000E+00 -0.00000000000E+00 -0.67494024304E+03  0.67494024304E+03  0.00000000000E+00 0. -1.
          6    1    1    2  501    0 -0.27175986367E+03  0.10282040905E+03 -0.22369534694E+03  0.40502971281E+03  0.17200000000E+03 0.  1.
         -6    1    1    2    0  502  0.27175986367E+03 -0.10282040905E+03 -0.28153132742E+03  0.43962409890E+03  0.17200000000E+03 0.  1.
</event>
<event>
 4    1  0.4538619E+000  0.2529982E+03  0.7818608E-02  0.1111425E+00
         21   -1    0    0  501  502  0.00000000000E+00  0.00000000000E+00  0.32391168477E+03  0.32391168477E+03  0.00000000000E+00 0.  1.
         21   -1    0    0  502  503 -0.00000000000E+00 -0.00000000000E+00 -0.22063381596E+03  0.22063381596E+03  0.00000000000E+00 0. -1.
          6    1    1    2  501    0 -0.10443163879E+02  0.18524310962E+03  0.13959387686E+03  0.28895418286E+03  0.17200000000E+03 0.  1.
         -6    1    1    2    0  503  0.10443163879E+02 -0.18524310962E+03 -0.36316008051E+02  0.25559131788E+03  0.17200000000E+03 0.  1.
</event>
<event>
 4    1  0.4538619E+000  0.1772500E+03  0.7818608E-02  0.1170491E+00
         21   -1    0    0  501  502  0.00000000000E+00  0.00000000000E+00  0.18587610374E+03  0.18587610374E+03  0.00000000000E+00 0. -1.
         21   -1    0    0  502  503 -0.00000000000E+00 -0.00000000000E+00 -0.30105133680E+03  0.30105133680E+03  0.00000000000E+00 0. -1.
          6    1    1    2  501    0 -0.36451968625E+02  0.22467956594E+02  0.10364229572E+03  0.20532725234E+03  0.17200000000E+03 0. -1.
         -6    1    1    2    0  503  0.36451968625E+02 -0.22467956594E+02 -0.21881752879E+03  0.28160018820E+03  0.17200000000E+03 0. -1.
</event>
<event>
 4    1  0.4538619E+000  0.1894786E+03  0.7818608E-02  0.1158932E+00
         21   -1    0    0  503  502  0.00000000000E+00  0.00000000000E+00  0.36200319748E+03  0.36200319748E+03  0.00000000000E+00 0. -1.
         21   -1    0    0  501  503 -0.00000000000E+00 -0.00000000000E+00 -0.40078935998E+03  0.40078935998E+03  0.00000000000E+00 0. -1.
          6    1    1    2  501    0 -0.33204789288E+02 -0.72219039738E+02 -0.35025243036E+03  0.39821967895E+03  0.17200000000E+03 0. -1.
         -6    1    1    2    0  502  0.33204789288E+02  0.72219039738E+02  0.31146626785E+03  0.36457287851E+03  0.17200000000E+03 0. -1.
</event>
<event>
 4    1  0.4538619E+000  0.2449724E+03  0.7818608E-02  0.1116524E+00
         21   -1    0    0  501  502  0.00000000000E+00  0.00000000000E+00  0.38336832348E+03  0.38336832348E+03  0.00000000000E+00 0. -1.
         21   -1    0    0  502  503 -0.00000000000E+00 -0.00000000000E+00 -0.25520770634E+03  0.25520770634E+03  0.00000000000E+00 0. -1.
          6    1    1    2  501    0 -0.22846114739E+01 -0.17441977204E+03  0.26261160902E+03  0.35913275195E+03  0.17200000000E+03 0. -1.
         -6    1    1    2    0  503  0.22846114739E+01  0.17441977204E+03 -0.13445099188E+03  0.27944327787E+03  0.17200000000E+03 0. -1.
</event>
<event>
 4    1  0.4538619E+000  0.1876546E+03  0.7818608E-02  0.1160594E+00
         21   -1    0    0  503  502  0.00000000000E+00  0.00000000000E+00  0.24473196930E+02  0.24473196930E+02  0.00000000000E+00 0.  1.
         21   -1    0    0  501  503 -0.00000000000E+00 -0.00000000000E+00 -0.14670570486E+04  0.14670570486E+04  0.00000000000E+00 0.  1.
          6    1    1    2  501    0  0.22001964516E+02  0.71736864549E+02 -0.82462541563E+03  0.84570759739E+03  0.17200000000E+03 0.  1.
         -6    1    1    2    0  502 -0.22001964516E+02 -0.71736864549E+02 -0.61795843602E+03  0.64582264812E+03  0.17200000000E+03 0.  1.
</event>
<event>
 4    1  0.4538619E+000  0.1978813E+03  0.7818608E-02  0.1151539E+00
         21   -1    0    0  503  502  0.00000000000E+00  0.00000000000E+00  0.57917681948E+03  0.57917681948E+03  0.00000000000E+00 0. -1.
         21   -1    0    0  501  503 -0.00000000000E+00 -0.00000000000E+00 -0.22738257036E+03  0.22738257036E+03  0.00000000000E+00 0. -1.
          6    1    1    2  501    0 -0.61867270983E+02 -0.75798705832E+02 -0.16215335810E+03  0.25583337266E+03  0.17200000000E+03 0. -1.
         -6    1    1    2    0  502  0.61867270983E+02  0.75798705832E+02  0.51394760722E+03  0.55072601717E+03  0.17200000000E+03 0. -1.
</event>
<event>
 4    1  0.4538619E+000  0.3482320E+03  0.7818608E-02  0.1063343E+00
         21   -1    0    0  501  502  0.00000000000E+00  0.00000000000E+00  0.72250623815E+03  0.72250623815E+03  0.00000000000E+00 0.  1.
         21   -1    0    0  502  503 -0.00000000000E+00 -0.00000000000E+00 -0.17635307028E+03  0.17635307028E+03  0.00000000000E+00 0. -1.
          6    1    1    2  501    0 -0.26587579270E+03 -0.14488485197E+03  0.37182028967E+03  0.50942701664E+03  0.17200000000E+03 0.  1.
         -6    1    1    2    0  503  0.26587579270E+03  0.14488485197E+03  0.17433287820E+03  0.38943229179E+03  0.17200000000E+03 0. -1.
</event>
<event>
 4    1  0.4538619E+000  0.1999614E+03  0.7818608E-02  0.1149772E+00
         21   -1    0    0  503  502  0.00000000000E+00  0.00000000000E+00  0.67576744205E+02  0.67576744205E+02  0.00000000000E+00 0. -1.
         21   -1    0    0  501  503 -0.00000000000E+00 -0.00000000000E+00 -0.60821445790E+03  0.60821445790E+03  0.00000000000E+00 0. -1.
          6    1    1    2  501    0  0.61484779518E+02 -0.81364560857E+02 -0.32601191109E+03  0.38245043607E+03  0.17200000000E+03 0. -1.
         -6    1    1    2    0  502 -0.61484779518E+02  0.81364560857E+02 -0.21462580261E+03  0.29334076604E+03  0.17200000000E+03 0. -1.
</event>
<event>
 4    1  0.4538619E+000  0.1903681E+03  0.7818608E-02  0.1158130E+00
         21   -1    0    0  501  502  0.00000000000E+00  0.00000000000E+00  0.11344735969E+03  0.11344735969E+03  0.00000000000E+00 0. -1.
         21   -1    0    0  502  503 -0.00000000000E+00 -0.00000000000E+00 -0.13842482225E+04  0.13842482225E+04  0.00000000000E+00 0. -1.
          6    1    1    2  501    0  0.81432495916E+02  0.49761540951E+01  0.21382056933E+02  0.19156514782E+03  0.17200000000E+03 0. -1.
         -6    1    1    2    0  503 -0.81432495916E+02 -0.49761540951E+01 -0.12921829198E+04  0.13061304344E+04  0.17200000000E+03 0. -1.
</event>
<event>
 4    1  0.4538619E+000  0.2295422E+03  0.7818608E-02  0.1126962E+00
         21   -1    0    0  503  502  0.00000000000E+00  0.00000000000E+00  0.30649482173E+02  0.30649482173E+02  0.00000000000E+00 0. -1.
         21   -1    0    0  501  503 -0.00000000000E+00 -0.00000000000E+00 -0.17199953483E+04  0.17199953483E+04  0.00000000000E+00 0.  1.
          6    1    1    2  501    0 -0.62055858567E+02 -0.13876123366E+03 -0.86461310018E+03  0.89456437586E+03  0.17200000000E+03 0. -1.
         -6    1    1    2    0  502  0.62055858567E+02  0.13876123366E+03 -0.82473276592E+03  0.85608045459E+03  0.17200000000E+03 0. -1.
</event>
<event>
 4    1  0.4538619E+000  0.2342686E+03  0.7818608E-02  0.1123671E+00
         21   -1    0    0  503  502  0.00000000000E+00  0.00000000000E+00  0.71243848361E+03  0.71243848361E+03  0.00000000000E+00 0.  1.
         21   -1    0    0  501  503 -0.00000000000E+00 -0.00000000000E+00 -0.26730806182E+03  0.26730806182E+03  0.00000000000E+00 0. -1.
          6    1    1    2  501    0  0.79884165719E+02  0.13753653972E+03 -0.19073710807E+03  0.30209671313E+03  0.17200000000E+03 0. -1.
         -6    1    1    2    0  502 -0.79884165719E+02 -0.13753653972E+03  0.63586752986E+03  0.67764983230E+03  0.17200000000E+03 0.  1.
</event>
<event>
 4    1  0.4538619E+000  0.1908690E+03  0.7818608E-02  0.1157680E+00
         21   -1    0    0  503  502  0.00000000000E+00  0.00000000000E+00  0.69743762700E+03  0.69743762700E+03  0.00000000000E+00 0.  1.
         21   -1    0    0  501  503 -0.00000000000E+00 -0.00000000000E+00 -0.10642350856E+03  0.10642350856E+03  0.00000000000E+00 0.  1.
          6    1    1    2  501    0  0.79816061998E+02 -0.21825686279E+02  0.87038089528E+01  0.19106731961E+03  0.17200000000E+03 0.  1.
         -6    1    1    2    0  502 -0.79816061998E+02  0.21825686279E+02  0.58231030948E+03  0.61279381595E+03  0.17200000000E+03 0.  1.
</event>
<event>
 4    1  0.4538619E+000  0.2082945E+03  0.7818608E-02  0.1142924E+00
         21   -1    0    0  501  502  0.00000000000E+00  0.00000000000E+00  0.15393909229E+03  0.15393909229E+03  0.00000000000E+00 0. -1.
         21   -1    0    0  502  503 -0.00000000000E+00 -0.00000000000E+00 -0.28255635336E+03  0.28255635336E+03  0.00000000000E+00 0.  1.
          6    1    1    2  501    0 -0.98309864639E+02 -0.64325446449E+02 -0.75277810554E+02  0.22147988917E+03  0.17200000000E+03 0.  1.
         -6    1    1    2    0  503  0.98309864639E+02  0.64325446449E+02 -0.53339450521E+02  0.21501555648E+03  0.17200000000E+03 0.  1.
</event>
<event>
 4    1  0.4538619E+000  0.2114483E+03  0.7818608E-02  0.1140424E+00
         21   -1    0    0  503  502  0.00000000000E+00  0.00000000000E+00  0.15671194378E+03  0.15671194378E+03  0.00000000000E+00 0. -1.
         21   -1    0    0  501  503 -0.00000000000E+00 -0.00000000000E+00 -0.31264465680E+03  0.31264465680E+03  0.00000000000E+00 0.  1.
          6    1    1    2  501    0 -0.75436753212E+02 -0.97137462290E+02 -0.14736639476E+03  0.25773483393E+03  0.17200000000E+03 0. -1.
         -6    1    1    2    0  502  0.75436753212E+02  0.97137462290E+02 -0.85663182576E+01  0.21162176666E+03  0.17200000000E+03 0. -1.
</event>
<event>
 4    1  0.4538619E+000  0.2773512E+03  0.7818608E-02  0.1097145E+00
         21   -1    0    0  503  502  0.00000000000E+00  0.00000000000E+00  0.52884780510E+03  0.52884780510E+03  0.00000000000E+00 0. -1.
         21   -1    0    0  501  503 -0.00000000000E+00 -0.00000000000E+00 -0.24173626536E+03  0.24173626536E+03  0.00000000000E+00 0.  1.
          6    1    1    2  501    0 -0.15356123327E+03 -0.15413833002E+03 -0.99602761440E+02  0.29469371766E+03  0.17200000000E+03 0.  1.
         -6    1    1    2    0  502  0.15356123327E+03  0.15413833002E+03  0.38671430118E+03  0.47589035279E+03  0.17200000000E+03 0. -1.
</event>
<event>
 4    1  0.4538619E+000  0.1878710E+03  0.7818608E-02  0.1160396E+00
         21   -1    0    0  501  502  0.00000000000E+00  0.00000000000E+00  0.85485526101E+02  0.85485526101E+02  0.00000000000E+00 0. -1.
         21   -1    0    0  502  503 -0.00000000000E+00 -0.00000000000E+00 -0.81726850600E+03  0.81726850600E+03  0.00000000000E+00 0. -1.
          6    1    1    2  501    0  0.47848049131E+02 -0.58498672026E+02 -0.68339957415E+03  0.70875278368E+03  0.17200000000E+03 0. -1.
         -6    1    1    2    0  503 -0.47848049131E+02  0.58498672026E+02 -0.48383405748E+02  0.19400124841E+03  0.17200000000E+03 0. -1.
</event>
<event>
 4    1  0.4538619E+000  0.1800621E+03  0.7818608E-02  0.1167743E+00
         21   -1    0    0  501  502  0.00000000000E+00  0.00000000000E+00  0.31104518821E+03  0.31104518821E+03  0.00000000000E+00 0.  1.
         21   -1    0    0  502  503 -0.00000000000E+00 -0.00000000000E+00 -0.20254920527E+03  0.20254920527E+03  0.00000000000E+00 0.  1.
          6    1    1    2  501    0  0.47617866441E+02  0.23893393842E+02 -0.12465976298E+03  0.21900322367E+03  0.17200000000E+03 0.  1.
         -6    1    1    2    0  503 -0.47617866441E+02 -0.23893393842E+02  0.23315574591E+03  0.29459116980E+03  0.17200000000E+03 0.  1.
</event>
<event>
 4    1  0.4538619E+000  0.2038279E+03  0.7818608E-02  0.1146549E+00
         21   -1    0    0  501  502  0.00000000000E+00  0.00000000000E+00  0.22962242413E+04  0.22962242413E+04  0.00000000000E+00 0.  1.
         21   -1    0    0  502  503 -0.00000000000E+00 -0.00000000000E+00 -0.25383260322E+02  0.25383260322E+02  0.00000000000E+00 0.  1.
          6    1    1    2  501    0 -0.12523987661E+02 -0.10865057265E+03  0.51332956115E+03  0.55231606491E+03  0.17200000000E+03 0. -1.
         -6    1    1    2    0  503  0.12523987661E+02  0.10865057265E+03  0.17575114198E+04  0.17692914367E+04  0.17200000000E+03 0. -1.
</event>
<event>
 4    1  0.4538619E+000  0.1831861E+03  0.7818608E-02  0.1164755E+00
         21   -1    0    0  503  502  0.00000000000E+00  0.00000000000E+00  0.12969238390E+02  0.12969238390E+02  0.00000000000E+00 0. -1.
         21   -1    0    0  501  503 -0.00000000000E+00 -0.00000000000E+00 -0.28477222524E+04  0.28477222524E+04  0.00000000000E+00 0. -1.
          6    1    1    2  501    0  0.59886680932E+02 -0.19665203248E+02 -0.18498046390E+04  0.18588529628E+04  0.17200000000E+03 0. -1.
         -6    1    1    2    0  502 -0.59886680932E+02  0.19665203248E+02 -0.98494837503E+03  0.10018385280E+04  0.17200000000E+03 0. -1.
</event>
<event>
 4    1  0.4538619E+000  0.3352563E+03  0.7818608E-02  0.1068834E+00
         21   -1    0    0  501  502  0.00000000000E+00  0.00000000000E+00  0.21477066805E+03  0.21477066805E+03  0.00000000000E+00 0. -1.
         21   -1    0    0  502  503 -0.00000000000E+00 -0.00000000000E+00 -0.66246630261E+03  0.66246630261E+03  0.00000000000E+00 0.  1.
          6    1    1    2  501    0 -0.28731738473E+03  0.16171990611E+02 -0.42485837815E+03  0.54120370872E+03  0.17200000000E+03 0. -1.
         -6    1    1    2    0  503  0.28731738473E+03 -0.16171990611E+02 -0.22837256397E+02  0.33603326194E+03  0.17200000000E+03 0.  1.
</event>
<event>
 4    1  0.4538619E+000  0.1761120E+03  0.7818608E-02  0.1171620E+00
         21   -1    0    0  501  502  0.00000000000E+00  0.00000000000E+00  0.19022846128E+03  0.19022846128E+03  0.00000000000E+00 0. -1.
         21   -1    0    0  502  503 -0.00000000000E+00 -0.00000000000E+00 -0.20568767027E+03  0.20568767027E+03  0.00000000000E+00 0. -1.
          6    1    1    2  501    0  0.82478440012E+01  0.36924162338E+02  0.82407044328E+02  0.19443852923E+03  0.17200000000E+03 0. -1.
         -6    1    1    2    0  503 -0.82478440012E+01 -0.36924162338E+02 -0.97866253315E+02  0.20147760231E+03  0.17200000000E+03 0. -1.
</event>
<event>
 4    1  0.4538619E+000  0.1879089E+03  0.7818608E-02  0.1160361E+00
         21   -1    0    0  501  502  0.00000000000E+00  0.00000000000E+00  0.29378660674E+04  0.29378660674E+04  0.00000000000E+00 0.  1.
         21   -1    0    0  502  503 -0.00000000000E+00 -0.00000000000E+00 -0.18241980283E+02  0.18241980283E+02  0.00000000000E+00 0.  1.
          6    1    1    2  501    0  0.67119429836E+02 -0.34938806753E+02  0.23231069164E+04  0.23306942063E+04  0.17200000000E+03 0.  1.
         -6    1    1    2    0  503 -0.67119429836E+02  0.34938806753E+02  0.59651717070E+03  0.62541384140E+03  0.17200000000E+03 0.  1.
</event>
<event>
 4    1  0.4538619E+000  0.3064108E+03  0.7818608E-02  0.1082079E+00
         21   -1    0    0  501  502  0.00000000000E+00  0.00000000000E+00  0.16776022619E+03  0.16776022619E+03  0.00000000000E+00 0.  1.
         21   -1    0    0  502  503 -0.00000000000E+00 -0.00000000000E+00 -0.60260421467E+03  0.60260421467E+03  0.00000000000E+00 0. -1.
          6    1    1    2  501    0  0.21169455581E+03  0.13960307153E+03 -0.32025563283E+03  0.44322824019E+03  0.17200000000E+03 0. -1.
         -6    1    1    2    0  503 -0.21169455581E+03 -0.13960307153E+03 -0.11458835565E+03  0.32713620067E+03  0.17200000000E+03 0. -1.
</event>
<event>
 4    1  0.4538619E+000  0.2153342E+03  0.7818608E-02  0.1137410E+00
         21   -1    0    0  503  502  0.00000000000E+00  0.00000000000E+00  0.10425463044E+03  0.10425463044E+03  0.00000000000E+00 0.  1.
         21   -1    0    0  501  503 -0.00000000000E+00 -0.00000000000E+00 -0.92778288694E+03  0.92778288694E+03  0.00000000000E+00 0.  1.
          6    1    1    2  501    0  0.58964305504E+02 -0.11536049744E+03 -0.78409051746E+03  0.81312162268E+03  0.17200000000E+03 0.  1.
         -6    1    1    2    0  502 -0.58964305504E+02  0.11536049744E+03 -0.39437739044E+02  0.21891589470E+03  0.17200000000E+03 0.  1.
</event>
<event>
 4    1  0.4538619E+000  0.2791664E+03  0.7818608E-02  0.1096145E+00
         21   -1    0    0  501  502  0.00000000000E+00  0.00000000000E+00  0.17612513507E+04  0.17612513507E+04  0.00000000000E+00 0.  1.
         21   -1    0    0  502  503 -0.00000000000E+00 -0.00000000000E+00 -0.58145763762E+02  0.58145763762E+02  0.00000000000E+00 0.  1.
          6    1    1    2  501    0 -0.19920819645E+03 -0.93091261476E+02  0.12962791227E+04  0.13259990393E+04  0.17200000000E+03 0.  1.
         -6    1    1    2    0  503  0.19920819645E+03  0.93091261476E+02  0.40682646429E+03  0.49339807513E+03  0.17200000000E+03 0.  1.
</event>
<event>
 4    1  0.4538619E+000  0.2080752E+03  0.7818608E-02  0.1143099E+00
         21   -1    0    0  503  502  0.00000000000E+00  0.00000000000E+00  0.51797782064E+03  0.51797782064E+03  0.00000000000E+00 0. -1.
         21   -1    0    0  501  503 -0.00000000000E+00 -0.00000000000E+00 -0.10194985898E+03  0.10194985898E+03  0.00000000000E+00 0. -1.
          6    1    1    2  501    0 -0.11414529463E+03  0.26117676672E+02  0.76458448762E+02  0.22167809027E+03  0.17200000000E+03 0. -1.
         -6    1    1    2    0  502  0.11414529463E+03 -0.26117676672E+02  0.33956951290E+03  0.39824958935E+03  0.17200000000E+03 0. -1.
</event>
<event>
 4    1  0.4538619E+000  0.2129163E+03  0.7818608E-02  0.1139277E+00
         21   -1    0    0  503  502  0.00000000000E+00  0.00000000000E+00  0.29994413334E+04  0.29994413334E+04  0.00000000000E+00 0.  1.
         21   -1    0    0  501  503 -0.00000000000E+00 -0.00000000000E+00 -0.17875928010E+02  0.17875928010E+02  0.00000000000E+00 0. -1.
          6    1    1    2  501    0  0.12435325886E+03  0.16899899305E+02  0.89776379425E+03  0.92266633723E+03  0.17200000000E+03 0. -1.
         -6    1    1    2    0  502 -0.12435325886E+03 -0.16899899305E+02  0.20838016111E+04  0.20946509242E+04  0.17200000000E+03 0.  1.
</event>
<event>
 4    1  0.4538619E+000  0.1766130E+03  0.7818608E-02  0.1171122E+00
         21   -1    0    0  501  502  0.00000000000E+00  0.00000000000E+00  0.35674900931E+02  0.35674900931E+02  0.00000000000E+00 0. -1.
         21   -1    0    0  502  503 -0.00000000000E+00 -0.00000000000E+00 -0.10096872133E+04  0.10096872133E+04  0.00000000000E+00 0. -1.
          6    1    1    2  501    0 -0.29917889745E+02  0.26703217580E+02 -0.29564169475E+03  0.34437792268E+03  0.17200000000E+03 0. -1.
         -6    1    1    2    0  503  0.29917889745E+02 -0.26703217580E+02 -0.67837061764E+03  0.70098419157E+03  0.17200000000E+03 0. -1.
</event>
<event>
 4    1  0.4538619E+000  0.2110080E+03  0.7818608E-02  0.1140770E+00
         21   -1    0    0  503  502  0.00000000000E+00  0.00000000000E+00  0.58707185039E+02  0.58707185039E+02  0.00000000000E+00 0. -1.
         21   -1    0    0  501  503 -0.00000000000E+00 -0.00000000000E+00 -0.77764215085E+03  0.77764215085E+03  0.00000000000E+00 0. -1.
          6    1    1    2  501    0 -0.11398434357E+03 -0.44135700775E+02 -0.42522251003E+03  0.47469840289E+03  0.17200000000E+03 0. -1.
         -6    1    1    2    0  502  0.11398434357E+03  0.44135700775E+02 -0.29371245578E+03  0.36165093300E+03  0.17200000000E+03 0. -1.
</event>
<event>
 4    1  0.4538619E+000  0.2736306E+03  0.7818608E-02  0.1099220E+00
         21   -1    0    0  501  502  0.00000000000E+00  0.00000000000E+00  0.48398357058E+03  0.48398357058E+03  0.00000000000E+00 0. -1.
         21   -1    0    0  502  503 -0.00000000000E+00 -0.00000000000E+00 -0.15520007772E+03  0.15520007772E+03  0.00000000000E+00 0. -1.
          6    1    1    2  501    0  0.20732353860E+03 -0.48027469986E+02  0.14630408551E+03  0.31028788724E+03  0.17200000000E+03 0. -1.
         -6    1    1    2    0  503 -0.20732353860E+03  0.48027469986E+02  0.18247940735E+03  0.32889576105E+03  0.17200000000E+03 0. -1.
</event>
<event>
 4    1  0.4538619E+000  0.2873340E+03  0.7818608E-02  0.1091749E+00
         21   -1    0    0  501  502  0.00000000000E+00  0.00000000000E+00  0.12411522420E+03  0.12411522420E+03  0.00000000000E+00 0.  1.
         21   -1    0    0  502  503 -0.00000000000E+00 -0.00000000000E+00 -0.66519547617E+03  0.66519547617E+03  0.00000000000E+00 0. -1.
          6    1    1    2  501    0  0.58541325266E+02 -0.22259774286E+03 -0.27082748074E+03  0.39485233469E+03  0.17200000000E+03 0.  1.
         -6    1    1    2    0  503 -0.58541325266E+02  0.22259774286E+03 -0.27025277123E+03  0.39445836567E+03  0.17200000000E+03 0.  1.
</event>
<event>
 4    1  0.4538619E+000  0.2163170E+03  0.7818608E-02  0.1136659E+00
         21   -1    0    0  501  502  0.00000000000E+00  0.00000000000E+00  0.11323332048E+04  0.11323332048E+04  0.00000000000E+00 0.  1.
         21   -1    0    0  502  503 -0.00000000000E+00 -0.00000000000E+00 -0.41934999742E+02  0.41934999742E+02  0.00000000000E+00 0.  1.
          6    1    1    2  501    0  0.89595832431E+02  0.95820906858E+02  0.47435469196E+03  0.52134962661E+03  0.17200000000E+03 0.  1.
         -6    1    1    2    0  503 -0.89595832431E+02 -0.95820906858E+02  0.61604351308E+03  0.65291857791E+03  0.17200000000E+03 0.  1.
</event>
<event>
 4    1  0.4538619E+000  0.2212049E+03  0.7818608E-02  0.1132988E+00
         21   -1    0    0  501  502  0.00000000000E+00  0.00000000000E+00  0.33493307957E+03  0.33493307957E+03  0.00000000000E+00 0. -1.
         21   -1    0    0  502  503 -0.00000000000E+00 -0.00000000000E+00 -0.14768445689E+03  0.14768445689E+03  0.00000000000E+00 0. -1.
          6    1    1    2  501    0  0.11551609771E+03 -0.77483154261E+02  0.11866865072E+03  0.25102560962E+03  0.17200000000E+03 0. -1.
         -6    1    1    2    0  503 -0.11551609771E+03  0.77483154261E+02  0.68579971964E+02  0.23159192684E+03  0.17200000000E+03 0. -1.
</event>
<event>
 4    1  0.4538619E+000  0.2651521E+03  0.7818608E-02  0.1104087E+00
         21   -1    0    0  501  502  0.00000000000E+00  0.00000000000E+00  0.34881561750E+02  0.34881561750E+02  0.00000000000E+00 0.  1.
         21   -1    0    0  502  503 -0.00000000000E+00 -0.00000000000E+00 -0.22450495202E+04  0.22450495202E+04  0.00000000000E+00 0. -1.
          6    1    1    2  501    0 -0.51641778426E+02  0.19507623738E+03 -0.74060919693E+03  0.78664324458E+03  0.17200000000E+03 0.  1.
         -6    1    1    2    0  503  0.51641778426E+02 -0.19507623738E+03 -0.14695587616E+04  0.14932878374E+04  0.17200000000E+03 0. -1.
</event>
<event>
 4    1  0.4538619E+000  0.2196573E+03  0.7818608E-02  0.1134139E+00
         21   -1    0    0  503  502  0.00000000000E+00  0.00000000000E+00  0.77435305148E+03  0.77435305148E+03  0.00000000000E+00 0.  1.
         21   -1    0    0  501  503 -0.00000000000E+00 -0.00000000000E+00 -0.68264483862E+02  0.68264483862E+02  0.00000000000E+00 0. -1.
          6    1    1    2  501    0  0.37861723182E+02 -0.13126996764E+03  0.22860584749E+03  0.31703303927E+03  0.17200000000E+03 0. -1.
         -6    1    1    2    0  502 -0.37861723182E+02  0.13126996764E+03  0.47748272013E+03  0.52558449607E+03  0.17200000000E+03 0.  1.
</event>
<event>
 4    1  0.4538619E+000  0.2130194E+03  0.7818608E-02  0.1139197E+00
         21   -1    0    0  501  502  0.00000000000E+00  0.00000000000E+00  0.93734786890E+02  0.93734786890E+02  0.00000000000E+00 0.  1.
         21   -1    0    0  502  503 -0.00000000000E+00 -0.00000000000E+00 -0.49716223316E+03  0.49716223316E+03  0.00000000000E+00 0. -1.
          6    1    1    2  501    0 -0.75200980479E+02 -0.10068796685E+03 -0.15382886423E+03  0.26275572992E+03  0.17200000000E+03 0. -1.
         -6    1    1    2    0  503  0.75200980479E+02  0.10068796685E+03 -0.24959858204E+03  0.32814129013E+03  0.17200000000E+03 0. -1.
</event>
<event>
 4    1  0.4538619E+000  0.1971387E+03  0.7818608E-02  0.1152176E+00
         21   -1    0    0  503  502  0.00000000000E+00  0.00000000000E+00  0.12302014484E+03  0.12302014484E+03  0.00000000000E+00 0.  1.
         21   -1    0    0  501  503 -0.00000000000E+00 -0.00000000000E+00 -0.32325460587E+03  0.32325460587E+03  0.00000000000E+00 0.  1.
          6    1    1    2  501    0 -0.90699685278E+02  0.32453525202E+02 -0.13374477890E+03  0.23822537667E+03  0.17200000000E+03 0.  1.
         -6    1    1    2    0  502  0.90699685278E+02 -0.32453525202E+02 -0.66489682121E+02  0.20804937403E+03  0.17200000000E+03 0.  1.
</event>
<event>
 4    1  0.4538619E+000  0.2277834E+03  0.7818608E-02  0.1128210E+00
         21   -1    0    0  503  502  0.00000000000E+00  0.00000000000E+00  0.28500177953E+03  0.28500177953E+03  0.00000000000E+00 0. -1.
         21   -1    0    0  501  503 -0.00000000000E+00 -0.00000000000E+00 -0.19430979292E+03  0.19430979292E+03  0.00000000000E+00 0.  1.
          6    1    1    2  501    0 -0.13798284851E+03  0.57114116136E+02 -0.14845860010E+02  0.22826670432E+03  0.17200000000E+03 0.  1.
         -6    1    1    2    0  502  0.13798284851E+03 -0.57114116136E+02  0.10553784662E+03  0.25104486813E+03  0.17200000000E+03 0. -1.
</event>
<event>
 4    1  0.4538619E+000  0.2168952E+03  0.7818608E-02  0.1136219E+00
         21   -1    0    0  501  502  0.00000000000E+00  0.00000000000E+00  0.34710121176E+02  0.34710121176E+02  0.00000000000E+00 0.  1.
         21   -1    0    0  502  503 -0.00000000000E+00 -0.00000000000E+00 -0.14177273088E+04  0.14177273088E+04  0.00000000000E+00 0.  1.
          6    1    1    2  501    0 -0.65673373902E+02  0.11465828186E+03 -0.53914909234E+03  0.58114134031E+03  0.17200000000E+03 0.  1.
         -6    1    1    2    0  503  0.65673373902E+02 -0.11465828186E+03 -0.84386809525E+03  0.87129608964E+03  0.17200000000E+03 0.  1.
</event>
<event>
 4    1  0.4538619E+000  0.3733462E+03  0.7818608E-02  0.1053421E+00
         21   -1    0    0  501  502  0.00000000000E+00  0.00000000000E+00  0.60943449175E+03  0.60943449175E+03  0.00000000000E+00 0.  1.
         21   -1    0    0  502  503 -0.00000000000E+00 -0.00000000000E+00 -0.45303891025E+03  0.45303891025E+03  0.00000000000E+00 0.  1.
          6    1    1    2  501    0 -0.87187056143E+02  0.31969015754E+03  0.45201319795E+03  0.58626215187E+03  0.17200000000E+03 0.  1.
         -6    1    1    2    0  503  0.87187056143E+02 -0.31969015754E+03 -0.29561761646E+03  0.47621125013E+03  0.17200000000E+03 0.  1.
</event>
<event>
 4    1  0.4538619E+000  0.1785869E+03  0.7818608E-02  0.1169178E+00
         21   -1    0    0  501  502  0.00000000000E+00  0.00000000000E+00  0.70272249502E+03  0.70272249502E+03  0.00000000000E+00 0.  1.
         21   -1    0    0  502  503 -0.00000000000E+00 -0.00000000000E+00 -0.52751240047E+02  0.52751240047E+02  0.00000000000E+00 0.  1.
          6    1    1    2  501    0 -0.42814206248E+02  0.21822867893E+02  0.46613734959E+03  0.49917664459E+03  0.17200000000E+03 0.  1.
         -6    1    1    2    0  503  0.42814206248E+02 -0.21822867893E+02  0.18383390538E+03  0.25629709048E+03  0.17200000000E+03 0.  1.
</event>
<event>
 4    1  0.4538619E+000  0.1769764E+03  0.7818608E-02  0.1170762E+00
         21   -1    0    0  501  502  0.00000000000E+00  0.00000000000E+00  0.28634345030E+03  0.28634345030E+03  0.00000000000E+00 0.  1.
         21   -1    0    0  502  503 -0.00000000000E+00 -0.00000000000E+00 -0.35974093909E+03  0.35974093909E+03  0.00000000000E+00 0.  1.
          6    1    1    2  501    0  0.40925181159E+02 -0.78599535488E+01  0.23279357128E+03  0.29242690737E+03  0.17200000000E+03 0.  1.
         -6    1    1    2    0  503 -0.40925181159E+02  0.78599535488E+01 -0.30619106007E+03  0.35365748202E+03  0.17200000000E+03 0.  1.
</event>
<event>
 4    1  0.4538619E+000  0.1903541E+03  0.7818608E-02  0.1158142E+00
         21   -1    0    0  503  502  0.00000000000E+00  0.00000000000E+00  0.60702133795E+03  0.60702133795E+03  0.00000000000E+00 0. -1.
         21   -1    0    0  501  503 -0.00000000000E+00 -0.00000000000E+00 -0.11798173230E+03  0.11798173230E+03  0.00000000000E+00 0.  1.
          6    1    1    2  501    0  0.33084007659E+02 -0.74539565018E+02 -0.10278282602E+02  0.19063142818E+03  0.17200000000E+03 0.  1.
         -6    1    1    2    0  502 -0.33084007659E+02  0.74539565018E+02  0.49931788826E+03  0.53437164207E+03  0.17200000000E+03 0. -1.
</event>
<event>
 4    1  0.4538619E+000  0.2058530E+03  0.7818608E-02  0.1144893E+00
         21   -1    0    0  503  502  0.00000000000E+00  0.00000000000E+00  0.14025765846E+04  0.14025765846E+04  0.00000000000E+00 0. -1.
         21   -1    0    0  501  503 -0.00000000000E+00 -0.00000000000E+00 -0.67645423640E+02  0.67645423640E+02  0.00000000000E+00 0.  1.
          6    1    1    2  501    0 -0.56852461273E+02  0.97771350165E+02  0.12062567702E+03  0.23859168724E+03  0.17200000000E+03 0.  1.
         -6    1    1    2    0  502  0.56852461273E+02 -0.97771350165E+02  0.12143054840E+04  0.12316303210E+04  0.17200000000E+03 0. -1.
</event>
<event>
 4    1  0.4538619E+000  0.1980264E+03  0.7818608E-02  0.1151415E+00
         21   -1    0    0  501  502  0.00000000000E+00  0.00000000000E+00  0.31453058890E+03  0.31453058890E+03  0.00000000000E+00 0. -1.
         21   -1    0    0  502  503 -0.00000000000E+00 -0.00000000000E+00 -0.15244442539E+03  0.15244442539E+03  0.00000000000E+00 0. -1.
          6    1    1    2  501    0 -0.67825295482E+02  0.70923680561E+02  0.18069437012E+03  0.26807628497E+03  0.17200000000E+03 0. -1.
         -6    1    1    2    0  503  0.67825295482E+02 -0.70923680561E+02 -0.18608206616E+02  0.19889872932E+03  0.17200000000E+03 0. -1.
</event>
<event>
 4    1  0.4538619E+000  0.1795721E+03  0.7818608E-02  0.1168218E+00
         21   -1    0    0  503  502  0.00000000000E+00  0.00000000000E+00  0.10079996183E+03  0.10079996183E+03  0.00000000000E+00 0. -1.
         21   -1    0    0  501  503 -0.00000000000E+00 -0.00000000000E+00 -0.34623264276E+03  0.34623264276E+03  0.00000000000E+00 0. -1.
          6    1    1    2  501    0 -0.62017473781E+00 -0.51592029990E+02 -0.61077439999E+02  0.18967492152E+03  0.17200000000E+03 0. -1.
         -6    1    1    2    0  502  0.62017473781E+00  0.51592029990E+02 -0.18435524094E+03  0.25735768307E+03  0.17200000000E+03 0. -1.
</event>
<event>
 4    1  0.4538619E+000  0.2345921E+03  0.7818608E-02  0.1123449E+00
         21   -1    0    0  503  502  0.00000000000E+00  0.00000000000E+00  0.27778123475E+03  0.27778123475E+03  0.00000000000E+00 0. -1.
         21   -1    0    0  501  503 -0.00000000000E+00 -0.00000000000E+00 -0.27304321756E+03  0.27304321756E+03  0.00000000000E+00 0.  1.
          6    1    1    2  501    0 -0.14661621414E+03  0.62873836276E+02 -0.14190291734E+03  0.27417124482E+03  0.17200000000E+03 0.  1.
         -6    1    1    2    0  502  0.14661621414E+03 -0.62873836276E+02  0.14664093453E+03  0.27665320749E+03  0.17200000000E+03 0. -1.
</event>
<event>
 4    1  0.4538619E+000  0.1949306E+03  0.7818608E-02  0.1154088E+00
         21   -1    0    0  501  502  0.00000000000E+00  0.00000000000E+00  0.62598488665E+02  0.62598488665E+02  0.00000000000E+00 0.  1.
         21   -1    0    0  502  503 -0.00000000000E+00 -0.00000000000E+00 -0.70514938128E+03  0.70514938128E+03  0.00000000000E+00 0. -1.
          6    1    1    2  501    0 -0.68495162782E+02  0.61010923802E+02 -0.17806677685E+03  0.26401836521E+03  0.17200000000E+03 0.  1.
         -6    1    1    2    0  503  0.68495162782E+02 -0.61010923802E+02 -0.46448411577E+03  0.50372950474E+03  0.17200000000E+03 0. -1.
</event>
<event>
 4    1  0.4538619E+000  0.1843826E+03  0.7818608E-02  0.1163628E+00
         21   -1    0    0  503  502  0.00000000000E+00  0.00000000000E+00  0.12120592544E+03  0.12120592544E+03  0.00000000000E+00 0. -1.
         21   -1    0    0  501  503 -0.00000000000E+00 -0.00000000000E+00 -0.39906972851E+03  0.39906972851E+03  0.00000000000E+00 0. -1.
          6    1    1    2  501    0 -0.38629026253E+02  0.54043972086E+02 -0.28073503031E+03  0.33587067426E+03  0.17200000000E+03 0. -1.
         -6    1    1    2    0  502  0.38629026253E+02 -0.54043972086E+02  0.28712272425E+01  0.18440497969E+03  0.17200000000E+03 0. -1.
</event>
<event>
 4    1  0.4538619E+000  0.1843976E+03  0.7818608E-02  0.1163614E+00
         21   -1    0    0  501  502  0.00000000000E+00  0.00000000000E+00  0.12812256111E+03  0.12812256111E+03  0.00000000000E+00 0.  1.
         21   -1    0    0  502  503 -0.00000000000E+00 -0.00000000000E+00 -0.36121638980E+03  0.36121638980E+03  0.00000000000E+00 0.  1.
          6    1    1    2  501    0 -0.10048157864E+02  0.65707677839E+02  0.94727485642E+01  0.18464072511E+03  0.17200000000E+03 0.  1.
         -6    1    1    2    0  503  0.10048157864E+02 -0.65707677839E+02 -0.24256657726E+03  0.30469822580E+03  0.17200000000E+03 0.  1.
</event>
<event>
 4    1  0.4538619E+000  0.1803074E+03  0.7818608E-02  0.1167506E+00
         21   -1    0    0  501  502  0.00000000000E+00  0.00000000000E+00  0.41251744078E+03  0.41251744078E+03  0.00000000000E+00 0.  1.
         21   -1    0    0  502  503 -0.00000000000E+00 -0.00000000000E+00 -0.11160145968E+03  0.11160145968E+03  0.00000000000E+00 0.  1.
          6    1    1    2  501    0  0.52382327017E+02  0.13522188977E+02  0.29250795088E+03  0.34361556878E+03  0.17200000000E+03 0.  1.
         -6    1    1    2    0  503 -0.52382327017E+02 -0.13522188977E+02  0.84080302260E+01  0.18050333169E+03  0.17200000000E+03 0.  1.
</event>
<event>
 4    1  0.4538619E+000  0.1723095E+03  0.7818608E-02  0.1175461E+00
         21   -1    0    0  501  502  0.00000000000E+00  0.00000000000E+00  0.25692474516E+03  0.25692474516E+03  0.00000000000E+00 0. -1.
         21   -1    0    0  502  503 -0.00000000000E+00 -0.00000000000E+00 -0.13913021942E+03  0.13913021942E+03  0.00000000000E+00 0. -1.
          6    1    1    2  501    0  0.47678230106E+01  0.91558619749E+01  0.14040229242E+03  0.22226867899E+03  0.17200000000E+03 0. -1.
         -6    1    1    2    0  503 -0.47678230106E+01 -0.91558619749E+01 -0.22607766669E+02  0.17378628559E+03  0.17200000000E+03 0. -1.
</event>
<event>
 4    1  0.4538619E+000  0.1783074E+03  0.7818608E-02  0.1169451E+00
         21   -1    0    0  501  502  0.00000000000E+00  0.00000000000E+00  0.12128156931E+03  0.12128156931E+03  0.00000000000E+00 0.  1.
         21   -1    0    0  502  503 -0.00000000000E+00 -0.00000000000E+00 -0.27465559682E+03  0.27465559682E+03  0.00000000000E+00 0.  1.
          6    1    1    2  501    0 -0.46898285538E+02 -0.31738974616E+01 -0.34437926679E+02  0.18160257048E+03  0.17200000000E+03 0.  1.
         -6    1    1    2    0  503  0.46898285538E+02  0.31738974616E+01 -0.11893610083E+03  0.21433459565E+03  0.17200000000E+03 0.  1.
</event>
<event>
 4    1  0.4538619E+000  0.2154744E+03  0.7818608E-02  0.1137303E+00
         21   -1    0    0  503  502  0.00000000000E+00  0.00000000000E+00  0.52889822161E+03  0.52889822161E+03  0.00000000000E+00 0. -1.
         21   -1    0    0  501  503 -0.00000000000E+00 -0.00000000000E+00 -0.17732952532E+03  0.17732952532E+03  0.00000000000E+00 0. -1.
          6    1    1    2  501    0 -0.12972947236E+03 -0.39360563683E+01 -0.75140830110E+02  0.22820029117E+03  0.17200000000E+03 0. -1.
         -6    1    1    2    0  502  0.12972947236E+03  0.39360563683E+01  0.42670952641E+03  0.47802745577E+03  0.17200000000E+03 0. -1.
</event>
<event>
 4    1  0.4538619E+000  0.2503219E+03  0.7818608E-02  0.1113102E+00
         21   -1    0    0  501  502  0.00000000000E+00  0.00000000000E+00  0.62674601873E+03  0.62674601873E+03  0.00000000000E+00 0. -1.
         21   -1    0    0  502  503 -0.00000000000E+00 -0.00000000000E+00 -0.99996034246E+02  0.99996034246E+02  0.00000000000E+00 0. -1.
          6    1    1    2  501    0  0.70335992784E+02  0.16771969433E+03  0.26820401845E+03  0.36687115348E+03  0.17200000000E+03 0. -1.
         -6    1    1    2    0  503 -0.70335992784E+02 -0.16771969433E+03  0.25854596604E+03  0.35987089950E+03  0.17200000000E+03 0. -1.
</event>
<event>
 4    1  0.4538619E+000  0.1869646E+03  0.7818608E-02  0.1161228E+00
         21   -1    0    0  503  502  0.00000000000E+00  0.00000000000E+00  0.39760210306E+04  0.39760210306E+04  0.00000000000E+00 0. -1.
         21   -1    0    0  501  503 -0.00000000000E+00 -0.00000000000E+00 -0.94280263392E+01  0.94280263392E+01  0.00000000000E+00 0. -1.
          6    1    1    2  501    0 -0.80570551240E+01 -0.72848023666E+02  0.14655742226E+04  0.14774517090E+04  0.17200000000E+03 0. -1.
         -6    1    1    2    0  502  0.80570551240E+01  0.72848023666E+02  0.25010187817E+04  0.25079973480E+04  0.17200000000E+03 0. -1.
</event>
<event>
 4    1  0.4538619E+000  0.1852127E+03  0.7818608E-02  0.1162851E+00
         21   -1    0    0  501  502  0.00000000000E+00  0.00000000000E+00  0.16659471869E+04  0.16659471869E+04  0.00000000000E+00 0. -1.
         21   -1    0    0  502  503 -0.00000000000E+00 -0.00000000000E+00 -0.20706666351E+02  0.20706666351E+02  0.00000000000E+00 0.  1.
          6    1    1    2  501    0 -0.54930278188E+02 -0.41260411195E+02  0.75962969651E+03  0.78188300455E+03  0.17200000000E+03 0.  1.
         -6    1    1    2    0  503  0.54930278188E+02  0.41260411195E+02  0.88561082408E+03  0.90477084874E+03  0.17200000000E+03 0. -1.
</event>
<event>
 4    1  0.4538619E+000  0.1907005E+03  0.7818608E-02  0.1157831E+00
         21   -1    0    0  501  502  0.00000000000E+00  0.00000000000E+00  0.46065268702E+03  0.46065268702E+03  0.00000000000E+00 0. -1.
         21   -1    0    0  502  503 -0.00000000000E+00 -0.00000000000E+00 -0.15339224762E+03  0.15339224762E+03  0.00000000000E+00 0. -1.
          6    1    1    2  501    0 -0.47800075935E+02 -0.67065941207E+02  0.36751991104E+03  0.41405020558E+03  0.17200000000E+03 0. -1.
         -6    1    1    2    0  503  0.47800075935E+02  0.67065941207E+02 -0.60259471644E+02  0.19999472906E+03  0.17200000000E+03 0. -1.
</event>
<event>
 4    1  0.4538619E+000  0.1849296E+03  0.7818608E-02  0.1163116E+00
         21   -1    0    0  503  502  0.00000000000E+00  0.00000000000E+00  0.16289581249E+03  0.16289581249E+03  0.00000000000E+00 0.  1.
         21   -1    0    0  501  503 -0.00000000000E+00 -0.00000000000E+00 -0.21385977361E+03  0.21385977361E+03  0.00000000000E+00 0.  1.
          6    1    1    2  501    0  0.42851925302E+02 -0.52713098114E+02 -0.50973025581E+02  0.19182598247E+03  0.17200000000E+03 0.  1.
         -6    1    1    2    0  502 -0.42851925302E+02  0.52713098114E+02  0.90644563494E-02  0.18492960363E+03  0.17200000000E+03 0.  1.
</event>
<event>
 4    1  0.4538619E+000  0.2128628E+03  0.7818608E-02  0.1139319E+00
         21   -1    0    0  503  502  0.00000000000E+00  0.00000000000E+00  0.44244336002E+02  0.44244336002E+02  0.00000000000E+00 0.  1.
         21   -1    0    0  501  503 -0.00000000000E+00 -0.00000000000E+00 -0.10743206548E+04  0.10743206548E+04  0.00000000000E+00 0. -1.
          6    1    1    2  501    0  0.10774357461E+03 -0.64170954358E+02 -0.39411516468E+03  0.44792561021E+03  0.17200000000E+03 0.  1.
         -6    1    1    2    0  502 -0.10774357461E+03  0.64170954358E+02 -0.63596115415E+03  0.67063938062E+03  0.17200000000E+03 0.  1.
</event>
<event>
 4    1  0.4538619E+000  0.4930986E+03  0.7818608E-02  0.1015596E+00
         21   -1    0    0  501  502  0.00000000000E+00  0.00000000000E+00  0.39995791680E+03  0.39995791680E+03  0.00000000000E+00 0. -1.
         21   -1    0    0  502  503 -0.00000000000E+00 -0.00000000000E+00 -0.60837594224E+03  0.60837594224E+03  0.00000000000E+00 0.  1.
          6    1    1    2  501    0 -0.34371739303E+03  0.30890223822E+03 -0.90552386951E+02  0.50134416705E+03  0.17200000000E+03 0.  1.
         -6    1    1    2    0  503  0.34371739303E+03 -0.30890223822E+03 -0.11786563849E+03  0.50698969199E+03  0.17200000000E+03 0. -1.
</event>
<event>
 4    1  0.4538619E+000  0.2502586E+03  0.7818608E-02  0.1113141E+00
         21   -1    0    0  503  502  0.00000000000E+00  0.00000000000E+00  0.47195555647E+03  0.47195555647E+03  0.00000000000E+00 0. -1.
         21   -1    0    0  501  503 -0.00000000000E+00 -0.00000000000E+00 -0.17361403080E+03  0.17361403080E+03  0.00000000000E+00 0.  1.
          6    1    1    2  501    0 -0.13621529205E+02 -0.18127284840E+03 -0.75212249532E+01  0.25037164466E+03  0.17200000000E+03 0.  1.
         -6    1    1    2    0  502  0.13621529205E+02  0.18127284840E+03  0.30586275063E+03  0.39519794261E+03  0.17200000000E+03 0. -1.
</event>
<event>
 4    1  0.4538619E+000  0.2036903E+03  0.7818608E-02  0.1146662E+00
         21   -1    0    0  503  502  0.00000000000E+00  0.00000000000E+00  0.13457451767E+04  0.13457451767E+04  0.00000000000E+00 0. -1.
         21   -1    0    0  501  503 -0.00000000000E+00 -0.00000000000E+00 -0.34051856044E+02  0.34051856044E+02  0.00000000000E+00 0.  1.
          6    1    1    2  501    0 -0.81598528042E+02 -0.72439057066E+02  0.44364577132E+03  0.48817139119E+03  0.17200000000E+03 0.  1.
         -6    1    1    2    0  502  0.81598528042E+02  0.72439057066E+02  0.86804754933E+03  0.89162564155E+03  0.17200000000E+03 0. -1.
</event>
<event>
 4    1  0.4538619E+000  0.2521601E+03  0.7818608E-02  0.1111947E+00
         21   -1    0    0  503  502  0.00000000000E+00  0.00000000000E+00  0.21216827026E+03  0.21216827026E+03  0.00000000000E+00 0.  1.
         21   -1    0    0  501  503 -0.00000000000E+00 -0.00000000000E+00 -0.53926349551E+03  0.53926349551E+03  0.00000000000E+00 0. -1.
          6    1    1    2  501    0 -0.97365397608E+02 -0.15659089716E+03 -0.41397299137E+03  0.48472504300E+03  0.17200000000E+03 0.  1.
         -6    1    1    2    0  502  0.97365397608E+02  0.15659089716E+03  0.86877766120E+02  0.26670672277E+03  0.17200000000E+03 0. -1.
</event>
<event>
 4    1  0.4538619E+000  0.3814644E+03  0.7818608E-02  0.1050394E+00
         21   -1    0    0  503  502  0.00000000000E+00  0.00000000000E+00  0.61531384592E+03  0.61531384592E+03  0.00000000000E+00 0.  1.
         21   -1    0    0  501  503 -0.00000000000E+00 -0.00000000000E+00 -0.29687753459E+03  0.29687753459E+03  0.00000000000E+00 0. -1.
          6    1    1    2  501    0 -0.31557379174E+03  0.12784468401E+03  0.36492266646E+03  0.52790494765E+03  0.17200000000E+03 0.  1.
         -6    1    1    2    0  502  0.31557379174E+03 -0.12784468401E+03 -0.46486355134E+02  0.38428643285E+03  0.17200000000E+03 0. -1.
</event>
<event>
 4    1  0.4538619E+000  0.1816558E+03  0.7818608E-02  0.1166210E+00
         21   -1    0    0  503  502  0.00000000000E+00  0.00000000000E+00  0.17094016788E+03  0.17094016788E+03  0.00000000000E+00 0. -1.
         21   -1    0    0  501  503 -0.00000000000E+00 -0.00000000000E+00 -0.21447892586E+03  0.21447892586E+03  0.00000000000E+00 0.  1.
          6    1    1    2  501    0  0.35664570826E+02 -0.46291086287E+02 -0.82692290545E+02  0.19959168619E+03  0.17200000000E+03 0.  1.
         -6    1    1    2    0  502 -0.35664570826E+02  0.46291086287E+02  0.39153532563E+02  0.18582740754E+03  0.17200000000E+03 0. -1.
</event>
<event>
 4    1  0.4538619E+000  0.1729626E+03  0.7818608E-02  0.1174793E+00
         21   -1    0    0  501  502  0.00000000000E+00  0.00000000000E+00  0.98707438080E+02  0.98707438080E+02  0.00000000000E+00 0. -1.
         21   -1    0    0  502  503 -0.00000000000E+00 -0.00000000000E+00 -0.60167222152E+03  0.60167222152E+03  0.00000000000E+00 0. -1.
          6    1    1    2  501    0  0.80686174523E+01 -0.16338593647E+02 -0.47851730723E+01  0.17302875516E+03  0.17200000000E+03 0. -1.
         -6    1    1    2    0  503 -0.80686174523E+01  0.16338593647E+02 -0.49817961037E+03  0.52735090444E+03  0.17200000000E+03 0. -1.
</event>
<event>
 4    1  0.4538619E+000  0.2258570E+03  0.7818608E-02  0.1129590E+00
         21   -1    0    0  503  502  0.00000000000E+00  0.00000000000E+00  0.29608845686E+03  0.29608845686E+03  0.00000000000E+00 0.  1.
         21   -1    0    0  501  503 -0.00000000000E+00 -0.00000000000E+00 -0.23507594488E+03  0.23507594488E+03  0.00000000000E+00 0.  1.
          6    1    1    2  501    0  0.13524670395E+03 -0.55997576286E+02 -0.10675428908E+03  0.24981568749E+03  0.17200000000E+03 0. -1.
         -6    1    1    2    0  502 -0.13524670395E+03  0.55997576286E+02  0.16776680105E+03  0.28134871425E+03  0.17200000000E+03 0. -1.
</event>
<event>
 4    1  0.4538619E+000  0.1839131E+03  0.7818608E-02  0.1164069E+00
         21   -1    0    0  503  502  0.00000000000E+00  0.00000000000E+00  0.11808363355E+03  0.11808363355E+03  0.00000000000E+00 0. -1.
         21   -1    0    0  501  503 -0.00000000000E+00 -0.00000000000E+00 -0.97030585400E+03  0.97030585400E+03  0.00000000000E+00 0. -1.
          6    1    1    2  501    0 -0.37678105084E+02  0.53107380629E+02 -0.88297312772E+03  0.90192326600E+03  0.17200000000E+03 0. -1.
         -6    1    1    2    0  502  0.37678105084E+02 -0.53107380629E+02  0.30750907274E+02  0.18646622155E+03  0.17200000000E+03 0. -1.
</event>
<event>
 4    1  0.4538619E+000  0.2155362E+03  0.7818608E-02  0.1137255E+00
         21   -1    0    0  501  502  0.00000000000E+00  0.00000000000E+00  0.45280871944E+03  0.45280871944E+03  0.00000000000E+00 0. -1.
         21   -1    0    0  502  503 -0.00000000000E+00 -0.00000000000E+00 -0.24664591101E+03  0.24664591101E+03  0.00000000000E+00 0.  1.
          6    1    1    2  501    0 -0.24808590855E+02 -0.12750053951E+03  0.37035175748E+03  0.42850470012E+03  0.17200000000E+03 0. -1.
         -6    1    1    2    0  503  0.24808590855E+02  0.12750053951E+03 -0.16418894905E+03  0.27094993033E+03  0.17200000000E+03 0.  1.
</event>
<event>
 4    1  0.4538619E+000  0.3601656E+03  0.7818608E-02  0.1058518E+00
         21   -1    0    0  503  502  0.00000000000E+00  0.00000000000E+00  0.90417855369E+02  0.90417855369E+02  0.00000000000E+00 0. -1.
         21   -1    0    0  501  503 -0.00000000000E+00 -0.00000000000E+00 -0.19694413270E+04  0.19694413270E+04  0.00000000000E+00 0. -1.
          6    1    1    2  501    0  0.28731793701E+03 -0.13260336391E+03 -0.14762004643E+04  0.15195022408E+04  0.17200000000E+03 0. -1.
         -6    1    1    2    0  502 -0.28731793701E+03  0.13260336391E+03 -0.40282300734E+03  0.54035694157E+03  0.17200000000E+03 0. -1.
</event>
<event>
 4    1  0.4538619E+000  0.2199167E+03  0.7818608E-02  0.1133945E+00
         21   -1    0    0  501  502  0.00000000000E+00  0.00000000000E+00  0.29404726836E+03  0.29404726836E+03  0.00000000000E+00 0.  1.
         21   -1    0    0  502  503 -0.00000000000E+00 -0.00000000000E+00 -0.49330296710E+03  0.49330296710E+03  0.00000000000E+00 0.  1.
          6    1    1    2  501    0 -0.13386333669E+03  0.29324737537E+02  0.22178681037E+03  0.31233431191E+03  0.17200000000E+03 0.  1.
         -6    1    1    2    0  503  0.13386333669E+03 -0.29324737537E+02 -0.42104250911E+03  0.47501592355E+03  0.17200000000E+03 0.  1.
</event>
<event>
 4    1  0.4538619E+000  0.2435690E+03  0.7818608E-02  0.1117438E+00
         21   -1    0    0  503  502  0.00000000000E+00  0.00000000000E+00  0.63362996153E+02  0.63362996153E+02  0.00000000000E+00 0.  1.
         21   -1    0    0  501  503 -0.00000000000E+00 -0.00000000000E+00 -0.12174029673E+04  0.12174029673E+04  0.00000000000E+00 0.  1.
          6    1    1    2  501    0 -0.13210292222E+03  0.11086342915E+03 -0.88474739807E+03  0.91766216026E+03  0.17200000000E+03 0.  1.
         -6    1    1    2    0  502  0.13210292222E+03 -0.11086342915E+03 -0.26929257310E+03  0.36310380322E+03  0.17200000000E+03 0.  1.
</event>
<event>
 4    1  0.4538619E+000  0.1828318E+03  0.7818608E-02  0.1165090E+00
         21   -1    0    0  501  502  0.00000000000E+00  0.00000000000E+00  0.16141222419E+03  0.16141222419E+03  0.00000000000E+00 0. -1.
         21   -1    0    0  502  503 -0.00000000000E+00 -0.00000000000E+00 -0.45712474903E+03  0.45712474903E+03  0.00000000000E+00 0. -1.
          6    1    1    2  501    0 -0.61776253185E+02  0.52124574868E+01  0.80869541780E+02  0.19991837824E+03  0.17200000000E+03 0. -1.
         -6    1    1    2    0  503  0.61776253185E+02 -0.52124574868E+01 -0.37658206662E+03  0.41861859499E+03  0.17200000000E+03 0. -1.
</event>
<event>
 4    1  0.4538619E+000  0.1753946E+03  0.7818608E-02  0.1172336E+00
         21   -1    0    0  503  502  0.00000000000E+00  0.00000000000E+00  0.16922233508E+04  0.16922233508E+04  0.00000000000E+00 0.  1.
         21   -1    0    0  501  503 -0.00000000000E+00 -0.00000000000E+00 -0.20085485025E+02  0.20085485025E+02  0.00000000000E+00 0.  1.
          6    1    1    2  501    0  0.11246326464E+02  0.32446457420E+02  0.57231082438E+03  0.59858410617E+03  0.17200000000E+03 0.  1.
         -6    1    1    2    0  502 -0.11246326464E+02 -0.32446457420E+02  0.10998270414E+04  0.11137247296E+04  0.17200000000E+03 0.  1.
</event>
<event>
 4    1  0.4538619E+000  0.1804700E+03  0.7818608E-02  0.1167349E+00
         21   -1    0    0  503  502  0.00000000000E+00  0.00000000000E+00  0.39296905639E+03  0.39296905639E+03  0.00000000000E+00 0.  1.
         21   -1    0    0  501  503 -0.00000000000E+00 -0.00000000000E+00 -0.83321669059E+02  0.83321669059E+02  0.00000000000E+00 0.  1.
          6    1    1    2  501    0 -0.16121093787E+02 -0.52206559323E+02  0.13749213880E+03  0.22687772639E+03  0.17200000000E+03 0.  1.
         -6    1    1    2    0  502  0.16121093787E+02  0.52206559323E+02  0.17215524853E+03  0.24941299905E+03  0.17200000000E+03 0.  1.
</event>
<event>
 4    1  0.4538619E+000  0.1950648E+03  0.7818608E-02  0.1153971E+00
         21   -1    0    0  501  502  0.00000000000E+00  0.00000000000E+00  0.12022315285E+03  0.12022315285E+03  0.00000000000E+00 0.  1.
         21   -1    0    0  502  503 -0.00000000000E+00 -0.00000000000E+00 -0.37586698197E+03  0.37586698197E+03  0.00000000000E+00 0. -1.
          6    1    1    2  501    0  0.69741171032E+02  0.60020507290E+02 -0.29240237070E+02  0.19724422348E+03  0.17200000000E+03 0.  1.
         -6    1    1    2    0  503 -0.69741171032E+02 -0.60020507290E+02 -0.22640359205E+03  0.29884591134E+03  0.17200000000E+03 0. -1.
</event>
<event>
 4    1  0.4538619E+000  0.2664387E+03  0.7818608E-02  0.1103335E+00
         21   -1    0    0  501  502  0.00000000000E+00  0.00000000000E+00  0.10598957881E+03  0.10598957881E+03  0.00000000000E+00 0. -1.
         21   -1    0    0  502  503 -0.00000000000E+00 -0.00000000000E+00 -0.67016835049E+03  0.67016835049E+03  0.00000000000E+00 0. -1.
          6    1    1    2  501    0  0.93102762204E+02 -0.18093490910E+03 -0.27273213807E+03  0.38127730696E+03  0.17200000000E+03 0. -1.
         -6    1    1    2    0  503 -0.93102762204E+02  0.18093490910E+03 -0.29144663360E+03  0.39488062234E+03  0.17200000000E+03 0. -1.
</event>
<event>
 4    1  0.4538619E+000  0.2601690E+03  0.7818608E-02  0.1107042E+00
         21   -1    0    0  501  502  0.00000000000E+00  0.00000000000E+00  0.19571398395E+04  0.19571398395E+04  0.00000000000E+00 0. -1.
         21   -1    0    0  502  503 -0.00000000000E+00 -0.00000000000E+00 -0.39788026358E+02  0.39788026358E+02  0.00000000000E+00 0. -1.
          6    1    1    2  501    0  0.17704345490E+03 -0.82216270711E+02  0.13197360344E+04  0.13451360900E+04  0.17200000000E+03 0. -1.
         -6    1    1    2    0  503 -0.17704345490E+03  0.82216270711E+02  0.59761577873E+03  0.65179177586E+03  0.17200000000E+03 0. -1.
</event>
<event>
 4    1  0.4538619E+000  0.2008936E+03  0.7818608E-02  0.1148987E+00
         21   -1    0    0  503  502  0.00000000000E+00  0.00000000000E+00  0.18984804148E+03  0.18984804148E+03  0.00000000000E+00 0.  1.
         21   -1    0    0  501  503 -0.00000000000E+00 -0.00000000000E+00 -0.29966312019E+03  0.29966312019E+03  0.00000000000E+00 0. -1.
          6    1    1    2  501    0  0.97606169522E+02  0.35316628328E+02 -0.18684817919E+03  0.27435464391E+03  0.17200000000E+03 0. -1.
         -6    1    1    2    0  502 -0.97606169522E+02 -0.35316628328E+02  0.77033100487E+02  0.21515651776E+03  0.17200000000E+03 0.  1.
</event>
<event>
 4    1  0.4538619E+000  0.1744599E+03  0.7818608E-02  0.1173275E+00
         21   -1    0    0  501  502  0.00000000000E+00  0.00000000000E+00  0.44643613756E+03  0.44643613756E+03  0.00000000000E+00 0.  1.
         21   -1    0    0  502  503 -0.00000000000E+00 -0.00000000000E+00 -0.11792301821E+03  0.11792301821E+03  0.00000000000E+00 0.  1.
          6    1    1    2  501    0  0.20581119555E+02  0.20704658843E+02  0.34753419329E+03  0.38886537630E+03  0.17200000000E+03 0.  1.
         -6    1    1    2    0  503 -0.20581119555E+02 -0.20704658843E+02 -0.19021073944E+02  0.17549377947E+03  0.17200000000E+03 0.  1.
</event>
<event>
 4    1  0.4538619E+000  0.1905693E+03  0.7818608E-02  0.1157949E+00
         21   -1    0    0  503  502  0.00000000000E+00  0.00000000000E+00  0.11059753896E+03  0.11059753896E+03  0.00000000000E+00 0. -1.
         21   -1    0    0  501  503 -0.00000000000E+00 -0.00000000000E+00 -0.17175956948E+04  0.17175956948E+04  0.00000000000E+00 0.  1.
          6    1    1    2  501    0  0.20837322510E+02 -0.79362835264E+02 -0.16255872536E+04  0.16367194544E+04  0.17200000000E+03 0.  1.
         -6    1    1    2    0  502 -0.20837322510E+02  0.79362835264E+02  0.18589097673E+02  0.19147377936E+03  0.17200000000E+03 0. -1.
</event>
<event>
 4    1  0.4538619E+000  0.1844430E+03  0.7818608E-02  0.1163571E+00
         21   -1    0    0  501  502  0.00000000000E+00  0.00000000000E+00  0.32003886810E+02  0.32003886810E+02  0.00000000000E+00 0.  1.
         21   -1    0    0  502  503 -0.00000000000E+00 -0.00000000000E+00 -0.10983609493E+04  0.10983609493E+04  0.00000000000E+00 0.  1.
          6    1    1    2  501    0 -0.66245413140E+02 -0.68380398856E+01 -0.43172803937E+03  0.46947663790E+03  0.17200000000E+03 0.  1.
         -6    1    1    2    0  503  0.66245413140E+02  0.68380398856E+01 -0.63462902311E+03  0.66088819821E+03  0.17200000000E+03 0.  1.
</event>
<event>
 4    1  0.4538619E+000  0.2031573E+03  0.7818608E-02  0.1147102E+00
         21   -1    0    0  503  502  0.00000000000E+00  0.00000000000E+00  0.18166404885E+03  0.18166404885E+03  0.00000000000E+00 0.  1.
         21   -1    0    0  501  503 -0.00000000000E+00 -0.00000000000E+00 -0.23632560716E+03  0.23632560716E+03  0.00000000000E+00 0.  1.
          6    1    1    2  501    0  0.23728533712E+02 -0.10547921372E+03 -0.68413902535E+02  0.21436737135E+03  0.17200000000E+03 0.  1.
         -6    1    1    2    0  502 -0.23728533712E+02  0.10547921372E+03  0.13752344231E+02  0.20362228466E+03  0.17200000000E+03 0.  1.
</event>
<event>
 4    1  0.4538619E+000  0.1772618E+03  0.7818608E-02  0.1170480E+00
         21   -1    0    0  501  502  0.00000000000E+00  0.00000000000E+00  0.28402504301E+03  0.28402504301E+03  0.00000000000E+00 0.  1.
         21   -1    0    0  502  503 -0.00000000000E+00 -0.00000000000E+00 -0.26063740055E+03  0.26063740055E+03  0.00000000000E+00 0.  1.
          6    1    1    2  501    0 -0.20806998445E+02 -0.37480949025E+02  0.21829609280E+03  0.28120266154E+03  0.17200000000E+03 0.  1.
         -6    1    1    2    0  503  0.20806998445E+02  0.37480949025E+02 -0.19490845035E+03  0.26345978202E+03  0.17200000000E+03 0.  1.
</event>
<event>
 4    1  0.4538619E+000  0.1899529E+03  0.7818608E-02  0.1158504E+00
         21   -1    0    0  503  502  0.00000000000E+00  0.00000000000E+00  0.91224525527E+03  0.91224525527E+03  0.00000000000E+00 0.  1.
         21   -1    0    0  501  503 -0.00000000000E+00 -0.00000000000E+00 -0.41418128771E+02  0.41418128771E+02  0.00000000000E+00 0.  1.
          6    1    1    2  501    0  0.34772860404E+02 -0.72725118465E+02  0.53659873468E+03  0.56922780742E+03  0.17200000000E+03 0.  1.
         -6    1    1    2    0  502 -0.34772860404E+02  0.72725118465E+02  0.33422839182E+03  0.38443557663E+03  0.17200000000E+03 0.  1.
</event>
<event>
 4    1  0.4538619E+000  0.3342205E+03  0.7818608E-02  0.1069285E+00
         21   -1    0    0  503  502  0.00000000000E+00  0.00000000000E+00  0.16591323144E+04  0.16591323144E+04  0.00000000000E+00 0.  1.
         21   -1    0    0  501  503 -0.00000000000E+00 -0.00000000000E+00 -0.91561729658E+02  0.91561729658E+02  0.00000000000E+00 0. -1.
          6    1    1    2  501    0 -0.15019020352E+03  0.24405373573E+03  0.33343735618E+03  0.47210570178E+03  0.17200000000E+03 0. -1.
         -6    1    1    2    0  502  0.15019020352E+03 -0.24405373573E+03  0.12341332286E+04  0.12785883423E+04  0.17200000000E+03 0.  1.
</event>
<event>
 4    1  0.4538619E+000  0.1859725E+03  0.7818608E-02  0.1162145E+00
         21   -1    0    0  501  502  0.00000000000E+00  0.00000000000E+00  0.44244311024E+03  0.44244311024E+03  0.00000000000E+00 0.  1.
         21   -1    0    0  502  503 -0.00000000000E+00 -0.00000000000E+00 -0.80024267426E+02  0.80024267426E+02  0.00000000000E+00 0.  1.
          6    1    1    2  501    0 -0.34636100539E+02 -0.61661128561E+02  0.14144352428E+03  0.23364936293E+03  0.17200000000E+03 0.  1.
         -6    1    1    2    0  503  0.34636100539E+02  0.61661128561E+02  0.22097531853E+03  0.28881801474E+03  0.17200000000E+03 0.  1.
</event>
<event>
 4    1  0.4538619E+000  0.2849619E+03  0.7818608E-02  0.1093009E+00
         21   -1    0    0  503  502  0.00000000000E+00  0.00000000000E+00  0.17684208592E+03  0.17684208592E+03  0.00000000000E+00 0.  1.
         21   -1    0    0  501  503 -0.00000000000E+00 -0.00000000000E+00 -0.49336497781E+03  0.49336497781E+03  0.00000000000E+00 0.  1.
          6    1    1    2  501    0  0.20340909299E+01  0.22718963560E+03 -0.70059232565E+02  0.29344771956E+03  0.17200000000E+03 0.  1.
         -6    1    1    2    0  502 -0.20340909299E+01 -0.22718963560E+03 -0.24646365932E+03  0.37675934417E+03  0.17200000000E+03 0.  1.
</event>
<event>
 4    1  0.4538619E+000  0.1726458E+03  0.7818608E-02  0.1175116E+00
         21   -1    0    0  501  502  0.00000000000E+00  0.00000000000E+00  0.49821302442E+03  0.49821302442E+03  0.00000000000E+00 0.  1.
         21   -1    0    0  502  503 -0.00000000000E+00 -0.00000000000E+00 -0.69085267300E+02  0.69085267300E+02  0.00000000000E+00 0.  1.
          6    1    1    2  501    0  0.14865053069E+02  0.12666542985E+01  0.31840141803E+03  0.36219613087E+03  0.17200000000E+03 0.  1.
         -6    1    1    2    0  503 -0.14865053069E+02 -0.12666542985E+01  0.11072633909E+03  0.20510216085E+03  0.17200000000E+03 0.  1.
</event>
<event>
 4    1  0.4538619E+000  0.1778905E+03  0.7818608E-02  0.1169860E+00
         21   -1    0    0  501  502  0.00000000000E+00  0.00000000000E+00  0.14578463319E+04  0.14578463319E+04  0.00000000000E+00 0. -1.
         21   -1    0    0  502  503 -0.00000000000E+00 -0.00000000000E+00 -0.21867615766E+02  0.21867615766E+02  0.00000000000E+00 0. -1.
          6    1    1    2  501    0  0.13557642188E+02 -0.43327097015E+02  0.78145422446E+03  0.80144603806E+03  0.17200000000E+03 0. -1.
         -6    1    1    2    0  503 -0.13557642188E+02  0.43327097015E+02  0.65452449164E+03  0.67826790957E+03  0.17200000000E+03 0. -1.
</event>
<event>
 4    1  0.4538619E+000  0.3384628E+03  0.7818608E-02  0.1067453E+00
         21   -1    0    0  501  502  0.00000000000E+00  0.00000000000E+00  0.10613981331E+04  0.10613981331E+04  0.00000000000E+00 0.  1.
         21   -1    0    0  502  503 -0.00000000000E+00 -0.00000000000E+00 -0.10800759105E+03  0.10800759105E+03  0.00000000000E+00 0.  1.
          6    1    1    2  501    0 -0.13547036508E+03 -0.25811020722E+03  0.49232894082E+03  0.59744864621E+03  0.17200000000E+03 0.  1.
         -6    1    1    2    0  503  0.13547036508E+03  0.25811020722E+03  0.46106160125E+03  0.57195707797E+03  0.17200000000E+03 0.  1.
</event>
<event>
 4    1  0.4538619E+000  0.2129251E+03  0.7818608E-02  0.1139270E+00
         21   -1    0    0  503  502  0.00000000000E+00  0.00000000000E+00  0.68711435735E+02  0.68711435735E+02  0.00000000000E+00 0. -1.
         21   -1    0    0  501  503 -0.00000000000E+00 -0.00000000000E+00 -0.73661474976E+03  0.73661474976E+03  0.00000000000E+00 0. -1.
          6    1    1    2  501    0  0.40500713350E+02 -0.11879728918E+03 -0.46396577222E+03  0.51049127464E+03  0.17200000000E+03 0. -1.
         -6    1    1    2    0  502 -0.40500713350E+02  0.11879728918E+03 -0.20393754181E+03  0.29483491086E+03  0.17200000000E+03 0. -1.
</event>
<event>
 4    1  0.4538619E+000  0.2187185E+03  0.7818608E-02  0.1134842E+00
         21   -1    0    0  501  502  0.00000000000E+00  0.00000000000E+00  0.19119306353E+03  0.19119306353E+03  0.00000000000E+00 0.  1.
         21   -1    0    0  502  503 -0.00000000000E+00 -0.00000000000E+00 -0.25423378036E+03  0.25423378036E+03  0.00000000000E+00 0.  1.
          6    1    1    2  501    0 -0.11787249545E+03  0.66029144370E+02 -0.34900156733E+01  0.21874632180E+03  0.17200000000E+03 0.  1.
         -6    1    1    2    0  503  0.11787249545E+03 -0.66029144370E+02 -0.59550701151E+02  0.22668052210E+03  0.17200000000E+03 0.  1.
</event>
<event>
 4    1  0.4538619E+000  0.2022518E+03  0.7818608E-02  0.1147853E+00
         21   -1    0    0  503  502  0.00000000000E+00  0.00000000000E+00  0.10214398706E+03  0.10214398706E+03  0.00000000000E+00 0. -1.
         21   -1    0    0  501  503 -0.00000000000E+00 -0.00000000000E+00 -0.55688484468E+03  0.55688484468E+03  0.00000000000E+00 0. -1.
          6    1    1    2  501    0 -0.10582774392E+03 -0.11057327861E+02 -0.40200424601E+03  0.45001465498E+03  0.17200000000E+03 0. -1.
         -6    1    1    2    0  502  0.10582774392E+03  0.11057327861E+02 -0.52736611613E+02  0.20901417676E+03  0.17200000000E+03 0. -1.
</event>
<event>
 4    1  0.4538619E+000  0.1899252E+03  0.7818608E-02  0.1158529E+00
         21   -1    0    0  501  502  0.00000000000E+00  0.00000000000E+00  0.10178454522E+04  0.10178454522E+04  0.00000000000E+00 0. -1.
         21   -1    0    0  502  503 -0.00000000000E+00 -0.00000000000E+00 -0.35821715838E+02  0.35821715838E+02  0.00000000000E+00 0. -1.
          6    1    1    2  501    0  0.27504873264E+02  0.75703854517E+02  0.54545530777E+03  0.57757517642E+03  0.17200000000E+03 0. -1.
         -6    1    1    2    0  503 -0.27504873264E+02 -0.75703854517E+02  0.43656842862E+03  0.47609199164E+03  0.17200000000E+03 0. -1.
</event>
<event>
 4    1  0.4538619E+000  0.2444157E+03  0.7818608E-02  0.1116886E+00
         21   -1    0    0  503  502  0.00000000000E+00  0.00000000000E+00  0.20297387785E+03  0.20297387785E+03  0.00000000000E+00 0. -1.
         21   -1    0    0  501  503 -0.00000000000E+00 -0.00000000000E+00 -0.50521285469E+03  0.50521285469E+03  0.00000000000E+00 0. -1.
          6    1    1    2  501    0 -0.47651936610E+02  0.16698607376E+03  0.77657649295E+02  0.25645616855E+03  0.17200000000E+03 0. -1.
         -6    1    1    2    0  502  0.47651936610E+02 -0.16698607376E+03 -0.37989662614E+03  0.45173056399E+03  0.17200000000E+03 0. -1.
</event>
<event>
 4    1  0.4538619E+000  0.1878248E+03  0.7818608E-02  0.1160438E+00
         21   -1    0    0  503  502  0.00000000000E+00  0.00000000000E+00  0.11958162655E+03  0.11958162655E+03  0.00000000000E+00 0.  1.
         21   -1    0    0  501  503 -0.00000000000E+00 -0.00000000000E+00 -0.30414741684E+03  0.30414741684E+03  0.00000000000E+00 0. -1.
          6    1    1    2  501    0  0.55181248685E+02 -0.51470325935E+02 -0.12899848984E+03  0.22785691791E+03  0.17200000000E+03 0.  1.
         -6    1    1    2    0  502 -0.55181248685E+02  0.51470325935E+02 -0.55567300454E+02  0.19587212548E+03  0.17200000000E+03 0. -1.
</event>
<event>
 4    1  0.4538619E+000  0.2364223E+03  0.7818608E-02  0.1122199E+00
         21   -1    0    0  503  502  0.00000000000E+00  0.00000000000E+00  0.12348174658E+03  0.12348174658E+03  0.00000000000E+00 0. -1.
         21   -1    0    0  501  503 -0.00000000000E+00 -0.00000000000E+00 -0.47870906265E+03  0.47870906265E+03  0.00000000000E+00 0. -1.
          6    1    1    2  501    0 -0.10517119478E+03  0.12349304999E+03 -0.24784749273E+03  0.34252575562E+03  0.17200000000E+03 0. -1.
         -6    1    1    2    0  502  0.10517119478E+03 -0.12349304999E+03 -0.10737982334E+03  0.25966505361E+03  0.17200000000E+03 0. -1.
</event>
<event>
 4    1  0.4538619E+000  0.2928372E+03  0.7818608E-02  0.1088877E+00
         21   -1    0    0  503  502  0.00000000000E+00  0.00000000000E+00  0.11457821064E+04  0.11457821064E+04  0.00000000000E+00 0.  1.
         21   -1    0    0  501  503 -0.00000000000E+00 -0.00000000000E+00 -0.75749128936E+02  0.75749128936E+02  0.00000000000E+00 0.  1.
          6    1    1    2  501    0  0.21162880588E+03  0.10669042404E+03  0.60182268676E+03  0.66928629476E+03  0.17200000000E+03 0.  1.
         -6    1    1    2    0  502 -0.21162880588E+03 -0.10669042404E+03  0.46821029066E+03  0.55224494053E+03  0.17200000000E+03 0.  1.
</event>
<event>
 4    1  0.4538619E+000  0.1880584E+03  0.7818608E-02  0.1160224E+00
         21   -1    0    0  501  502  0.00000000000E+00  0.00000000000E+00  0.27861214537E+03  0.27861214537E+03  0.00000000000E+00 0.  1.
         21   -1    0    0  502  503 -0.00000000000E+00 -0.00000000000E+00 -0.12856932649E+03  0.12856932649E+03  0.00000000000E+00 0.  1.
          6    1    1    2  501    0 -0.53654295623E+02  0.53881266650E+02  0.97966815233E+02  0.21204591772E+03  0.17200000000E+03 0. -1.
         -6    1    1    2    0  503  0.53654295623E+02 -0.53881266650E+02  0.52076003639E+02  0.19513555414E+03  0.17200000000E+03 0. -1.
</event>
<event>
 4    1  0.4538619E+000  0.2142089E+03  0.7818608E-02  0.1138276E+00
         21   -1    0    0  501  502  0.00000000000E+00  0.00000000000E+00  0.54061229461E+03  0.54061229461E+03  0.00000000000E+00 0. -1.
         21   -1    0    0  502  503 -0.00000000000E+00 -0.00000000000E+00 -0.12383134856E+03  0.12383134856E+03  0.00000000000E+00 0.  1.
          6    1    1    2  501    0 -0.12675236809E+03  0.15339566359E+02  0.39472429813E+03  0.44910214500E+03  0.17200000000E+03 0. -1.
         -6    1    1    2    0  503  0.12675236809E+03 -0.15339566359E+02  0.22056647926E+02  0.21534149816E+03  0.17200000000E+03 0.  1.
</event>
<event>
 4    1  0.4538619E+000  0.1742489E+03  0.7818608E-02  0.1173488E+00
         21   -1    0    0  501  502  0.00000000000E+00  0.00000000000E+00  0.12232977555E+04  0.12232977555E+04  0.00000000000E+00 0. -1.
         21   -1    0    0  502  503 -0.00000000000E+00 -0.00000000000E+00 -0.68491915433E+02  0.68491915433E+02  0.00000000000E+00 0. -1.
          6    1    1    2  501    0 -0.47505486674E+01  0.27497778156E+02  0.10931555681E+04  0.11069560929E+04  0.17200000000E+03 0. -1.
         -6    1    1    2    0  503  0.47505486674E+01 -0.27497778156E+02  0.61650271872E+02  0.18483357795E+03  0.17200000000E+03 0. -1.
</event>
<event>
 4    1  0.4538619E+000  0.1857858E+03  0.7818608E-02  0.1162318E+00
         21   -1    0    0  501  502  0.00000000000E+00  0.00000000000E+00  0.12516810748E+03  0.12516810748E+03  0.00000000000E+00 0. -1.
         21   -1    0    0  502  503 -0.00000000000E+00 -0.00000000000E+00 -0.30214118207E+03  0.30214118207E+03  0.00000000000E+00 0. -1.
          6    1    1    2  501    0 -0.66588214853E+02 -0.22324538823E+02 -0.25353989837E+02  0.18750786701E+03  0.17200000000E+03 0. -1.
         -6    1    1    2    0  503  0.66588214853E+02  0.22324538823E+02 -0.15161908475E+03  0.23980142254E+03  0.17200000000E+03 0. -1.
</event>
<event>
 4    1  0.4538619E+000  0.1793413E+03  0.7818608E-02  0.1168442E+00
         21   -1    0    0  503  502  0.00000000000E+00  0.00000000000E+00  0.78293622322E+02  0.78293622322E+02  0.00000000000E+00 0.  1.
         21   -1    0    0  501  503 -0.00000000000E+00 -0.00000000000E+00 -0.62059856545E+03  0.62059856545E+03  0.00000000000E+00 0.  1.
          6    1    1    2  501    0 -0.40402855030E+02  0.30771774254E+02 -0.47432849601E+03  0.50710039924E+03  0.17200000000E+03 0.  1.
         -6    1    1    2    0  502  0.40402855030E+02 -0.30771774254E+02 -0.67976447122E+02  0.19179178853E+03  0.17200000000E+03 0.  1.
</event>
<event>
 4    1  0.4538619E+000  0.2287684E+03  0.7818608E-02  0.1127510E+00
         21   -1    0    0  501  502  0.00000000000E+00  0.00000000000E+00  0.35962437912E+03  0.35962437912E+03  0.00000000000E+00 0. -1.
         21   -1    0    0  502  503 -0.00000000000E+00 -0.00000000000E+00 -0.15095709994E+03  0.15095709994E+03  0.00000000000E+00 0. -1.
          6    1    1    2  501    0 -0.28355971580E+02 -0.14814487387E+03  0.55913899089E+02  0.23550229062E+03  0.17200000000E+03 0. -1.
         -6    1    1    2    0  503  0.28355971580E+02  0.14814487387E+03  0.15275338010E+03  0.27507918844E+03  0.17200000000E+03 0. -1.
</event>
<event>
 4    1  0.4538619E+000  0.1834002E+03  0.7818608E-02  0.1164552E+00
         21   -1    0    0  503  502  0.00000000000E+00  0.00000000000E+00  0.45049852726E+03  0.45049852726E+03  0.00000000000E+00 0. -1.
         21   -1    0    0  501  503 -0.00000000000E+00 -0.00000000000E+00 -0.84149427748E+02  0.84149427748E+02  0.00000000000E+00 0. -1.
          6    1    1    2  501    0 -0.89901386650E+01  0.63014433492E+02  0.93419243773E+02  0.20582224498E+03  0.17200000000E+03 0. -1.
         -6    1    1    2    0  502  0.89901386650E+01 -0.63014433492E+02  0.27292985573E+03  0.32882571002E+03  0.17200000000E+03 0. -1.
</event>
<event>
 4    1  0.4538619E+000  0.2290629E+03  0.7818608E-02  0.1127301E+00
         21   -1    0    0  501  502  0.00000000000E+00  0.00000000000E+00  0.10932084339E+04  0.10932084339E+04  0.00000000000E+00 0. -1.
         21   -1    0    0  502  503 -0.00000000000E+00 -0.00000000000E+00 -0.72154042815E+02  0.72154042815E+02  0.00000000000E+00 0.  1.
          6    1    1    2  501    0  0.10418302876E+03 -0.10968908397E+03  0.17337173109E+03  0.28727609675E+03  0.17200000000E+03 0. -1.
         -6    1    1    2    0  503 -0.10418302876E+03  0.10968908397E+03  0.84768265999E+03  0.87808637996E+03  0.17200000000E+03 0. -1.
</event>
<event>
 4    1  0.4538619E+000  0.1987261E+03  0.7818608E-02  0.1150818E+00
         21   -1    0    0  501  502  0.00000000000E+00  0.00000000000E+00  0.56603716272E+03  0.56603716272E+03  0.00000000000E+00 0.  1.
         21   -1    0    0  502  503 -0.00000000000E+00 -0.00000000000E+00 -0.82991333813E+02  0.82991333813E+02  0.00000000000E+00 0.  1.
          6    1    1    2  501    0 -0.78153963216E+02 -0.61644250666E+02  0.37105143291E+03  0.42091711948E+03  0.17200000000E+03 0.  1.
         -6    1    1    2    0  503  0.78153963216E+02  0.61644250666E+02  0.11199439600E+03  0.22811137705E+03  0.17200000000E+03 0.  1.
</event>
<event>
 4    1  0.4538619E+000  0.2027174E+03  0.7818608E-02  0.1147466E+00
         21   -1    0    0  503  502  0.00000000000E+00  0.00000000000E+00  0.54188713636E+02  0.54188713636E+02  0.00000000000E+00 0.  1.
         21   -1    0    0  501  503 -0.00000000000E+00 -0.00000000000E+00 -0.93111882087E+03  0.93111882087E+03  0.00000000000E+00 0.  1.
          6    1    1    2  501    0 -0.10480588001E+03  0.22936321977E+02 -0.65067421949E+03  0.68152130359E+03  0.17200000000E+03 0.  1.
         -6    1    1    2    0  502  0.10480588001E+03 -0.22936321977E+02 -0.22625588775E+03  0.30378623091E+03  0.17200000000E+03 0.  1.
</event>
<event>
 4    1  0.4538619E+000  0.2258774E+03  0.7818608E-02  0.1129576E+00
         21   -1    0    0  501  502  0.00000000000E+00  0.00000000000E+00  0.51163485682E+02  0.51163485682E+02  0.00000000000E+00 0.  1.
         21   -1    0    0  502  503 -0.00000000000E+00 -0.00000000000E+00 -0.10371721003E+04  0.10371721003E+04  0.00000000000E+00 0. -1.
          6    1    1    2  501    0  0.31509888323E+02  0.14298149348E+03 -0.38618531873E+03  0.44739208860E+03  0.17200000000E+03 0.  1.
         -6    1    1    2    0  503 -0.31509888323E+02 -0.14298149348E+03 -0.59982329586E+03  0.64094349736E+03  0.17200000000E+03 0.  1.
</event>
<event>
 4    1  0.4538619E+000  0.1992890E+03  0.7818608E-02  0.1150340E+00
         21   -1    0    0  503  502  0.00000000000E+00  0.00000000000E+00  0.11546468856E+03  0.11546468856E+03  0.00000000000E+00 0. -1.
         21   -1    0    0  501  503 -0.00000000000E+00 -0.00000000000E+00 -0.36671893849E+03  0.36671893849E+03  0.00000000000E+00 0. -1.
          6    1    1    2  501    0 -0.72865215880E+02 -0.69446237521E+02 -0.65576348531E+02  0.20980080333E+03  0.17200000000E+03 0. -1.
         -6    1    1    2    0  502  0.72865215880E+02  0.69446237521E+02 -0.18567790140E+03  0.27238282372E+03  0.17200000000E+03 0. -1.
</event>
<event>
 4    1  0.4538619E+000  0.1837349E+03  0.7818608E-02  0.1164237E+00
         21   -1    0    0  501  502  0.00000000000E+00  0.00000000000E+00  0.30309430157E+03  0.30309430157E+03  0.00000000000E+00 0.  1.
         21   -1    0    0  502  503 -0.00000000000E+00 -0.00000000000E+00 -0.19383501256E+03  0.19383501256E+03  0.00000000000E+00 0.  1.
          6    1    1    2  501    0  0.30386853670E+02  0.57019021318E+02  0.21668299933E+03  0.28409514580E+03  0.17200000000E+03 0.  1.
         -6    1    1    2    0  503 -0.30386853670E+02 -0.57019021318E+02 -0.10742371032E+03  0.21283416833E+03  0.17200000000E+03 0.  1.
</event>
<event>
 4    1  0.4538619E+000  0.1810910E+03  0.7818608E-02  0.1166751E+00
         21   -1    0    0  501  502  0.00000000000E+00  0.00000000000E+00  0.12696370434E+03  0.12696370434E+03  0.00000000000E+00 0. -1.
         21   -1    0    0  502  503 -0.00000000000E+00 -0.00000000000E+00 -0.32452533021E+03  0.32452533021E+03  0.00000000000E+00 0. -1.
          6    1    1    2  501    0 -0.49949444093E+02  0.26739661513E+02  0.32014911929E+01  0.18111931429E+03  0.17200000000E+03 0. -1.
         -6    1    1    2    0  503  0.49949444093E+02 -0.26739661513E+02 -0.20076311706E+03  0.27036972027E+03  0.17200000000E+03 0. -1.
</event>
<event>
 4    1  0.4538619E+000  0.1728881E+03  0.7818608E-02  0.1174869E+00
         21   -1    0    0  501  502  0.00000000000E+00  0.00000000000E+00  0.18495945649E+03  0.18495945649E+03  0.00000000000E+00 0.  1.
         21   -1    0    0  502  503 -0.00000000000E+00 -0.00000000000E+00 -0.22893315530E+03  0.22893315530E+03  0.00000000000E+00 0.  1.
          6    1    1    2  501    0  0.14975907591E+02 -0.90557575070E+01  0.90241669326E+02  0.19502267416E+03  0.17200000000E+03 0.  1.
         -6    1    1    2    0  503 -0.14975907591E+02  0.90557575070E+01 -0.13421536814E+03  0.21886993763E+03  0.17200000000E+03 0.  1.
</event>
<event>
 4    1  0.4538619E+000  0.1743280E+03  0.7818608E-02  0.1173408E+00
         21   -1    0    0  501  502  0.00000000000E+00  0.00000000000E+00  0.10039190933E+02  0.10039190933E+02  0.00000000000E+00 0.  1.
         21   -1    0    0  502  503 -0.00000000000E+00 -0.00000000000E+00 -0.30467617986E+04  0.30467617986E+04  0.00000000000E+00 0.  1.
          6    1    1    2  501    0 -0.16459556736E+02  0.23137591833E+02 -0.16409456597E+04  0.16501796639E+04  0.17200000000E+03 0.  1.
         -6    1    1    2    0  503  0.16459556736E+02 -0.23137591833E+02 -0.13957769480E+04  0.14066213256E+04  0.17200000000E+03 0.  1.
</event>
<event>
 4    1  0.4538619E+000  0.3333013E+03  0.7818608E-02  0.1069685E+00
         21   -1    0    0  501  502  0.00000000000E+00  0.00000000000E+00  0.96836178266E+03  0.96836178266E+03  0.00000000000E+00 0.  1.
         21   -1    0    0  502  503 -0.00000000000E+00 -0.00000000000E+00 -0.49406232646E+03  0.49406232646E+03  0.00000000000E+00 0.  1.
          6    1    1    2  501    0  0.11522536438E+03  0.26120650750E+03  0.87787014281E+03  0.93901315848E+03  0.17200000000E+03 0.  1.
         -6    1    1    2    0  503 -0.11522536438E+03 -0.26120650750E+03 -0.40357068662E+03  0.52341095064E+03  0.17200000000E+03 0.  1.
</event>
<event>
 4    1  0.4538619E+000  0.1905350E+03  0.7818608E-02  0.1157980E+00
         21   -1    0    0  503  502  0.00000000000E+00  0.00000000000E+00  0.13453821637E+03  0.13453821637E+03  0.00000000000E+00 0. -1.
         21   -1    0    0  501  503 -0.00000000000E+00 -0.00000000000E+00 -0.52402358287E+03  0.52402358287E+03  0.00000000000E+00 0. -1.
          6    1    1    2  501    0 -0.60592963015E+02 -0.55209358340E+02 -0.42407550647E+03  0.46491248166E+03  0.17200000000E+03 0. -1.
         -6    1    1    2    0  502  0.60592963015E+02  0.55209358340E+02  0.34590139968E+02  0.19364931758E+03  0.17200000000E+03 0. -1.
</event>
<event>
 4    1  0.4538619E+000  0.2001584E+03  0.7818608E-02  0.1149605E+00
         21   -1    0    0  503  502  0.00000000000E+00  0.00000000000E+00  0.72956540549E+03  0.72956540549E+03  0.00000000000E+00 0. -1.
         21   -1    0    0  501  503 -0.00000000000E+00 -0.00000000000E+00 -0.71643498129E+02  0.71643498129E+02  0.00000000000E+00 0. -1.
          6    1    1    2  501    0  0.49432048519E+02  0.89643050757E+02  0.13537762243E+03  0.24164127260E+03  0.17200000000E+03 0. -1.
         -6    1    1    2    0  502 -0.49432048519E+02 -0.89643050757E+02  0.52254428493E+03  0.55956763102E+03  0.17200000000E+03 0. -1.
</event>
<event>
 4    1  0.4538619E+000  0.2716319E+03  0.7818608E-02  0.1100349E+00
         21   -1    0    0  501  502  0.00000000000E+00  0.00000000000E+00  0.11107617631E+04  0.11107617631E+04  0.00000000000E+00 0.  1.
         21   -1    0    0  502  503 -0.00000000000E+00 -0.00000000000E+00 -0.77528479238E+02  0.77528479238E+02  0.00000000000E+00 0.  1.
          6    1    1    2  501    0 -0.20057325630E+03 -0.63010119652E+02  0.74145170681E+03  0.78964203273E+03  0.17200000000E+03 0.  1.
         -6    1    1    2    0  503  0.20057325630E+03  0.63010119652E+02  0.29178157708E+03  0.39864820963E+03  0.17200000000E+03 0.  1.
</event>
<event>
 4    1  0.4538619E+000  0.2449970E+03  0.7818608E-02  0.1116508E+00
         21   -1    0    0  501  502  0.00000000000E+00  0.00000000000E+00  0.94222393178E+03  0.94222393178E+03  0.00000000000E+00 0.  1.
         21   -1    0    0  502  503 -0.00000000000E+00 -0.00000000000E+00 -0.11548800513E+03  0.11548800513E+03  0.00000000000E+00 0. -1.
          6    1    1    2  501    0 -0.13616004772E+03 -0.10908700784E+03  0.76750091666E+03  0.80565575213E+03  0.17200000000E+03 0.  1.
         -6    1    1    2    0  503  0.13616004772E+03  0.10908700784E+03  0.59235009989E+02  0.25205618477E+03  0.17200000000E+03 0. -1.
</event>
<event>
 4    1  0.4538619E+000  0.2508695E+03  0.7818608E-02  0.1112757E+00
         21   -1    0    0  501  502  0.00000000000E+00  0.00000000000E+00  0.19147266409E+03  0.19147266409E+03  0.00000000000E+00 0.  1.
         21   -1    0    0  502  503 -0.00000000000E+00 -0.00000000000E+00 -0.57092178821E+03  0.57092178821E+03  0.00000000000E+00 0.  1.
          6    1    1    2  501    0 -0.14255428894E+03  0.11414802374E+03  0.58574665022E+02  0.25761694044E+03  0.17200000000E+03 0.  1.
         -6    1    1    2    0  503  0.14255428894E+03 -0.11414802374E+03 -0.43802378914E+03  0.50477751185E+03  0.17200000000E+03 0.  1.
</event>
<event>
 4    1  0.4538619E+000  0.2414262E+03  0.7818608E-02  0.1118846E+00
         21   -1    0    0  503  502  0.00000000000E+00  0.00000000000E+00  0.95467147541E+02  0.95467147541E+02  0.00000000000E+00 0. -1.
         21   -1    0    0  501  503 -0.00000000000E+00 -0.00000000000E+00 -0.62183158610E+03  0.62183158610E+03  0.00000000000E+00 0. -1.
          6    1    1    2  501    0  0.19890827129E+02  0.16824677915E+03 -0.31150909340E+03  0.39411234308E+03  0.17200000000E+03 0. -1.
         -6    1    1    2    0  502 -0.19890827129E+02 -0.16824677915E+03 -0.21485534515E+03  0.32318639055E+03  0.17200000000E+03 0. -1.
</event>
<event>
 4    1  0.4538619E+000  0.1798505E+03  0.7818608E-02  0.1167948E+00
         21   -1    0    0  503  502  0.00000000000E+00  0.00000000000E+00  0.15095310180E+03  0.15095310180E+03  0.00000000000E+00 0.  1.
         21   -1    0    0  501  503 -0.00000000000E+00 -0.00000000000E+00 -0.21825040991E+03  0.21825040991E+03  0.00000000000E+00 0.  1.
          6    1    1    2  501    0 -0.47203459004E+02 -0.23109542566E+02 -0.58547586804E+02  0.18914025859E+03  0.17200000000E+03 0.  1.
         -6    1    1    2    0  502  0.47203459004E+02  0.23109542566E+02 -0.87497213036E+01  0.18006325312E+03  0.17200000000E+03 0.  1.
</event>
<event>
 4    1  0.4538619E+000  0.1773489E+03  0.7818608E-02  0.1170394E+00
         21   -1    0    0  503  502  0.00000000000E+00  0.00000000000E+00  0.30577048803E+03  0.30577048803E+03  0.00000000000E+00 0.  1.
         21   -1    0    0  501  503 -0.00000000000E+00 -0.00000000000E+00 -0.12156207064E+03  0.12156207064E+03  0.00000000000E+00 0.  1.
          6    1    1    2  501    0  0.28100423872E+02  0.32848103758E+02  0.83048296984E+01  0.17754323963E+03  0.17200000000E+03 0.  1.
         -6    1    1    2    0  502 -0.28100423872E+02 -0.32848103758E+02  0.17590358769E+03  0.24978931904E+03  0.17200000000E+03 0.  1.
</event>
<event>
 4    1  0.4538619E+000  0.2135098E+03  0.7818608E-02  0.1138816E+00
         21   -1    0    0  501  502  0.00000000000E+00  0.00000000000E+00  0.77630931441E+03  0.77630931441E+03  0.00000000000E+00 0.  1.
         21   -1    0    0  502  503 -0.00000000000E+00 -0.00000000000E+00 -0.73309742699E+02  0.73309742699E+02  0.00000000000E+00 0.  1.
          6    1    1    2  501    0  0.80540789998E+02 -0.97547959484E+02  0.54099911862E+03  0.58160679983E+03  0.17200000000E+03 0.  1.
         -6    1    1    2    0  503 -0.80540789998E+02  0.97547959484E+02  0.16200045309E+03  0.26801225728E+03  0.17200000000E+03 0.  1.
</event>
<event>
 4    1  0.4538619E+000  0.1784290E+03  0.7818608E-02  0.1169332E+00
         21   -1    0    0  503  502  0.00000000000E+00  0.00000000000E+00  0.17702264418E+03  0.17702264418E+03  0.00000000000E+00 0. -1.
         21   -1    0    0  501  503 -0.00000000000E+00 -0.00000000000E+00 -0.18119989892E+03  0.18119989892E+03  0.00000000000E+00 0. -1.
          6    1    1    2  501    0  0.40728581918E+02  0.24374155658E+02  0.13390421851E+02  0.17893076942E+03  0.17200000000E+03 0. -1.
         -6    1    1    2    0  502 -0.40728581918E+02 -0.24374155658E+02 -0.17567676586E+02  0.17929177368E+03  0.17200000000E+03 0. -1.
</event>
<event>
 4    1  0.4538619E+000  0.3676065E+03  0.7818608E-02  0.1055612E+00
         21   -1    0    0  501  502  0.00000000000E+00  0.00000000000E+00  0.11486780636E+04  0.11486780636E+04  0.00000000000E+00 0.  1.
         21   -1    0    0  502  503 -0.00000000000E+00 -0.00000000000E+00 -0.12506676191E+03  0.12506676191E+03  0.00000000000E+00 0.  1.
          6    1    1    2  501    0  0.21068580939E+02 -0.32420159672E+03  0.66696485226E+03  0.76156199654E+03  0.17200000000E+03 0.  1.
         -6    1    1    2    0  503 -0.21068580939E+02  0.32420159672E+03  0.35664644945E+03  0.51218282900E+03  0.17200000000E+03 0.  1.
</event>
<event>
 4    1  0.4538619E+000  0.1836239E+03  0.7818608E-02  0.1164341E+00
         21   -1    0    0  501  502  0.00000000000E+00  0.00000000000E+00  0.17997183509E+03  0.17997183509E+03  0.00000000000E+00 0. -1.
         21   -1    0    0  502  503 -0.00000000000E+00 -0.00000000000E+00 -0.19263974278E+03  0.19263974278E+03  0.00000000000E+00 0. -1.
          6    1    1    2  501    0  0.16568806246E+02  0.62122441142E+02 -0.37206378797E+02  0.18735537798E+03  0.17200000000E+03 0.  1.
         -6    1    1    2    0  503 -0.16568806246E+02 -0.62122441142E+02  0.24538471106E+02  0.18525619989E+03  0.17200000000E+03 0.  1.
</event>
<event>
 4    1  0.4538619E+000  0.2100175E+03  0.7818608E-02  0.1141552E+00
         21   -1    0    0  501  502  0.00000000000E+00  0.00000000000E+00  0.15646376075E+03  0.15646376075E+03  0.00000000000E+00 0. -1.
         21   -1    0    0  502  503 -0.00000000000E+00 -0.00000000000E+00 -0.31606583529E+03  0.31606583529E+03  0.00000000000E+00 0.  1.
          6    1    1    2  501    0  0.10674350202E+03 -0.55938993584E+02 -0.21231063127E+01  0.21002822145E+03  0.17200000000E+03 0. -1.
         -6    1    1    2    0  503 -0.10674350202E+03  0.55938993584E+02 -0.15747896822E+03  0.26250137459E+03  0.17200000000E+03 0.  1.
</event>
<event>
 4    1  0.4538619E+000  0.1971719E+03  0.7818608E-02  0.1152147E+00
         21   -1    0    0  501  502  0.00000000000E+00  0.00000000000E+00  0.23357701002E+03  0.23357701002E+03  0.00000000000E+00 0. -1.
         21   -1    0    0  502  503 -0.00000000000E+00 -0.00000000000E+00 -0.17976366160E+03  0.17976366160E+03  0.00000000000E+00 0. -1.
          6    1    1    2  501    0  0.59414308188E+02 -0.75912486833E+02  0.83169879055E+02  0.21399531410E+03  0.17200000000E+03 0. -1.
         -6    1    1    2    0  503 -0.59414308188E+02  0.75912486833E+02 -0.29356530628E+02  0.19934535752E+03  0.17200000000E+03 0. -1.
</event>
<event>
 4    1  0.4538619E+000  0.2195788E+03  0.7818608E-02  0.1134197E+00
         21   -1    0    0  503  502  0.00000000000E+00  0.00000000000E+00  0.50292382399E+03  0.50292382399E+03  0.00000000000E+00 0. -1.
         21   -1    0    0  501  503 -0.00000000000E+00 -0.00000000000E+00 -0.13192802978E+03  0.13192802978E+03  0.00000000000E+00 0.  1.
          6    1    1    2  501    0 -0.10845850462E+03 -0.82871086773E+02  0.19546789174E+02  0.22044713928E+03  0.17200000000E+03 0.  1.
         -6    1    1    2    0  502  0.10845850462E+03  0.82871086773E+02  0.35144900504E+03  0.41440471449E+03  0.17200000000E+03 0. -1.
</event>
<event>
 4    1  0.4538619E+000  0.1764138E+03  0.7818608E-02  0.1171320E+00
         21   -1    0    0  503  502  0.00000000000E+00  0.00000000000E+00  0.93058805755E+03  0.93058805755E+03  0.00000000000E+00 0. -1.
         21   -1    0    0  501  503 -0.00000000000E+00 -0.00000000000E+00 -0.55186728995E+02  0.55186728995E+02  0.00000000000E+00 0. -1.
          6    1    1    2  501    0  0.34181776035E+02  0.19220248900E+02  0.12831817507E+03  0.21814528607E+03  0.17200000000E+03 0. -1.
         -6    1    1    2    0  502 -0.34181776035E+02 -0.19220248900E+02  0.74708315348E+03  0.76762950048E+03  0.17200000000E+03 0. -1.
</event>
<event>
 4    1  0.4538619E+000  0.2204985E+03  0.7818608E-02  0.1133512E+00
         21   -1    0    0  503  502  0.00000000000E+00  0.00000000000E+00  0.89572583594E+02  0.89572583594E+02  0.00000000000E+00 0. -1.
         21   -1    0    0  501  503 -0.00000000000E+00 -0.00000000000E+00 -0.55264079320E+03  0.55264079320E+03  0.00000000000E+00 0.  1.
          6    1    1    2  501    0  0.40448345252E+02 -0.13190721413E+03 -0.27439345076E+03  0.35201043677E+03  0.17200000000E+03 0.  1.
         -6    1    1    2    0  502 -0.40448345252E+02  0.13190721413E+03 -0.18867475884E+03  0.29020294002E+03  0.17200000000E+03 0. -1.
</event>
<event>
 4    1  0.4538619E+000  0.1788266E+03  0.7818608E-02  0.1168944E+00
         21   -1    0    0  503  502  0.00000000000E+00  0.00000000000E+00  0.21506071500E+03  0.21506071500E+03  0.00000000000E+00 0.  1.
         21   -1    0    0  501  503 -0.00000000000E+00 -0.00000000000E+00 -0.16071655107E+03  0.16071655107E+03  0.00000000000E+00 0.  1.
          6    1    1    2  501    0  0.35828471159E+02 -0.33335847585E+02 -0.24209566400E+02  0.18045792082E+03  0.17200000000E+03 0.  1.
         -6    1    1    2    0  502 -0.35828471159E+02  0.33335847585E+02  0.78553730336E+02  0.19531934525E+03  0.17200000000E+03 0.  1.
</event>
<event>
 4    1  0.4538619E+000  0.2379394E+03  0.7818608E-02  0.1121173E+00
         21   -1    0    0  501  502  0.00000000000E+00  0.00000000000E+00  0.53473670442E+03  0.53473670442E+03  0.00000000000E+00 0. -1.
         21   -1    0    0  502  503 -0.00000000000E+00 -0.00000000000E+00 -0.50584870382E+03  0.50584870382E+03  0.00000000000E+00 0. -1.
          6    1    1    2  501    0  0.53552796542E+02 -0.15544529580E+03  0.47709472126E+03  0.53313648821E+03  0.17200000000E+03 0. -1.
         -6    1    1    2    0  503 -0.53552796542E+02  0.15544529580E+03 -0.44820672065E+03  0.50744892003E+03  0.17200000000E+03 0. -1.
</event>
<event>
 4    1  0.4538619E+000  0.2247626E+03  0.7818608E-02  0.1130381E+00
         21   -1    0    0  501  502  0.00000000000E+00  0.00000000000E+00  0.12031598841E+03  0.12031598841E+03  0.00000000000E+00 0. -1.
         21   -1    0    0  502  503 -0.00000000000E+00 -0.00000000000E+00 -0.54875488298E+03  0.54875488298E+03  0.00000000000E+00 0. -1.
          6    1    1    2  501    0 -0.15764884703E+02 -0.14382529894E+03 -0.52099118222E+02  0.23072183755E+03  0.17200000000E+03 0. -1.
         -6    1    1    2    0  503  0.15764884703E+02  0.14382529894E+03 -0.37633977635E+03  0.43834903384E+03  0.17200000000E+03 0. -1.
</event>
<event>
 4    1  0.4538619E+000  0.1794647E+03  0.7818608E-02  0.1168322E+00
         21   -1    0    0  503  502  0.00000000000E+00  0.00000000000E+00  0.44044547547E+03  0.44044547547E+03  0.00000000000E+00 0. -1.
         21   -1    0    0  501  503 -0.00000000000E+00 -0.00000000000E+00 -0.35942467645E+03  0.35942467645E+03  0.00000000000E+00 0. -1.
          6    1    1    2  501    0 -0.17333021629E+02 -0.48198905377E+02 -0.31643023484E+03  0.36377968833E+03  0.17200000000E+03 0. -1.
         -6    1    1    2    0  502  0.17333021629E+02  0.48198905377E+02  0.39745103386E+03  0.43609046359E+03  0.17200000000E+03 0. -1.
</event>
<event>
 4    1  0.4538619E+000  0.2054447E+03  0.7818608E-02  0.1145225E+00
         21   -1    0    0  503  502  0.00000000000E+00  0.00000000000E+00  0.35317491363E+03  0.35317491363E+03  0.00000000000E+00 0. -1.
         21   -1    0    0  501  503 -0.00000000000E+00 -0.00000000000E+00 -0.15988777473E+03  0.15988777473E+03  0.00000000000E+00 0. -1.
          6    1    1    2  501    0  0.99938091401E+02 -0.51341132169E+02 -0.32273400199E+02  0.20796419482E+03  0.17200000000E+03 0. -1.
         -6    1    1    2    0  502 -0.99938091401E+02  0.51341132169E+02  0.22556053909E+03  0.30509849354E+03  0.17200000000E+03 0. -1.
</event>
<event>
 4    1  0.4538619E+000  0.2159504E+03  0.7818608E-02  0.1136939E+00
         21   -1    0    0  501  502  0.00000000000E+00  0.00000000000E+00  0.64490606983E+03  0.64490606983E+03  0.00000000000E+00 0.  1.
         21   -1    0    0  502  503 -0.00000000000E+00 -0.00000000000E+00 -0.15537144698E+03  0.15537144698E+03  0.00000000000E+00 0. -1.
          6    1    1    2  501    0 -0.10438983283E+03 -0.78443228164E+02  0.53733004661E+03  0.57910116234E+03  0.17200000000E+03 0. -1.
         -6    1    1    2    0  503  0.10438983283E+03  0.78443228164E+02 -0.47795423749E+02  0.22117635446E+03  0.17200000000E+03 0. -1.
</event>
<event>
 4    1  0.4538619E+000  0.2577792E+03  0.7818608E-02  0.1108485E+00
         21   -1    0    0  501  502  0.00000000000E+00  0.00000000000E+00  0.12084641902E+03  0.12084641902E+03  0.00000000000E+00 0.  1.
         21   -1    0    0  502  503 -0.00000000000E+00 -0.00000000000E+00 -0.68413473490E+03  0.68413473490E+03  0.00000000000E+00 0.  1.
          6    1    1    2  501    0  0.18804647215E+03  0.38789391874E+02 -0.10333968690E+03  0.27772141347E+03  0.17200000000E+03 0.  1.
         -6    1    1    2    0  503 -0.18804647215E+03 -0.38789391874E+02 -0.45994862898E+03  0.52725974045E+03  0.17200000000E+03 0.  1.
</event>
<event>
 4    1  0.4538619E+000  0.3715518E+03  0.7818608E-02  0.1054101E+00
         21   -1    0    0  501  502  0.00000000000E+00  0.00000000000E+00  0.67962109258E+03  0.67962109258E+03  0.00000000000E+00 0.  1.
         21   -1    0    0  502  503 -0.00000000000E+00 -0.00000000000E+00 -0.51596446486E+03  0.51596446486E+03  0.00000000000E+00 0. -1.
          6    1    1    2  501    0  0.16364768453E+03 -0.28580799575E+03  0.54730586024E+03  0.66150924388E+03  0.17200000000E+03 0.  1.
         -6    1    1    2    0  503 -0.16364768453E+03  0.28580799575E+03 -0.38364923252E+03  0.53407631355E+03  0.17200000000E+03 0. -1.
</event>
<event>
 4    1  0.4538619E+000  0.2126481E+03  0.7818608E-02  0.1139486E+00
         21   -1    0    0  503  502  0.00000000000E+00  0.00000000000E+00  0.18579540766E+03  0.18579540766E+03  0.00000000000E+00 0. -1.
         21   -1    0    0  501  503 -0.00000000000E+00 -0.00000000000E+00 -0.24385240293E+03  0.24385240293E+03  0.00000000000E+00 0. -1.
          6    1    1    2  501    0  0.87668957871E+02  0.89159191451E+02 -0.19590517359E+02  0.21354857987E+03  0.17200000000E+03 0. -1.
         -6    1    1    2    0  502 -0.87668957871E+02 -0.89159191451E+02 -0.38466477919E+02  0.21609923072E+03  0.17200000000E+03 0. -1.
</event>
<event>
 4    1  0.4538619E+000  0.1835073E+03  0.7818608E-02  0.1164451E+00
         21   -1    0    0  503  502  0.00000000000E+00  0.00000000000E+00  0.19898869436E+03  0.19898869436E+03  0.00000000000E+00 0.  1.
         21   -1    0    0  501  503 -0.00000000000E+00 -0.00000000000E+00 -0.34486620897E+03  0.34486620897E+03  0.00000000000E+00 0.  1.
          6    1    1    2  501    0 -0.35418096087E+02  0.53258601061E+02 -0.26699801454E+03  0.32397972141E+03  0.17200000000E+03 0.  1.
         -6    1    1    2    0  502  0.35418096087E+02 -0.53258601061E+02  0.12112049993E+03  0.21987518191E+03  0.17200000000E+03 0.  1.
</event>
<event>
 4    1  0.4538619E+000  0.2805884E+03  0.7818608E-02  0.1095368E+00
         21   -1    0    0  501  502  0.00000000000E+00  0.00000000000E+00  0.20156131561E+03  0.20156131561E+03  0.00000000000E+00 0.  1.
         21   -1    0    0  502  503 -0.00000000000E+00 -0.00000000000E+00 -0.62219769302E+03  0.62219769302E+03  0.00000000000E+00 0. -1.
          6    1    1    2  501    0 -0.89860327413E+02  0.20265979521E+03  0.40970534221E+02  0.28356384768E+03  0.17200000000E+03 0.  1.
         -6    1    1    2    0  503  0.89860327413E+02 -0.20265979521E+03 -0.46160691163E+03  0.54019516094E+03  0.17200000000E+03 0. -1.
</event>
<event>
 4    1  0.4538619E+000  0.1868069E+03  0.7818608E-02  0.1161373E+00
         21   -1    0    0  503  502  0.00000000000E+00  0.00000000000E+00  0.13381770461E+03  0.13381770461E+03  0.00000000000E+00 0. -1.
         21   -1    0    0  501  503 -0.00000000000E+00 -0.00000000000E+00 -0.26239420753E+03  0.26239420753E+03  0.00000000000E+00 0. -1.
          6    1    1    2  501    0 -0.71443717529E+02 -0.14444015538E+02 -0.79831703115E+02  0.20315003121E+03  0.17200000000E+03 0. -1.
         -6    1    1    2    0  502  0.71443717529E+02  0.14444015538E+02 -0.48744799807E+02  0.19306188093E+03  0.17200000000E+03 0. -1.
</event>
<event>
 4    1  0.4538619E+000  0.2211374E+03  0.7818608E-02  0.1133038E+00
         21   -1    0    0  503  502  0.00000000000E+00  0.00000000000E+00  0.19159975991E+03  0.19159975991E+03  0.00000000000E+00 0. -1.
         21   -1    0    0  501  503 -0.00000000000E+00 -0.00000000000E+00 -0.31390678086E+03  0.31390678086E+03  0.00000000000E+00 0. -1.
          6    1    1    2  501    0 -0.57729587910E+02 -0.12643198407E+03 -0.17043195290E+03  0.27919312757E+03  0.17200000000E+03 0. -1.
         -6    1    1    2    0  502  0.57729587910E+02  0.12643198407E+03  0.48124931950E+02  0.22631341319E+03  0.17200000000E+03 0. -1.
</event>
<event>
 4    1  0.4538619E+000  0.1839553E+03  0.7818608E-02  0.1164029E+00
         21   -1    0    0  503  502  0.00000000000E+00  0.00000000000E+00  0.49532330229E+03  0.49532330229E+03  0.00000000000E+00 0. -1.
         21   -1    0    0  501  503 -0.00000000000E+00 -0.00000000000E+00 -0.16730528828E+03  0.16730528828E+03  0.00000000000E+00 0. -1.
          6    1    1    2  501    0  0.16003358479E+02 -0.63241204871E+02 -0.90835212931E+02  0.20515992149E+03  0.17200000000E+03 0. -1.
         -6    1    1    2    0  502 -0.16003358479E+02  0.63241204871E+02  0.41885322694E+03  0.45746866909E+03  0.17200000000E+03 0. -1.
</event>
<event>
 4    1  0.4538619E+000  0.2182411E+03  0.7818608E-02  0.1135201E+00
         21   -1    0    0  503  502  0.00000000000E+00  0.00000000000E+00  0.47064170461E+03  0.47064170461E+03  0.00000000000E+00 0.  1.
         21   -1    0    0  501  503 -0.00000000000E+00 -0.00000000000E+00 -0.11006092151E+03  0.11006092151E+03  0.00000000000E+00 0. -1.
          6    1    1    2  501    0  0.12726546765E+03 -0.42996245164E+02  0.97908001795E+02  0.23919689206E+03  0.17200000000E+03 0.  1.
         -6    1    1    2    0  502 -0.12726546765E+03  0.42996245164E+02  0.26267278131E+03  0.34150573406E+03  0.17200000000E+03 0. -1.
</event>
<event>
 4    1  0.4538619E+000  0.2629224E+03  0.7818608E-02  0.1105400E+00
         21   -1    0    0  503  502  0.00000000000E+00  0.00000000000E+00  0.34807405522E+03  0.34807405522E+03  0.00000000000E+00 0.  1.
         21   -1    0    0  501  503 -0.00000000000E+00 -0.00000000000E+00 -0.20133232083E+03  0.20133232083E+03  0.00000000000E+00 0. -1.
          6    1    1    2  501    0 -0.14226327938E+03  0.13894371981E+03  0.41380806342E+02  0.26615891694E+03  0.17200000000E+03 0. -1.
         -6    1    1    2    0  502  0.14226327938E+03 -0.13894371981E+03  0.10536092804E+03  0.28324745911E+03  0.17200000000E+03 0. -1.
</event>
<event>
 4    1  0.4538619E+000  0.2889329E+03  0.7818608E-02  0.1090908E+00
         21   -1    0    0  501  502  0.00000000000E+00  0.00000000000E+00  0.83408733360E+02  0.83408733360E+02  0.00000000000E+00 0.  1.
         21   -1    0    0  502  503 -0.00000000000E+00 -0.00000000000E+00 -0.10223487801E+04  0.10223487801E+04  0.00000000000E+00 0.  1.
          6    1    1    2  501    0 -0.14717658529E+03  0.17954737645E+03 -0.38935296438E+03  0.48484836652E+03  0.17200000000E+03 0.  1.
         -6    1    1    2    0  503  0.14717658529E+03 -0.17954737645E+03 -0.54958708236E+03  0.62090914694E+03  0.17200000000E+03 0.  1.
</event>
<event>
 4    1  0.4538619E+000  0.2082511E+03  0.7818608E-02  0.1142958E+00
         21   -1    0    0  503  502  0.00000000000E+00  0.00000000000E+00  0.12685137584E+04  0.12685137584E+04  0.00000000000E+00 0.  1.
         21   -1    0    0  501  503 -0.00000000000E+00 -0.00000000000E+00 -0.39091234265E+02  0.39091234265E+02  0.00000000000E+00 0.  1.
          6    1    1    2  501    0  0.37492224394E+02 -0.11126034981E+03  0.38317030909E+03  0.43610551257E+03  0.17200000000E+03 0.  1.
         -6    1    1    2    0  502 -0.37492224394E+02  0.11126034981E+03  0.84625221509E+03  0.87149948013E+03  0.17200000000E+03 0.  1.
</event>
<event>
 4    1  0.4538619E+000  0.3515589E+03  0.7818608E-02  0.1061977E+00
         21   -1    0    0  503  502  0.00000000000E+00  0.00000000000E+00  0.86829500034E+02  0.86829500034E+02  0.00000000000E+00 0. -1.
         21   -1    0    0  501  503 -0.00000000000E+00 -0.00000000000E+00 -0.18410375303E+04  0.18410375303E+04  0.00000000000E+00 0.  1.
          6    1    1    2  501    0 -0.29241375110E+03 -0.92216297397E+02 -0.13362093121E+04  0.13816833838E+04  0.17200000000E+03 0.  1.
         -6    1    1    2    0  502  0.29241375110E+03  0.92216297397E+02 -0.41799871813E+03  0.54618364649E+03  0.17200000000E+03 0. -1.
</event>
<event>
 4    1  0.4538619E+000  0.1968567E+03  0.7818608E-02  0.1152418E+00
         21   -1    0    0  503  502  0.00000000000E+00  0.00000000000E+00  0.44889833554E+03  0.44889833554E+03  0.00000000000E+00 0.  1.
         21   -1    0    0  501  503 -0.00000000000E+00 -0.00000000000E+00 -0.13552234843E+03  0.13552234843E+03  0.00000000000E+00 0. -1.
          6    1    1    2  501    0  0.24802758202E+02 -0.92484582631E+02 -0.19366433163E+02  0.19780706148E+03  0.17200000000E+03 0. -1.
         -6    1    1    2    0  502 -0.24802758202E+02  0.92484582631E+02  0.33274242028E+03  0.38661362249E+03  0.17200000000E+03 0.  1.
</event>
<event>
 4    1  0.4538619E+000  0.1731511E+03  0.7818608E-02  0.1174601E+00
         21   -1    0    0  503  502  0.00000000000E+00  0.00000000000E+00  0.10280735768E+03  0.10280735768E+03  0.00000000000E+00 0. -1.
         21   -1    0    0  501  503 -0.00000000000E+00 -0.00000000000E+00 -0.30755789093E+03  0.30755789093E+03  0.00000000000E+00 0. -1.
          6    1    1    2  501    0 -0.79240217578E+01  0.18289395823E+02 -0.14907470418E+03  0.22848317126E+03  0.17200000000E+03 0.  1.
         -6    1    1    2    0  502  0.79240217578E+01 -0.18289395823E+02 -0.55675829062E+02  0.18188207735E+03  0.17200000000E+03 0.  1.
</event>
<event>
 4    1  0.4538619E+000  0.1898826E+03  0.7818608E-02  0.1158567E+00
         21   -1    0    0  503  502  0.00000000000E+00  0.00000000000E+00  0.13863592540E+04  0.13863592540E+04  0.00000000000E+00 0.  1.
         21   -1    0    0  501  503 -0.00000000000E+00 -0.00000000000E+00 -0.37362242540E+02  0.37362242540E+02  0.00000000000E+00 0. -1.
          6    1    1    2  501    0 -0.65243674743E+02 -0.47060177365E+02  0.28205971629E+03  0.34001923614E+03  0.17200000000E+03 0. -1.
         -6    1    1    2    0  502  0.65243674743E+02  0.47060177365E+02  0.10669372952E+04  0.10837022605E+04  0.17200000000E+03 0.  1.
</event>
<event>
 4    1  0.4538619E+000  0.1988910E+03  0.7818608E-02  0.1150678E+00
         21   -1    0    0  503  502  0.00000000000E+00  0.00000000000E+00  0.66557219484E+03  0.66557219484E+03  0.00000000000E+00 0. -1.
         21   -1    0    0  501  503 -0.00000000000E+00 -0.00000000000E+00 -0.60647018200E+02  0.60647018200E+02  0.00000000000E+00 0. -1.
          6    1    1    2  501    0 -0.99092777422E+02 -0.12420074076E+02  0.25111009035E+03  0.32033406664E+03  0.17200000000E+03 0. -1.
         -6    1    1    2    0  502  0.99092777422E+02  0.12420074076E+02  0.35381508628E+03  0.40588514639E+03  0.17200000000E+03 0. -1.
</event>
<event>
 4    1  0.4538619E+000  0.1853254E+03  0.7818608E-02  0.1162746E+00
         21   -1    0    0  503  502  0.00000000000E+00  0.00000000000E+00  0.17358158548E+03  0.17358158548E+03  0.00000000000E+00 0.  1.
         21   -1    0    0  501  503 -0.00000000000E+00 -0.00000000000E+00 -0.20140408478E+03  0.20140408478E+03  0.00000000000E+00 0.  1.
          6    1    1    2  501    0 -0.48474467402E+02  0.49109314458E+02 -0.38769717513E+02  0.18933723816E+03  0.17200000000E+03 0.  1.
         -6    1    1    2    0  502  0.48474467402E+02 -0.49109314458E+02  0.10947218206E+02  0.18564843210E+03  0.17200000000E+03 0.  1.
</event>
<event>
 4    1  0.4538619E+000  0.2040962E+03  0.7818608E-02  0.1146328E+00
         21   -1    0    0  503  502  0.00000000000E+00  0.00000000000E+00  0.65872003698E+03  0.65872003698E+03  0.00000000000E+00 0.  1.
         21   -1    0    0  501  503 -0.00000000000E+00 -0.00000000000E+00 -0.15151773609E+03  0.15151773609E+03  0.00000000000E+00 0.  1.
          6    1    1    2  501    0  0.30161536358E+02  0.10564816047E+03 -0.55630952647E+02  0.21154208796E+03  0.17200000000E+03 0.  1.
         -6    1    1    2    0  502 -0.30161536358E+02 -0.10564816047E+03  0.56283325354E+03  0.59869568511E+03  0.17200000000E+03 0.  1.
</event>
<event>
 4    1  0.4538619E+000  0.1994466E+03  0.7818608E-02  0.1150207E+00
         21   -1    0    0  501  502  0.00000000000E+00  0.00000000000E+00  0.19369380696E+03  0.19369380696E+03  0.00000000000E+00 0.  1.
         21   -1    0    0  502  503 -0.00000000000E+00 -0.00000000000E+00 -0.20942842301E+03  0.20942842301E+03  0.00000000000E+00 0.  1.
          6    1    1    2  501    0 -0.21262001721E+02 -0.98706036820E+02  0.20190372872E+02  0.20046597112E+03  0.17200000000E+03 0.  1.
         -6    1    1    2    0  503  0.21262001721E+02  0.98706036820E+02 -0.35924988921E+02  0.20265625885E+03  0.17200000000E+03 0.  1.
</event>
<event>
 4    1  0.4538619E+000  0.2049875E+03  0.7818608E-02  0.1145598E+00
         21   -1    0    0  503  502  0.00000000000E+00  0.00000000000E+00  0.45688435984E+02  0.45688435984E+02  0.00000000000E+00 0.  1.
         21   -1    0    0  501  503 -0.00000000000E+00 -0.00000000000E+00 -0.99508147976E+03  0.99508147976E+03  0.00000000000E+00 0.  1.
          6    1    1    2  501    0  0.10730329348E+03  0.30362165114E+02 -0.61792023357E+03  0.65103400289E+03  0.17200000000E+03 0.  1.
         -6    1    1    2    0  502 -0.10730329348E+03 -0.30362165114E+02 -0.33147281021E+03  0.38973591285E+03  0.17200000000E+03 0.  1.
</event>
<event>
 4    1  0.4538619E+000  0.1837068E+03  0.7818608E-02  0.1164263E+00
         21   -1    0    0  501  502  0.00000000000E+00  0.00000000000E+00  0.66822326396E+03  0.66822326396E+03  0.00000000000E+00 0.  1.
         21   -1    0    0  502  503 -0.00000000000E+00 -0.00000000000E+00 -0.70149744977E+02  0.70149744977E+02  0.00000000000E+00 0.  1.
          6    1    1    2  501    0  0.40364951961E+02  0.50347270521E+02  0.49440916666E+03  0.52743587390E+03  0.17200000000E+03 0.  1.
         -6    1    1    2    0  503 -0.40364951961E+02 -0.50347270521E+02  0.10366435232E+03  0.21093713504E+03  0.17200000000E+03 0.  1.
</event>
<event>
 4    1  0.4538619E+000  0.2529748E+03  0.7818608E-02  0.1111439E+00
         21   -1    0    0  501  502  0.00000000000E+00  0.00000000000E+00  0.73068306150E+03  0.73068306150E+03  0.00000000000E+00 0.  1.
         21   -1    0    0  502  503 -0.00000000000E+00 -0.00000000000E+00 -0.23512259815E+03  0.23512259815E+03  0.00000000000E+00 0.  1.
          6    1    1    2  501    0 -0.10077864514E+03 -0.15574313932E+03  0.63030993002E+03  0.67918102789E+03  0.17200000000E+03 0.  1.
         -6    1    1    2    0  503  0.10077864514E+03  0.15574313932E+03 -0.13474946668E+03  0.28662463176E+03  0.17200000000E+03 0.  1.
</event>
<event>
 4    1  0.4538619E+000  0.2046036E+03  0.7818608E-02  0.1145912E+00
         21   -1    0    0  501  502  0.00000000000E+00  0.00000000000E+00  0.36787554399E+03  0.36787554399E+03  0.00000000000E+00 0.  1.
         21   -1    0    0  502  503 -0.00000000000E+00 -0.00000000000E+00 -0.13658533654E+03  0.13658533654E+03  0.00000000000E+00 0. -1.
          6    1    1    2  501    0 -0.10985541487E+03 -0.14506385199E+02  0.21867525966E+03  0.29946872386E+03  0.17200000000E+03 0.  1.
         -6    1    1    2    0  503  0.10985541487E+03  0.14506385199E+02  0.12614947788E+02  0.20499215667E+03  0.17200000000E+03 0. -1.
</event>
<event>
 4    1  0.4538619E+000  0.2021129E+03  0.7818608E-02  0.1147969E+00
         21   -1    0    0  501  502  0.00000000000E+00  0.00000000000E+00  0.17023222984E+03  0.17023222984E+03  0.00000000000E+00 0. -1.
         21   -1    0    0  502  503 -0.00000000000E+00 -0.00000000000E+00 -0.29902189571E+03  0.29902189571E+03  0.00000000000E+00 0. -1.
          6    1    1    2  501    0  0.10316710089E+03 -0.24943133971E+02  0.39876640388E+02  0.20600911894E+03  0.17200000000E+03 0. -1.
         -6    1    1    2    0  503 -0.10316710089E+03  0.24943133971E+02 -0.16866630626E+03  0.26324500661E+03  0.17200000000E+03 0. -1.
</event>
<event>
 4    1  0.4538619E+000  0.2048538E+03  0.7818608E-02  0.1145707E+00
         21   -1    0    0  501  502  0.00000000000E+00  0.00000000000E+00  0.37722385926E+03  0.37722385926E+03  0.00000000000E+00 0.  1.
         21   -1    0    0  502  503 -0.00000000000E+00 -0.00000000000E+00 -0.11195284727E+03  0.11195284727E+03  0.00000000000E+00 0. -1.
          6    1    1    2  501    0  0.80547191948E+01  0.11097842301E+03  0.11321683194E+03  0.23405798408E+03  0.17200000000E+03 0.  1.
         -6    1    1    2    0  503 -0.80547191948E+01 -0.11097842301E+03  0.15205418005E+03  0.25511872245E+03  0.17200000000E+03 0. -1.
</event>
<event>
 4    1  0.4538619E+000  0.2614644E+03  0.7818608E-02  0.1106267E+00
         21   -1    0    0  503  502  0.00000000000E+00  0.00000000000E+00  0.62555838576E+03  0.62555838576E+03  0.00000000000E+00 0. -1.
         21   -1    0    0  501  503 -0.00000000000E+00 -0.00000000000E+00 -0.12837285598E+03  0.12837285598E+03  0.00000000000E+00 0.  1.
          6    1    1    2  501    0  0.95185548654E+02  0.17239298733E+03  0.10323001592E+03  0.28110508167E+03  0.17200000000E+03 0.  1.
         -6    1    1    2    0  502 -0.95185548654E+02 -0.17239298733E+03  0.39395551386E+03  0.47282616007E+03  0.17200000000E+03 0. -1.
</event>
<event>
 4    1  0.4538619E+000  0.1993739E+03  0.7818608E-02  0.1150268E+00
         21   -1    0    0  501  502  0.00000000000E+00  0.00000000000E+00  0.82264706362E+03  0.82264706362E+03  0.00000000000E+00 0.  1.
         21   -1    0    0  502  503 -0.00000000000E+00 -0.00000000000E+00 -0.49566743295E+02  0.49566743295E+02  0.00000000000E+00 0. -1.
          6    1    1    2  501    0  0.10078809794E+03 -0.27802252687E+01  0.45571646636E+03  0.49742081586E+03  0.17200000000E+03 0. -1.
         -6    1    1    2    0  503 -0.10078809794E+03  0.27802252687E+01  0.31736385396E+03  0.37479299105E+03  0.17200000000E+03 0. -1.
</event>
<event>
 4    1  0.4538619E+000  0.1827617E+03  0.7818608E-02  0.1165157E+00
         21   -1    0    0  503  502  0.00000000000E+00  0.00000000000E+00  0.88643633197E+02  0.88643633197E+02  0.00000000000E+00 0. -1.
         21   -1    0    0  501  503 -0.00000000000E+00 -0.00000000000E+00 -0.11328175081E+04  0.11328175081E+04  0.00000000000E+00 0. -1.
          6    1    1    2  501    0  0.18151270953E+02  0.59062307149E+02 -0.10210089682E+04  0.10372372621E+04  0.17200000000E+03 0. -1.
         -6    1    1    2    0  502 -0.18151270953E+02 -0.59062307149E+02 -0.23164906713E+02  0.18422387920E+03  0.17200000000E+03 0. -1.
</event>
<event>
 4    1  0.4538619E+000  0.1722738E+03  0.7818608E-02  0.1175497E+00
         21   -1    0    0  503  502  0.00000000000E+00  0.00000000000E+00  0.58082850798E+02  0.58082850798E+02  0.00000000000E+00 0.  1.
         21   -1    0    0  501  503 -0.00000000000E+00 -0.00000000000E+00 -0.79480163733E+03  0.79480163733E+03  0.00000000000E+00 0.  1.
          6    1    1    2  501    0  0.78243614740E+01  0.57488190613E+01 -0.62319817595E+03  0.64657113767E+03  0.17200000000E+03 0.  1.
         -6    1    1    2    0  502 -0.78243614740E+01 -0.57488190613E+01 -0.11352061058E+03  0.20631335047E+03  0.17200000000E+03 0.  1.
</event>
<event>
 4    1  0.4538619E+000  0.1981102E+03  0.7818608E-02  0.1151343E+00
         21   -1    0    0  503  502  0.00000000000E+00  0.00000000000E+00  0.40979810289E+02  0.40979810289E+02  0.00000000000E+00 0.  1.
         21   -1    0    0  501  503 -0.00000000000E+00 -0.00000000000E+00 -0.13821034278E+04  0.13821034278E+04  0.00000000000E+00 0.  1.
          6    1    1    2  501    0 -0.80577341729E+02 -0.56311125236E+02 -0.10648405975E+04  0.10831127130E+04  0.17200000000E+03 0.  1.
         -6    1    1    2    0  502  0.80577341729E+02  0.56311125236E+02 -0.27628301997E+03  0.33997052511E+03  0.17200000000E+03 0.  1.
</event>
<event>
 4    1  0.4538619E+000  0.2052744E+03  0.7818608E-02  0.1145364E+00
         21   -1    0    0  501  502  0.00000000000E+00  0.00000000000E+00  0.47147322390E+03  0.47147322390E+03  0.00000000000E+00 0. -1.
         21   -1    0    0  502  503 -0.00000000000E+00 -0.00000000000E+00 -0.96373576068E+02  0.96373576068E+02  0.00000000000E+00 0.  1.
          6    1    1    2  501    0 -0.54898905512E+02 -0.97671276714E+02  0.26406545399E+03  0.33446693725E+03  0.17200000000E+03 0. -1.
         -6    1    1    2    0  503  0.54898905512E+02  0.97671276714E+02  0.11103419384E+03  0.23337986272E+03  0.17200000000E+03 0. -1.
</event>
<event>
 4    1  0.4538619E+000  0.2714198E+03  0.7818608E-02  0.1100470E+00
         21   -1    0    0  503  502  0.00000000000E+00  0.00000000000E+00  0.77229589279E+03  0.77229589279E+03  0.00000000000E+00 0. -1.
         21   -1    0    0  501  503 -0.00000000000E+00 -0.00000000000E+00 -0.99662929848E+02  0.99662929848E+02  0.00000000000E+00 0.  1.
          6    1    1    2  501    0  0.20883384587E+03 -0.21751072077E+02  0.24603412422E+03  0.36633519432E+03  0.17200000000E+03 0.  1.
         -6    1    1    2    0  502 -0.20883384587E+03  0.21751072077E+02  0.42659883872E+03  0.50562362832E+03  0.17200000000E+03 0. -1.
</event>
<event>
 4    1  0.4538619E+000  0.1809689E+03  0.7818608E-02  0.1166869E+00
         21   -1    0    0  501  502  0.00000000000E+00  0.00000000000E+00  0.55969319117E+02  0.55969319117E+02  0.00000000000E+00 0. -1.
         21   -1    0    0  502  503 -0.00000000000E+00 -0.00000000000E+00 -0.58523695343E+03  0.58523695343E+03  0.00000000000E+00 0. -1.
          6    1    1    2  501    0 -0.27979521989E+01 -0.56195443773E+02 -0.26880982640E+03  0.32405011835E+03  0.17200000000E+03 0. -1.
         -6    1    1    2    0  503  0.27979521989E+01  0.56195443773E+02 -0.26045780791E+03  0.31715615419E+03  0.17200000000E+03 0. -1.
</event>
<event>
 4    1  0.4538619E+000  0.1757110E+03  0.7818608E-02  0.1172020E+00
         21   -1    0    0  501  502  0.00000000000E+00  0.00000000000E+00  0.37566452183E+03  0.37566452183E+03  0.00000000000E+00 0.  1.
         21   -1    0    0  502  503 -0.00000000000E+00 -0.00000000000E+00 -0.91064725733E+02  0.91064725733E+02  0.00000000000E+00 0.  1.
          6    1    1    2  501    0 -0.13520016704E+02  0.33279831678E+02  0.21516791731E+03  0.27779771541E+03  0.17200000000E+03 0.  1.
         -6    1    1    2    0  503  0.13520016704E+02 -0.33279831678E+02  0.69431878781E+02  0.18893153215E+03  0.17200000000E+03 0.  1.
</event>
<event>
 4    1  0.4538619E+000  0.2037137E+03  0.7818608E-02  0.1146643E+00
         21   -1    0    0  503  502  0.00000000000E+00  0.00000000000E+00  0.18726124008E+03  0.18726124008E+03  0.00000000000E+00 0. -1.
         21   -1    0    0  501  503 -0.00000000000E+00 -0.00000000000E+00 -0.27529643124E+03  0.27529643124E+03  0.00000000000E+00 0.  1.
          6    1    1    2  501    0 -0.33213198640E+02  0.10398150122E+03 -0.14614946123E+03  0.25071684063E+03  0.17200000000E+03 0.  1.
         -6    1    1    2    0  502  0.33213198640E+02 -0.10398150122E+03  0.58114270067E+02  0.21184083068E+03  0.17200000000E+03 0. -1.
</event>
<event>
 4    1  0.4538619E+000  0.1812198E+03  0.7818608E-02  0.1166628E+00
         21   -1    0    0  503  502  0.00000000000E+00  0.00000000000E+00  0.21966418142E+03  0.21966418142E+03  0.00000000000E+00 0.  1.
         21   -1    0    0  501  503 -0.00000000000E+00 -0.00000000000E+00 -0.15170248763E+03  0.15170248763E+03  0.00000000000E+00 0. -1.
          6    1    1    2  501    0 -0.40922279061E+02 -0.39773982544E+02  0.11626057302E+02  0.18159231212E+03  0.17200000000E+03 0. -1.
         -6    1    1    2    0  502  0.40922279061E+02  0.39773982544E+02  0.56335636490E+02  0.18977435693E+03  0.17200000000E+03 0. -1.
</event>
<event>
 4    1  0.4538619E+000  0.1971177E+03  0.7818608E-02  0.1152194E+00
         21   -1    0    0  501  502  0.00000000000E+00  0.00000000000E+00  0.17215888828E+03  0.17215888828E+03  0.00000000000E+00 0. -1.
         21   -1    0    0  502  503 -0.00000000000E+00 -0.00000000000E+00 -0.23016614823E+03  0.23016614823E+03  0.00000000000E+00 0.  1.
          6    1    1    2  501    0 -0.72885615294E+02  0.62921127309E+02 -0.96600229424E+00  0.19712005058E+03  0.17200000000E+03 0. -1.
         -6    1    1    2    0  503  0.72885615294E+02 -0.62921127309E+02 -0.57041257658E+02  0.20520498594E+03  0.17200000000E+03 0.  1.
</event>
<event>
 4    1  0.4538619E+000  0.2294407E+03  0.7818608E-02  0.1127034E+00
         21   -1    0    0  503  502  0.00000000000E+00  0.00000000000E+00  0.10138542679E+03  0.10138542679E+03  0.00000000000E+00 0.  1.
         21   -1    0    0  501  503 -0.00000000000E+00 -0.00000000000E+00 -0.59414733913E+03  0.59414733913E+03  0.00000000000E+00 0.  1.
          6    1    1    2  501    0  0.58147544358E+02 -0.14027789621E+03 -0.36986548211E+03  0.43525107689E+03  0.17200000000E+03 0.  1.
         -6    1    1    2    0  502 -0.58147544358E+02  0.14027789621E+03 -0.12289643023E+03  0.26028168903E+03  0.17200000000E+03 0.  1.
</event>
<event>
 4    1  0.4538619E+000  0.1841953E+03  0.7818608E-02  0.1163803E+00
         21   -1    0    0  503  502  0.00000000000E+00  0.00000000000E+00  0.12118035573E+03  0.12118035573E+03  0.00000000000E+00 0.  1.
         21   -1    0    0  501  503 -0.00000000000E+00 -0.00000000000E+00 -0.29279872252E+03  0.29279872252E+03  0.00000000000E+00 0.  1.
          6    1    1    2  501    0  0.47840523554E+02 -0.45334275709E+02 -0.42497100301E+02  0.18903416565E+03  0.17200000000E+03 0.  1.
         -6    1    1    2    0  502 -0.47840523554E+02  0.45334275709E+02 -0.12912126648E+03  0.22494491260E+03  0.17200000000E+03 0.  1.
</event>
<event>
 4    1  0.4538619E+000  0.1960413E+03  0.7818608E-02  0.1153123E+00
         21   -1    0    0  503  502  0.00000000000E+00  0.00000000000E+00  0.11898360593E+04  0.11898360593E+04  0.00000000000E+00 0.  1.
         21   -1    0    0  501  503 -0.00000000000E+00 -0.00000000000E+00 -0.32895992816E+02  0.32895992816E+02  0.00000000000E+00 0.  1.
          6    1    1    2  501    0 -0.51459142400E+02 -0.78740986538E+02  0.49620736408E+03  0.53352969408E+03  0.17200000000E+03 0. -1.
         -6    1    1    2    0  502  0.51459142400E+02  0.78740986538E+02  0.66073270243E+03  0.68920235806E+03  0.17200000000E+03 0. -1.
</event>
<event>
 4    1  0.4538619E+000  0.2231894E+03  0.7818608E-02  0.1131527E+00
         21   -1    0    0  501  502  0.00000000000E+00  0.00000000000E+00  0.63403234607E+02  0.63403234607E+02  0.00000000000E+00 0. -1.
         21   -1    0    0  502  503 -0.00000000000E+00 -0.00000000000E+00 -0.78605327529E+03  0.78605327529E+03  0.00000000000E+00 0. -1.
          6    1    1    2  501    0  0.44680345572E+02 -0.13503030811E+03 -0.35185000028E+03  0.41666766144E+03  0.17200000000E+03 0. -1.
         -6    1    1    2    0  503 -0.44680345572E+02  0.13503030811E+03 -0.37080004040E+03  0.43278884846E+03  0.17200000000E+03 0. -1.
</event>
<event>
 4    1  0.4538619E+000  0.1894755E+03  0.7818608E-02  0.1158935E+00
         21   -1    0    0  501  502  0.00000000000E+00  0.00000000000E+00  0.12235255950E+03  0.12235255950E+03  0.00000000000E+00 0. -1.
         21   -1    0    0  502  503 -0.00000000000E+00 -0.00000000000E+00 -0.33300408224E+03  0.33300408224E+03  0.00000000000E+00 0. -1.
          6    1    1    2  501    0  0.65272690877E+02 -0.45348067337E+02 -0.26830311021E+02  0.19136571525E+03  0.17200000000E+03 0. -1.
         -6    1    1    2    0  503 -0.65272690877E+02  0.45348067337E+02 -0.18382121172E+03  0.26399092648E+03  0.17200000000E+03 0. -1.
</event>
<event>
 4    1  0.4538619E+000  0.1933610E+03  0.7818608E-02  0.1155464E+00
         21   -1    0    0  501  502  0.00000000000E+00  0.00000000000E+00  0.15931877923E+03  0.15931877923E+03  0.00000000000E+00 0. -1.
         21   -1    0    0  502  503 -0.00000000000E+00 -0.00000000000E+00 -0.35552370902E+03  0.35552370902E+03  0.00000000000E+00 0. -1.
          6    1    1    2  501    0 -0.49779518573E+02  0.72982633919E+02  0.51979109730E+02  0.20022560568E+03  0.17200000000E+03 0. -1.
         -6    1    1    2    0  503  0.49779518573E+02 -0.72982633919E+02 -0.24818403952E+03  0.31461688256E+03  0.17200000000E+03 0. -1.
</event>
<event>
 4    1  0.4538619E+000  0.1963072E+03  0.7818608E-02  0.1152893E+00
         21   -1    0    0  503  502  0.00000000000E+00  0.00000000000E+00  0.19654871259E+04  0.19654871259E+04  0.00000000000E+00 0.  1.
         21   -1    0    0  501  503 -0.00000000000E+00 -0.00000000000E+00 -0.85968146896E+02  0.85968146896E+02  0.00000000000E+00 0.  1.
          6    1    1    2  501    0 -0.14539856500E+02  0.93493812942E+02  0.38558713396E+02  0.20005817870E+03  0.17200000000E+03 0.  1.
         -6    1    1    2    0  502  0.14539856500E+02 -0.93493812942E+02  0.18409602656E+04  0.18513970941E+04  0.17200000000E+03 0.  1.
</event>
<event>
 4    1  0.4538619E+000  0.1770645E+03  0.7818608E-02  0.1170675E+00
         21   -1    0    0  501  502  0.00000000000E+00  0.00000000000E+00  0.93778834880E+03  0.93778834880E+03  0.00000000000E+00 0. -1.
         21   -1    0    0  502  503 -0.00000000000E+00 -0.00000000000E+00 -0.80578939555E+02  0.80578939555E+02  0.00000000000E+00 0. -1.
          6    1    1    2  501    0  0.42043720577E+02 -0.41728811673E+00  0.81809070865E+03  0.83703300780E+03  0.17200000000E+03 0. -1.
         -6    1    1    2    0  503 -0.42043720577E+02  0.41728811673E+00  0.39118700601E+02  0.18133428056E+03  0.17200000000E+03 0. -1.
</event>
<event>
 4    1  0.4538619E+000  0.1906741E+03  0.7818608E-02  0.1157855E+00
         21   -1    0    0  501  502  0.00000000000E+00  0.00000000000E+00  0.54164037137E+02  0.54164037137E+02  0.00000000000E+00 0. -1.
         21   -1    0    0  502  503 -0.00000000000E+00 -0.00000000000E+00 -0.76854456588E+03  0.76854456588E+03  0.00000000000E+00 0. -1.
          6    1    1    2  501    0  0.36432143689E+02  0.73792367659E+02 -0.21081529554E+03  0.28425288644E+03  0.17200000000E+03 0. -1.
         -6    1    1    2    0  503 -0.36432143689E+02 -0.73792367659E+02 -0.50356523320E+03  0.53845571657E+03  0.17200000000E+03 0. -1.
</event>
<event>
 4    1  0.4538619E+000  0.1937439E+03  0.7818608E-02  0.1155127E+00
         21   -1    0    0  501  502  0.00000000000E+00  0.00000000000E+00  0.95976432954E+03  0.95976432954E+03  0.00000000000E+00 0.  1.
         21   -1    0    0  502  503 -0.00000000000E+00 -0.00000000000E+00 -0.42157864382E+02  0.42157864382E+02  0.00000000000E+00 0.  1.
          6    1    1    2  501    0 -0.52609295684E+02 -0.72006752727E+02  0.59349411765E+03  0.62431720953E+03  0.17200000000E+03 0.  1.
         -6    1    1    2    0  503  0.52609295684E+02  0.72006752727E+02  0.32411234751E+03  0.37760498439E+03  0.17200000000E+03 0.  1.
</event>
<event>
 4    1  0.4538619E+000  0.2197249E+03  0.7818608E-02  0.1134088E+00
         21   -1    0    0  501  502  0.00000000000E+00  0.00000000000E+00  0.23202167705E+03  0.23202167705E+03  0.00000000000E+00 0. -1.
         21   -1    0    0  502  503 -0.00000000000E+00 -0.00000000000E+00 -0.23085488872E+03  0.23085488872E+03  0.00000000000E+00 0. -1.
          6    1    1    2  501    0 -0.10114139188E+03 -0.92007966578E+02 -0.72109968306E+02  0.23125504231E+03  0.17200000000E+03 0. -1.
         -6    1    1    2    0  503  0.10114139188E+03  0.92007966578E+02  0.73276756633E+02  0.23162152346E+03  0.17200000000E+03 0. -1.
</event>
<event>
 4    1  0.4538619E+000  0.1921814E+03  0.7818608E-02  0.1156508E+00
         21   -1    0    0  503  502  0.00000000000E+00  0.00000000000E+00  0.10968551494E+03  0.10968551494E+03  0.00000000000E+00 0. -1.
         21   -1    0    0  501  503 -0.00000000000E+00 -0.00000000000E+00 -0.58866496065E+03  0.58866496065E+03  0.00000000000E+00 0. -1.
          6    1    1    2  501    0 -0.45785994100E+02 -0.72479964380E+02 -0.46792284300E+03  0.50585125234E+03  0.17200000000E+03 0. -1.
         -6    1    1    2    0  502  0.45785994100E+02  0.72479964380E+02 -0.11056602717E+02  0.19249922326E+03  0.17200000000E+03 0. -1.
</event>
<event>
 4    1  0.4538619E+000  0.2767166E+03  0.7818608E-02  0.1097496E+00
         21   -1    0    0  503  502  0.00000000000E+00  0.00000000000E+00  0.33600957578E+03  0.33600957578E+03  0.00000000000E+00 0.  1.
         21   -1    0    0  501  503 -0.00000000000E+00 -0.00000000000E+00 -0.40650976575E+03  0.40650976575E+03  0.00000000000E+00 0.  1.
          6    1    1    2  501    0 -0.95781199786E+02  0.19445836665E+03 -0.28134981583E+03  0.39462616925E+03  0.17200000000E+03 0.  1.
         -6    1    1    2    0  502  0.95781199786E+02 -0.19445836665E+03  0.21084962586E+03  0.34789317228E+03  0.17200000000E+03 0.  1.
</event>
<event>
 4    1  0.4538619E+000  0.2900895E+03  0.7818608E-02  0.1090302E+00
         21   -1    0    0  501  502  0.00000000000E+00  0.00000000000E+00  0.11731154432E+03  0.11731154432E+03  0.00000000000E+00 0.  1.
         21   -1    0    0  502  503 -0.00000000000E+00 -0.00000000000E+00 -0.14819772100E+04  0.14819772100E+04  0.00000000000E+00 0. -1.
          6    1    1    2  501    0  0.22240912409E+03  0.71429001470E+02 -0.10794574484E+03  0.30952254289E+03  0.17200000000E+03 0.  1.
         -6    1    1    2    0  503 -0.22240912409E+03 -0.71429001470E+02 -0.12567199209E+04  0.12897662114E+04  0.17200000000E+03 0. -1.
</event>
<event>
 4    1  0.4538619E+000  0.1974841E+03  0.7818608E-02  0.1151879E+00
         21   -1    0    0  503  502  0.00000000000E+00  0.00000000000E+00  0.95493907851E+02  0.95493907851E+02  0.00000000000E+00 0. -1.
         21   -1    0    0  501  503 -0.00000000000E+00 -0.00000000000E+00 -0.40851358226E+03  0.40851358226E+03  0.00000000000E+00 0. -1.
          6    1    1    2  501    0 -0.74927070551E+02 -0.61659700360E+02 -0.16065872867E+03  0.25458046203E+03  0.17200000000E+03 0. -1.
         -6    1    1    2    0  502  0.74927070551E+02  0.61659700360E+02 -0.15236094574E+03  0.24942702808E+03  0.17200000000E+03 0. -1.
</event>
<event>
 4    1  0.4538619E+000  0.2036328E+03  0.7818608E-02  0.1146710E+00
         21   -1    0    0  501  502  0.00000000000E+00  0.00000000000E+00  0.11495953073E+04  0.11495953073E+04  0.00000000000E+00 0.  1.
         21   -1    0    0  502  503 -0.00000000000E+00 -0.00000000000E+00 -0.45596567011E+02  0.45596567011E+02  0.00000000000E+00 0. -1.
          6    1    1    2  501    0  0.92344505182E+02  0.57920558218E+02  0.27884891691E+03  0.34528686214E+03  0.17200000000E+03 0. -1.
         -6    1    1    2    0  503 -0.92344505182E+02 -0.57920558218E+02  0.82514982339E+03  0.84990501219E+03  0.17200000000E+03 0.  1.
</event>
<event>
 4    1  0.4538619E+000  0.1766814E+03  0.7818608E-02  0.1171054E+00
         21   -1    0    0  503  502  0.00000000000E+00  0.00000000000E+00  0.94856287922E+03  0.94856287922E+03  0.00000000000E+00 0. -1.
         21   -1    0    0  501  503 -0.00000000000E+00 -0.00000000000E+00 -0.40450860150E+02  0.40450860150E+02  0.00000000000E+00 0. -1.
          6    1    1    2  501    0  0.10950801433E+02 -0.38889331698E+02  0.24053218529E+03  0.29844937985E+03  0.17200000000E+03 0. -1.
         -6    1    1    2    0  502 -0.10950801433E+02  0.38889331698E+02  0.66757983378E+03  0.69056435952E+03  0.17200000000E+03 0. -1.
</event>
<event>
 4    1  0.4538619E+000  0.2103614E+03  0.7818608E-02  0.1141280E+00
         21   -1    0    0  501  502  0.00000000000E+00  0.00000000000E+00  0.33695520367E+03  0.33695520367E+03  0.00000000000E+00 0. -1.
         21   -1    0    0  502  503 -0.00000000000E+00 -0.00000000000E+00 -0.20654556684E+03  0.20654556684E+03  0.00000000000E+00 0. -1.
          6    1    1    2  501    0  0.39459069058E+02 -0.11450281763E+03  0.22919567669E+03  0.31109897394E+03  0.17200000000E+03 0. -1.
         -6    1    1    2    0  503 -0.39459069058E+02  0.11450281763E+03 -0.98786039866E+02  0.23240179657E+03  0.17200000000E+03 0. -1.
</event>
<event>
 4    1  0.4538619E+000  0.1848557E+03  0.7818608E-02  0.1163185E+00
         21   -1    0    0  501  502  0.00000000000E+00  0.00000000000E+00  0.62037366970E+03  0.62037366970E+03  0.00000000000E+00 0.  1.
         21   -1    0    0  502  503 -0.00000000000E+00 -0.00000000000E+00 -0.58112453523E+02  0.58112453523E+02  0.00000000000E+00 0.  1.
          6    1    1    2  501    0 -0.56627091111E+02  0.37162050933E+02  0.35859541147E+03  0.40343811744E+03  0.17200000000E+03 0.  1.
         -6    1    1    2    0  503  0.56627091111E+02 -0.37162050933E+02  0.20366580470E+03  0.27504800578E+03  0.17200000000E+03 0.  1.
</event>
<event>
 4    1  0.4538619E+000  0.2156976E+03  0.7818608E-02  0.1137132E+00
         21   -1    0    0  501  502  0.00000000000E+00  0.00000000000E+00  0.11098441280E+03  0.11098441280E+03  0.00000000000E+00 0.  1.
         21   -1    0    0  502  503 -0.00000000000E+00 -0.00000000000E+00 -0.43817695360E+03  0.43817695360E+03  0.00000000000E+00 0.  1.
          6    1    1    2  501    0 -0.12532377619E+03 -0.35148110026E+02 -0.10646435492E+03  0.24054125922E+03  0.17200000000E+03 0.  1.
         -6    1    1    2    0  503  0.12532377619E+03  0.35148110026E+02 -0.22072818588E+03  0.30862010718E+03  0.17200000000E+03 0.  1.
</event>
<event>
 4    1  0.4538619E+000  0.2097369E+03  0.7818608E-02  0.1141774E+00
         21   -1    0    0  501  502  0.00000000000E+00  0.00000000000E+00  0.11511875134E+04  0.11511875134E+04  0.00000000000E+00 0. -1.
         21   -1    0    0  502  503 -0.00000000000E+00 -0.00000000000E+00 -0.39423289438E+02  0.39423289438E+02  0.00000000000E+00 0. -1.
          6    1    1    2  501    0 -0.10648206740E+03 -0.55381793111E+02  0.45154816986E+03  0.49788083252E+03  0.17200000000E+03 0. -1.
         -6    1    1    2    0  503  0.10648206740E+03  0.55381793111E+02  0.66021605414E+03  0.69272997036E+03  0.17200000000E+03 0. -1.
</event>
<event>
 4    1  0.4538619E+000  0.2261081E+03  0.7818608E-02  0.1129409E+00
         21   -1    0    0  503  502  0.00000000000E+00  0.00000000000E+00  0.37668059980E+03  0.37668059980E+03  0.00000000000E+00 0.  1.
         21   -1    0    0  501  503 -0.00000000000E+00 -0.00000000000E+00 -0.43848485480E+03  0.43848485480E+03  0.00000000000E+00 0.  1.
          6    1    1    2  501    0 -0.45499649575E+02 -0.13953733072E+03 -0.36958075185E+03  0.43326068009E+03  0.17200000000E+03 0.  1.
         -6    1    1    2    0  502  0.45499649575E+02  0.13953733072E+03  0.30777649685E+03  0.38190477450E+03  0.17200000000E+03 0.  1.
</event>
<event>
 4    1  0.4538619E+000  0.1977738E+03  0.7818608E-02  0.1151631E+00
         21   -1    0    0  503  502  0.00000000000E+00  0.00000000000E+00  0.11431856695E+03  0.11431856695E+03  0.00000000000E+00 0. -1.
         21   -1    0    0  501  503 -0.00000000000E+00 -0.00000000000E+00 -0.65818520846E+03  0.65818520846E+03  0.00000000000E+00 0. -1.
          6    1    1    2  501    0  0.72580878926E+02  0.65287816065E+02 -0.53958007117E+03  0.57468350952E+03  0.17200000000E+03 0. -1.
         -6    1    1    2    0  502 -0.72580878926E+02 -0.65287816065E+02 -0.42865703375E+01  0.19782026589E+03  0.17200000000E+03 0. -1.
</event>
<event>
 4    1  0.4538619E+000  0.2212026E+03  0.7818608E-02  0.1132990E+00
         21   -1    0    0  503  502  0.00000000000E+00  0.00000000000E+00  0.30260535249E+02  0.30260535249E+02  0.00000000000E+00 0. -1.
         21   -1    0    0  501  503 -0.00000000000E+00 -0.00000000000E+00 -0.18920994918E+04  0.18920994918E+04  0.00000000000E+00 0. -1.
          6    1    1    2  501    0  0.87014553608E+02 -0.10851284537E+03 -0.12974383155E+04  0.13161598507E+04  0.17200000000E+03 0. -1.
         -6    1    1    2    0  502 -0.87014553608E+02  0.10851284537E+03 -0.56440064106E+03  0.60620017633E+03  0.17200000000E+03 0. -1.
</event>
<event>
 4    1  0.4538619E+000  0.2615650E+03  0.7818608E-02  0.1106207E+00
         21   -1    0    0  503  502  0.00000000000E+00  0.00000000000E+00  0.32870776794E+03  0.32870776794E+03  0.00000000000E+00 0. -1.
         21   -1    0    0  501  503 -0.00000000000E+00 -0.00000000000E+00 -0.30284149062E+03  0.30284149062E+03  0.00000000000E+00 0. -1.
          6    1    1    2  501    0 -0.18920614194E+03  0.55075443357E+02 -0.16365222079E+03  0.30854224667E+03  0.17200000000E+03 0. -1.
         -6    1    1    2    0  502  0.18920614194E+03 -0.55075443357E+02  0.18951849811E+03  0.32300701190E+03  0.17200000000E+03 0. -1.
</event>
<event>
 4    1  0.4538619E+000  0.3005975E+03  0.7818608E-02  0.1084942E+00
         21   -1    0    0  503  502  0.00000000000E+00  0.00000000000E+00  0.33742002313E+03  0.33742002313E+03  0.00000000000E+00 0.  1.
         21   -1    0    0  501  503 -0.00000000000E+00 -0.00000000000E+00 -0.47811898659E+03  0.47811898659E+03  0.00000000000E+00 0.  1.
          6    1    1    2  501    0  0.20542520672E+03  0.13629136754E+03 -0.34080310974E+03  0.45442888555E+03  0.17200000000E+03 0.  1.
         -6    1    1    2    0  502 -0.20542520672E+03 -0.13629136754E+03  0.20010414627E+03  0.36111012417E+03  0.17200000000E+03 0.  1.
</event>
<event>
 4    1  0.4538619E+000  0.1757984E+03  0.7818608E-02  0.1171932E+00
         21   -1    0    0  501  502  0.00000000000E+00  0.00000000000E+00  0.29468991110E+04  0.29468991110E+04  0.00000000000E+00 0.  1.
         21   -1    0    0  502  503 -0.00000000000E+00 -0.00000000000E+00 -0.13740968741E+02  0.13740968741E+02  0.00000000000E+00 0.  1.
          6    1    1    2  501    0  0.35971664457E+02 -0.52057428443E+01  0.21869108632E+04  0.21939654017E+04  0.17200000000E+03 0.  1.
         -6    1    1    2    0  503 -0.35971664457E+02  0.52057428443E+01  0.74624727906E+03  0.76667467801E+03  0.17200000000E+03 0.  1.
</event>
<event>
 4    1  0.4538619E+000  0.1911900E+03  0.7818608E-02  0.1157392E+00
         21   -1    0    0  501  502  0.00000000000E+00  0.00000000000E+00  0.14012321344E+03  0.14012321344E+03  0.00000000000E+00 0.  1.
         21   -1    0    0  502  503 -0.00000000000E+00 -0.00000000000E+00 -0.30755251201E+03  0.30755251201E+03  0.00000000000E+00 0.  1.
          6    1    1    2  501    0 -0.58725359763E+02 -0.59337542733E+02  0.34944903691E+01  0.19122192165E+03  0.17200000000E+03 0.  1.
         -6    1    1    2    0  503  0.58725359763E+02  0.59337542733E+02 -0.17092378894E+03  0.25645380380E+03  0.17200000000E+03 0.  1.
</event>
<event>
 4    1  0.4538619E+000  0.1802508E+03  0.7818608E-02  0.1167561E+00
         21   -1    0    0  501  502  0.00000000000E+00  0.00000000000E+00  0.25628971790E+03  0.25628971790E+03  0.00000000000E+00 0. -1.
         21   -1    0    0  502  503 -0.00000000000E+00 -0.00000000000E+00 -0.16064051802E+03  0.16064051802E+03  0.00000000000E+00 0. -1.
          6    1    1    2  501    0 -0.18213649257E+02  0.50740651909E+02  0.14354492800E+03  0.23042460183E+03  0.17200000000E+03 0. -1.
         -6    1    1    2    0  503  0.18213649257E+02 -0.50740651909E+02 -0.47895728110E+02  0.18650563409E+03  0.17200000000E+03 0. -1.
</event>
<event>
 4    1  0.4538619E+000  0.3234324E+03  0.7818608E-02  0.1074080E+00
         21   -1    0    0  501  502  0.00000000000E+00  0.00000000000E+00  0.16290188773E+03  0.16290188773E+03  0.00000000000E+00 0.  1.
         21   -1    0    0  502  503 -0.00000000000E+00 -0.00000000000E+00 -0.98708010396E+03  0.98708010396E+03  0.00000000000E+00 0. -1.
          6    1    1    2  501    0  0.10686664293E+03 -0.25219840392E+03 -0.72192938428E+02  0.33139151267E+03  0.17200000000E+03 0.  1.
         -6    1    1    2    0  503 -0.10686664293E+03  0.25219840392E+03 -0.75198527780E+03  0.81859047902E+03  0.17200000000E+03 0. -1.
</event>
<event>
 4    1  0.4538619E+000  0.2459106E+03  0.7818608E-02  0.1115917E+00
         21   -1    0    0  501  502  0.00000000000E+00  0.00000000000E+00  0.23335321891E+03  0.23335321891E+03  0.00000000000E+00 0. -1.
         21   -1    0    0  502  503 -0.00000000000E+00 -0.00000000000E+00 -0.33133777088E+03  0.33133777088E+03  0.00000000000E+00 0. -1.
          6    1    1    2  501    0  0.16940491855E+03 -0.46797638651E+02  0.82801767734E+02  0.25947673913E+03  0.17200000000E+03 0. -1.
         -6    1    1    2    0  503 -0.16940491855E+03  0.46797638651E+02 -0.18078631970E+03  0.30521425065E+03  0.17200000000E+03 0. -1.
</event>
<event>
 4    1  0.4538619E+000  0.1921602E+03  0.7818608E-02  0.1156527E+00
         21   -1    0    0  503  502  0.00000000000E+00  0.00000000000E+00  0.14065864481E+03  0.14065864481E+03  0.00000000000E+00 0. -1.
         21   -1    0    0  501  503 -0.00000000000E+00 -0.00000000000E+00 -0.26622290088E+03  0.26622290088E+03  0.00000000000E+00 0. -1.
          6    1    1    2  501    0 -0.32330928331E+02 -0.79348925233E+02 -0.38785193321E+02  0.19603528275E+03  0.17200000000E+03 0. -1.
         -6    1    1    2    0  502  0.32330928331E+02  0.79348925233E+02 -0.86779062755E+02  0.21084626294E+03  0.17200000000E+03 0. -1.
</event>
<event>
 4    1  0.4538619E+000  0.1831826E+03  0.7818608E-02  0.1164758E+00
         21   -1    0    0  503  502  0.00000000000E+00  0.00000000000E+00  0.72020544803E+02  0.72020544803E+02  0.00000000000E+00 0.  1.
         21   -1    0    0  501  503 -0.00000000000E+00 -0.00000000000E+00 -0.10783879585E+04  0.10783879585E+04  0.00000000000E+00 0. -1.
          6    1    1    2  501    0 -0.43285961923E+02  0.45806048888E+02 -0.93667061093E+03  0.95441484795E+03  0.17200000000E+03 0. -1.
         -6    1    1    2    0  502  0.43285961923E+02 -0.45806048888E+02 -0.69696802741E+02  0.19599365532E+03  0.17200000000E+03 0.  1.
</event>
<event>
 4    1  0.4538619E+000  0.1882914E+03  0.7818608E-02  0.1160011E+00
         21   -1    0    0  503  502  0.00000000000E+00  0.00000000000E+00  0.10031890245E+03  0.10031890245E+03  0.00000000000E+00 0.  1.
         21   -1    0    0  501  503 -0.00000000000E+00 -0.00000000000E+00 -0.35704805027E+03  0.35704805027E+03  0.00000000000E+00 0.  1.
          6    1    1    2  501    0  0.76428064853E+02 -0.53290065239E+01 -0.15145006209E+03  0.24164181905E+03  0.17200000000E+03 0. -1.
         -6    1    1    2    0  502 -0.76428064853E+02  0.53290065239E+01 -0.10527908573E+03  0.21572513368E+03  0.17200000000E+03 0. -1.
</event>
<event>
 4    1  0.4538619E+000  0.2016066E+03  0.7818608E-02  0.1148391E+00
         21   -1    0    0  501  502  0.00000000000E+00  0.00000000000E+00  0.15880003642E+03  0.15880003642E+03  0.00000000000E+00 0. -1.
         21   -1    0    0  502  503 -0.00000000000E+00 -0.00000000000E+00 -0.32664120116E+03  0.32664120116E+03  0.00000000000E+00 0. -1.
          6    1    1    2  501    0  0.61410154236E+02  0.85381681989E+02  0.28993139970E+02  0.20368073259E+03  0.17200000000E+03 0. -1.
         -6    1    1    2    0  503 -0.61410154236E+02 -0.85381681989E+02 -0.19683430471E+03  0.28176050499E+03  0.17200000000E+03 0. -1.
</event>
<event>
 4    1  0.4538619E+000  0.1723241E+03  0.7818608E-02  0.1175446E+00
         21   -1    0    0  501  502  0.00000000000E+00  0.00000000000E+00  0.24198208032E+03  0.24198208032E+03  0.00000000000E+00 0. -1.
         21   -1    0    0  502  503 -0.00000000000E+00 -0.00000000000E+00 -0.19920749779E+03  0.19920749779E+03  0.00000000000E+00 0. -1.
          6    1    1    2  501    0 -0.45211251743E+01 -0.95473663189E+01  0.15807922684E+03  0.23384746040E+03  0.17200000000E+03 0. -1.
         -6    1    1    2    0  503  0.45211251743E+01  0.95473663189E+01 -0.11530464431E+03  0.20734211771E+03  0.17200000000E+03 0. -1.
</event>
<event>
 4    1  0.4538619E+000  0.2172618E+03  0.7818608E-02  0.1135941E+00
         21   -1    0    0  503  502  0.00000000000E+00  0.00000000000E+00  0.31402871114E+02  0.31402871114E+02  0.00000000000E+00 0.  1.
         21   -1    0    0  501  503 -0.00000000000E+00 -0.00000000000E+00 -0.17398689915E+04  0.17398689915E+04  0.00000000000E+00 0.  1.
          6    1    1    2  501    0 -0.11818920788E+02  0.13220823388E+03 -0.11809177223E+04  0.12007370115E+04  0.17200000000E+03 0.  1.
         -6    1    1    2    0  502  0.11818920788E+02 -0.13220823388E+03 -0.52754839817E+03  0.57053485117E+03  0.17200000000E+03 0.  1.
</event>
<event>
 4    1  0.4538619E+000  0.2464843E+03  0.7818608E-02  0.1115547E+00
         21   -1    0    0  503  502  0.00000000000E+00  0.00000000000E+00  0.36176499096E+03  0.36176499096E+03  0.00000000000E+00 0. -1.
         21   -1    0    0  501  503 -0.00000000000E+00 -0.00000000000E+00 -0.29834379807E+03  0.29834379807E+03  0.00000000000E+00 0. -1.
          6    1    1    2  501    0  0.17381257869E+03 -0.30978795134E+02 -0.18649886607E+03  0.30908951018E+03  0.17200000000E+03 0. -1.
         -6    1    1    2    0  502 -0.17381257869E+03  0.30978795134E+02  0.24992005895E+03  0.35101927885E+03  0.17200000000E+03 0. -1.
</event>
<event>
 4    1  0.4538619E+000  0.2136574E+03  0.7818608E-02  0.1138702E+00
         21   -1    0    0  503  502  0.00000000000E+00  0.00000000000E+00  0.58025043523E+03  0.58025043523E+03  0.00000000000E+00 0. -1.
         21   -1    0    0  501  503 -0.00000000000E+00 -0.00000000000E+00 -0.10353147532E+03  0.10353147532E+03  0.00000000000E+00 0. -1.
          6    1    1    2  501    0  0.10652897596E+03  0.68680994663E+02  0.70827857381E+02  0.22509128621E+03  0.17200000000E+03 0. -1.
         -6    1    1    2    0  502 -0.10652897596E+03 -0.68680994663E+02  0.40589110253E+03  0.45869062434E+03  0.17200000000E+03 0. -1.
</event>
<event>
 4    1  0.4538619E+000  0.2300183E+03  0.7818608E-02  0.1126627E+00
         21   -1    0    0  503  502  0.00000000000E+00  0.00000000000E+00  0.28247307805E+03  0.28247307805E+03  0.00000000000E+00 0.  1.
         21   -1    0    0  501  503 -0.00000000000E+00 -0.00000000000E+00 -0.10673723979E+04  0.10673723979E+04  0.00000000000E+00 0.  1.
          6    1    1    2  501    0 -0.12630904065E+03  0.85851248804E+02 -0.10052997086E+04  0.10312787765E+04  0.17200000000E+03 0.  1.
         -6    1    1    2    0  502  0.12630904065E+03 -0.85851248804E+02  0.22040038874E+03  0.31856669950E+03  0.17200000000E+03 0.  1.
</event>
<event>
 4    1  0.4538619E+000  0.2402436E+03  0.7818608E-02  0.1119631E+00
         21   -1    0    0  501  502  0.00000000000E+00  0.00000000000E+00  0.18245091035E+03  0.18245091035E+03  0.00000000000E+00 0.  1.
         21   -1    0    0  502  503 -0.00000000000E+00 -0.00000000000E+00 -0.44399362789E+03  0.44399362789E+03  0.00000000000E+00 0.  1.
          6    1    1    2  501    0  0.15687387586E+03 -0.59359854919E+02  0.37177218115E+02  0.24310316915E+03  0.17200000000E+03 0.  1.
         -6    1    1    2    0  503 -0.15687387586E+03  0.59359854919E+02 -0.29871993565E+03  0.38334136909E+03  0.17200000000E+03 0.  1.
</event>
<event>
 4    1  0.4538619E+000  0.1948862E+03  0.7818608E-02  0.1154127E+00
         21   -1    0    0  503  502  0.00000000000E+00  0.00000000000E+00  0.17158450990E+04  0.17158450990E+04  0.00000000000E+00 0.  1.
         21   -1    0    0  501  503 -0.00000000000E+00 -0.00000000000E+00 -0.34779520545E+02  0.34779520545E+02  0.00000000000E+00 0.  1.
          6    1    1    2  501    0 -0.43207969456E+02 -0.80806672003E+02  0.31275845768E+03  0.36850847984E+03  0.17200000000E+03 0.  1.
         -6    1    1    2    0  502  0.43207969456E+02  0.80806672003E+02  0.13683071207E+04  0.13821161397E+04  0.17200000000E+03 0.  1.
</event>
<event>
 4    1  0.4538619E+000  0.1828079E+03  0.7818608E-02  0.1165113E+00
         21   -1    0    0  501  502  0.00000000000E+00  0.00000000000E+00  0.97354142329E+03  0.97354142329E+03  0.00000000000E+00 0. -1.
         21   -1    0    0  502  503 -0.00000000000E+00 -0.00000000000E+00 -0.37466639580E+02  0.37466639580E+02  0.00000000000E+00 0.  1.
          6    1    1    2  501    0 -0.57109949134E+02  0.23941043719E+02  0.61437122475E+03  0.64099198253E+03  0.17200000000E+03 0. -1.
         -6    1    1    2    0  503  0.57109949134E+02 -0.23941043719E+02  0.32170355895E+03  0.37001608034E+03  0.17200000000E+03 0.  1.
</event>
<event>
 4    1  0.4538619E+000  0.1849405E+03  0.7818608E-02  0.1163105E+00
         21   -1    0    0  501  502  0.00000000000E+00  0.00000000000E+00  0.13265992823E+03  0.13265992823E+03  0.00000000000E+00 0.  1.
         21   -1    0    0  502  503 -0.00000000000E+00 -0.00000000000E+00 -0.29166776752E+03  0.29166776752E+03  0.00000000000E+00 0.  1.
          6    1    1    2  501    0  0.17032577719E+02 -0.65794187890E+02 -0.72330792402E+01  0.18508187728E+03  0.17200000000E+03 0.  1.
         -6    1    1    2    0  503 -0.17032577719E+02  0.65794187890E+02 -0.15177476005E+03  0.23924581846E+03  0.17200000000E+03 0.  1.
</event>
<event>
 4    1  0.4538619E+000  0.1989866E+03  0.7818608E-02  0.1150597E+00
         21   -1    0    0  501  502  0.00000000000E+00  0.00000000000E+00  0.11992617802E+03  0.11992617802E+03  0.00000000000E+00 0.  1.
         21   -1    0    0  502  503 -0.00000000000E+00 -0.00000000000E+00 -0.46945137164E+03  0.46945137164E+03  0.00000000000E+00 0.  1.
          6    1    1    2  501    0 -0.77115783052E+02  0.63756013901E+02 -0.14246203771E+02  0.19949593386E+03  0.17200000000E+03 0.  1.
         -6    1    1    2    0  503  0.77115783052E+02 -0.63756013901E+02 -0.33527898985E+03  0.38988161580E+03  0.17200000000E+03 0.  1.
</event>
<event>
 4    1  0.4538619E+000  0.2679759E+03  0.7818608E-02  0.1102444E+00
         21   -1    0    0  501  502  0.00000000000E+00  0.00000000000E+00  0.13333850489E+03  0.13333850489E+03  0.00000000000E+00 0.  1.
         21   -1    0    0  502  503 -0.00000000000E+00 -0.00000000000E+00 -0.97184365098E+03  0.97184365098E+03  0.00000000000E+00 0. -1.
          6    1    1    2  501    0  0.20389910299E+03  0.25539093776E+02 -0.50282896967E+02  0.27265263476E+03  0.17200000000E+03 0.  1.
         -6    1    1    2    0  503 -0.20389910299E+03 -0.25539093776E+02 -0.78822224913E+03  0.83252952112E+03  0.17200000000E+03 0. -1.
</event>
<event>
 4    1  0.4538619E+000  0.2086217E+03  0.7818608E-02  0.1142662E+00
         21   -1    0    0  501  502  0.00000000000E+00  0.00000000000E+00  0.27040832308E+02  0.27040832308E+02  0.00000000000E+00 0.  1.
         21   -1    0    0  502  503 -0.00000000000E+00 -0.00000000000E+00 -0.26159522104E+04  0.26159522104E+04  0.00000000000E+00 0.  1.
          6    1    1    2  501    0 -0.23931261539E+02  0.11561270207E+03 -0.47478112884E+03  0.51859437180E+03  0.17200000000E+03 0.  1.
         -6    1    1    2    0  503  0.23931261539E+02 -0.11561270207E+03 -0.21141302492E+04  0.21243986709E+04  0.17200000000E+03 0.  1.
</event>
<event>
 4    1  0.4538619E+000  0.2048337E+03  0.7818608E-02  0.1145724E+00
         21   -1    0    0  501  502  0.00000000000E+00  0.00000000000E+00  0.86698308898E+02  0.86698308898E+02  0.00000000000E+00 0. -1.
         21   -1    0    0  502  503 -0.00000000000E+00 -0.00000000000E+00 -0.51523267185E+03  0.51523267185E+03  0.00000000000E+00 0. -1.
          6    1    1    2  501    0  0.10851720865E+03 -0.24430715734E+02 -0.14009669337E+03  0.24816109272E+03  0.17200000000E+03 0. -1.
         -6    1    1    2    0  503 -0.10851720865E+03  0.24430715734E+02 -0.28843766958E+03  0.35376988803E+03  0.17200000000E+03 0. -1.
</event>
<event>
 4    1  0.4538619E+000  0.2272049E+03  0.7818608E-02  0.1128623E+00
         21   -1    0    0  501  502  0.00000000000E+00  0.00000000000E+00  0.88000797075E+03  0.88000797075E+03  0.00000000000E+00 0. -1.
         21   -1    0    0  502  503 -0.00000000000E+00 -0.00000000000E+00 -0.92422471353E+02  0.92422471353E+02  0.00000000000E+00 0. -1.
          6    1    1    2  501    0  0.83060323862E+02  0.12304087327E+03  0.68765986032E+03  0.72422245021E+03  0.17200000000E+03 0. -1.
         -6    1    1    2    0  503 -0.83060323862E+02 -0.12304087327E+03  0.99925639081E+02  0.24820799190E+03  0.17200000000E+03 0. -1.
</event>
<event>
 4    1  0.4538619E+000  0.2158334E+03  0.7818608E-02  0.1137028E+00
         21   -1    0    0  503  502  0.00000000000E+00  0.00000000000E+00  0.13984406150E+03  0.13984406150E+03  0.00000000000E+00 0. -1.
         21   -1    0    0  501  503 -0.00000000000E+00 -0.00000000000E+00 -0.37157775133E+03  0.37157775133E+03  0.00000000000E+00 0.  1.
          6    1    1    2  501    0 -0.95569358160E+02 -0.88693483368E+02 -0.19813833276E+03  0.29298947953E+03  0.17200000000E+03 0.  1.
         -6    1    1    2    0  502  0.95569358160E+02  0.88693483368E+02 -0.33595357072E+02  0.21843233329E+03  0.17200000000E+03 0. -1.
</event>
<event>
 4    1  0.4538619E+000  0.2023732E+03  0.7818608E-02  0.1147752E+00
         21   -1    0    0  501  502  0.00000000000E+00  0.00000000000E+00  0.18174978940E+03  0.18174978940E+03  0.00000000000E+00 0.  1.
         21   -1    0    0  502  503 -0.00000000000E+00 -0.00000000000E+00 -0.24862271738E+03  0.24862271738E+03  0.00000000000E+00 0.  1.
          6    1    1    2  501    0 -0.10239629490E+03 -0.29764031138E+02  0.32418979307E+02  0.20495338245E+03  0.17200000000E+03 0.  1.
         -6    1    1    2    0  503  0.10239629490E+03  0.29764031138E+02 -0.99291907291E+02  0.22541912433E+03  0.17200000000E+03 0.  1.
</event>
<event>
 4    1  0.4538619E+000  0.3381476E+03  0.7818608E-02  0.1067588E+00
         21   -1    0    0  503  502  0.00000000000E+00  0.00000000000E+00  0.75310983000E+02  0.75310983000E+02  0.00000000000E+00 0. -1.
         21   -1    0    0  501  503 -0.00000000000E+00 -0.00000000000E+00 -0.19892581118E+04  0.19892581118E+04  0.00000000000E+00 0.  1.
          6    1    1    2  501    0  0.22122893465E+03 -0.18925529465E+03 -0.45468851964E+03  0.56664403109E+03  0.17200000000E+03 0. -1.
         -6    1    1    2    0  502 -0.22122893465E+03  0.18925529465E+03 -0.14592586092E+04  0.14979250637E+04  0.17200000000E+03 0.  1.
</event>
<event>
 4    1  0.4538619E+000  0.1780424E+03  0.7818608E-02  0.1169711E+00
         21   -1    0    0  501  502  0.00000000000E+00  0.00000000000E+00  0.66037893368E+03  0.66037893368E+03  0.00000000000E+00 0.  1.
         21   -1    0    0  502  503 -0.00000000000E+00 -0.00000000000E+00 -0.49511275324E+02  0.49511275324E+02  0.00000000000E+00 0.  1.
          6    1    1    2  501    0  0.13275124565E+02  0.44032761030E+02  0.24344980639E+03  0.30160723003E+03  0.17200000000E+03 0.  1.
         -6    1    1    2    0  503 -0.13275124565E+02 -0.44032761030E+02  0.36741785196E+03  0.40828297897E+03  0.17200000000E+03 0.  1.
</event>
<event>
 4    1  0.4538619E+000  0.2449158E+03  0.7818608E-02  0.1116561E+00
         21   -1    0    0  501  502  0.00000000000E+00  0.00000000000E+00  0.17629809403E+03  0.17629809403E+03  0.00000000000E+00 0.  1.
         21   -1    0    0  502  503 -0.00000000000E+00 -0.00000000000E+00 -0.11694965657E+04  0.11694965657E+04  0.00000000000E+00 0. -1.
          6    1    1    2  501    0 -0.83285817566E+02 -0.15317715429E+03  0.70023026481E+02  0.25472925282E+03  0.17200000000E+03 0.  1.
         -6    1    1    2    0  503  0.83285817566E+02  0.15317715429E+03 -0.10632214982E+04  0.10910654069E+04  0.17200000000E+03 0. -1.
</event>
<event>
 4    1  0.4538619E+000  0.1746566E+03  0.7818608E-02  0.1173077E+00
         21   -1    0    0  503  502  0.00000000000E+00  0.00000000000E+00  0.76203443091E+02  0.76203443091E+02  0.00000000000E+00 0.  1.
         21   -1    0    0  501  503 -0.00000000000E+00 -0.00000000000E+00 -0.61792199109E+03  0.61792199109E+03  0.00000000000E+00 0.  1.
          6    1    1    2  501    0  0.14954821563E+02  0.26405877512E+02 -0.47681963206E+03  0.50780102261E+03  0.17200000000E+03 0.  1.
         -6    1    1    2    0  502 -0.14954821563E+02 -0.26405877512E+02 -0.64898915945E+02  0.18632441157E+03  0.17200000000E+03 0.  1.
</event>
<event>
 4    1  0.4538619E+000  0.1883601E+03  0.7818608E-02  0.1159949E+00
         21   -1    0    0  501  502  0.00000000000E+00  0.00000000000E+00  0.10905864177E+04  0.10905864177E+04  0.00000000000E+00 0. -1.
         21   -1    0    0  502  503 -0.00000000000E+00 -0.00000000000E+00 -0.29807898625E+03  0.29807898625E+03  0.00000000000E+00 0. -1.
          6    1    1    2  501    0 -0.74496486501E+02 -0.18596218904E+02  0.10516020308E+04  0.10683381380E+04  0.17200000000E+03 0. -1.
         -6    1    1    2    0  503  0.74496486501E+02  0.18596218904E+02 -0.25909459940E+03  0.32032726593E+03  0.17200000000E+03 0. -1.
</event>
<event>
 4    1  0.4538619E+000  0.2310300E+03  0.7818608E-02  0.1125917E+00
         21   -1    0    0  501  502  0.00000000000E+00  0.00000000000E+00  0.69523634370E+03  0.69523634370E+03  0.00000000000E+00 0. -1.
         21   -1    0    0  502  503 -0.00000000000E+00 -0.00000000000E+00 -0.10818804543E+03  0.10818804543E+03  0.00000000000E+00 0.  1.
          6    1    1    2  501    0 -0.13936864451E+03  0.66085070638E+02  0.50999500575E+03  0.55988370357E+03  0.17200000000E+03 0. -1.
         -6    1    1    2    0  503  0.13936864451E+03 -0.66085070638E+02  0.77053292511E+02  0.24354068556E+03  0.17200000000E+03 0.  1.
</event>
<event>
 4    1  0.4538619E+000  0.1870043E+03  0.7818608E-02  0.1161191E+00
         21   -1    0    0  503  502  0.00000000000E+00  0.00000000000E+00  0.33271334411E+03  0.33271334411E+03  0.00000000000E+00 0.  1.
         21   -1    0    0  501  503 -0.00000000000E+00 -0.00000000000E+00 -0.49022184497E+03  0.49022184497E+03  0.00000000000E+00 0.  1.
          6    1    1    2  501    0  0.20693039560E+02 -0.70415965632E+02 -0.44345298242E+03  0.48127035824E+03  0.17200000000E+03 0.  1.
         -6    1    1    2    0  502 -0.20693039560E+02  0.70415965632E+02  0.28594448156E+03  0.34166483085E+03  0.17200000000E+03 0.  1.
</event>
<event>
 4    1  0.4538619E+000  0.2595578E+03  0.7818608E-02  0.1107409E+00
         21   -1    0    0  501  502  0.00000000000E+00  0.00000000000E+00  0.27941021645E+03  0.27941021645E+03  0.00000000000E+00 0.  1.
         21   -1    0    0  502  503 -0.00000000000E+00 -0.00000000000E+00 -0.25571829735E+03  0.25571829735E+03  0.00000000000E+00 0.  1.
          6    1    1    2  501    0 -0.15187363789E+03 -0.12132868103E+03  0.75783954659E+02  0.27039500460E+03  0.17200000000E+03 0.  1.
         -6    1    1    2    0  503  0.15187363789E+03  0.12132868103E+03 -0.52092035556E+02  0.26473350921E+03  0.17200000000E+03 0.  1.
</event>
<event>
 4    1  0.4538619E+000  0.1802868E+03  0.7818608E-02  0.1167526E+00
         21   -1    0    0  501  502  0.00000000000E+00  0.00000000000E+00  0.13077588632E+03  0.13077588632E+03  0.00000000000E+00 0. -1.
         21   -1    0    0  502  503 -0.00000000000E+00 -0.00000000000E+00 -0.46374012875E+03  0.46374012875E+03  0.00000000000E+00 0. -1.
          6    1    1    2  501    0  0.45697823491E+02 -0.28827577805E+02  0.36013349913E+02  0.18384852919E+03  0.17200000000E+03 0. -1.
         -6    1    1    2    0  503 -0.45697823491E+02  0.28827577805E+02 -0.36897759234E+03  0.41066748589E+03  0.17200000000E+03 0. -1.
</event>
<event>
 4    1  0.4538619E+000  0.1838300E+03  0.7818608E-02  0.1164147E+00
         21   -1    0    0  501  502  0.00000000000E+00  0.00000000000E+00  0.12480862930E+04  0.12480862930E+04  0.00000000000E+00 0. -1.
         21   -1    0    0  502  503 -0.00000000000E+00 -0.00000000000E+00 -0.29483481336E+02  0.29483481336E+02  0.00000000000E+00 0. -1.
          6    1    1    2  501    0 -0.39474571411E+02  0.51490127016E+02  0.79182781956E+03  0.81288669001E+03  0.17200000000E+03 0. -1.
         -6    1    1    2    0  503  0.39474571411E+02 -0.51490127016E+02  0.42677499206E+03  0.46468308428E+03  0.17200000000E+03 0. -1.
</event>
<event>
 4    1  0.4538619E+000  0.2084413E+03  0.7818608E-02  0.1142806E+00
         21   -1    0    0  501  502  0.00000000000E+00  0.00000000000E+00  0.16399055943E+03  0.16399055943E+03  0.00000000000E+00 0.  1.
         21   -1    0    0  502  503 -0.00000000000E+00 -0.00000000000E+00 -0.43416052416E+03  0.43416052416E+03  0.00000000000E+00 0.  1.
          6    1    1    2  501    0 -0.42772593746E+02  0.10970086376E+03  0.51630936453E+02  0.21474060605E+03  0.17200000000E+03 0.  1.
         -6    1    1    2    0  503  0.42772593746E+02 -0.10970086376E+03 -0.32180090119E+03  0.38341047754E+03  0.17200000000E+03 0.  1.
</event>
<event>
 4    1  0.4538619E+000  0.2371293E+03  0.7818608E-02  0.1121720E+00
         21   -1    0    0  503  502  0.00000000000E+00  0.00000000000E+00  0.81434058793E+02  0.81434058793E+02  0.00000000000E+00 0. -1.
         21   -1    0    0  501  503 -0.00000000000E+00 -0.00000000000E+00 -0.69546315966E+03  0.69546315966E+03  0.00000000000E+00 0. -1.
          6    1    1    2  501    0 -0.16258929494E+03 -0.14526023267E+02 -0.33982709067E+03  0.41438235451E+03  0.17200000000E+03 0. -1.
         -6    1    1    2    0  502  0.16258929494E+03  0.14526023267E+02 -0.27420201020E+03  0.36251486394E+03  0.17200000000E+03 0. -1.
</event>
<event>
 4    1  0.4538619E+000  0.2022805E+03  0.7818608E-02  0.1147829E+00
         21   -1    0    0  503  502  0.00000000000E+00  0.00000000000E+00  0.29136460363E+03  0.29136460363E+03  0.00000000000E+00 0.  1.
         21   -1    0    0  501  503 -0.00000000000E+00 -0.00000000000E+00 -0.14662226896E+03  0.14662226896E+03  0.00000000000E+00 0.  1.
          6    1    1    2  501    0 -0.45522627414E+02 -0.96234540047E+02  0.27379942438E+02  0.20412510270E+03  0.17200000000E+03 0.  1.
         -6    1    1    2    0  502  0.45522627414E+02  0.96234540047E+02  0.11736239224E+03  0.23386176989E+03  0.17200000000E+03 0.  1.
</event>
<event>
 4    1  0.4538619E+000  0.1742970E+03  0.7818608E-02  0.1173439E+00
         21   -1    0    0  503  502  0.00000000000E+00  0.00000000000E+00  0.14912264323E+04  0.14912264323E+04  0.00000000000E+00 0. -1.
         21   -1    0    0  501  503 -0.00000000000E+00 -0.00000000000E+00 -0.49804746444E+02  0.49804746444E+02  0.00000000000E+00 0. -1.
          6    1    1    2  501    0  0.85436970060E+01 -0.26878250545E+02  0.12838508942E+03  0.21647671075E+03  0.17200000000E+03 0. -1.
         -6    1    1    2    0  502 -0.85436970060E+01  0.26878250545E+02  0.13130365964E+04  0.13245544680E+04  0.17200000000E+03 0. -1.
</event>
<event>
 4    1  0.4538619E+000  0.1827347E+03  0.7818608E-02  0.1165182E+00
         21   -1    0    0  501  502  0.00000000000E+00  0.00000000000E+00  0.14748560289E+03  0.14748560289E+03  0.00000000000E+00 0. -1.
         21   -1    0    0  502  503 -0.00000000000E+00 -0.00000000000E+00 -0.31589721585E+03  0.31589721585E+03  0.00000000000E+00 0. -1.
          6    1    1    2  501    0 -0.18122471090E+02 -0.58987760449E+02  0.39110754632E+02  0.18687330192E+03  0.17200000000E+03 0. -1.
         -6    1    1    2    0  503  0.18122471090E+02  0.58987760449E+02 -0.20752236759E+03  0.27650951682E+03  0.17200000000E+03 0. -1.
</event>
<event>
 4    1  0.4538619E+000  0.2423260E+03  0.7818608E-02  0.1118253E+00
         21   -1    0    0  503  502  0.00000000000E+00  0.00000000000E+00  0.11381719702E+03  0.11381719702E+03  0.00000000000E+00 0.  1.
         21   -1    0    0  501  503 -0.00000000000E+00 -0.00000000000E+00 -0.52986611566E+03  0.52986611566E+03  0.00000000000E+00 0. -1.
          6    1    1    2  501    0 -0.14950317189E+03 -0.82381464040E+02 -0.15583257175E+03  0.28810708850E+03  0.17200000000E+03 0.  1.
         -6    1    1    2    0  502  0.14950317189E+03  0.82381464040E+02 -0.26021634689E+03  0.35557622419E+03  0.17200000000E+03 0. -1.
</event>
<event>
 4    1  0.4538619E+000  0.2667171E+03  0.7818608E-02  0.1103173E+00
         21   -1    0    0  501  502  0.00000000000E+00  0.00000000000E+00  0.49327634066E+03  0.49327634066E+03  0.00000000000E+00 0.  1.
         21   -1    0    0  502  503 -0.00000000000E+00 -0.00000000000E+00 -0.52367642401E+03  0.52367642401E+03  0.00000000000E+00 0.  1.
          6    1    1    2  501    0 -0.13651156166E+03 -0.15138893838E+03  0.41763547877E+03  0.49553749632E+03  0.17200000000E+03 0.  1.
         -6    1    1    2    0  503  0.13651156166E+03  0.15138893838E+03 -0.44803556213E+03  0.52141526834E+03  0.17200000000E+03 0.  1.
</event>
<event>
 4    1  0.4538619E+000  0.1992330E+03  0.7818608E-02  0.1150388E+00
         21   -1    0    0  501  502  0.00000000000E+00  0.00000000000E+00  0.25445994297E+03  0.25445994297E+03  0.00000000000E+00 0. -1.
         21   -1    0    0  502  503 -0.00000000000E+00 -0.00000000000E+00 -0.15813820735E+03  0.15813820735E+03  0.00000000000E+00 0.  1.
          6    1    1    2  501    0 -0.51916487255E+02  0.86107253763E+02  0.72192801603E+02  0.21190937073E+03  0.17200000000E+03 0. -1.
         -6    1    1    2    0  503  0.51916487255E+02 -0.86107253763E+02  0.24128934016E+02  0.20068877960E+03  0.17200000000E+03 0.  1.
</event>
<event>
 4    1  0.4538619E+000  0.1764825E+03  0.7818608E-02  0.1171251E+00
         21   -1    0    0  503  502  0.00000000000E+00  0.00000000000E+00  0.53392303417E+03  0.53392303417E+03  0.00000000000E+00 0. -1.
         21   -1    0    0  501  503 -0.00000000000E+00 -0.00000000000E+00 -0.13804141187E+03  0.13804141187E+03  0.00000000000E+00 0. -1.
          6    1    1    2  501    0 -0.32586034600E+02 -0.22365318036E+02 -0.57364578517E+02  0.18557142013E+03  0.17200000000E+03 0. -1.
         -6    1    1    2    0  502  0.32586034600E+02  0.22365318036E+02  0.45324620081E+03  0.48639302591E+03  0.17200000000E+03 0. -1.
</event>
<event>
 4    1  0.4538619E+000  0.2960306E+03  0.7818608E-02  0.1087242E+00
         21   -1    0    0  501  502  0.00000000000E+00  0.00000000000E+00  0.11591790928E+04  0.11591790928E+04  0.00000000000E+00 0.  1.
         21   -1    0    0  502  503 -0.00000000000E+00 -0.00000000000E+00 -0.28082085849E+03  0.28082085849E+03  0.00000000000E+00 0. -1.
          6    1    1    2  501    0  0.23364574513E+03  0.58819697648E+02  0.10546796199E+04  0.10954374430E+04  0.17200000000E+03 0.  1.
         -6    1    1    2    0  503 -0.23364574513E+03 -0.58819697648E+02 -0.17632138559E+03  0.34456250821E+03  0.17200000000E+03 0. -1.
</event>
<event>
 4    1  0.4538619E+000  0.2016318E+03  0.7818608E-02  0.1148370E+00
         21   -1    0    0  501  502  0.00000000000E+00  0.00000000000E+00  0.49825485738E+02  0.49825485738E+02  0.00000000000E+00 0. -1.
         21   -1    0    0  502  503 -0.00000000000E+00 -0.00000000000E+00 -0.12558997535E+04  0.12558997535E+04  0.00000000000E+00 0. -1.
          6    1    1    2  501    0  0.39296464168E+02  0.97607206238E+02 -0.21663177254E+03  0.29594712988E+03  0.17200000000E+03 0. -1.
         -6    1    1    2    0  503 -0.39296464168E+02 -0.97607206238E+02 -0.98944249518E+03  0.10097781093E+04  0.17200000000E+03 0. -1.
</event>
<event>
 4    1  0.4538619E+000  0.2660644E+03  0.7818608E-02  0.1103553E+00
         21   -1    0    0  503  502  0.00000000000E+00  0.00000000000E+00  0.44699520312E+03  0.44699520312E+03  0.00000000000E+00 0. -1.
         21   -1    0    0  501  503 -0.00000000000E+00 -0.00000000000E+00 -0.16400891070E+03  0.16400891070E+03  0.00000000000E+00 0.  1.
          6    1    1    2  501    0  0.99992303947E+02 -0.17665735733E+03  0.19814419655E+03  0.33173996650E+03  0.17200000000E+03 0.  1.
         -6    1    1    2    0  502 -0.99992303947E+02  0.17665735733E+03  0.84842095881E+02  0.27926414732E+03  0.17200000000E+03 0. -1.
</event>
<event>
 4    1  0.4538619E+000  0.1770770E+03  0.7818608E-02  0.1170662E+00
         21   -1    0    0  501  502  0.00000000000E+00  0.00000000000E+00  0.40411139960E+02  0.40411139960E+02  0.00000000000E+00 0.  1.
         21   -1    0    0  502  503 -0.00000000000E+00 -0.00000000000E+00 -0.78170060383E+03  0.78170060383E+03  0.00000000000E+00 0.  1.
          6    1    1    2  501    0  0.34542458419E+02 -0.24063930144E+02 -0.40595943509E+03  0.44289876621E+03  0.17200000000E+03 0.  1.
         -6    1    1    2    0  503 -0.34542458419E+02  0.24063930144E+02 -0.33533002878E+03  0.37921297758E+03  0.17200000000E+03 0.  1.
</event>
<event>
 4    1  0.4538619E+000  0.2343192E+03  0.7818608E-02  0.1123636E+00
         21   -1    0    0  501  502  0.00000000000E+00  0.00000000000E+00  0.27989850183E+03  0.27989850183E+03  0.00000000000E+00 0. -1.
         21   -1    0    0  502  503 -0.00000000000E+00 -0.00000000000E+00 -0.22760464395E+03  0.22760464395E+03  0.00000000000E+00 0. -1.
          6    1    1    2  501    0  0.13070412794E+03  0.90762915274E+02  0.12046112616E+03  0.26346984413E+03  0.17200000000E+03 0. -1.
         -6    1    1    2    0  503 -0.13070412794E+03 -0.90762915274E+02 -0.68167268276E+02  0.24403330165E+03  0.17200000000E+03 0. -1.
</event>
<event>
 4    1  0.4538619E+000  0.1790438E+03  0.7818608E-02  0.1168732E+00
         21   -1    0    0  501  502  0.00000000000E+00  0.00000000000E+00  0.17973913699E+03  0.17973913699E+03  0.00000000000E+00 0.  1.
         21   -1    0    0  502  503 -0.00000000000E+00 -0.00000000000E+00 -0.67544849564E+03  0.67544849564E+03  0.00000000000E+00 0.  1.
          6    1    1    2  501    0 -0.34921851100E+02  0.35399900436E+02  0.11896785078E+03  0.21496520219E+03  0.17200000000E+03 0.  1.
         -6    1    1    2    0  503  0.34921851100E+02 -0.35399900436E+02 -0.61467720943E+03  0.64022243043E+03  0.17200000000E+03 0.  1.
</event>
<event>
 4    1  0.4538619E+000  0.1794678E+03  0.7818608E-02  0.1168319E+00
         21   -1    0    0  501  502  0.00000000000E+00  0.00000000000E+00  0.34033006533E+02  0.34033006533E+02  0.00000000000E+00 0.  1.
         21   -1    0    0  502  503 -0.00000000000E+00 -0.00000000000E+00 -0.10671526527E+04  0.10671526527E+04  0.00000000000E+00 0.  1.
          6    1    1    2  501    0  0.44804407437E+02 -0.24844372167E+02 -0.33134572049E+03  0.37682710125E+03  0.17200000000E+03 0.  1.
         -6    1    1    2    0  503 -0.44804407437E+02  0.24844372167E+02 -0.70177392569E+03  0.72435855799E+03  0.17200000000E+03 0.  1.
</event>
<event>
 4    1  0.4538619E+000  0.2059258E+03  0.7818608E-02  0.1144834E+00
         21   -1    0    0  503  502  0.00000000000E+00  0.00000000000E+00  0.17371092577E+03  0.17371092577E+03  0.00000000000E+00 0.  1.
         21   -1    0    0  501  503 -0.00000000000E+00 -0.00000000000E+00 -0.42319482129E+03  0.42319482129E+03  0.00000000000E+00 0.  1.
          6    1    1    2  501    0 -0.70538638450E+02  0.88576225537E+02 -0.31888814413E+03  0.37959859814E+03  0.17200000000E+03 0.  1.
         -6    1    1    2    0  502  0.70538638450E+02 -0.88576225537E+02  0.69404248611E+02  0.21730714892E+03  0.17200000000E+03 0.  1.
</event>
<event>
 4    1  0.4538619E+000  0.2915423E+03  0.7818608E-02  0.1089547E+00
         21   -1    0    0  503  502  0.00000000000E+00  0.00000000000E+00  0.12953560604E+03  0.12953560604E+03  0.00000000000E+00 0.  1.
         21   -1    0    0  501  503 -0.00000000000E+00 -0.00000000000E+00 -0.91203114752E+03  0.91203114752E+03  0.00000000000E+00 0. -1.
          6    1    1    2  501    0  0.19677172986E+03 -0.12920451705E+03 -0.66708790056E+03  0.72801317843E+03  0.17200000000E+03 0. -1.
         -6    1    1    2    0  502 -0.19677172986E+03  0.12920451705E+03 -0.11540764092E+03  0.31355357514E+03  0.17200000000E+03 0.  1.
</event>
<event>
 4    1  0.4538619E+000  0.1881648E+03  0.7818608E-02  0.1160127E+00
         21   -1    0    0  501  502  0.00000000000E+00  0.00000000000E+00  0.55598505850E+03  0.55598505850E+03  0.00000000000E+00 0.  1.
         21   -1    0    0  502  503 -0.00000000000E+00 -0.00000000000E+00 -0.92046710321E+02  0.92046710321E+02  0.00000000000E+00 0. -1.
          6    1    1    2  501    0 -0.21498568740E+02 -0.73210727920E+02  0.41183748862E+03  0.45278705389E+03  0.17200000000E+03 0.  1.
         -6    1    1    2    0  503  0.21498568740E+02  0.73210727920E+02  0.52100859560E+02  0.19524471493E+03  0.17200000000E+03 0. -1.
</event>
<event>
 4    1  0.4538619E+000  0.2656754E+03  0.7818608E-02  0.1103781E+00
         21   -1    0    0  503  502  0.00000000000E+00  0.00000000000E+00  0.64538949180E+02  0.64538949180E+02  0.00000000000E+00 0.  1.
         21   -1    0    0  501  503 -0.00000000000E+00 -0.00000000000E+00 -0.11343453889E+04  0.11343453889E+04  0.00000000000E+00 0. -1.
          6    1    1    2  501    0 -0.20024179707E+03  0.30043629767E+02 -0.64843467748E+03  0.70075026075E+03  0.17200000000E+03 0.  1.
         -6    1    1    2    0  502  0.20024179707E+03 -0.30043629767E+02 -0.42137176224E+03  0.49813407733E+03  0.17200000000E+03 0.  1.
</event>
<event>
 4    1  0.4538619E+000  0.1870882E+03  0.7818608E-02  0.1161114E+00
         21   -1    0    0  503  502  0.00000000000E+00  0.00000000000E+00  0.50239086741E+03  0.50239086741E+03  0.00000000000E+00 0.  1.
         21   -1    0    0  501  503 -0.00000000000E+00 -0.00000000000E+00 -0.73067131482E+02  0.73067131482E+02  0.00000000000E+00 0. -1.
          6    1    1    2  501    0  0.60504419967E+02  0.41919024091E+02  0.15262846086E+03  0.24144862079E+03  0.17200000000E+03 0. -1.
         -6    1    1    2    0  502 -0.60504419967E+02 -0.41919024091E+02  0.27669527507E+03  0.33400937810E+03  0.17200000000E+03 0.  1.
</event>
<event>
 4    1  0.4538619E+000  0.2040734E+03  0.7818608E-02  0.1146347E+00
         21   -1    0    0  503  502  0.00000000000E+00  0.00000000000E+00  0.24206597291E+03  0.24206597291E+03  0.00000000000E+00 0. -1.
         21   -1    0    0  501  503 -0.00000000000E+00 -0.00000000000E+00 -0.26521742815E+03  0.26521742815E+03  0.00000000000E+00 0. -1.
          6    1    1    2  501    0 -0.99770955326E+02  0.45909909927E+02 -0.16191276927E+03  0.26050279885E+03  0.17200000000E+03 0. -1.
         -6    1    1    2    0  502  0.99770955326E+02 -0.45909909927E+02  0.13876131403E+03  0.24678060221E+03  0.17200000000E+03 0. -1.
</event>
<event>
 4    1  0.4538619E+000  0.1725471E+03  0.7818608E-02  0.1175217E+00
         21   -1    0    0  503  502  0.00000000000E+00  0.00000000000E+00  0.13343892759E+04  0.13343892759E+04  0.00000000000E+00 0. -1.
         21   -1    0    0  501  503 -0.00000000000E+00 -0.00000000000E+00 -0.27684464389E+02  0.27684464389E+02  0.00000000000E+00 0. -1.
          6    1    1    2  501    0  0.13471926578E+02 -0.26482111665E+01  0.35333180429E+03  0.39321224517E+03  0.17200000000E+03 0. -1.
         -6    1    1    2    0  502 -0.13471926578E+02  0.26482111665E+01  0.95337300724E+03  0.96886149514E+03  0.17200000000E+03 0. -1.
</event>
<event>
 4    1  0.4538619E+000  0.1808759E+03  0.7818608E-02  0.1166958E+00
         21   -1    0    0  503  502  0.00000000000E+00  0.00000000000E+00  0.17971446285E+03  0.17971446285E+03  0.00000000000E+00 0.  1.
         21   -1    0    0  501  503 -0.00000000000E+00 -0.00000000000E+00 -0.18304141675E+03  0.18304141675E+03  0.00000000000E+00 0.  1.
          6    1    1    2  501    0  0.47890617340E+02  0.28958388271E+02  0.11719552460E+02  0.18125519962E+03  0.17200000000E+03 0.  1.
         -6    1    1    2    0  502 -0.47890617340E+02 -0.28958388271E+02 -0.15046506359E+02  0.18150067998E+03  0.17200000000E+03 0.  1.
</event>
<event>
 4    1  0.4538619E+000  0.2433192E+03  0.7818608E-02  0.1117601E+00
         21   -1    0    0  501  502  0.00000000000E+00  0.00000000000E+00  0.56711279335E+02  0.56711279335E+02  0.00000000000E+00 0.  1.
         21   -1    0    0  502  503 -0.00000000000E+00 -0.00000000000E+00 -0.11164651664E+04  0.11164651664E+04  0.00000000000E+00 0.  1.
          6    1    1    2  501    0  0.14732054346E+03  0.88977001235E+02 -0.67936217386E+03  0.72162123898E+03  0.17200000000E+03 0.  1.
         -6    1    1    2    0  503 -0.14732054346E+03 -0.88977001235E+02 -0.38039171322E+03  0.45155520677E+03  0.17200000000E+03 0.  1.
</event>
<event>
 4    1  0.4538619E+000  0.1721526E+03  0.7818608E-02  0.1175621E+00
         21   -1    0    0  501  502  0.00000000000E+00  0.00000000000E+00  0.52386667353E+03  0.52386667353E+03  0.00000000000E+00 0.  1.
         21   -1    0    0  502  503 -0.00000000000E+00 -0.00000000000E+00 -0.77848546232E+02  0.77848546232E+02  0.00000000000E+00 0.  1.
          6    1    1    2  501    0 -0.14612275756E+01 -0.70979130373E+01  0.38029137481E+03  0.41744226584E+03  0.17200000000E+03 0.  1.
         -6    1    1    2    0  503  0.14612275756E+01  0.70979130373E+01  0.65726752493E+02  0.18427295393E+03  0.17200000000E+03 0.  1.
</event>
<event>
 4    1  0.4538619E+000  0.2622624E+03  0.7818608E-02  0.1105792E+00
         21   -1    0    0  503  502  0.00000000000E+00  0.00000000000E+00  0.54227038348E+03  0.54227038348E+03  0.00000000000E+00 0.  1.
         21   -1    0    0  501  503 -0.00000000000E+00 -0.00000000000E+00 -0.13150244949E+03  0.13150244949E+03  0.00000000000E+00 0. -1.
          6    1    1    2  501    0  0.19786569693E+03  0.68366040863E+01  0.14194971202E+03  0.29821350391E+03  0.17200000000E+03 0.  1.
         -6    1    1    2    0  502 -0.19786569693E+03 -0.68366040863E+01  0.26881822198E+03  0.37555932906E+03  0.17200000000E+03 0. -1.
</event>
<event>
 4    1  0.4538619E+000  0.2307173E+03  0.7818608E-02  0.1126136E+00
         21   -1    0    0  501  502  0.00000000000E+00  0.00000000000E+00  0.53785633472E+03  0.53785633472E+03  0.00000000000E+00 0. -1.
         21   -1    0    0  502  503 -0.00000000000E+00 -0.00000000000E+00 -0.29701879927E+03  0.29701879927E+03  0.00000000000E+00 0.  1.
          6    1    1    2  501    0 -0.47314541732E+02  0.14631413209E+03  0.46128816548E+03  0.51576861354E+03  0.17200000000E+03 0. -1.
         -6    1    1    2    0  503  0.47314541732E+02 -0.14631413209E+03 -0.22045063002E+03  0.31910652044E+03  0.17200000000E+03 0.  1.
</event>
<event>
 4    1  0.4538619E+000  0.1977556E+03  0.7818608E-02  0.1151647E+00
         21   -1    0    0  503  502  0.00000000000E+00  0.00000000000E+00  0.85315628609E+02  0.85315628609E+02  0.00000000000E+00 0.  1.
         21   -1    0    0  501  503 -0.00000000000E+00 -0.00000000000E+00 -0.50224477713E+03  0.50224477713E+03  0.00000000000E+00 0. -1.
          6    1    1    2  501    0  0.28659937238E+02 -0.93283820200E+02 -0.29528186362E+03  0.35538520242E+03  0.17200000000E+03 0. -1.
         -6    1    1    2    0  502 -0.28659937238E+02  0.93283820200E+02 -0.12164728490E+03  0.23217520332E+03  0.17200000000E+03 0.  1.
</event>
<event>
 4    1  0.4538619E+000  0.2085980E+03  0.7818608E-02  0.1142681E+00
         21   -1    0    0  501  502  0.00000000000E+00  0.00000000000E+00  0.20007935468E+02  0.20007935468E+02  0.00000000000E+00 0. -1.
         21   -1    0    0  502  503 -0.00000000000E+00 -0.00000000000E+00 -0.23084106483E+04  0.23084106483E+04  0.00000000000E+00 0. -1.
          6    1    1    2  501    0 -0.21988336693E+02  0.11595531957E+03 -0.86410592481E+03  0.88892754056E+03  0.17200000000E+03 0. -1.
         -6    1    1    2    0  503  0.21988336693E+02 -0.11595531957E+03 -0.14242967880E+04  0.14394910432E+04  0.17200000000E+03 0. -1.
</event>
<event>
 4    1  0.4538619E+000  0.2273891E+03  0.7818608E-02  0.1128491E+00
         21   -1    0    0  501  502  0.00000000000E+00  0.00000000000E+00  0.36800662201E+03  0.36800662201E+03  0.00000000000E+00 0.  1.
         21   -1    0    0  502  503 -0.00000000000E+00 -0.00000000000E+00 -0.17444932811E+03  0.17444932811E+03  0.00000000000E+00 0.  1.
          6    1    1    2  501    0 -0.95026385643E+02 -0.11441926610E+03  0.21642531629E+03  0.31391989417E+03  0.17200000000E+03 0.  1.
         -6    1    1    2    0  503  0.95026385643E+02  0.11441926610E+03 -0.22868022390E+02  0.22853605596E+03  0.17200000000E+03 0.  1.
</event>
<event>
 4    1  0.4538619E+000  0.1899556E+03  0.7818608E-02  0.1158501E+00
         21   -1    0    0  501  502  0.00000000000E+00  0.00000000000E+00  0.52646007687E+03  0.52646007687E+03  0.00000000000E+00 0. -1.
         21   -1    0    0  502  503 -0.00000000000E+00 -0.00000000000E+00 -0.82122243652E+02  0.82122243652E+02  0.00000000000E+00 0. -1.
          6    1    1    2  501    0 -0.57635978425E+01  0.80410844989E+02  0.34592266879E+03  0.39464619070E+03  0.17200000000E+03 0. -1.
         -6    1    1    2    0  503  0.57635978425E+01 -0.80410844989E+02  0.98415164421E+02  0.21393612981E+03  0.17200000000E+03 0. -1.
</event>
<event>
 4    1  0.4538619E+000  0.1971976E+03  0.7818608E-02  0.1152125E+00
         21   -1    0    0  501  502  0.00000000000E+00  0.00000000000E+00  0.11839573387E+03  0.11839573387E+03  0.00000000000E+00 0. -1.
         21   -1    0    0  502  503 -0.00000000000E+00 -0.00000000000E+00 -0.88175337707E+03  0.88175337707E+03  0.00000000000E+00 0. -1.
          6    1    1    2  501    0 -0.38794635669E+02  0.88305477231E+02  0.14456444729E+02  0.19772675555E+03  0.17200000000E+03 0. -1.
         -6    1    1    2    0  503  0.38794635669E+02 -0.88305477231E+02 -0.77781408793E+03  0.80242235540E+03  0.17200000000E+03 0. -1.
</event>
<event>
 4    1  0.4538619E+000  0.1738557E+03  0.7818608E-02  0.1173886E+00
         21   -1    0    0  503  502  0.00000000000E+00  0.00000000000E+00  0.15720793648E+03  0.15720793648E+03  0.00000000000E+00 0. -1.
         21   -1    0    0  501  503 -0.00000000000E+00 -0.00000000000E+00 -0.27991035900E+03  0.27991035900E+03  0.00000000000E+00 0. -1.
          6    1    1    2  501    0  0.25067316689E+02 -0.36665559144E+01 -0.18364948834E+03  0.25288920215E+03  0.17200000000E+03 0. -1.
         -6    1    1    2    0  502 -0.25067316689E+02  0.36665559144E+01  0.60947065817E+02  0.18422909333E+03  0.17200000000E+03 0. -1.
</event>
<event>
 4    1  0.4538619E+000  0.2510636E+03  0.7818608E-02  0.1112634E+00
         21   -1    0    0  503  502  0.00000000000E+00  0.00000000000E+00  0.87894021617E+03  0.87894021617E+03  0.00000000000E+00 0. -1.
         21   -1    0    0  501  503 -0.00000000000E+00 -0.00000000000E+00 -0.72575537982E+02  0.72575537982E+02  0.00000000000E+00 0. -1.
          6    1    1    2  501    0 -0.39372482586E+02 -0.17860221823E+03  0.35136817926E+03  0.43184782289E+03  0.17200000000E+03 0. -1.
         -6    1    1    2    0  502  0.39372482586E+02  0.17860221823E+03  0.45499649892E+03  0.51966793125E+03  0.17200000000E+03 0. -1.
</event>
<event>
 4    1  0.4538619E+000  0.1875646E+03  0.7818608E-02  0.1160676E+00
         21   -1    0    0  501  502  0.00000000000E+00  0.00000000000E+00  0.22700296459E+02  0.22700296459E+02  0.00000000000E+00 0. -1.
         21   -1    0    0  502  503 -0.00000000000E+00 -0.00000000000E+00 -0.16736200412E+04  0.16736200412E+04  0.00000000000E+00 0.  1.
          6    1    1    2  501    0 -0.23899165381E+02  0.70889287830E+02 -0.59474249382E+03  0.62361774765E+03  0.17200000000E+03 0. -1.
         -6    1    1    2    0  503  0.23899165381E+02 -0.70889287830E+02 -0.10561772509E+04  0.10727025900E+04  0.17200000000E+03 0.  1.
</event>
<event>
 4    1  0.4538619E+000  0.2009999E+03  0.7818608E-02  0.1148898E+00
         21   -1    0    0  503  502  0.00000000000E+00  0.00000000000E+00  0.30200138090E+03  0.30200138090E+03  0.00000000000E+00 0. -1.
         21   -1    0    0  501  503 -0.00000000000E+00 -0.00000000000E+00 -0.14470054589E+03  0.14470054589E+03  0.00000000000E+00 0.  1.
          6    1    1    2  501    0  0.25736905238E+02  0.10076984747E+03  0.17284503043E+02  0.20174167764E+03  0.17200000000E+03 0.  1.
         -6    1    1    2    0  502 -0.25736905238E+02 -0.10076984747E+03  0.14001633197E+03  0.24496024916E+03  0.17200000000E+03 0. -1.
</event>
<event>
 4    1  0.4538619E+000  0.2819100E+03  0.7818608E-02  0.1094650E+00
         21   -1    0    0  503  502  0.00000000000E+00  0.00000000000E+00  0.62278832299E+03  0.62278832299E+03  0.00000000000E+00 0. -1.
         21   -1    0    0  501  503 -0.00000000000E+00 -0.00000000000E+00 -0.22189435917E+03  0.22189435917E+03  0.00000000000E+00 0.  1.
          6    1    1    2  501    0  0.22206610052E+03 -0.23997824745E+02 -0.74857407209E+02  0.29167941306E+03  0.17200000000E+03 0.  1.
         -6    1    1    2    0  502 -0.22206610052E+03  0.23997824745E+02  0.47575137103E+03  0.55300326909E+03  0.17200000000E+03 0. -1.
</event>
<event>
 4    1  0.4538619E+000  0.1862677E+03  0.7818608E-02  0.1161871E+00
         21   -1    0    0  501  502  0.00000000000E+00  0.00000000000E+00  0.20678873842E+03  0.20678873842E+03  0.00000000000E+00 0. -1.
         21   -1    0    0  502  503 -0.00000000000E+00 -0.00000000000E+00 -0.16823593449E+03  0.16823593449E+03  0.00000000000E+00 0. -1.
          6    1    1    2  501    0 -0.59373893408E+02  0.39829575654E+02  0.95479635093E+01  0.18651224604E+03  0.17200000000E+03 0. -1.
         -6    1    1    2    0  503  0.59373893408E+02 -0.39829575654E+02  0.29004840424E+02  0.18851242687E+03  0.17200000000E+03 0. -1.
</event>
<event>
 4    1  0.4538619E+000  0.1725164E+03  0.7818608E-02  0.1175249E+00
         21   -1    0    0  503  502  0.00000000000E+00  0.00000000000E+00  0.35754209617E+02  0.35754209617E+02  0.00000000000E+00 0.  1.
         21   -1    0    0  501  503 -0.00000000000E+00 -0.00000000000E+00 -0.13258321794E+04  0.13258321794E+04  0.00000000000E+00 0.  1.
          6    1    1    2  501    0 -0.90674169285E+01 -0.97822949613E+01 -0.10603594600E+04  0.10743016781E+04  0.17200000000E+03 0.  1.
         -6    1    1    2    0  502  0.90674169285E+01  0.97822949613E+01 -0.22971850983E+03  0.28728471087E+03  0.17200000000E+03 0.  1.
</event>
<event>
 4    1  0.4538619E+000  0.1926713E+03  0.7818608E-02  0.1156074E+00
         21   -1    0    0  503  502  0.00000000000E+00  0.00000000000E+00  0.66102423433E+02  0.66102423433E+02  0.00000000000E+00 0.  1.
         21   -1    0    0  501  503 -0.00000000000E+00 -0.00000000000E+00 -0.67134065201E+03  0.67134065201E+03  0.00000000000E+00 0.  1.
          6    1    1    2  501    0 -0.84782588158E+02 -0.18711875501E+02 -0.45170541010E+03  0.49108044051E+03  0.17200000000E+03 0.  1.
         -6    1    1    2    0  502  0.84782588158E+02  0.18711875501E+02 -0.15353281847E+03  0.24636263493E+03  0.17200000000E+03 0.  1.
</event>
<event>
 4    1  0.4538619E+000  0.2171005E+03  0.7818608E-02  0.1136063E+00
         21   -1    0    0  501  502  0.00000000000E+00  0.00000000000E+00  0.62604169613E+02  0.62604169613E+02  0.00000000000E+00 0.  1.
         21   -1    0    0  502  503 -0.00000000000E+00 -0.00000000000E+00 -0.88919359316E+03  0.88919359316E+03  0.00000000000E+00 0. -1.
          6    1    1    2  501    0  0.11013640922E+02 -0.13201261811E+03 -0.22695460168E+03  0.31407168425E+03  0.17200000000E+03 0. -1.
         -6    1    1    2    0  503 -0.11013640922E+02  0.13201261811E+03 -0.59963482187E+03  0.63772607852E+03  0.17200000000E+03 0. -1.
</event>
<event>
 4    1  0.4538619E+000  0.2679547E+03  0.7818608E-02  0.1102456E+00
         21   -1    0    0  503  502  0.00000000000E+00  0.00000000000E+00  0.56526256593E+03  0.56526256593E+03  0.00000000000E+00 0.  1.
         21   -1    0    0  501  503 -0.00000000000E+00 -0.00000000000E+00 -0.27746368601E+03  0.27746368601E+03  0.00000000000E+00 0.  1.
          6    1    1    2  501    0 -0.18209421560E+03 -0.95170341975E+02 -0.16637093911E+03  0.31540289587E+03  0.17200000000E+03 0.  1.
         -6    1    1    2    0  502  0.18209421560E+03  0.95170341975E+02  0.45416981903E+03  0.52732335607E+03  0.17200000000E+03 0.  1.
</event>
<event>
 4    1  0.4538619E+000  0.2541689E+03  0.7818608E-02  0.1110698E+00
         21   -1    0    0  503  502  0.00000000000E+00  0.00000000000E+00  0.21127931520E+03  0.21127931520E+03  0.00000000000E+00 0. -1.
         21   -1    0    0  501  503 -0.00000000000E+00 -0.00000000000E+00 -0.34057525524E+03  0.34057525524E+03  0.00000000000E+00 0. -1.
          6    1    1    2  501    0 -0.16102714617E+03  0.95331421021E+02 -0.15286281039E+03  0.29659544912E+03  0.17200000000E+03 0. -1.
         -6    1    1    2    0  502  0.16102714617E+03 -0.95331421021E+02  0.23566870347E+02  0.25525912132E+03  0.17200000000E+03 0. -1.
</event>
<event>
 4    1  0.4538619E+000  0.1725627E+03  0.7818608E-02  0.1175201E+00
         21   -1    0    0  501  502  0.00000000000E+00  0.00000000000E+00  0.13773980204E+03  0.13773980204E+03  0.00000000000E+00 0.  1.
         21   -1    0    0  502  503 -0.00000000000E+00 -0.00000000000E+00 -0.33855207640E+03  0.33855207640E+03  0.00000000000E+00 0.  1.
          6    1    1    2  501    0 -0.23341928343E+01  0.13726956336E+02  0.42764849641E+02  0.17778276112E+03  0.17200000000E+03 0.  1.
         -6    1    1    2    0  503  0.23341928343E+01 -0.13726956336E+02 -0.24357712401E+03  0.29850911732E+03  0.17200000000E+03 0.  1.
</event>
<event>
 4    1  0.4538619E+000  0.2614032E+03  0.7818608E-02  0.1106303E+00
         21   -1    0    0  501  502  0.00000000000E+00  0.00000000000E+00  0.16509640405E+03  0.16509640405E+03  0.00000000000E+00 0.  1.
         21   -1    0    0  502  503 -0.00000000000E+00 -0.00000000000E+00 -0.41423987117E+03  0.41423987117E+03  0.00000000000E+00 0.  1.
          6    1    1    2  501    0  0.90506872112E+02  0.17480308368E+03 -0.11614324540E+03  0.28604346771E+03  0.17200000000E+03 0.  1.
         -6    1    1    2    0  503 -0.90506872112E+02 -0.17480308368E+03 -0.13300022171E+03  0.29329280751E+03  0.17200000000E+03 0.  1.
</event>
<event>
 4    1  0.4538619E+000  0.1829639E+03  0.7818608E-02  0.1164965E+00
         21   -1    0    0  503  502  0.00000000000E+00  0.00000000000E+00  0.15497808467E+03  0.15497808467E+03  0.00000000000E+00 0.  1.
         21   -1    0    0  501  503 -0.00000000000E+00 -0.00000000000E+00 -0.21666778905E+03  0.21666778905E+03  0.00000000000E+00 0.  1.
          6    1    1    2  501    0  0.43920206146E+02  0.44303425225E+02 -0.20554139047E+02  0.18411477569E+03  0.17200000000E+03 0.  1.
         -6    1    1    2    0  502 -0.43920206146E+02 -0.44303425225E+02 -0.41135565333E+02  0.18753109803E+03  0.17200000000E+03 0.  1.
</event>
<event>
 4    1  0.4538619E+000  0.1912389E+03  0.7818608E-02  0.1157349E+00
         21   -1    0    0  501  502  0.00000000000E+00  0.00000000000E+00  0.62730366251E+02  0.62730366251E+02  0.00000000000E+00 0. -1.
         21   -1    0    0  502  503 -0.00000000000E+00 -0.00000000000E+00 -0.58380560861E+03  0.58380560861E+03  0.00000000000E+00 0.  1.
          6    1    1    2  501    0 -0.80713104065E+02 -0.21764793513E+02 -0.24858956424E+03  0.31363845882E+03  0.17200000000E+03 0. -1.
         -6    1    1    2    0  503  0.80713104065E+02  0.21764793513E+02 -0.27248567813E+03  0.33289751604E+03  0.17200000000E+03 0.  1.
</event>
<event>
 4    1  0.4538619E+000  0.2006282E+03  0.7818608E-02  0.1149210E+00
         21   -1    0    0  503  502  0.00000000000E+00  0.00000000000E+00  0.53719664094E+03  0.53719664094E+03  0.00000000000E+00 0.  1.
         21   -1    0    0  501  503 -0.00000000000E+00 -0.00000000000E+00 -0.11929262218E+03  0.11929262218E+03  0.00000000000E+00 0. -1.
          6    1    1    2  501    0  0.46783431402E+02  0.92081331176E+02  0.87797701749E+01  0.20082018168E+03  0.17200000000E+03 0. -1.
         -6    1    1    2    0  502 -0.46783431402E+02 -0.92081331176E+02  0.40912424859E+03  0.45566908145E+03  0.17200000000E+03 0.  1.
</event>
<event>
 4    1  0.4538619E+000  0.2670783E+03  0.7818608E-02  0.1102964E+00
         21   -1    0    0  501  502  0.00000000000E+00  0.00000000000E+00  0.48809352488E+03  0.48809352488E+03  0.00000000000E+00 0.  1.
         21   -1    0    0  502  503 -0.00000000000E+00 -0.00000000000E+00 -0.15045974496E+03  0.15045974496E+03  0.00000000000E+00 0. -1.
          6    1    1    2  501    0  0.19956371778E+03  0.43830639097E+02  0.22290503821E+03  0.34787563646E+03  0.17200000000E+03 0.  1.
         -6    1    1    2    0  503 -0.19956371778E+03 -0.43830639097E+02  0.11472874170E+03  0.29067763338E+03  0.17200000000E+03 0.  1.
</event>
<event>
 4    1  0.4538619E+000  0.1940297E+03  0.7818608E-02  0.1154876E+00
         21   -1    0    0  503  502  0.00000000000E+00  0.00000000000E+00  0.51824120514E+02  0.51824120514E+02  0.00000000000E+00 0.  1.
         21   -1    0    0  501  503 -0.00000000000E+00 -0.00000000000E+00 -0.75604561478E+03  0.75604561478E+03  0.00000000000E+00 0.  1.
          6    1    1    2  501    0  0.86094310866E+02 -0.25520221499E+02 -0.43203306207E+03  0.47360329263E+03  0.17200000000E+03 0.  1.
         -6    1    1    2    0  502 -0.86094310866E+02  0.25520221499E+02 -0.27218843219E+03  0.33426644266E+03  0.17200000000E+03 0.  1.
</event>
<event>
 4    1  0.4538619E+000  0.3595501E+03  0.7818608E-02  0.1058762E+00
         21   -1    0    0  503  502  0.00000000000E+00  0.00000000000E+00  0.42959114119E+03  0.42959114119E+03  0.00000000000E+00 0. -1.
         21   -1    0    0  501  503 -0.00000000000E+00 -0.00000000000E+00 -0.31265580324E+03  0.31265580324E+03  0.00000000000E+00 0. -1.
          6    1    1    2  501    0 -0.21442548187E+03 -0.23176284166E+03 -0.13407788013E+02  0.35980004284E+03  0.17200000000E+03 0. -1.
         -6    1    1    2    0  502  0.21442548187E+03  0.23176284166E+03  0.13034312596E+03  0.38244690159E+03  0.17200000000E+03 0. -1.
</event>
<event>
 4    1  0.4538619E+000  0.1869041E+03  0.7818608E-02  0.1161284E+00
         21   -1    0    0  501  502  0.00000000000E+00  0.00000000000E+00  0.14416507856E+04  0.14416507856E+04  0.00000000000E+00 0.  1.
         21   -1    0    0  502  503 -0.00000000000E+00 -0.00000000000E+00 -0.24961610224E+02  0.24961610224E+02  0.00000000000E+00 0.  1.
          6    1    1    2  501    0  0.44422644964E+02  0.58101281443E+02  0.83377153862E+03  0.85446363814E+03  0.17200000000E+03 0. -1.
         -6    1    1    2    0  503 -0.44422644964E+02 -0.58101281443E+02  0.58291763672E+03  0.61214875765E+03  0.17200000000E+03 0. -1.
</event>
<event>
 4    1  0.4538619E+000  0.1825155E+03  0.7818608E-02  0.1165391E+00
         21   -1    0    0  503  502  0.00000000000E+00  0.00000000000E+00  0.64463175872E+03  0.64463175872E+03  0.00000000000E+00 0. -1.
         21   -1    0    0  501  503 -0.00000000000E+00 -0.00000000000E+00 -0.75052309480E+02  0.75052309480E+02  0.00000000000E+00 0. -1.
          6    1    1    2  501    0 -0.46882202872E+02  0.39114672164E+02  0.83964081689E+02  0.20090262701E+03  0.17200000000E+03 0. -1.
         -6    1    1    2    0  502  0.46882202872E+02 -0.39114672164E+02  0.48561536755E+03  0.51878144119E+03  0.17200000000E+03 0. -1.
</event>
<event>
 4    1  0.4538619E+000  0.1800896E+03  0.7818608E-02  0.1167716E+00
         21   -1    0    0  503  502  0.00000000000E+00  0.00000000000E+00  0.11847107981E+03  0.11847107981E+03  0.00000000000E+00 0. -1.
         21   -1    0    0  501  503 -0.00000000000E+00 -0.00000000000E+00 -0.32286799741E+03  0.32286799741E+03  0.00000000000E+00 0. -1.
          6    1    1    2  501    0 -0.52061599062E+02  0.11740618013E+02 -0.18826227063E+03  0.26052818417E+03  0.17200000000E+03 0. -1.
         -6    1    1    2    0  502  0.52061599062E+02 -0.11740618013E+02 -0.16134646975E+02  0.18081089304E+03  0.17200000000E+03 0. -1.
</event>
<event>
 4    1  0.4538619E+000  0.1728435E+03  0.7818608E-02  0.1174915E+00
         21   -1    0    0  503  502  0.00000000000E+00  0.00000000000E+00  0.67436124363E+02  0.67436124363E+02  0.00000000000E+00 0.  1.
         21   -1    0    0  501  503 -0.00000000000E+00 -0.00000000000E+00 -0.57450409404E+03  0.57450409404E+03  0.00000000000E+00 0.  1.
          6    1    1    2  501    0 -0.67951450986E+01  0.15642767444E+02 -0.40709158918E+03  0.44226511523E+03  0.17200000000E+03 0.  1.
         -6    1    1    2    0  502  0.67951450986E+01 -0.15642767444E+02 -0.99976380501E+02  0.19967510318E+03  0.17200000000E+03 0.  1.
</event>
<event>
 4    1  0.4538619E+000  0.2110717E+03  0.7818608E-02  0.1140720E+00
         21   -1    0    0  501  502  0.00000000000E+00  0.00000000000E+00  0.11299965094E+04  0.11299965094E+04  0.00000000000E+00 0. -1.
         21   -1    0    0  502  503 -0.00000000000E+00 -0.00000000000E+00 -0.39834963811E+02  0.39834963811E+02  0.00000000000E+00 0. -1.
          6    1    1    2  501    0  0.67767723862E+02  0.10185673400E+03  0.60434544438E+03  0.64014426093E+03  0.17200000000E+03 0. -1.
         -6    1    1    2    0  503 -0.67767723862E+02 -0.10185673400E+03  0.48581610121E+03  0.52968721228E+03  0.17200000000E+03 0. -1.
</event>
<event>
 4    1  0.4538619E+000  0.1757972E+03  0.7818608E-02  0.1171934E+00
         21   -1    0    0  503  502  0.00000000000E+00  0.00000000000E+00  0.21175774345E+03  0.21175774345E+03  0.00000000000E+00 0.  1.
         21   -1    0    0  501  503 -0.00000000000E+00 -0.00000000000E+00 -0.20839157388E+03  0.20839157388E+03  0.00000000000E+00 0.  1.
          6    1    1    2  501    0  0.35674015538E+02  0.69287024183E+01 -0.11331576751E+03  0.20915330613E+03  0.17200000000E+03 0.  1.
         -6    1    1    2    0  502 -0.35674015538E+02 -0.69287024183E+01  0.11668193707E+03  0.21099601120E+03  0.17200000000E+03 0.  1.
</event>
<event>
 4    1  0.4538619E+000  0.1819414E+03  0.7818608E-02  0.1165937E+00
         21   -1    0    0  503  502  0.00000000000E+00  0.00000000000E+00  0.15248739554E+03  0.15248739554E+03  0.00000000000E+00 0.  1.
         21   -1    0    0  501  503 -0.00000000000E+00 -0.00000000000E+00 -0.50844172772E+03  0.50844172772E+03  0.00000000000E+00 0.  1.
          6    1    1    2  501    0  0.59314077315E+02  0.71316128200E+00 -0.42813672870E+03  0.46519213969E+03  0.17200000000E+03 0.  1.
         -6    1    1    2    0  502 -0.59314077315E+02 -0.71316128200E+00  0.72182396519E+02  0.19573698356E+03  0.17200000000E+03 0.  1.
</event>
<event>
 4    1  0.4538619E+000  0.2138559E+03  0.7818608E-02  0.1138548E+00
         21   -1    0    0  503  502  0.00000000000E+00  0.00000000000E+00  0.22188725032E+03  0.22188725032E+03  0.00000000000E+00 0. -1.
         21   -1    0    0  501  503 -0.00000000000E+00 -0.00000000000E+00 -0.45178833033E+03  0.45178833033E+03  0.00000000000E+00 0.  1.
          6    1    1    2  501    0  0.29536240284E+02  0.12360400675E+03 -0.36333940051E+03  0.42160391357E+03  0.17200000000E+03 0.  1.
         -6    1    1    2    0  502 -0.29536240284E+02 -0.12360400675E+03  0.13343832050E+03  0.25207166709E+03  0.17200000000E+03 0. -1.
</event>
<event>
 4    1  0.4538619E+000  0.1962249E+03  0.7818608E-02  0.1152964E+00
         21   -1    0    0  503  502  0.00000000000E+00  0.00000000000E+00  0.26108967490E+03  0.26108967490E+03  0.00000000000E+00 0. -1.
         21   -1    0    0  501  503 -0.00000000000E+00 -0.00000000000E+00 -0.39900644341E+03  0.39900644341E+03  0.00000000000E+00 0. -1.
          6    1    1    2  501    0  0.90935368311E+02 -0.25514386211E+02 -0.33100785479E+03  0.38479920094E+03  0.17200000000E+03 0. -1.
         -6    1    1    2    0  502 -0.90935368311E+02  0.25514386211E+02  0.19309108628E+03  0.27529691737E+03  0.17200000000E+03 0. -1.
</event>
<event>
 4    1  0.4538619E+000  0.2857384E+03  0.7818608E-02  0.1092595E+00
         21   -1    0    0  503  502  0.00000000000E+00  0.00000000000E+00  0.19208562644E+03  0.19208562644E+03  0.00000000000E+00 0. -1.
         21   -1    0    0  501  503 -0.00000000000E+00 -0.00000000000E+00 -0.42741794727E+03  0.42741794727E+03  0.00000000000E+00 0. -1.
          6    1    1    2  501    0 -0.93870489062E+02  0.20796815160E+03 -0.14071082180E+03  0.31850581811E+03  0.17200000000E+03 0. -1.
         -6    1    1    2    0  502  0.93870489062E+02 -0.20796815160E+03 -0.94621499019E+02  0.30099775560E+03  0.17200000000E+03 0. -1.
</event>
<event>
 4    1  0.4538619E+000  0.1806485E+03  0.7818608E-02  0.1167177E+00
         21   -1    0    0  503  502  0.00000000000E+00  0.00000000000E+00  0.15048776686E+04  0.15048776686E+04  0.00000000000E+00 0.  1.
         21   -1    0    0  501  503 -0.00000000000E+00 -0.00000000000E+00 -0.37033573609E+02  0.37033573609E+02  0.00000000000E+00 0.  1.
          6    1    1    2  501    0 -0.40240217977E+02 -0.37823464574E+02  0.12302397604E+04  0.12434322489E+04  0.17200000000E+03 0.  1.
         -6    1    1    2    0  502  0.40240217977E+02  0.37823464574E+02  0.23760433462E+03  0.29847899331E+03  0.17200000000E+03 0.  1.
</event>
<event>
 4    1  0.4538619E+000  0.1917606E+03  0.7818608E-02  0.1156883E+00
         21   -1    0    0  501  502  0.00000000000E+00  0.00000000000E+00  0.18306225129E+03  0.18306225129E+03  0.00000000000E+00 0. -1.
         21   -1    0    0  502  503 -0.00000000000E+00 -0.00000000000E+00 -0.20149912272E+03  0.20149912272E+03  0.00000000000E+00 0. -1.
          6    1    1    2  501    0  0.76824967250E+01 -0.84433986724E+02 -0.19943572563E+02  0.19279487793E+03  0.17200000000E+03 0.  1.
         -6    1    1    2    0  503 -0.76824967250E+01  0.84433986724E+02  0.15067011370E+01  0.19176649608E+03  0.17200000000E+03 0.  1.
</event>
<event>
 4    1  0.4538619E+000  0.2519290E+03  0.7818608E-02  0.1112092E+00
         21   -1    0    0  501  502  0.00000000000E+00  0.00000000000E+00  0.53220672458E+03  0.53220672458E+03  0.00000000000E+00 0.  1.
         21   -1    0    0  502  503 -0.00000000000E+00 -0.00000000000E+00 -0.13377824420E+03  0.13377824420E+03  0.00000000000E+00 0.  1.
          6    1    1    2  501    0 -0.18384257879E+03 -0.92804431750E+01  0.89496689145E+02  0.26735346972E+03  0.17200000000E+03 0.  1.
         -6    1    1    2    0  503  0.18384257879E+03  0.92804431750E+01  0.30893179124E+03  0.39863149906E+03  0.17200000000E+03 0.  1.
</event>
<event>
 4    1  0.4538619E+000  0.1802025E+03  0.7818608E-02  0.1167607E+00
         21   -1    0    0  503  502  0.00000000000E+00  0.00000000000E+00  0.38800243339E+03  0.38800243339E+03  0.00000000000E+00 0.  1.
         21   -1    0    0  501  503 -0.00000000000E+00 -0.00000000000E+00 -0.12237087010E+03  0.12237087010E+03  0.00000000000E+00 0.  1.
          6    1    1    2  501    0  0.53670297916E+02  0.29071796106E+01 -0.10651265439E+02  0.18051704082E+03  0.17200000000E+03 0.  1.
         -6    1    1    2    0  502 -0.53670297916E+02 -0.29071796106E+01  0.27628282872E+03  0.32985626266E+03  0.17200000000E+03 0.  1.
</event>
<event>
 4    1  0.4538619E+000  0.1769732E+03  0.7818608E-02  0.1170765E+00
         21   -1    0    0  501  502  0.00000000000E+00  0.00000000000E+00  0.57266930795E+03  0.57266930795E+03  0.00000000000E+00 0. -1.
         21   -1    0    0  502  503 -0.00000000000E+00 -0.00000000000E+00 -0.96054755753E+02  0.96054755753E+02  0.00000000000E+00 0. -1.
          6    1    1    2  501    0 -0.24706425434E+02 -0.33542794504E+02  0.45772440744E+03  0.49074551418E+03  0.17200000000E+03 0. -1.
         -6    1    1    2    0  503  0.24706425434E+02  0.33542794504E+02  0.18890144755E+02  0.17797854952E+03  0.17200000000E+03 0. -1.
</event>
<event>
 4    1  0.4538619E+000  0.1932410E+03  0.7818608E-02  0.1155570E+00
         21   -1    0    0  503  502  0.00000000000E+00  0.00000000000E+00  0.28839491679E+03  0.28839491679E+03  0.00000000000E+00 0.  1.
         21   -1    0    0  501  503 -0.00000000000E+00 -0.00000000000E+00 -0.13005529289E+03  0.13005529289E+03  0.00000000000E+00 0.  1.
          6    1    1    2  501    0 -0.51739470150E+02  0.71281995691E+02  0.93054861925E+02  0.21447914353E+03  0.17200000000E+03 0.  1.
         -6    1    1    2    0  502  0.51739470150E+02 -0.71281995691E+02  0.65284761967E+02  0.20397106615E+03  0.17200000000E+03 0.  1.
</event>
<event>
 4    1  0.4538619E+000  0.1893608E+03  0.7818608E-02  0.1159039E+00
         21   -1    0    0  503  502  0.00000000000E+00  0.00000000000E+00  0.17853396312E+04  0.17853396312E+04  0.00000000000E+00 0. -1.
         21   -1    0    0  501  503 -0.00000000000E+00 -0.00000000000E+00 -0.65586892928E+02  0.65586892928E+02  0.00000000000E+00 0.  1.
          6    1    1    2  501    0  0.52167391319E+02 -0.59599249370E+02  0.89029408027E+02  0.20924565165E+03  0.17200000000E+03 0.  1.
         -6    1    1    2    0  502 -0.52167391319E+02  0.59599249370E+02  0.16307233303E+04  0.16416808725E+04  0.17200000000E+03 0.  1.
</event>
<event>
 4    1  0.4538619E+000  0.1954298E+03  0.7818608E-02  0.1153653E+00
         21   -1    0    0  501  502  0.00000000000E+00  0.00000000000E+00  0.27611951070E+02  0.27611951070E+02  0.00000000000E+00 0.  1.
         21   -1    0    0  502  503 -0.00000000000E+00 -0.00000000000E+00 -0.13832127793E+04  0.13832127793E+04  0.00000000000E+00 0. -1.
          6    1    1    2  501    0  0.90519062776E+02  0.20373841652E+02 -0.68011003425E+03  0.70763157987E+03  0.17200000000E+03 0.  1.
         -6    1    1    2    0  503 -0.90519062776E+02 -0.20373841652E+02 -0.67549079395E+03  0.70319315046E+03  0.17200000000E+03 0. -1.
</event>
<event>
 4    1  0.4538619E+000  0.1746504E+03  0.7818608E-02  0.1173083E+00
         21   -1    0    0  501  502  0.00000000000E+00  0.00000000000E+00  0.17879812491E+02  0.17879812491E+02  0.00000000000E+00 0. -1.
         21   -1    0    0  502  503 -0.00000000000E+00 -0.00000000000E+00 -0.18926482938E+04  0.18926482938E+04  0.00000000000E+00 0. -1.
          6    1    1    2  501    0  0.29356108150E+02  0.75479522706E+01 -0.63738926159E+03  0.66088412256E+03  0.17200000000E+03 0. -1.
         -6    1    1    2    0  503 -0.29356108150E+02 -0.75479522706E+01 -0.12373792197E+04  0.12496439837E+04  0.17200000000E+03 0. -1.
</event>
<event>
 4    1  0.4538619E+000  0.2163165E+03  0.7818608E-02  0.1136659E+00
         21   -1    0    0  503  502  0.00000000000E+00  0.00000000000E+00  0.14475990698E+03  0.14475990698E+03  0.00000000000E+00 0.  1.
         21   -1    0    0  501  503 -0.00000000000E+00 -0.00000000000E+00 -0.37777921437E+03  0.37777921437E+03  0.00000000000E+00 0. -1.
          6    1    1    2  501    0 -0.49230318959E+02  0.12159444196E+03 -0.21577704592E+03  0.30553652182E+03  0.17200000000E+03 0. -1.
         -6    1    1    2    0  502  0.49230318959E+02 -0.12159444196E+03 -0.17242261476E+02  0.21700259953E+03  0.17200000000E+03 0.  1.
</event>
<event>
 4    1  0.4538619E+000  0.1965332E+03  0.7818608E-02  0.1152697E+00
         21   -1    0    0  503  502  0.00000000000E+00  0.00000000000E+00  0.23911926162E+04  0.23911926162E+04  0.00000000000E+00 0. -1.
         21   -1    0    0  501  503 -0.00000000000E+00 -0.00000000000E+00 -0.33737532266E+02  0.33737532266E+02  0.00000000000E+00 0.  1.
          6    1    1    2  501    0 -0.51400872224E+02 -0.79995323784E+02  0.30338891143E+03  0.36148324037E+03  0.17200000000E+03 0.  1.
         -6    1    1    2    0  502  0.51400872224E+02  0.79995323784E+02  0.20540661725E+04  0.20634469081E+04  0.17200000000E+03 0. -1.
</event>
<event>
 4    1  0.4538619E+000  0.1754725E+03  0.7818608E-02  0.1172258E+00
         21   -1    0    0  503  502  0.00000000000E+00  0.00000000000E+00  0.82885161790E+02  0.82885161790E+02  0.00000000000E+00 0.  1.
         21   -1    0    0  501  503 -0.00000000000E+00 -0.00000000000E+00 -0.65768361143E+03  0.65768361143E+03  0.00000000000E+00 0.  1.
          6    1    1    2  501    0  0.34414702500E+02 -0.47153912248E+01 -0.53166382863E+03  0.55987233665E+03  0.17200000000E+03 0.  1.
         -6    1    1    2    0  502 -0.34414702500E+02  0.47153912248E+01 -0.43134621009E+02  0.18069643658E+03  0.17200000000E+03 0.  1.
</event>
<event>
 4    1  0.4538619E+000  0.2142426E+03  0.7818608E-02  0.1138250E+00
         21   -1    0    0  503  502  0.00000000000E+00  0.00000000000E+00  0.12658613094E+03  0.12658613094E+03  0.00000000000E+00 0.  1.
         21   -1    0    0  501  503 -0.00000000000E+00 -0.00000000000E+00 -0.36462900508E+03  0.36462900508E+03  0.00000000000E+00 0.  1.
          6    1    1    2  501    0 -0.16608849408E+02  0.12664922914E+03 -0.10069116427E+03  0.23672471709E+03  0.17200000000E+03 0.  1.
         -6    1    1    2    0  502  0.16608849408E+02 -0.12664922914E+03 -0.13735170987E+03  0.25449041893E+03  0.17200000000E+03 0.  1.
</event>
<event>
 4    1  0.4538619E+000  0.2890529E+03  0.7818608E-02  0.1090845E+00
         21   -1    0    0  503  502  0.00000000000E+00  0.00000000000E+00  0.34876264916E+03  0.34876264916E+03  0.00000000000E+00 0.  1.
         21   -1    0    0  501  503 -0.00000000000E+00 -0.00000000000E+00 -0.40670877642E+03  0.40670877642E+03  0.00000000000E+00 0. -1.
          6    1    1    2  501    0 -0.20531244893E+03 -0.10869408954E+03 -0.27112632730E+03  0.39630933895E+03  0.17200000000E+03 0. -1.
         -6    1    1    2    0  502  0.20531244893E+03  0.10869408954E+03  0.21318020004E+03  0.35916208663E+03  0.17200000000E+03 0.  1.
</event>
<event>
 4    1  0.4538619E+000  0.2266006E+03  0.7818608E-02  0.1129056E+00
         21   -1    0    0  501  502  0.00000000000E+00  0.00000000000E+00  0.29005044759E+03  0.29005044759E+03  0.00000000000E+00 0. -1.
         21   -1    0    0  502  503 -0.00000000000E+00 -0.00000000000E+00 -0.17783648088E+03  0.17783648088E+03  0.00000000000E+00 0. -1.
          6    1    1    2  501    0  0.42238738275E+02  0.14134965818E+03  0.71854282622E+02  0.23772016071E+03  0.17200000000E+03 0. -1.
         -6    1    1    2    0  503 -0.42238738275E+02 -0.14134965818E+03  0.40359684087E+02  0.23016676775E+03  0.17200000000E+03 0. -1.
</event>
<event>
 4    1  0.4538619E+000  0.2003773E+03  0.7818608E-02  0.1149421E+00
         21   -1    0    0  501  502  0.00000000000E+00  0.00000000000E+00  0.34873733004E+03  0.34873733004E+03  0.00000000000E+00 0. -1.
         21   -1    0    0  502  503 -0.00000000000E+00 -0.00000000000E+00 -0.11558525104E+03  0.11558525104E+03  0.00000000000E+00 0. -1.
          6    1    1    2  501    0 -0.87169125290E+02 -0.54484831263E+02  0.13110371022E+03  0.23945612558E+03  0.17200000000E+03 0. -1.
         -6    1    1    2    0  503  0.87169125290E+02  0.54484831263E+02  0.10204836878E+03  0.22486645550E+03  0.17200000000E+03 0. -1.
</event>
<event>
 4    1  0.4538619E+000  0.3017886E+03  0.7818608E-02  0.1084350E+00
         21   -1    0    0  501  502  0.00000000000E+00  0.00000000000E+00  0.39229276231E+03  0.39229276231E+03  0.00000000000E+00 0. -1.
         21   -1    0    0  502  503 -0.00000000000E+00 -0.00000000000E+00 -0.49439520599E+03  0.49439520599E+03  0.00000000000E+00 0. -1.
          6    1    1    2  501    0 -0.22356432575E+03  0.10729104441E+03  0.27183211226E+03  0.40616385020E+03  0.17200000000E+03 0. -1.
         -6    1    1    2    0  503  0.22356432575E+03 -0.10729104441E+03 -0.37393455593E+03  0.48052411810E+03  0.17200000000E+03 0. -1.
</event>
<event>
 4    1  0.4538619E+000  0.2088998E+03  0.7818608E-02  0.1142440E+00
         21   -1    0    0  503  502  0.00000000000E+00  0.00000000000E+00  0.12355758171E+04  0.12355758171E+04  0.00000000000E+00 0. -1.
         21   -1    0    0  501  503 -0.00000000000E+00 -0.00000000000E+00 -0.43990154776E+02  0.43990154776E+02  0.00000000000E+00 0. -1.
          6    1    1    2  501    0  0.85687887500E+02  0.81931215819E+02  0.31174156047E+03  0.37526249308E+03  0.17200000000E+03 0. -1.
         -6    1    1    2    0  502 -0.85687887500E+02 -0.81931215819E+02  0.87984410182E+03  0.90430347876E+03  0.17200000000E+03 0. -1.
</event>
<event>
 4    1  0.4538619E+000  0.4605335E+03  0.7818608E-02  0.1024627E+00
         21   -1    0    0  501  502  0.00000000000E+00  0.00000000000E+00  0.20134319863E+04  0.20134319863E+04  0.00000000000E+00 0.  1.
         21   -1    0    0  502  503 -0.00000000000E+00 -0.00000000000E+00 -0.13399498395E+03  0.13399498395E+03  0.00000000000E+00 0.  1.
          6    1    1    2  501    0 -0.23594192322E+03 -0.35614400387E+03  0.44317367758E+03  0.63913539342E+03  0.17200000000E+03 0.  1.
         -6    1    1    2    0  503  0.23594192322E+03  0.35614400387E+03  0.14362633248E+04  0.15082915769E+04  0.17200000000E+03 0.  1.
</event>
<event>
 4    1  0.4538619E+000  0.2396097E+03  0.7818608E-02  0.1120053E+00
         21   -1    0    0  503  502  0.00000000000E+00  0.00000000000E+00  0.31492361318E+03  0.31492361318E+03  0.00000000000E+00 0. -1.
         21   -1    0    0  501  503 -0.00000000000E+00 -0.00000000000E+00 -0.18406252561E+03  0.18406252561E+03  0.00000000000E+00 0.  1.
          6    1    1    2  501    0  0.88588188726E+01 -0.16658424994E+03  0.41065077533E+02  0.24310312954E+03  0.17200000000E+03 0. -1.
         -6    1    1    2    0  502 -0.88588188726E+01  0.16658424994E+03  0.89796010044E+02  0.25588300925E+03  0.17200000000E+03 0.  1.
</event>
<event>
 4    1  0.4538619E+000  0.1996350E+03  0.7818608E-02  0.1150047E+00
         21   -1    0    0  501  502  0.00000000000E+00  0.00000000000E+00  0.27702865283E+02  0.27702865283E+02  0.00000000000E+00 0.  1.
         21   -1    0    0  502  503 -0.00000000000E+00 -0.00000000000E+00 -0.17103430438E+04  0.17103430438E+04  0.00000000000E+00 0. -1.
          6    1    1    2  501    0 -0.85206111563E+02  0.54863896877E+02 -0.49494539017E+03  0.53369004851E+03  0.17200000000E+03 0.  1.
         -6    1    1    2    0  503  0.85206111563E+02 -0.54863896877E+02 -0.11876947884E+04  0.12043558606E+04  0.17200000000E+03 0. -1.
</event>
<event>
 4    1  0.4538619E+000  0.2065782E+03  0.7818608E-02  0.1144305E+00
         21   -1    0    0  503  502  0.00000000000E+00  0.00000000000E+00  0.19020828373E+02  0.19020828373E+02  0.00000000000E+00 0. -1.
         21   -1    0    0  501  503 -0.00000000000E+00 -0.00000000000E+00 -0.28303918409E+04  0.28303918409E+04  0.00000000000E+00 0. -1.
          6    1    1    2  501    0  0.95106342223E+02  0.63602832523E+02 -0.20544030769E+04  0.20647630709E+04  0.17200000000E+03 0. -1.
         -6    1    1    2    0  502 -0.95106342223E+02 -0.63602832523E+02 -0.75696793562E+03  0.78464959835E+03  0.17200000000E+03 0. -1.
</event>
<event>
 4    1  0.4538619E+000  0.2064899E+03  0.7818608E-02  0.1144376E+00
         21   -1    0    0  503  502  0.00000000000E+00  0.00000000000E+00  0.28211427230E+03  0.28211427230E+03  0.00000000000E+00 0. -1.
         21   -1    0    0  501  503 -0.00000000000E+00 -0.00000000000E+00 -0.24043176244E+03  0.24043176244E+03  0.00000000000E+00 0.  1.
          6    1    1    2  501    0 -0.11397945785E+03 -0.79215779696E+01 -0.13838336656E+03  0.24857197016E+03  0.17200000000E+03 0.  1.
         -6    1    1    2    0  502  0.11397945785E+03  0.79215779696E+01  0.18006587642E+03  0.27397406458E+03  0.17200000000E+03 0. -1.
</event>
<event>
 4    1  0.4538619E+000  0.2600967E+03  0.7818608E-02  0.1107085E+00
         21   -1    0    0  503  502  0.00000000000E+00  0.00000000000E+00  0.36788551380E+03  0.36788551380E+03  0.00000000000E+00 0.  1.
         21   -1    0    0  501  503 -0.00000000000E+00 -0.00000000000E+00 -0.36587222548E+03  0.36587222548E+03  0.00000000000E+00 0. -1.
          6    1    1    2  501    0 -0.19493746112E+03 -0.81042726374E+01 -0.25773898903E+03  0.36616892202E+03  0.17200000000E+03 0. -1.
         -6    1    1    2    0  502  0.19493746112E+03  0.81042726374E+01  0.25975227735E+03  0.36758881726E+03  0.17200000000E+03 0.  1.
</event>
<event>
 4    1  0.4538619E+000  0.2374880E+03  0.7818608E-02  0.1121478E+00
         21   -1    0    0  503  502  0.00000000000E+00  0.00000000000E+00  0.32704047069E+03  0.32704047069E+03  0.00000000000E+00 0. -1.
         21   -1    0    0  501  503 -0.00000000000E+00 -0.00000000000E+00 -0.17250278611E+03  0.17250278611E+03  0.00000000000E+00 0. -1.
          6    1    1    2  501    0  0.11329446027E+03  0.11824097674E+03  0.73219345630E+02  0.24851888436E+03  0.17200000000E+03 0. -1.
         -6    1    1    2    0  502 -0.11329446027E+03 -0.11824097674E+03  0.81318338947E+02  0.25102437244E+03  0.17200000000E+03 0. -1.
</event>
<event>
 4    1  0.4538619E+000  0.2431753E+03  0.7818608E-02  0.1117695E+00
         21   -1    0    0  503  502  0.00000000000E+00  0.00000000000E+00  0.18325288063E+03  0.18325288063E+03  0.00000000000E+00 0.  1.
         21   -1    0    0  501  503 -0.00000000000E+00 -0.00000000000E+00 -0.34194451555E+03  0.34194451555E+03  0.00000000000E+00 0. -1.
          6    1    1    2  501    0  0.75850930062E+01 -0.17173441757E+03 -0.17035758040E+02  0.24377132905E+03  0.17200000000E+03 0.  1.
         -6    1    1    2    0  502 -0.75850930062E+01  0.17173441757E+03 -0.14165587688E+03  0.28142606714E+03  0.17200000000E+03 0. -1.
</event>
<event>
 4    1  0.4538619E+000  0.2048324E+03  0.7818608E-02  0.1145725E+00
         21   -1    0    0  503  502  0.00000000000E+00  0.00000000000E+00  0.52860094355E+02  0.52860094355E+02  0.00000000000E+00 0.  1.
         21   -1    0    0  501  503 -0.00000000000E+00 -0.00000000000E+00 -0.11278988713E+04  0.11278988713E+04  0.00000000000E+00 0.  1.
          6    1    1    2  501    0  0.10901654618E+03 -0.22083765570E+02 -0.85887314664E+03  0.88296057786E+03  0.17200000000E+03 0.  1.
         -6    1    1    2    0  502 -0.10901654618E+03  0.22083765570E+02 -0.21616563028E+03  0.29779838777E+03  0.17200000000E+03 0.  1.
</event>
<event>
 4    1  0.4538619E+000  0.1788103E+03  0.7818608E-02  0.1168959E+00
         21   -1    0    0  503  502  0.00000000000E+00  0.00000000000E+00  0.99439614846E+02  0.99439614846E+02  0.00000000000E+00 0. -1.
         21   -1    0    0  501  503 -0.00000000000E+00 -0.00000000000E+00 -0.32187966207E+03  0.32187966207E+03  0.00000000000E+00 0. -1.
          6    1    1    2  501    0  0.47747935016E+02  0.10453291983E+02 -0.11813146207E+03  0.21430860679E+03  0.17200000000E+03 0.  1.
         -6    1    1    2    0  502 -0.47747935016E+02 -0.10453291983E+02 -0.10430858516E+03  0.20701067013E+03  0.17200000000E+03 0.  1.
</event>
<event>
 4    1  0.4538619E+000  0.2192561E+03  0.7818608E-02  0.1134439E+00
         21   -1    0    0  501  502  0.00000000000E+00  0.00000000000E+00  0.33930475328E+03  0.33930475328E+03  0.00000000000E+00 0.  1.
         21   -1    0    0  502  503 -0.00000000000E+00 -0.00000000000E+00 -0.16220804429E+03  0.16220804429E+03  0.00000000000E+00 0. -1.
          6    1    1    2  501    0  0.33238585802E+02 -0.13185005152E+03  0.17774996863E+03  0.28225571919E+03  0.17200000000E+03 0.  1.
         -6    1    1    2    0  503 -0.33238585802E+02  0.13185005152E+03 -0.65325964309E+00  0.21925707838E+03  0.17200000000E+03 0. -1.
</event>
<event>
 4    1  0.4538619E+000  0.1749743E+03  0.7818608E-02  0.1172758E+00
         21   -1    0    0  503  502  0.00000000000E+00  0.00000000000E+00  0.51919066127E+03  0.51919066127E+03  0.00000000000E+00 0.  1.
         21   -1    0    0  501  503 -0.00000000000E+00 -0.00000000000E+00 -0.60394343330E+02  0.60394343330E+02  0.00000000000E+00 0.  1.
          6    1    1    2  501    0  0.14774231820E+02  0.28525939351E+02  0.18487439452E+03  0.25454773401E+03  0.17200000000E+03 0.  1.
         -6    1    1    2    0  502 -0.14774231820E+02 -0.28525939351E+02  0.27392192343E+03  0.32503727059E+03  0.17200000000E+03 0.  1.
</event>
<event>
 4    1  0.4538619E+000  0.1883395E+03  0.7818608E-02  0.1159968E+00
         21   -1    0    0  503  502  0.00000000000E+00  0.00000000000E+00  0.10319693879E+04  0.10319693879E+04  0.00000000000E+00 0. -1.
         21   -1    0    0  501  503 -0.00000000000E+00 -0.00000000000E+00 -0.35120148134E+02  0.35120148134E+02  0.00000000000E+00 0. -1.
          6    1    1    2  501    0  0.15080265450E+02 -0.75235423764E+02  0.57625055028E+03  0.60624787017E+03  0.17200000000E+03 0. -1.
         -6    1    1    2    0  502 -0.15080265450E+02  0.75235423764E+02  0.42059868950E+03  0.46084166587E+03  0.17200000000E+03 0. -1.
</event>
<event>
 4    1  0.4538619E+000  0.2528855E+03  0.7818608E-02  0.1111495E+00
         21   -1    0    0  503  502  0.00000000000E+00  0.00000000000E+00  0.49265341562E+02  0.49265341562E+02  0.00000000000E+00 0.  1.
         21   -1    0    0  501  503 -0.00000000000E+00 -0.00000000000E+00 -0.13013104548E+04  0.13013104548E+04  0.00000000000E+00 0.  1.
          6    1    1    2  501    0  0.16066282162E+03  0.92490809009E+02 -0.65959027606E+03  0.70640669892E+03  0.17200000000E+03 0.  1.
         -6    1    1    2    0  502 -0.16066282162E+03 -0.92490809009E+02 -0.59245483713E+03  0.64416909740E+03  0.17200000000E+03 0.  1.
</event>
<event>
 4    1  0.4538619E+000  0.1770720E+03  0.7818608E-02  0.1170667E+00
         21   -1    0    0  503  502  0.00000000000E+00  0.00000000000E+00  0.14620822376E+03  0.14620822376E+03  0.00000000000E+00 0.  1.
         21   -1    0    0  501  503 -0.00000000000E+00 -0.00000000000E+00 -0.26766658402E+03  0.26766658402E+03  0.00000000000E+00 0.  1.
          6    1    1    2  501    0 -0.18824704631E+02 -0.37631439491E+02 -0.15299938300E+03  0.23401561046E+03  0.17200000000E+03 0.  1.
         -6    1    1    2    0  502  0.18824704631E+02  0.37631439491E+02  0.31541022742E+02  0.17985919731E+03  0.17200000000E+03 0.  1.
</event>
<event>
 4    1  0.4538619E+000  0.1779037E+03  0.7818608E-02  0.1169847E+00
         21   -1    0    0  503  502  0.00000000000E+00  0.00000000000E+00  0.39458692538E+02  0.39458692538E+02  0.00000000000E+00 0.  1.
         21   -1    0    0  501  503 -0.00000000000E+00 -0.00000000000E+00 -0.84480787375E+03  0.84480787375E+03  0.00000000000E+00 0.  1.
          6    1    1    2  501    0  0.35388311738E+02  0.28519838444E+02 -0.30326196528E+03  0.35159285171E+03  0.17200000000E+03 0.  1.
         -6    1    1    2    0  502 -0.35388311738E+02 -0.28519838444E+02 -0.50208721594E+03  0.53267371457E+03  0.17200000000E+03 0.  1.
</event>
<event>
 4    1  0.4538619E+000  0.1770719E+03  0.7818608E-02  0.1170667E+00
         21   -1    0    0  501  502  0.00000000000E+00  0.00000000000E+00  0.26714481950E+03  0.26714481950E+03  0.00000000000E+00 0. -1.
         21   -1    0    0  502  503 -0.00000000000E+00 -0.00000000000E+00 -0.50590788938E+03  0.50590788938E+03  0.00000000000E+00 0.  1.
          6    1    1    2  501    0  0.20858682257E+02 -0.36542908449E+02  0.21935398526E+03  0.28190537355E+03  0.17200000000E+03 0. -1.
         -6    1    1    2    0  503 -0.20858682257E+02  0.36542908449E+02 -0.45811705515E+03  0.49114733533E+03  0.17200000000E+03 0.  1.
</event>
<event>
 4    1  0.4538619E+000  0.1837073E+03  0.7818608E-02  0.1164263E+00
         21   -1    0    0  503  502  0.00000000000E+00  0.00000000000E+00  0.80176239130E+02  0.80176239130E+02  0.00000000000E+00 0.  1.
         21   -1    0    0  501  503 -0.00000000000E+00 -0.00000000000E+00 -0.55962607156E+03  0.55962607156E+03  0.00000000000E+00 0.  1.
          6    1    1    2  501    0  0.16651809606E+02 -0.62346449624E+02 -0.39898364697E+03  0.43924516286E+03  0.17200000000E+03 0.  1.
         -6    1    1    2    0  502 -0.16651809606E+02  0.62346449624E+02 -0.80466185458E+02  0.20055714783E+03  0.17200000000E+03 0.  1.
</event>
<event>
 4    1  0.4538619E+000  0.2200692E+03  0.7818608E-02  0.1133831E+00
         21   -1    0    0  501  502  0.00000000000E+00  0.00000000000E+00  0.17088518446E+03  0.17088518446E+03  0.00000000000E+00 0. -1.
         21   -1    0    0  502  503 -0.00000000000E+00 -0.00000000000E+00 -0.28860299407E+03  0.28860299407E+03  0.00000000000E+00 0.  1.
          6    1    1    2  501    0 -0.10281661800E+03  0.90968193098E+02 -0.28039264502E+02  0.22184830278E+03  0.17200000000E+03 0. -1.
         -6    1    1    2    0  503  0.10281661800E+03 -0.90968193098E+02 -0.89678545113E+02  0.23763987575E+03  0.17200000000E+03 0.  1.
</event>
<event>
 4    1  0.4538619E+000  0.1928856E+03  0.7818608E-02  0.1155884E+00
         21   -1    0    0  501  502  0.00000000000E+00  0.00000000000E+00  0.32357932271E+03  0.32357932271E+03  0.00000000000E+00 0.  1.
         21   -1    0    0  502  503 -0.00000000000E+00 -0.00000000000E+00 -0.11499051615E+03  0.11499051615E+03  0.00000000000E+00 0.  1.
          6    1    1    2  501    0 -0.71289599659E+02 -0.50385096614E+02  0.10647765474E+03  0.22032329867E+03  0.17200000000E+03 0.  1.
         -6    1    1    2    0  503  0.71289599659E+02  0.50385096614E+02  0.10211115182E+03  0.21824654019E+03  0.17200000000E+03 0.  1.
</event>
<event>
 4    1  0.4538619E+000  0.2505012E+03  0.7818608E-02  0.1112988E+00
         21   -1    0    0  501  502  0.00000000000E+00  0.00000000000E+00  0.50723940821E+02  0.50723940821E+02  0.00000000000E+00 0.  1.
         21   -1    0    0  502  503 -0.00000000000E+00 -0.00000000000E+00 -0.25162755120E+04  0.25162755120E+04  0.00000000000E+00 0.  1.
          6    1    1    2  501    0  0.15244706500E+03  0.99633124357E+02 -0.31764994971E+03  0.40453968612E+03  0.17200000000E+03 0.  1.
         -6    1    1    2    0  503 -0.15244706500E+03 -0.99633124357E+02 -0.21479016215E+04  0.21624597667E+04  0.17200000000E+03 0.  1.
</event>
<event>
 4    1  0.4538619E+000  0.1889834E+03  0.7818608E-02  0.1159381E+00
         21   -1    0    0  503  502  0.00000000000E+00  0.00000000000E+00  0.72075369258E+03  0.72075369258E+03  0.00000000000E+00 0.  1.
         21   -1    0    0  501  503 -0.00000000000E+00 -0.00000000000E+00 -0.92835016643E+02  0.92835016643E+02  0.00000000000E+00 0.  1.
          6    1    1    2  501    0  0.18095180665E+02  0.76179365239E+02  0.36193931885E+02  0.19241811754E+03  0.17200000000E+03 0.  1.
         -6    1    1    2    0  502 -0.18095180665E+02 -0.76179365239E+02  0.59172474406E+03  0.62117059169E+03  0.17200000000E+03 0.  1.
</event>
<event>
 4    1  0.4538619E+000  0.1740352E+03  0.7818608E-02  0.1173704E+00
         21   -1    0    0  501  502  0.00000000000E+00  0.00000000000E+00  0.10448519968E+04  0.10448519968E+04  0.00000000000E+00 0. -1.
         21   -1    0    0  502  503 -0.00000000000E+00 -0.00000000000E+00 -0.38415419530E+02  0.38415419530E+02  0.00000000000E+00 0. -1.
          6    1    1    2  501    0  0.21135595104E+02  0.16048313948E+02  0.77153472760E+03  0.79091977953E+03  0.17200000000E+03 0. -1.
         -6    1    1    2    0  503 -0.21135595104E+02 -0.16048313948E+02  0.23490184965E+03  0.29234763678E+03  0.17200000000E+03 0. -1.
</event>
<event>
 4    1  0.4538619E+000  0.2349386E+03  0.7818608E-02  0.1123211E+00
         21   -1    0    0  503  502  0.00000000000E+00  0.00000000000E+00  0.21481964533E+04  0.21481964533E+04  0.00000000000E+00 0. -1.
         21   -1    0    0  501  503 -0.00000000000E+00 -0.00000000000E+00 -0.34678416945E+02  0.34678416945E+02  0.00000000000E+00 0.  1.
          6    1    1    2  501    0 -0.15585598096E+03  0.36346423790E+02  0.50122612495E+03  0.55355557775E+03  0.17200000000E+03 0.  1.
         -6    1    1    2    0  502  0.15585598096E+03 -0.36346423790E+02  0.16122919114E+04  0.16293192924E+04  0.17200000000E+03 0. -1.
</event>
<event>
 4    1  0.4538619E+000  0.1985744E+03  0.7818608E-02  0.1150947E+00
         21   -1    0    0  501  502  0.00000000000E+00  0.00000000000E+00  0.10472926507E+04  0.10472926507E+04  0.00000000000E+00 0. -1.
         21   -1    0    0  502  503 -0.00000000000E+00 -0.00000000000E+00 -0.19439617092E+03  0.19439617092E+03  0.00000000000E+00 0.  1.
          6    1    1    2  501    0  0.97804999615E+02  0.16791711995E+02  0.98393658263E+03  0.10037743662E+04  0.17200000000E+03 0. -1.
         -6    1    1    2    0  503 -0.97804999615E+02 -0.16791711995E+02 -0.13104010287E+03  0.23791445543E+03  0.17200000000E+03 0.  1.
</event>
<event>
 4    1  0.4538619E+000  0.2292383E+03  0.7818608E-02  0.1127177E+00
         21   -1    0    0  503  502  0.00000000000E+00  0.00000000000E+00  0.19609618232E+03  0.19609618232E+03  0.00000000000E+00 0.  1.
         21   -1    0    0  501  503 -0.00000000000E+00 -0.00000000000E+00 -0.26876457812E+03  0.26876457812E+03  0.00000000000E+00 0.  1.
          6    1    1    2  501    0  0.13937325133E+03 -0.59508719515E+02 -0.48878609637E+02  0.23439135941E+03  0.17200000000E+03 0.  1.
         -6    1    1    2    0  502 -0.13937325133E+03  0.59508719515E+02 -0.23789786160E+02  0.23046940103E+03  0.17200000000E+03 0.  1.
</event>
<event>
 4    1  0.4538619E+000  0.1800413E+03  0.7818608E-02  0.1167763E+00
         21   -1    0    0  503  502  0.00000000000E+00  0.00000000000E+00  0.17242061136E+04  0.17242061136E+04  0.00000000000E+00 0.  1.
         21   -1    0    0  501  503 -0.00000000000E+00 -0.00000000000E+00 -0.35519840747E+02  0.35519840747E+02  0.00000000000E+00 0. -1.
          6    1    1    2  501    0 -0.37310849722E+02 -0.37931282920E+02  0.24067665482E+03  0.30056635524E+03  0.17200000000E+03 0. -1.
         -6    1    1    2    0  502  0.37310849722E+02  0.37931282920E+02  0.14480096181E+04  0.14591595991E+04  0.17200000000E+03 0.  1.
</event>
<event>
 4    1  0.4538619E+000  0.1978835E+03  0.7818608E-02  0.1151537E+00
         21   -1    0    0  503  502  0.00000000000E+00  0.00000000000E+00  0.51747045951E+03  0.51747045951E+03  0.00000000000E+00 0.  1.
         21   -1    0    0  501  503 -0.00000000000E+00 -0.00000000000E+00 -0.82518019744E+02  0.82518019744E+02  0.00000000000E+00 0.  1.
          6    1    1    2  501    0  0.35422734570E+02  0.91209072563E+02  0.13106555011E+03  0.23735215075E+03  0.17200000000E+03 0.  1.
         -6    1    1    2    0  502 -0.35422734570E+02 -0.91209072563E+02  0.30388688966E+03  0.36263632850E+03  0.17200000000E+03 0.  1.
</event>
<event>
 4    1  0.4538619E+000  0.2188611E+03  0.7818608E-02  0.1134735E+00
         21   -1    0    0  501  502  0.00000000000E+00  0.00000000000E+00  0.10491321656E+03  0.10491321656E+03  0.00000000000E+00 0. -1.
         21   -1    0    0  502  503 -0.00000000000E+00 -0.00000000000E+00 -0.45703265099E+03  0.45703265099E+03  0.00000000000E+00 0. -1.
          6    1    1    2  501    0 -0.13406209869E+03  0.18534249214E+02 -0.16711436548E+03  0.27536771025E+03  0.17200000000E+03 0. -1.
         -6    1    1    2    0  503  0.13406209869E+03 -0.18534249214E+02 -0.18500506895E+03  0.28657815729E+03  0.17200000000E+03 0. -1.
</event>
<event>
 4    1  0.4538619E+000  0.1828402E+03  0.7818608E-02  0.1165082E+00
         21   -1    0    0  503  502  0.00000000000E+00  0.00000000000E+00  0.10342565243E+03  0.10342565243E+03  0.00000000000E+00 0. -1.
         21   -1    0    0  501  503 -0.00000000000E+00 -0.00000000000E+00 -0.53451477359E+03  0.53451477359E+03  0.00000000000E+00 0.  1.
          6    1    1    2  501    0 -0.59196171267E+02 -0.18502818446E+02 -0.41608488597E+03  0.45448561399E+03  0.17200000000E+03 0.  1.
         -6    1    1    2    0  502  0.59196171267E+02  0.18502818446E+02 -0.15004235185E+02  0.18345481203E+03  0.17200000000E+03 0. -1.
</event>
<event>
 4    1  0.4538619E+000  0.1960976E+03  0.7818608E-02  0.1153074E+00
         21   -1    0    0  501  502  0.00000000000E+00  0.00000000000E+00  0.25747296828E+03  0.25747296828E+03  0.00000000000E+00 0.  1.
         21   -1    0    0  502  503 -0.00000000000E+00 -0.00000000000E+00 -0.16315603759E+03  0.16315603759E+03  0.00000000000E+00 0.  1.
          6    1    1    2  501    0  0.93813901453E+02  0.83205825533E+01  0.10833147847E+03  0.22403122423E+03  0.17200000000E+03 0. -1.
         -6    1    1    2    0  503 -0.93813901453E+02 -0.83205825533E+01 -0.14014547786E+02  0.19659778165E+03  0.17200000000E+03 0. -1.
</event>
<event>
 4    1  0.4538619E+000  0.1772374E+03  0.7818608E-02  0.1170504E+00
         21   -1    0    0  503  502  0.00000000000E+00  0.00000000000E+00  0.37098102764E+03  0.37098102764E+03  0.00000000000E+00 0. -1.
         21   -1    0    0  501  503 -0.00000000000E+00 -0.00000000000E+00 -0.99454439908E+02  0.99454439908E+02  0.00000000000E+00 0. -1.
          6    1    1    2  501    0 -0.40741543032E+02 -0.13008844412E+02  0.45090775112E+02  0.18288324516E+03  0.17200000000E+03 0.  1.
         -6    1    1    2    0  502  0.40741543032E+02  0.13008844412E+02  0.22643581262E+03  0.28755222239E+03  0.17200000000E+03 0.  1.
</event>
<event>
 4    1  0.4538619E+000  0.1832713E+03  0.7818608E-02  0.1164674E+00
         21   -1    0    0  503  502  0.00000000000E+00  0.00000000000E+00  0.59624653963E+03  0.59624653963E+03  0.00000000000E+00 0.  1.
         21   -1    0    0  501  503 -0.00000000000E+00 -0.00000000000E+00 -0.63298825740E+02  0.63298825740E+02  0.00000000000E+00 0. -1.
          6    1    1    2  501    0  0.55358785742E+02  0.30655882108E+02  0.15707771507E+03  0.24137478501E+03  0.17200000000E+03 0.  1.
         -6    1    1    2    0  502 -0.55358785742E+02 -0.30655882108E+02  0.37586999882E+03  0.41817058036E+03  0.17200000000E+03 0.  1.
</event>
<event>
 4    1  0.4538619E+000  0.1760956E+03  0.7818608E-02  0.1171636E+00
         21   -1    0    0  503  502  0.00000000000E+00  0.00000000000E+00  0.33794219857E+03  0.33794219857E+03  0.00000000000E+00 0.  1.
         21   -1    0    0  501  503 -0.00000000000E+00 -0.00000000000E+00 -0.94319791814E+02  0.94319791814E+02  0.00000000000E+00 0.  1.
          6    1    1    2  501    0 -0.28161912223E+02  0.25150563405E+02  0.86207031434E+02  0.19606452103E+03  0.17200000000E+03 0.  1.
         -6    1    1    2    0  502  0.28161912223E+02 -0.25150563405E+02  0.15741537532E+03  0.23619746935E+03  0.17200000000E+03 0.  1.
</event>
<event>
 4    1  0.4538619E+000  0.2069871E+03  0.7818608E-02  0.1143974E+00
         21   -1    0    0  503  502  0.00000000000E+00  0.00000000000E+00  0.26896768000E+03  0.26896768000E+03  0.00000000000E+00 0. -1.
         21   -1    0    0  501  503 -0.00000000000E+00 -0.00000000000E+00 -0.15959651487E+03  0.15959651487E+03  0.00000000000E+00 0. -1.
          6    1    1    2  501    0 -0.42821668950E+02 -0.10689225166E+03  0.45282718929E+02  0.21188245191E+03  0.17200000000E+03 0. -1.
         -6    1    1    2    0  502  0.42821668950E+02  0.10689225166E+03  0.64088446196E+02  0.21668174296E+03  0.17200000000E+03 0. -1.
</event>
<event>
 4    1  0.4538619E+000  0.2930271E+03  0.7818608E-02  0.1088779E+00
         21   -1    0    0  503  502  0.00000000000E+00  0.00000000000E+00  0.45709389437E+03  0.45709389437E+03  0.00000000000E+00 0. -1.
         21   -1    0    0  501  503 -0.00000000000E+00 -0.00000000000E+00 -0.19421667486E+03  0.19421667486E+03  0.00000000000E+00 0.  1.
          6    1    1    2  501    0 -0.12581315599E+03 -0.20112661379E+03  0.19040273394E+03  0.34945395418E+03  0.17200000000E+03 0. -1.
         -6    1    1    2    0  502  0.12581315599E+03  0.20112661379E+03  0.72474485565E+02  0.30185661506E+03  0.17200000000E+03 0. -1.
</event>
<event>
 4    1  0.4538619E+000  0.1730280E+03  0.7818608E-02  0.1174726E+00
         21   -1    0    0  501  502  0.00000000000E+00  0.00000000000E+00  0.26428855032E+03  0.26428855032E+03  0.00000000000E+00 0. -1.
         21   -1    0    0  502  503 -0.00000000000E+00 -0.00000000000E+00 -0.19432375509E+03  0.19432375509E+03  0.00000000000E+00 0. -1.
          6    1    1    2  501    0  0.15042153512E+02  0.11332940096E+02  0.18306757027E+03  0.25189767208E+03  0.17200000000E+03 0. -1.
         -6    1    1    2    0  503 -0.15042153512E+02 -0.11332940096E+02 -0.11310277504E+03  0.20671463334E+03  0.17200000000E+03 0. -1.
</event>
<event>
 4    1  0.4538619E+000  0.1849113E+03  0.7818608E-02  0.1163133E+00
         21   -1    0    0  503  502  0.00000000000E+00  0.00000000000E+00  0.47973436472E+02  0.47973436472E+02  0.00000000000E+00 0. -1.
         21   -1    0    0  501  503 -0.00000000000E+00 -0.00000000000E+00 -0.89484218380E+03  0.89484218380E+03  0.00000000000E+00 0. -1.
          6    1    1    2  501    0  0.62755052510E+02  0.25884291052E+02 -0.63609687536E+03  0.66242843235E+03  0.17200000000E+03 0.  1.
         -6    1    1    2    0  502 -0.62755052510E+02 -0.25884291052E+02 -0.21077187196E+03  0.28038718792E+03  0.17200000000E+03 0.  1.
</event>
<event>
 4    1  0.4538619E+000  0.1731017E+03  0.7818608E-02  0.1174651E+00
         21   -1    0    0  501  502  0.00000000000E+00  0.00000000000E+00  0.12366479371E+03  0.12366479371E+03  0.00000000000E+00 0. -1.
         21   -1    0    0  502  503 -0.00000000000E+00 -0.00000000000E+00 -0.43647047149E+03  0.43647047149E+03  0.00000000000E+00 0. -1.
          6    1    1    2  501    0  0.12174271165E+02 -0.15231113968E+02  0.30396393717E+02  0.17575022180E+03  0.17200000000E+03 0. -1.
         -6    1    1    2    0  503 -0.12174271165E+02  0.15231113968E+02 -0.34320207150E+03  0.38438504340E+03  0.17200000000E+03 0. -1.
</event>
<event>
 4    1  0.4538619E+000  0.2102361E+03  0.7818608E-02  0.1141379E+00
         21   -1    0    0  501  502  0.00000000000E+00  0.00000000000E+00  0.43421020310E+03  0.43421020310E+03  0.00000000000E+00 0. -1.
         21   -1    0    0  502  503 -0.00000000000E+00 -0.00000000000E+00 -0.18057547799E+03  0.18057547799E+03  0.00000000000E+00 0. -1.
          6    1    1    2  501    0 -0.58271090330E+02 -0.10592316627E+03  0.32985718480E+03  0.39115853497E+03  0.17200000000E+03 0. -1.
         -6    1    1    2    0  503  0.58271090330E+02  0.10592316627E+03 -0.76222459682E+02  0.22362714612E+03  0.17200000000E+03 0. -1.
</event>
<event>
 4    1  0.4538619E+000  0.2470819E+03  0.7818608E-02  0.1115163E+00
         21   -1    0    0  503  502  0.00000000000E+00  0.00000000000E+00  0.61498595035E+02  0.61498595035E+02  0.00000000000E+00 0.  1.
         21   -1    0    0  501  503 -0.00000000000E+00 -0.00000000000E+00 -0.10728086350E+04  0.10728086350E+04  0.00000000000E+00 0. -1.
          6    1    1    2  501    0  0.74381152712E+02  0.16103703300E+03 -0.66063902650E+03  0.70533212404E+03  0.17200000000E+03 0. -1.
         -6    1    1    2    0  502 -0.74381152712E+02 -0.16103703300E+03 -0.35067101349E+03  0.42897510602E+03  0.17200000000E+03 0.  1.
</event>
<event>
 4    1  0.4538619E+000  0.2214190E+03  0.7818608E-02  0.1132830E+00
         21   -1    0    0  503  502  0.00000000000E+00  0.00000000000E+00  0.64095502344E+02  0.64095502344E+02  0.00000000000E+00 0. -1.
         21   -1    0    0  501  503 -0.00000000000E+00 -0.00000000000E+00 -0.87517447929E+03  0.87517447929E+03  0.00000000000E+00 0. -1.
          6    1    1    2  501    0 -0.11372922086E+03 -0.80672474541E+02 -0.57224839465E+03  0.61359156530E+03  0.17200000000E+03 0. -1.
         -6    1    1    2    0  502  0.11372922086E+03  0.80672474541E+02 -0.23883058230E+03  0.32567841634E+03  0.17200000000E+03 0. -1.
</event>
<event>
 4    1  0.4538619E+000  0.1906300E+03  0.7818608E-02  0.1157894E+00
         21   -1    0    0  503  502  0.00000000000E+00  0.00000000000E+00  0.12004768911E+04  0.12004768911E+04  0.00000000000E+00 0. -1.
         21   -1    0    0  501  503 -0.00000000000E+00 -0.00000000000E+00 -0.51303639310E+02  0.51303639310E+02  0.00000000000E+00 0. -1.
          6    1    1    2  501    0 -0.54774673840E+02 -0.61282263401E+02  0.17384011269E+03  0.25799256866E+03  0.17200000000E+03 0. -1.
         -6    1    1    2    0  502  0.54774673840E+02  0.61282263401E+02  0.97533313914E+03  0.99378796180E+03  0.17200000000E+03 0. -1.
</event>
<event>
 4    1  0.4538619E+000  0.2819694E+03  0.7818608E-02  0.1094618E+00
         21   -1    0    0  501  502  0.00000000000E+00  0.00000000000E+00  0.30279245058E+03  0.30279245058E+03  0.00000000000E+00 0. -1.
         21   -1    0    0  502  503 -0.00000000000E+00 -0.00000000000E+00 -0.26282339843E+03  0.26282339843E+03  0.00000000000E+00 0.  1.
          6    1    1    2  501    0  0.22225184435E+03 -0.22953311959E+02  0.28620290623E+02  0.28341816788E+03  0.17200000000E+03 0.  1.
         -6    1    1    2    0  503 -0.22225184435E+03  0.22953311959E+02  0.11348761527E+02  0.28219768113E+03  0.17200000000E+03 0. -1.
</event>
<event>
 4    1  0.4538619E+000  0.2262771E+03  0.7818608E-02  0.1129288E+00
         21   -1    0    0  501  502  0.00000000000E+00  0.00000000000E+00  0.23806078512E+03  0.23806078512E+03  0.00000000000E+00 0. -1.
         21   -1    0    0  502  503 -0.00000000000E+00 -0.00000000000E+00 -0.32261401970E+03  0.32261401970E+03  0.00000000000E+00 0. -1.
          6    1    1    2  501    0 -0.88025347302E+02 -0.11776623390E+03  0.11957567875E+03  0.25592907331E+03  0.17200000000E+03 0. -1.
         -6    1    1    2    0  503  0.88025347302E+02  0.11776623390E+03 -0.20412891334E+03  0.30474573151E+03  0.17200000000E+03 0. -1.
</event>
<event>
 4    1  0.4538619E+000  0.1745019E+03  0.7818608E-02  0.1173233E+00
         21   -1    0    0  501  502  0.00000000000E+00  0.00000000000E+00  0.90827212675E+02  0.90827212675E+02  0.00000000000E+00 0. -1.
         21   -1    0    0  502  503 -0.00000000000E+00 -0.00000000000E+00 -0.47247435593E+03  0.47247435593E+03  0.00000000000E+00 0. -1.
          6    1    1    2  501    0  0.15110740448E+02 -0.25269841158E+02 -0.39042123472E+02  0.17881606962E+03  0.17200000000E+03 0. -1.
         -6    1    1    2    0  503 -0.15110740448E+02  0.25269841158E+02 -0.34260501978E+03  0.38448549898E+03  0.17200000000E+03 0. -1.
</event>
<event>
 4    1  0.4538619E+000  0.1812902E+03  0.7818608E-02  0.1166560E+00
         21   -1    0    0  501  502  0.00000000000E+00  0.00000000000E+00  0.63870761735E+03  0.63870761735E+03  0.00000000000E+00 0.  1.
         21   -1    0    0  502  503 -0.00000000000E+00 -0.00000000000E+00 -0.52133768865E+02  0.52133768865E+02  0.00000000000E+00 0.  1.
          6    1    1    2  501    0  0.11234299012E+02  0.56177548494E+02  0.33263598145E+03  0.37883086276E+03  0.17200000000E+03 0. -1.
         -6    1    1    2    0  503 -0.11234299012E+02 -0.56177548494E+02  0.25393786704E+03  0.31201052345E+03  0.17200000000E+03 0. -1.
</event>
<event>
 4    1  0.4538619E+000  0.2258010E+03  0.7818608E-02  0.1129631E+00
         21   -1    0    0  501  502  0.00000000000E+00  0.00000000000E+00  0.75671673195E+03  0.75671673195E+03  0.00000000000E+00 0.  1.
         21   -1    0    0  502  503 -0.00000000000E+00 -0.00000000000E+00 -0.92007251127E+02  0.92007251127E+02  0.00000000000E+00 0.  1.
          6    1    1    2  501    0 -0.21125870920E+02  0.14476119819E+03  0.55191336800E+03  0.59631742612E+03  0.17200000000E+03 0.  1.
         -6    1    1    2    0  503  0.21125870920E+02 -0.14476119819E+03  0.11279611282E+03  0.25240655695E+03  0.17200000000E+03 0.  1.
</event>
<event>
 4    1  0.4538619E+000  0.2160278E+03  0.7818608E-02  0.1136880E+00
         21   -1    0    0  501  502  0.00000000000E+00  0.00000000000E+00  0.69590784260E+02  0.69590784260E+02  0.00000000000E+00 0. -1.
         21   -1    0    0  502  503 -0.00000000000E+00 -0.00000000000E+00 -0.14444157893E+04  0.14444157893E+04  0.00000000000E+00 0. -1.
          6    1    1    2  501    0  0.11024732184E+03 -0.70210540636E+02 -0.13333721124E+03  0.25386375064E+03  0.17200000000E+03 0. -1.
         -6    1    1    2    0  503 -0.11024732184E+03  0.70210540636E+02 -0.12414877938E+04  0.12601428229E+04  0.17200000000E+03 0. -1.
</event>
<event>
 4    1  0.4538619E+000  0.1741000E+03  0.7818608E-02  0.1173638E+00
         21   -1    0    0  503  502  0.00000000000E+00  0.00000000000E+00  0.79687441453E+02  0.79687441453E+02  0.00000000000E+00 0. -1.
         21   -1    0    0  501  503 -0.00000000000E+00 -0.00000000000E+00 -0.61226723206E+03  0.61226723206E+03  0.00000000000E+00 0. -1.
          6    1    1    2  501    0  0.18386564906E+02  0.19716719427E+02 -0.47921345516E+03  0.50985914761E+03  0.17200000000E+03 0. -1.
         -6    1    1    2    0  502 -0.18386564906E+02 -0.19716719427E+02 -0.53366335441E+02  0.18209552590E+03  0.17200000000E+03 0. -1.
</event>
<event>
 4    1  0.4538619E+000  0.2231435E+03  0.7818608E-02  0.1131561E+00
         21   -1    0    0  503  502  0.00000000000E+00  0.00000000000E+00  0.58454493639E+02  0.58454493639E+02  0.00000000000E+00 0.  1.
         21   -1    0    0  501  503 -0.00000000000E+00 -0.00000000000E+00 -0.16114126562E+04  0.16114126562E+04  0.00000000000E+00 0.  1.
          6    1    1    2  501    0 -0.46553374041E+02  0.13431973633E+03 -0.13497203452E+04  0.13680416728E+04  0.17200000000E+03 0.  1.
         -6    1    1    2    0  502  0.46553374041E+02 -0.13431973633E+03 -0.20323781739E+03  0.30182547709E+03  0.17200000000E+03 0.  1.
</event>
<event>
 4    1  0.4538619E+000  0.1801557E+03  0.7818608E-02  0.1167652E+00
         21   -1    0    0  503  502  0.00000000000E+00  0.00000000000E+00  0.65491043741E+02  0.65491043741E+02  0.00000000000E+00 0. -1.
         21   -1    0    0  501  503 -0.00000000000E+00 -0.00000000000E+00 -0.58433247649E+03  0.58433247649E+03  0.00000000000E+00 0. -1.
          6    1    1    2  501    0  0.91314683165E+01  0.52808216705E+02 -0.38604708838E+03  0.42601460763E+03  0.17200000000E+03 0. -1.
         -6    1    1    2    0  502 -0.91314683165E+01 -0.52808216705E+02 -0.13279434437E+03  0.22380891261E+03  0.17200000000E+03 0. -1.
</event>
<event>
 4    1  0.4538619E+000  0.2240058E+03  0.7818608E-02  0.1130931E+00
         21   -1    0    0  501  502  0.00000000000E+00  0.00000000000E+00  0.36018771954E+03  0.36018771954E+03  0.00000000000E+00 0. -1.
         21   -1    0    0  502  503 -0.00000000000E+00 -0.00000000000E+00 -0.14696329304E+03  0.14696329304E+03  0.00000000000E+00 0. -1.
          6    1    1    2  501    0  0.26797535659E+02  0.14098403514E+03  0.16446971590E+03  0.27790086997E+03  0.17200000000E+03 0. -1.
         -6    1    1    2    0  503 -0.26797535659E+02 -0.14098403514E+03  0.48754710597E+02  0.22925014261E+03  0.17200000000E+03 0. -1.
</event>
<event>
 4    1  0.4538619E+000  0.2589656E+03  0.7818608E-02  0.1107766E+00
         21   -1    0    0  503  502  0.00000000000E+00  0.00000000000E+00  0.13520135547E+03  0.13520135547E+03  0.00000000000E+00 0.  1.
         21   -1    0    0  501  503 -0.00000000000E+00 -0.00000000000E+00 -0.62190833757E+03  0.62190833757E+03  0.00000000000E+00 0.  1.
          6    1    1    2  501    0 -0.19358659390E+03 -0.18533862361E+01 -0.73039487671E+02  0.26906871081E+03  0.17200000000E+03 0.  1.
         -6    1    1    2    0  502  0.19358659390E+03  0.18533862361E+01 -0.41366749443E+03  0.48804098222E+03  0.17200000000E+03 0.  1.
</event>
<event>
 4    1  0.4538619E+000  0.1721515E+03  0.7818608E-02  0.1175623E+00
         21   -1    0    0  503  502  0.00000000000E+00  0.00000000000E+00  0.82937621936E+02  0.82937621936E+02  0.00000000000E+00 0.  1.
         21   -1    0    0  501  503 -0.00000000000E+00 -0.00000000000E+00 -0.78638775827E+03  0.78638775827E+03  0.00000000000E+00 0.  1.
          6    1    1    2  501    0  0.37414747515E+01 -0.61744591034E+01 -0.67278915979E+03  0.69446481272E+03  0.17200000000E+03 0.  1.
         -6    1    1    2    0  502 -0.37414747515E+01  0.61744591034E+01 -0.30660976545E+02  0.17486056749E+03  0.17200000000E+03 0.  1.
</event>
<event>
 4    1  0.4538619E+000  0.1728682E+03  0.7818608E-02  0.1174889E+00
         21   -1    0    0  501  502  0.00000000000E+00  0.00000000000E+00  0.10085276909E+03  0.10085276909E+03  0.00000000000E+00 0.  1.
         21   -1    0    0  502  503 -0.00000000000E+00 -0.00000000000E+00 -0.81428278734E+03  0.81428278734E+03  0.00000000000E+00 0.  1.
          6    1    1    2  501    0 -0.13260380098E+02  0.11116912151E+02  0.82257422171E+01  0.17306382132E+03  0.17200000000E+03 0.  1.
         -6    1    1    2    0  503  0.13260380098E+02 -0.11116912151E+02 -0.72165576047E+03  0.74207173510E+03  0.17200000000E+03 0.  1.
</event>
<event>
 4    1  0.4538619E+000  0.2379983E+03  0.7818608E-02  0.1121134E+00
         21   -1    0    0  501  502  0.00000000000E+00  0.00000000000E+00  0.69889365235E+03  0.69889365235E+03  0.00000000000E+00 0.  1.
         21   -1    0    0  502  503 -0.00000000000E+00 -0.00000000000E+00 -0.89126921642E+02  0.89126921642E+02  0.00000000000E+00 0.  1.
          6    1    1    2  501    0  0.54511539346E+02  0.15520209441E+03  0.42351706080E+03  0.48580850015E+03  0.17200000000E+03 0.  1.
         -6    1    1    2    0  503 -0.54511539346E+02 -0.15520209441E+03  0.18624966991E+03  0.30221207384E+03  0.17200000000E+03 0.  1.
</event>
<event>
 4    1  0.4538619E+000  0.1797425E+03  0.7818608E-02  0.1168052E+00
         21   -1    0    0  501  502  0.00000000000E+00  0.00000000000E+00  0.27566667337E+02  0.27566667337E+02  0.00000000000E+00 0.  1.
         21   -1    0    0  502  503 -0.00000000000E+00 -0.00000000000E+00 -0.13550075037E+04  0.13550075037E+04  0.00000000000E+00 0.  1.
          6    1    1    2  501    0  0.30908671185E+01 -0.52094314383E+02 -0.40964954265E+03  0.44734787230E+03  0.17200000000E+03 0.  1.
         -6    1    1    2    0  503 -0.30908671185E+01  0.52094314383E+02 -0.91779129370E+03  0.93522629874E+03  0.17200000000E+03 0.  1.
</event>
<event>
 4    1  0.4538619E+000  0.2612088E+03  0.7818608E-02  0.1106419E+00
         21   -1    0    0  501  502  0.00000000000E+00  0.00000000000E+00  0.58509178748E+03  0.58509178748E+03  0.00000000000E+00 0.  1.
         21   -1    0    0  502  503 -0.00000000000E+00 -0.00000000000E+00 -0.16422577337E+03  0.16422577337E+03  0.00000000000E+00 0.  1.
          6    1    1    2  501    0 -0.19638179944E+03  0.89554934933E+01  0.41216348332E+03  0.48796388083E+03  0.17200000000E+03 0.  1.
         -6    1    1    2    0  503  0.19638179944E+03 -0.89554934933E+01  0.87025307868E+01  0.26135368002E+03  0.17200000000E+03 0.  1.
</event>
<event>
 4    1  0.4538619E+000  0.1875909E+03  0.7818608E-02  0.1160652E+00
         21   -1    0    0  503  502  0.00000000000E+00  0.00000000000E+00  0.35657033092E+03  0.35657033092E+03  0.00000000000E+00 0. -1.
         21   -1    0    0  501  503 -0.00000000000E+00 -0.00000000000E+00 -0.11102207614E+03  0.11102207614E+03  0.00000000000E+00 0. -1.
          6    1    1    2  501    0 -0.64615973525E+02 -0.37829964130E+02  0.44857361716E+02  0.19287953007E+03  0.17200000000E+03 0.  1.
         -6    1    1    2    0  502  0.64615973525E+02  0.37829964130E+02  0.20069089307E+03  0.27471287699E+03  0.17200000000E+03 0.  1.
</event>
<event>
 4    1  0.4538619E+000  0.1735362E+03  0.7818608E-02  0.1174209E+00
         21   -1    0    0  503  502  0.00000000000E+00  0.00000000000E+00  0.78881244204E+02  0.78881244204E+02  0.00000000000E+00 0. -1.
         21   -1    0    0  501  503 -0.00000000000E+00 -0.00000000000E+00 -0.38240244146E+03  0.38240244146E+03  0.00000000000E+00 0. -1.
          6    1    1    2  501    0  0.21650979812E+02  0.78779515519E+01 -0.14241241405E+03  0.22449080766E+03  0.17200000000E+03 0. -1.
         -6    1    1    2    0  502 -0.21650979812E+02 -0.78779515519E+01 -0.16110878321E+03  0.23679287800E+03  0.17200000000E+03 0. -1.
</event>
<event>
 4    1  0.4538619E+000  0.1780972E+03  0.7818608E-02  0.1169657E+00
         21   -1    0    0  503  502  0.00000000000E+00  0.00000000000E+00  0.27443631170E+03  0.27443631170E+03  0.00000000000E+00 0.  1.
         21   -1    0    0  501  503 -0.00000000000E+00 -0.00000000000E+00 -0.11577617073E+03  0.11577617073E+03  0.00000000000E+00 0.  1.
          6    1    1    2  501    0  0.29983318695E+02  0.35151132535E+02  0.71243348593E+02  0.19181818537E+03  0.17200000000E+03 0.  1.
         -6    1    1    2    0  502 -0.29983318695E+02 -0.35151132535E+02  0.87416792379E+02  0.19839429707E+03  0.17200000000E+03 0.  1.
</event>
<event>
 4    1  0.4538619E+000  0.1850103E+03  0.7818608E-02  0.1163040E+00
         21   -1    0    0  503  502  0.00000000000E+00  0.00000000000E+00  0.64173580058E+02  0.64173580058E+02  0.00000000000E+00 0.  1.
         21   -1    0    0  501  503 -0.00000000000E+00 -0.00000000000E+00 -0.13054050044E+04  0.13054050044E+04  0.00000000000E+00 0.  1.
          6    1    1    2  501    0  0.45531159370E+02  0.50712200810E+02 -0.11472394163E+04  0.11620615698E+04  0.17200000000E+03 0.  1.
         -6    1    1    2    0  502 -0.45531159370E+02 -0.50712200810E+02 -0.93992008058E+02  0.20751701464E+03  0.17200000000E+03 0.  1.
</event>
<event>
 4    1  0.4538619E+000  0.1738174E+03  0.7818608E-02  0.1173924E+00
         21   -1    0    0  501  502  0.00000000000E+00  0.00000000000E+00  0.20602501379E+03  0.20602501379E+03  0.00000000000E+00 0.  1.
         21   -1    0    0  502  503 -0.00000000000E+00 -0.00000000000E+00 -0.23867308718E+03  0.23867308718E+03  0.00000000000E+00 0.  1.
          6    1    1    2  501    0  0.82389772331E+00 -0.25055813179E+02  0.12174443016E+03  0.21221257940E+03  0.17200000000E+03 0.  1.
         -6    1    1    2    0  503 -0.82389772331E+00  0.25055813179E+02 -0.15439250355E+03  0.23248552156E+03  0.17200000000E+03 0.  1.
</event>
<event>
 4    1  0.4538619E+000  0.1793227E+03  0.7818608E-02  0.1168460E+00
         21   -1    0    0  501  502  0.00000000000E+00  0.00000000000E+00  0.41007695133E+03  0.41007695133E+03  0.00000000000E+00 0.  1.
         21   -1    0    0  502  503 -0.00000000000E+00 -0.00000000000E+00 -0.83955404273E+02  0.83955404273E+02  0.00000000000E+00 0.  1.
          6    1    1    2  501    0  0.30585901757E+01  0.50628636447E+02  0.22651064215E+03  0.28890082175E+03  0.17200000000E+03 0.  1.
         -6    1    1    2    0  503 -0.30585901757E+01 -0.50628636447E+02  0.99610904903E+02  0.20513153385E+03  0.17200000000E+03 0.  1.
</event>
<event>
 4    1  0.4538619E+000  0.1950094E+03  0.7818608E-02  0.1154019E+00
         21   -1    0    0  503  502  0.00000000000E+00  0.00000000000E+00  0.28805687622E+02  0.28805687622E+02  0.00000000000E+00 0. -1.
         21   -1    0    0  501  503 -0.00000000000E+00 -0.00000000000E+00 -0.14910054403E+04  0.14910054403E+04  0.00000000000E+00 0. -1.
          6    1    1    2  501    0 -0.89435398202E+02  0.21117831708E+02 -0.98831590243E+03  0.10073713200E+04  0.17200000000E+03 0. -1.
         -6    1    1    2    0  502  0.89435398202E+02 -0.21117831708E+02 -0.47388385027E+03  0.51243980799E+03  0.17200000000E+03 0. -1.
</event>
<event>
 4    1  0.4538619E+000  0.2172235E+03  0.7818608E-02  0.1135970E+00
         21   -1    0    0  501  502  0.00000000000E+00  0.00000000000E+00  0.17670394098E+04  0.17670394098E+04  0.00000000000E+00 0. -1.
         21   -1    0    0  502  503 -0.00000000000E+00 -0.00000000000E+00 -0.29519777083E+02  0.29519777083E+02  0.00000000000E+00 0.  1.
          6    1    1    2  501    0 -0.88978993045E+02  0.98411261712E+02  0.11462176672E+04  0.11666194659E+04  0.17200000000E+03 0. -1.
         -6    1    1    2    0  503  0.88978993045E+02 -0.98411261712E+02  0.59130196547E+03  0.62993972093E+03  0.17200000000E+03 0.  1.
</event>
<event>
 4    1  0.4538619E+000  0.1955343E+03  0.7818608E-02  0.1153562E+00
         21   -1    0    0  501  502  0.00000000000E+00  0.00000000000E+00  0.32189847892E+03  0.32189847892E+03  0.00000000000E+00 0.  1.
         21   -1    0    0  502  503 -0.00000000000E+00 -0.00000000000E+00 -0.17439386985E+03  0.17439386985E+03  0.00000000000E+00 0.  1.
          6    1    1    2  501    0 -0.85155737462E+02 -0.37391857817E+02  0.21388876062E+03  0.28979657102E+03  0.17200000000E+03 0.  1.
         -6    1    1    2    0  503  0.85155737462E+02  0.37391857817E+02 -0.66384151548E+02  0.20649577775E+03  0.17200000000E+03 0.  1.
</event>
<event>
 4    1  0.4538619E+000  0.1759869E+03  0.7818608E-02  0.1171744E+00
         21   -1    0    0  503  502  0.00000000000E+00  0.00000000000E+00  0.17067582197E+03  0.17067582197E+03  0.00000000000E+00 0. -1.
         21   -1    0    0  501  503 -0.00000000000E+00 -0.00000000000E+00 -0.18149355336E+03  0.18149355336E+03  0.00000000000E+00 0. -1.
          6    1    1    2  501    0  0.31251148183E+02 -0.20266762719E+02 -0.76871031694E+01  0.17615466922E+03  0.17200000000E+03 0. -1.
         -6    1    1    2    0  502 -0.31251148183E+02  0.20266762719E+02 -0.31306282193E+01  0.17601470611E+03  0.17200000000E+03 0. -1.
</event>
<event>
 4    1  0.4538619E+000  0.2274123E+03  0.7818608E-02  0.1128475E+00
         21   -1    0    0  503  502  0.00000000000E+00  0.00000000000E+00  0.48772190049E+03  0.48772190049E+03  0.00000000000E+00 0. -1.
         21   -1    0    0  501  503 -0.00000000000E+00 -0.00000000000E+00 -0.13788855120E+03  0.13788855120E+03  0.00000000000E+00 0. -1.
          6    1    1    2  501    0 -0.12036527903E+03 -0.87433015610E+02  0.24575316874E+02  0.22873626475E+03  0.17200000000E+03 0. -1.
         -6    1    1    2    0  502  0.12036527903E+03  0.87433015610E+02  0.32525803241E+03  0.39687418694E+03  0.17200000000E+03 0. -1.
</event>
<event>
 4    1  0.4538619E+000  0.2321980E+03  0.7818608E-02  0.1125102E+00
         21   -1    0    0  503  502  0.00000000000E+00  0.00000000000E+00  0.14150522150E+03  0.14150522150E+03  0.00000000000E+00 0. -1.
         21   -1    0    0  501  503 -0.00000000000E+00 -0.00000000000E+00 -0.50004694719E+03  0.50004694719E+03  0.00000000000E+00 0.  1.
          6    1    1    2  501    0 -0.12632577945E+02  0.15547449128E+03 -0.33577457901E+03  0.40824069784E+03  0.17200000000E+03 0.  1.
         -6    1    1    2    0  502  0.12632577945E+02 -0.15547449128E+03 -0.22767146683E+02  0.23331147085E+03  0.17200000000E+03 0. -1.
</event>
<event>
 4    1  0.4538619E+000  0.2354113E+03  0.7818608E-02  0.1122888E+00
         21   -1    0    0  501  502  0.00000000000E+00  0.00000000000E+00  0.14447761422E+03  0.14447761422E+03  0.00000000000E+00 0.  1.
         21   -1    0    0  502  503 -0.00000000000E+00 -0.00000000000E+00 -0.53607199957E+03  0.53607199957E+03  0.00000000000E+00 0. -1.
          6    1    1    2  501    0  0.15675075193E+03 -0.35548179022E+02 -0.14310725057E+02  0.23584585668E+03  0.17200000000E+03 0.  1.
         -6    1    1    2    0  503 -0.15675075193E+03  0.35548179022E+02 -0.37728366029E+03  0.44470375711E+03  0.17200000000E+03 0. -1.
</event>
<event>
 4    1  0.4538619E+000  0.2123699E+03  0.7818608E-02  0.1139703E+00
         21   -1    0    0  503  502  0.00000000000E+00  0.00000000000E+00  0.26510973828E+03  0.26510973828E+03  0.00000000000E+00 0.  1.
         21   -1    0    0  501  503 -0.00000000000E+00 -0.00000000000E+00 -0.25735310110E+03  0.25735310110E+03  0.00000000000E+00 0. -1.
          6    1    1    2  501    0  0.64565247361E+02 -0.10652832762E+03 -0.14821032621E+03  0.25897346688E+03  0.17200000000E+03 0. -1.
         -6    1    1    2    0  502 -0.64565247361E+02  0.10652832762E+03  0.15596696339E+03  0.26348937250E+03  0.17200000000E+03 0.  1.
</event>
<event>
 4    1  0.4538619E+000  0.1984913E+03  0.7818608E-02  0.1151018E+00
         21   -1    0    0  503  502  0.00000000000E+00  0.00000000000E+00  0.96470334178E+03  0.96470334178E+03  0.00000000000E+00 0.  1.
         21   -1    0    0  501  503 -0.00000000000E+00 -0.00000000000E+00 -0.13556209265E+03  0.13556209265E+03  0.00000000000E+00 0.  1.
          6    1    1    2  501    0 -0.87894151283E+02 -0.45710056220E+02 -0.45286855552E+02  0.20359197026E+03  0.17200000000E+03 0.  1.
         -6    1    1    2    0  502  0.87894151283E+02  0.45710056220E+02  0.87442810469E+03  0.89667346417E+03  0.17200000000E+03 0.  1.
</event>
<event>
 4    1  0.4538619E+000  0.2256805E+03  0.7818608E-02  0.1129718E+00
         21   -1    0    0  501  502  0.00000000000E+00  0.00000000000E+00  0.32523464765E+03  0.32523464765E+03  0.00000000000E+00 0. -1.
         21   -1    0    0  502  503 -0.00000000000E+00 -0.00000000000E+00 -0.16470937475E+03  0.16470937475E+03  0.00000000000E+00 0. -1.
          6    1    1    2  501    0  0.13383928511E+03  0.58606498428E+02  0.13461979552E+03  0.26278159228E+03  0.17200000000E+03 0. -1.
         -6    1    1    2    0  503 -0.13383928511E+03 -0.58606498428E+02  0.25905477388E+02  0.22716243012E+03  0.17200000000E+03 0. -1.
</event>
<event>
 4    1  0.4538619E+000  0.2062860E+03  0.7818608E-02  0.1144541E+00
         21   -1    0    0  501  502  0.00000000000E+00  0.00000000000E+00  0.11607601835E+03  0.11607601835E+03  0.00000000000E+00 0.  1.
         21   -1    0    0  502  503 -0.00000000000E+00 -0.00000000000E+00 -0.41270738406E+03  0.41270738406E+03  0.00000000000E+00 0.  1.
          6    1    1    2  501    0  0.35592293109E+02 -0.10818097142E+03 -0.59948084874E+02  0.21482017313E+03  0.17200000000E+03 0.  1.
         -6    1    1    2    0  503 -0.35592293109E+02  0.10818097142E+03 -0.23668328084E+03  0.31396322927E+03  0.17200000000E+03 0.  1.
</event>
<event>
 4    1  0.4538619E+000  0.2337444E+03  0.7818608E-02  0.1124032E+00
         21   -1    0    0  503  502  0.00000000000E+00  0.00000000000E+00  0.10614722464E+04  0.10614722464E+04  0.00000000000E+00 0. -1.
         21   -1    0    0  501  503 -0.00000000000E+00 -0.00000000000E+00 -0.53389221094E+02  0.53389221094E+02  0.00000000000E+00 0.  1.
          6    1    1    2  501    0 -0.68548861979E+02  0.14266567814E+03  0.39841726147E+03  0.46192289014E+03  0.17200000000E+03 0. -1.
         -6    1    1    2    0  502  0.68548861979E+02 -0.14266567814E+03  0.60966576379E+03  0.65293857731E+03  0.17200000000E+03 0.  1.
</event>
<event>
 4    1  0.4538619E+000  0.3453215E+03  0.7818608E-02  0.1064552E+00
         21   -1    0    0  503  502  0.00000000000E+00  0.00000000000E+00  0.53991679409E+03  0.53991679409E+03  0.00000000000E+00 0.  1.
         21   -1    0    0  501  503 -0.00000000000E+00 -0.00000000000E+00 -0.34218643376E+03  0.34218643376E+03  0.00000000000E+00 0. -1.
          6    1    1    2  501    0  0.13736084323E+03 -0.26607318904E+03 -0.16375777751E+03  0.38218261718E+03  0.17200000000E+03 0.  1.
         -6    1    1    2    0  502 -0.13736084323E+03  0.26607318904E+03  0.36148813784E+03  0.49992061067E+03  0.17200000000E+03 0. -1.
</event>
<event>
 4    1  0.4538619E+000  0.2215274E+03  0.7818608E-02  0.1132749E+00
         21   -1    0    0  503  502  0.00000000000E+00  0.00000000000E+00  0.17356095176E+03  0.17356095176E+03  0.00000000000E+00 0.  1.
         21   -1    0    0  501  503 -0.00000000000E+00 -0.00000000000E+00 -0.45700150218E+03  0.45700150218E+03  0.00000000000E+00 0. -1.
          6    1    1    2  501    0  0.55638830840E+02  0.12804186112E+03 -0.33640294194E+03  0.40279192772E+03  0.17200000000E+03 0. -1.
         -6    1    1    2    0  502 -0.55638830840E+02 -0.12804186112E+03  0.52962391518E+02  0.22777052621E+03  0.17200000000E+03 0.  1.
</event>
<event>
 4    1  0.4538619E+000  0.1777779E+03  0.7818608E-02  0.1169971E+00
         21   -1    0    0  501  502  0.00000000000E+00  0.00000000000E+00  0.75096202239E+03  0.75096202239E+03  0.00000000000E+00 0.  1.
         21   -1    0    0  502  503 -0.00000000000E+00 -0.00000000000E+00 -0.11849204970E+03  0.11849204970E+03  0.00000000000E+00 0.  1.
          6    1    1    2  501    0 -0.41580336835E+02  0.17089516452E+02  0.66532382361E+03  0.68866593225E+03  0.17200000000E+03 0.  1.
         -6    1    1    2    0  503  0.41580336835E+02 -0.17089516452E+02 -0.32853850916E+02  0.18078813983E+03  0.17200000000E+03 0.  1.
</event>
<event>
 4    1  0.4538619E+000  0.1760579E+03  0.7818608E-02  0.1171674E+00
         21   -1    0    0  503  502  0.00000000000E+00  0.00000000000E+00  0.51863843590E+02  0.51863843590E+02  0.00000000000E+00 0.  1.
         21   -1    0    0  501  503 -0.00000000000E+00 -0.00000000000E+00 -0.65820474392E+03  0.65820474392E+03  0.00000000000E+00 0.  1.
          6    1    1    2  501    0  0.26425977297E+02 -0.26721696479E+02 -0.19548253155E+03  0.26307755792E+03  0.17200000000E+03 0.  1.
         -6    1    1    2    0  502 -0.26425977297E+02  0.26721696479E+02 -0.41085836878E+03  0.44699102959E+03  0.17200000000E+03 0.  1.
</event>
<event>
 4    1  0.4538619E+000  0.1763846E+03  0.7818608E-02  0.1171349E+00
         21   -1    0    0  503  502  0.00000000000E+00  0.00000000000E+00  0.21486129553E+03  0.21486129553E+03  0.00000000000E+00 0.  1.
         21   -1    0    0  501  503 -0.00000000000E+00 -0.00000000000E+00 -0.24972582937E+03  0.24972582937E+03  0.00000000000E+00 0.  1.
          6    1    1    2  501    0  0.31977980523E+02 -0.22471076798E+02 -0.16800636143E+03  0.24359326348E+03  0.17200000000E+03 0.  1.
         -6    1    1    2    0  502 -0.31977980523E+02  0.22471076798E+02  0.13314182759E+03  0.22099386142E+03  0.17200000000E+03 0.  1.
</event>
<event>
 4    1  0.4538619E+000  0.3373796E+03  0.7818608E-02  0.1067918E+00
         21   -1    0    0  503  502  0.00000000000E+00  0.00000000000E+00  0.95923235166E+03  0.95923235166E+03  0.00000000000E+00 0. -1.
         21   -1    0    0  501  503 -0.00000000000E+00 -0.00000000000E+00 -0.12719132718E+03  0.12719132718E+03  0.00000000000E+00 0.  1.
          6    1    1    2  501    0 -0.18623219333E+02  0.28964486247E+03  0.27535633960E+03  0.43548373611E+03  0.17200000000E+03 0.  1.
         -6    1    1    2    0  502  0.18623219333E+02 -0.28964486247E+03  0.55668468489E+03  0.65093994273E+03  0.17200000000E+03 0. -1.
</event>
<event>
 4    1  0.4538619E+000  0.1952541E+03  0.7818608E-02  0.1153806E+00
         21   -1    0    0  503  502  0.00000000000E+00  0.00000000000E+00  0.54285856773E+03  0.54285856773E+03  0.00000000000E+00 0. -1.
         21   -1    0    0  501  503 -0.00000000000E+00 -0.00000000000E+00 -0.75855349993E+02  0.75855349993E+02  0.00000000000E+00 0.  1.
          6    1    1    2  501    0  0.70124969606E+02  0.60188489487E+02  0.14924619115E+03  0.24576124837E+03  0.17200000000E+03 0.  1.
         -6    1    1    2    0  502 -0.70124969606E+02 -0.60188489487E+02  0.31775702659E+03  0.37295266935E+03  0.17200000000E+03 0. -1.
</event>
<event>
 4    1  0.4538619E+000  0.2349713E+03  0.7818608E-02  0.1123189E+00
         21   -1    0    0  501  502  0.00000000000E+00  0.00000000000E+00  0.97090057845E+02  0.97090057845E+02  0.00000000000E+00 0. -1.
         21   -1    0    0  502  503 -0.00000000000E+00 -0.00000000000E+00 -0.64679460398E+03  0.64679460398E+03  0.00000000000E+00 0. -1.
          6    1    1    2  501    0  0.89295362068E+02 -0.13286781680E+03 -0.40412470871E+03  0.46747010452E+03  0.17200000000E+03 0. -1.
         -6    1    1    2    0  503 -0.89295362068E+02  0.13286781680E+03 -0.14557983742E+03  0.27641455731E+03  0.17200000000E+03 0. -1.
</event>
<event>
 4    1  0.4538619E+000  0.2713143E+03  0.7818608E-02  0.1100530E+00
         21   -1    0    0  501  502  0.00000000000E+00  0.00000000000E+00  0.17840181570E+03  0.17840181570E+03  0.00000000000E+00 0. -1.
         21   -1    0    0  502  503 -0.00000000000E+00 -0.00000000000E+00 -0.56875777006E+03  0.56875777006E+03  0.00000000000E+00 0.  1.
          6    1    1    2  501    0 -0.10626506007E+03 -0.18092874966E+03  0.56176250324E+00  0.27131492960E+03  0.17200000000E+03 0. -1.
         -6    1    1    2    0  503  0.10626506007E+03  0.18092874966E+03 -0.39091771686E+03  0.47584465617E+03  0.17200000000E+03 0.  1.
</event>
<event>
 4    1  0.4538619E+000  0.2726100E+03  0.7818608E-02  0.1099795E+00
         21   -1    0    0  503  502  0.00000000000E+00  0.00000000000E+00  0.80594938708E+02  0.80594938708E+02  0.00000000000E+00 0. -1.
         21   -1    0    0  501  503 -0.00000000000E+00 -0.00000000000E+00 -0.10652515224E+04  0.10652515224E+04  0.00000000000E+00 0. -1.
          6    1    1    2  501    0  0.19127585633E+03  0.90253928096E+02 -0.70235535826E+03  0.75340511946E+03  0.17200000000E+03 0. -1.
         -6    1    1    2    0  502 -0.19127585633E+03 -0.90253928096E+02 -0.28230122543E+03  0.39244134165E+03  0.17200000000E+03 0. -1.
</event>
<event>
 4    1  0.4538619E+000  0.2592288E+03  0.7818608E-02  0.1107607E+00
         21   -1    0    0  501  502  0.00000000000E+00  0.00000000000E+00  0.20148339938E+03  0.20148339938E+03  0.00000000000E+00 0.  1.
         21   -1    0    0  502  503 -0.00000000000E+00 -0.00000000000E+00 -0.38866747150E+03  0.38866747150E+03  0.00000000000E+00 0.  1.
          6    1    1    2  501    0 -0.19337731515E+03 -0.14858447869E+02  0.17553189507E+02  0.25982238924E+03  0.17200000000E+03 0.  1.
         -6    1    1    2    0  503  0.19337731515E+03  0.14858447869E+02 -0.20473726163E+03  0.33032848165E+03  0.17200000000E+03 0.  1.
</event>
<event>
 4    1  0.4538619E+000  0.1756190E+03  0.7818608E-02  0.1172112E+00
         21   -1    0    0  503  502  0.00000000000E+00  0.00000000000E+00  0.27549645562E+03  0.27549645562E+03  0.00000000000E+00 0.  1.
         21   -1    0    0  501  503 -0.00000000000E+00 -0.00000000000E+00 -0.75296539495E+03  0.75296539495E+03  0.00000000000E+00 0.  1.
          6    1    1    2  501    0  0.35213957271E+02  0.42447244150E+01 -0.71319998336E+03  0.73450408899E+03  0.17200000000E+03 0.  1.
         -6    1    1    2    0  502 -0.35213957271E+02 -0.42447244150E+01  0.23573104403E+03  0.29395776158E+03  0.17200000000E+03 0.  1.
</event>
<event>
 4    1  0.4538619E+000  0.2529766E+03  0.7818608E-02  0.1111438E+00
         21   -1    0    0  503  502  0.00000000000E+00  0.00000000000E+00  0.42916185597E+02  0.42916185597E+02  0.00000000000E+00 0. -1.
         21   -1    0    0  501  503 -0.00000000000E+00 -0.00000000000E+00 -0.28257184143E+04  0.28257184143E+04  0.00000000000E+00 0.  1.
          6    1    1    2  501    0 -0.52182753336E+02 -0.17801712535E+03 -0.23770928309E+04  0.23905161500E+04  0.17200000000E+03 0.  1.
         -6    1    1    2    0  502  0.52182753336E+02  0.17801712535E+03 -0.40570939776E+03  0.47811844986E+03  0.17200000000E+03 0. -1.
</event>
<event>
 4    1  0.4538619E+000  0.1880177E+03  0.7818608E-02  0.1160262E+00
         21   -1    0    0  501  502  0.00000000000E+00  0.00000000000E+00  0.77107250766E+03  0.77107250766E+03  0.00000000000E+00 0.  1.
         21   -1    0    0  502  503 -0.00000000000E+00 -0.00000000000E+00 -0.10629434940E+03  0.10629434940E+03  0.00000000000E+00 0. -1.
          6    1    1    2  501    0  0.43503320137E+02 -0.62242328354E+02  0.66320629461E+03  0.68934261112E+03  0.17200000000E+03 0.  1.
         -6    1    1    2    0  503 -0.43503320137E+02  0.62242328354E+02  0.15718636507E+01  0.18802424593E+03  0.17200000000E+03 0. -1.
</event>
<event>
 4    1  0.4538619E+000  0.2391918E+03  0.7818608E-02  0.1120332E+00
         21   -1    0    0  501  502  0.00000000000E+00  0.00000000000E+00  0.14227667203E+03  0.14227667203E+03  0.00000000000E+00 0. -1.
         21   -1    0    0  502  503 -0.00000000000E+00 -0.00000000000E+00 -0.45577955871E+03  0.45577955871E+03  0.00000000000E+00 0.  1.
          6    1    1    2  501    0 -0.10277126631E+03 -0.13063983292E+03 -0.54151607565E+02  0.24524497085E+03  0.17200000000E+03 0. -1.
         -6    1    1    2    0  503  0.10277126631E+03  0.13063983292E+03 -0.25935127912E+03  0.35281125989E+03  0.17200000000E+03 0. -1.
</event>
<event>
 4    1  0.4538619E+000  0.1894522E+03  0.7818608E-02  0.1158956E+00
         21   -1    0    0  503  502  0.00000000000E+00  0.00000000000E+00  0.26645916518E+03  0.26645916518E+03  0.00000000000E+00 0.  1.
         21   -1    0    0  501  503 -0.00000000000E+00 -0.00000000000E+00 -0.15419617887E+03  0.15419617887E+03  0.00000000000E+00 0.  1.
          6    1    1    2  501    0 -0.67914555538E+02 -0.41179319780E+02  0.13091938298E+03  0.23028679526E+03  0.17200000000E+03 0.  1.
         -6    1    1    2    0  502  0.67914555538E+02  0.41179319780E+02 -0.18656396674E+02  0.19036854879E+03  0.17200000000E+03 0.  1.
</event>
<event>
 4    1  0.4538619E+000  0.1838518E+03  0.7818608E-02  0.1164126E+00
         21   -1    0    0  503  502  0.00000000000E+00  0.00000000000E+00  0.18609307423E+03  0.18609307423E+03  0.00000000000E+00 0. -1.
         21   -1    0    0  501  503 -0.00000000000E+00 -0.00000000000E+00 -0.18401568926E+03  0.18401568926E+03  0.00000000000E+00 0. -1.
          6    1    1    2  501    0  0.50389187072E+02 -0.40968327066E+02 -0.19999018128E+02  0.18493629909E+03  0.17200000000E+03 0. -1.
         -6    1    1    2    0  502 -0.50389187072E+02  0.40968327066E+02  0.22076403104E+02  0.18517246440E+03  0.17200000000E+03 0. -1.
</event>
<event>
 4    1  0.4538619E+000  0.2177070E+03  0.7818608E-02  0.1135604E+00
         21   -1    0    0  501  502  0.00000000000E+00  0.00000000000E+00  0.34588764710E+03  0.34588764710E+03  0.00000000000E+00 0. -1.
         21   -1    0    0  502  503 -0.00000000000E+00 -0.00000000000E+00 -0.15208823792E+03  0.15208823792E+03  0.00000000000E+00 0. -1.
          6    1    1    2  501    0  0.11838440263E+03 -0.61623746573E+02  0.17525058847E+03  0.27948009176E+03  0.17200000000E+03 0. -1.
         -6    1    1    2    0  503 -0.11838440263E+03  0.61623746573E+02  0.18548820706E+02  0.21849579327E+03  0.17200000000E+03 0. -1.
</event>
<event>
 4    1  0.4538619E+000  0.1818547E+03  0.7818608E-02  0.1166020E+00
         21   -1    0    0  501  502  0.00000000000E+00  0.00000000000E+00  0.11161104635E+03  0.11161104635E+03  0.00000000000E+00 0. -1.
         21   -1    0    0  502  503 -0.00000000000E+00 -0.00000000000E+00 -0.35536748143E+03  0.35536748143E+03  0.00000000000E+00 0. -1.
          6    1    1    2  501    0 -0.42286328493E+02 -0.41218761633E+02 -0.26691348853E+02  0.18380301410E+03  0.17200000000E+03 0. -1.
         -6    1    1    2    0  503  0.42286328493E+02  0.41218761633E+02 -0.21706508623E+03  0.28317551368E+03  0.17200000000E+03 0. -1.
</event>
<event>
 4    1  0.4538619E+000  0.2287780E+03  0.7818608E-02  0.1127503E+00
         21   -1    0    0  503  502  0.00000000000E+00  0.00000000000E+00  0.18655161846E+03  0.18655161846E+03  0.00000000000E+00 0.  1.
         21   -1    0    0  501  503 -0.00000000000E+00 -0.00000000000E+00 -0.43363617109E+03  0.43363617109E+03  0.00000000000E+00 0.  1.
          6    1    1    2  501    0  0.64835444522E+02  0.13620476383E+03 -0.30778096550E+03  0.38349510463E+03  0.17200000000E+03 0.  1.
         -6    1    1    2    0  502 -0.64835444522E+02 -0.13620476383E+03  0.60696412863E+02  0.23669268491E+03  0.17200000000E+03 0.  1.
</event>
<event>
 4    1  0.4538619E+000  0.3401940E+03  0.7818608E-02  0.1066713E+00
         21   -1    0    0  501  502  0.00000000000E+00  0.00000000000E+00  0.64554607846E+03  0.64554607846E+03  0.00000000000E+00 0.  1.
         21   -1    0    0  502  503 -0.00000000000E+00 -0.00000000000E+00 -0.17955647628E+03  0.17955647628E+03  0.00000000000E+00 0. -1.
          6    1    1    2  501    0  0.26497376468E+03  0.12624125107E+03  0.21673610053E+03  0.40336892135E+03  0.17200000000E+03 0.  1.
         -6    1    1    2    0  503 -0.26497376468E+03 -0.12624125107E+03  0.24925350165E+03  0.42173363338E+03  0.17200000000E+03 0. -1.
</event>
<event>
 4    1  0.4538619E+000  0.2071640E+03  0.7818608E-02  0.1143832E+00
         21   -1    0    0  501  502  0.00000000000E+00  0.00000000000E+00  0.20591919345E+03  0.20591919345E+03  0.00000000000E+00 0. -1.
         21   -1    0    0  502  503 -0.00000000000E+00 -0.00000000000E+00 -0.20861599752E+03  0.20861599752E+03  0.00000000000E+00 0.  1.
          6    1    1    2  501    0 -0.70199979351E+02 -0.91678204796E+02  0.50632556499E+01  0.20722588374E+03  0.17200000000E+03 0.  1.
         -6    1    1    2    0  503  0.70199979351E+02  0.91678204796E+02 -0.77600597155E+01  0.20730930723E+03  0.17200000000E+03 0. -1.
</event>
<event>
 4    1  0.4538619E+000  0.2748576E+03  0.7818608E-02  0.1098531E+00
         21   -1    0    0  503  502  0.00000000000E+00  0.00000000000E+00  0.91654266105E+03  0.91654266105E+03  0.00000000000E+00 0. -1.
         21   -1    0    0  501  503 -0.00000000000E+00 -0.00000000000E+00 -0.12572701413E+03  0.12572701413E+03  0.00000000000E+00 0.  1.
          6    1    1    2  501    0  0.19371417597E+03 -0.91855998452E+02  0.89573554372E+02  0.28908498416E+03  0.17200000000E+03 0.  1.
         -6    1    1    2    0  502 -0.19371417597E+03  0.91855998452E+02  0.70124209255E+03  0.75318469102E+03  0.17200000000E+03 0. -1.
</event>
<event>
 4    1  0.4538619E+000  0.1944637E+03  0.7818608E-02  0.1154496E+00
         21   -1    0    0  503  502  0.00000000000E+00  0.00000000000E+00  0.39572457721E+03  0.39572457721E+03  0.00000000000E+00 0.  1.
         21   -1    0    0  501  503 -0.00000000000E+00 -0.00000000000E+00 -0.16614859458E+03  0.16614859458E+03  0.00000000000E+00 0. -1.
          6    1    1    2  501    0  0.79187868350E+02 -0.44288030760E+02 -0.68326085360E+02  0.20611793251E+03  0.17200000000E+03 0. -1.
         -6    1    1    2    0  502 -0.79187868350E+02  0.44288030760E+02  0.29790206798E+03  0.35575523928E+03  0.17200000000E+03 0.  1.
</event>
<event>
 4    1  0.4538619E+000  0.1789137E+03  0.7818608E-02  0.1168859E+00
         21   -1    0    0  503  502  0.00000000000E+00  0.00000000000E+00  0.42611864605E+03  0.42611864605E+03  0.00000000000E+00 0. -1.
         21   -1    0    0  501  503 -0.00000000000E+00 -0.00000000000E+00 -0.29448706220E+03  0.29448706220E+03  0.00000000000E+00 0. -1.
          6    1    1    2  501    0  0.13188845401E+02 -0.47457071762E+02 -0.24515535899E+03  0.30349838442E+03  0.17200000000E+03 0. -1.
         -6    1    1    2    0  502 -0.13188845401E+02  0.47457071762E+02  0.37678694284E+03  0.41710732384E+03  0.17200000000E+03 0. -1.
</event>
<event>
 4    1  0.4538619E+000  0.2077033E+03  0.7818608E-02  0.1143398E+00
         21   -1    0    0  503  502  0.00000000000E+00  0.00000000000E+00  0.39539960374E+02  0.39539960374E+02  0.00000000000E+00 0.  1.
         21   -1    0    0  501  503 -0.00000000000E+00 -0.00000000000E+00 -0.14178915294E+04  0.14178915294E+04  0.00000000000E+00 0. -1.
          6    1    1    2  501    0  0.11586872453E+03 -0.11450073416E+02 -0.10390366153E+04  0.10595932018E+04  0.17200000000E+03 0. -1.
         -6    1    1    2    0  502 -0.11586872453E+03  0.11450073416E+02 -0.33931495375E+03  0.39783828793E+03  0.17200000000E+03 0.  1.
</event>
<event>
 4    1  0.4538619E+000  0.1740003E+03  0.7818608E-02  0.1173739E+00
         21   -1    0    0  503  502  0.00000000000E+00  0.00000000000E+00  0.18735830156E+03  0.18735830156E+03  0.00000000000E+00 0.  1.
         21   -1    0    0  501  503 -0.00000000000E+00 -0.00000000000E+00 -0.16168395601E+03  0.16168395601E+03  0.00000000000E+00 0.  1.
          6    1    1    2  501    0 -0.26176620201E+02  0.26244565666E+01  0.16938290934E+02  0.17482279290E+03  0.17200000000E+03 0.  1.
         -6    1    1    2    0  502  0.26176620201E+02 -0.26244565666E+01  0.87360546174E+01  0.17421946466E+03  0.17200000000E+03 0.  1.
</event>
<event>
 4    1  0.4538619E+000  0.2523571E+03  0.7818608E-02  0.1111824E+00
         21   -1    0    0  501  502  0.00000000000E+00  0.00000000000E+00  0.83987826762E+02  0.83987826762E+02  0.00000000000E+00 0. -1.
         21   -1    0    0  502  503 -0.00000000000E+00 -0.00000000000E+00 -0.92635964405E+03  0.92635964405E+03  0.00000000000E+00 0.  1.
          6    1    1    2  501    0 -0.15692359816E+02 -0.18399419022E+03 -0.20598604324E+03  0.32575199493E+03  0.17200000000E+03 0.  1.
         -6    1    1    2    0  503  0.15692359816E+02  0.18399419022E+03 -0.63638577405E+03  0.68459547589E+03  0.17200000000E+03 0. -1.
</event>
<event>
 4    1  0.4538619E+000  0.2097692E+03  0.7818608E-02  0.1141749E+00
         21   -1    0    0  503  502  0.00000000000E+00  0.00000000000E+00  0.11298182454E+04  0.11298182454E+04  0.00000000000E+00 0. -1.
         21   -1    0    0  501  503 -0.00000000000E+00 -0.00000000000E+00 -0.40859505403E+02  0.40859505403E+02  0.00000000000E+00 0.  1.
          6    1    1    2  501    0 -0.93989457215E+02 -0.74733628392E+02  0.41784491284E+03  0.46754412034E+03  0.17200000000E+03 0.  1.
         -6    1    1    2    0  502  0.93989457215E+02  0.74733628392E+02  0.67111382712E+03  0.70313363042E+03  0.17200000000E+03 0. -1.
</event>
<event>
 4    1  0.4538619E+000  0.2178193E+03  0.7818608E-02  0.1135519E+00
         21   -1    0    0  503  502  0.00000000000E+00  0.00000000000E+00  0.77848659006E+02  0.77848659006E+02  0.00000000000E+00 0.  1.
         21   -1    0    0  501  503 -0.00000000000E+00 -0.00000000000E+00 -0.61195973095E+03  0.61195973095E+03  0.00000000000E+00 0.  1.
          6    1    1    2  501    0  0.10138318552E+03  0.87078661077E+02 -0.28912184989E+03  0.36198989986E+03  0.17200000000E+03 0.  1.
         -6    1    1    2    0  502 -0.10138318552E+03 -0.87078661077E+02 -0.24498922205E+03  0.32781849009E+03  0.17200000000E+03 0.  1.
</event>
<event>
 4    1  0.4538619E+000  0.2715449E+03  0.7818608E-02  0.1100399E+00
         21   -1    0    0  503  502  0.00000000000E+00  0.00000000000E+00  0.38384788446E+02  0.38384788446E+02  0.00000000000E+00 0. -1.
         21   -1    0    0  501  503 -0.00000000000E+00 -0.00000000000E+00 -0.21920556353E+04  0.21920556353E+04  0.00000000000E+00 0.  1.
          6    1    1    2  501    0 -0.13197778988E+03  0.16350686202E+03 -0.14690064415E+04  0.14938930873E+04  0.17200000000E+03 0.  1.
         -6    1    1    2    0  502  0.13197778988E+03 -0.16350686202E+03 -0.68466440539E+03  0.73654733654E+03  0.17200000000E+03 0. -1.
</event>
<event>
 4    1  0.4538619E+000  0.1900936E+03  0.7818608E-02  0.1158377E+00
         21   -1    0    0  501  502  0.00000000000E+00  0.00000000000E+00  0.10261261868E+04  0.10261261868E+04  0.00000000000E+00 0.  1.
         21   -1    0    0  502  503 -0.00000000000E+00 -0.00000000000E+00 -0.63323381551E+02  0.63323381551E+02  0.00000000000E+00 0.  1.
          6    1    1    2  501    0  0.80016724416E+02  0.12202317532E+02  0.84431976932E+03  0.86545447344E+03  0.17200000000E+03 0.  1.
         -6    1    1    2    0  503 -0.80016724416E+02 -0.12202317532E+02  0.11848303593E+03  0.22399509491E+03  0.17200000000E+03 0.  1.
</event>
<event>
 4    1  0.4538619E+000  0.2032759E+03  0.7818608E-02  0.1147004E+00
         21   -1    0    0  501  502  0.00000000000E+00  0.00000000000E+00  0.29888119775E+03  0.29888119775E+03  0.00000000000E+00 0. -1.
         21   -1    0    0  502  503 -0.00000000000E+00 -0.00000000000E+00 -0.23652089486E+03  0.23652089486E+03  0.00000000000E+00 0.  1.
          6    1    1    2  501    0 -0.10669624861E+03  0.18788242534E+02  0.20373300037E+03  0.28779892801E+03  0.17200000000E+03 0. -1.
         -6    1    1    2    0  503  0.10669624861E+03 -0.18788242534E+02 -0.14137269748E+03  0.24760316460E+03  0.17200000000E+03 0.  1.
</event>
<event>
 4    1  0.4538619E+000  0.2167431E+03  0.7818608E-02  0.1136335E+00
         21   -1    0    0  503  502  0.00000000000E+00  0.00000000000E+00  0.97097420071E+03  0.97097420071E+03  0.00000000000E+00 0.  1.
         21   -1    0    0  501  503 -0.00000000000E+00 -0.00000000000E+00 -0.88988411439E+02  0.88988411439E+02  0.00000000000E+00 0. -1.
          6    1    1    2  501    0 -0.13034390885E+03 -0.20100377942E+02  0.82985697645E+02  0.23208659113E+03  0.17200000000E+03 0. -1.
         -6    1    1    2    0  502  0.13034390885E+03  0.20100377942E+02  0.79900009162E+03  0.82787602102E+03  0.17200000000E+03 0.  1.
</event>
<event>
 4    1  0.4538619E+000  0.1860778E+03  0.7818608E-02  0.1162047E+00
         21   -1    0    0  501  502  0.00000000000E+00  0.00000000000E+00  0.20355971575E+03  0.20355971575E+03  0.00000000000E+00 0.  1.
         21   -1    0    0  502  503 -0.00000000000E+00 -0.00000000000E+00 -0.25821232984E+03  0.25821232984E+03  0.00000000000E+00 0. -1.
          6    1    1    2  501    0  0.62587692774E+02  0.33521849489E+02  0.10754962094E+03  0.21492290395E+03  0.17200000000E+03 0.  1.
         -6    1    1    2    0  503 -0.62587692774E+02 -0.33521849489E+02 -0.16220223503E+03  0.24684914164E+03  0.17200000000E+03 0. -1.
</event>
<event>
 4    1  0.4538619E+000  0.2963965E+03  0.7818608E-02  0.1087056E+00
         21   -1    0    0  501  502  0.00000000000E+00  0.00000000000E+00  0.66837445604E+03  0.66837445604E+03  0.00000000000E+00 0.  1.
         21   -1    0    0  502  503 -0.00000000000E+00 -0.00000000000E+00 -0.13182184610E+03  0.13182184610E+03  0.00000000000E+00 0.  1.
          6    1    1    2  501    0  0.22620346566E+03  0.84254913935E+02  0.24673255871E+03  0.38565250411E+03  0.17200000000E+03 0.  1.
         -6    1    1    2    0  503 -0.22620346566E+03 -0.84254913935E+02  0.28982005123E+03  0.41454379804E+03  0.17200000000E+03 0.  1.
</event>
<event>
 4    1  0.4538619E+000  0.2184648E+03  0.7818608E-02  0.1135033E+00
         21   -1    0    0  501  502  0.00000000000E+00  0.00000000000E+00  0.23075931681E+03  0.23075931681E+03  0.00000000000E+00 0. -1.
         21   -1    0    0  502  503 -0.00000000000E+00 -0.00000000000E+00 -0.24452630736E+03  0.24452630736E+03  0.00000000000E+00 0. -1.
          6    1    1    2  501    0 -0.13081070450E+03 -0.32115946023E+02  0.86428640285E+02  0.23493995884E+03  0.17200000000E+03 0. -1.
         -6    1    1    2    0  503  0.13081070450E+03  0.32115946023E+02 -0.10019563084E+03  0.24034566532E+03  0.17200000000E+03 0. -1.
</event>
<event>
 4    1  0.4538619E+000  0.2285381E+03  0.7818608E-02  0.1127673E+00
         21   -1    0    0  501  502  0.00000000000E+00  0.00000000000E+00  0.15107745465E+03  0.15107745465E+03  0.00000000000E+00 0.  1.
         21   -1    0    0  502  503 -0.00000000000E+00 -0.00000000000E+00 -0.59211167731E+03  0.59211167731E+03  0.00000000000E+00 0. -1.
          6    1    1    2  501    0  0.69091693638E+02  0.13368616903E+03  0.19192517862E+02  0.22934255310E+03  0.17200000000E+03 0.  1.
         -6    1    1    2    0  503 -0.69091693638E+02 -0.13368616903E+03 -0.46022674052E+03  0.51384657886E+03  0.17200000000E+03 0. -1.
</event>
<event>
 4    1  0.4538619E+000  0.2401413E+03  0.7818608E-02  0.1119699E+00
         21   -1    0    0  501  502  0.00000000000E+00  0.00000000000E+00  0.51951815233E+03  0.51951815233E+03  0.00000000000E+00 0. -1.
         21   -1    0    0  502  503 -0.00000000000E+00 -0.00000000000E+00 -0.19908993926E+03  0.19908993926E+03  0.00000000000E+00 0. -1.
          6    1    1    2  501    0 -0.10399021126E+03  0.13141500517E+03  0.39921206273E+03  0.46587352216E+03  0.17200000000E+03 0. -1.
         -6    1    1    2    0  503  0.10399021126E+03 -0.13141500517E+03 -0.78783849652E+02  0.25273456943E+03  0.17200000000E+03 0. -1.
</event>
<event>
 4    1  0.4538619E+000  0.2490452E+03  0.7818608E-02  0.1113910E+00
         21   -1    0    0  503  502  0.00000000000E+00  0.00000000000E+00  0.65002842171E+03  0.65002842171E+03  0.00000000000E+00 0.  1.
         21   -1    0    0  501  503 -0.00000000000E+00 -0.00000000000E+00 -0.14018702028E+03  0.14018702028E+03  0.00000000000E+00 0.  1.
          6    1    1    2  501    0  0.12745165757E+03 -0.12726191279E+03  0.31636975743E+02  0.25104664447E+03  0.17200000000E+03 0.  1.
         -6    1    1    2    0  502 -0.12745165757E+03  0.12726191279E+03  0.47820442569E+03  0.53916879752E+03  0.17200000000E+03 0.  1.
</event>
<event>
 4    1  0.4538619E+000  0.1810711E+03  0.7818608E-02  0.1166770E+00
         21   -1    0    0  501  502  0.00000000000E+00  0.00000000000E+00  0.53597953602E+03  0.53597953602E+03  0.00000000000E+00 0. -1.
         21   -1    0    0  502  503 -0.00000000000E+00 -0.00000000000E+00 -0.17160613832E+03  0.17160613832E+03  0.00000000000E+00 0. -1.
          6    1    1    2  501    0  0.16355287909E+02 -0.54177800457E+02  0.46600152132E+03  0.49994414426E+03  0.17200000000E+03 0. -1.
         -6    1    1    2    0  503 -0.16355287909E+02  0.54177800457E+02 -0.10162812362E+03  0.20764153008E+03  0.17200000000E+03 0. -1.
</event>
<event>
 4    1  0.4538619E+000  0.1908946E+03  0.7818608E-02  0.1157657E+00
         21   -1    0    0  501  502  0.00000000000E+00  0.00000000000E+00  0.74656476589E+02  0.74656476589E+02  0.00000000000E+00 0.  1.
         21   -1    0    0  502  503 -0.00000000000E+00 -0.00000000000E+00 -0.60095832712E+03  0.60095832712E+03  0.00000000000E+00 0.  1.
          6    1    1    2  501    0  0.64198333998E+02  0.52300411902E+02 -0.11676822932E+03  0.22377573271E+03  0.17200000000E+03 0.  1.
         -6    1    1    2    0  503 -0.64198333998E+02 -0.52300411902E+02 -0.40953362122E+03  0.45183907100E+03  0.17200000000E+03 0.  1.
</event>
<event>
 4    1  0.4538619E+000  0.1752239E+03  0.7818608E-02  0.1172507E+00
         21   -1    0    0  503  502  0.00000000000E+00  0.00000000000E+00  0.97138303358E+03  0.97138303358E+03  0.00000000000E+00 0. -1.
         21   -1    0    0  501  503 -0.00000000000E+00 -0.00000000000E+00 -0.97363535611E+02  0.97363535611E+02  0.00000000000E+00 0. -1.
          6    1    1    2  501    0  0.93870242921E+01  0.32113855531E+02 -0.21402945633E+01  0.17523697328E+03  0.17200000000E+03 0. -1.
         -6    1    1    2    0  502 -0.93870242921E+01 -0.32113855531E+02  0.87615979254E+03  0.89350959592E+03  0.17200000000E+03 0. -1.
</event>
<event>
 4    1  0.4538619E+000  0.1972924E+03  0.7818608E-02  0.1152044E+00
         21   -1    0    0  503  502  0.00000000000E+00  0.00000000000E+00  0.22693801036E+02  0.22693801036E+02  0.00000000000E+00 0.  1.
         21   -1    0    0  501  503 -0.00000000000E+00 -0.00000000000E+00 -0.18882377524E+04  0.18882377524E+04  0.00000000000E+00 0.  1.
          6    1    1    2  501    0 -0.83043595536E+02 -0.49437527918E+02 -0.64352905477E+03  0.67309282589E+03  0.17200000000E+03 0.  1.
         -6    1    1    2    0  502  0.83043595536E+02  0.49437527918E+02 -0.12220148966E+04  0.12378387275E+04  0.17200000000E+03 0.  1.
</event>
<event>
 4    1  0.4538619E+000  0.2243671E+03  0.7818608E-02  0.1130668E+00
         21   -1    0    0  501  502  0.00000000000E+00  0.00000000000E+00  0.90809582004E+03  0.90809582004E+03  0.00000000000E+00 0. -1.
         21   -1    0    0  502  503 -0.00000000000E+00 -0.00000000000E+00 -0.57467847241E+02  0.57467847241E+02  0.00000000000E+00 0. -1.
          6    1    1    2  501    0 -0.10617118388E+03 -0.97387249293E+02  0.51610753033E+03  0.56276778468E+03  0.17200000000E+03 0. -1.
         -6    1    1    2    0  503  0.10617118388E+03  0.97387249293E+02  0.33452044247E+03  0.40279588261E+03  0.17200000000E+03 0. -1.
</event>
<event>
 4    1  0.4538619E+000  0.6444545E+03  0.7818608E-02  0.9817241E-01
         21   -1    0    0  503  502  0.00000000000E+00  0.00000000000E+00  0.34164692009E+03  0.34164692009E+03  0.00000000000E+00 0.  1.
         21   -1    0    0  501  503 -0.00000000000E+00 -0.00000000000E+00 -0.20732903906E+04  0.20732903906E+04  0.00000000000E+00 0. -1.
          6    1    1    2  501    0  0.43925973306E+03  0.43907679927E+03 -0.16424255955E+04  0.17643365284E+04  0.17200000000E+03 0. -1.
         -6    1    1    2    0  502 -0.43925973306E+03 -0.43907679927E+03 -0.89217875079E+02  0.65060078234E+03  0.17200000000E+03 0.  1.
</event>
<event>
 4    1  0.4538619E+000  0.3868961E+03  0.7818608E-02  0.1048414E+00
         21   -1    0    0  503  502  0.00000000000E+00  0.00000000000E+00  0.79685388105E+03  0.79685388105E+03  0.00000000000E+00 0. -1.
         21   -1    0    0  501  503 -0.00000000000E+00 -0.00000000000E+00 -0.46846760044E+03  0.46846760044E+03  0.00000000000E+00 0.  1.
          6    1    1    2  501    0  0.26932432478E+03 -0.21810314269E+03 -0.32546048597E+03  0.50558194261E+03  0.17200000000E+03 0.  1.
         -6    1    1    2    0  502 -0.26932432478E+03  0.21810314269E+03  0.65384676658E+03  0.75973953888E+03  0.17200000000E+03 0. -1.
</event>
<event>
 4    1  0.4538619E+000  0.2109839E+03  0.7818608E-02  0.1140789E+00
         21   -1    0    0  501  502  0.00000000000E+00  0.00000000000E+00  0.12247049947E+04  0.12247049947E+04  0.00000000000E+00 0. -1.
         21   -1    0    0  502  503 -0.00000000000E+00 -0.00000000000E+00 -0.36759547982E+02  0.36759547982E+02  0.00000000000E+00 0.  1.
          6    1    1    2  501    0 -0.98655317567E+02  0.72092426996E+02  0.66080205712E+03  0.69366674160E+03  0.17200000000E+03 0. -1.
         -6    1    1    2    0  503  0.98655317567E+02 -0.72092426996E+02  0.52714338963E+03  0.56779780111E+03  0.17200000000E+03 0. -1.
</event>
<event>
 4    1  0.4538619E+000  0.1784776E+03  0.7818608E-02  0.1169285E+00
         21   -1    0    0  501  502  0.00000000000E+00  0.00000000000E+00  0.21307109230E+03  0.21307109230E+03  0.00000000000E+00 0.  1.
         21   -1    0    0  502  503 -0.00000000000E+00 -0.00000000000E+00 -0.23386179267E+03  0.23386179267E+03  0.00000000000E+00 0.  1.
          6    1    1    2  501    0  0.34443256875E+02  0.32922869420E+02 -0.14461128115E+03  0.22970998218E+03  0.17200000000E+03 0.  1.
         -6    1    1    2    0  503 -0.34443256875E+02 -0.32922869420E+02  0.12382058078E+03  0.21722290280E+03  0.17200000000E+03 0.  1.
</event>
<event>
 4    1  0.4538619E+000  0.2096869E+03  0.7818608E-02  0.1141814E+00
         21   -1    0    0  501  502  0.00000000000E+00  0.00000000000E+00  0.57932053126E+03  0.57932053126E+03  0.00000000000E+00 0.  1.
         21   -1    0    0  502  503 -0.00000000000E+00 -0.00000000000E+00 -0.12705396757E+03  0.12705396757E+03  0.00000000000E+00 0.  1.
          6    1    1    2  501    0  0.11949723582E+03 -0.10246852362E+02  0.45024473519E+03  0.49667787238E+03  0.17200000000E+03 0.  1.
         -6    1    1    2    0  503 -0.11949723582E+03  0.10246852362E+02  0.20218285034E+01  0.20969662644E+03  0.17200000000E+03 0.  1.
</event>
<event>
 4    1  0.4538619E+000  0.2151180E+03  0.7818608E-02  0.1137576E+00
         21   -1    0    0  503  502  0.00000000000E+00  0.00000000000E+00  0.46625885914E+03  0.46625885914E+03  0.00000000000E+00 0.  1.
         21   -1    0    0  501  503 -0.00000000000E+00 -0.00000000000E+00 -0.11884810387E+03  0.11884810387E+03  0.00000000000E+00 0.  1.
          6    1    1    2  501    0 -0.72493980210E+02  0.10694096190E+03  0.54902557319E+02  0.22201359710E+03  0.17200000000E+03 0.  1.
         -6    1    1    2    0  502  0.72493980210E+02 -0.10694096190E+03  0.29250819796E+03  0.36309336591E+03  0.17200000000E+03 0.  1.
</event>
<event>
 4    1  0.4538619E+000  0.2027204E+03  0.7818608E-02  0.1147464E+00
         21   -1    0    0  501  502  0.00000000000E+00  0.00000000000E+00  0.12078221491E+04  0.12078221491E+04  0.00000000000E+00 0. -1.
         21   -1    0    0  502  503 -0.00000000000E+00 -0.00000000000E+00 -0.54506477214E+02  0.54506477214E+02  0.00000000000E+00 0. -1.
          6    1    1    2  501    0 -0.96288815887E+02  0.47329065139E+02  0.96356256568E+03  0.98465648550E+03  0.17200000000E+03 0. -1.
         -6    1    1    2    0  503  0.96288815887E+02 -0.47329065139E+02  0.18975310624E+03  0.27767214084E+03  0.17200000000E+03 0. -1.
</event>
<event>
 4    1  0.4538619E+000  0.3320909E+03  0.7818608E-02  0.1070215E+00
         21   -1    0    0  501  502  0.00000000000E+00  0.00000000000E+00  0.24214252983E+03  0.24214252983E+03  0.00000000000E+00 0.  1.
         21   -1    0    0  502  503 -0.00000000000E+00 -0.00000000000E+00 -0.46498785244E+03  0.46498785244E+03  0.00000000000E+00 0. -1.
          6    1    1    2  501    0  0.11366991891E+03  0.26034500935E+03 -0.60791088470E+02  0.33760913909E+03  0.17200000000E+03 0.  1.
         -6    1    1    2    0  503 -0.11366991891E+03 -0.26034500935E+03 -0.16205423414E+03  0.36952124318E+03  0.17200000000E+03 0. -1.
</event>
<event>
 4    1  0.4538619E+000  0.2202629E+03  0.7818608E-02  0.1133687E+00
         21   -1    0    0  503  502  0.00000000000E+00  0.00000000000E+00  0.23410253296E+03  0.23410253296E+03  0.00000000000E+00 0.  1.
         21   -1    0    0  501  503 -0.00000000000E+00 -0.00000000000E+00 -0.85443980145E+03  0.85443980145E+03  0.00000000000E+00 0.  1.
          6    1    1    2  501    0 -0.13752147017E+03  0.44265914787E+01 -0.78385762650E+03  0.81421651180E+03  0.17200000000E+03 0.  1.
         -6    1    1    2    0  502  0.13752147017E+03 -0.44265914787E+01  0.16352035801E+03  0.27432582261E+03  0.17200000000E+03 0.  1.
</event>
<event>
 4    1  0.4538619E+000  0.2004450E+03  0.7818608E-02  0.1149364E+00
         21   -1    0    0  503  502  0.00000000000E+00  0.00000000000E+00  0.17869044156E+04  0.17869044156E+04  0.00000000000E+00 0.  1.
         21   -1    0    0  501  503 -0.00000000000E+00 -0.00000000000E+00 -0.22669988100E+02  0.22669988100E+02  0.00000000000E+00 0.  1.
          6    1    1    2  501    0 -0.52977046462E+02  0.88247471100E+02  0.80034034296E+03  0.82505929980E+03  0.17200000000E+03 0.  1.
         -6    1    1    2    0  502  0.52977046462E+02 -0.88247471100E+02  0.96389408455E+03  0.98451510392E+03  0.17200000000E+03 0.  1.
</event>
<event>
 4    1  0.4538619E+000  0.3029589E+03  0.7818608E-02  0.1083771E+00
         21   -1    0    0  503  502  0.00000000000E+00  0.00000000000E+00  0.81606996048E+03  0.81606996048E+03  0.00000000000E+00 0. -1.
         21   -1    0    0  501  503 -0.00000000000E+00 -0.00000000000E+00 -0.13119576504E+03  0.13119576504E+03  0.00000000000E+00 0. -1.
          6    1    1    2  501    0 -0.24436241437E+03  0.49870616326E+02  0.16350343604E+03  0.34426362214E+03  0.17200000000E+03 0. -1.
         -6    1    1    2    0  502  0.24436241437E+03 -0.49870616326E+02  0.52137075940E+03  0.60300210339E+03  0.17200000000E+03 0. -1.
</event>
<event>
 4    1  0.4538619E+000  0.1758187E+03  0.7818608E-02  0.1171912E+00
         21   -1    0    0  503  502  0.00000000000E+00  0.00000000000E+00  0.30637445628E+03  0.30637445628E+03  0.00000000000E+00 0.  1.
         21   -1    0    0  501  503 -0.00000000000E+00 -0.00000000000E+00 -0.10841932804E+03  0.10841932804E+03  0.00000000000E+00 0. -1.
          6    1    1    2  501    0 -0.29286598890E+02  0.21691450145E+02  0.44347871504E+02  0.18132555692E+03  0.17200000000E+03 0. -1.
         -6    1    1    2    0  502  0.29286598890E+02 -0.21691450145E+02  0.15360725674E+03  0.23346822740E+03  0.17200000000E+03 0.  1.
</event>
<event>
 4    1  0.4538619E+000  0.2031833E+03  0.7818608E-02  0.1147081E+00
         21   -1    0    0  503  502  0.00000000000E+00  0.00000000000E+00  0.52134103232E+02  0.52134103232E+02  0.00000000000E+00 0. -1.
         21   -1    0    0  501  503 -0.00000000000E+00 -0.00000000000E+00 -0.11139350238E+04  0.11139350238E+04  0.00000000000E+00 0. -1.
          6    1    1    2  501    0 -0.10791970124E+03  0.72646787264E+01 -0.84439940755E+03  0.86850089058E+03  0.17200000000E+03 0. -1.
         -6    1    1    2    0  502  0.10791970124E+03 -0.72646787264E+01 -0.21740151297E+03  0.29756823640E+03  0.17200000000E+03 0. -1.
</event>
<event>
 4    1  0.4538619E+000  0.1793070E+03  0.7818608E-02  0.1168475E+00
         21   -1    0    0  503  502  0.00000000000E+00  0.00000000000E+00  0.62751773847E+03  0.62751773847E+03  0.00000000000E+00 0. -1.
         21   -1    0    0  501  503 -0.00000000000E+00 -0.00000000000E+00 -0.51369611389E+02  0.51369611389E+02  0.00000000000E+00 0. -1.
          6    1    1    2  501    0  0.26608636923E+02 -0.43115766931E+02  0.27070993481E+03  0.32470734165E+03  0.17200000000E+03 0.  1.
         -6    1    1    2    0  502 -0.26608636923E+02  0.43115766931E+02  0.30543819227E+03  0.35418000821E+03  0.17200000000E+03 0.  1.
</event>
<event>
 4    1  0.4538619E+000  0.2944725E+03  0.7818608E-02  0.1088037E+00
         21   -1    0    0  501  502  0.00000000000E+00  0.00000000000E+00  0.12568540594E+03  0.12568540594E+03  0.00000000000E+00 0. -1.
         21   -1    0    0  502  503 -0.00000000000E+00 -0.00000000000E+00 -0.69158247668E+03  0.69158247668E+03  0.00000000000E+00 0.  1.
          6    1    1    2  501    0 -0.18420628039E+03 -0.15230917760E+03 -0.30292769066E+03  0.42246801664E+03  0.17200000000E+03 0. -1.
         -6    1    1    2    0  503  0.18420628039E+03  0.15230917760E+03 -0.26296938008E+03  0.39479986598E+03  0.17200000000E+03 0.  1.
</event>
<event>
 4    1  0.4538619E+000  0.4777965E+03  0.7818608E-02  0.1019743E+00
         21   -1    0    0  501  502  0.00000000000E+00  0.00000000000E+00  0.97696303568E+03  0.97696303568E+03  0.00000000000E+00 0. -1.
         21   -1    0    0  502  503 -0.00000000000E+00 -0.00000000000E+00 -0.24276893311E+03  0.24276893311E+03  0.00000000000E+00 0.  1.
          6    1    1    2  501    0 -0.42266171181E+03  0.14164227431E+03  0.48514866210E+03  0.68092487166E+03  0.17200000000E+03 0. -1.
         -6    1    1    2    0  503  0.42266171181E+03 -0.14164227431E+03  0.24904544048E+03  0.53880709714E+03  0.17200000000E+03 0.  1.
</event>
<event>
 4    1  0.4538619E+000  0.2288093E+03  0.7818608E-02  0.1127481E+00
         21   -1    0    0  501  502  0.00000000000E+00  0.00000000000E+00  0.74196941821E+02  0.74196941821E+02  0.00000000000E+00 0. -1.
         21   -1    0    0  502  503 -0.00000000000E+00 -0.00000000000E+00 -0.88664443417E+03  0.88664443417E+03  0.00000000000E+00 0. -1.
          6    1    1    2  501    0  0.69806941229E+02  0.13377856516E+03 -0.18913672304E+03  0.29686093300E+03  0.17200000000E+03 0. -1.
         -6    1    1    2    0  503 -0.69806941229E+02 -0.13377856516E+03 -0.62331076931E+03  0.66398044299E+03  0.17200000000E+03 0. -1.
</event>
<event>
 4    1  0.4538619E+000  0.1830332E+03  0.7818608E-02  0.1164899E+00
         21   -1    0    0  503  502  0.00000000000E+00  0.00000000000E+00  0.15976969149E+03  0.15976969149E+03  0.00000000000E+00 0. -1.
         21   -1    0    0  501  503 -0.00000000000E+00 -0.00000000000E+00 -0.20977664320E+03  0.20977664320E+03  0.00000000000E+00 0. -1.
          6    1    1    2  501    0  0.62502872187E+02 -0.32467927228E+01 -0.21120832845E+02  0.18424776871E+03  0.17200000000E+03 0. -1.
         -6    1    1    2    0  502 -0.62502872187E+02  0.32467927228E+01 -0.28886118866E+02  0.18529856599E+03  0.17200000000E+03 0. -1.
</event>
<event>
 4    1  0.4538619E+000  0.2807832E+03  0.7818608E-02  0.1095262E+00
         21   -1    0    0  503  502  0.00000000000E+00  0.00000000000E+00  0.49661788053E+02  0.49661788053E+02  0.00000000000E+00 0.  1.
         21   -1    0    0  501  503 -0.00000000000E+00 -0.00000000000E+00 -0.22154887998E+04  0.22154887998E+04  0.00000000000E+00 0.  1.
          6    1    1    2  501    0  0.20927812859E+03 -0.73877462766E+02 -0.16858900420E+04  0.17091121813E+04  0.17200000000E+03 0.  1.
         -6    1    1    2    0  502 -0.20927812859E+03  0.73877462766E+02 -0.47993696975E+03  0.55603840653E+03  0.17200000000E+03 0.  1.
</event>
<event>
 4    1  0.4538619E+000  0.1839081E+03  0.7818608E-02  0.1164074E+00
         21   -1    0    0  501  502  0.00000000000E+00  0.00000000000E+00  0.64362741399E+02  0.64362741399E+02  0.00000000000E+00 0. -1.
         21   -1    0    0  502  503 -0.00000000000E+00 -0.00000000000E+00 -0.56869584248E+03  0.56869584248E+03  0.00000000000E+00 0. -1.
          6    1    1    2  501    0 -0.47024382042E+02  0.45020918521E+02 -0.33940935294E+03  0.38603223243E+03  0.17200000000E+03 0.  1.
         -6    1    1    2    0  503  0.47024382042E+02 -0.45020918521E+02 -0.16492374815E+03  0.24702635145E+03  0.17200000000E+03 0.  1.
</event>
<event>
 4    1  0.4538619E+000  0.1773024E+03  0.7818608E-02  0.1170440E+00
         21   -1    0    0  501  502  0.00000000000E+00  0.00000000000E+00  0.66959698778E+02  0.66959698778E+02  0.00000000000E+00 0.  1.
         21   -1    0    0  502  503 -0.00000000000E+00 -0.00000000000E+00 -0.56320864500E+03  0.56320864500E+03  0.00000000000E+00 0.  1.
          6    1    1    2  501    0  0.31921812447E+02  0.28863920662E+02 -0.11958635031E+03  0.21386215936E+03  0.17200000000E+03 0.  1.
         -6    1    1    2    0  503 -0.31921812447E+02 -0.28863920662E+02 -0.37666259591E+03  0.41630618442E+03  0.17200000000E+03 0.  1.
</event>
<event>
 4    1  0.4538619E+000  0.1821151E+03  0.7818608E-02  0.1165772E+00
         21   -1    0    0  501  502  0.00000000000E+00  0.00000000000E+00  0.23954273902E+03  0.23954273902E+03  0.00000000000E+00 0. -1.
         21   -1    0    0  502  503 -0.00000000000E+00 -0.00000000000E+00 -0.18417360238E+03  0.18417360238E+03  0.00000000000E+00 0. -1.
          6    1    1    2  501    0 -0.45480350289E+02  0.38903208144E+02  0.13323921737E+03  0.22565152539E+03  0.17200000000E+03 0. -1.
         -6    1    1    2    0  503  0.45480350289E+02 -0.38903208144E+02 -0.77870080730E+02  0.19806481601E+03  0.17200000000E+03 0. -1.
</event>
<event>
 4    1  0.4538619E+000  0.2778096E+03  0.7818608E-02  0.1096891E+00
         21   -1    0    0  503  502  0.00000000000E+00  0.00000000000E+00  0.18979263255E+03  0.18979263255E+03  0.00000000000E+00 0. -1.
         21   -1    0    0  501  503 -0.00000000000E+00 -0.00000000000E+00 -0.58319145080E+03  0.58319145080E+03  0.00000000000E+00 0.  1.
          6    1    1    2  501    0 -0.15519162268E+03  0.15332890496E+03 -0.40934906568E+03  0.49471693969E+03  0.17200000000E+03 0.  1.
         -6    1    1    2    0  502  0.15519162268E+03 -0.15332890496E+03  0.15950247427E+02  0.27826714365E+03  0.17200000000E+03 0.  1.
</event>
<event>
 4    1  0.4538619E+000  0.1767660E+03  0.7818608E-02  0.1170970E+00
         21   -1    0    0  501  502  0.00000000000E+00  0.00000000000E+00  0.18002196150E+02  0.18002196150E+02  0.00000000000E+00 0.  1.
         21   -1    0    0  502  503 -0.00000000000E+00 -0.00000000000E+00 -0.17404698581E+04  0.17404698581E+04  0.00000000000E+00 0.  1.
          6    1    1    2  501    0  0.15872265149E+02 -0.37554061521E+02 -0.81515851053E+03  0.83410409040E+03  0.17200000000E+03 0.  1.
         -6    1    1    2    0  503 -0.15872265149E+02  0.37554061521E+02 -0.90730915145E+03  0.92436796388E+03  0.17200000000E+03 0.  1.
</event>
<event>
 4    1  0.4538619E+000  0.1952004E+03  0.7818608E-02  0.1153853E+00
         21   -1    0    0  501  502  0.00000000000E+00  0.00000000000E+00  0.22423723214E+03  0.22423723214E+03  0.00000000000E+00 0. -1.
         21   -1    0    0  502  503 -0.00000000000E+00 -0.00000000000E+00 -0.19904790565E+03  0.19904790565E+03  0.00000000000E+00 0. -1.
          6    1    1    2  501    0 -0.45527786315E+02 -0.80289547578E+02  0.93551259389E+02  0.21646022478E+03  0.17200000000E+03 0. -1.
         -6    1    1    2    0  503  0.45527786315E+02  0.80289547578E+02 -0.68361932898E+02  0.20682491302E+03  0.17200000000E+03 0. -1.
</event>
<event>
 4    1  0.4538619E+000  0.1826729E+03  0.7818608E-02  0.1165241E+00
         21   -1    0    0  501  502  0.00000000000E+00  0.00000000000E+00  0.84707228438E+03  0.84707228438E+03  0.00000000000E+00 0. -1.
         21   -1    0    0  502  503 -0.00000000000E+00 -0.00000000000E+00 -0.41049003488E+02  0.41049003488E+02  0.00000000000E+00 0. -1.
          6    1    1    2  501    0 -0.61421375416E+02 -0.35793960099E+01  0.49218116965E+03  0.52498733432E+03  0.17200000000E+03 0. -1.
         -6    1    1    2    0  503  0.61421375416E+02  0.35793960099E+01  0.31384211124E+03  0.36313395355E+03  0.17200000000E+03 0. -1.
</event>
<event>
 4    1  0.4538619E+000  0.2084907E+03  0.7818608E-02  0.1142767E+00
         21   -1    0    0  503  502  0.00000000000E+00  0.00000000000E+00  0.21381459027E+03  0.21381459027E+03  0.00000000000E+00 0. -1.
         21   -1    0    0  501  503 -0.00000000000E+00 -0.00000000000E+00 -0.31902004865E+03  0.31902004865E+03  0.00000000000E+00 0.  1.
          6    1    1    2  501    0 -0.65191866608E+02  0.98154913831E+02 -0.21305984998E+03  0.29809875252E+03  0.17200000000E+03 0. -1.
         -6    1    1    2    0  502  0.65191866608E+02 -0.98154913831E+02  0.10785439160E+03  0.23473588641E+03  0.17200000000E+03 0.  1.
</event>
<event>
 4    1  0.4538619E+000  0.2265572E+03  0.7818608E-02  0.1129087E+00
         21   -1    0    0  501  502  0.00000000000E+00  0.00000000000E+00  0.61441341676E+03  0.61441341676E+03  0.00000000000E+00 0. -1.
         21   -1    0    0  502  503 -0.00000000000E+00 -0.00000000000E+00 -0.83790221583E+02  0.83790221583E+02  0.00000000000E+00 0.  1.
          6    1    1    2  501    0 -0.37354622977E+02  0.14264914030E+03  0.28438594393E+03  0.36359800631E+03  0.17200000000E+03 0.  1.
         -6    1    1    2    0  503  0.37354622977E+02 -0.14264914030E+03  0.24623725124E+03  0.33460563203E+03  0.17200000000E+03 0.  1.
</event>
<event>
 4    1  0.4538619E+000  0.2643607E+03  0.7818608E-02  0.1104551E+00
         21   -1    0    0  503  502  0.00000000000E+00  0.00000000000E+00  0.35545233952E+03  0.35545233952E+03  0.00000000000E+00 0.  1.
         21   -1    0    0  501  503 -0.00000000000E+00 -0.00000000000E+00 -0.36920974005E+03  0.36920974005E+03  0.00000000000E+00 0. -1.
          6    1    1    2  501    0  0.18486934740E+03  0.78268022953E+02 -0.25461248114E+03  0.36703415996E+03  0.17200000000E+03 0. -1.
         -6    1    1    2    0  502 -0.18486934740E+03 -0.78268022953E+02  0.24085508061E+03  0.35762791960E+03  0.17200000000E+03 0.  1.
</event>
<event>
 4    1  0.4538619E+000  0.2336035E+03  0.7818608E-02  0.1124129E+00
         21   -1    0    0  503  502  0.00000000000E+00  0.00000000000E+00  0.60508913109E+03  0.60508913109E+03  0.00000000000E+00 0.  1.
         21   -1    0    0  501  503 -0.00000000000E+00 -0.00000000000E+00 -0.18017812504E+03  0.18017812504E+03  0.00000000000E+00 0. -1.
          6    1    1    2  501    0  0.13886248120E+03  0.75523431126E+02 -0.65028965298E+02  0.24248575971E+03  0.17200000000E+03 0.  1.
         -6    1    1    2    0  502 -0.13886248120E+03 -0.75523431126E+02  0.48993997135E+03  0.54278149642E+03  0.17200000000E+03 0.  1.
</event>
<event>
 4    1  0.4538619E+000  0.2792679E+03  0.7818608E-02  0.1096089E+00
         21   -1    0    0  501  502  0.00000000000E+00  0.00000000000E+00  0.28452546125E+03  0.28452546125E+03  0.00000000000E+00 0.  1.
         21   -1    0    0  502  503 -0.00000000000E+00 -0.00000000000E+00 -0.34344985485E+03  0.34344985485E+03  0.00000000000E+00 0. -1.
          6    1    1    2  501    0 -0.61158931748E+02  0.21134368936E+03  0.11162256975E+03  0.30074934421E+03  0.17200000000E+03 0.  1.
         -6    1    1    2    0  503  0.61158931748E+02 -0.21134368936E+03 -0.17054696335E+03  0.32722597188E+03  0.17200000000E+03 0. -1.
</event>
<event>
 4    1  0.4538619E+000  0.1721242E+03  0.7818608E-02  0.1175651E+00
         21   -1    0    0  501  502  0.00000000000E+00  0.00000000000E+00  0.73639164511E+02  0.73639164511E+02  0.00000000000E+00 0.  1.
         21   -1    0    0  502  503 -0.00000000000E+00 -0.00000000000E+00 -0.50323999948E+03  0.50323999948E+03  0.00000000000E+00 0.  1.
          6    1    1    2  501    0 -0.64792073787E+01  0.88108511663E+00 -0.34396655140E+03  0.38462936045E+03  0.17200000000E+03 0.  1.
         -6    1    1    2    0  503  0.64792073787E+01 -0.88108511663E+00 -0.85634283571E+02  0.19224980354E+03  0.17200000000E+03 0.  1.
</event>
<event>
 4    1  0.4538619E+000  0.1838654E+03  0.7818608E-02  0.1164114E+00
         21   -1    0    0  501  502  0.00000000000E+00  0.00000000000E+00  0.32588245460E+03  0.32588245460E+03  0.00000000000E+00 0.  1.
         21   -1    0    0  502  503 -0.00000000000E+00 -0.00000000000E+00 -0.11094040694E+03  0.11094040694E+03  0.00000000000E+00 0.  1.
          6    1    1    2  501    0 -0.16962007454E+02 -0.62727781696E+02  0.51821562140E+02  0.19102868527E+03  0.17200000000E+03 0.  1.
         -6    1    1    2    0  503  0.16962007454E+02  0.62727781696E+02  0.16312048552E+03  0.24579417627E+03  0.17200000000E+03 0.  1.
</event>
<event>
 4    1  0.4538619E+000  0.2713527E+03  0.7818608E-02  0.1100508E+00
         21   -1    0    0  501  502  0.00000000000E+00  0.00000000000E+00  0.20815405182E+03  0.20815405182E+03  0.00000000000E+00 0.  1.
         21   -1    0    0  502  503 -0.00000000000E+00 -0.00000000000E+00 -0.40059261826E+03  0.40059261826E+03  0.00000000000E+00 0. -1.
          6    1    1    2  501    0 -0.20948476115E+03  0.12823392939E+02  0.78744316473E+01  0.27146696159E+03  0.17200000000E+03 0.  1.
         -6    1    1    2    0  503  0.20948476115E+03 -0.12823392939E+02 -0.20031299809E+03  0.33727970849E+03  0.17200000000E+03 0. -1.
</event>
<event>
 4    1  0.4538619E+000  0.1857167E+03  0.7818608E-02  0.1162382E+00
         21   -1    0    0  501  502  0.00000000000E+00  0.00000000000E+00  0.11126343463E+03  0.11126343463E+03  0.00000000000E+00 0.  1.
         21   -1    0    0  502  503 -0.00000000000E+00 -0.00000000000E+00 -0.38004417684E+03  0.38004417684E+03  0.00000000000E+00 0.  1.
          6    1    1    2  501    0  0.18716167563E+02 -0.67501076130E+02 -0.28922634689E+02  0.18795533779E+03  0.17200000000E+03 0.  1.
         -6    1    1    2    0  503 -0.18716167563E+02  0.67501076130E+02 -0.23985810752E+03  0.30335227369E+03  0.17200000000E+03 0.  1.
</event>
<event>
 4    1  0.4538619E+000  0.2392853E+03  0.7818608E-02  0.1120270E+00
         21   -1    0    0  503  502  0.00000000000E+00  0.00000000000E+00  0.63767817378E+03  0.63767817378E+03  0.00000000000E+00 0. -1.
         21   -1    0    0  501  503 -0.00000000000E+00 -0.00000000000E+00 -0.10211725076E+03  0.10211725076E+03  0.00000000000E+00 0. -1.
          6    1    1    2  501    0  0.64856643660E+02  0.15318958690E+03  0.39629629141E+03  0.46293431969E+03  0.17200000000E+03 0. -1.
         -6    1    1    2    0  502 -0.64856643660E+02 -0.15318958690E+03  0.13926463162E+03  0.27686110486E+03  0.17200000000E+03 0. -1.
</event>
<event>
 4    1  0.4538619E+000  0.3271554E+03  0.7818608E-02  0.1072403E+00
         21   -1    0    0  501  502  0.00000000000E+00  0.00000000000E+00  0.10753331547E+04  0.10753331547E+04  0.00000000000E+00 0. -1.
         21   -1    0    0  502  503 -0.00000000000E+00 -0.00000000000E+00 -0.10594110607E+03  0.10594110607E+03  0.00000000000E+00 0. -1.
          6    1    1    2  501    0  0.18786542948E+03 -0.20531249208E+03  0.33942835598E+03  0.47142576068E+03  0.17200000000E+03 0. -1.
         -6    1    1    2    0  503 -0.18786542948E+03  0.20531249208E+03  0.62996369261E+03  0.70984850004E+03  0.17200000000E+03 0. -1.
</event>
<event>
 4    1  0.4538619E+000  0.2100352E+03  0.7818608E-02  0.1141538E+00
         21   -1    0    0  503  502  0.00000000000E+00  0.00000000000E+00  0.64244587350E+03  0.64244587350E+03  0.00000000000E+00 0.  1.
         21   -1    0    0  501  503 -0.00000000000E+00 -0.00000000000E+00 -0.10411135991E+03  0.10411135991E+03  0.00000000000E+00 0.  1.
          6    1    1    2  501    0 -0.11828560494E+03 -0.23222873475E+02  0.48696734269E+03  0.53033195174E+03  0.17200000000E+03 0.  1.
         -6    1    1    2    0  502  0.11828560494E+03  0.23222873475E+02  0.51367170901E+02  0.21622528168E+03  0.17200000000E+03 0.  1.
</event>
<event>
 4    1  0.4538619E+000  0.2015661E+03  0.7818608E-02  0.1148424E+00
         21   -1    0    0  503  502  0.00000000000E+00  0.00000000000E+00  0.12347148252E+03  0.12347148252E+03  0.00000000000E+00 0.  1.
         21   -1    0    0  501  503 -0.00000000000E+00 -0.00000000000E+00 -0.33182794687E+03  0.33182794687E+03  0.00000000000E+00 0.  1.
          6    1    1    2  501    0 -0.64134135803E+02 -0.83256937161E+02 -0.12498879205E+03  0.23717315004E+03  0.17200000000E+03 0.  1.
         -6    1    1    2    0  502  0.64134135803E+02  0.83256937161E+02 -0.83367672291E+02  0.21812627935E+03  0.17200000000E+03 0.  1.
</event>
<event>
 4    1  0.4538619E+000  0.1970463E+03  0.7818608E-02  0.1152255E+00
         21   -1    0    0  501  502  0.00000000000E+00  0.00000000000E+00  0.12385812656E+04  0.12385812656E+04  0.00000000000E+00 0.  1.
         21   -1    0    0  502  503 -0.00000000000E+00 -0.00000000000E+00 -0.31696957347E+02  0.31696957347E+02  0.00000000000E+00 0. -1.
          6    1    1    2  501    0  0.94761960092E+02  0.16230345687E+02  0.53681644050E+03  0.57183838975E+03  0.17200000000E+03 0. -1.
         -6    1    1    2    0  503 -0.94761960092E+02 -0.16230345687E+02  0.67006786778E+03  0.69843983322E+03  0.17200000000E+03 0. -1.
</event>
<event>
 4    1  0.4538619E+000  0.1832348E+03  0.7818608E-02  0.1164709E+00
         21   -1    0    0  503  502  0.00000000000E+00  0.00000000000E+00  0.54994520382E+03  0.54994520382E+03  0.00000000000E+00 0. -1.
         21   -1    0    0  501  503 -0.00000000000E+00 -0.00000000000E+00 -0.12452757867E+03  0.12452757867E+03  0.00000000000E+00 0. -1.
          6    1    1    2  501    0  0.61924792264E+02 -0.12502975101E+02 -0.28063504834E+02  0.18537142333E+03  0.17200000000E+03 0. -1.
         -6    1    1    2    0  502 -0.61924792264E+02  0.12502975101E+02  0.45348112998E+03  0.48910135916E+03  0.17200000000E+03 0. -1.
</event>
<event>
 4    1  0.4538619E+000  0.1986220E+03  0.7818608E-02  0.1150907E+00
         21   -1    0    0  501  502  0.00000000000E+00  0.00000000000E+00  0.66681312754E+02  0.66681312754E+02  0.00000000000E+00 0.  1.
         21   -1    0    0  502  503 -0.00000000000E+00 -0.00000000000E+00 -0.68004933696E+03  0.68004933696E+03  0.00000000000E+00 0.  1.
          6    1    1    2  501    0 -0.99281288781E+02 -0.31520424883E+01 -0.17205590023E+03  0.26278116842E+03  0.17200000000E+03 0.  1.
         -6    1    1    2    0  503  0.99281288781E+02  0.31520424883E+01 -0.44131212397E+03  0.48394948129E+03  0.17200000000E+03 0.  1.
</event>
<event>
 4    1  0.4538619E+000  0.2761558E+03  0.7818608E-02  0.1097807E+00
         21   -1    0    0  503  502  0.00000000000E+00  0.00000000000E+00  0.46539228493E+03  0.46539228493E+03  0.00000000000E+00 0.  1.
         21   -1    0    0  501  503 -0.00000000000E+00 -0.00000000000E+00 -0.16464332210E+03  0.16464332210E+03  0.00000000000E+00 0.  1.
          6    1    1    2  501    0  0.11720178682E+03 -0.18149869754E+03  0.12873109574E+03  0.30468628301E+03  0.17200000000E+03 0.  1.
         -6    1    1    2    0  502 -0.11720178682E+03  0.18149869754E+03  0.17201786709E+03  0.32534932402E+03  0.17200000000E+03 0.  1.
</event>
<event>
 4    1  0.4538619E+000  0.1783385E+03  0.7818608E-02  0.1169421E+00
         21   -1    0    0  503  502  0.00000000000E+00  0.00000000000E+00  0.61124225615E+03  0.61124225615E+03  0.00000000000E+00 0.  1.
         21   -1    0    0  501  503 -0.00000000000E+00 -0.00000000000E+00 -0.74945459926E+02  0.74945459926E+02  0.00000000000E+00 0.  1.
          6    1    1    2  501    0 -0.36468322677E+02  0.29844051223E+02  0.78443451436E+02  0.19482808069E+03  0.17200000000E+03 0.  1.
         -6    1    1    2    0  502  0.36468322677E+02 -0.29844051223E+02  0.45785334479E+03  0.49135963538E+03  0.17200000000E+03 0.  1.
</event>
<event>
 4    1  0.4538619E+000  0.2031871E+03  0.7818608E-02  0.1147078E+00
         21   -1    0    0  501  502  0.00000000000E+00  0.00000000000E+00  0.33738146991E+03  0.33738146991E+03  0.00000000000E+00 0. -1.
         21   -1    0    0  502  503 -0.00000000000E+00 -0.00000000000E+00 -0.12538806595E+03  0.12538806595E+03  0.00000000000E+00 0.  1.
          6    1    1    2  501    0 -0.84812608534E+02 -0.67140403799E+02  0.14190107748E+03  0.24783245990E+03  0.17200000000E+03 0. -1.
         -6    1    1    2    0  503  0.84812608534E+02  0.67140403799E+02  0.70092326484E+02  0.21493707596E+03  0.17200000000E+03 0.  1.
</event>
<event>
 4    1  0.4538619E+000  0.2410559E+03  0.7818608E-02  0.1119091E+00
         21   -1    0    0  503  502  0.00000000000E+00  0.00000000000E+00  0.24067595508E+03  0.24067595508E+03  0.00000000000E+00 0. -1.
         21   -1    0    0  501  503 -0.00000000000E+00 -0.00000000000E+00 -0.27227420874E+03  0.27227420874E+03  0.00000000000E+00 0. -1.
          6    1    1    2  501    0  0.42023295630E+02 -0.16357864168E+03 -0.10211365052E+03  0.26179214467E+03  0.17200000000E+03 0. -1.
         -6    1    1    2    0  502 -0.42023295630E+02  0.16357864168E+03  0.70515396866E+02  0.25115801915E+03  0.17200000000E+03 0. -1.
</event>
<event>
 4    1  0.4538619E+000  0.2136756E+03  0.7818608E-02  0.1138688E+00
         21   -1    0    0  503  502  0.00000000000E+00  0.00000000000E+00  0.11278008183E+03  0.11278008183E+03  0.00000000000E+00 0. -1.
         21   -1    0    0  501  503 -0.00000000000E+00 -0.00000000000E+00 -0.69067491378E+03  0.69067491378E+03  0.00000000000E+00 0.  1.
          6    1    1    2  501    0  0.30717719044E+02 -0.12300286296E+03 -0.54738545485E+03  0.58761221800E+03  0.17200000000E+03 0.  1.
         -6    1    1    2    0  502 -0.30717719044E+02  0.12300286296E+03 -0.30509377103E+02  0.21584277762E+03  0.17200000000E+03 0. -1.
</event>
<event>
 4    1  0.4538619E+000  0.1820683E+03  0.7818608E-02  0.1165816E+00
         21   -1    0    0  501  502  0.00000000000E+00  0.00000000000E+00  0.85914447798E+03  0.85914447798E+03  0.00000000000E+00 0.  1.
         21   -1    0    0  502  503 -0.00000000000E+00 -0.00000000000E+00 -0.11299971785E+03  0.11299971785E+03  0.00000000000E+00 0.  1.
          6    1    1    2  501    0 -0.28538594436E+02  0.52444461588E+02  0.76752565374E+03  0.78882476005E+03  0.17200000000E+03 0.  1.
         -6    1    1    2    0  503  0.28538594436E+02 -0.52444461588E+02 -0.21380893602E+02  0.18331943578E+03  0.17200000000E+03 0.  1.
</event>
<event>
 4    1  0.4538619E+000  0.1748866E+03  0.7818608E-02  0.1172846E+00
         21   -1    0    0  503  502  0.00000000000E+00  0.00000000000E+00  0.63568338986E+02  0.63568338986E+02  0.00000000000E+00 0. -1.
         21   -1    0    0  501  503 -0.00000000000E+00 -0.00000000000E+00 -0.68907410410E+03  0.68907410410E+03  0.00000000000E+00 0.  1.
          6    1    1    2  501    0 -0.19195506398E+02  0.25156401888E+02 -0.51947546793E+03  0.54812414086E+03  0.17200000000E+03 0.  1.
         -6    1    1    2    0  502  0.19195506398E+02 -0.25156401888E+02 -0.10603029719E+03  0.20451830222E+03  0.17200000000E+03 0. -1.
</event>
<event>
 4    1  0.4538619E+000  0.1745662E+03  0.7818608E-02  0.1173168E+00
         21   -1    0    0  503  502  0.00000000000E+00  0.00000000000E+00  0.55865925573E+03  0.55865925573E+03  0.00000000000E+00 0.  1.
         21   -1    0    0  501  503 -0.00000000000E+00 -0.00000000000E+00 -0.54547627970E+02  0.54547627970E+02  0.00000000000E+00 0.  1.
          6    1    1    2  501    0 -0.24701210700E+02 -0.16709810958E+02  0.25133238797E+03  0.30600872019E+03  0.17200000000E+03 0.  1.
         -6    1    1    2    0  502  0.24701210700E+02  0.16709810958E+02  0.25277923979E+03  0.30719816351E+03  0.17200000000E+03 0.  1.
</event>
<event>
 4    1  0.4538619E+000  0.1726323E+03  0.7818608E-02  0.1175130E+00
         21   -1    0    0  503  502  0.00000000000E+00  0.00000000000E+00  0.67749045006E+02  0.67749045006E+02  0.00000000000E+00 0. -1.
         21   -1    0    0  501  503 -0.00000000000E+00 -0.00000000000E+00 -0.45228581811E+03  0.45228581811E+03  0.00000000000E+00 0. -1.
          6    1    1    2  501    0  0.12394136708E+02 -0.80183729789E+01 -0.23532006230E+03  0.29185174430E+03  0.17200000000E+03 0. -1.
         -6    1    1    2    0  502 -0.12394136708E+02  0.80183729789E+01 -0.14921671081E+03  0.22818311882E+03  0.17200000000E+03 0. -1.
</event>
<event>
 4    1  0.4538619E+000  0.1803435E+03  0.7818608E-02  0.1167471E+00
         21   -1    0    0  503  502  0.00000000000E+00  0.00000000000E+00  0.58336683724E+03  0.58336683724E+03  0.00000000000E+00 0.  1.
         21   -1    0    0  501  503 -0.00000000000E+00 -0.00000000000E+00 -0.26804682014E+03  0.26804682014E+03  0.00000000000E+00 0.  1.
          6    1    1    2  501    0  0.54191003426E+02 -0.17679181322E+01 -0.22119682202E+03  0.28539766022E+03  0.17200000000E+03 0.  1.
         -6    1    1    2    0  502 -0.54191003426E+02  0.17679181322E+01  0.53651683912E+03  0.56601599716E+03  0.17200000000E+03 0.  1.
</event>
<event>
 4    1  0.4538619E+000  0.1942539E+03  0.7818608E-02  0.1154680E+00
         21   -1    0    0  501  502  0.00000000000E+00  0.00000000000E+00  0.22132920234E+04  0.22132920234E+04  0.00000000000E+00 0.  1.
         21   -1    0    0  502  503 -0.00000000000E+00 -0.00000000000E+00 -0.30889982264E+02  0.30889982264E+02  0.00000000000E+00 0.  1.
          6    1    1    2  501    0  0.61485103342E+02  0.66107205508E+02  0.18423075515E+04  0.18525203629E+04  0.17200000000E+03 0.  1.
         -6    1    1    2    0  503 -0.61485103342E+02 -0.66107205508E+02  0.34009448964E+03  0.39166164280E+03  0.17200000000E+03 0.  1.
</event>
<event>
 4    1  0.4538619E+000  0.2453514E+03  0.7818608E-02  0.1116278E+00
         21   -1    0    0  501  502  0.00000000000E+00  0.00000000000E+00  0.86267537254E+02  0.86267537254E+02  0.00000000000E+00 0.  1.
         21   -1    0    0  502  503 -0.00000000000E+00 -0.00000000000E+00 -0.10301967712E+04  0.10301967712E+04  0.00000000000E+00 0. -1.
          6    1    1    2  501    0 -0.14836414946E+03  0.92743778146E+02 -0.15487329774E+03  0.29014318462E+03  0.17200000000E+03 0.  1.
         -6    1    1    2    0  503  0.14836414946E+03 -0.92743778146E+02 -0.78905593624E+03  0.82632112386E+03  0.17200000000E+03 0. -1.
</event>
<event>
 4    1  0.4538619E+000  0.1745036E+03  0.7818608E-02  0.1173231E+00
         21   -1    0    0  501  502  0.00000000000E+00  0.00000000000E+00  0.59948005986E+03  0.59948005986E+03  0.00000000000E+00 0. -1.
         21   -1    0    0  502  503 -0.00000000000E+00 -0.00000000000E+00 -0.25610051208E+03  0.25610051208E+03  0.00000000000E+00 0. -1.
          6    1    1    2  501    0 -0.28626145938E+02  0.69320319514E+01  0.55471235396E+03  0.58151294477E+03  0.17200000000E+03 0. -1.
         -6    1    1    2    0  503  0.28626145938E+02 -0.69320319514E+01 -0.21133280618E+03  0.27406762718E+03  0.17200000000E+03 0. -1.
</event>
<event>
 4    1  0.4538619E+000  0.3265762E+03  0.7818608E-02  0.1072662E+00
         21   -1    0    0  501  502  0.00000000000E+00  0.00000000000E+00  0.12855060927E+03  0.12855060927E+03  0.00000000000E+00 0. -1.
         21   -1    0    0  502  503 -0.00000000000E+00 -0.00000000000E+00 -0.13973474005E+04  0.13973474005E+04  0.00000000000E+00 0.  1.
          6    1    1    2  501    0  0.21588040189E+03  0.17453844742E+03 -0.14810121193E+03  0.35858888232E+03  0.17200000000E+03 0. -1.
         -6    1    1    2    0  503 -0.21588040189E+03 -0.17453844742E+03 -0.11206955793E+04  0.11673091274E+04  0.17200000000E+03 0.  1.
</event>
<event>
 4    1  0.4538619E+000  0.2951843E+03  0.7818608E-02  0.1087673E+00
         21   -1    0    0  501  502  0.00000000000E+00  0.00000000000E+00  0.32787518633E+04  0.32787518633E+04  0.00000000000E+00 0.  1.
         21   -1    0    0  502  503 -0.00000000000E+00 -0.00000000000E+00 -0.43870672338E+02  0.43870672338E+02  0.00000000000E+00 0. -1.
          6    1    1    2  501    0 -0.19508327668E+03 -0.13961483026E+03  0.26605477726E+04  0.26768728464E+04  0.17200000000E+03 0.  1.
         -6    1    1    2    0  503  0.19508327668E+03  0.13961483026E+03  0.57433341841E+03  0.64574968926E+03  0.17200000000E+03 0. -1.
</event>
<event>
 4    1  0.4538619E+000  0.3136104E+03  0.7818608E-02  0.1078628E+00
         21   -1    0    0  503  502  0.00000000000E+00  0.00000000000E+00  0.14441135179E+04  0.14441135179E+04  0.00000000000E+00 0. -1.
         21   -1    0    0  501  503 -0.00000000000E+00 -0.00000000000E+00 -0.84644374166E+02  0.84644374166E+02  0.00000000000E+00 0.  1.
          6    1    1    2  501    0  0.25201226240E+03  0.72507290218E+02  0.34185031012E+03  0.46391068328E+03  0.17200000000E+03 0.  1.
         -6    1    1    2    0  502 -0.25201226240E+03 -0.72507290218E+02  0.10176188336E+04  0.10648472088E+04  0.17200000000E+03 0. -1.
</event>
<event>
 4    1  0.4538619E+000  0.2564990E+03  0.7818608E-02  0.1109265E+00
         21   -1    0    0  501  502  0.00000000000E+00  0.00000000000E+00  0.10569880698E+03  0.10569880698E+03  0.00000000000E+00 0. -1.
         21   -1    0    0  502  503 -0.00000000000E+00 -0.00000000000E+00 -0.82791467063E+03  0.82791467063E+03  0.00000000000E+00 0. -1.
          6    1    1    2  501    0  0.10518106309E+03  0.15857082385E+03 -0.12855730891E+03  0.28691243243E+03  0.17200000000E+03 0. -1.
         -6    1    1    2    0  503 -0.10518106309E+03 -0.15857082385E+03 -0.59365855474E+03  0.64670104517E+03  0.17200000000E+03 0. -1.
</event>
<event>
 4    1  0.4538619E+000  0.1816006E+03  0.7818608E-02  0.1166263E+00
         21   -1    0    0  501  502  0.00000000000E+00  0.00000000000E+00  0.33512163890E+02  0.33512163890E+02  0.00000000000E+00 0.  1.
         21   -1    0    0  502  503 -0.00000000000E+00 -0.00000000000E+00 -0.14631417157E+04  0.14631417157E+04  0.00000000000E+00 0.  1.
          6    1    1    2  501    0  0.41562979384E+01 -0.58116344780E+02 -0.28661927215E+03  0.33930722290E+03  0.17200000000E+03 0.  1.
         -6    1    1    2    0  503 -0.41562979384E+01  0.58116344780E+02 -0.11430102796E+04  0.11573466567E+04  0.17200000000E+03 0.  1.
</event>
<event>
 4    1  0.4538619E+000  0.1939388E+03  0.7818608E-02  0.1154956E+00
         21   -1    0    0  501  502  0.00000000000E+00  0.00000000000E+00  0.28960856692E+03  0.28960856692E+03  0.00000000000E+00 0.  1.
         21   -1    0    0  502  503 -0.00000000000E+00 -0.00000000000E+00 -0.13395364005E+03  0.13395364005E+03  0.00000000000E+00 0. -1.
          6    1    1    2  501    0  0.76704201657E+02  0.46310960403E+02  0.11479251588E+03  0.22536539510E+03  0.17200000000E+03 0. -1.
         -6    1    1    2    0  503 -0.76704201657E+02 -0.46310960403E+02  0.40862410989E+02  0.19819681187E+03  0.17200000000E+03 0. -1.
</event>
<event>
 4    1  0.4538619E+000  0.1908860E+03  0.7818608E-02  0.1157665E+00
         21   -1    0    0  503  502  0.00000000000E+00  0.00000000000E+00  0.19781846769E+04  0.19781846769E+04  0.00000000000E+00 0. -1.
         21   -1    0    0  501  503 -0.00000000000E+00 -0.00000000000E+00 -0.33843479962E+02  0.33843479962E+02  0.00000000000E+00 0. -1.
          6    1    1    2  501    0 -0.10521287632E+02  0.82114455742E+02  0.29302548353E+03  0.34971619255E+03  0.17200000000E+03 0. -1.
         -6    1    1    2    0  502  0.10521287632E+02 -0.82114455742E+02  0.16513157134E+04  0.16623119643E+04  0.17200000000E+03 0. -1.
</event>
<event>
 4    1  0.4538619E+000  0.2010310E+03  0.7818608E-02  0.1148872E+00
         21   -1    0    0  501  502  0.00000000000E+00  0.00000000000E+00  0.26853475864E+03  0.26853475864E+03  0.00000000000E+00 0.  1.
         21   -1    0    0  502  503 -0.00000000000E+00 -0.00000000000E+00 -0.27204371008E+03  0.27204371008E+03  0.00000000000E+00 0.  1.
          6    1    1    2  501    0  0.81442675212E+02 -0.64780721733E+02  0.17891404973E+03  0.26911649604E+03  0.17200000000E+03 0.  1.
         -6    1    1    2    0  503 -0.81442675212E+02  0.64780721733E+02 -0.18242300116E+03  0.27146197267E+03  0.17200000000E+03 0.  1.
</event>
<event>
 4    1  0.4538619E+000  0.1844453E+03  0.7818608E-02  0.1163569E+00
         21   -1    0    0  503  502  0.00000000000E+00  0.00000000000E+00  0.20108761387E+03  0.20108761387E+03  0.00000000000E+00 0.  1.
         21   -1    0    0  501  503 -0.00000000000E+00 -0.00000000000E+00 -0.18443968947E+03  0.18443968947E+03  0.00000000000E+00 0. -1.
          6    1    1    2  501    0 -0.39880624417E+01 -0.66484258404E+02 -0.47121581263E+02  0.19036939008E+03  0.17200000000E+03 0. -1.
         -6    1    1    2    0  502  0.39880624417E+01  0.66484258404E+02  0.63769505662E+02  0.19515791327E+03  0.17200000000E+03 0.  1.
</event>
<event>
 4    1  0.4538619E+000  0.1782987E+03  0.7818608E-02  0.1169460E+00
         21   -1    0    0  503  502  0.00000000000E+00  0.00000000000E+00  0.18391226797E+03  0.18391226797E+03  0.00000000000E+00 0.  1.
         21   -1    0    0  501  503 -0.00000000000E+00 -0.00000000000E+00 -0.17404380847E+03  0.17404380847E+03  0.00000000000E+00 0.  1.
          6    1    1    2  501    0 -0.37605894501E+02 -0.28146679632E+02 -0.98481499316E+01  0.17857050409E+03  0.17200000000E+03 0. -1.
         -6    1    1    2    0  502  0.37605894501E+02  0.28146679632E+02  0.19716609433E+02  0.17938557234E+03  0.17200000000E+03 0. -1.
</event>
<event>
 4    1  0.4538619E+000  0.4399217E+03  0.7818608E-02  0.1030771E+00
         21   -1    0    0  501  502  0.00000000000E+00  0.00000000000E+00  0.14195280660E+04  0.14195280660E+04  0.00000000000E+00 0. -1.
         21   -1    0    0  502  503 -0.00000000000E+00 -0.00000000000E+00 -0.16954439545E+03  0.16954439545E+03  0.00000000000E+00 0.  1.
          6    1    1    2  501    0  0.40490352715E+03 -0.50870115418E+00  0.97663610805E+03  0.10711438804E+04  0.17200000000E+03 0. -1.
         -6    1    1    2    0  503 -0.40490352715E+03  0.50870115418E+00  0.27334756248E+03  0.51792858097E+03  0.17200000000E+03 0.  1.
</event>
<event>
 4    1  0.4538619E+000  0.1938551E+03  0.7818608E-02  0.1155030E+00
         21   -1    0    0  503  502  0.00000000000E+00  0.00000000000E+00  0.69660785392E+03  0.69660785392E+03  0.00000000000E+00 0.  1.
         21   -1    0    0  501  503 -0.00000000000E+00 -0.00000000000E+00 -0.17224074363E+03  0.17224074363E+03  0.00000000000E+00 0. -1.
          6    1    1    2  501    0  0.18148443094E+02 -0.87558246298E+02 -0.97836995473E+02  0.21714485986E+03  0.17200000000E+03 0. -1.
         -6    1    1    2    0  502 -0.18148443094E+02  0.87558246298E+02  0.62220410576E+03  0.65170373768E+03  0.17200000000E+03 0.  1.
</event>
<event>
 4    1  0.4538619E+000  0.2781398E+03  0.7818608E-02  0.1096709E+00
         21   -1    0    0  503  502  0.00000000000E+00  0.00000000000E+00  0.32735372880E+03  0.32735372880E+03  0.00000000000E+00 0. -1.
         21   -1    0    0  501  503 -0.00000000000E+00 -0.00000000000E+00 -0.27438984481E+03  0.27438984481E+03  0.00000000000E+00 0. -1.
          6    1    1    2  501    0  0.19952434044E+02  0.21766865482E+03 -0.85580915879E+02  0.29100830930E+03  0.17200000000E+03 0. -1.
         -6    1    1    2    0  502 -0.19952434044E+02 -0.21766865482E+03  0.13854479987E+03  0.31073526431E+03  0.17200000000E+03 0. -1.
</event>
<event>
 4    1  0.4538619E+000  0.2491399E+03  0.7818608E-02  0.1113850E+00
         21   -1    0    0  501  502  0.00000000000E+00  0.00000000000E+00  0.76053576551E+03  0.76053576551E+03  0.00000000000E+00 0. -1.
         21   -1    0    0  502  503 -0.00000000000E+00 -0.00000000000E+00 -0.12124005198E+03  0.12124005198E+03  0.00000000000E+00 0.  1.
          6    1    1    2  501    0  0.14399748173E+03 -0.10840400207E+03  0.57170157581E+03  0.62362921211E+03  0.17200000000E+03 0. -1.
         -6    1    1    2    0  503 -0.14399748173E+03  0.10840400207E+03  0.67594137719E+02  0.25814660537E+03  0.17200000000E+03 0.  1.
</event>
<event>
 4    1  0.4538619E+000  0.1753470E+03  0.7818608E-02  0.1172384E+00
         21   -1    0    0  501  502  0.00000000000E+00  0.00000000000E+00  0.24040668590E+03  0.24040668590E+03  0.00000000000E+00 0.  1.
         21   -1    0    0  502  503 -0.00000000000E+00 -0.00000000000E+00 -0.63214177033E+03  0.63214177033E+03  0.00000000000E+00 0.  1.
          6    1    1    2  501    0  0.29592711722E+02 -0.16936311149E+02  0.19378213220E+03  0.26133901733E+03  0.17200000000E+03 0.  1.
         -6    1    1    2    0  503 -0.29592711722E+02  0.16936311149E+02 -0.58551721663E+03  0.61120943890E+03  0.17200000000E+03 0.  1.
</event>
<event>
 4    1  0.4538619E+000  0.1865174E+03  0.7818608E-02  0.1161640E+00
         21   -1    0    0  503  502  0.00000000000E+00  0.00000000000E+00  0.69450047027E+03  0.69450047027E+03  0.00000000000E+00 0. -1.
         21   -1    0    0  501  503 -0.00000000000E+00 -0.00000000000E+00 -0.50908379842E+02  0.50908379842E+02  0.00000000000E+00 0. -1.
          6    1    1    2  501    0 -0.33602196112E+02  0.63840784951E+02  0.27459203384E+03  0.33194809602E+03  0.17200000000E+03 0. -1.
         -6    1    1    2    0  502  0.33602196112E+02 -0.63840784951E+02  0.36900005659E+03  0.41346075409E+03  0.17200000000E+03 0. -1.
</event>
<event>
 4    1  0.4538619E+000  0.2337814E+03  0.7818608E-02  0.1124006E+00
         21   -1    0    0  503  502  0.00000000000E+00  0.00000000000E+00  0.59093864243E+03  0.59093864243E+03  0.00000000000E+00 0.  1.
         21   -1    0    0  501  503 -0.00000000000E+00 -0.00000000000E+00 -0.45104318851E+03  0.45104318851E+03  0.00000000000E+00 0.  1.
          6    1    1    2  501    0  0.48253309561E+02 -0.15080242934E+03 -0.39456764968E+03  0.45862553871E+03  0.17200000000E+03 0.  1.
         -6    1    1    2    0  502 -0.48253309561E+02  0.15080242934E+03  0.53446310361E+03  0.58335629224E+03  0.17200000000E+03 0.  1.
</event>
<event>
 4    1  0.4538619E+000  0.2358440E+03  0.7818608E-02  0.1122593E+00
         21   -1    0    0  501  502  0.00000000000E+00  0.00000000000E+00  0.19714036414E+03  0.19714036414E+03  0.00000000000E+00 0.  1.
         21   -1    0    0  502  503 -0.00000000000E+00 -0.00000000000E+00 -0.29035716592E+03  0.29035716592E+03  0.00000000000E+00 0.  1.
          6    1    1    2  501    0 -0.31838897118E+02  0.15819184101E+03 -0.56184508005E+01  0.23591087495E+03  0.17200000000E+03 0.  1.
         -6    1    1    2    0  503  0.31838897118E+02 -0.15819184101E+03 -0.87598350987E+02  0.25158665511E+03  0.17200000000E+03 0.  1.
</event>
<event>
 4    1  0.4538619E+000  0.1813715E+03  0.7818608E-02  0.1166482E+00
         21   -1    0    0  503  502  0.00000000000E+00  0.00000000000E+00  0.11057018776E+04  0.11057018776E+04  0.00000000000E+00 0. -1.
         21   -1    0    0  501  503 -0.00000000000E+00 -0.00000000000E+00 -0.34815053258E+02  0.34815053258E+02  0.00000000000E+00 0. -1.
          6    1    1    2  501    0 -0.31183108919E+02 -0.48365688446E+02  0.31795224444E+03  0.36604542867E+03  0.17200000000E+03 0. -1.
         -6    1    1    2    0  502  0.31183108919E+02  0.48365688446E+02  0.75293457989E+03  0.77447150218E+03  0.17200000000E+03 0. -1.
</event>
<event>
 4    1  0.4538619E+000  0.1894812E+03  0.7818608E-02  0.1158930E+00
         21   -1    0    0  503  502  0.00000000000E+00  0.00000000000E+00  0.13578817154E+03  0.13578817154E+03  0.00000000000E+00 0. -1.
         21   -1    0    0  501  503 -0.00000000000E+00 -0.00000000000E+00 -0.47646875868E+03  0.47646875868E+03  0.00000000000E+00 0. -1.
          6    1    1    2  501    0  0.63650157482E+02 -0.47621230903E+02 -0.37457019564E+03  0.41976893125E+03  0.17200000000E+03 0. -1.
         -6    1    1    2    0  502 -0.63650157482E+02  0.47621230903E+02  0.33889608503E+02  0.19248799896E+03  0.17200000000E+03 0. -1.
</event>
<event>
 4    1  0.4538619E+000  0.2398740E+03  0.7818608E-02  0.1119877E+00
         21   -1    0    0  501  502  0.00000000000E+00  0.00000000000E+00  0.17578837411E+03  0.17578837411E+03  0.00000000000E+00 0. -1.
         21   -1    0    0  502  503 -0.00000000000E+00 -0.00000000000E+00 -0.61284715404E+03  0.61284715404E+03  0.00000000000E+00 0. -1.
          6    1    1    2  501    0  0.16459488687E+03  0.29394681964E+02  0.50619080125E+02  0.24515671597E+03  0.17200000000E+03 0. -1.
         -6    1    1    2    0  503 -0.16459488687E+03 -0.29394681964E+02 -0.48767786006E+03  0.54347881219E+03  0.17200000000E+03 0. -1.
</event>
<event>
 4    1  0.4538619E+000  0.1900122E+03  0.7818608E-02  0.1158450E+00
         21   -1    0    0  501  502  0.00000000000E+00  0.00000000000E+00  0.72535430794E+03  0.72535430794E+03  0.00000000000E+00 0. -1.
         21   -1    0    0  502  503 -0.00000000000E+00 -0.00000000000E+00 -0.51156052283E+02  0.51156052283E+02  0.00000000000E+00 0. -1.
          6    1    1    2  501    0  0.34619526611E+02  0.72952958509E+02  0.40088794076E+03  0.44363925303E+03  0.17200000000E+03 0. -1.
         -6    1    1    2    0  503 -0.34619526611E+02 -0.72952958509E+02  0.27331031490E+03  0.33287110720E+03  0.17200000000E+03 0. -1.
</event>
<event>
 4    1  0.4538619E+000  0.1725421E+03  0.7818608E-02  0.1175222E+00
         21   -1    0    0  503  502  0.00000000000E+00  0.00000000000E+00  0.18394020103E+03  0.18394020103E+03  0.00000000000E+00 0. -1.
         21   -1    0    0  501  503 -0.00000000000E+00 -0.00000000000E+00 -0.16427621694E+03  0.16427621694E+03  0.00000000000E+00 0. -1.
          6    1    1    2  501    0  0.52107615211E+01 -0.12634140109E+02 -0.11325852232E+02  0.17291341319E+03  0.17200000000E+03 0. -1.
         -6    1    1    2    0  502 -0.52107615211E+01  0.12634140109E+02  0.30989836325E+02  0.17530300479E+03  0.17200000000E+03 0. -1.
</event>
<event>
 4    1  0.4538619E+000  0.3636627E+03  0.7818608E-02  0.1057143E+00
         21   -1    0    0  503  502  0.00000000000E+00  0.00000000000E+00  0.73689355355E+02  0.73689355355E+02  0.00000000000E+00 0. -1.
         21   -1    0    0  501  503 -0.00000000000E+00 -0.00000000000E+00 -0.18554771474E+04  0.18554771474E+04  0.00000000000E+00 0.  1.
          6    1    1    2  501    0 -0.30072539933E+03 -0.11059304264E+03 -0.71632475225E+03  0.80335032058E+03  0.17200000000E+03 0. -1.
         -6    1    1    2    0  502  0.30072539933E+03  0.11059304264E+03 -0.10654630398E+04  0.11258161822E+04  0.17200000000E+03 0.  1.
</event>
<event>
 4    1  0.4538619E+000  0.2188421E+03  0.7818608E-02  0.1134749E+00
         21   -1    0    0  501  502  0.00000000000E+00  0.00000000000E+00  0.22562370001E+03  0.22562370001E+03  0.00000000000E+00 0.  1.
         21   -1    0    0  502  503 -0.00000000000E+00 -0.00000000000E+00 -0.22912061039E+03  0.22912061039E+03  0.00000000000E+00 0.  1.
          6    1    1    2  501    0  0.11477708886E+03  0.71652535209E+02  0.59923246949E+02  0.22689790976E+03  0.17200000000E+03 0.  1.
         -6    1    1    2    0  503 -0.11477708886E+03 -0.71652535209E+02 -0.63420157333E+02  0.22784640064E+03  0.17200000000E+03 0.  1.
</event>
<event>
 4    1  0.4538619E+000  0.2633935E+03  0.7818608E-02  0.1105121E+00
         21   -1    0    0  501  502  0.00000000000E+00  0.00000000000E+00  0.20676602733E+03  0.20676602733E+03  0.00000000000E+00 0.  1.
         21   -1    0    0  502  503 -0.00000000000E+00 -0.00000000000E+00 -0.34147363289E+03  0.34147363289E+03  0.00000000000E+00 0. -1.
          6    1    1    2  501    0 -0.10896162373E+03  0.16709123637E+03 -0.31187552769E+02  0.26523344465E+03  0.17200000000E+03 0.  1.
         -6    1    1    2    0  503  0.10896162373E+03 -0.16709123637E+03 -0.10352005279E+03  0.28300621556E+03  0.17200000000E+03 0. -1.
</event>
<event>
 4    1  0.4538619E+000  0.3056771E+03  0.7818608E-02  0.1082437E+00
         21   -1    0    0  501  502  0.00000000000E+00  0.00000000000E+00  0.23249155166E+03  0.23249155166E+03  0.00000000000E+00 0. -1.
         21   -1    0    0  502  503 -0.00000000000E+00 -0.00000000000E+00 -0.42004707426E+03  0.42004707426E+03  0.00000000000E+00 0. -1.
          6    1    1    2  501    0  0.14389461173E+03  0.20772289928E+03 -0.25962877979E+02  0.30677766086E+03  0.17200000000E+03 0. -1.
         -6    1    1    2    0  503 -0.14389461173E+03 -0.20772289928E+03 -0.16159264462E+03  0.34576096507E+03  0.17200000000E+03 0. -1.
</event>
<event>
 4    1  0.4538619E+000  0.2050623E+03  0.7818608E-02  0.1145537E+00
         21   -1    0    0  501  502  0.00000000000E+00  0.00000000000E+00  0.22389518198E+04  0.22389518198E+04  0.00000000000E+00 0.  1.
         21   -1    0    0  502  503 -0.00000000000E+00 -0.00000000000E+00 -0.86164966510E+02  0.86164966510E+02  0.00000000000E+00 0.  1.
          6    1    1    2  501    0  0.62739405874E+01 -0.11147721626E+03  0.21044726449E+04  0.21144397947E+04  0.17200000000E+03 0.  1.
         -6    1    1    2    0  503 -0.62739405874E+01  0.11147721626E+03  0.48314208373E+02  0.21067699164E+03  0.17200000000E+03 0.  1.
</event>
<event>
 4    1  0.4538619E+000  0.1978773E+03  0.7818608E-02  0.1151542E+00
         21   -1    0    0  501  502  0.00000000000E+00  0.00000000000E+00  0.19148795215E+03  0.19148795215E+03  0.00000000000E+00 0. -1.
         21   -1    0    0  502  503 -0.00000000000E+00 -0.00000000000E+00 -0.27772999307E+03  0.27772999307E+03  0.00000000000E+00 0.  1.
          6    1    1    2  501    0  0.69549291762E+02 -0.68806324171E+02  0.77365281150E+02  0.21246364620E+03  0.17200000000E+03 0. -1.
         -6    1    1    2    0  503 -0.69549291762E+02  0.68806324171E+02 -0.16360732207E+03  0.25675429902E+03  0.17200000000E+03 0.  1.
</event>
<event>
 4    1  0.4538619E+000  0.2883985E+03  0.7818608E-02  0.1091188E+00
         21   -1    0    0  503  502  0.00000000000E+00  0.00000000000E+00  0.34468969341E+03  0.34468969341E+03  0.00000000000E+00 0.  1.
         21   -1    0    0  501  503 -0.00000000000E+00 -0.00000000000E+00 -0.34717381611E+03  0.34717381611E+03  0.00000000000E+00 0. -1.
          6    1    1    2  501    0  0.59526174725E+02  0.22371034760E+03 -0.19227614627E+03  0.34661765899E+03  0.17200000000E+03 0. -1.
         -6    1    1    2    0  502 -0.59526174725E+02 -0.22371034760E+03  0.18979202357E+03  0.34524585053E+03  0.17200000000E+03 0.  1.
</event>
<event>
 4    1  0.4538619E+000  0.2597648E+03  0.7818608E-02  0.1107285E+00
         21   -1    0    0  501  502  0.00000000000E+00  0.00000000000E+00  0.98456761793E+02  0.98456761793E+02  0.00000000000E+00 0.  1.
         21   -1    0    0  502  503 -0.00000000000E+00 -0.00000000000E+00 -0.89951623967E+03  0.89951623967E+03  0.00000000000E+00 0.  1.
          6    1    1    2  501    0  0.19322271450E+03  0.23638003887E+02 -0.15705418627E+03  0.30355195610E+03  0.17200000000E+03 0.  1.
         -6    1    1    2    0  503 -0.19322271450E+03 -0.23638003887E+02 -0.64400529161E+03  0.69442104537E+03  0.17200000000E+03 0.  1.
</event>
<event>
 4    1  0.4538619E+000  0.1921926E+03  0.7818608E-02  0.1156499E+00
         21   -1    0    0  501  502  0.00000000000E+00  0.00000000000E+00  0.75503725965E+03  0.75503725965E+03  0.00000000000E+00 0.  1.
         21   -1    0    0  502  503 -0.00000000000E+00 -0.00000000000E+00 -0.51833208697E+02  0.51833208697E+02  0.00000000000E+00 0.  1.
          6    1    1    2  501    0 -0.14231810517E+02 -0.84566210238E+02  0.44721150675E+03  0.48676084489E+03  0.17200000000E+03 0.  1.
         -6    1    1    2    0  503  0.14231810517E+02  0.84566210238E+02  0.25599254420E+03  0.32010962346E+03  0.17200000000E+03 0.  1.
</event>
<event>
 4    1  0.4538619E+000  0.1754340E+03  0.7818608E-02  0.1172297E+00
         21   -1    0    0  503  502  0.00000000000E+00  0.00000000000E+00  0.30743043720E+02  0.30743043720E+02  0.00000000000E+00 0. -1.
         21   -1    0    0  501  503 -0.00000000000E+00 -0.00000000000E+00 -0.10340662664E+04  0.10340662664E+04  0.00000000000E+00 0. -1.
          6    1    1    2  501    0  0.18531581731E+02  0.29148961485E+02 -0.40661091322E+03  0.44284254112E+03  0.17200000000E+03 0. -1.
         -6    1    1    2    0  502 -0.18531581731E+02 -0.29148961485E+02 -0.59671230945E+03  0.62196676899E+03  0.17200000000E+03 0. -1.
</event>
<event>
 4    1  0.4538619E+000  0.2233077E+03  0.7818608E-02  0.1131441E+00
         21   -1    0    0  501  502  0.00000000000E+00  0.00000000000E+00  0.40325457931E+03  0.40325457931E+03  0.00000000000E+00 0.  1.
         21   -1    0    0  502  503 -0.00000000000E+00 -0.00000000000E+00 -0.13067384264E+03  0.13067384264E+03  0.00000000000E+00 0.  1.
          6    1    1    2  501    0  0.13774332041E+03 -0.36181491685E+02  0.19814145926E+03  0.29854038343E+03  0.17200000000E+03 0.  1.
         -6    1    1    2    0  503 -0.13774332041E+03  0.36181491685E+02  0.74439277407E+02  0.23538803852E+03  0.17200000000E+03 0.  1.
</event>
<event>
 4    1  0.4538619E+000  0.2268809E+03  0.7818608E-02  0.1128855E+00
         21   -1    0    0  501  502  0.00000000000E+00  0.00000000000E+00  0.26954745542E+04  0.26954745542E+04  0.00000000000E+00 0.  1.
         21   -1    0    0  502  503 -0.00000000000E+00 -0.00000000000E+00 -0.36074205820E+02  0.36074205820E+02  0.00000000000E+00 0.  1.
          6    1    1    2  501    0  0.14604601174E+03  0.23696088674E+02  0.22666497518E+04  0.22779763036E+04  0.17200000000E+03 0.  1.
         -6    1    1    2    0  503 -0.14604601174E+03 -0.23696088674E+02  0.39275059659E+03  0.45357245649E+03  0.17200000000E+03 0.  1.
</event>
<event>
 4    1  0.4538619E+000  0.3866971E+03  0.7818608E-02  0.1048486E+00
         21   -1    0    0  503  502  0.00000000000E+00  0.00000000000E+00  0.95283086980E+03  0.95283086980E+03  0.00000000000E+00 0. -1.
         21   -1    0    0  501  503 -0.00000000000E+00 -0.00000000000E+00 -0.16104094447E+03  0.16104094447E+03  0.00000000000E+00 0.  1.
          6    1    1    2  501    0  0.20823306825E+03  0.27674828241E+03  0.30698990745E+03  0.49373821587E+03  0.17200000000E+03 0.  1.
         -6    1    1    2    0  502 -0.20823306825E+03 -0.27674828241E+03  0.48480001788E+03  0.62013359840E+03  0.17200000000E+03 0. -1.
</event>
<event>
 4    1  0.4538619E+000  0.1908574E+03  0.7818608E-02  0.1157690E+00
         21   -1    0    0  503  502  0.00000000000E+00  0.00000000000E+00  0.50908644884E+03  0.50908644884E+03  0.00000000000E+00 0.  1.
         21   -1    0    0  501  503 -0.00000000000E+00 -0.00000000000E+00 -0.11176935497E+03  0.11176935497E+03  0.00000000000E+00 0.  1.
          6    1    1    2  501    0  0.82255129696E+02  0.87538288110E+01  0.12448943623E+02  0.19126293963E+03  0.17200000000E+03 0.  1.
         -6    1    1    2    0  502 -0.82255129696E+02 -0.87538288110E+01  0.38486815025E+03  0.42959286418E+03  0.17200000000E+03 0.  1.
</event>
<event>
 4    1  0.4538619E+000  0.3052858E+03  0.7818608E-02  0.1082628E+00
         21   -1    0    0  503  502  0.00000000000E+00  0.00000000000E+00  0.37432921091E+03  0.37432921091E+03  0.00000000000E+00 0. -1.
         21   -1    0    0  501  503 -0.00000000000E+00 -0.00000000000E+00 -0.37659188380E+03  0.37659188380E+03  0.00000000000E+00 0.  1.
          6    1    1    2  501    0 -0.21001279507E+03 -0.13967845814E+03 -0.21969558481E+03  0.37611912441E+03  0.17200000000E+03 0. -1.
         -6    1    1    2    0  502  0.21001279507E+03  0.13967845814E+03  0.21743291191E+03  0.37480197030E+03  0.17200000000E+03 0. -1.
</event>
<event>
 4    1  0.4538619E+000  0.2194076E+03  0.7818608E-02  0.1134325E+00
         21   -1    0    0  501  502  0.00000000000E+00  0.00000000000E+00  0.36178503929E+03  0.36178503929E+03  0.00000000000E+00 0. -1.
         21   -1    0    0  502  503 -0.00000000000E+00 -0.00000000000E+00 -0.13490158541E+03  0.13490158541E+03  0.00000000000E+00 0.  1.
          6    1    1    2  501    0  0.13613634575E+03  0.47530507362E+01  0.84438177415E+02  0.23509466589E+03  0.17200000000E+03 0.  1.
         -6    1    1    2    0  503 -0.13613634575E+03 -0.47530507362E+01  0.14244527646E+03  0.26159195881E+03  0.17200000000E+03 0. -1.
</event>
<event>
 4    1  0.4538619E+000  0.2334646E+03  0.7818608E-02  0.1124225E+00
         21   -1    0    0  501  502  0.00000000000E+00  0.00000000000E+00  0.38036860507E+02  0.38036860507E+02  0.00000000000E+00 0.  1.
         21   -1    0    0  502  503 -0.00000000000E+00 -0.00000000000E+00 -0.14463937996E+04  0.14463937996E+04  0.00000000000E+00 0.  1.
          6    1    1    2  501    0  0.14259950737E+03 -0.67728081338E+02 -0.77567921209E+03  0.81005182092E+03  0.17200000000E+03 0.  1.
         -6    1    1    2    0  503 -0.14259950737E+03  0.67728081338E+02 -0.63267772702E+03  0.67437883920E+03  0.17200000000E+03 0.  1.
</event>
<event>
 4    1  0.4538619E+000  0.1763542E+03  0.7818608E-02  0.1171379E+00
         21   -1    0    0  503  502  0.00000000000E+00  0.00000000000E+00  0.10452901670E+04  0.10452901670E+04  0.00000000000E+00 0. -1.
         21   -1    0    0  501  503 -0.00000000000E+00 -0.00000000000E+00 -0.56339786318E+02  0.56339786318E+02  0.00000000000E+00 0. -1.
          6    1    1    2  501    0  0.22120159844E+02 -0.32054541452E+02  0.11609455464E+03  0.21113678201E+03  0.17200000000E+03 0. -1.
         -6    1    1    2    0  502 -0.22120159844E+02  0.32054541452E+02  0.87285582604E+03  0.89049317131E+03  0.17200000000E+03 0. -1.
</event>
<event>
 4    1  0.4538619E+000  0.1926421E+03  0.7818608E-02  0.1156100E+00
         21   -1    0    0  501  502  0.00000000000E+00  0.00000000000E+00  0.72104245076E+03  0.72104245076E+03  0.00000000000E+00 0. -1.
         21   -1    0    0  502  503 -0.00000000000E+00 -0.00000000000E+00 -0.55234905112E+02  0.55234905112E+02  0.00000000000E+00 0. -1.
          6    1    1    2  501    0 -0.41388357912E+02 -0.76249588837E+02  0.23154955534E+03  0.30120788925E+03  0.17200000000E+03 0. -1.
         -6    1    1    2    0  503  0.41388357912E+02  0.76249588837E+02  0.43425799031E+03  0.47506946662E+03  0.17200000000E+03 0. -1.
</event>
<event>
 4    1  0.4538619E+000  0.1825878E+03  0.7818608E-02  0.1165322E+00
         21   -1    0    0  501  502  0.00000000000E+00  0.00000000000E+00  0.21854551775E+02  0.21854551775E+02  0.00000000000E+00 0. -1.
         21   -1    0    0  502  503 -0.00000000000E+00 -0.00000000000E+00 -0.21200289135E+04  0.21200289135E+04  0.00000000000E+00 0. -1.
          6    1    1    2  501    0 -0.58823984592E+02 -0.17147825700E+02 -0.48194105287E+03  0.51536927298E+03  0.17200000000E+03 0. -1.
         -6    1    1    2    0  503  0.58823984592E+02  0.17147825700E+02 -0.16162333089E+04  0.16265141923E+04  0.17200000000E+03 0. -1.
</event>
<event>
 4    1  0.4538619E+000  0.1966863E+03  0.7818608E-02  0.1152565E+00
         21   -1    0    0  501  502  0.00000000000E+00  0.00000000000E+00  0.60221356845E+03  0.60221356845E+03  0.00000000000E+00 0. -1.
         21   -1    0    0  502  503 -0.00000000000E+00 -0.00000000000E+00 -0.71687500213E+02  0.71687500213E+02  0.00000000000E+00 0. -1.
          6    1    1    2  501    0 -0.87445877368E+02  0.38140529218E+02  0.37387669779E+03  0.42245623038E+03  0.17200000000E+03 0. -1.
         -6    1    1    2    0  503  0.87445877368E+02 -0.38140529218E+02  0.15664937045E+03  0.25144483829E+03  0.17200000000E+03 0. -1.
</event>
<event>
 4    1  0.4538619E+000  0.1728253E+03  0.7818608E-02  0.1174933E+00
         21   -1    0    0  503  502  0.00000000000E+00  0.00000000000E+00  0.44310118672E+02  0.44310118672E+02  0.00000000000E+00 0. -1.
         21   -1    0    0  501  503 -0.00000000000E+00 -0.00000000000E+00 -0.89522903556E+03  0.89522903556E+03  0.00000000000E+00 0. -1.
          6    1    1    2  501    0 -0.89432538740E+01 -0.14304517272E+02 -0.65894475176E+03  0.68123181581E+03  0.17200000000E+03 0. -1.
         -6    1    1    2    0  502  0.89432538740E+01  0.14304517272E+02 -0.19197416513E+03  0.25830733842E+03  0.17200000000E+03 0. -1.
</event>
<event>
 4    1  0.4538619E+000  0.1941867E+03  0.7818608E-02  0.1154738E+00
         21   -1    0    0  503  502  0.00000000000E+00  0.00000000000E+00  0.16917311603E+03  0.16917311603E+03  0.00000000000E+00 0. -1.
         21   -1    0    0  501  503 -0.00000000000E+00 -0.00000000000E+00 -0.47761842814E+03  0.47761842814E+03  0.00000000000E+00 0.  1.
          6    1    1    2  501    0  0.78576969882E+02 -0.44160302544E+02 -0.39039283956E+03  0.43602183626E+03  0.17200000000E+03 0.  1.
         -6    1    1    2    0  502 -0.78576969882E+02  0.44160302544E+02  0.81947527453E+02  0.21076970791E+03  0.17200000000E+03 0. -1.
</event>
<event>
 4    1  0.4538619E+000  0.1720258E+03  0.7818608E-02  0.1175752E+00
         21   -1    0    0  503  502  0.00000000000E+00  0.00000000000E+00  0.48553903714E+02  0.48553903714E+02  0.00000000000E+00 0.  1.
         21   -1    0    0  501  503 -0.00000000000E+00 -0.00000000000E+00 -0.65451990980E+03  0.65451990980E+03  0.00000000000E+00 0.  1.
          6    1    1    2  501    0  0.33879417762E+00  0.29620220163E+01 -0.39519404260E+03  0.43101185559E+03  0.17200000000E+03 0.  1.
         -6    1    1    2    0  502 -0.33879417762E+00 -0.29620220163E+01 -0.21077196349E+03  0.27206195793E+03  0.17200000000E+03 0.  1.
</event>
<event>
 4    1  0.4538619E+000  0.1923106E+03  0.7818608E-02  0.1156394E+00
         21   -1    0    0  501  502  0.00000000000E+00  0.00000000000E+00  0.64503559734E+03  0.64503559734E+03  0.00000000000E+00 0.  1.
         21   -1    0    0  502  503 -0.00000000000E+00 -0.00000000000E+00 -0.96907246589E+02  0.96907246589E+02  0.00000000000E+00 0.  1.
          6    1    1    2  501    0  0.65217083251E+02 -0.56090063165E+02  0.51112270065E+03  0.54610418260E+03  0.17200000000E+03 0.  1.
         -6    1    1    2    0  503 -0.65217083251E+02  0.56090063165E+02  0.37005650107E+02  0.19583866133E+03  0.17200000000E+03 0.  1.
</event>
<event>
 4    1  0.4538619E+000  0.2174057E+03  0.7818608E-02  0.1135832E+00
         21   -1    0    0  503  502  0.00000000000E+00  0.00000000000E+00  0.43721705154E+02  0.43721705154E+02  0.00000000000E+00 0. -1.
         21   -1    0    0  501  503 -0.00000000000E+00 -0.00000000000E+00 -0.12555570004E+04  0.12555570004E+04  0.00000000000E+00 0.  1.
          6    1    1    2  501    0  0.12374876813E+03 -0.48656751617E+02 -0.84811184277E+03  0.87553351445E+03  0.17200000000E+03 0. -1.
         -6    1    1    2    0  502 -0.12374876813E+03  0.48656751617E+02 -0.36372345243E+03  0.42374519105E+03  0.17200000000E+03 0.  1.
</event>
<event>
 4    1  0.4538619E+000  0.1759469E+03  0.7818608E-02  0.1171784E+00
         21   -1    0    0  503  502  0.00000000000E+00  0.00000000000E+00  0.47127704928E+02  0.47127704928E+02  0.00000000000E+00 0. -1.
         21   -1    0    0  501  503 -0.00000000000E+00 -0.00000000000E+00 -0.95078611084E+03  0.95078611084E+03  0.00000000000E+00 0. -1.
          6    1    1    2  501    0 -0.21801650499E+02 -0.29966816831E+02 -0.72924088988E+03  0.75016637991E+03  0.17200000000E+03 0. -1.
         -6    1    1    2    0  502  0.21801650499E+02  0.29966816831E+02 -0.17441751603E+03  0.24774743586E+03  0.17200000000E+03 0. -1.
</event>
<event>
 4    1  0.4538619E+000  0.1843065E+03  0.7818608E-02  0.1163699E+00
         21   -1    0    0  501  502  0.00000000000E+00  0.00000000000E+00  0.31647393621E+03  0.31647393621E+03  0.00000000000E+00 0. -1.
         21   -1    0    0  502  503 -0.00000000000E+00 -0.00000000000E+00 -0.10818293355E+03  0.10818293355E+03  0.00000000000E+00 0.  1.
          6    1    1    2  501    0  0.61433691411E+02 -0.24714415743E+02  0.12293743202E+03  0.22154573563E+03  0.17200000000E+03 0.  1.
         -6    1    1    2    0  503 -0.61433691411E+02  0.24714415743E+02  0.85353570642E+02  0.20311113413E+03  0.17200000000E+03 0.  1.
</event>
<event>
 4    1  0.4538619E+000  0.3070680E+03  0.7818608E-02  0.1081760E+00
         21   -1    0    0  503  502  0.00000000000E+00  0.00000000000E+00  0.33423728594E+02  0.33423728594E+02  0.00000000000E+00 0. -1.
         21   -1    0    0  501  503 -0.00000000000E+00 -0.00000000000E+00 -0.31645825997E+04  0.31645825997E+04  0.00000000000E+00 0.  1.
          6    1    1    2  501    0 -0.21960140089E+03  0.12838212109E+03 -0.20923981419E+04  0.21148098564E+04  0.17200000000E+03 0.  1.
         -6    1    1    2    0  502  0.21960140089E+03 -0.12838212109E+03 -0.10387607292E+04  0.10831964719E+04  0.17200000000E+03 0. -1.
</event>
<event>
 4    1  0.4538619E+000  0.1805177E+03  0.7818608E-02  0.1167303E+00
         21   -1    0    0  501  502  0.00000000000E+00  0.00000000000E+00  0.11939084653E+04  0.11939084653E+04  0.00000000000E+00 0.  1.
         21   -1    0    0  502  503 -0.00000000000E+00 -0.00000000000E+00 -0.31761286447E+02  0.31761286447E+02  0.00000000000E+00 0.  1.
          6    1    1    2  501    0  0.48536128971E+02  0.25433688577E+02  0.81090672324E+03  0.83075648786E+03  0.17200000000E+03 0.  1.
         -6    1    1    2    0  503 -0.48536128971E+02 -0.25433688577E+02  0.35124045558E+03  0.39491326385E+03  0.17200000000E+03 0.  1.
</event>
<event>
 4    1  0.4538619E+000  0.2169769E+03  0.7818608E-02  0.1136157E+00
         21   -1    0    0  501  502  0.00000000000E+00  0.00000000000E+00  0.29817001183E+03  0.29817001183E+03  0.00000000000E+00 0. -1.
         21   -1    0    0  502  503 -0.00000000000E+00 -0.00000000000E+00 -0.20026578518E+03  0.20026578518E+03  0.00000000000E+00 0. -1.
          6    1    1    2  501    0 -0.11104352277E+03 -0.71863138918E+02  0.16358759604E+03  0.27173493751E+03  0.17200000000E+03 0. -1.
         -6    1    1    2    0  503  0.11104352277E+03  0.71863138918E+02 -0.65683369394E+02  0.22670085950E+03  0.17200000000E+03 0. -1.
</event>
<event>
 4    1  0.4538619E+000  0.2386050E+03  0.7818608E-02  0.1120726E+00
         21   -1    0    0  501  502  0.00000000000E+00  0.00000000000E+00  0.12981199738E+03  0.12981199738E+03  0.00000000000E+00 0.  1.
         21   -1    0    0  502  503 -0.00000000000E+00 -0.00000000000E+00 -0.68415297230E+03  0.68415297230E+03  0.00000000000E+00 0.  1.
          6    1    1    2  501    0  0.77976016103E+02 -0.14583586969E+03 -0.33336981097E+02  0.24092263132E+03  0.17200000000E+03 0.  1.
         -6    1    1    2    0  503 -0.77976016103E+02  0.14583586969E+03 -0.52100399382E+03  0.57304233836E+03  0.17200000000E+03 0.  1.
</event>
<event>
 4    1  0.4538619E+000  0.1786478E+03  0.7818608E-02  0.1169118E+00
         21   -1    0    0  501  502  0.00000000000E+00  0.00000000000E+00  0.29031579911E+03  0.29031579911E+03  0.00000000000E+00 0.  1.
         21   -1    0    0  502  503 -0.00000000000E+00 -0.00000000000E+00 -0.15853906369E+03  0.15853906369E+03  0.00000000000E+00 0.  1.
          6    1    1    2  501    0  0.34875367016E+02 -0.33387904926E+02  0.19015563972E+03  0.26091035000E+03  0.17200000000E+03 0. -1.
         -6    1    1    2    0  503 -0.34875367016E+02  0.33387904926E+02 -0.58378904302E+02  0.18794451279E+03  0.17200000000E+03 0. -1.
</event>
<event>
 4    1  0.4538619E+000  0.2558062E+03  0.7818608E-02  0.1109689E+00
         21   -1    0    0  501  502  0.00000000000E+00  0.00000000000E+00  0.40529909074E+02  0.40529909074E+02  0.00000000000E+00 0.  1.
         21   -1    0    0  502  503 -0.00000000000E+00 -0.00000000000E+00 -0.16365461893E+04  0.16365461893E+04  0.00000000000E+00 0. -1.
          6    1    1    2  501    0 -0.13257104102E+03 -0.13519514265E+03 -0.89526421010E+03  0.93109334301E+03  0.17200000000E+03 0. -1.
         -6    1    1    2    0  503  0.13257104102E+03  0.13519514265E+03 -0.70075207012E+03  0.74598275536E+03  0.17200000000E+03 0.  1.
</event>
<event>
 4    1  0.4538619E+000  0.1812857E+03  0.7818608E-02  0.1166565E+00
         21   -1    0    0  503  502  0.00000000000E+00  0.00000000000E+00  0.21595786596E+03  0.21595786596E+03  0.00000000000E+00 0.  1.
         21   -1    0    0  501  503 -0.00000000000E+00 -0.00000000000E+00 -0.30145760340E+03  0.30145760340E+03  0.00000000000E+00 0.  1.
          6    1    1    2  501    0 -0.22760077591E+02 -0.52559277017E+02 -0.22480101272E+03  0.28879057127E+03  0.17200000000E+03 0.  1.
         -6    1    1    2    0  502  0.22760077591E+02  0.52559277017E+02  0.13930127528E+03  0.22862489809E+03  0.17200000000E+03 0.  1.
</event>
<event>
 4    1  0.4538619E+000  0.1776331E+03  0.7818608E-02  0.1170114E+00
         21   -1    0    0  501  502  0.00000000000E+00  0.00000000000E+00  0.61662817299E+03  0.61662817299E+03  0.00000000000E+00 0.  1.
         21   -1    0    0  502  503 -0.00000000000E+00 -0.00000000000E+00 -0.13525430006E+03  0.13525430006E+03  0.00000000000E+00 0.  1.
          6    1    1    2  501    0 -0.30522029133E+02 -0.32216637596E+02  0.53710126349E+03  0.56571306617E+03  0.17200000000E+03 0.  1.
         -6    1    1    2    0  503  0.30522029133E+02  0.32216637596E+02 -0.55727390556E+02  0.18616940688E+03  0.17200000000E+03 0.  1.
</event>
<event>
 4    1  0.4538619E+000  0.1860029E+03  0.7818608E-02  0.1162117E+00
         21   -1    0    0  503  502  0.00000000000E+00  0.00000000000E+00  0.16477212640E+04  0.16477212640E+04  0.00000000000E+00 0.  1.
         21   -1    0    0  501  503 -0.00000000000E+00 -0.00000000000E+00 -0.21107187296E+02  0.21107187296E+02  0.00000000000E+00 0.  1.
          6    1    1    2  501    0 -0.65769180323E+02 -0.26220161286E+02  0.87361539308E+03  0.89319703144E+03  0.17200000000E+03 0.  1.
         -6    1    1    2    0  502  0.65769180323E+02  0.26220161286E+02  0.75299868366E+03  0.77563141990E+03  0.17200000000E+03 0.  1.
</event>
<event>
 4    1  0.4538619E+000  0.2285161E+03  0.7818608E-02  0.1127689E+00
         21   -1    0    0  501  502  0.00000000000E+00  0.00000000000E+00  0.88923700363E+03  0.88923700363E+03  0.00000000000E+00 0.  1.
         21   -1    0    0  502  503 -0.00000000000E+00 -0.00000000000E+00 -0.68300871292E+02  0.68300871292E+02  0.00000000000E+00 0.  1.
          6    1    1    2  501    0  0.11960498150E+03 -0.91270354308E+02  0.58974431116E+03  0.63246974767E+03  0.17200000000E+03 0.  1.
         -6    1    1    2    0  503 -0.11960498150E+03  0.91270354308E+02  0.23119182118E+03  0.32506812725E+03  0.17200000000E+03 0.  1.
</event>
<event>
 4    1  0.4538619E+000  0.1731661E+03  0.7818608E-02  0.1174586E+00
         21   -1    0    0  501  502  0.00000000000E+00  0.00000000000E+00  0.56389000838E+03  0.56389000838E+03  0.00000000000E+00 0. -1.
         21   -1    0    0  502  503 -0.00000000000E+00 -0.00000000000E+00 -0.89245217653E+02  0.89245217653E+02  0.00000000000E+00 0. -1.
          6    1    1    2  501    0  0.19858384264E+02 -0.28512973788E+01  0.44492728117E+03  0.47743771411E+03  0.17200000000E+03 0. -1.
         -6    1    1    2    0  503 -0.19858384264E+02  0.28512973788E+01  0.29717509556E+02  0.17569751192E+03  0.17200000000E+03 0. -1.
</event>
<event>
 4    1  0.4538619E+000  0.2065468E+03  0.7818608E-02  0.1144330E+00
         21   -1    0    0  501  502  0.00000000000E+00  0.00000000000E+00  0.14057520438E+04  0.14057520438E+04  0.00000000000E+00 0. -1.
         21   -1    0    0  502  503 -0.00000000000E+00 -0.00000000000E+00 -0.31669769275E+02  0.31669769275E+02  0.00000000000E+00 0.  1.
          6    1    1    2  501    0  0.86914719986E+02  0.74319568368E+02  0.83387713671E+03  0.85907662401E+03  0.17200000000E+03 0. -1.
         -6    1    1    2    0  503 -0.86914719986E+02 -0.74319568368E+02  0.54020513782E+03  0.57834518907E+03  0.17200000000E+03 0. -1.
</event>
<event>
 4    1  0.4538619E+000  0.1848514E+03  0.7818608E-02  0.1163189E+00
         21   -1    0    0  503  502  0.00000000000E+00  0.00000000000E+00  0.14885291972E+03  0.14885291972E+03  0.00000000000E+00 0. -1.
         21   -1    0    0  501  503 -0.00000000000E+00 -0.00000000000E+00 -0.25270063390E+03  0.25270063390E+03  0.00000000000E+00 0.  1.
          6    1    1    2  501    0 -0.25860636471E+02  0.62587957050E+02 -0.11268682756E+03  0.21649098363E+03  0.17200000000E+03 0.  1.
         -6    1    1    2    0  502  0.25860636471E+02 -0.62587957050E+02  0.88391133743E+01  0.18506256999E+03  0.17200000000E+03 0. -1.
</event>
<event>
 4    1  0.4538619E+000  0.2050007E+03  0.7818608E-02  0.1145587E+00
         21   -1    0    0  503  502  0.00000000000E+00  0.00000000000E+00  0.21263391563E+03  0.21263391563E+03  0.00000000000E+00 0.  1.
         21   -1    0    0  501  503 -0.00000000000E+00 -0.00000000000E+00 -0.21508019170E+03  0.21508019170E+03  0.00000000000E+00 0.  1.
          6    1    1    2  501    0 -0.45112063819E+02  0.10201080980E+03 -0.62117809554E+02  0.21420533579E+03  0.17200000000E+03 0.  1.
         -6    1    1    2    0  502  0.45112063819E+02 -0.10201080980E+03  0.59671533476E+02  0.21350877154E+03  0.17200000000E+03 0.  1.
</event>
<event>
 4    1  0.4538619E+000  0.2515722E+03  0.7818608E-02  0.1112315E+00
         21   -1    0    0  501  502  0.00000000000E+00  0.00000000000E+00  0.14041212374E+03  0.14041212374E+03  0.00000000000E+00 0. -1.
         21   -1    0    0  502  503 -0.00000000000E+00 -0.00000000000E+00 -0.45212128233E+03  0.45212128233E+03  0.00000000000E+00 0.  1.
          6    1    1    2  501    0 -0.15756578771E+03  0.94220921963E+02 -0.17226393878E+03  0.30489903935E+03  0.17200000000E+03 0.  1.
         -6    1    1    2    0  503  0.15756578771E+03 -0.94220921963E+02 -0.13944521980E+03  0.28763436672E+03  0.17200000000E+03 0. -1.
</event>
<event>
 4    1  0.4538619E+000  0.1888714E+03  0.7818608E-02  0.1159483E+00
         21   -1    0    0  503  502  0.00000000000E+00  0.00000000000E+00  0.11502972219E+03  0.11502972219E+03  0.00000000000E+00 0. -1.
         21   -1    0    0  501  503 -0.00000000000E+00 -0.00000000000E+00 -0.39602192791E+03  0.39602192791E+03  0.00000000000E+00 0.  1.
          6    1    1    2  501    0  0.44858670510E+02  0.63844490001E+02 -0.25950783709E+03  0.32096220453E+03  0.17200000000E+03 0.  1.
         -6    1    1    2    0  502 -0.44858670510E+02 -0.63844490001E+02 -0.21484368640E+02  0.19008944558E+03  0.17200000000E+03 0. -1.
</event>
<event>
 4    1  0.4538619E+000  0.1733019E+03  0.7818608E-02  0.1174448E+00
         21   -1    0    0  501  502  0.00000000000E+00  0.00000000000E+00  0.89860707188E+03  0.89860707188E+03  0.00000000000E+00 0.  1.
         21   -1    0    0  502  503 -0.00000000000E+00 -0.00000000000E+00 -0.44866076540E+02  0.44866076540E+02  0.00000000000E+00 0.  1.
          6    1    1    2  501    0  0.33848758537E+01 -0.20930656828E+02  0.66511585993E+03  0.68732281856E+03  0.17200000000E+03 0.  1.
         -6    1    1    2    0  503 -0.33848758537E+01  0.20930656828E+02  0.18862513540E+03  0.25615032986E+03  0.17200000000E+03 0.  1.
</event>
<event>
 4    1  0.4538619E+000  0.2144807E+03  0.7818608E-02  0.1138066E+00
         21   -1    0    0  503  502  0.00000000000E+00  0.00000000000E+00  0.33584744552E+03  0.33584744552E+03  0.00000000000E+00 0. -1.
         21   -1    0    0  501  503 -0.00000000000E+00 -0.00000000000E+00 -0.14874884386E+03  0.14874884386E+03  0.00000000000E+00 0. -1.
          6    1    1    2  501    0 -0.11773135537E+03 -0.50569677128E+02  0.25374632299E+02  0.21597647151E+03  0.17200000000E+03 0. -1.
         -6    1    1    2    0  502  0.11773135537E+03  0.50569677128E+02  0.16172396936E+03  0.26861981786E+03  0.17200000000E+03 0. -1.
</event>
<event>
 4    1  0.4538619E+000  0.2086551E+03  0.7818608E-02  0.1142635E+00
         21   -1    0    0  503  502  0.00000000000E+00  0.00000000000E+00  0.28366013559E+03  0.28366013559E+03  0.00000000000E+00 0. -1.
         21   -1    0    0  501  503 -0.00000000000E+00 -0.00000000000E+00 -0.16428111911E+03  0.16428111911E+03  0.00000000000E+00 0. -1.
          6    1    1    2  501    0 -0.22811100124E+02  0.11589908613E+03  0.22678349438E+01  0.20866740888E+03  0.17200000000E+03 0. -1.
         -6    1    1    2    0  502  0.22811100124E+02 -0.11589908613E+03  0.11711118154E+03  0.23927384582E+03  0.17200000000E+03 0. -1.
</event>
<event>
 4    1  0.4538619E+000  0.1912805E+03  0.7818608E-02  0.1157311E+00
         21   -1    0    0  503  502  0.00000000000E+00  0.00000000000E+00  0.40560031960E+02  0.40560031960E+02  0.00000000000E+00 0.  1.
         21   -1    0    0  501  503 -0.00000000000E+00 -0.00000000000E+00 -0.96807759681E+03  0.96807759681E+03  0.00000000000E+00 0.  1.
          6    1    1    2  501    0 -0.73583423829E+02 -0.39871017641E+02 -0.59544137487E+03  0.62541078438E+03  0.17200000000E+03 0.  1.
         -6    1    1    2    0  502  0.73583423829E+02  0.39871017641E+02 -0.33207618998E+03  0.38322684439E+03  0.17200000000E+03 0.  1.
</event>
<event>
 4    1  0.4538619E+000  0.2231495E+03  0.7818608E-02  0.1131557E+00
         21   -1    0    0  503  502  0.00000000000E+00  0.00000000000E+00  0.28265108238E+04  0.28265108238E+04  0.00000000000E+00 0. -1.
         21   -1    0    0  501  503 -0.00000000000E+00 -0.00000000000E+00 -0.94125207786E+02  0.94125207786E+02  0.00000000000E+00 0.  1.
          6    1    1    2  501    0 -0.14138068663E+03  0.14939699429E+02  0.49612281675E+02  0.22859805700E+03  0.17200000000E+03 0.  1.
         -6    1    1    2    0  502  0.14138068663E+03 -0.14939699429E+02  0.26827733343E+04  0.26920379745E+04  0.17200000000E+03 0. -1.
</event>
<event>
 4    1  0.4538619E+000  0.2024683E+03  0.7818608E-02  0.1147673E+00
         21   -1    0    0  503  502  0.00000000000E+00  0.00000000000E+00  0.71611901277E+03  0.71611901277E+03  0.00000000000E+00 0.  1.
         21   -1    0    0  501  503 -0.00000000000E+00 -0.00000000000E+00 -0.57906914168E+02  0.57906914168E+02  0.00000000000E+00 0.  1.
          6    1    1    2  501    0 -0.10681355270E+03 -0.51681187175E+00  0.37051949627E+03  0.42222991278E+03  0.17200000000E+03 0.  1.
         -6    1    1    2    0  502  0.10681355270E+03  0.51681187175E+00  0.28769260234E+03  0.35179601415E+03  0.17200000000E+03 0.  1.
</event>
<event>
 4    1  0.4538619E+000  0.2088731E+03  0.7818608E-02  0.1142461E+00
         21   -1    0    0  501  502  0.00000000000E+00  0.00000000000E+00  0.65058539335E+03  0.65058539335E+03  0.00000000000E+00 0. -1.
         21   -1    0    0  502  503 -0.00000000000E+00 -0.00000000000E+00 -0.75435790181E+02  0.75435790181E+02  0.00000000000E+00 0.  1.
          6    1    1    2  501    0  0.98946305766E+02 -0.65219754933E+02  0.40853825407E+03  0.45883710933E+03  0.17200000000E+03 0. -1.
         -6    1    1    2    0  503 -0.98946305766E+02  0.65219754933E+02  0.16661134910E+03  0.26718407420E+03  0.17200000000E+03 0.  1.
</event>
<event>
 4    1  0.4538619E+000  0.1729026E+03  0.7818608E-02  0.1174854E+00
         21   -1    0    0  503  502  0.00000000000E+00  0.00000000000E+00  0.29151877405E+02  0.29151877405E+02  0.00000000000E+00 0. -1.
         21   -1    0    0  501  503 -0.00000000000E+00 -0.00000000000E+00 -0.15500647368E+04  0.15500647368E+04  0.00000000000E+00 0. -1.
          6    1    1    2  501    0 -0.10946656282E+02 -0.13837302360E+02 -0.12197978696E+04  0.12319911294E+04  0.17200000000E+03 0. -1.
         -6    1    1    2    0  502  0.10946656282E+02  0.13837302360E+02 -0.30111498976E+03  0.34722548477E+03  0.17200000000E+03 0. -1.
</event>
<event>
 4    1  0.4538619E+000  0.1911384E+03  0.7818608E-02  0.1157439E+00
         21   -1    0    0  503  502  0.00000000000E+00  0.00000000000E+00  0.10667236381E+03  0.10667236381E+03  0.00000000000E+00 0.  1.
         21   -1    0    0  501  503 -0.00000000000E+00 -0.00000000000E+00 -0.34265064697E+03  0.34265064697E+03  0.00000000000E+00 0.  1.
          6    1    1    2  501    0  0.44537161632E+02  0.70472066755E+02 -0.11307563790E+03  0.22208100064E+03  0.17200000000E+03 0.  1.
         -6    1    1    2    0  502 -0.44537161632E+02 -0.70472066755E+02 -0.12290264527E+03  0.22724201014E+03  0.17200000000E+03 0.  1.
</event>
<event>
 4    1  0.4538619E+000  0.2207625E+03  0.7818608E-02  0.1133316E+00
         21   -1    0    0  501  502  0.00000000000E+00  0.00000000000E+00  0.64564704791E+03  0.64564704791E+03  0.00000000000E+00 0.  1.
         21   -1    0    0  502  503 -0.00000000000E+00 -0.00000000000E+00 -0.12611449235E+03  0.12611449235E+03  0.00000000000E+00 0. -1.
          6    1    1    2  501    0  0.66631312707E+02 -0.12129448954E+03  0.50426483104E+03  0.55047171122E+03  0.17200000000E+03 0.  1.
         -6    1    1    2    0  503 -0.66631312707E+02  0.12129448954E+03  0.15267724516E+02  0.22128982904E+03  0.17200000000E+03 0. -1.
</event>
<event>
 4    1  0.4538619E+000  0.2024845E+03  0.7818608E-02  0.1147660E+00
         21   -1    0    0  503  502  0.00000000000E+00  0.00000000000E+00  0.19376351647E+03  0.19376351647E+03  0.00000000000E+00 0.  1.
         21   -1    0    0  501  503 -0.00000000000E+00 -0.00000000000E+00 -0.36584378263E+03  0.36584378263E+03  0.00000000000E+00 0.  1.
          6    1    1    2  501    0  0.57055033531E+02  0.90336499232E+02 -0.26772228963E+03  0.33567124439E+03  0.17200000000E+03 0.  1.
         -6    1    1    2    0  502 -0.57055033531E+02 -0.90336499232E+02  0.95642023477E+02  0.22393605471E+03  0.17200000000E+03 0.  1.
</event>
<event>
 4    1  0.4538619E+000  0.1741209E+03  0.7818608E-02  0.1173617E+00
         21   -1    0    0  501  502  0.00000000000E+00  0.00000000000E+00  0.13717807593E+03  0.13717807593E+03  0.00000000000E+00 0.  1.
         21   -1    0    0  502  503 -0.00000000000E+00 -0.00000000000E+00 -0.33706202692E+03  0.33706202692E+03  0.00000000000E+00 0.  1.
          6    1    1    2  501    0  0.29296042342E+01 -0.26935484087E+02  0.39192449752E+02  0.17847731229E+03  0.17200000000E+03 0.  1.
         -6    1    1    2    0  503 -0.29296042342E+01  0.26935484087E+02 -0.23907640075E+03  0.29576279056E+03  0.17200000000E+03 0.  1.
</event>
<event>
 4    1  0.4538619E+000  0.2375134E+03  0.7818608E-02  0.1121461E+00
         21   -1    0    0  503  502  0.00000000000E+00  0.00000000000E+00  0.55482599781E+02  0.55482599781E+02  0.00000000000E+00 0.  1.
         21   -1    0    0  501  503 -0.00000000000E+00 -0.00000000000E+00 -0.22814569591E+04  0.22814569591E+04  0.00000000000E+00 0. -1.
          6    1    1    2  501    0  0.15429860856E+03 -0.54959409985E+02 -0.19829571138E+04  0.19971308201E+04  0.17200000000E+03 0. -1.
         -6    1    1    2    0  502 -0.15429860856E+03  0.54959409985E+02 -0.24301724555E+03  0.33980873883E+03  0.17200000000E+03 0.  1.
</event>
<event>
 4    1  0.4538619E+000  0.2123673E+03  0.7818608E-02  0.1139705E+00
         21   -1    0    0  503  502  0.00000000000E+00  0.00000000000E+00  0.52277477661E+03  0.52277477661E+03  0.00000000000E+00 0.  1.
         21   -1    0    0  501  503 -0.00000000000E+00 -0.00000000000E+00 -0.87302377353E+02  0.87302377353E+02  0.00000000000E+00 0. -1.
          6    1    1    2  501    0 -0.11380972146E+03  0.50628358770E+02  0.18456819496E+03  0.28136329185E+03  0.17200000000E+03 0.  1.
         -6    1    1    2    0  502  0.11380972146E+03 -0.50628358770E+02  0.25090420431E+03  0.32871386212E+03  0.17200000000E+03 0. -1.
</event>
<event>
 4    1  0.4538619E+000  0.2161306E+03  0.7818608E-02  0.1136801E+00
         21   -1    0    0  501  502  0.00000000000E+00  0.00000000000E+00  0.54998267411E+03  0.54998267411E+03  0.00000000000E+00 0. -1.
         21   -1    0    0  502  503 -0.00000000000E+00 -0.00000000000E+00 -0.11168562309E+03  0.11168562309E+03  0.00000000000E+00 0. -1.
          6    1    1    2  501    0 -0.89007189663E+01 -0.13057266296E+03  0.38106222482E+03  0.43808773355E+03  0.17200000000E+03 0. -1.
         -6    1    1    2    0  503  0.89007189663E+01  0.13057266296E+03  0.57234826209E+02  0.22358056365E+03  0.17200000000E+03 0. -1.
</event>
<event>
 4    1  0.4538619E+000  0.1860390E+03  0.7818608E-02  0.1162083E+00
         21   -1    0    0  503  502  0.00000000000E+00  0.00000000000E+00  0.23809574640E+03  0.23809574640E+03  0.00000000000E+00 0. -1.
         21   -1    0    0  501  503 -0.00000000000E+00 -0.00000000000E+00 -0.14584682147E+03  0.14584682147E+03  0.00000000000E+00 0. -1.
          6    1    1    2  501    0 -0.54083618745E+02  0.45841968092E+02  0.35077812213E+02  0.18931713278E+03  0.17200000000E+03 0. -1.
         -6    1    1    2    0  502  0.54083618745E+02 -0.45841968092E+02  0.57171112722E+02  0.19462543509E+03  0.17200000000E+03 0. -1.
</event>
<event>
 4    1  0.4538619E+000  0.2264785E+03  0.7818608E-02  0.1129143E+00
         21   -1    0    0  503  502  0.00000000000E+00  0.00000000000E+00  0.18108892855E+04  0.18108892855E+04  0.00000000000E+00 0. -1.
         21   -1    0    0  501  503 -0.00000000000E+00 -0.00000000000E+00 -0.49790063736E+02  0.49790063736E+02  0.00000000000E+00 0. -1.
          6    1    1    2  501    0  0.14539294266E+03 -0.23861901248E+02  0.26968980723E+03  0.35217196117E+03  0.17200000000E+03 0. -1.
         -6    1    1    2    0  502 -0.14539294266E+03  0.23861901248E+02  0.14914094145E+04  0.15085073880E+04  0.17200000000E+03 0. -1.
</event>
<event>
 4    1  0.4538619E+000  0.2499342E+03  0.7818608E-02  0.1113346E+00
         21   -1    0    0  501  502  0.00000000000E+00  0.00000000000E+00  0.84045843654E+03  0.84045843654E+03  0.00000000000E+00 0. -1.
         21   -1    0    0  502  503 -0.00000000000E+00 -0.00000000000E+00 -0.84411697234E+02  0.84411697234E+02  0.00000000000E+00 0.  1.
          6    1    1    2  501    0 -0.98433201528E+02  0.15229575714E+03  0.21816939610E+03  0.33176042289E+03  0.17200000000E+03 0.  1.
         -6    1    1    2    0  503  0.98433201528E+02 -0.15229575714E+03  0.53787734321E+03  0.59310971088E+03  0.17200000000E+03 0. -1.
</event>
<event>
 4    1  0.4538619E+000  0.1905134E+03  0.7818608E-02  0.1157999E+00
         21   -1    0    0  501  502  0.00000000000E+00  0.00000000000E+00  0.24983778988E+03  0.24983778988E+03  0.00000000000E+00 0.  1.
         21   -1    0    0  502  503 -0.00000000000E+00 -0.00000000000E+00 -0.19227621462E+03  0.19227621462E+03  0.00000000000E+00 0.  1.
          6    1    1    2  501    0 -0.62737346565E+02  0.52681999386E+02  0.13807386510E+03  0.23528654857E+03  0.17200000000E+03 0.  1.
         -6    1    1    2    0  503  0.62737346565E+02 -0.52681999386E+02 -0.80512289841E+02  0.20682745594E+03  0.17200000000E+03 0.  1.
</event>
<event>
 4    1  0.4538619E+000  0.1759127E+03  0.7818608E-02  0.1171818E+00
         21   -1    0    0  501  502  0.00000000000E+00  0.00000000000E+00  0.21203938736E+03  0.21203938736E+03  0.00000000000E+00 0. -1.
         21   -1    0    0  502  503 -0.00000000000E+00 -0.00000000000E+00 -0.14630136536E+03  0.14630136536E+03  0.00000000000E+00 0. -1.
          6    1    1    2  501    0 -0.17958412258E+02 -0.32229872787E+02  0.41759609347E+02  0.18080136682E+03  0.17200000000E+03 0. -1.
         -6    1    1    2    0  503  0.17958412258E+02  0.32229872787E+02  0.23978412651E+02  0.17753938590E+03  0.17200000000E+03 0. -1.
</event>
<event>
 4    1  0.4538619E+000  0.2312016E+03  0.7818608E-02  0.1125797E+00
         21   -1    0    0  503  502  0.00000000000E+00  0.00000000000E+00  0.20209218898E+03  0.20209218898E+03  0.00000000000E+00 0. -1.
         21   -1    0    0  501  503 -0.00000000000E+00 -0.00000000000E+00 -0.29499623219E+03  0.29499623219E+03  0.00000000000E+00 0.  1.
          6    1    1    2  501    0  0.10711358234E+03  0.11134123309E+03 -0.12635999553E+03  0.26347872434E+03  0.17200000000E+03 0.  1.
         -6    1    1    2    0  502 -0.10711358234E+03 -0.11134123309E+03  0.33455952320E+02  0.23360969683E+03  0.17200000000E+03 0. -1.
</event>
<event>
 4    1  0.4538619E+000  0.2472245E+03  0.7818608E-02  0.1115072E+00
         21   -1    0    0  501  502  0.00000000000E+00  0.00000000000E+00  0.38409799540E+02  0.38409799540E+02  0.00000000000E+00 0. -1.
         21   -1    0    0  502  503 -0.00000000000E+00 -0.00000000000E+00 -0.28925195884E+04  0.28925195884E+04  0.00000000000E+00 0. -1.
          6    1    1    2  501    0 -0.52734060372E+02  0.16957323872E+03 -0.44413249039E+03  0.50830466596E+03  0.17200000000E+03 0. -1.
         -6    1    1    2    0  503  0.52734060372E+02 -0.16957323872E+03 -0.24099772985E+04  0.24226247220E+04  0.17200000000E+03 0. -1.
</event>
<event>
 4    1  0.4538619E+000  0.1721903E+03  0.7818608E-02  0.1175583E+00
         21   -1    0    0  503  502  0.00000000000E+00  0.00000000000E+00  0.90258390991E+02  0.90258390991E+02  0.00000000000E+00 0.  1.
         21   -1    0    0  501  503 -0.00000000000E+00 -0.00000000000E+00 -0.34811174003E+03  0.34811174003E+03  0.00000000000E+00 0.  1.
          6    1    1    2  501    0  0.75065647295E+01 -0.30248463722E+01 -0.18095701831E+03  0.24978979300E+03  0.17200000000E+03 0.  1.
         -6    1    1    2    0  502 -0.75065647295E+01  0.30248463722E+01 -0.76896330728E+02  0.18858033802E+03  0.17200000000E+03 0.  1.
</event>
<event>
 4    1  0.4538619E+000  0.2849605E+03  0.7818608E-02  0.1093010E+00
         21   -1    0    0  501  502  0.00000000000E+00  0.00000000000E+00  0.99590735720E+03  0.99590735720E+03  0.00000000000E+00 0. -1.
         21   -1    0    0  502  503 -0.00000000000E+00 -0.00000000000E+00 -0.89620251087E+02  0.89620251087E+02  0.00000000000E+00 0. -1.
          6    1    1    2  501    0 -0.16557004460E+03  0.15557967619E+03  0.29013025674E+03  0.40666699053E+03  0.17200000000E+03 0. -1.
         -6    1    1    2    0  503  0.16557004460E+03 -0.15557967619E+03  0.61615684937E+03  0.67886061776E+03  0.17200000000E+03 0. -1.
</event>
<event>
 4    1  0.4538619E+000  0.1949616E+03  0.7818608E-02  0.1154061E+00
         21   -1    0    0  503  502  0.00000000000E+00  0.00000000000E+00  0.64748242896E+03  0.64748242896E+03  0.00000000000E+00 0.  1.
         21   -1    0    0  501  503 -0.00000000000E+00 -0.00000000000E+00 -0.61175499688E+02  0.61175499688E+02  0.00000000000E+00 0.  1.
          6    1    1    2  501    0  0.88432152017E+02 -0.24612761828E+02  0.22193909535E+03  0.29540987729E+03  0.17200000000E+03 0.  1.
         -6    1    1    2    0  502 -0.88432152017E+02  0.24612761828E+02  0.36436783392E+03  0.41324805136E+03  0.17200000000E+03 0.  1.
</event>
<event>
 4    1  0.4538619E+000  0.2281337E+03  0.7818608E-02  0.1127960E+00
         21   -1    0    0  503  502  0.00000000000E+00  0.00000000000E+00  0.13517723039E+03  0.13517723039E+03  0.00000000000E+00 0.  1.
         21   -1    0    0  501  503 -0.00000000000E+00 -0.00000000000E+00 -0.40419375922E+03  0.40419375922E+03  0.00000000000E+00 0.  1.
          6    1    1    2  501    0  0.10414443131E+03 -0.10777260172E+03 -0.19325655623E+03  0.29898677693E+03  0.17200000000E+03 0.  1.
         -6    1    1    2    0  502 -0.10414443131E+03  0.10777260172E+03 -0.75759972597E+02  0.24038421267E+03  0.17200000000E+03 0.  1.
</event>
<event>
 4    1  0.4538619E+000  0.1774759E+03  0.7818608E-02  0.1170268E+00
         21   -1    0    0  501  502  0.00000000000E+00  0.00000000000E+00  0.18019457809E+04  0.18019457809E+04  0.00000000000E+00 0. -1.
         21   -1    0    0  502  503 -0.00000000000E+00 -0.00000000000E+00 -0.28731694695E+02  0.28731694695E+02  0.00000000000E+00 0. -1.
          6    1    1    2  501    0 -0.31996056468E+02  0.29831816925E+02  0.14594211385E+04  0.14701726920E+04  0.17200000000E+03 0. -1.
         -6    1    1    2    0  503  0.31996056468E+02 -0.29831816925E+02  0.31379294767E+03  0.36050478351E+03  0.17200000000E+03 0. -1.
</event>
<event>
 4    1  0.4538619E+000  0.2479207E+03  0.7818608E-02  0.1114626E+00
         21   -1    0    0  501  502  0.00000000000E+00  0.00000000000E+00  0.87327464896E+02  0.87327464896E+02  0.00000000000E+00 0. -1.
         21   -1    0    0  502  503 -0.00000000000E+00 -0.00000000000E+00 -0.70387497025E+03  0.70387497025E+03  0.00000000000E+00 0.  1.
          6    1    1    2  501    0  0.14380358913E+03 -0.10583571861E+03 -0.31101210872E+03  0.39773509193E+03  0.17200000000E+03 0. -1.
         -6    1    1    2    0  503 -0.14380358913E+03  0.10583571861E+03 -0.30553539663E+03  0.39346734321E+03  0.17200000000E+03 0. -1.
</event>
<event>
 4    1  0.4538619E+000  0.1936027E+03  0.7818608E-02  0.1155251E+00
         21   -1    0    0  503  502  0.00000000000E+00  0.00000000000E+00  0.31448883001E+02  0.31448883001E+02  0.00000000000E+00 0.  1.
         21   -1    0    0  501  503 -0.00000000000E+00 -0.00000000000E+00 -0.23592399239E+04  0.23592399239E+04  0.00000000000E+00 0.  1.
          6    1    1    2  501    0 -0.83379380958E+02 -0.30755424740E+02 -0.20047424510E+04  0.20140690932E+04  0.17200000000E+03 0.  1.
         -6    1    1    2    0  502  0.83379380958E+02  0.30755424740E+02 -0.32304858993E+03  0.37661971373E+03  0.17200000000E+03 0.  1.
</event>
<event>
 4    1  0.4538619E+000  0.2001928E+03  0.7818608E-02  0.1149576E+00
         21   -1    0    0  501  502  0.00000000000E+00  0.00000000000E+00  0.18165588383E+03  0.18165588383E+03  0.00000000000E+00 0.  1.
         21   -1    0    0  502  503 -0.00000000000E+00 -0.00000000000E+00 -0.46671900337E+03  0.46671900337E+03  0.00000000000E+00 0.  1.
          6    1    1    2  501    0 -0.68582834850E+02 -0.76089006592E+02  0.92877027602E+02  0.22068820634E+03  0.17200000000E+03 0.  1.
         -6    1    1    2    0  503  0.68582834850E+02  0.76089006592E+02 -0.37794014714E+03  0.42768668086E+03  0.17200000000E+03 0.  1.
</event>
<event>
 4    1  0.4538619E+000  0.2410694E+03  0.7818608E-02  0.1119082E+00
         21   -1    0    0  503  502  0.00000000000E+00  0.00000000000E+00  0.98042228657E+03  0.98042228657E+03  0.00000000000E+00 0. -1.
         21   -1    0    0  501  503 -0.00000000000E+00 -0.00000000000E+00 -0.92590459634E+02  0.92590459634E+02  0.00000000000E+00 0. -1.
          6    1    1    2  501    0 -0.16539619606E+03 -0.34272105113E+02  0.12209444157E+03  0.27022496465E+03  0.17200000000E+03 0. -1.
         -6    1    1    2    0  502  0.16539619606E+03  0.34272105113E+02  0.76573738537E+03  0.80278778155E+03  0.17200000000E+03 0. -1.
</event>
<event>
 4    1  0.4538619E+000  0.5910798E+03  0.7818608E-02  0.9924087E-01
         21   -1    0    0  501  502  0.00000000000E+00  0.00000000000E+00  0.59784903474E+03  0.59784903474E+03  0.00000000000E+00 0. -1.
         21   -1    0    0  502  503 -0.00000000000E+00 -0.00000000000E+00 -0.12482653193E+04  0.12482653193E+04  0.00000000000E+00 0.  1.
          6    1    1    2  501    0 -0.10716767708E+03  0.55525347266E+03  0.34795344384E+03  0.68589133906E+03  0.17200000000E+03 0. -1.
         -6    1    1    2    0  503  0.10716767708E+03 -0.55525347266E+03 -0.99836972843E+03  0.11602230150E+04  0.17200000000E+03 0.  1.
</event>
<event>
 4    1  0.4538619E+000  0.2551186E+03  0.7818608E-02  0.1110112E+00
         21   -1    0    0  501  502  0.00000000000E+00  0.00000000000E+00  0.17359787714E+03  0.17359787714E+03  0.00000000000E+00 0. -1.
         21   -1    0    0  502  503 -0.00000000000E+00 -0.00000000000E+00 -0.44126835170E+03  0.44126835170E+03  0.00000000000E+00 0.  1.
          6    1    1    2  501    0 -0.13636803908E+03 -0.13002029123E+03 -0.14625834291E+02  0.25553753784E+03  0.17200000000E+03 0.  1.
         -6    1    1    2    0  503  0.13636803908E+03  0.13002029123E+03 -0.25304464026E+03  0.35932869101E+03  0.17200000000E+03 0.  1.
</event>
<event>
 4    1  0.4538619E+000  0.3054461E+03  0.7818608E-02  0.1082549E+00
         21   -1    0    0  501  502  0.00000000000E+00  0.00000000000E+00  0.64804657947E+03  0.64804657947E+03  0.00000000000E+00 0. -1.
         21   -1    0    0  502  503 -0.00000000000E+00 -0.00000000000E+00 -0.26337578838E+03  0.26337578838E+03  0.00000000000E+00 0.  1.
          6    1    1    2  501    0  0.22437033514E+03  0.11563425305E+03  0.49918098989E+03  0.58521704387E+03  0.17200000000E+03 0. -1.
         -6    1    1    2    0  503 -0.22437033514E+03 -0.11563425305E+03 -0.11451019879E+03  0.32620532398E+03  0.17200000000E+03 0.  1.
</event>
<event>
 4    1  0.4538619E+000  0.1783400E+03  0.7818608E-02  0.1169419E+00
         21   -1    0    0  503  502  0.00000000000E+00  0.00000000000E+00  0.21712994589E+03  0.21712994589E+03  0.00000000000E+00 0.  1.
         21   -1    0    0  501  503 -0.00000000000E+00 -0.00000000000E+00 -0.30303737396E+03  0.30303737396E+03  0.00000000000E+00 0. -1.
          6    1    1    2  501    0 -0.38121008319E+02 -0.27711881241E+02 -0.22989359317E+03  0.29095742613E+03  0.17200000000E+03 0. -1.
         -6    1    1    2    0  502  0.38121008319E+02  0.27711881241E+02  0.14398616510E+03  0.22920989372E+03  0.17200000000E+03 0.  1.
</event>
<event>
 4    1  0.4538619E+000  0.2252708E+03  0.7818608E-02  0.1130013E+00
         21   -1    0    0  503  502  0.00000000000E+00  0.00000000000E+00  0.16476127727E+03  0.16476127727E+03  0.00000000000E+00 0. -1.
         21   -1    0    0  501  503 -0.00000000000E+00 -0.00000000000E+00 -0.31978837884E+03  0.31978837884E+03  0.00000000000E+00 0. -1.
          6    1    1    2  501    0  0.12403284394E+03  0.76018316350E+02 -0.31002853122E+02  0.22739416812E+03  0.17200000000E+03 0. -1.
         -6    1    1    2    0  502 -0.12403284394E+03 -0.76018316350E+02 -0.12402424846E+03  0.25715548798E+03  0.17200000000E+03 0. -1.
</event>
<event>
 4    1  0.4538619E+000  0.4486050E+03  0.7818608E-02  0.1028139E+00
         21   -1    0    0  503  502  0.00000000000E+00  0.00000000000E+00  0.88883745808E+03  0.88883745808E+03  0.00000000000E+00 0.  1.
         21   -1    0    0  501  503 -0.00000000000E+00 -0.00000000000E+00 -0.27585073467E+03  0.27585073467E+03  0.00000000000E+00 0.  1.
          6    1    1    2  501    0 -0.41398744497E+03  0.16638002825E+02  0.59967977257E+02  0.45259538887E+03  0.17200000000E+03 0.  1.
         -6    1    1    2    0  502  0.41398744497E+03 -0.16638002825E+02  0.55301874616E+03  0.71209280387E+03  0.17200000000E+03 0.  1.
</event>
<event>
 4    1  0.4538619E+000  0.1750442E+03  0.7818608E-02  0.1172687E+00
         21   -1    0    0  503  502  0.00000000000E+00  0.00000000000E+00  0.44949870200E+03  0.44949870200E+03  0.00000000000E+00 0.  1.
         21   -1    0    0  501  503 -0.00000000000E+00 -0.00000000000E+00 -0.14700214866E+03  0.14700214866E+03  0.00000000000E+00 0.  1.
          6    1    1    2  501    0  0.32399854456E+02 -0.25933951915E+01 -0.67166617473E+02  0.18748821502E+03  0.17200000000E+03 0.  1.
         -6    1    1    2    0  502 -0.32399854456E+02  0.25933951915E+01  0.36966317080E+03  0.40901263564E+03  0.17200000000E+03 0.  1.
</event>
<event>
 4    1  0.4538619E+000  0.2285554E+03  0.7818608E-02  0.1127661E+00
         21   -1    0    0  501  502  0.00000000000E+00  0.00000000000E+00  0.11234123031E+03  0.11234123031E+03  0.00000000000E+00 0.  1.
         21   -1    0    0  502  503 -0.00000000000E+00 -0.00000000000E+00 -0.59147205632E+03  0.59147205632E+03  0.00000000000E+00 0. -1.
          6    1    1    2  501    0 -0.26942781471E+02 -0.14807995758E+03 -0.76832942284E+02  0.24112421764E+03  0.17200000000E+03 0.  1.
         -6    1    1    2    0  503  0.26942781471E+02  0.14807995758E+03 -0.40229788373E+03  0.46268906899E+03  0.17200000000E+03 0. -1.
</event>
<event>
 4    1  0.4538619E+000  0.2158237E+03  0.7818608E-02  0.1137035E+00
         21   -1    0    0  501  502  0.00000000000E+00  0.00000000000E+00  0.12640150249E+04  0.12640150249E+04  0.00000000000E+00 0. -1.
         21   -1    0    0  502  503 -0.00000000000E+00 -0.00000000000E+00 -0.62079116643E+02  0.62079116643E+02  0.00000000000E+00 0.  1.
          6    1    1    2  501    0 -0.12998238703E+03  0.10022427739E+02  0.10236525095E+04  0.10461569338E+04  0.17200000000E+03 0. -1.
         -6    1    1    2    0  503  0.12998238703E+03 -0.10022427739E+02  0.17828339878E+03  0.27993720774E+03  0.17200000000E+03 0.  1.
</event>
<event>
 4    1  0.4538619E+000  0.1971340E+03  0.7818608E-02  0.1152180E+00
         21   -1    0    0  503  502  0.00000000000E+00  0.00000000000E+00  0.21040331998E+03  0.21040331998E+03  0.00000000000E+00 0.  1.
         21   -1    0    0  501  503 -0.00000000000E+00 -0.00000000000E+00 -0.23559720157E+03  0.23559720157E+03  0.00000000000E+00 0. -1.
          6    1    1    2  501    0 -0.85965102620E+02 -0.43448950111E+02 -0.11624491848E+03  0.22885517518E+03  0.17200000000E+03 0.  1.
         -6    1    1    2    0  502  0.85965102620E+02  0.43448950111E+02  0.91051036886E+02  0.21714534638E+03  0.17200000000E+03 0.  1.
</event>
<event>
 4    1  0.4538619E+000  0.2005691E+03  0.7818608E-02  0.1149260E+00
         21   -1    0    0  503  502  0.00000000000E+00  0.00000000000E+00  0.38185048641E+02  0.38185048641E+02  0.00000000000E+00 0.  1.
         21   -1    0    0  501  503 -0.00000000000E+00 -0.00000000000E+00 -0.10546417376E+04  0.10546417376E+04  0.00000000000E+00 0.  1.
          6    1    1    2  501    0 -0.46366258198E+02  0.92163612176E+02 -0.49025249487E+03  0.52969375118E+03  0.17200000000E+03 0.  1.
         -6    1    1    2    0  502  0.46366258198E+02 -0.92163612176E+02 -0.52620419413E+03  0.56313303511E+03  0.17200000000E+03 0.  1.
</event>
<event>
 4    1  0.4538619E+000  0.1813244E+03  0.7818608E-02  0.1166527E+00
         21   -1    0    0  503  502  0.00000000000E+00  0.00000000000E+00  0.19180143682E+03  0.19180143682E+03  0.00000000000E+00 0.  1.
         21   -1    0    0  501  503 -0.00000000000E+00 -0.00000000000E+00 -0.71225431549E+03  0.71225431549E+03  0.00000000000E+00 0.  1.
          6    1    1    2  501    0 -0.47010544856E+02  0.32932603003E+02 -0.65412093107E+03  0.67878769887E+03  0.17200000000E+03 0.  1.
         -6    1    1    2    0  502  0.47010544856E+02 -0.32932603003E+02  0.13366805240E+03  0.22526805344E+03  0.17200000000E+03 0.  1.
</event>
<event>
 4    1  0.4538619E+000  0.2267034E+03  0.7818608E-02  0.1128982E+00
         21   -1    0    0  501  502  0.00000000000E+00  0.00000000000E+00  0.75962634640E+02  0.75962634640E+02  0.00000000000E+00 0. -1.
         21   -1    0    0  502  503 -0.00000000000E+00 -0.00000000000E+00 -0.13109264227E+04  0.13109264227E+04  0.00000000000E+00 0. -1.
          6    1    1    2  501    0  0.13453100409E+03  0.60924808926E+02 -0.13510387575E+03  0.26390809129E+03  0.17200000000E+03 0. -1.
         -6    1    1    2    0  503 -0.13453100409E+03 -0.60924808926E+02 -0.10998599123E+04  0.11229809660E+04  0.17200000000E+03 0. -1.
</event>
<event>
 4    1  0.4538619E+000  0.2706811E+03  0.7818608E-02  0.1100890E+00
         21   -1    0    0  503  502  0.00000000000E+00  0.00000000000E+00  0.28499111787E+03  0.28499111787E+03  0.00000000000E+00 0. -1.
         21   -1    0    0  501  503 -0.00000000000E+00 -0.00000000000E+00 -0.47509739167E+03  0.47509739167E+03  0.00000000000E+00 0. -1.
          6    1    1    2  501    0 -0.20614891263E+03 -0.34451200338E+02 -0.35249479997E+03  0.44443317089E+03  0.17200000000E+03 0. -1.
         -6    1    1    2    0  502  0.20614891263E+03  0.34451200338E+02  0.16238852617E+03  0.31565533865E+03  0.17200000000E+03 0. -1.
</event>
<event>
 4    1  0.4538619E+000  0.2543326E+03  0.7818608E-02  0.1110597E+00
         21   -1    0    0  501  502  0.00000000000E+00  0.00000000000E+00  0.26499650182E+03  0.26499650182E+03  0.00000000000E+00 0. -1.
         21   -1    0    0  502  503 -0.00000000000E+00 -0.00000000000E+00 -0.33632042108E+03  0.33632042108E+03  0.00000000000E+00 0. -1.
          6    1    1    2  501    0 -0.17822753972E+03  0.57758272098E+02  0.12177817275E+03  0.28198403726E+03  0.17200000000E+03 0. -1.
         -6    1    1    2    0  503  0.17822753972E+03 -0.57758272098E+02 -0.19310209201E+03  0.31933288564E+03  0.17200000000E+03 0. -1.
</event>
<event>
 4    1  0.4538619E+000  0.2950329E+03  0.7818608E-02  0.1087750E+00
         21   -1    0    0  503  502  0.00000000000E+00  0.00000000000E+00  0.21728792478E+03  0.21728792478E+03  0.00000000000E+00 0. -1.
         21   -1    0    0  501  503 -0.00000000000E+00 -0.00000000000E+00 -0.91665380054E+03  0.91665380054E+03  0.00000000000E+00 0. -1.
          6    1    1    2  501    0 -0.12487520294E+03  0.20461333232E+03 -0.77509295295E+03  0.82934523438E+03  0.17200000000E+03 0. -1.
         -6    1    1    2    0  502  0.12487520294E+03 -0.20461333232E+03  0.75727077183E+02  0.30459649094E+03  0.17200000000E+03 0. -1.
</event>
<event>
 4    1  0.4538619E+000  0.2423247E+03  0.7818608E-02  0.1118254E+00
         21   -1    0    0  501  502  0.00000000000E+00  0.00000000000E+00  0.57683220981E+03  0.57683220981E+03  0.00000000000E+00 0. -1.
         21   -1    0    0  502  503 -0.00000000000E+00 -0.00000000000E+00 -0.10319477128E+03  0.10319477128E+03  0.00000000000E+00 0.  1.
          6    1    1    2  501    0  0.14818191677E+03 -0.84731296106E+02  0.27635403160E+03  0.36754975688E+03  0.17200000000E+03 0.  1.
         -6    1    1    2    0  503 -0.14818191677E+03  0.84731296106E+02  0.19728340693E+03  0.31247722421E+03  0.17200000000E+03 0. -1.
</event>
<event>
 4    1  0.4538619E+000  0.1944441E+03  0.7818608E-02  0.1154513E+00
         21   -1    0    0  501  502  0.00000000000E+00  0.00000000000E+00  0.51502575665E+03  0.51502575665E+03  0.00000000000E+00 0.  1.
         21   -1    0    0  502  503 -0.00000000000E+00 -0.00000000000E+00 -0.45893242984E+03  0.45893242984E+03  0.00000000000E+00 0.  1.
          6    1    1    2  501    0 -0.79565462698E+02  0.43518456210E+02  0.47438094532E+03  0.51268489364E+03  0.17200000000E+03 0.  1.
         -6    1    1    2    0  503  0.79565462698E+02 -0.43518456210E+02 -0.41828761851E+03  0.46127329284E+03  0.17200000000E+03 0.  1.
</event>
<event>
 4    1  0.4538619E+000  0.2250218E+03  0.7818608E-02  0.1130194E+00
         21   -1    0    0  501  502  0.00000000000E+00  0.00000000000E+00  0.11050053592E+03  0.11050053592E+03  0.00000000000E+00 0. -1.
         21   -1    0    0  502  503 -0.00000000000E+00 -0.00000000000E+00 -0.45869524720E+03  0.45869524720E+03  0.00000000000E+00 0. -1.
          6    1    1    2  501    0 -0.70858636018E+02  0.12660909136E+03 -0.16504656478E+03  0.27906124213E+03  0.17200000000E+03 0. -1.
         -6    1    1    2    0  503  0.70858636018E+02 -0.12660909136E+03 -0.18314814650E+03  0.29013454099E+03  0.17200000000E+03 0. -1.
</event>
<event>
 4    1  0.4538619E+000  0.2094171E+03  0.7818608E-02  0.1142028E+00
         21   -1    0    0  503  502  0.00000000000E+00  0.00000000000E+00  0.58684373437E+03  0.58684373437E+03  0.00000000000E+00 0. -1.
         21   -1    0    0  501  503 -0.00000000000E+00 -0.00000000000E+00 -0.10819617483E+03  0.10819617483E+03  0.00000000000E+00 0.  1.
          6    1    1    2  501    0  0.11221610966E+03 -0.40976173220E+02  0.46051564046E+02  0.21442072799E+03  0.17200000000E+03 0.  1.
         -6    1    1    2    0  502 -0.11221610966E+03  0.40976173220E+02  0.43259599549E+03  0.48061918122E+03  0.17200000000E+03 0. -1.
</event>
<event>
 4    1  0.4538619E+000  0.1858644E+03  0.7818608E-02  0.1162245E+00
         21   -1    0    0  503  502  0.00000000000E+00  0.00000000000E+00  0.21014831072E+04  0.21014831072E+04  0.00000000000E+00 0. -1.
         21   -1    0    0  501  503 -0.00000000000E+00 -0.00000000000E+00 -0.16446742770E+02  0.16446742770E+02  0.00000000000E+00 0. -1.
          6    1    1    2  501    0  0.16956450615E+02 -0.68366960596E+02  0.10659966638E+04  0.10820787632E+04  0.17200000000E+03 0. -1.
         -6    1    1    2    0  502 -0.16956450615E+02  0.68366960596E+02  0.10190397006E+04  0.10358510868E+04  0.17200000000E+03 0. -1.
</event>
