<event>
 4    1  0.4386646E+000  0.2205927E+03  0.7818608E-02  0.1133442E+00
         21   -1    0    0  501  502  0.00000000000E+00  0.00000000000E+00  0.67382176818E+03  0.67382176818E+03  0.00000000000E+00 0. -1.
         21   -1    0    0  502  503 -0.00000000000E+00 -0.00000000000E+00 -0.77137011065E+02  0.77137011065E+02  0.00000000000E+00 0. -1.
          6    1    1    2  501    0  0.12550254493E+03 -0.57673701278E+02  0.39317409082E+03  0.45082924738E+03  0.17200000000E+03 0. -1.
         -6    1    1    2    0  503 -0.12550254493E+03  0.57673701278E+02  0.20351066630E+03  0.30012953187E+03  0.17200000000E+03 0. -1.
</event>
<event>
 4    1  0.4386646E+000  0.2223102E+03  0.7818608E-02  0.1132172E+00
         21   -1    0    0  503  502  0.00000000000E+00  0.00000000000E+00  0.13596801183E+03  0.13596801183E+03  0.00000000000E+00 0. -1.
         21   -1    0    0  501  503 -0.00000000000E+00 -0.00000000000E+00 -0.55085131406E+03  0.55085131406E+03  0.00000000000E+00 0. -1.
          6    1    1    2  501    0 -0.12987685127E+03  0.54496224955E+02 -0.40772521726E+03  0.46439389296E+03  0.17200000000E+03 0. -1.
         -6    1    1    2    0  502  0.12987685127E+03 -0.54496224955E+02 -0.71580849695E+01  0.22242543292E+03  0.17200000000E+03 0. -1.
</event>
<event>
 4    1  0.4386646E+000  0.1767565E+03  0.7818608E-02  0.1170980E+00
         21   -1    0    0  501  502  0.00000000000E+00  0.00000000000E+00  0.20321251737E+03  0.20321251737E+03  0.00000000000E+00 0. -1.
         21   -1    0    0  502  503 -0.00000000000E+00 -0.00000000000E+00 -0.15421573753E+03  0.15421573753E+03  0.00000000000E+00 0. -1.
          6    1    1    2  501    0  0.10398529214E+02 -0.39379480098E+02  0.14622760288E+02  0.17736036192E+03  0.17200000000E+03 0. -1.
         -6    1    1    2    0  503 -0.10398529214E+02  0.39379480098E+02  0.34374019548E+02  0.18006789298E+03  0.17200000000E+03 0. -1.
</event>
<event>
 4    1  0.4386646E+000  0.2125816E+03  0.7818608E-02  0.1139538E+00
         21   -1    0    0  501  502  0.00000000000E+00  0.00000000000E+00  0.24524709582E+03  0.24524709582E+03  0.00000000000E+00 0.  1.
         21   -1    0    0  502  503 -0.00000000000E+00 -0.00000000000E+00 -0.20144539700E+03  0.20144539700E+03  0.00000000000E+00 0.  1.
          6    1    1    2  501    0 -0.11848435199E+03 -0.39602863186E+02  0.87122567945E+02  0.22974174693E+03  0.17200000000E+03 0.  1.
         -6    1    1    2    0  503  0.11848435199E+03  0.39602863186E+02 -0.43320869127E+02  0.21695074589E+03  0.17200000000E+03 0.  1.
</event>
<event>
 4    1  0.4386646E+000  0.1721378E+03  0.7818608E-02  0.1175637E+00
         21   -1    0    0  501  502  0.00000000000E+00  0.00000000000E+00  0.35439935459E+03  0.35439935459E+03  0.00000000000E+00 0.  1.
         21   -1    0    0  502  503 -0.00000000000E+00 -0.00000000000E+00 -0.23279810068E+03  0.23279810068E+03  0.00000000000E+00 0.  1.
          6    1    1    2  501    0 -0.59746129904E-01  0.68858272361E+01  0.29583489290E+03  0.34227138654E+03  0.17200000000E+03 0.  1.
         -6    1    1    2    0  503  0.59746129904E-01 -0.68858272361E+01 -0.17423363900E+03  0.24492606873E+03  0.17200000000E+03 0.  1.
</event>
<event>
 4    1  0.4386646E+000  0.1800582E+03  0.7818608E-02  0.1167747E+00
         21   -1    0    0  501  502  0.00000000000E+00  0.00000000000E+00  0.96914831172E+02  0.96914831172E+02  0.00000000000E+00 0. -1.
         21   -1    0    0  502  503 -0.00000000000E+00 -0.00000000000E+00 -0.67125976479E+03  0.67125976479E+03  0.00000000000E+00 0. -1.
          6    1    1    2  501    0 -0.51689838877E+01  0.53011834356E+02 -0.15137314166E+02  0.18069341786E+03  0.17200000000E+03 0. -1.
         -6    1    1    2    0  503  0.51689838877E+01 -0.53011834356E+02 -0.55920761945E+03  0.58748117810E+03  0.17200000000E+03 0. -1.
</event>
<event>
 4    1  0.4386646E+000  0.1930921E+03  0.7818608E-02  0.1155702E+00
         21   -1    0    0  501  502  0.00000000000E+00  0.00000000000E+00  0.22532458432E+03  0.22532458432E+03  0.00000000000E+00 0.  1.
         21   -1    0    0  502  503 -0.00000000000E+00 -0.00000000000E+00 -0.22689624497E+03  0.22689624497E+03  0.00000000000E+00 0. -1.
          6    1    1    2  501    0 -0.23218393844E+02 -0.84625367458E+02  0.11686162026E+03  0.22570153947E+03  0.17200000000E+03 0.  1.
         -6    1    1    2    0  503  0.23218393844E+02  0.84625367458E+02 -0.11843328091E+03  0.22651928981E+03  0.17200000000E+03 0. -1.
</event>
<event>
 4    1  0.4386646E+000  0.1938530E+03  0.7818608E-02  0.1155031E+00
         21   -1    0    0  501  502  0.00000000000E+00  0.00000000000E+00  0.25881796886E+03  0.25881796886E+03  0.00000000000E+00 0.  1.
         21   -1    0    0  502  503 -0.00000000000E+00 -0.00000000000E+00 -0.17422042891E+03  0.17422042891E+03  0.00000000000E+00 0. -1.
          6    1    1    2  501    0 -0.20992778057E+02  0.86915478557E+02  0.13067560521E+03  0.23378432569E+03  0.17200000000E+03 0. -1.
         -6    1    1    2    0  503  0.20992778057E+02 -0.86915478557E+02 -0.46078065257E+02  0.19925407208E+03  0.17200000000E+03 0. -1.
</event>
<event>
 4    1  0.4386646E+000  0.1902247E+03  0.7818608E-02  0.1158259E+00
         21   -1    0    0  501  502  0.00000000000E+00  0.00000000000E+00  0.93739711534E+02  0.93739711534E+02  0.00000000000E+00 0. -1.
         21   -1    0    0  502  503 -0.00000000000E+00 -0.00000000000E+00 -0.38643723006E+03  0.38643723006E+03  0.00000000000E+00 0. -1.
          6    1    1    2  501    0  0.81243312761E+02 -0.97083544057E+00 -0.15423620965E+03  0.24489635921E+03  0.17200000000E+03 0. -1.
         -6    1    1    2    0  503 -0.81243312761E+02  0.97083544057E+00 -0.13846130888E+03  0.23528058238E+03  0.17200000000E+03 0. -1.
</event>
<event>
 4    1  0.4386646E+000  0.2638478E+03  0.7818608E-02  0.1104853E+00
         21   -1    0    0  503  502  0.00000000000E+00  0.00000000000E+00  0.15621422907E+03  0.15621422907E+03  0.00000000000E+00 0.  1.
         21   -1    0    0  501  503 -0.00000000000E+00 -0.00000000000E+00 -0.46074252466E+03  0.46074252466E+03  0.00000000000E+00 0. -1.
          6    1    1    2  501    0  0.18606523025E+03  0.73562207414E+02 -0.20810953275E+03  0.33604351785E+03  0.17200000000E+03 0.  1.
         -6    1    1    2    0  502 -0.18606523025E+03 -0.73562207414E+02 -0.96418762847E+02  0.28091323588E+03  0.17200000000E+03 0. -1.
</event>
<event>
 4    1  0.4386646E+000  0.1925259E+03  0.7818608E-02  0.1156203E+00
         21   -1    0    0  501  502  0.00000000000E+00  0.00000000000E+00  0.46082471398E+03  0.46082471398E+03  0.00000000000E+00 0.  1.
         21   -1    0    0  502  503 -0.00000000000E+00 -0.00000000000E+00 -0.91244620687E+02  0.91244620687E+02  0.00000000000E+00 0.  1.
          6    1    1    2  501    0 -0.69263412601E+02 -0.51815009529E+02  0.27980125151E+03  0.33963944983E+03  0.17200000000E+03 0.  1.
         -6    1    1    2    0  503  0.69263412601E+02  0.51815009529E+02  0.89778841784E+02  0.21242988483E+03  0.17200000000E+03 0.  1.
</event>
<event>
 4    1  0.4386646E+000  0.2015165E+03  0.7818608E-02  0.1148466E+00
         21   -1    0    0  501  502  0.00000000000E+00  0.00000000000E+00  0.22350450112E+03  0.22350450112E+03  0.00000000000E+00 0.  1.
         21   -1    0    0  502  503 -0.00000000000E+00 -0.00000000000E+00 -0.19437758459E+03  0.19437758459E+03  0.00000000000E+00 0.  1.
          6    1    1    2  501    0 -0.93488878473E+02 -0.47798887828E+02  0.67941386215E+02  0.21266155279E+03  0.17200000000E+03 0.  1.
         -6    1    1    2    0  503  0.93488878473E+02  0.47798887828E+02 -0.38814469681E+02  0.20522053292E+03  0.17200000000E+03 0.  1.
</event>
<event>
 4    1  0.4386646E+000  0.2022821E+03  0.7818608E-02  0.1147828E+00
         21   -1    0    0  501  502  0.00000000000E+00  0.00000000000E+00  0.92677774729E+02  0.92677774729E+02  0.00000000000E+00 0. -1.
         21   -1    0    0  502  503 -0.00000000000E+00 -0.00000000000E+00 -0.50446266826E+03  0.50446266826E+03  0.00000000000E+00 0.  1.
          6    1    1    2  501    0  0.24675064518E+02 -0.10356239985E+03 -0.31136611832E+03  0.37130430796E+03  0.17200000000E+03 0. -1.
         -6    1    1    2    0  503 -0.24675064518E+02  0.10356239985E+03 -0.10041877521E+03  0.22583613503E+03  0.17200000000E+03 0. -1.
</event>
<event>
 4    1  0.4386646E+000  0.1939496E+03  0.7818608E-02  0.1154947E+00
         21   -1    0    0  503  502  0.00000000000E+00  0.00000000000E+00  0.40878990118E+03  0.40878990118E+03  0.00000000000E+00 0. -1.
         21   -1    0    0  501  503 -0.00000000000E+00 -0.00000000000E+00 -0.13269018019E+03  0.13269018019E+03  0.00000000000E+00 0. -1.
          6    1    1    2  501    0  0.67781889517E+02 -0.58634955671E+02 -0.11841438917E+02  0.19431073632E+03  0.17200000000E+03 0. -1.
         -6    1    1    2    0  502 -0.67781889517E+02  0.58634955671E+02  0.28794115991E+03  0.34716934505E+03  0.17200000000E+03 0. -1.
</event>
<event>
 4    1  0.4386646E+000  0.2188003E+03  0.7818608E-02  0.1134781E+00
         21   -1    0    0  501  502  0.00000000000E+00  0.00000000000E+00  0.16077325348E+03  0.16077325348E+03  0.00000000000E+00 0.  1.
         21   -1    0    0  502  503 -0.00000000000E+00 -0.00000000000E+00 -0.33916269586E+03  0.33916269586E+03  0.00000000000E+00 0.  1.
          6    1    1    2  501    0  0.95744426684E+01 -0.13489952534E+03 -0.18696559430E+01  0.21880824368E+03  0.17200000000E+03 0.  1.
         -6    1    1    2    0  503 -0.95744426684E+01  0.13489952534E+03 -0.17651978644E+03  0.28112770567E+03  0.17200000000E+03 0.  1.
</event>
<event>
 4    1  0.4386646E+000  0.2130408E+03  0.7818608E-02  0.1139180E+00
         21   -1    0    0  501  502  0.00000000000E+00  0.00000000000E+00  0.64348332679E+03  0.64348332679E+03  0.00000000000E+00 0.  1.
         21   -1    0    0  502  503 -0.00000000000E+00 -0.00000000000E+00 -0.89429572610E+02  0.89429572610E+02  0.00000000000E+00 0. -1.
          6    1    1    2  501    0  0.57171140953E+02 -0.11195456202E+03  0.44548085853E+03  0.49380113267E+03  0.17200000000E+03 0.  1.
         -6    1    1    2    0  503 -0.57171140953E+02  0.11195456202E+03  0.10857289565E+03  0.23911176672E+03  0.17200000000E+03 0. -1.
</event>
<event>
 4    1  0.4386646E+000  0.2975114E+03  0.7818608E-02  0.1086491E+00
         21   -1    0    0  501  502  0.00000000000E+00  0.00000000000E+00  0.71282026531E+03  0.71282026531E+03  0.00000000000E+00 0.  1.
         21   -1    0    0  502  503 -0.00000000000E+00 -0.00000000000E+00 -0.14065536802E+03  0.14065536802E+03  0.00000000000E+00 0. -1.
          6    1    1    2  501    0  0.24223763884E+03 -0.15810083062E+02  0.43216311768E+03  0.52466941276E+03  0.17200000000E+03 0.  1.
         -6    1    1    2    0  503 -0.24223763884E+03  0.15810083062E+02  0.14000177961E+03  0.32880622058E+03  0.17200000000E+03 0. -1.
</event>
<event>
 4    1  0.4386646E+000  0.2747164E+03  0.7818608E-02  0.1098610E+00
         21   -1    0    0  501  502  0.00000000000E+00  0.00000000000E+00  0.11898687549E+03  0.11898687549E+03  0.00000000000E+00 0. -1.
         21   -1    0    0  502  503 -0.00000000000E+00 -0.00000000000E+00 -0.81037542384E+03  0.81037542384E+03  0.00000000000E+00 0. -1.
          6    1    1    2  501    0  0.13883168761E+03  0.16312838086E+03 -0.56231775892E+03  0.62583573574E+03  0.17200000000E+03 0. -1.
         -6    1    1    2    0  503 -0.13883168761E+03 -0.16312838086E+03 -0.12907078943E+03  0.30352656360E+03  0.17200000000E+03 0. -1.
</event>
<event>
 4    1  0.4386646E+000  0.2084437E+03  0.7818608E-02  0.1142804E+00
         21   -1    0    0  503  502  0.00000000000E+00  0.00000000000E+00  0.21538500834E+03  0.21538500834E+03  0.00000000000E+00 0.  1.
         21   -1    0    0  501  503 -0.00000000000E+00 -0.00000000000E+00 -0.58414787206E+03  0.58414787206E+03  0.00000000000E+00 0.  1.
          6    1    1    2  501    0  0.11711436475E+03  0.12206253223E+02 -0.50783821749E+03  0.54895211284E+03  0.17200000000E+03 0.  1.
         -6    1    1    2    0  502 -0.11711436475E+03 -0.12206253223E+02  0.13907535376E+03  0.25058076756E+03  0.17200000000E+03 0.  1.
</event>
<event>
 4    1  0.4386646E+000  0.1902917E+03  0.7818608E-02  0.1158199E+00
         21   -1    0    0  503  502  0.00000000000E+00  0.00000000000E+00  0.31195418847E+03  0.31195418847E+03  0.00000000000E+00 0.  1.
         21   -1    0    0  501  503 -0.00000000000E+00 -0.00000000000E+00 -0.33577206790E+03  0.33577206790E+03  0.00000000000E+00 0. -1.
          6    1    1    2  501    0 -0.34235140964E+02 -0.73857144286E+02 -0.27387720965E+03  0.33349609984E+03  0.17200000000E+03 0. -1.
         -6    1    1    2    0  502  0.34235140964E+02  0.73857144286E+02  0.25005933022E+03  0.31423015653E+03  0.17200000000E+03 0.  1.
</event>
<event>
 4    1  0.4386646E+000  0.2370027E+03  0.7818608E-02  0.1121806E+00
         21   -1    0    0  501  502  0.00000000000E+00  0.00000000000E+00  0.12393901656E+03  0.12393901656E+03  0.00000000000E+00 0.  1.
         21   -1    0    0  502  503 -0.00000000000E+00 -0.00000000000E+00 -0.73600612789E+03  0.73600612789E+03  0.00000000000E+00 0. -1.
          6    1    1    2  501    0  0.34031185110E+02 -0.15946209171E+03 -0.39508821042E+02  0.24027323445E+03  0.17200000000E+03 0.  1.
         -6    1    1    2    0  503 -0.34031185110E+02  0.15946209171E+03 -0.57255829029E+03  0.61967191000E+03  0.17200000000E+03 0. -1.
</event>
<event>
 4    1  0.4386646E+000  0.2072753E+03  0.7818608E-02  0.1143742E+00
         21   -1    0    0  503  502  0.00000000000E+00  0.00000000000E+00  0.94103932219E+03  0.94103932219E+03  0.00000000000E+00 0.  1.
         21   -1    0    0  501  503 -0.00000000000E+00 -0.00000000000E+00 -0.52364204979E+02  0.52364204979E+02  0.00000000000E+00 0.  1.
          6    1    1    2  501    0  0.10845864092E+03  0.40196587951E+02  0.26654332060E+03  0.33765127607E+03  0.17200000000E+03 0.  1.
         -6    1    1    2    0  502 -0.10845864092E+03 -0.40196587951E+02  0.62213179660E+03  0.65575225110E+03  0.17200000000E+03 0.  1.
</event>
<event>
 4    1  0.4386646E+000  0.1913260E+03  0.7818608E-02  0.1157271E+00
         21   -1    0    0  501  502  0.00000000000E+00  0.00000000000E+00  0.31403855439E+04  0.31403855439E+04  0.00000000000E+00 0. -1.
         21   -1    0    0  502  503 -0.00000000000E+00 -0.00000000000E+00 -0.12596965407E+02  0.12596965407E+02  0.00000000000E+00 0. -1.
          6    1    1    2  501    0  0.79275680139E+02  0.27147736514E+02  0.19946687394E+04  0.20038235983E+04  0.17200000000E+03 0. -1.
         -6    1    1    2    0  503 -0.79275680139E+02 -0.27147736514E+02  0.11331198391E+04  0.11491589111E+04  0.17200000000E+03 0. -1.
</event>
<event>
 4    1  0.4386646E+000  0.1783561E+03  0.7818608E-02  0.1169404E+00
         21   -1    0    0  501  502  0.00000000000E+00  0.00000000000E+00  0.47889151091E+03  0.47889151091E+03  0.00000000000E+00 0. -1.
         21   -1    0    0  502  503 -0.00000000000E+00 -0.00000000000E+00 -0.10559561864E+03  0.10559561864E+03  0.00000000000E+00 0. -1.
          6    1    1    2  501    0 -0.42027110104E+02 -0.21462410367E+02  0.36463807613E+03  0.40592097704E+03  0.17200000000E+03 0. -1.
         -6    1    1    2    0  503  0.42027110104E+02  0.21462410367E+02  0.86578161386E+01  0.17856615251E+03  0.17200000000E+03 0. -1.
</event>
<event>
 4    1  0.4386646E+000  0.2723752E+03  0.7818608E-02  0.1099928E+00
         21   -1    0    0  503  502  0.00000000000E+00  0.00000000000E+00  0.47622231218E+03  0.47622231218E+03  0.00000000000E+00 0. -1.
         21   -1    0    0  501  503 -0.00000000000E+00 -0.00000000000E+00 -0.16887079443E+03  0.16887079443E+03  0.00000000000E+00 0.  1.
          6    1    1    2  501    0 -0.67009463988E+02 -0.20028468362E+03  0.63887898353E+02  0.27976755765E+03  0.17200000000E+03 0.  1.
         -6    1    1    2    0  502  0.67009463988E+02  0.20028468362E+03  0.24346361940E+03  0.36532554897E+03  0.17200000000E+03 0.  1.
</event>
<event>
 4    1  0.4386646E+000  0.2309090E+03  0.7818608E-02  0.1126002E+00
         21   -1    0    0  501  502  0.00000000000E+00  0.00000000000E+00  0.47524853113E+02  0.47524853113E+02  0.00000000000E+00 0. -1.
         21   -1    0    0  502  503 -0.00000000000E+00 -0.00000000000E+00 -0.11419603974E+04  0.11419603974E+04  0.00000000000E+00 0. -1.
          6    1    1    2  501    0 -0.45841340114E+02  0.14708339875E+03 -0.46842506608E+03  0.52224610787E+03  0.17200000000E+03 0.  1.
         -6    1    1    2    0  503  0.45841340114E+02 -0.14708339875E+03 -0.62601047820E+03  0.66723914264E+03  0.17200000000E+03 0.  1.
</event>
<event>
 4    1  0.4386646E+000  0.1760621E+03  0.7818608E-02  0.1171670E+00
         21   -1    0    0  503  502  0.00000000000E+00  0.00000000000E+00  0.11071243993E+04  0.11071243993E+04  0.00000000000E+00 0. -1.
         21   -1    0    0  501  503 -0.00000000000E+00 -0.00000000000E+00 -0.34506975971E+03  0.34506975971E+03  0.00000000000E+00 0. -1.
          6    1    1    2  501    0  0.29104316871E+02  0.23807244239E+02 -0.31498938594E+03  0.36085476219E+03  0.17200000000E+03 0. -1.
         -6    1    1    2    0  502 -0.29104316871E+02 -0.23807244239E+02  0.10770440255E+04  0.10913393968E+04  0.17200000000E+03 0. -1.
</event>
<event>
 4    1  0.4386646E+000  0.2136299E+03  0.7818608E-02  0.1138723E+00
         21   -1    0    0  501  502  0.00000000000E+00  0.00000000000E+00  0.44375029977E+02  0.44375029977E+02  0.00000000000E+00 0.  1.
         21   -1    0    0  502  503 -0.00000000000E+00 -0.00000000000E+00 -0.17409385742E+04  0.17409385742E+04  0.00000000000E+00 0. -1.
          6    1    1    2  501    0  0.12670309740E+03  0.23698629395E+00 -0.27722385503E+03  0.34998685240E+03  0.17200000000E+03 0.  1.
         -6    1    1    2    0  503 -0.12670309740E+03 -0.23698629395E+00 -0.14193396892E+04  0.14353267518E+04  0.17200000000E+03 0. -1.
</event>
<event>
 4    1  0.4386646E+000  0.2168630E+03  0.7818608E-02  0.1136244E+00
         21   -1    0    0  503  502  0.00000000000E+00  0.00000000000E+00  0.79008887468E+02  0.79008887468E+02  0.00000000000E+00 0.  1.
         21   -1    0    0  501  503 -0.00000000000E+00 -0.00000000000E+00 -0.60900340556E+03  0.60900340556E+03  0.00000000000E+00 0. -1.
          6    1    1    2  501    0 -0.38033642179E+01  0.13202690460E+03 -0.31670500390E+03  0.38383802393E+03  0.17200000000E+03 0. -1.
         -6    1    1    2    0  502  0.38033642179E+01 -0.13202690460E+03 -0.21328951420E+03  0.30417426910E+03  0.17200000000E+03 0.  1.
</event>
<event>
 4    1  0.4386646E+000  0.1795319E+03  0.7818608E-02  0.1168257E+00
         21   -1    0    0  503  502  0.00000000000E+00  0.00000000000E+00  0.21975561401E+03  0.21975561401E+03  0.00000000000E+00 0. -1.
         21   -1    0    0  501  503 -0.00000000000E+00 -0.00000000000E+00 -0.68967926234E+03  0.68967926234E+03  0.00000000000E+00 0. -1.
          6    1    1    2  501    0 -0.40361751095E+02 -0.31916065204E+02 -0.63844122856E+03  0.66320351967E+03  0.17200000000E+03 0. -1.
         -6    1    1    2    0  502  0.40361751095E+02  0.31916065204E+02  0.16851758023E+03  0.24623135669E+03  0.17200000000E+03 0. -1.
</event>
<event>
 4    1  0.4386646E+000  0.1886416E+03  0.7818608E-02  0.1159692E+00
         21   -1    0    0  503  502  0.00000000000E+00  0.00000000000E+00  0.48045789500E+02  0.48045789500E+02  0.00000000000E+00 0.  1.
         21   -1    0    0  501  503 -0.00000000000E+00 -0.00000000000E+00 -0.78010745460E+03  0.78010745460E+03  0.00000000000E+00 0.  1.
          6    1    1    2  501    0  0.57090194739E+02 -0.52367729134E+02 -0.45914256434E+03  0.49638449188E+03  0.17200000000E+03 0.  1.
         -6    1    1    2    0  502 -0.57090194739E+02  0.52367729134E+02 -0.27291910076E+03  0.33176875222E+03  0.17200000000E+03 0.  1.
</event>
<event>
 4    1  0.4386646E+000  0.2170851E+03  0.7818608E-02  0.1136075E+00
         21   -1    0    0  503  502  0.00000000000E+00  0.00000000000E+00  0.13143859008E+03  0.13143859008E+03  0.00000000000E+00 0.  1.
         21   -1    0    0  501  503 -0.00000000000E+00 -0.00000000000E+00 -0.63634557635E+03  0.63634557635E+03  0.00000000000E+00 0.  1.
          6    1    1    2  501    0 -0.77989158553E+02  0.10704971518E+03 -0.50610261837E+03  0.55069575147E+03  0.17200000000E+03 0.  1.
         -6    1    1    2    0  502  0.77989158553E+02 -0.10704971518E+03  0.11956320952E+01  0.21708841496E+03  0.17200000000E+03 0.  1.
</event>
<event>
 4    1  0.4386646E+000  0.2187125E+03  0.7818608E-02  0.1134847E+00
         21   -1    0    0  501  502  0.00000000000E+00  0.00000000000E+00  0.36502006746E+03  0.36502006746E+03  0.00000000000E+00 0.  1.
         21   -1    0    0  502  503 -0.00000000000E+00 -0.00000000000E+00 -0.13586809345E+03  0.13586809345E+03  0.00000000000E+00 0. -1.
          6    1    1    2  501    0 -0.10220839630E+03 -0.88343696156E+02  0.16174729218E+03  0.27202454200E+03  0.17200000000E+03 0.  1.
         -6    1    1    2    0  503  0.10220839630E+03  0.88343696156E+02  0.67404681826E+02  0.22886361890E+03  0.17200000000E+03 0. -1.
</event>
<event>
 4    1  0.4386646E+000  0.3032100E+03  0.7818608E-02  0.1083647E+00
         21   -1    0    0  503  502  0.00000000000E+00  0.00000000000E+00  0.17182915506E+04  0.17182915506E+04  0.00000000000E+00 0.  1.
         21   -1    0    0  501  503 -0.00000000000E+00 -0.00000000000E+00 -0.75785540818E+02  0.75785540818E+02  0.00000000000E+00 0. -1.
          6    1    1    2  501    0 -0.24886681510E+03 -0.20435203952E+02  0.33486159315E+03  0.45173949992E+03  0.17200000000E+03 0. -1.
         -6    1    1    2    0  502  0.24886681510E+03  0.20435203952E+02  0.13076444167E+04  0.13423375915E+04  0.17200000000E+03 0.  1.
</event>
<event>
 4    1  0.4386646E+000  0.2257179E+03  0.7818608E-02  0.1129691E+00
         21   -1    0    0  501  502  0.00000000000E+00  0.00000000000E+00  0.78602527629E+03  0.78602527629E+03  0.00000000000E+00 0. -1.
         21   -1    0    0  502  503 -0.00000000000E+00 -0.00000000000E+00 -0.69837619612E+02  0.69837619612E+02  0.00000000000E+00 0.  1.
          6    1    1    2  501    0 -0.13001206029E+03 -0.66794016794E+02  0.47282077496E+03  0.52393516940E+03  0.17200000000E+03 0. -1.
         -6    1    1    2    0  503  0.13001206029E+03  0.66794016794E+02  0.24336688171E+03  0.33192772649E+03  0.17200000000E+03 0.  1.
</event>
<event>
 4    1  0.4386646E+000  0.1991170E+03  0.7818608E-02  0.1150486E+00
         21   -1    0    0  503  502  0.00000000000E+00  0.00000000000E+00  0.31820924823E+02  0.31820924823E+02  0.00000000000E+00 0.  1.
         21   -1    0    0  501  503 -0.00000000000E+00 -0.00000000000E+00 -0.12534810273E+04  0.12534810273E+04  0.00000000000E+00 0.  1.
          6    1    1    2  501    0  0.38113071208E+02  0.92795283125E+02 -0.66061303616E+03  0.68996895170E+03  0.17200000000E+03 0.  1.
         -6    1    1    2    0  502 -0.38113071208E+02 -0.92795283125E+02 -0.56104706632E+03  0.59533300042E+03  0.17200000000E+03 0.  1.
</event>
<event>
 4    1  0.4386646E+000  0.2875636E+03  0.7818608E-02  0.1091628E+00
         21   -1    0    0  501  502  0.00000000000E+00  0.00000000000E+00  0.12922270983E+04  0.12922270983E+04  0.00000000000E+00 0.  1.
         21   -1    0    0  502  503 -0.00000000000E+00 -0.00000000000E+00 -0.74667777372E+02  0.74667777372E+02  0.00000000000E+00 0. -1.
          6    1    1    2  501    0 -0.19914559274E+03 -0.11597362073E+03  0.35035853740E+03  0.45325925533E+03  0.17200000000E+03 0.  1.
         -6    1    1    2    0  503  0.19914559274E+03  0.11597362073E+03  0.86720078357E+03  0.91363562039E+03  0.17200000000E+03 0.  1.
</event>
<event>
 4    1  0.4386646E+000  0.1967889E+03  0.7818608E-02  0.1152477E+00
         21   -1    0    0  503  502  0.00000000000E+00  0.00000000000E+00  0.22182853551E+03  0.22182853551E+03  0.00000000000E+00 0. -1.
         21   -1    0    0  501  503 -0.00000000000E+00 -0.00000000000E+00 -0.18010800733E+03  0.18010800733E+03  0.00000000000E+00 0. -1.
          6    1    1    2  501    0 -0.90518913587E+02 -0.30792752975E+02  0.56082338819E+02  0.20462428028E+03  0.17200000000E+03 0. -1.
         -6    1    1    2    0  502  0.90518913587E+02  0.30792752975E+02 -0.14361810645E+02  0.19731226256E+03  0.17200000000E+03 0. -1.
</event>
<event>
 4    1  0.4386646E+000  0.1723592E+03  0.7818608E-02  0.1175410E+00
         21   -1    0    0  501  502  0.00000000000E+00  0.00000000000E+00  0.39317448616E+03  0.39317448616E+03  0.00000000000E+00 0.  1.
         21   -1    0    0  502  503 -0.00000000000E+00 -0.00000000000E+00 -0.10202714461E+03  0.10202714461E+03  0.00000000000E+00 0.  1.
          6    1    1    2  501    0  0.10804623381E+02  0.26354469780E+01  0.27168666154E+03  0.32174730384E+03  0.17200000000E+03 0.  1.
         -6    1    1    2    0  503 -0.10804623381E+02 -0.26354469780E+01  0.19460680007E+02  0.17345432694E+03  0.17200000000E+03 0.  1.
</event>
<event>
 4    1  0.4386646E+000  0.2053550E+03  0.7818608E-02  0.1145298E+00
         21   -1    0    0  501  502  0.00000000000E+00  0.00000000000E+00  0.74772735416E+03  0.74772735416E+03  0.00000000000E+00 0.  1.
         21   -1    0    0  502  503 -0.00000000000E+00 -0.00000000000E+00 -0.94110586648E+02  0.94110586648E+02  0.00000000000E+00 0.  1.
          6    1    1    2  501    0 -0.30575720958E+02 -0.10794356247E+03  0.59326079015E+03  0.62779698353E+03  0.17200000000E+03 0.  1.
         -6    1    1    2    0  503  0.30575720958E+02  0.10794356247E+03  0.60355977359E+02  0.21404095728E+03  0.17200000000E+03 0.  1.
</event>
<event>
 4    1  0.4386646E+000  0.3077018E+03  0.7818608E-02  0.1081453E+00
         21   -1    0    0  503  502  0.00000000000E+00  0.00000000000E+00  0.27892709495E+03  0.27892709495E+03  0.00000000000E+00 0. -1.
         21   -1    0    0  501  503 -0.00000000000E+00 -0.00000000000E+00 -0.65842585213E+03  0.65842585213E+03  0.00000000000E+00 0. -1.
          6    1    1    2  501    0  0.43318430078E+01 -0.25510314792E+03 -0.51596299782E+03  0.60074803043E+03  0.17200000000E+03 0. -1.
         -6    1    1    2    0  502 -0.43318430078E+01  0.25510314792E+03  0.13646424064E+03  0.33660491665E+03  0.17200000000E+03 0. -1.
</event>
<event>
 4    1  0.4386646E+000  0.2181759E+03  0.7818608E-02  0.1135250E+00
         21   -1    0    0  503  502  0.00000000000E+00  0.00000000000E+00  0.16403116322E+04  0.16403116322E+04  0.00000000000E+00 0.  1.
         21   -1    0    0  501  503 -0.00000000000E+00 -0.00000000000E+00 -0.41368988764E+02  0.41368988764E+02  0.00000000000E+00 0.  1.
          6    1    1    2  501    0 -0.63983201990E+02  0.11799514959E+03  0.34005759281E+03  0.40402954334E+03  0.17200000000E+03 0.  1.
         -6    1    1    2    0  502  0.63983201990E+02 -0.11799514959E+03  0.12588850507E+04  0.12776510777E+04  0.17200000000E+03 0.  1.
</event>
<event>
 4    1  0.4386646E+000  0.2243679E+03  0.7818608E-02  0.1130668E+00
         21   -1    0    0  503  502  0.00000000000E+00  0.00000000000E+00  0.11904791444E+03  0.11904791444E+03  0.00000000000E+00 0.  1.
         21   -1    0    0  501  503 -0.00000000000E+00 -0.00000000000E+00 -0.58405466255E+03  0.58405466255E+03  0.00000000000E+00 0. -1.
          6    1    1    2  501    0 -0.12073782690E+03 -0.78608673157E+02 -0.41718911599E+03  0.47369579357E+03  0.17200000000E+03 0. -1.
         -6    1    1    2    0  502  0.12073782690E+03  0.78608673157E+02 -0.47817632119E+02  0.22940678343E+03  0.17200000000E+03 0.  1.
</event>
<event>
 4    1  0.4386646E+000  0.1966543E+03  0.7818608E-02  0.1152593E+00
         21   -1    0    0  501  502  0.00000000000E+00  0.00000000000E+00  0.36788173631E+03  0.36788173631E+03  0.00000000000E+00 0.  1.
         21   -1    0    0  502  503 -0.00000000000E+00 -0.00000000000E+00 -0.15350148570E+03  0.15350148570E+03  0.00000000000E+00 0.  1.
          6    1    1    2  501    0  0.61083583651E+02 -0.73196488598E+02  0.25354112699E+03  0.32086762568E+03  0.17200000000E+03 0.  1.
         -6    1    1    2    0  503 -0.61083583651E+02  0.73196488598E+02 -0.39160876374E+02  0.20051559633E+03  0.17200000000E+03 0.  1.
</event>
<event>
 4    1  0.4386646E+000  0.1843561E+03  0.7818608E-02  0.1163653E+00
         21   -1    0    0  501  502  0.00000000000E+00  0.00000000000E+00  0.29013152893E+03  0.29013152893E+03  0.00000000000E+00 0.  1.
         21   -1    0    0  502  503 -0.00000000000E+00 -0.00000000000E+00 -0.23797115631E+03  0.23797115631E+03  0.00000000000E+00 0.  1.
          6    1    1    2  501    0 -0.55258939558E+02 -0.36737059480E+02  0.21423205383E+03  0.28263498515E+03  0.17200000000E+03 0.  1.
         -6    1    1    2    0  503  0.55258939558E+02  0.36737059480E+02 -0.16207168121E+03  0.24546770010E+03  0.17200000000E+03 0.  1.
</event>
<event>
 4    1  0.4386646E+000  0.1791835E+03  0.7818608E-02  0.1168596E+00
         21   -1    0    0  501  502  0.00000000000E+00  0.00000000000E+00  0.86350797931E+03  0.86350797931E+03  0.00000000000E+00 0.  1.
         21   -1    0    0  502  503 -0.00000000000E+00 -0.00000000000E+00 -0.37215919075E+02  0.37215919075E+02  0.00000000000E+00 0.  1.
          6    1    1    2  501    0  0.50106241324E+02  0.34778847435E+01  0.39949821006E+03  0.43784192461E+03  0.17200000000E+03 0.  1.
         -6    1    1    2    0  503 -0.50106241324E+02 -0.34778847435E+01  0.42679385017E+03  0.46288197377E+03  0.17200000000E+03 0.  1.
</event>
<event>
 4    1  0.4386646E+000  0.2517450E+03  0.7818608E-02  0.1112207E+00
         21   -1    0    0  503  502  0.00000000000E+00  0.00000000000E+00  0.15835021599E+04  0.15835021599E+04  0.00000000000E+00 0.  1.
         21   -1    0    0  501  503 -0.00000000000E+00 -0.00000000000E+00 -0.14060999236E+03  0.14060999236E+03  0.00000000000E+00 0. -1.
          6    1    1    2  501    0  0.25782178627E+02 -0.18200773856E+03 -0.76750015740E+01  0.25186195282E+03  0.17200000000E+03 0. -1.
         -6    1    1    2    0  502 -0.25782178627E+02  0.18200773856E+03  0.14505671691E+04  0.14722501994E+04  0.17200000000E+03 0.  1.
</event>
<event>
 4    1  0.4386646E+000  0.2127928E+03  0.7818608E-02  0.1139373E+00
         21   -1    0    0  501  502  0.00000000000E+00  0.00000000000E+00  0.29556939278E+03  0.29556939278E+03  0.00000000000E+00 0. -1.
         21   -1    0    0  502  503 -0.00000000000E+00 -0.00000000000E+00 -0.15789075197E+03  0.15789075197E+03  0.00000000000E+00 0. -1.
          6    1    1    2  501    0 -0.10597119445E+03  0.66834770209E+02  0.10792543921E+03  0.23859731975E+03  0.17200000000E+03 0. -1.
         -6    1    1    2    0  503  0.10597119445E+03 -0.66834770209E+02  0.29753201600E+02  0.21486282500E+03  0.17200000000E+03 0. -1.
</event>
<event>
 4    1  0.4386646E+000  0.1882923E+03  0.7818608E-02  0.1160011E+00
         21   -1    0    0  503  502  0.00000000000E+00  0.00000000000E+00  0.13675020463E+03  0.13675020463E+03  0.00000000000E+00 0.  1.
         21   -1    0    0  501  503 -0.00000000000E+00 -0.00000000000E+00 -0.25959176497E+03  0.25959176497E+03  0.00000000000E+00 0.  1.
          6    1    1    2  501    0 -0.76290526365E+02 -0.70529522424E+01 -0.68495095091E+02  0.20036358601E+03  0.17200000000E+03 0.  1.
         -6    1    1    2    0  502  0.76290526365E+02  0.70529522424E+01 -0.54346465250E+02  0.19597838359E+03  0.17200000000E+03 0.  1.
</event>
<event>
 4    1  0.4386646E+000  0.3350587E+03  0.7818608E-02  0.1068920E+00
         21   -1    0    0  503  502  0.00000000000E+00  0.00000000000E+00  0.57709739207E+03  0.57709739207E+03  0.00000000000E+00 0. -1.
         21   -1    0    0  501  503 -0.00000000000E+00 -0.00000000000E+00 -0.21553019731E+03  0.21553019731E+03  0.00000000000E+00 0. -1.
          6    1    1    2  501    0 -0.56419816405E+02 -0.28195236744E+03  0.30448326895E+03  0.45274097921E+03  0.17200000000E+03 0. -1.
         -6    1    1    2    0  502  0.56419816405E+02  0.28195236744E+03  0.57083925806E+02  0.33988661017E+03  0.17200000000E+03 0. -1.
</event>
<event>
 4    1  0.4386646E+000  0.2894472E+03  0.7818608E-02  0.1090638E+00
         21   -1    0    0  501  502  0.00000000000E+00  0.00000000000E+00  0.91039198282E+03  0.91039198282E+03  0.00000000000E+00 0. -1.
         21   -1    0    0  502  503 -0.00000000000E+00 -0.00000000000E+00 -0.92860069607E+02  0.92860069607E+02  0.00000000000E+00 0.  1.
          6    1    1    2  501    0  0.21781769004E+03  0.82165144464E+02  0.36122276731E+03  0.46288394299E+03  0.17200000000E+03 0.  1.
         -6    1    1    2    0  503 -0.21781769004E+03 -0.82165144464E+02  0.45630914591E+03  0.54036810944E+03  0.17200000000E+03 0.  1.
</event>
<event>
 4    1  0.4386646E+000  0.1740520E+03  0.7818608E-02  0.1173687E+00
         21   -1    0    0  503  502  0.00000000000E+00  0.00000000000E+00  0.18408287300E+03  0.18408287300E+03  0.00000000000E+00 0. -1.
         21   -1    0    0  501  503 -0.00000000000E+00 -0.00000000000E+00 -0.24881447450E+03  0.24881447450E+03  0.00000000000E+00 0. -1.
          6    1    1    2  501    0  0.23836341820E+02 -0.11912859532E+02 -0.15831454914E+03  0.23528192426E+03  0.17200000000E+03 0. -1.
         -6    1    1    2    0  502 -0.23836341820E+02  0.11912859532E+02  0.93582947640E+02  0.19761542324E+03  0.17200000000E+03 0. -1.
</event>
<event>
 4    1  0.4386646E+000  0.1778459E+03  0.7818608E-02  0.1169904E+00
         21   -1    0    0  501  502  0.00000000000E+00  0.00000000000E+00  0.20704052232E+04  0.20704052232E+04  0.00000000000E+00 0.  1.
         21   -1    0    0  502  503 -0.00000000000E+00 -0.00000000000E+00 -0.17667424343E+02  0.17667424343E+02  0.00000000000E+00 0.  1.
          6    1    1    2  501    0 -0.45168240288E+02  0.22378149481E+01  0.14104157117E+04  0.14215842070E+04  0.17200000000E+03 0.  1.
         -6    1    1    2    0  503  0.45168240288E+02 -0.22378149481E+01  0.64232208719E+03  0.66648844059E+03  0.17200000000E+03 0.  1.
</event>
<event>
 4    1  0.4386646E+000  0.2516648E+03  0.7818608E-02  0.1112257E+00
         21   -1    0    0  503  502  0.00000000000E+00  0.00000000000E+00  0.29444068706E+04  0.29444068706E+04  0.00000000000E+00 0. -1.
         21   -1    0    0  501  503 -0.00000000000E+00 -0.00000000000E+00 -0.22853503074E+02  0.22853503074E+02  0.00000000000E+00 0. -1.
          6    1    1    2  501    0  0.17417315677E+03  0.58436918441E+02  0.11010974701E+04  0.11294913902E+04  0.17200000000E+03 0. -1.
         -6    1    1    2    0  502 -0.17417315677E+03 -0.58436918441E+02  0.18204558974E+04  0.18377689834E+04  0.17200000000E+03 0. -1.
</event>
<event>
 4    1  0.4386646E+000  0.1737060E+03  0.7818608E-02  0.1174037E+00
         21   -1    0    0  503  502  0.00000000000E+00  0.00000000000E+00  0.71743748553E+03  0.71743748553E+03  0.00000000000E+00 0.  1.
         21   -1    0    0  501  503 -0.00000000000E+00 -0.00000000000E+00 -0.49830873973E+02  0.49830873973E+02  0.00000000000E+00 0.  1.
          6    1    1    2  501    0  0.22737471686E+02 -0.85305490081E+01  0.18228415303E+03  0.25179609872E+03  0.17200000000E+03 0.  1.
         -6    1    1    2    0  502 -0.22737471686E+02  0.85305490081E+01  0.48532245853E+03  0.51547226078E+03  0.17200000000E+03 0.  1.
</event>
<event>
 4    1  0.4386646E+000  0.2364376E+03  0.7818608E-02  0.1122189E+00
         21   -1    0    0  501  502  0.00000000000E+00  0.00000000000E+00  0.23517801906E+03  0.23517801906E+03  0.00000000000E+00 0. -1.
         21   -1    0    0  502  503 -0.00000000000E+00 -0.00000000000E+00 -0.24176530250E+03  0.24176530250E+03  0.00000000000E+00 0.  1.
          6    1    1    2  501    0  0.18854252273E+01  0.16221952601E+03  0.27614896092E+02  0.23804476876E+03  0.17200000000E+03 0.  1.
         -6    1    1    2    0  503 -0.18854252273E+01 -0.16221952601E+03 -0.34202179535E+02  0.23889855281E+03  0.17200000000E+03 0.  1.
</event>
<event>
 4    1  0.4386646E+000  0.1779568E+03  0.7818608E-02  0.1169795E+00
         21   -1    0    0  503  502  0.00000000000E+00  0.00000000000E+00  0.13038841414E+04  0.13038841414E+04  0.00000000000E+00 0. -1.
         21   -1    0    0  501  503 -0.00000000000E+00 -0.00000000000E+00 -0.33977888005E+02  0.33977888005E+02  0.00000000000E+00 0. -1.
          6    1    1    2  501    0  0.24303790192E+02 -0.38651833039E+02  0.27772616255E+03  0.32984914700E+03  0.17200000000E+03 0. -1.
         -6    1    1    2    0  502 -0.24303790192E+02  0.38651833039E+02  0.99218009083E+03  0.10080128824E+04  0.17200000000E+03 0. -1.
</event>
<event>
 4    1  0.4386646E+000  0.2117787E+03  0.7818608E-02  0.1140165E+00
         21   -1    0    0  503  502  0.00000000000E+00  0.00000000000E+00  0.44518558850E+03  0.44518558850E+03  0.00000000000E+00 0. -1.
         21   -1    0    0  501  503 -0.00000000000E+00 -0.00000000000E+00 -0.25024459445E+03  0.25024459445E+03  0.00000000000E+00 0.  1.
          6    1    1    2  501    0 -0.96614229243E+02  0.77018895188E+02 -0.17128738104E+03  0.27237765403E+03  0.17200000000E+03 0.  1.
         -6    1    1    2    0  502  0.96614229243E+02 -0.77018895188E+02  0.36622837510E+03  0.42305252893E+03  0.17200000000E+03 0. -1.
</event>
<event>
 4    1  0.4386646E+000  0.2055039E+03  0.7818608E-02  0.1145177E+00
         21   -1    0    0  503  502  0.00000000000E+00  0.00000000000E+00  0.10559628989E+04  0.10559628989E+04  0.00000000000E+00 0. -1.
         21   -1    0    0  501  503 -0.00000000000E+00 -0.00000000000E+00 -0.12939011956E+03  0.12939011956E+03  0.00000000000E+00 0. -1.
          6    1    1    2  501    0  0.78579286770E+02  0.80455797664E+02 -0.29350890991E+02  0.20758929281E+03  0.17200000000E+03 0. -1.
         -6    1    1    2    0  502 -0.78579286770E+02 -0.80455797664E+02  0.95592367030E+03  0.97776372562E+03  0.17200000000E+03 0. -1.
</event>
<event>
 4    1  0.4386646E+000  0.2480792E+03  0.7818608E-02  0.1114525E+00
         21   -1    0    0  503  502  0.00000000000E+00  0.00000000000E+00  0.37180864565E+03  0.37180864565E+03  0.00000000000E+00 0. -1.
         21   -1    0    0  501  503 -0.00000000000E+00 -0.00000000000E+00 -0.18130241598E+03  0.18130241598E+03  0.00000000000E+00 0.  1.
          6    1    1    2  501    0  0.17843052354E+03  0.11038960934E+02  0.13668141517E+02  0.24845548592E+03  0.17200000000E+03 0. -1.
         -6    1    1    2    0  502 -0.17843052354E+03 -0.11038960934E+02  0.17683808815E+03  0.30465557571E+03  0.17200000000E+03 0.  1.
</event>
<event>
 4    1  0.4386646E+000  0.3333355E+03  0.7818608E-02  0.1069670E+00
         21   -1    0    0  503  502  0.00000000000E+00  0.00000000000E+00  0.29423770531E+03  0.29423770531E+03  0.00000000000E+00 0.  1.
         21   -1    0    0  501  503 -0.00000000000E+00 -0.00000000000E+00 -0.42841320897E+03  0.42841320897E+03  0.00000000000E+00 0. -1.
          6    1    1    2  501    0  0.16699493454E+03  0.23160577880E+03 -0.19149153702E+03  0.38442366432E+03  0.17200000000E+03 0.  1.
         -6    1    1    2    0  502 -0.16699493454E+03 -0.23160577880E+03  0.57316033349E+02  0.33822724996E+03  0.17200000000E+03 0. -1.
</event>
<event>
 4    1  0.4386646E+000  0.2013200E+03  0.7818608E-02  0.1148630E+00
         21   -1    0    0  503  502  0.00000000000E+00  0.00000000000E+00  0.46465513356E+03  0.46465513356E+03  0.00000000000E+00 0.  1.
         21   -1    0    0  501  503 -0.00000000000E+00 -0.00000000000E+00 -0.13359501140E+03  0.13359501140E+03  0.00000000000E+00 0.  1.
          6    1    1    2  501    0 -0.10007616247E+03 -0.30504017545E+02 -0.10697726544E+02  0.20160400476E+03  0.17200000000E+03 0.  1.
         -6    1    1    2    0  502  0.10007616247E+03  0.30504017545E+02  0.34175784871E+03  0.39664614020E+03  0.17200000000E+03 0.  1.
</event>
<event>
 4    1  0.4386646E+000  0.3600989E+03  0.7818608E-02  0.1058545E+00
         21   -1    0    0  501  502  0.00000000000E+00  0.00000000000E+00  0.28502459545E+03  0.28502459545E+03  0.00000000000E+00 0. -1.
         21   -1    0    0  502  503 -0.00000000000E+00 -0.00000000000E+00 -0.51330663657E+03  0.51330663657E+03  0.00000000000E+00 0.  1.
          6    1    1    2  501    0 -0.64446398340E+02 -0.30973190905E+03  0.20451073289E+02  0.36067913738E+03  0.17200000000E+03 0.  1.
         -6    1    1    2    0  503  0.64446398340E+02  0.30973190905E+03 -0.24873311441E+03  0.43765209464E+03  0.17200000000E+03 0. -1.
</event>
<event>
 4    1  0.4386646E+000  0.1748001E+03  0.7818608E-02  0.1172933E+00
         21   -1    0    0  501  502  0.00000000000E+00  0.00000000000E+00  0.67415071143E+02  0.67415071143E+02  0.00000000000E+00 0. -1.
         21   -1    0    0  502  503 -0.00000000000E+00 -0.00000000000E+00 -0.85424707188E+03  0.85424707188E+03  0.00000000000E+00 0. -1.
          6    1    1    2  501    0 -0.15122886225E+02  0.27246755976E+02 -0.77677908879E+02  0.19128236962E+03  0.17200000000E+03 0. -1.
         -6    1    1    2    0  503  0.15122886225E+02 -0.27246755976E+02 -0.70915409186E+03  0.73037977340E+03  0.17200000000E+03 0. -1.
</event>
<event>
 4    1  0.4386646E+000  0.1864658E+03  0.7818608E-02  0.1161688E+00
         21   -1    0    0  501  502  0.00000000000E+00  0.00000000000E+00  0.58185217386E+03  0.58185217386E+03  0.00000000000E+00 0.  1.
         21   -1    0    0  502  503 -0.00000000000E+00 -0.00000000000E+00 -0.76191120150E+02  0.76191120150E+02  0.00000000000E+00 0.  1.
          6    1    1    2  501    0  0.59380107775E+02  0.40737053924E+02  0.40564020873E+03  0.44644538714E+03  0.17200000000E+03 0. -1.
         -6    1    1    2    0  503 -0.59380107775E+02 -0.40737053924E+02  0.10002084499E+03  0.21159790687E+03  0.17200000000E+03 0. -1.
</event>
<event>
 4    1  0.4386646E+000  0.2545170E+03  0.7818608E-02  0.1110483E+00
         21   -1    0    0  503  502  0.00000000000E+00  0.00000000000E+00  0.30605988343E+03  0.30605988343E+03  0.00000000000E+00 0.  1.
         21   -1    0    0  501  503 -0.00000000000E+00 -0.00000000000E+00 -0.23036463468E+03  0.23036463468E+03  0.00000000000E+00 0. -1.
          6    1    1    2  501    0 -0.83035544505E+02 -0.16822597667E+03 -0.38590823311E+02  0.25742597484E+03  0.17200000000E+03 0.  1.
         -6    1    1    2    0  502  0.83035544505E+02  0.16822597667E+03  0.11428607206E+03  0.27899854327E+03  0.17200000000E+03 0. -1.
</event>
<event>
 4    1  0.4386646E+000  0.1886423E+03  0.7818608E-02  0.1159692E+00
         21   -1    0    0  503  502  0.00000000000E+00  0.00000000000E+00  0.45395664944E+03  0.45395664944E+03  0.00000000000E+00 0.  1.
         21   -1    0    0  501  503 -0.00000000000E+00 -0.00000000000E+00 -0.91649646168E+02  0.91649646168E+02  0.00000000000E+00 0. -1.
          6    1    1    2  501    0 -0.76168278741E+02 -0.14152904601E+02  0.28491612479E+03  0.34170617431E+03  0.17200000000E+03 0.  1.
         -6    1    1    2    0  502  0.76168278741E+02  0.14152904601E+02  0.77390878487E+02  0.20390012130E+03  0.17200000000E+03 0. -1.
</event>
<event>
 4    1  0.4386646E+000  0.1789288E+03  0.7818608E-02  0.1168844E+00
         21   -1    0    0  503  502  0.00000000000E+00  0.00000000000E+00  0.21595918970E+03  0.21595918970E+03  0.00000000000E+00 0.  1.
         21   -1    0    0  501  503 -0.00000000000E+00 -0.00000000000E+00 -0.14911904098E+03  0.14911904098E+03  0.00000000000E+00 0.  1.
          6    1    1    2  501    0  0.48028754857E+02  0.11168919234E+02  0.47371623270E+02  0.18509342706E+03  0.17200000000E+03 0.  1.
         -6    1    1    2    0  502 -0.48028754857E+02 -0.11168919234E+02  0.19468525450E+02  0.17998480362E+03  0.17200000000E+03 0.  1.
</event>
<event>
 4    1  0.4386646E+000  0.1893809E+03  0.7818608E-02  0.1159021E+00
         21   -1    0    0  501  502  0.00000000000E+00  0.00000000000E+00  0.22972357298E+03  0.22972357298E+03  0.00000000000E+00 0. -1.
         21   -1    0    0  502  503 -0.00000000000E+00 -0.00000000000E+00 -0.86396889606E+03  0.86396889606E+03  0.00000000000E+00 0. -1.
          6    1    1    2  501    0 -0.68932880786E+02  0.39107432057E+02  0.17785492245E+03  0.25980282280E+03  0.17200000000E+03 0. -1.
         -6    1    1    2    0  503  0.68932880786E+02 -0.39107432057E+02 -0.81210024553E+03  0.83388964623E+03  0.17200000000E+03 0. -1.
</event>
<event>
 4    1  0.4386646E+000  0.1880477E+03  0.7818608E-02  0.1160234E+00
         21   -1    0    0  503  502  0.00000000000E+00  0.00000000000E+00  0.44083690237E+03  0.44083690237E+03  0.00000000000E+00 0. -1.
         21   -1    0    0  501  503 -0.00000000000E+00 -0.00000000000E+00 -0.80400869540E+02  0.80400869540E+02  0.00000000000E+00 0. -1.
          6    1    1    2  501    0  0.52510729594E+02  0.54959638747E+02  0.16770299188E+03  0.25196474376E+03  0.17200000000E+03 0. -1.
         -6    1    1    2    0  502 -0.52510729594E+02 -0.54959638747E+02  0.19273304095E+03  0.26927302815E+03  0.17200000000E+03 0. -1.
</event>
<event>
 4    1  0.4386646E+000  0.2121989E+03  0.7818608E-02  0.1139836E+00
         21   -1    0    0  501  502  0.00000000000E+00  0.00000000000E+00  0.11812477089E+03  0.11812477089E+03  0.00000000000E+00 0.  1.
         21   -1    0    0  502  503 -0.00000000000E+00 -0.00000000000E+00 -0.53107062320E+03  0.53107062320E+03  0.00000000000E+00 0.  1.
          6    1    1    2  501    0 -0.20541787183E+02  0.12256599886E+03 -0.34033313043E+02  0.21491080823E+03  0.17200000000E+03 0.  1.
         -6    1    1    2    0  503  0.20541787183E+02 -0.12256599886E+03 -0.37891253927E+03  0.43428458586E+03  0.17200000000E+03 0.  1.
</event>
<event>
 4    1  0.4386646E+000  0.2308217E+03  0.7818608E-02  0.1126063E+00
         21   -1    0    0  501  502  0.00000000000E+00  0.00000000000E+00  0.84877290117E+03  0.84877290117E+03  0.00000000000E+00 0. -1.
         21   -1    0    0  502  503 -0.00000000000E+00 -0.00000000000E+00 -0.24841154837E+03  0.24841154837E+03  0.00000000000E+00 0.  1.
          6    1    1    2  501    0 -0.54241439875E+02 -0.14405729249E+03  0.77442238466E+03  0.80808951681E+03  0.17200000000E+03 0.  1.
         -6    1    1    2    0  503  0.54241439875E+02  0.14405729249E+03 -0.17406103186E+03  0.28909493273E+03  0.17200000000E+03 0.  1.
</event>
<event>
 4    1  0.4386646E+000  0.2086181E+03  0.7818608E-02  0.1142665E+00
         21   -1    0    0  501  502  0.00000000000E+00  0.00000000000E+00  0.13412949945E+03  0.13412949945E+03  0.00000000000E+00 0.  1.
         21   -1    0    0  502  503 -0.00000000000E+00 -0.00000000000E+00 -0.71552307275E+03  0.71552307275E+03  0.00000000000E+00 0.  1.
          6    1    1    2  501    0  0.11798367999E+03 -0.41690928484E+01  0.23365082442E+02  0.20992250274E+03  0.17200000000E+03 0.  1.
         -6    1    1    2    0  503 -0.11798367999E+03  0.41690928484E+01 -0.60475865574E+03  0.63973006946E+03  0.17200000000E+03 0.  1.
</event>
<event>
 4    1  0.4386646E+000  0.2498972E+03  0.7818608E-02  0.1113370E+00
         21   -1    0    0  503  502  0.00000000000E+00  0.00000000000E+00  0.31014592084E+03  0.31014592084E+03  0.00000000000E+00 0. -1.
         21   -1    0    0  501  503 -0.00000000000E+00 -0.00000000000E+00 -0.26584215941E+03  0.26584215941E+03  0.00000000000E+00 0.  1.
          6    1    1    2  501    0 -0.17277983791E+03  0.54879318601E+02 -0.11969412062E+03  0.27708355149E+03  0.17200000000E+03 0.  1.
         -6    1    1    2    0  502  0.17277983791E+03 -0.54879318601E+02  0.16399788205E+03  0.29890452876E+03  0.17200000000E+03 0. -1.
</event>
<event>
 4    1  0.4386646E+000  0.2754014E+03  0.7818608E-02  0.1098227E+00
         21   -1    0    0  503  502  0.00000000000E+00  0.00000000000E+00  0.22447691182E+04  0.22447691182E+04  0.00000000000E+00 0. -1.
         21   -1    0    0  501  503 -0.00000000000E+00 -0.00000000000E+00 -0.41480647744E+02  0.41480647744E+02  0.00000000000E+00 0.  1.
          6    1    1    2  501    0  0.30373911390E+02  0.21293042506E+03  0.60936349795E+03  0.66870756915E+03  0.17200000000E+03 0.  1.
         -6    1    1    2    0  502 -0.30373911390E+02 -0.21293042506E+03  0.15939249725E+04  0.16175421968E+04  0.17200000000E+03 0. -1.
</event>
<event>
 4    1  0.4386646E+000  0.2508484E+03  0.7818608E-02  0.1112770E+00
         21   -1    0    0  503  502  0.00000000000E+00  0.00000000000E+00  0.27219244667E+03  0.27219244667E+03  0.00000000000E+00 0.  1.
         21   -1    0    0  501  503 -0.00000000000E+00 -0.00000000000E+00 -0.71546035581E+03  0.71546035581E+03  0.00000000000E+00 0.  1.
          6    1    1    2  501    0  0.17960819487E+03 -0.32890834697E+02 -0.62791899544E+03  0.67617096618E+03  0.17200000000E+03 0.  1.
         -6    1    1    2    0  502 -0.17960819487E+03  0.32890834697E+02  0.18465108630E+03  0.31148183630E+03  0.17200000000E+03 0.  1.
</event>
<event>
 4    1  0.4386646E+000  0.1985727E+03  0.7818608E-02  0.1150949E+00
         21   -1    0    0  503  502  0.00000000000E+00  0.00000000000E+00  0.25733640604E+03  0.25733640604E+03  0.00000000000E+00 0. -1.
         21   -1    0    0  501  503 -0.00000000000E+00 -0.00000000000E+00 -0.81057214179E+03  0.81057214179E+03  0.00000000000E+00 0. -1.
          6    1    1    2  501    0 -0.79407761827E+02  0.59510612146E+02 -0.75746239406E+03  0.78305835288E+03  0.17200000000E+03 0. -1.
         -6    1    1    2    0  502  0.79407761827E+02 -0.59510612146E+02  0.20422665831E+03  0.28485019495E+03  0.17200000000E+03 0. -1.
</event>
<event>
 4    1  0.4386646E+000  0.2452304E+03  0.7818608E-02  0.1116357E+00
         21   -1    0    0  503  502  0.00000000000E+00  0.00000000000E+00  0.47217244493E+02  0.47217244493E+02  0.00000000000E+00 0.  1.
         21   -1    0    0  501  503 -0.00000000000E+00 -0.00000000000E+00 -0.13767458076E+04  0.13767458076E+04  0.00000000000E+00 0. -1.
          6    1    1    2  501    0  0.45809899144E+01  0.17473691015E+03 -0.46992595110E+03  0.53006449868E+03  0.17200000000E+03 0.  1.
         -6    1    1    2    0  502 -0.45809899144E+01 -0.17473691015E+03 -0.85960261203E+03  0.89389855345E+03  0.17200000000E+03 0. -1.
</event>
<event>
 4    1  0.4386646E+000  0.3579606E+03  0.7818608E-02  0.1059394E+00
         21   -1    0    0  501  502  0.00000000000E+00  0.00000000000E+00  0.15176631037E+03  0.15176631037E+03  0.00000000000E+00 0.  1.
         21   -1    0    0  502  503 -0.00000000000E+00 -0.00000000000E+00 -0.84603019758E+03  0.84603019758E+03  0.00000000000E+00 0. -1.
          6    1    1    2  501    0  0.13089682464E+03 -0.28533806843E+03 -0.32454886410E+03  0.48318501341E+03  0.17200000000E+03 0.  1.
         -6    1    1    2    0  503 -0.13089682464E+03  0.28533806843E+03 -0.36971502312E+03  0.51461149454E+03  0.17200000000E+03 0. -1.
</event>
<event>
 4    1  0.4386646E+000  0.2566610E+03  0.7818608E-02  0.1109166E+00
         21   -1    0    0  501  502  0.00000000000E+00  0.00000000000E+00  0.11672120763E+04  0.11672120763E+04  0.00000000000E+00 0.  1.
         21   -1    0    0  502  503 -0.00000000000E+00 -0.00000000000E+00 -0.65140337068E+02  0.65140337068E+02  0.00000000000E+00 0. -1.
          6    1    1    2  501    0  0.18795599833E+03  0.31038577857E+02  0.77625409355E+03  0.81758502211E+03  0.17200000000E+03 0.  1.
         -6    1    1    2    0  503 -0.18795599833E+03 -0.31038577857E+02  0.32581764573E+03  0.41476739131E+03  0.17200000000E+03 0. -1.
</event>
<event>
 4    1  0.4386646E+000  0.1957663E+03  0.7818608E-02  0.1153361E+00
         21   -1    0    0  501  502  0.00000000000E+00  0.00000000000E+00  0.73622165289E+03  0.73622165289E+03  0.00000000000E+00 0.  1.
         21   -1    0    0  502  503 -0.00000000000E+00 -0.00000000000E+00 -0.55042438364E+02  0.55042438364E+02  0.00000000000E+00 0. -1.
          6    1    1    2  501    0 -0.93145854875E+02  0.80174961256E+01  0.43275150054E+03  0.47497188521E+03  0.17200000000E+03 0.  1.
         -6    1    1    2    0  503  0.93145854875E+02 -0.80174961256E+01  0.24842771399E+03  0.31629220604E+03  0.17200000000E+03 0. -1.
</event>
<event>
 4    1  0.4386646E+000  0.1990238E+03  0.7818608E-02  0.1150565E+00
         21   -1    0    0  503  502  0.00000000000E+00  0.00000000000E+00  0.37967582269E+02  0.37967582269E+02  0.00000000000E+00 0. -1.
         21   -1    0    0  501  503 -0.00000000000E+00 -0.00000000000E+00 -0.10434728120E+04  0.10434728120E+04  0.00000000000E+00 0. -1.
          6    1    1    2  501    0 -0.64960185812E+02 -0.76201287211E+02 -0.51028005557E+03  0.54771908587E+03  0.17200000000E+03 0. -1.
         -6    1    1    2    0  502  0.64960185812E+02  0.76201287211E+02 -0.49522517412E+03  0.53372130836E+03  0.17200000000E+03 0. -1.
</event>
<event>
 4    1  0.4386646E+000  0.1757196E+03  0.7818608E-02  0.1172011E+00
         21   -1    0    0  501  502  0.00000000000E+00  0.00000000000E+00  0.75094014099E+02  0.75094014099E+02  0.00000000000E+00 0. -1.
         21   -1    0    0  502  503 -0.00000000000E+00 -0.00000000000E+00 -0.41131579632E+03  0.41131579632E+03  0.00000000000E+00 0. -1.
          6    1    1    2  501    0  0.25170387758E+02  0.25687422071E+02 -0.16374313691E+03  0.24018577593E+03  0.17200000000E+03 0. -1.
         -6    1    1    2    0  503 -0.25170387758E+02 -0.25687422071E+02 -0.17247864530E+03  0.24622403449E+03  0.17200000000E+03 0. -1.
</event>
<event>
 4    1  0.4386646E+000  0.1793021E+03  0.7818608E-02  0.1168480E+00
         21   -1    0    0  503  502  0.00000000000E+00  0.00000000000E+00  0.88265242182E+03  0.88265242182E+03  0.00000000000E+00 0.  1.
         21   -1    0    0  501  503 -0.00000000000E+00 -0.00000000000E+00 -0.36949344228E+02  0.36949344228E+02  0.00000000000E+00 0.  1.
          6    1    1    2  501    0 -0.19691320528E+01  0.50610035909E+02  0.36799701800E+03  0.40935444113E+03  0.17200000000E+03 0.  1.
         -6    1    1    2    0  502  0.19691320528E+01 -0.50610035909E+02  0.47770605959E+03  0.51024732492E+03  0.17200000000E+03 0.  1.
</event>
<event>
 4    1  0.4386646E+000  0.2660400E+03  0.7818608E-02  0.1103568E+00
         21   -1    0    0  503  502  0.00000000000E+00  0.00000000000E+00  0.11035960224E+03  0.11035960224E+03  0.00000000000E+00 0.  1.
         21   -1    0    0  501  503 -0.00000000000E+00 -0.00000000000E+00 -0.64203834958E+03  0.64203834958E+03  0.00000000000E+00 0. -1.
          6    1    1    2  501    0 -0.37104706988E+02 -0.19954073768E+03 -0.27830775432E+03  0.38500970298E+03  0.17200000000E+03 0.  1.
         -6    1    1    2    0  502  0.37104706988E+02  0.19954073768E+03 -0.25337099303E+03  0.36738824884E+03  0.17200000000E+03 0. -1.
</event>
<event>
 4    1  0.4386646E+000  0.3614183E+03  0.7818608E-02  0.1058024E+00
         21   -1    0    0  503  502  0.00000000000E+00  0.00000000000E+00  0.18706144867E+03  0.18706144867E+03  0.00000000000E+00 0. -1.
         21   -1    0    0  501  503 -0.00000000000E+00 -0.00000000000E+00 -0.17812970664E+04  0.17812970664E+04  0.00000000000E+00 0.  1.
          6    1    1    2  501    0 -0.58403536992E+02  0.31245516173E+03 -0.15645174819E+04  0.16057204465E+04  0.17200000000E+03 0.  1.
         -6    1    1    2    0  502  0.58403536992E+02 -0.31245516173E+03 -0.29718135927E+02  0.36263806864E+03  0.17200000000E+03 0.  1.
</event>
<event>
 4    1  0.4386646E+000  0.2000091E+03  0.7818608E-02  0.1149731E+00
         21   -1    0    0  501  502  0.00000000000E+00  0.00000000000E+00  0.12898301881E+04  0.12898301881E+04  0.00000000000E+00 0. -1.
         21   -1    0    0  502  503 -0.00000000000E+00 -0.00000000000E+00 -0.35364098745E+02  0.35364098745E+02  0.00000000000E+00 0.  1.
          6    1    1    2  501    0  0.52343112699E+02 -0.87634585843E+02  0.85960608933E+03  0.88256798655E+03  0.17200000000E+03 0. -1.
         -6    1    1    2    0  503 -0.52343112699E+02  0.87634585843E+02  0.39486000000E+03  0.44262630026E+03  0.17200000000E+03 0.  1.
</event>
<event>
 4    1  0.4386646E+000  0.1782437E+03  0.7818608E-02  0.1169514E+00
         21   -1    0    0  501  502  0.00000000000E+00  0.00000000000E+00  0.48506913663E+02  0.48506913663E+02  0.00000000000E+00 0.  1.
         21   -1    0    0  502  503 -0.00000000000E+00 -0.00000000000E+00 -0.74985446116E+03  0.74985446116E+03  0.00000000000E+00 0.  1.
          6    1    1    2  501    0 -0.43783480282E+02 -0.16425934998E+02 -0.20868053362E+03  0.27444192391E+03  0.17200000000E+03 0.  1.
         -6    1    1    2    0  503  0.43783480282E+02  0.16425934998E+02 -0.49266701388E+03  0.52391945092E+03  0.17200000000E+03 0.  1.
</event>
<event>
 4    1  0.4386646E+000  0.1814355E+03  0.7818608E-02  0.1166421E+00
         21   -1    0    0  501  502  0.00000000000E+00  0.00000000000E+00  0.57322918247E+02  0.57322918247E+02  0.00000000000E+00 0. -1.
         21   -1    0    0  502  503 -0.00000000000E+00 -0.00000000000E+00 -0.58526923130E+03  0.58526923130E+03  0.00000000000E+00 0. -1.
          6    1    1    2  501    0  0.77048168810E+01  0.57231713753E+02 -0.21992696161E+03  0.28510822806E+03  0.17200000000E+03 0. -1.
         -6    1    1    2    0  503 -0.77048168810E+01 -0.57231713753E+02 -0.30801935144E+03  0.35748392149E+03  0.17200000000E+03 0. -1.
</event>
<event>
 4    1  0.4386646E+000  0.2856173E+03  0.7818608E-02  0.1092660E+00
         21   -1    0    0  503  502  0.00000000000E+00  0.00000000000E+00  0.24705846841E+03  0.24705846841E+03  0.00000000000E+00 0. -1.
         21   -1    0    0  501  503 -0.00000000000E+00 -0.00000000000E+00 -0.40056225566E+03  0.40056225566E+03  0.00000000000E+00 0. -1.
          6    1    1    2  501    0 -0.17959969243E+03 -0.14048908131E+03 -0.21247194910E+03  0.35597971942E+03  0.17200000000E+03 0. -1.
         -6    1    1    2    0  502  0.17959969243E+03  0.14048908131E+03  0.58968161843E+02  0.29164100466E+03  0.17200000000E+03 0. -1.
</event>
<event>
 4    1  0.4386646E+000  0.2514210E+03  0.7818608E-02  0.1112410E+00
         21   -1    0    0  501  502  0.00000000000E+00  0.00000000000E+00  0.76938583975E+02  0.76938583975E+02  0.00000000000E+00 0. -1.
         21   -1    0    0  502  503 -0.00000000000E+00 -0.00000000000E+00 -0.85040613998E+03  0.85040613998E+03  0.00000000000E+00 0. -1.
          6    1    1    2  501    0 -0.15672999978E+03 -0.95206341063E+02 -0.30139229569E+03  0.39249185483E+03  0.17200000000E+03 0. -1.
         -6    1    1    2    0  503  0.15672999978E+03  0.95206341063E+02 -0.47207526032E+03  0.53485286913E+03  0.17200000000E+03 0. -1.
</event>
<event>
 4    1  0.4386646E+000  0.3218532E+03  0.7818608E-02  0.1074800E+00
         21   -1    0    0  501  502  0.00000000000E+00  0.00000000000E+00  0.18506444340E+03  0.18506444340E+03  0.00000000000E+00 0. -1.
         21   -1    0    0  502  503 -0.00000000000E+00 -0.00000000000E+00 -0.57801301814E+03  0.57801301814E+03  0.00000000000E+00 0.  1.
          6    1    1    2  501    0  0.18781921446E+03 -0.19679800367E+03 -0.12865143476E+03  0.34661318964E+03  0.17200000000E+03 0. -1.
         -6    1    1    2    0  503 -0.18781921446E+03  0.19679800367E+03 -0.26429713997E+03  0.41646427189E+03  0.17200000000E+03 0.  1.
</event>
<event>
 4    1  0.4386646E+000  0.2199169E+03  0.7818608E-02  0.1133945E+00
         21   -1    0    0  503  502  0.00000000000E+00  0.00000000000E+00  0.36287271330E+03  0.36287271330E+03  0.00000000000E+00 0.  1.
         21   -1    0    0  501  503 -0.00000000000E+00 -0.00000000000E+00 -0.13403981966E+03  0.13403981966E+03  0.00000000000E+00 0. -1.
          6    1    1    2  501    0 -0.16877340725E+02 -0.13599488645E+03  0.13313027540E+03  0.25707416050E+03  0.17200000000E+03 0.  1.
         -6    1    1    2    0  502  0.16877340725E+02  0.13599488645E+03  0.95702618237E+02  0.23983837246E+03  0.17200000000E+03 0.  1.
</event>
<event>
 4    1  0.4386646E+000  0.2412257E+03  0.7818608E-02  0.1118979E+00
         21   -1    0    0  501  502  0.00000000000E+00  0.00000000000E+00  0.66162992267E+02  0.66162992267E+02  0.00000000000E+00 0. -1.
         21   -1    0    0  502  503 -0.00000000000E+00 -0.00000000000E+00 -0.89644016375E+03  0.89644016375E+03  0.00000000000E+00 0. -1.
          6    1    1    2  501    0  0.12342426958E+03 -0.11563854236E+03 -0.34895993938E+03  0.42422029901E+03  0.17200000000E+03 0. -1.
         -6    1    1    2    0  503 -0.12342426958E+03  0.11563854236E+03 -0.48131723211E+03  0.53838285701E+03  0.17200000000E+03 0. -1.
</event>
<event>
 4    1  0.4386646E+000  0.2192072E+03  0.7818608E-02  0.1134475E+00
         21   -1    0    0  501  502  0.00000000000E+00  0.00000000000E+00  0.44977439940E+02  0.44977439940E+02  0.00000000000E+00 0. -1.
         21   -1    0    0  502  503 -0.00000000000E+00 -0.00000000000E+00 -0.12914797904E+04  0.12914797904E+04  0.00000000000E+00 0.  1.
          6    1    1    2  501    0  0.13311691652E+03  0.27343779558E+02 -0.34549940024E+03  0.40917188480E+03  0.17200000000E+03 0. -1.
         -6    1    1    2    0  503 -0.13311691652E+03 -0.27343779558E+02 -0.90100295021E+03  0.92728534553E+03  0.17200000000E+03 0.  1.
</event>
<event>
 4    1  0.4386646E+000  0.2192641E+03  0.7818608E-02  0.1134433E+00
         21   -1    0    0  501  502  0.00000000000E+00  0.00000000000E+00  0.54090876962E+03  0.54090876962E+03  0.00000000000E+00 0. -1.
         21   -1    0    0  502  503 -0.00000000000E+00 -0.00000000000E+00 -0.10966793837E+03  0.10966793837E+03  0.00000000000E+00 0. -1.
          6    1    1    2  501    0  0.10910789280E+03 -0.81167885228E+02  0.35723865733E+03  0.41916132474E+03  0.17200000000E+03 0. -1.
         -6    1    1    2    0  503 -0.10910789280E+03  0.81167885228E+02  0.74002173916E+02  0.23141538326E+03  0.17200000000E+03 0. -1.
</event>
<event>
 4    1  0.4386646E+000  0.1921679E+03  0.7818608E-02  0.1156520E+00
         21   -1    0    0  503  502  0.00000000000E+00  0.00000000000E+00  0.24464554978E+03  0.24464554978E+03  0.00000000000E+00 0. -1.
         21   -1    0    0  501  503 -0.00000000000E+00 -0.00000000000E+00 -0.11355111118E+04  0.11355111118E+04  0.00000000000E+00 0. -1.
          6    1    1    2  501    0 -0.80805502349E+02 -0.28547818029E+02 -0.10880090772E+04  0.11048494283E+04  0.17200000000E+03 0. -1.
         -6    1    1    2    0  502  0.80805502349E+02  0.28547818029E+02  0.19714351518E+03  0.27530723329E+03  0.17200000000E+03 0. -1.
</event>
<event>
 4    1  0.4386646E+000  0.1892864E+03  0.7818608E-02  0.1159107E+00
         21   -1    0    0  501  502  0.00000000000E+00  0.00000000000E+00  0.67901611510E+02  0.67901611510E+02  0.00000000000E+00 0.  1.
         21   -1    0    0  502  503 -0.00000000000E+00 -0.00000000000E+00 -0.55700879172E+03  0.55700879172E+03  0.00000000000E+00 0. -1.
          6    1    1    2  501    0 -0.64645106565E+02  0.45457076994E+02 -0.17283836227E+03  0.25632486248E+03  0.17200000000E+03 0.  1.
         -6    1    1    2    0  503  0.64645106565E+02 -0.45457076994E+02 -0.31626881794E+03  0.36858554075E+03  0.17200000000E+03 0. -1.
</event>
<event>
 4    1  0.4386646E+000  0.2665198E+03  0.7818608E-02  0.1103288E+00
         21   -1    0    0  503  502  0.00000000000E+00  0.00000000000E+00  0.61934819580E+03  0.61934819580E+03  0.00000000000E+00 0.  1.
         21   -1    0    0  501  503 -0.00000000000E+00 -0.00000000000E+00 -0.32265521234E+03  0.32265521234E+03  0.00000000000E+00 0. -1.
          6    1    1    2  501    0 -0.20344289769E+03  0.77312687244E+01 -0.22979028686E+03  0.35190390886E+03  0.17200000000E+03 0. -1.
         -6    1    1    2    0  502  0.20344289769E+03 -0.77312687244E+01  0.52648327031E+03  0.59009949928E+03  0.17200000000E+03 0.  1.
</event>
<event>
 4    1  0.4386646E+000  0.1762724E+03  0.7818608E-02  0.1171460E+00
         21   -1    0    0  501  502  0.00000000000E+00  0.00000000000E+00  0.17145049277E+03  0.17145049277E+03  0.00000000000E+00 0. -1.
         21   -1    0    0  502  503 -0.00000000000E+00 -0.00000000000E+00 -0.30312075846E+03  0.30312075846E+03  0.00000000000E+00 0. -1.
          6    1    1    2  501    0 -0.38155624666E+02  0.56657034146E+01  0.84634616571E+02  0.19553764397E+03  0.17200000000E+03 0. -1.
         -6    1    1    2    0  503  0.38155624666E+02 -0.56657034146E+01 -0.21630488226E+03  0.27903360726E+03  0.17200000000E+03 0. -1.
</event>
<event>
 4    1  0.4386646E+000  0.2886285E+03  0.7818608E-02  0.1091067E+00
         21   -1    0    0  501  502  0.00000000000E+00  0.00000000000E+00  0.12547255592E+03  0.12547255592E+03  0.00000000000E+00 0. -1.
         21   -1    0    0  502  503 -0.00000000000E+00 -0.00000000000E+00 -0.68706094272E+03  0.68706094272E+03  0.00000000000E+00 0.  1.
          6    1    1    2  501    0 -0.78142337343E+02  0.21821133819E+03 -0.35531956067E+03  0.45777549432E+03  0.17200000000E+03 0.  1.
         -6    1    1    2    0  503  0.78142337343E+02 -0.21821133819E+03 -0.20626882613E+03  0.35475800432E+03  0.17200000000E+03 0. -1.
</event>
<event>
 4    1  0.4386646E+000  0.2146610E+03  0.7818608E-02  0.1137927E+00
         21   -1    0    0  503  502  0.00000000000E+00  0.00000000000E+00  0.48609118269E+03  0.48609118269E+03  0.00000000000E+00 0. -1.
         21   -1    0    0  501  503 -0.00000000000E+00 -0.00000000000E+00 -0.16892790015E+03  0.16892790015E+03  0.00000000000E+00 0.  1.
          6    1    1    2  501    0  0.80989433606E+02 -0.99679828511E+02 -0.58376870929E+02  0.22245722202E+03  0.17200000000E+03 0.  1.
         -6    1    1    2    0  502 -0.80989433606E+02  0.99679828511E+02  0.37554015347E+03  0.43256186082E+03  0.17200000000E+03 0. -1.
</event>
<event>
 4    1  0.4386646E+000  0.4715006E+03  0.7818608E-02  0.1021498E+00
         21   -1    0    0  501  502  0.00000000000E+00  0.00000000000E+00  0.22760375605E+03  0.22760375605E+03  0.00000000000E+00 0.  1.
         21   -1    0    0  502  503 -0.00000000000E+00 -0.00000000000E+00 -0.99084175793E+03  0.99084175793E+03  0.00000000000E+00 0. -1.
          6    1    1    2  501    0  0.29522196076E+03 -0.32491973291E+03 -0.30897535561E+03  0.56371855506E+03  0.17200000000E+03 0. -1.
         -6    1    1    2    0  503 -0.29522196076E+03  0.32491973291E+03 -0.45426264627E+03  0.65472695892E+03  0.17200000000E+03 0.  1.
</event>
<event>
 4    1  0.4386646E+000  0.3417371E+03  0.7818608E-02  0.1066058E+00
         21   -1    0    0  501  502  0.00000000000E+00  0.00000000000E+00  0.97367161149E+03  0.97367161149E+03  0.00000000000E+00 0.  1.
         21   -1    0    0  502  503 -0.00000000000E+00 -0.00000000000E+00 -0.12001968116E+03  0.12001968116E+03  0.00000000000E+00 0. -1.
          6    1    1    2  501    0  0.20298710807E+03 -0.21446787933E+03  0.44072742947E+03  0.55769606812E+03  0.17200000000E+03 0. -1.
         -6    1    1    2    0  503 -0.20298710807E+03  0.21446787933E+03  0.41292450086E+03  0.53599522452E+03  0.17200000000E+03 0. -1.
</event>
<event>
 4    1  0.4386646E+000  0.2321920E+03  0.7818608E-02  0.1125106E+00
         21   -1    0    0  503  502  0.00000000000E+00  0.00000000000E+00  0.10461439974E+03  0.10461439974E+03  0.00000000000E+00 0. -1.
         21   -1    0    0  501  503 -0.00000000000E+00 -0.00000000000E+00 -0.73199837614E+03  0.73199837614E+03  0.00000000000E+00 0. -1.
          6    1    1    2  501    0  0.11336736014E+03  0.10713056291E+03 -0.54126268701E+03  0.58896384626E+03  0.17200000000E+03 0. -1.
         -6    1    1    2    0  502 -0.11336736014E+03 -0.10713056291E+03 -0.86121289392E+02  0.24764892962E+03  0.17200000000E+03 0. -1.
</event>
<event>
 4    1  0.4386646E+000  0.2835519E+03  0.7818608E-02  0.1093765E+00
         21   -1    0    0  501  502  0.00000000000E+00  0.00000000000E+00  0.15964641463E+03  0.15964641463E+03  0.00000000000E+00 0. -1.
         21   -1    0    0  502  503 -0.00000000000E+00 -0.00000000000E+00 -0.78103756018E+03  0.78103756018E+03  0.00000000000E+00 0. -1.
          6    1    1    2  501    0  0.19609415784E+02  0.22457328776E+03 -0.30383371715E+02  0.28517510417E+03  0.17200000000E+03 0. -1.
         -6    1    1    2    0  503 -0.19609415784E+02 -0.22457328776E+03 -0.59100777383E+03  0.65550887064E+03  0.17200000000E+03 0. -1.
</event>
<event>
 4    1  0.4386646E+000  0.2255466E+03  0.7818608E-02  0.1129814E+00
         21   -1    0    0  501  502  0.00000000000E+00  0.00000000000E+00  0.11050860507E+03  0.11050860507E+03  0.00000000000E+00 0. -1.
         21   -1    0    0  502  503 -0.00000000000E+00 -0.00000000000E+00 -0.61777728154E+03  0.61777728154E+03  0.00000000000E+00 0.  1.
          6    1    1    2  501    0 -0.14588101245E+03 -0.24467142326E+01 -0.69805706107E+02  0.23610186956E+03  0.17200000000E+03 0. -1.
         -6    1    1    2    0  503  0.14588101245E+03  0.24467142326E+01 -0.43746297036E+03  0.49218401706E+03  0.17200000000E+03 0.  1.
</event>
<event>
 4    1  0.4386646E+000  0.2155947E+03  0.7818608E-02  0.1137211E+00
         21   -1    0    0  501  502  0.00000000000E+00  0.00000000000E+00  0.22561875707E+04  0.22561875707E+04  0.00000000000E+00 0.  1.
         21   -1    0    0  502  503 -0.00000000000E+00 -0.00000000000E+00 -0.28399260860E+02  0.28399260860E+02  0.00000000000E+00 0. -1.
          6    1    1    2  501    0 -0.20562946520E+02 -0.12835196106E+03  0.17124524986E+04  0.17259706315E+04  0.17200000000E+03 0.  1.
         -6    1    1    2    0  503  0.20562946520E+02  0.12835196106E+03  0.51533581124E+03  0.55861620010E+03  0.17200000000E+03 0. -1.
</event>
<event>
 4    1  0.4386646E+000  0.2494463E+03  0.7818608E-02  0.1113655E+00
         21   -1    0    0  503  502  0.00000000000E+00  0.00000000000E+00  0.26087104439E+03  0.26087104439E+03  0.00000000000E+00 0.  1.
         21   -1    0    0  501  503 -0.00000000000E+00 -0.00000000000E+00 -0.23865122080E+03  0.23865122080E+03  0.00000000000E+00 0. -1.
          6    1    1    2  501    0 -0.69162062044E+02 -0.16690136397E+03  0.52957928228E+01  0.24950250809E+03  0.17200000000E+03 0. -1.
         -6    1    1    2    0  502  0.69162062044E+02  0.16690136397E+03  0.16924030768E+02  0.25001975710E+03  0.17200000000E+03 0.  1.
</event>
<event>
 4    1  0.4386646E+000  0.1949503E+03  0.7818608E-02  0.1154071E+00
         21   -1    0    0  501  502  0.00000000000E+00  0.00000000000E+00  0.43885294956E+03  0.43885294956E+03  0.00000000000E+00 0. -1.
         21   -1    0    0  502  503 -0.00000000000E+00 -0.00000000000E+00 -0.92158194951E+02  0.92158194951E+02  0.00000000000E+00 0. -1.
          6    1    1    2  501    0 -0.90190157754E+02  0.16951440999E+02  0.23853856861E+03  0.30806860376E+03  0.17200000000E+03 0. -1.
         -6    1    1    2    0  503  0.90190157754E+02 -0.16951440999E+02  0.10815618600E+03  0.22294254075E+03  0.17200000000E+03 0. -1.
</event>
<event>
 4    1  0.4386646E+000  0.2664117E+03  0.7818608E-02  0.1103351E+00
         21   -1    0    0  501  502  0.00000000000E+00  0.00000000000E+00  0.63429594159E+02  0.63429594159E+02  0.00000000000E+00 0.  1.
         21   -1    0    0  502  503 -0.00000000000E+00 -0.00000000000E+00 -0.12562958457E+04  0.12562958457E+04  0.00000000000E+00 0.  1.
          6    1    1    2  501    0  0.19856348575E+03  0.44313878897E+02 -0.81460542456E+03  0.85706311055E+03  0.17200000000E+03 0.  1.
         -6    1    1    2    0  503 -0.19856348575E+03 -0.44313878897E+02 -0.37826082698E+03  0.46266232931E+03  0.17200000000E+03 0.  1.
</event>
<event>
 4    1  0.4386646E+000  0.1903704E+03  0.7818608E-02  0.1158128E+00
         21   -1    0    0  503  502  0.00000000000E+00  0.00000000000E+00  0.15493037122E+03  0.15493037122E+03  0.00000000000E+00 0. -1.
         21   -1    0    0  501  503 -0.00000000000E+00 -0.00000000000E+00 -0.78296082608E+03  0.78296082608E+03  0.00000000000E+00 0. -1.
          6    1    1    2  501    0 -0.25703321335E+02  0.77435380612E+02 -0.70671063524E+03  0.73190219351E+03  0.17200000000E+03 0. -1.
         -6    1    1    2    0  502  0.25703321335E+02 -0.77435380612E+02  0.78680180375E+02  0.20598900379E+03  0.17200000000E+03 0. -1.
</event>
<event>
 4    1  0.4386646E+000  0.1911529E+03  0.7818608E-02  0.1157426E+00
         21   -1    0    0  501  502  0.00000000000E+00  0.00000000000E+00  0.30377847130E+02  0.30377847130E+02  0.00000000000E+00 0.  1.
         21   -1    0    0  502  503 -0.00000000000E+00 -0.00000000000E+00 -0.15718827387E+04  0.15718827387E+04  0.00000000000E+00 0.  1.
          6    1    1    2  501    0  0.28631128838E+02 -0.78330529471E+02 -0.38256922003E+03  0.42766648395E+03  0.17200000000E+03 0.  1.
         -6    1    1    2    0  503 -0.28631128838E+02  0.78330529471E+02 -0.11589356715E+04  0.11745941018E+04  0.17200000000E+03 0.  1.
</event>
<event>
 4    1  0.4386646E+000  0.2163931E+03  0.7818608E-02  0.1136601E+00
         21   -1    0    0  503  502  0.00000000000E+00  0.00000000000E+00  0.65497295116E+03  0.65497295116E+03  0.00000000000E+00 0. -1.
         21   -1    0    0  501  503 -0.00000000000E+00 -0.00000000000E+00 -0.10604955506E+03  0.10604955506E+03  0.00000000000E+00 0. -1.
          6    1    1    2  501    0 -0.10501225156E+03  0.78831396706E+02  0.57252364250E+02  0.22383877076E+03  0.17200000000E+03 0. -1.
         -6    1    1    2    0  502  0.10501225156E+03 -0.78831396706E+02  0.49167103185E+03  0.53718373546E+03  0.17200000000E+03 0. -1.
</event>
<event>
 4    1  0.4386646E+000  0.3549829E+03  0.7818608E-02  0.1060588E+00
         21   -1    0    0  501  502  0.00000000000E+00  0.00000000000E+00  0.71279754699E+03  0.71279754699E+03  0.00000000000E+00 0. -1.
         21   -1    0    0  502  503 -0.00000000000E+00 -0.00000000000E+00 -0.20918798049E+03  0.20918798049E+03  0.00000000000E+00 0. -1.
          6    1    1    2  501    0 -0.30476389734E+03  0.59563504922E+02  0.43323494241E+03  0.56009406314E+03  0.17200000000E+03 0. -1.
         -6    1    1    2    0  503  0.30476389734E+03 -0.59563504922E+02  0.70374624083E+02  0.36189146433E+03  0.17200000000E+03 0. -1.
</event>
<event>
 4    1  0.4386646E+000  0.1829743E+03  0.7818608E-02  0.1164955E+00
         21   -1    0    0  503  502  0.00000000000E+00  0.00000000000E+00  0.10256060178E+04  0.10256060178E+04  0.00000000000E+00 0. -1.
         21   -1    0    0  501  503 -0.00000000000E+00 -0.00000000000E+00 -0.34691137801E+02  0.34691137801E+02  0.00000000000E+00 0. -1.
          6    1    1    2  501    0 -0.54011211594E+02 -0.31278960046E+02  0.36666429739E+03  0.40978322476E+03  0.17200000000E+03 0. -1.
         -6    1    1    2    0  502  0.54011211594E+02  0.31278960046E+02  0.62425058257E+03  0.65051393079E+03  0.17200000000E+03 0. -1.
</event>
<event>
 4    1  0.4386646E+000  0.3652423E+03  0.7818608E-02  0.1056527E+00
         21   -1    0    0  503  502  0.00000000000E+00  0.00000000000E+00  0.58719405311E+03  0.58719405311E+03  0.00000000000E+00 0.  1.
         21   -1    0    0  501  503 -0.00000000000E+00 -0.00000000000E+00 -0.11541593149E+04  0.11541593149E+04  0.00000000000E+00 0. -1.
          6    1    1    2  501    0  0.32218371215E+03 -0.39456888802E+01 -0.10637757765E+04  0.11247314415E+04  0.17200000000E+03 0. -1.
         -6    1    1    2    0  502 -0.32218371215E+03  0.39456888802E+01  0.49681051466E+03  0.61662192656E+03  0.17200000000E+03 0.  1.
</event>
<event>
 4    1  0.4386646E+000  0.1804663E+03  0.7818608E-02  0.1167353E+00
         21   -1    0    0  503  502  0.00000000000E+00  0.00000000000E+00  0.16899086584E+03  0.16899086584E+03  0.00000000000E+00 0. -1.
         21   -1    0    0  501  503 -0.00000000000E+00 -0.00000000000E+00 -0.20187828782E+03  0.20187828782E+03  0.00000000000E+00 0. -1.
          6    1    1    2  501    0 -0.19196484811E+02  0.51142598947E+02 -0.55937781502E+02  0.18893677740E+03  0.17200000000E+03 0. -1.
         -6    1    1    2    0  502  0.19196484811E+02 -0.51142598947E+02  0.23050359519E+02  0.18193237626E+03  0.17200000000E+03 0. -1.
</event>
<event>
 4    1  0.4386646E+000  0.1924734E+03  0.7818608E-02  0.1156249E+00
         21   -1    0    0  503  502  0.00000000000E+00  0.00000000000E+00  0.64378224473E+03  0.64378224473E+03  0.00000000000E+00 0. -1.
         21   -1    0    0  501  503 -0.00000000000E+00 -0.00000000000E+00 -0.83176932282E+02  0.83176932282E+02  0.00000000000E+00 0. -1.
          6    1    1    2  501    0 -0.83046918331E+02  0.23774140849E+02  0.78524031148E+02  0.20787501987E+03  0.17200000000E+03 0. -1.
         -6    1    1    2    0  502  0.83046918331E+02 -0.23774140849E+02  0.48208128130E+03  0.51908415715E+03  0.17200000000E+03 0. -1.
</event>
<event>
 4    1  0.4386646E+000  0.2269619E+03  0.7818608E-02  0.1128797E+00
         21   -1    0    0  501  502  0.00000000000E+00  0.00000000000E+00  0.11481268138E+03  0.11481268138E+03  0.00000000000E+00 0.  1.
         21   -1    0    0  502  503 -0.00000000000E+00 -0.00000000000E+00 -0.95589974941E+03  0.95589974941E+03  0.00000000000E+00 0.  1.
          6    1    1    2  501    0 -0.14525542914E+03  0.28784532971E+02 -0.30562089543E+02  0.22901032804E+03  0.17200000000E+03 0.  1.
         -6    1    1    2    0  503  0.14525542914E+03 -0.28784532971E+02 -0.81052497849E+03  0.84170210275E+03  0.17200000000E+03 0.  1.
</event>
<event>
 4    1  0.4386646E+000  0.2049748E+03  0.7818608E-02  0.1145608E+00
         21   -1    0    0  503  502  0.00000000000E+00  0.00000000000E+00  0.94337286735E+02  0.94337286735E+02  0.00000000000E+00 0.  1.
         21   -1    0    0  501  503 -0.00000000000E+00 -0.00000000000E+00 -0.46359130765E+03  0.46359130765E+03  0.00000000000E+00 0.  1.
          6    1    1    2  501    0  0.84780816622E+02  0.72407631141E+02 -0.23993837733E+03  0.31557103294E+03  0.17200000000E+03 0.  1.
         -6    1    1    2    0  502 -0.84780816622E+02 -0.72407631141E+02 -0.12931564359E+03  0.24235756145E+03  0.17200000000E+03 0.  1.
</event>
<event>
 4    1  0.4386646E+000  0.1894987E+03  0.7818608E-02  0.1158914E+00
         21   -1    0    0  501  502  0.00000000000E+00  0.00000000000E+00  0.12513279337E+03  0.12513279337E+03  0.00000000000E+00 0. -1.
         21   -1    0    0  502  503 -0.00000000000E+00 -0.00000000000E+00 -0.28699608783E+03  0.28699608783E+03  0.00000000000E+00 0. -1.
          6    1    1    2  501    0 -0.50711019463E+02 -0.61271018510E+02 -0.79087287071E+02  0.20534006959E+03  0.17200000000E+03 0. -1.
         -6    1    1    2    0  503  0.50711019463E+02  0.61271018510E+02 -0.82776007389E+02  0.20678881160E+03  0.17200000000E+03 0. -1.
</event>
<event>
 4    1  0.4386646E+000  0.2120473E+03  0.7818608E-02  0.1139955E+00
         21   -1    0    0  501  502  0.00000000000E+00  0.00000000000E+00  0.25409140834E+02  0.25409140834E+02  0.00000000000E+00 0. -1.
         21   -1    0    0  502  503 -0.00000000000E+00 -0.00000000000E+00 -0.18481596116E+04  0.18481596116E+04  0.00000000000E+00 0. -1.
          6    1    1    2  501    0 -0.78561912252E+02  0.95958791481E+02 -0.71823874625E+03  0.74888648027E+03  0.17200000000E+03 0. -1.
         -6    1    1    2    0  503  0.78561912252E+02 -0.95958791481E+02 -0.11045117245E+04  0.11246822721E+04  0.17200000000E+03 0. -1.
</event>
<event>
 4    1  0.4386646E+000  0.1833055E+03  0.7818608E-02  0.1164642E+00
         21   -1    0    0  503  502  0.00000000000E+00  0.00000000000E+00  0.38732180487E+03  0.38732180487E+03  0.00000000000E+00 0. -1.
         21   -1    0    0  501  503 -0.00000000000E+00 -0.00000000000E+00 -0.94627500558E+02  0.94627500558E+02  0.00000000000E+00 0. -1.
          6    1    1    2  501    0 -0.59525458272E+02 -0.21763251202E+02  0.76828183100E+02  0.19875484649E+03  0.17200000000E+03 0. -1.
         -6    1    1    2    0  502  0.59525458272E+02  0.21763251202E+02  0.21586612122E+03  0.28319445894E+03  0.17200000000E+03 0. -1.
</event>
<event>
 4    1  0.4386646E+000  0.2249046E+03  0.7818608E-02  0.1130278E+00
         21   -1    0    0  501  502  0.00000000000E+00  0.00000000000E+00  0.97289554769E+02  0.97289554769E+02  0.00000000000E+00 0. -1.
         21   -1    0    0  502  503 -0.00000000000E+00 -0.00000000000E+00 -0.68768635919E+03  0.68768635919E+03  0.00000000000E+00 0. -1.
          6    1    1    2  501    0  0.85907453937E+02  0.11669617002E+03 -0.10133632399E+03  0.24668023289E+03  0.17200000000E+03 0. -1.
         -6    1    1    2    0  503 -0.85907453937E+02 -0.11669617002E+03 -0.48906048043E+03  0.53829568107E+03  0.17200000000E+03 0. -1.
</event>
<event>
 4    1  0.4386646E+000  0.1793976E+03  0.7818608E-02  0.1168387E+00
         21   -1    0    0  501  502  0.00000000000E+00  0.00000000000E+00  0.11383463995E+04  0.11383463995E+04  0.00000000000E+00 0. -1.
         21   -1    0    0  502  503 -0.00000000000E+00 -0.00000000000E+00 -0.84450060051E+02  0.84450060051E+02  0.00000000000E+00 0. -1.
          6    1    1    2  501    0 -0.32734818843E+02 -0.39088925500E+02  0.10256109373E+04  0.10411826483E+04  0.17200000000E+03 0. -1.
         -6    1    1    2    0  503  0.32734818843E+02  0.39088925500E+02  0.28285402175E+02  0.18161381125E+03  0.17200000000E+03 0. -1.
</event>
<event>
 4    1  0.4386646E+000  0.1775556E+03  0.7818608E-02  0.1170190E+00
         21   -1    0    0  501  502  0.00000000000E+00  0.00000000000E+00  0.93983604749E+03  0.93983604749E+03  0.00000000000E+00 0.  1.
         21   -1    0    0  502  503 -0.00000000000E+00 -0.00000000000E+00 -0.40673506525E+02  0.40673506525E+02  0.00000000000E+00 0.  1.
          6    1    1    2  501    0 -0.22469747040E+02 -0.37908933049E+02  0.65483544135E+03  0.67848023699E+03  0.17200000000E+03 0.  1.
         -6    1    1    2    0  503  0.22469747040E+02  0.37908933049E+02  0.24432709962E+03  0.30202931703E+03  0.17200000000E+03 0.  1.
</event>
<event>
 4    1  0.4386646E+000  0.2906816E+03  0.7818608E-02  0.1089994E+00
         21   -1    0    0  503  502  0.00000000000E+00  0.00000000000E+00  0.12141646927E+03  0.12141646927E+03  0.00000000000E+00 0. -1.
         21   -1    0    0  501  503 -0.00000000000E+00 -0.00000000000E+00 -0.70962362810E+03  0.70962362810E+03  0.00000000000E+00 0. -1.
          6    1    1    2  501    0 -0.17933144773E+03  0.15083783686E+03 -0.35185179243E+03  0.45639402385E+03  0.17200000000E+03 0. -1.
         -6    1    1    2    0  502  0.17933144773E+03 -0.15083783686E+03 -0.23635536640E+03  0.37464607352E+03  0.17200000000E+03 0. -1.
</event>
<event>
 4    1  0.4386646E+000  0.2010482E+03  0.7818608E-02  0.1148858E+00
         21   -1    0    0  503  502  0.00000000000E+00  0.00000000000E+00  0.10413983697E+03  0.10413983697E+03  0.00000000000E+00 0. -1.
         21   -1    0    0  501  503 -0.00000000000E+00 -0.00000000000E+00 -0.46259084051E+03  0.46259084051E+03  0.00000000000E+00 0. -1.
          6    1    1    2  501    0  0.59500701681E+02  0.85416893233E+02 -0.29290857822E+03  0.35526865094E+03  0.17200000000E+03 0. -1.
         -6    1    1    2    0  502 -0.59500701681E+02 -0.85416893233E+02 -0.65542425329E+02  0.21146202654E+03  0.17200000000E+03 0. -1.
</event>
<event>
 4    1  0.4386646E+000  0.3134485E+03  0.7818608E-02  0.1078705E+00
         21   -1    0    0  501  502  0.00000000000E+00  0.00000000000E+00  0.11468394635E+03  0.11468394635E+03  0.00000000000E+00 0. -1.
         21   -1    0    0  502  503 -0.00000000000E+00 -0.00000000000E+00 -0.29565324771E+04  0.29565324771E+04  0.00000000000E+00 0.  1.
          6    1    1    2  501    0 -0.23933100643E+03  0.10670827235E+03 -0.12678445148E+03  0.33811874122E+03  0.17200000000E+03 0. -1.
         -6    1    1    2    0  503  0.23933100643E+03 -0.10670827235E+03 -0.27150640793E+04  0.27330976822E+04  0.17200000000E+03 0.  1.
</event>
<event>
 4    1  0.4386646E+000  0.1957395E+03  0.7818608E-02  0.1153384E+00
         21   -1    0    0  503  502  0.00000000000E+00  0.00000000000E+00  0.32557114746E+03  0.32557114746E+03  0.00000000000E+00 0.  1.
         21   -1    0    0  501  503 -0.00000000000E+00 -0.00000000000E+00 -0.11848220566E+03  0.11848220566E+03  0.00000000000E+00 0.  1.
          6    1    1    2  501    0 -0.64268093319E+02  0.67820091179E+02  0.85301088299E+02  0.21351868361E+03  0.17200000000E+03 0.  1.
         -6    1    1    2    0  502  0.64268093319E+02 -0.67820091179E+02  0.12178785350E+03  0.23053466951E+03  0.17200000000E+03 0.  1.
</event>
<event>
 4    1  0.4386646E+000  0.1991402E+03  0.7818608E-02  0.1150466E+00
         21   -1    0    0  501  502  0.00000000000E+00  0.00000000000E+00  0.26855617880E+03  0.26855617880E+03  0.00000000000E+00 0. -1.
         21   -1    0    0  502  503 -0.00000000000E+00 -0.00000000000E+00 -0.19398754916E+03  0.19398754916E+03  0.00000000000E+00 0. -1.
          6    1    1    2  501    0 -0.94361263666E+02 -0.34187081501E+02  0.15029620268E+03  0.24949098814E+03  0.17200000000E+03 0. -1.
         -6    1    1    2    0  503  0.94361263666E+02  0.34187081501E+02 -0.75727573043E+02  0.21305273981E+03  0.17200000000E+03 0. -1.
</event>
<event>
 4    1  0.4386646E+000  0.1915531E+03  0.7818608E-02  0.1157068E+00
         21   -1    0    0  501  502  0.00000000000E+00  0.00000000000E+00  0.21900957832E+03  0.21900957832E+03  0.00000000000E+00 0.  1.
         21   -1    0    0  502  503 -0.00000000000E+00 -0.00000000000E+00 -0.26107447568E+03  0.26107447568E+03  0.00000000000E+00 0.  1.
          6    1    1    2  501    0  0.26680407010E+02  0.79979698438E+02  0.12264671192E+03  0.22745287913E+03  0.17200000000E+03 0.  1.
         -6    1    1    2    0  503 -0.26680407010E+02 -0.79979698438E+02 -0.16471160929E+03  0.25263117487E+03  0.17200000000E+03 0.  1.
</event>
<event>
 4    1  0.4386646E+000  0.2589103E+03  0.7818608E-02  0.1107800E+00
         21   -1    0    0  501  502  0.00000000000E+00  0.00000000000E+00  0.34244300056E+03  0.34244300056E+03  0.00000000000E+00 0. -1.
         21   -1    0    0  502  503 -0.00000000000E+00 -0.00000000000E+00 -0.28436645706E+03  0.28436645706E+03  0.00000000000E+00 0. -1.
          6    1    1    2  501    0 -0.94251801774E+02  0.16901814975E+03  0.20398833712E+03  0.32961459125E+03  0.17200000000E+03 0. -1.
         -6    1    1    2    0  503  0.94251801774E+02 -0.16901814975E+03 -0.14591179362E+03  0.29719486637E+03  0.17200000000E+03 0. -1.
</event>
<event>
 4    1  0.4386646E+000  0.2192473E+03  0.7818608E-02  0.1134445E+00
         21   -1    0    0  503  502  0.00000000000E+00  0.00000000000E+00  0.48002610104E+03  0.48002610104E+03  0.00000000000E+00 0.  1.
         21   -1    0    0  501  503 -0.00000000000E+00 -0.00000000000E+00 -0.14049751166E+03  0.14049751166E+03  0.00000000000E+00 0. -1.
          6    1    1    2  501    0 -0.12005068585E+03  0.63821784383E+02  0.33605231787E+03  0.40124873543E+03  0.17200000000E+03 0. -1.
         -6    1    1    2    0  502  0.12005068585E+03 -0.63821784383E+02  0.34762715063E+01  0.21927487726E+03  0.17200000000E+03 0.  1.
</event>
<event>
 4    1  0.4386646E+000  0.1848890E+03  0.7818608E-02  0.1163154E+00
         21   -1    0    0  501  502  0.00000000000E+00  0.00000000000E+00  0.26075547631E+03  0.26075547631E+03  0.00000000000E+00 0. -1.
         21   -1    0    0  502  503 -0.00000000000E+00 -0.00000000000E+00 -0.21315648220E+03  0.21315648220E+03  0.00000000000E+00 0.  1.
          6    1    1    2  501    0 -0.58439594277E+02  0.34420100518E+02  0.17082279041E+03  0.25172277454E+03  0.17200000000E+03 0. -1.
         -6    1    1    2    0  503  0.58439594277E+02 -0.34420100518E+02 -0.12322379630E+03  0.22218918397E+03  0.17200000000E+03 0.  1.
</event>
<event>
 4    1  0.4386646E+000  0.2588151E+03  0.7818608E-02  0.1107857E+00
         21   -1    0    0  501  502  0.00000000000E+00  0.00000000000E+00  0.47829751051E+02  0.47829751051E+02  0.00000000000E+00 0.  1.
         21   -1    0    0  502  503 -0.00000000000E+00 -0.00000000000E+00 -0.14162162986E+04  0.14162162986E+04  0.00000000000E+00 0.  1.
          6    1    1    2  501    0  0.11338959558E+03  0.15666550513E+03 -0.60706430409E+03  0.65993359528E+03  0.17200000000E+03 0.  1.
         -6    1    1    2    0  503 -0.11338959558E+03 -0.15666550513E+03 -0.76132224349E+03  0.80411245440E+03  0.17200000000E+03 0.  1.
</event>
<event>
 4    1  0.4386646E+000  0.1897113E+03  0.7818608E-02  0.1158722E+00
         21   -1    0    0  503  502  0.00000000000E+00  0.00000000000E+00  0.24549780102E+04  0.24549780102E+04  0.00000000000E+00 0.  1.
         21   -1    0    0  501  503 -0.00000000000E+00 -0.00000000000E+00 -0.14671009186E+02  0.14671009186E+02  0.00000000000E+00 0. -1.
          6    1    1    2  501    0 -0.23990586029E+02 -0.76359836024E+02  0.12537314882E+04  0.12680035557E+04  0.17200000000E+03 0. -1.
         -6    1    1    2    0  502  0.23990586029E+02  0.76359836024E+02  0.11865755128E+04  0.12016454637E+04  0.17200000000E+03 0. -1.
</event>
<event>
 4    1  0.4386646E+000  0.2404256E+03  0.7818608E-02  0.1119510E+00
         21   -1    0    0  501  502  0.00000000000E+00  0.00000000000E+00  0.14592183990E+03  0.14592183990E+03  0.00000000000E+00 0.  1.
         21   -1    0    0  502  503 -0.00000000000E+00 -0.00000000000E+00 -0.84512121868E+03  0.84512121868E+03  0.00000000000E+00 0.  1.
          6    1    1    2  501    0 -0.14235757709E+03 -0.89189554253E+02  0.11577652709E+02  0.24070417193E+03  0.17200000000E+03 0.  1.
         -6    1    1    2    0  503  0.14235757709E+03  0.89189554253E+02 -0.71077703148E+03  0.75033888665E+03  0.17200000000E+03 0.  1.
</event>
<event>
 4    1  0.4386646E+000  0.3065336E+03  0.7818608E-02  0.1082019E+00
         21   -1    0    0  503  502  0.00000000000E+00  0.00000000000E+00  0.46641305397E+03  0.46641305397E+03  0.00000000000E+00 0. -1.
         21   -1    0    0  501  503 -0.00000000000E+00 -0.00000000000E+00 -0.27498343623E+03  0.27498343623E+03  0.00000000000E+00 0.  1.
          6    1    1    2  501    0  0.16987983507E+03 -0.18846675060E+03  0.28739824663E+03  0.42019117864E+03  0.17200000000E+03 0. -1.
         -6    1    1    2    0  502 -0.16987983507E+03  0.18846675060E+03 -0.95968628888E+02  0.32120531156E+03  0.17200000000E+03 0.  1.
</event>
<event>
 4    1  0.4386646E+000  0.2258912E+03  0.7818608E-02  0.1129566E+00
         21   -1    0    0  501  502  0.00000000000E+00  0.00000000000E+00  0.13941569635E+04  0.13941569635E+04  0.00000000000E+00 0.  1.
         21   -1    0    0  502  503 -0.00000000000E+00 -0.00000000000E+00 -0.37260614488E+02  0.37260614488E+02  0.00000000000E+00 0.  1.
          6    1    1    2  501    0  0.63860928523E+02  0.13177480229E+03  0.77371176133E+03  0.80601284502E+03  0.17200000000E+03 0.  1.
         -6    1    1    2    0  503 -0.63860928523E+02 -0.13177480229E+03  0.58318458766E+03  0.62540473295E+03  0.17200000000E+03 0.  1.
</event>
<event>
 4    1  0.4386646E+000  0.2027548E+03  0.7818608E-02  0.1147435E+00
         21   -1    0    0  503  502  0.00000000000E+00  0.00000000000E+00  0.40936564348E+03  0.40936564348E+03  0.00000000000E+00 0.  1.
         21   -1    0    0  501  503 -0.00000000000E+00 -0.00000000000E+00 -0.10831826777E+03  0.10831826777E+03  0.00000000000E+00 0.  1.
          6    1    1    2  501    0 -0.12509746657E+02  0.10662549821E+03  0.80638833403E+02  0.21820199835E+03  0.17200000000E+03 0.  1.
         -6    1    1    2    0  502  0.12509746657E+02 -0.10662549821E+03  0.22040854231E+03  0.29948191290E+03  0.17200000000E+03 0.  1.
</event>
<event>
 4    1  0.4386646E+000  0.2220108E+03  0.7818608E-02  0.1132393E+00
         21   -1    0    0  503  502  0.00000000000E+00  0.00000000000E+00  0.54739881433E+02  0.54739881433E+02  0.00000000000E+00 0.  1.
         21   -1    0    0  501  503 -0.00000000000E+00 -0.00000000000E+00 -0.10406444157E+04  0.10406444157E+04  0.00000000000E+00 0.  1.
          6    1    1    2  501    0 -0.29847538703E+02 -0.13716388754E+03 -0.69400006369E+03  0.72864593323E+03  0.17200000000E+03 0.  1.
         -6    1    1    2    0  502  0.29847538703E+02  0.13716388754E+03 -0.29190447054E+03  0.36673836387E+03  0.17200000000E+03 0.  1.
</event>
<event>
 4    1  0.4386646E+000  0.2603416E+03  0.7818608E-02  0.1106938E+00
         21   -1    0    0  501  502  0.00000000000E+00  0.00000000000E+00  0.25188787765E+03  0.25188787765E+03  0.00000000000E+00 0. -1.
         21   -1    0    0  502  503 -0.00000000000E+00 -0.00000000000E+00 -0.41475482959E+03  0.41475482959E+03  0.00000000000E+00 0. -1.
          6    1    1    2  501    0 -0.17021794880E+03 -0.96018873350E+02  0.11610920722E+03  0.28505985711E+03  0.17200000000E+03 0. -1.
         -6    1    1    2    0  503  0.17021794880E+03  0.96018873350E+02 -0.27897615916E+03  0.38158285013E+03  0.17200000000E+03 0. -1.
</event>
<event>
 4    1  0.4386646E+000  0.1751460E+03  0.7818608E-02  0.1172585E+00
         21   -1    0    0  503  502  0.00000000000E+00  0.00000000000E+00  0.22750944407E+04  0.22750944407E+04  0.00000000000E+00 0. -1.
         21   -1    0    0  501  503 -0.00000000000E+00 -0.00000000000E+00 -0.13517959790E+02  0.13517959790E+02  0.00000000000E+00 0. -1.
          6    1    1    2  501    0 -0.13127587837E+02  0.30327964467E+02  0.11886067019E+04  0.12014416385E+04  0.17200000000E+03 0. -1.
         -6    1    1    2    0  502  0.13127587837E+02 -0.30327964467E+02  0.10729697790E+04  0.10871707620E+04  0.17200000000E+03 0. -1.
</event>
<event>
 4    1  0.4386646E+000  0.2334690E+03  0.7818608E-02  0.1124222E+00
         21   -1    0    0  501  502  0.00000000000E+00  0.00000000000E+00  0.12748218104E+04  0.12748218104E+04  0.00000000000E+00 0.  1.
         21   -1    0    0  502  503 -0.00000000000E+00 -0.00000000000E+00 -0.60252022038E+02  0.60252022038E+02  0.00000000000E+00 0. -1.
          6    1    1    2  501    0  0.10889788030E+03 -0.11430233932E+03  0.96698834941E+03  0.99477346215E+03  0.17200000000E+03 0.  1.
         -6    1    1    2    0  503 -0.10889788030E+03  0.11430233932E+03  0.24758143897E+03  0.34030037031E+03  0.17200000000E+03 0. -1.
</event>
<event>
 4    1  0.4386646E+000  0.2382842E+03  0.7818608E-02  0.1120941E+00
         21   -1    0    0  503  502  0.00000000000E+00  0.00000000000E+00  0.11655948123E+03  0.11655948123E+03  0.00000000000E+00 0. -1.
         21   -1    0    0  501  503 -0.00000000000E+00 -0.00000000000E+00 -0.54318172715E+03  0.54318172715E+03  0.00000000000E+00 0.  1.
          6    1    1    2  501    0  0.86927467517E+02  0.14013906891E+03 -0.31927912377E+03  0.39839490724E+03  0.17200000000E+03 0.  1.
         -6    1    1    2    0  502 -0.86927467517E+02 -0.14013906891E+03 -0.10734312215E+03  0.26134630113E+03  0.17200000000E+03 0. -1.
</event>
<event>
 4    1  0.4386646E+000  0.1785587E+03  0.7818608E-02  0.1169205E+00
         21   -1    0    0  503  502  0.00000000000E+00  0.00000000000E+00  0.46169411546E+02  0.46169411546E+02  0.00000000000E+00 0.  1.
         21   -1    0    0  501  503 -0.00000000000E+00 -0.00000000000E+00 -0.13508465046E+04  0.13508465046E+04  0.00000000000E+00 0.  1.
          6    1    1    2  501    0 -0.24338360522E+02  0.41314133331E+02 -0.11406886207E+04  0.11545794658E+04  0.17200000000E+03 0.  1.
         -6    1    1    2    0  502  0.24338360522E+02 -0.41314133331E+02 -0.16398847238E+03  0.24243645039E+03  0.17200000000E+03 0.  1.
</event>
<event>
 4    1  0.4386646E+000  0.2534876E+03  0.7818608E-02  0.1111120E+00
         21   -1    0    0  503  502  0.00000000000E+00  0.00000000000E+00  0.78396773873E+03  0.78396773873E+03  0.00000000000E+00 0.  1.
         21   -1    0    0  501  503 -0.00000000000E+00 -0.00000000000E+00 -0.82449816167E+02  0.82449816167E+02  0.00000000000E+00 0.  1.
          6    1    1    2  501    0 -0.17148894976E+03 -0.72549855879E+02  0.31745346237E+03  0.40624209808E+03  0.17200000000E+03 0.  1.
         -6    1    1    2    0  502  0.17148894976E+03  0.72549855879E+02  0.38406446019E+03  0.46017545682E+03  0.17200000000E+03 0.  1.
</event>
<event>
 4    1  0.4386646E+000  0.1803968E+03  0.7818608E-02  0.1167420E+00
         21   -1    0    0  503  502  0.00000000000E+00  0.00000000000E+00  0.14565309575E+03  0.14565309575E+03  0.00000000000E+00 0.  1.
         21   -1    0    0  501  503 -0.00000000000E+00 -0.00000000000E+00 -0.36659321725E+03  0.36659321725E+03  0.00000000000E+00 0.  1.
          6    1    1    2  501    0  0.37816604419E+02  0.39101262931E+02 -0.27052723174E+03  0.32515840362E+03  0.17200000000E+03 0.  1.
         -6    1    1    2    0  502 -0.37816604419E+02 -0.39101262931E+02  0.49587110237E+02  0.18708790937E+03  0.17200000000E+03 0.  1.
</event>
<event>
 4    1  0.4386646E+000  0.1946814E+03  0.7818608E-02  0.1154306E+00
         21   -1    0    0  503  502  0.00000000000E+00  0.00000000000E+00  0.12317917669E+04  0.12317917669E+04  0.00000000000E+00 0. -1.
         21   -1    0    0  501  503 -0.00000000000E+00 -0.00000000000E+00 -0.37824113067E+02  0.37824113067E+02  0.00000000000E+00 0.  1.
          6    1    1    2  501    0 -0.63567906763E+02  0.65390816475E+02  0.32281754578E+03  0.37697746022E+03  0.17200000000E+03 0.  1.
         -6    1    1    2    0  502  0.63567906763E+02 -0.65390816475E+02  0.87115010807E+03  0.89263841977E+03  0.17200000000E+03 0. -1.
</event>
<event>
 4    1  0.4386646E+000  0.2509774E+03  0.7818608E-02  0.1112689E+00
         21   -1    0    0  503  502  0.00000000000E+00  0.00000000000E+00  0.29619374453E+02  0.29619374453E+02  0.00000000000E+00 0. -1.
         21   -1    0    0  501  503 -0.00000000000E+00 -0.00000000000E+00 -0.21608138853E+04  0.21608138853E+04  0.00000000000E+00 0. -1.
          6    1    1    2  501    0 -0.11575601051E+02 -0.18240527369E+03 -0.92785945892E+03  0.96120385659E+03  0.17200000000E+03 0. -1.
         -6    1    1    2    0  502  0.11575601051E+02  0.18240527369E+03 -0.12033350519E+04  0.12292294031E+04  0.17200000000E+03 0. -1.
</event>
<event>
 4    1  0.4386646E+000  0.2129395E+03  0.7818608E-02  0.1139259E+00
         21   -1    0    0  501  502  0.00000000000E+00  0.00000000000E+00  0.65477316447E+03  0.65477316447E+03  0.00000000000E+00 0. -1.
         21   -1    0    0  502  503 -0.00000000000E+00 -0.00000000000E+00 -0.82061942995E+02  0.82061942995E+02  0.00000000000E+00 0. -1.
          6    1    1    2  501    0 -0.23830907848E+02 -0.12325306890E+03  0.43192565354E+03  0.48156308138E+03  0.17200000000E+03 0. -1.
         -6    1    1    2    0  503  0.23830907848E+02  0.12325306890E+03  0.14078556794E+03  0.25527202609E+03  0.17200000000E+03 0. -1.
</event>
<event>
 4    1  0.4386646E+000  0.1736666E+03  0.7818608E-02  0.1174077E+00
         21   -1    0    0  501  502  0.00000000000E+00  0.00000000000E+00  0.91962112784E+02  0.91962112784E+02  0.00000000000E+00 0.  1.
         21   -1    0    0  502  503 -0.00000000000E+00 -0.00000000000E+00 -0.42349703380E+03  0.42349703380E+03  0.00000000000E+00 0.  1.
          6    1    1    2  501    0 -0.23930020009E+02  0.18541215078E+01 -0.43356509835E+02  0.17899684514E+03  0.17200000000E+03 0.  1.
         -6    1    1    2    0  503  0.23930020009E+02 -0.18541215078E+01 -0.28817841118E+03  0.33646230145E+03  0.17200000000E+03 0.  1.
</event>
<event>
 4    1  0.4386646E+000  0.1771614E+03  0.7818608E-02  0.1170579E+00
         21   -1    0    0  503  502  0.00000000000E+00  0.00000000000E+00  0.10472021084E+04  0.10472021084E+04  0.00000000000E+00 0.  1.
         21   -1    0    0  501  503 -0.00000000000E+00 -0.00000000000E+00 -0.44864016545E+02  0.44864016545E+02  0.00000000000E+00 0.  1.
          6    1    1    2  501    0 -0.21924688482E+02 -0.36351943474E+02  0.18657190150E+03  0.25728433724E+03  0.17200000000E+03 0.  1.
         -6    1    1    2    0  502  0.21924688482E+02  0.36351943474E+02  0.81576619039E+03  0.83478178774E+03  0.17200000000E+03 0.  1.
</event>
<event>
 4    1  0.4386646E+000  0.2033501E+03  0.7818608E-02  0.1146943E+00
         21   -1    0    0  501  502  0.00000000000E+00  0.00000000000E+00  0.17735938688E+04  0.17735938688E+04  0.00000000000E+00 0.  1.
         21   -1    0    0  502  503 -0.00000000000E+00 -0.00000000000E+00 -0.25635376065E+02  0.25635376065E+02  0.00000000000E+00 0.  1.
          6    1    1    2  501    0  0.72764542464E+02  0.80452365590E+02  0.11446367246E+04  0.11625594579E+04  0.17200000000E+03 0.  1.
         -6    1    1    2    0  503 -0.72764542464E+02 -0.80452365590E+02  0.60332176810E+03  0.63666978696E+03  0.17200000000E+03 0.  1.
</event>
<event>
 4    1  0.4386646E+000  0.1920032E+03  0.7818608E-02  0.1156667E+00
         21   -1    0    0  503  502  0.00000000000E+00  0.00000000000E+00  0.18400960406E+03  0.18400960406E+03  0.00000000000E+00 0. -1.
         21   -1    0    0  501  503 -0.00000000000E+00 -0.00000000000E+00 -0.22696501835E+03  0.22696501835E+03  0.00000000000E+00 0. -1.
          6    1    1    2  501    0  0.36644829719E+02 -0.77061026629E+02  0.48897025767E+02  0.19813168474E+03  0.17200000000E+03 0. -1.
         -6    1    1    2    0  502 -0.36644829719E+02  0.77061026629E+02 -0.91852440053E+02  0.21284293767E+03  0.17200000000E+03 0. -1.
</event>
<event>
 4    1  0.4386646E+000  0.2464242E+03  0.7818608E-02  0.1115586E+00
         21   -1    0    0  503  502  0.00000000000E+00  0.00000000000E+00  0.77471386187E+03  0.77471386187E+03  0.00000000000E+00 0.  1.
         21   -1    0    0  501  503 -0.00000000000E+00 -0.00000000000E+00 -0.78408859533E+02  0.78408859533E+02  0.00000000000E+00 0. -1.
          6    1    1    2  501    0 -0.24916300799E+02  0.17469986620E+03  0.34049708017E+03  0.42031312959E+03  0.17200000000E+03 0. -1.
         -6    1    1    2    0  502  0.24916300799E+02 -0.17469986620E+03  0.35580792216E+03  0.43280959182E+03  0.17200000000E+03 0.  1.
</event>
<event>
 4    1  0.4386646E+000  0.2922723E+03  0.7818608E-02  0.1089169E+00
         21   -1    0    0  503  502  0.00000000000E+00  0.00000000000E+00  0.57723076297E+03  0.57723076297E+03  0.00000000000E+00 0. -1.
         21   -1    0    0  501  503 -0.00000000000E+00 -0.00000000000E+00 -0.14844648968E+03  0.14844648968E+03  0.00000000000E+00 0.  1.
          6    1    1    2  501    0  0.23630208640E+03 -0.64555068238E+00  0.23456199002E+03  0.37475648084E+03  0.17200000000E+03 0. -1.
         -6    1    1    2    0  502 -0.23630208640E+03  0.64555068238E+00  0.19422228327E+03  0.35092077181E+03  0.17200000000E+03 0.  1.
</event>
<event>
 4    1  0.4386646E+000  0.2336008E+03  0.7818608E-02  0.1124131E+00
         21   -1    0    0  503  502  0.00000000000E+00  0.00000000000E+00  0.86112086464E+02  0.86112086464E+02  0.00000000000E+00 0.  1.
         21   -1    0    0  501  503 -0.00000000000E+00 -0.00000000000E+00 -0.63755938511E+03  0.63755938511E+03  0.00000000000E+00 0.  1.
          6    1    1    2  501    0  0.17261252958E+02 -0.15712216809E+03 -0.30387158600E+03  0.38328483839E+03  0.17200000000E+03 0.  1.
         -6    1    1    2    0  502 -0.17261252958E+02  0.15712216809E+03 -0.24757571264E+03  0.34038663318E+03  0.17200000000E+03 0.  1.
</event>
<event>
 4    1  0.4386646E+000  0.1737681E+03  0.7818608E-02  0.1173974E+00
         21   -1    0    0  503  502  0.00000000000E+00  0.00000000000E+00  0.99446396453E+02  0.99446396453E+02  0.00000000000E+00 0. -1.
         21   -1    0    0  501  503 -0.00000000000E+00 -0.00000000000E+00 -0.37936624939E+03  0.37936624939E+03  0.00000000000E+00 0. -1.
          6    1    1    2  501    0 -0.15568938626E+02  0.19208010145E+02 -0.24692592900E+03  0.30193998396E+03  0.17200000000E+03 0. -1.
         -6    1    1    2    0  502  0.15568938626E+02 -0.19208010145E+02 -0.32993923937E+02  0.17687266188E+03  0.17200000000E+03 0. -1.
</event>
<event>
 4    1  0.4386646E+000  0.2039559E+03  0.7818608E-02  0.1146444E+00
         21   -1    0    0  503  502  0.00000000000E+00  0.00000000000E+00  0.12136097539E+03  0.12136097539E+03  0.00000000000E+00 0.  1.
         21   -1    0    0  501  503 -0.00000000000E+00 -0.00000000000E+00 -0.56435628361E+03  0.56435628361E+03  0.00000000000E+00 0.  1.
          6    1    1    2  501    0 -0.10896413482E+03 -0.11867086549E+02 -0.66567186877E+01  0.20406450530E+03  0.17200000000E+03 0.  1.
         -6    1    1    2    0  502  0.10896413482E+03  0.11867086549E+02 -0.43633858953E+03  0.48165275369E+03  0.17200000000E+03 0.  1.
</event>
<event>
 4    1  0.4386646E+000  0.1993249E+03  0.7818608E-02  0.1150310E+00
         21   -1    0    0  503  502  0.00000000000E+00  0.00000000000E+00  0.21400144375E+02  0.21400144375E+02  0.00000000000E+00 0.  1.
         21   -1    0    0  501  503 -0.00000000000E+00 -0.00000000000E+00 -0.24089031645E+04  0.24089031645E+04  0.00000000000E+00 0. -1.
          6    1    1    2  501    0  0.12412020025E+02 -0.99961796136E+02 -0.17756263592E+04  0.17867790536E+04  0.17200000000E+03 0. -1.
         -6    1    1    2    0  502 -0.12412020025E+02  0.99961796136E+02 -0.61187666088E+03  0.64352425522E+03  0.17200000000E+03 0.  1.
</event>
<event>
 4    1  0.4386646E+000  0.1731969E+03  0.7818608E-02  0.1174554E+00
         21   -1    0    0  503  502  0.00000000000E+00  0.00000000000E+00  0.36530964370E+03  0.36530964370E+03  0.00000000000E+00 0. -1.
         21   -1    0    0  501  503 -0.00000000000E+00 -0.00000000000E+00 -0.14452852369E+03  0.14452852369E+03  0.00000000000E+00 0. -1.
          6    1    1    2  501    0  0.18823531182E+02 -0.76719048472E+01 -0.57129566495E+02  0.18237590526E+03  0.17200000000E+03 0. -1.
         -6    1    1    2    0  502 -0.18823531182E+02  0.76719048472E+01  0.27791068650E+03  0.32746226214E+03  0.17200000000E+03 0. -1.
</event>
<event>
 4    1  0.4386646E+000  0.2010263E+03  0.7818608E-02  0.1148876E+00
         21   -1    0    0  501  502  0.00000000000E+00  0.00000000000E+00  0.96982466335E+02  0.96982466335E+02  0.00000000000E+00 0.  1.
         21   -1    0    0  502  503 -0.00000000000E+00 -0.00000000000E+00 -0.42734047653E+03  0.42734047653E+03  0.00000000000E+00 0. -1.
          6    1    1    2  501    0 -0.69678801527E+02  0.77281509524E+02 -0.12379063617E+03  0.23608407126E+03  0.17200000000E+03 0. -1.
         -6    1    1    2    0  503  0.69678801527E+02 -0.77281509524E+02 -0.20656737402E+03  0.28823887161E+03  0.17200000000E+03 0.  1.
</event>
<event>
 4    1  0.4386646E+000  0.1740091E+03  0.7818608E-02  0.1173730E+00
         21   -1    0    0  503  502  0.00000000000E+00  0.00000000000E+00  0.66832223732E+03  0.66832223732E+03  0.00000000000E+00 0. -1.
         21   -1    0    0  501  503 -0.00000000000E+00 -0.00000000000E+00 -0.54027239113E+02  0.54027239113E+02  0.00000000000E+00 0. -1.
          6    1    1    2  501    0 -0.53478287738E+01  0.25817737218E+02  0.16203842224E+03  0.23777217060E+03  0.17200000000E+03 0. -1.
         -6    1    1    2    0  502  0.53478287738E+01 -0.25817737218E+02  0.45225657597E+03  0.48457730584E+03  0.17200000000E+03 0. -1.
</event>
<event>
 4    1  0.4386646E+000  0.2184340E+03  0.7818608E-02  0.1135056E+00
         21   -1    0    0  501  502  0.00000000000E+00  0.00000000000E+00  0.11514559355E+03  0.11514559355E+03  0.00000000000E+00 0.  1.
         21   -1    0    0  502  503 -0.00000000000E+00 -0.00000000000E+00 -0.42264541482E+03  0.42264541482E+03  0.00000000000E+00 0. -1.
          6    1    1    2  501    0 -0.13459038376E+03 -0.38507206773E+01 -0.11613397684E+03  0.24738734815E+03  0.17200000000E+03 0. -1.
         -6    1    1    2    0  503  0.13459038376E+03  0.38507206773E+01 -0.19136584444E+03  0.29040366021E+03  0.17200000000E+03 0. -1.
</event>
<event>
 4    1  0.4386646E+000  0.3201672E+03  0.7818608E-02  0.1075572E+00
         21   -1    0    0  503  502  0.00000000000E+00  0.00000000000E+00  0.40526338531E+03  0.40526338531E+03  0.00000000000E+00 0. -1.
         21   -1    0    0  501  503 -0.00000000000E+00 -0.00000000000E+00 -0.25987389606E+03  0.25987389606E+03  0.00000000000E+00 0. -1.
          6    1    1    2  501    0 -0.55321156395E+02 -0.26431540598E+03  0.18368654447E+02  0.32069373497E+03  0.17200000000E+03 0. -1.
         -6    1    1    2    0  502  0.55321156395E+02  0.26431540598E+03  0.12702083481E+03  0.34444354640E+03  0.17200000000E+03 0. -1.
</event>
<event>
 4    1  0.4386646E+000  0.1779601E+03  0.7818608E-02  0.1169792E+00
         21   -1    0    0  503  502  0.00000000000E+00  0.00000000000E+00  0.89972651068E+03  0.89972651068E+03  0.00000000000E+00 0.  1.
         21   -1    0    0  501  503 -0.00000000000E+00 -0.00000000000E+00 -0.70303952498E+02  0.70303952498E+02  0.00000000000E+00 0.  1.
          6    1    1    2  501    0  0.18262061510E+02 -0.41860530587E+02  0.71984997639E+02  0.19196782750E+03  0.17200000000E+03 0.  1.
         -6    1    1    2    0  502 -0.18262061510E+02  0.41860530587E+02  0.75743756054E+03  0.77806263567E+03  0.17200000000E+03 0.  1.
</event>
<event>
 4    1  0.4386646E+000  0.2083039E+03  0.7818608E-02  0.1142916E+00
         21   -1    0    0  503  502  0.00000000000E+00  0.00000000000E+00  0.15495556685E+03  0.15495556685E+03  0.00000000000E+00 0. -1.
         21   -1    0    0  501  503 -0.00000000000E+00 -0.00000000000E+00 -0.29701219764E+03  0.29701219764E+03  0.00000000000E+00 0. -1.
          6    1    1    2  501    0  0.10820363763E+03 -0.45809219082E+02 -0.12508222923E+03  0.24297340558E+03  0.17200000000E+03 0. -1.
         -6    1    1    2    0  502 -0.10820363763E+03  0.45809219082E+02 -0.16974401558E+02  0.20899435891E+03  0.17200000000E+03 0. -1.
</event>
<event>
 4    1  0.4386646E+000  0.2427088E+03  0.7818608E-02  0.1118001E+00
         21   -1    0    0  503  502  0.00000000000E+00  0.00000000000E+00  0.23140800860E+03  0.23140800860E+03  0.00000000000E+00 0. -1.
         21   -1    0    0  501  503 -0.00000000000E+00 -0.00000000000E+00 -0.32215530584E+03  0.32215530584E+03  0.00000000000E+00 0. -1.
          6    1    1    2  501    0  0.72079731744E+02  0.15533212608E+03 -0.17215584953E+03  0.29756544431E+03  0.17200000000E+03 0. -1.
         -6    1    1    2    0  502 -0.72079731744E+02 -0.15533212608E+03  0.81408552293E+02  0.25599787012E+03  0.17200000000E+03 0. -1.
</event>
<event>
 4    1  0.4386646E+000  0.2628692E+03  0.7818608E-02  0.1105431E+00
         21   -1    0    0  503  502  0.00000000000E+00  0.00000000000E+00  0.26647266078E+03  0.26647266078E+03  0.00000000000E+00 0. -1.
         21   -1    0    0  501  503 -0.00000000000E+00 -0.00000000000E+00 -0.88357782921E+03  0.88357782921E+03  0.00000000000E+00 0. -1.
          6    1    1    2  501    0  0.18823090659E+03 -0.63916860282E+02 -0.79188775654E+03  0.83437788692E+03  0.17200000000E+03 0. -1.
         -6    1    1    2    0  502 -0.18823090659E+03  0.63916860282E+02  0.17478258810E+03  0.31567260307E+03  0.17200000000E+03 0. -1.
</event>
<event>
 4    1  0.4386646E+000  0.3989834E+03  0.7818608E-02  0.1044132E+00
         21   -1    0    0  501  502  0.00000000000E+00  0.00000000000E+00  0.32873112027E+04  0.32873112027E+04  0.00000000000E+00 0.  1.
         21   -1    0    0  502  503 -0.00000000000E+00 -0.00000000000E+00 -0.52051091412E+02  0.52051091412E+02  0.00000000000E+00 0.  1.
          6    1    1    2  501    0 -0.32554577644E+03  0.15370012516E+03  0.20583298074E+04  0.20966424056E+04  0.17200000000E+03 0.  1.
         -6    1    1    2    0  503  0.32554577644E+03 -0.15370012516E+03  0.11769303039E+04  0.12427198885E+04  0.17200000000E+03 0.  1.
</event>
<event>
 4    1  0.4386646E+000  0.2142705E+03  0.7818608E-02  0.1138228E+00
         21   -1    0    0  503  502  0.00000000000E+00  0.00000000000E+00  0.27036392845E+03  0.27036392845E+03  0.00000000000E+00 0. -1.
         21   -1    0    0  501  503 -0.00000000000E+00 -0.00000000000E+00 -0.33655318509E+03  0.33655318509E+03  0.00000000000E+00 0.  1.
          6    1    1    2  501    0 -0.82574486710E+01 -0.12751344248E+03 -0.24668910005E+03  0.32675277437E+03  0.17200000000E+03 0.  1.
         -6    1    1    2    0  502  0.82574486710E+01  0.12751344248E+03  0.18049984341E+03  0.28016433917E+03  0.17200000000E+03 0. -1.
</event>
<event>
 4    1  0.4386646E+000  0.2779845E+03  0.7818608E-02  0.1096795E+00
         21   -1    0    0  501  502  0.00000000000E+00  0.00000000000E+00  0.28028610000E+04  0.28028610000E+04  0.00000000000E+00 0. -1.
         21   -1    0    0  502  503 -0.00000000000E+00 -0.00000000000E+00 -0.31480815150E+02  0.31480815150E+02  0.00000000000E+00 0.  1.
          6    1    1    2  501    0 -0.19793660152E+03  0.92263041422E+02  0.88620423546E+03  0.92878055212E+03  0.17200000000E+03 0. -1.
         -6    1    1    2    0  503  0.19793660152E+03 -0.92263041422E+02  0.18851759494E+04  0.19055612631E+04  0.17200000000E+03 0. -1.
</event>
<event>
 4    1  0.4386646E+000  0.1923443E+03  0.7818608E-02  0.1156364E+00
         21   -1    0    0  503  502  0.00000000000E+00  0.00000000000E+00  0.61290345942E+02  0.61290345942E+02  0.00000000000E+00 0.  1.
         21   -1    0    0  501  503 -0.00000000000E+00 -0.00000000000E+00 -0.10224468172E+04  0.10224468172E+04  0.00000000000E+00 0.  1.
          6    1    1    2  501    0  0.80597238081E+02  0.30272410087E+02 -0.82738590320E+03  0.84944909583E+03  0.17200000000E+03 0.  1.
         -6    1    1    2    0  502 -0.80597238081E+02 -0.30272410087E+02 -0.13377056803E+03  0.23428806728E+03  0.17200000000E+03 0.  1.
</event>
<event>
 4    1  0.4386646E+000  0.1772693E+03  0.7818608E-02  0.1170472E+00
         21   -1    0    0  503  502  0.00000000000E+00  0.00000000000E+00  0.67928034974E+02  0.67928034974E+02  0.00000000000E+00 0.  1.
         21   -1    0    0  501  503 -0.00000000000E+00 -0.00000000000E+00 -0.12867750585E+04  0.12867750585E+04  0.00000000000E+00 0.  1.
          6    1    1    2  501    0  0.33143494525E+02  0.27237780116E+02 -0.11515106889E+04  0.11650756433E+04  0.17200000000E+03 0.  1.
         -6    1    1    2    0  502 -0.33143494525E+02 -0.27237780116E+02 -0.67336334567E+02  0.18962745014E+03  0.17200000000E+03 0.  1.
</event>
<event>
 4    1  0.4386646E+000  0.1953162E+03  0.7818608E-02  0.1153752E+00
         21   -1    0    0  503  502  0.00000000000E+00  0.00000000000E+00  0.96036870032E+02  0.96036870032E+02  0.00000000000E+00 0.  1.
         21   -1    0    0  501  503 -0.00000000000E+00 -0.00000000000E+00 -0.93634281459E+03  0.93634281459E+03  0.00000000000E+00 0.  1.
          6    1    1    2  501    0  0.90983932801E+02 -0.16921821121E+02 -0.81183451482E+03  0.83499922366E+03  0.17200000000E+03 0.  1.
         -6    1    1    2    0  502 -0.90983932801E+02  0.16921821121E+02 -0.28471429735E+02  0.19738046096E+03  0.17200000000E+03 0.  1.
</event>
<event>
 4    1  0.4386646E+000  0.2654947E+03  0.7818608E-02  0.1103886E+00
         21   -1    0    0  501  502  0.00000000000E+00  0.00000000000E+00  0.26072240800E+02  0.26072240800E+02  0.00000000000E+00 0. -1.
         21   -1    0    0  502  503 -0.00000000000E+00 -0.00000000000E+00 -0.30710283926E+04  0.30710283926E+04  0.00000000000E+00 0. -1.
          6    1    1    2  501    0 -0.15117315597E+03 -0.13435063968E+03 -0.98680033996E+03  0.10218915443E+04  0.17200000000E+03 0. -1.
         -6    1    1    2    0  503  0.15117315597E+03  0.13435063968E+03 -0.20581558119E+04  0.20752090891E+04  0.17200000000E+03 0. -1.
</event>
<event>
 4    1  0.4386646E+000  0.2114590E+03  0.7818608E-02  0.1140416E+00
         21   -1    0    0  503  502  0.00000000000E+00  0.00000000000E+00  0.10382296464E+03  0.10382296464E+03  0.00000000000E+00 0. -1.
         21   -1    0    0  501  503 -0.00000000000E+00 -0.00000000000E+00 -0.43515313851E+03  0.43515313851E+03  0.00000000000E+00 0. -1.
          6    1    1    2  501    0  0.15709381420E+02  0.12200047682E+03 -0.19297529892E+03  0.28627673150E+03  0.17200000000E+03 0. -1.
         -6    1    1    2    0  502 -0.15709381420E+02 -0.12200047682E+03 -0.13835487495E+03  0.25269937164E+03  0.17200000000E+03 0. -1.
</event>
<event>
 4    1  0.4386646E+000  0.2020468E+03  0.7818608E-02  0.1148024E+00
         21   -1    0    0  503  502  0.00000000000E+00  0.00000000000E+00  0.12016128477E+04  0.12016128477E+04  0.00000000000E+00 0.  1.
         21   -1    0    0  501  503 -0.00000000000E+00 -0.00000000000E+00 -0.65888389842E+02  0.65888389842E+02  0.00000000000E+00 0. -1.
          6    1    1    2  501    0 -0.59158636190E+02 -0.87972536812E+02  0.12678860106E+03  0.23853356331E+03  0.17200000000E+03 0. -1.
         -6    1    1    2    0  502  0.59158636190E+02  0.87972536812E+02  0.10089358568E+04  0.10289676742E+04  0.17200000000E+03 0.  1.
</event>
<event>
 4    1  0.4386646E+000  0.1785085E+03  0.7818608E-02  0.1169254E+00
         21   -1    0    0  503  502  0.00000000000E+00  0.00000000000E+00  0.94768386416E+02  0.94768386416E+02  0.00000000000E+00 0.  1.
         21   -1    0    0  501  503 -0.00000000000E+00 -0.00000000000E+00 -0.34091385947E+03  0.34091385947E+03  0.00000000000E+00 0.  1.
          6    1    1    2  501    0  0.43363935946E+01  0.47565421387E+02 -0.97576091622E+02  0.20343639615E+03  0.17200000000E+03 0.  1.
         -6    1    1    2    0  502 -0.43363935946E+01 -0.47565421387E+02 -0.14856938143E+03  0.23224584974E+03  0.17200000000E+03 0.  1.
</event>
<event>
 4    1  0.4386646E+000  0.1970610E+03  0.7818608E-02  0.1152243E+00
         21   -1    0    0  503  502  0.00000000000E+00  0.00000000000E+00  0.23045817888E+04  0.23045817888E+04  0.00000000000E+00 0.  1.
         21   -1    0    0  501  503 -0.00000000000E+00 -0.00000000000E+00 -0.60880517669E+02  0.60880517669E+02  0.00000000000E+00 0.  1.
          6    1    1    2  501    0  0.90374196968E+02  0.32886915106E+02  0.11602670781E+03  0.22868152874E+03  0.17200000000E+03 0.  1.
         -6    1    1    2    0  502 -0.90374196968E+02 -0.32886915106E+02  0.21276745633E+04  0.21367807777E+04  0.17200000000E+03 0.  1.
</event>
<event>
 4    1  0.4386646E+000  0.2006275E+03  0.7818608E-02  0.1149211E+00
         21   -1    0    0  503  502  0.00000000000E+00  0.00000000000E+00  0.75741126602E+03  0.75741126602E+03  0.00000000000E+00 0.  1.
         21   -1    0    0  501  503 -0.00000000000E+00 -0.00000000000E+00 -0.87667278875E+02  0.87667278875E+02  0.00000000000E+00 0.  1.
          6    1    1    2  501    0  0.88725920255E+02 -0.52868632259E+02  0.69711787958E+02  0.21239377247E+03  0.17200000000E+03 0.  1.
         -6    1    1    2    0  502 -0.88725920255E+02  0.52868632259E+02  0.60003219919E+03  0.63268477243E+03  0.17200000000E+03 0.  1.
</event>
<event>
 4    1  0.4386646E+000  0.2075435E+03  0.7818608E-02  0.1143526E+00
         21   -1    0    0  503  502  0.00000000000E+00  0.00000000000E+00  0.42785972079E+02  0.42785972079E+02  0.00000000000E+00 0.  1.
         21   -1    0    0  501  503 -0.00000000000E+00 -0.00000000000E+00 -0.10171481796E+04  0.10171481796E+04  0.00000000000E+00 0. -1.
          6    1    1    2  501    0 -0.10146744207E+03 -0.56521427815E+02 -0.54079306365E+03  0.57925076720E+03  0.17200000000E+03 0.  1.
         -6    1    1    2    0  502  0.10146744207E+03  0.56521427815E+02 -0.43356914387E+03  0.48068338448E+03  0.17200000000E+03 0. -1.
</event>
<event>
 4    1  0.4386646E+000  0.2540372E+03  0.7818608E-02  0.1110780E+00
         21   -1    0    0  501  502  0.00000000000E+00  0.00000000000E+00  0.87774304897E+02  0.87774304897E+02  0.00000000000E+00 0. -1.
         21   -1    0    0  502  503 -0.00000000000E+00 -0.00000000000E+00 -0.79760652245E+03  0.79760652245E+03  0.00000000000E+00 0. -1.
          6    1    1    2  501    0  0.16945410141E+03  0.78969705767E+02 -0.23112417044E+03  0.34344328364E+03  0.17200000000E+03 0. -1.
         -6    1    1    2    0  503 -0.16945410141E+03 -0.78969705767E+02 -0.47870804711E+03  0.54193754371E+03  0.17200000000E+03 0. -1.
</event>
<event>
 4    1  0.4386646E+000  0.1909243E+03  0.7818608E-02  0.1157630E+00
         21   -1    0    0  501  502  0.00000000000E+00  0.00000000000E+00  0.45016241458E+02  0.45016241458E+02  0.00000000000E+00 0. -1.
         21   -1    0    0  502  503 -0.00000000000E+00 -0.00000000000E+00 -0.82488929228E+03  0.82488929228E+03  0.00000000000E+00 0. -1.
          6    1    1    2  501    0  0.24133774358E+02 -0.79281997301E+02 -0.33101933380E+03  0.38213331903E+03  0.17200000000E+03 0. -1.
         -6    1    1    2    0  503 -0.24133774358E+02  0.79281997301E+02 -0.44885371701E+03  0.48777221470E+03  0.17200000000E+03 0. -1.
</event>
<event>
 4    1  0.4386646E+000  0.1878437E+03  0.7818608E-02  0.1160421E+00
         21   -1    0    0  503  502  0.00000000000E+00  0.00000000000E+00  0.51203139234E+03  0.51203139234E+03  0.00000000000E+00 0.  1.
         21   -1    0    0  501  503 -0.00000000000E+00 -0.00000000000E+00 -0.72237200098E+02  0.72237200098E+02  0.00000000000E+00 0.  1.
          6    1    1    2  501    0 -0.99539920049E+01  0.74847684870E+02  0.15722246589E+03  0.24495746910E+03  0.17200000000E+03 0. -1.
         -6    1    1    2    0  502  0.99539920049E+01 -0.74847684870E+02  0.28257172635E+03  0.33931112334E+03  0.17200000000E+03 0. -1.
</event>
<event>
 4    1  0.4386646E+000  0.2591555E+03  0.7818608E-02  0.1107652E+00
         21   -1    0    0  503  502  0.00000000000E+00  0.00000000000E+00  0.10475133399E+04  0.10475133399E+04  0.00000000000E+00 0. -1.
         21   -1    0    0  501  503 -0.00000000000E+00 -0.00000000000E+00 -0.11493949815E+03  0.11493949815E+03  0.00000000000E+00 0. -1.
          6    1    1    2  501    0  0.14873928073E+03 -0.12431490963E+03  0.79789840663E+02  0.27116044892E+03  0.17200000000E+03 0. -1.
         -6    1    1    2    0  502 -0.14873928073E+03  0.12431490963E+03  0.85278400104E+03  0.89129238907E+03  0.17200000000E+03 0. -1.
</event>
<event>
 4    1  0.4386646E+000  0.1913412E+03  0.7818608E-02  0.1157257E+00
         21   -1    0    0  501  502  0.00000000000E+00  0.00000000000E+00  0.44089509731E+03  0.44089509731E+03  0.00000000000E+00 0. -1.
         21   -1    0    0  502  503 -0.00000000000E+00 -0.00000000000E+00 -0.12561735228E+03  0.12561735228E+03  0.00000000000E+00 0.  1.
          6    1    1    2  501    0  0.46591436982E+02  0.69689904964E+02  0.32254985131E+03  0.37503313378E+03  0.17200000000E+03 0. -1.
         -6    1    1    2    0  503 -0.46591436982E+02 -0.69689904964E+02 -0.72721062788E+01  0.19147931581E+03  0.17200000000E+03 0.  1.
</event>
<event>
 4    1  0.4386646E+000  0.2163140E+03  0.7818608E-02  0.1136661E+00
         21   -1    0    0  503  502  0.00000000000E+00  0.00000000000E+00  0.12064565535E+04  0.12064565535E+04  0.00000000000E+00 0.  1.
         21   -1    0    0  501  503 -0.00000000000E+00 -0.00000000000E+00 -0.63498097603E+02  0.63498097603E+02  0.00000000000E+00 0.  1.
          6    1    1    2  501    0  0.13078000942E+03 -0.10215224796E+02  0.17534147999E+03  0.27845358013E+03  0.17200000000E+03 0.  1.
         -6    1    1    2    0  502 -0.13078000942E+03  0.10215224796E+02  0.96761697593E+03  0.99150107100E+03  0.17200000000E+03 0.  1.
</event>
<event>
 4    1  0.4386646E+000  0.1985964E+03  0.7818608E-02  0.1150929E+00
         21   -1    0    0  503  502  0.00000000000E+00  0.00000000000E+00  0.36049397538E+03  0.36049397538E+03  0.00000000000E+00 0.  1.
         21   -1    0    0  501  503 -0.00000000000E+00 -0.00000000000E+00 -0.29296064009E+03  0.29296064009E+03  0.00000000000E+00 0.  1.
          6    1    1    2  501    0 -0.22169450197E+02  0.96773162291E+02 -0.22485351347E+03  0.29999938664E+03  0.17200000000E+03 0.  1.
         -6    1    1    2    0  502  0.22169450197E+02 -0.96773162291E+02  0.29238684876E+03  0.35345522884E+03  0.17200000000E+03 0.  1.
</event>
<event>
 4    1  0.4386646E+000  0.1979575E+03  0.7818608E-02  0.1151474E+00
         21   -1    0    0  501  502  0.00000000000E+00  0.00000000000E+00  0.61370582797E+02  0.61370582797E+02  0.00000000000E+00 0. -1.
         21   -1    0    0  502  503 -0.00000000000E+00 -0.00000000000E+00 -0.64732816037E+03  0.64732816037E+03  0.00000000000E+00 0. -1.
          6    1    1    2  501    0 -0.34346340802E+02 -0.91779566180E+02 -0.33428203990E+03  0.38849921762E+03  0.17200000000E+03 0. -1.
         -6    1    1    2    0  503  0.34346340802E+02  0.91779566180E+02 -0.25167553767E+03  0.32019952554E+03  0.17200000000E+03 0. -1.
</event>
<event>
 4    1  0.4386646E+000  0.1886817E+03  0.7818608E-02  0.1159656E+00
         21   -1    0    0  503  502  0.00000000000E+00  0.00000000000E+00  0.36686551226E+03  0.36686551226E+03  0.00000000000E+00 0. -1.
         21   -1    0    0  501  503 -0.00000000000E+00 -0.00000000000E+00 -0.11214318173E+03  0.11214318173E+03  0.00000000000E+00 0.  1.
          6    1    1    2  501    0  0.61157163571E+02  0.47713759309E+02  0.39468134598E+02  0.19276549259E+03  0.17200000000E+03 0.  1.
         -6    1    1    2    0  502 -0.61157163571E+02 -0.47713759309E+02  0.21525419594E+03  0.28624320141E+03  0.17200000000E+03 0. -1.
</event>
<event>
 4    1  0.4386646E+000  0.2143544E+03  0.7818608E-02  0.1138163E+00
         21   -1    0    0  501  502  0.00000000000E+00  0.00000000000E+00  0.54205109240E+03  0.54205109240E+03  0.00000000000E+00 0.  1.
         21   -1    0    0  502  503 -0.00000000000E+00 -0.00000000000E+00 -0.20403387040E+03  0.20403387040E+03  0.00000000000E+00 0. -1.
          6    1    1    2  501    0  0.46092785656E+02  0.11932843410E+03  0.45422063088E+03  0.50225909807E+03  0.17200000000E+03 0.  1.
         -6    1    1    2    0  503 -0.46092785656E+02 -0.11932843410E+03 -0.11620340889E+03  0.24382586473E+03  0.17200000000E+03 0. -1.
</event>
<event>
 4    1  0.4386646E+000  0.3017174E+03  0.7818608E-02  0.1084385E+00
         21   -1    0    0  501  502  0.00000000000E+00  0.00000000000E+00  0.59761442847E+03  0.59761442847E+03  0.00000000000E+00 0.  1.
         21   -1    0    0  502  503 -0.00000000000E+00 -0.00000000000E+00 -0.27252623255E+03  0.27252623255E+03  0.00000000000E+00 0. -1.
          6    1    1    2  501    0 -0.18399557764E+03 -0.16611749308E+03  0.45148192501E+03  0.54301871304E+03  0.17200000000E+03 0. -1.
         -6    1    1    2    0  503  0.18399557764E+03  0.16611749308E+03 -0.12639372909E+03  0.32712194798E+03  0.17200000000E+03 0. -1.
</event>
<event>
 4    1  0.4386646E+000  0.2065343E+03  0.7818608E-02  0.1144340E+00
         21   -1    0    0  503  502  0.00000000000E+00  0.00000000000E+00  0.40688308826E+02  0.40688308826E+02  0.00000000000E+00 0. -1.
         21   -1    0    0  501  503 -0.00000000000E+00 -0.00000000000E+00 -0.16825042501E+04  0.16825042501E+04  0.00000000000E+00 0. -1.
          6    1    1    2  501    0  0.93629660572E+02 -0.65619471613E+02 -0.13498597906E+04  0.13655687030E+04  0.17200000000E+03 0. -1.
         -6    1    1    2    0  502 -0.93629660572E+02  0.65619471613E+02 -0.29195615066E+03  0.35762385589E+03  0.17200000000E+03 0. -1.
</event>
<event>
 4    1  0.4386646E+000  0.2259094E+03  0.7818608E-02  0.1129552E+00
         21   -1    0    0  503  502  0.00000000000E+00  0.00000000000E+00  0.68349933062E+03  0.68349933062E+03  0.00000000000E+00 0.  1.
         21   -1    0    0  501  503 -0.00000000000E+00 -0.00000000000E+00 -0.20213653350E+03  0.20213653350E+03  0.00000000000E+00 0.  1.
          6    1    1    2  501    0  0.76554003119E+02 -0.12486214234E+03 -0.11096439683E+03  0.25169061831E+03  0.17200000000E+03 0.  1.
         -6    1    1    2    0  502 -0.76554003119E+02  0.12486214234E+03  0.59232719395E+03  0.63394524581E+03  0.17200000000E+03 0.  1.
</event>
<event>
 4    1  0.4386646E+000  0.2022401E+03  0.7818608E-02  0.1147863E+00
         21   -1    0    0  503  502  0.00000000000E+00  0.00000000000E+00  0.60866927722E+03  0.60866927722E+03  0.00000000000E+00 0. -1.
         21   -1    0    0  501  503 -0.00000000000E+00 -0.00000000000E+00 -0.75506130865E+02  0.75506130865E+02  0.00000000000E+00 0.  1.
          6    1    1    2  501    0  0.10145587004E+03 -0.31996599643E+02  0.15310397497E+03  0.25365705806E+03  0.17200000000E+03 0.  1.
         -6    1    1    2    0  502 -0.10145587004E+03  0.31996599643E+02  0.38005917139E+03  0.43051835003E+03  0.17200000000E+03 0. -1.
</event>
<event>
 4    1  0.4386646E+000  0.3573373E+03  0.7818608E-02  0.1059643E+00
         21   -1    0    0  501  502  0.00000000000E+00  0.00000000000E+00  0.10066856838E+04  0.10066856838E+04  0.00000000000E+00 0. -1.
         21   -1    0    0  502  503 -0.00000000000E+00 -0.00000000000E+00 -0.24666362987E+03  0.24666362987E+03  0.00000000000E+00 0.  1.
          6    1    1    2  501    0  0.27780577912E+03 -0.14467174274E+03  0.81678554663E+03  0.89153159969E+03  0.17200000000E+03 0. -1.
         -6    1    1    2    0  503 -0.27780577912E+03  0.14467174274E+03 -0.56763492671E+02  0.36181771400E+03  0.17200000000E+03 0.  1.
</event>
<event>
 4    1  0.4386646E+000  0.1789832E+03  0.7818608E-02  0.1168791E+00
         21   -1    0    0  501  502  0.00000000000E+00  0.00000000000E+00  0.14076022801E+03  0.14076022801E+03  0.00000000000E+00 0. -1.
         21   -1    0    0  502  503 -0.00000000000E+00 -0.00000000000E+00 -0.27452369924E+03  0.27452369924E+03  0.00000000000E+00 0. -1.
          6    1    1    2  501    0 -0.46406550041E+02 -0.17245834982E+02  0.18977777896E+02  0.17998650717E+03  0.17200000000E+03 0. -1.
         -6    1    1    2    0  503  0.46406550041E+02  0.17245834982E+02 -0.15274124913E+03  0.23529742008E+03  0.17200000000E+03 0. -1.
</event>
<event>
 4    1  0.4386646E+000  0.2182594E+03  0.7818608E-02  0.1135187E+00
         21   -1    0    0  501  502  0.00000000000E+00  0.00000000000E+00  0.33968889344E+03  0.33968889344E+03  0.00000000000E+00 0.  1.
         21   -1    0    0  502  503 -0.00000000000E+00 -0.00000000000E+00 -0.20540342651E+03  0.20540342651E+03  0.00000000000E+00 0.  1.
          6    1    1    2  501    0 -0.12829367239E+03 -0.39923480880E+02  0.22065610962E+03  0.31036473610E+03  0.17200000000E+03 0.  1.
         -6    1    1    2    0  503  0.12829367239E+03  0.39923480880E+02 -0.86370642698E+02  0.23472758385E+03  0.17200000000E+03 0.  1.
</event>
<event>
 4    1  0.4386646E+000  0.2946486E+03  0.7818608E-02  0.1087947E+00
         21   -1    0    0  503  502  0.00000000000E+00  0.00000000000E+00  0.54343587429E+03  0.54343587429E+03  0.00000000000E+00 0. -1.
         21   -1    0    0  501  503 -0.00000000000E+00 -0.00000000000E+00 -0.16007632866E+03  0.16007632866E+03  0.00000000000E+00 0.  1.
          6    1    1    2  501    0 -0.93123168943E+02  0.22036759908E+03  0.17597437705E+03  0.34319787979E+03  0.17200000000E+03 0. -1.
         -6    1    1    2    0  502  0.93123168943E+02 -0.22036759908E+03  0.20738516858E+03  0.36031432315E+03  0.17200000000E+03 0.  1.
</event>
<event>
 4    1  0.4386646E+000  0.2265431E+03  0.7818608E-02  0.1129097E+00
         21   -1    0    0  501  502  0.00000000000E+00  0.00000000000E+00  0.75271497156E+03  0.75271497156E+03  0.00000000000E+00 0. -1.
         21   -1    0    0  502  503 -0.00000000000E+00 -0.00000000000E+00 -0.82864170614E+02  0.82864170614E+02  0.00000000000E+00 0. -1.
          6    1    1    2  501    0  0.12722037241E+03  0.74516657310E+02  0.51078517857E+03  0.55876941042E+03  0.17200000000E+03 0. -1.
         -6    1    1    2    0  503 -0.12722037241E+03 -0.74516657310E+02  0.15906562238E+03  0.27680973175E+03  0.17200000000E+03 0. -1.
</event>
<event>
 4    1  0.4386646E+000  0.1813921E+03  0.7818608E-02  0.1166462E+00
         21   -1    0    0  503  502  0.00000000000E+00  0.00000000000E+00  0.51023180772E+03  0.51023180772E+03  0.00000000000E+00 0.  1.
         21   -1    0    0  501  503 -0.00000000000E+00 -0.00000000000E+00 -0.87639328507E+02  0.87639328507E+02  0.00000000000E+00 0.  1.
          6    1    1    2  501    0 -0.57519625054E+02  0.32555197323E+01  0.57647386605E+02  0.19033214878E+03  0.17200000000E+03 0.  1.
         -6    1    1    2    0  502  0.57519625054E+02 -0.32555197323E+01  0.36494509261E+03  0.40753898745E+03  0.17200000000E+03 0.  1.
</event>
<event>
 4    1  0.4386646E+000  0.1744565E+03  0.7818608E-02  0.1173278E+00
         21   -1    0    0  503  502  0.00000000000E+00  0.00000000000E+00  0.11998177937E+03  0.11998177937E+03  0.00000000000E+00 0.  1.
         21   -1    0    0  501  503 -0.00000000000E+00 -0.00000000000E+00 -0.29065898724E+03  0.29065898724E+03  0.00000000000E+00 0.  1.
          6    1    1    2  501    0 -0.27780631670E+02 -0.89063856862E+01 -0.15858903837E+03  0.23576592267E+03  0.17200000000E+03 0. -1.
         -6    1    1    2    0  502  0.27780631670E+02  0.89063856862E+01 -0.12088169493E+02  0.17487484394E+03  0.17200000000E+03 0. -1.
</event>
<event>
 4    1  0.4386646E+000  0.1875191E+03  0.7818608E-02  0.1160718E+00
         21   -1    0    0  501  502  0.00000000000E+00  0.00000000000E+00  0.96182204829E+02  0.96182204829E+02  0.00000000000E+00 0.  1.
         21   -1    0    0  502  503 -0.00000000000E+00 -0.00000000000E+00 -0.38689090869E+03  0.38689090869E+03  0.00000000000E+00 0.  1.
          6    1    1    2  501    0 -0.72227660120E+02 -0.19041732790E+02 -0.88682209281E+02  0.20743181221E+03  0.17200000000E+03 0.  1.
         -6    1    1    2    0  503  0.72227660120E+02  0.19041732790E+02 -0.20202649458E+03  0.27564130131E+03  0.17200000000E+03 0.  1.
</event>
<event>
 4    1  0.4386646E+000  0.2965956E+03  0.7818608E-02  0.1086955E+00
         21   -1    0    0  503  502  0.00000000000E+00  0.00000000000E+00  0.48714723739E+03  0.48714723739E+03  0.00000000000E+00 0. -1.
         21   -1    0    0  501  503 -0.00000000000E+00 -0.00000000000E+00 -0.18170029010E+03  0.18170029010E+03  0.00000000000E+00 0.  1.
          6    1    1    2  501    0  0.14489068212E+03  0.19336923135E+03  0.17898475380E+03  0.34641667323E+03  0.17200000000E+03 0. -1.
         -6    1    1    2    0  502 -0.14489068212E+03 -0.19336923135E+03  0.12646219349E+03  0.32243085426E+03  0.17200000000E+03 0.  1.
</event>
<event>
 4    1  0.4386646E+000  0.1847579E+03  0.7818608E-02  0.1163276E+00
         21   -1    0    0  501  502  0.00000000000E+00  0.00000000000E+00  0.56077015535E+02  0.56077015535E+02  0.00000000000E+00 0.  1.
         21   -1    0    0  502  503 -0.00000000000E+00 -0.00000000000E+00 -0.69077021042E+03  0.69077021042E+03  0.00000000000E+00 0. -1.
          6    1    1    2  501    0 -0.37974183866E+02  0.55762490533E+02 -0.18865179926E+03  0.26405490973E+03  0.17200000000E+03 0.  1.
         -6    1    1    2    0  503  0.37974183866E+02 -0.55762490533E+02 -0.44604139562E+03  0.48279231622E+03  0.17200000000E+03 0. -1.
</event>
<event>
 4    1  0.4386646E+000  0.2012568E+03  0.7818608E-02  0.1148683E+00
         21   -1    0    0  503  502  0.00000000000E+00  0.00000000000E+00  0.43171988618E+03  0.43171988618E+03  0.00000000000E+00 0.  1.
         21   -1    0    0  501  503 -0.00000000000E+00 -0.00000000000E+00 -0.95224929481E+02  0.95224929481E+02  0.00000000000E+00 0.  1.
          6    1    1    2  501    0 -0.10439893416E+03  0.46012532230E+01  0.20024099631E+03  0.28390273966E+03  0.17200000000E+03 0.  1.
         -6    1    1    2    0  502  0.10439893416E+03 -0.46012532230E+01  0.13625396039E+03  0.24304207600E+03  0.17200000000E+03 0.  1.
</event>
<event>
 4    1  0.4386646E+000  0.2489340E+03  0.7818608E-02  0.1113980E+00
         21   -1    0    0  501  502  0.00000000000E+00  0.00000000000E+00  0.14863292195E+04  0.14863292195E+04  0.00000000000E+00 0.  1.
         21   -1    0    0  502  503 -0.00000000000E+00 -0.00000000000E+00 -0.74469392317E+02  0.74469392317E+02  0.00000000000E+00 0. -1.
          6    1    1    2  501    0  0.16062883325E+03  0.81132760187E+02  0.12236734469E+04  0.12487373028E+04  0.17200000000E+03 0.  1.
         -6    1    1    2    0  503 -0.16062883325E+03 -0.81132760187E+02  0.18818638032E+03  0.31206130902E+03  0.17200000000E+03 0. -1.
</event>
<event>
 4    1  0.4386646E+000  0.1956553E+03  0.7818608E-02  0.1153457E+00
         21   -1    0    0  503  502  0.00000000000E+00  0.00000000000E+00  0.52938105275E+03  0.52938105275E+03  0.00000000000E+00 0. -1.
         21   -1    0    0  501  503 -0.00000000000E+00 -0.00000000000E+00 -0.73296336020E+02  0.73296336020E+02  0.00000000000E+00 0. -1.
          6    1    1    2  501    0  0.18260192644E+02 -0.91452561805E+02  0.26294975428E+03  0.32775536452E+03  0.17200000000E+03 0. -1.
         -6    1    1    2    0  502 -0.18260192644E+02  0.91452561805E+02  0.19313496245E+03  0.27492202425E+03  0.17200000000E+03 0. -1.
</event>
<event>
 4    1  0.4386646E+000  0.2055076E+03  0.7818608E-02  0.1145174E+00
         21   -1    0    0  501  502  0.00000000000E+00  0.00000000000E+00  0.13438753288E+03  0.13438753288E+03  0.00000000000E+00 0. -1.
         21   -1    0    0  502  503 -0.00000000000E+00 -0.00000000000E+00 -0.58891240107E+03  0.58891240107E+03  0.00000000000E+00 0. -1.
          6    1    1    2  501    0 -0.11162529996E+03 -0.13754378896E+02 -0.47423589210E+03  0.51684917712E+03  0.17200000000E+03 0. -1.
         -6    1    1    2    0  503  0.11162529996E+03  0.13754378896E+02  0.19711023911E+02  0.20645075683E+03  0.17200000000E+03 0. -1.
</event>
<event>
 4    1  0.4386646E+000  0.1860326E+03  0.7818608E-02  0.1162089E+00
         21   -1    0    0  501  502  0.00000000000E+00  0.00000000000E+00  0.62739806942E+03  0.62739806942E+03  0.00000000000E+00 0. -1.
         21   -1    0    0  502  503 -0.00000000000E+00 -0.00000000000E+00 -0.95095289020E+02  0.95095289020E+02  0.00000000000E+00 0. -1.
          6    1    1    2  501    0  0.61854230184E+02  0.34614688114E+02  0.50024817845E+03  0.53371936677E+03  0.17200000000E+03 0. -1.
         -6    1    1    2    0  503 -0.61854230184E+02 -0.34614688114E+02  0.32054601953E+02  0.18877399167E+03  0.17200000000E+03 0. -1.
</event>
<event>
 4    1  0.4386646E+000  0.1788835E+03  0.7818608E-02  0.1168888E+00
         21   -1    0    0  501  502  0.00000000000E+00  0.00000000000E+00  0.10965184520E+04  0.10965184520E+04  0.00000000000E+00 0.  1.
         21   -1    0    0  502  503 -0.00000000000E+00 -0.00000000000E+00 -0.26705295471E+03  0.26705295471E+03  0.00000000000E+00 0.  1.
          6    1    1    2  501    0 -0.46993323689E+02 -0.14385411572E+02  0.10581894263E+04  0.10732027648E+04  0.17200000000E+03 0.  1.
         -6    1    1    2    0  503  0.46993323689E+02  0.14385411572E+02 -0.22872392896E+03  0.29036864193E+03  0.17200000000E+03 0.  1.
</event>
<event>
 4    1  0.4386646E+000  0.2152464E+03  0.7818608E-02  0.1137477E+00
         21   -1    0    0  503  502  0.00000000000E+00  0.00000000000E+00  0.38498722210E+03  0.38498722210E+03  0.00000000000E+00 0. -1.
         21   -1    0    0  501  503 -0.00000000000E+00 -0.00000000000E+00 -0.15096713605E+03  0.15096713605E+03  0.00000000000E+00 0. -1.
          6    1    1    2  501    0 -0.11433607657E+03  0.60615847642E+02 -0.36821774386E+01  0.21527790834E+03  0.17200000000E+03 0. -1.
         -6    1    1    2    0  502  0.11433607657E+03 -0.60615847642E+02  0.23770226349E+03  0.32067644980E+03  0.17200000000E+03 0. -1.
</event>
<event>
 4    1  0.4386646E+000  0.1759158E+03  0.7818608E-02  0.1171815E+00
         21   -1    0    0  501  502  0.00000000000E+00  0.00000000000E+00  0.45385064313E+02  0.45385064313E+02  0.00000000000E+00 0. -1.
         21   -1    0    0  502  503 -0.00000000000E+00 -0.00000000000E+00 -0.70184574232E+03  0.70184574232E+03  0.00000000000E+00 0. -1.
          6    1    1    2  501    0  0.14667375009E+02 -0.33870833748E+02 -0.39127362851E+03  0.42900048675E+03  0.17200000000E+03 0. -1.
         -6    1    1    2    0  503 -0.14667375009E+02  0.33870833748E+02 -0.26518704950E+03  0.31823031988E+03  0.17200000000E+03 0. -1.
</event>
<event>
 4    1  0.4386646E+000  0.1849255E+03  0.7818608E-02  0.1163119E+00
         21   -1    0    0  501  502  0.00000000000E+00  0.00000000000E+00  0.34154393229E+03  0.34154393229E+03  0.00000000000E+00 0.  1.
         21   -1    0    0  502  503 -0.00000000000E+00 -0.00000000000E+00 -0.10643010702E+03  0.10643010702E+03  0.00000000000E+00 0. -1.
          6    1    1    2  501    0  0.53695208062E+02 -0.41596610965E+02  0.17206987757E+03  0.25259749836E+03  0.17200000000E+03 0.  1.
         -6    1    1    2    0  503 -0.53695208062E+02  0.41596610965E+02  0.63043947694E+02  0.19537654095E+03  0.17200000000E+03 0. -1.
</event>
<event>
 4    1  0.4386646E+000  0.1897399E+03  0.7818608E-02  0.1158696E+00
         21   -1    0    0  503  502  0.00000000000E+00  0.00000000000E+00  0.51258419236E+03  0.51258419236E+03  0.00000000000E+00 0.  1.
         21   -1    0    0  501  503 -0.00000000000E+00 -0.00000000000E+00 -0.71013025716E+02  0.71013025716E+02  0.00000000000E+00 0.  1.
          6    1    1    2  501    0 -0.67038570483E+02 -0.43852814111E+02  0.19023834914E+03  0.26868544568E+03  0.17200000000E+03 0.  1.
         -6    1    1    2    0  502  0.67038570483E+02  0.43852814111E+02  0.25133281751E+03  0.31491177240E+03  0.17200000000E+03 0.  1.
</event>
<event>
 4    1  0.4386646E+000  0.2297619E+03  0.7818608E-02  0.1126807E+00
         21   -1    0    0  501  502  0.00000000000E+00  0.00000000000E+00  0.43412929079E+03  0.43412929079E+03  0.00000000000E+00 0.  1.
         21   -1    0    0  502  503 -0.00000000000E+00 -0.00000000000E+00 -0.15050827357E+03  0.15050827357E+03  0.00000000000E+00 0.  1.
          6    1    1    2  501    0  0.14488181528E+03 -0.47072099512E+02  0.26991981206E+03  0.35446752727E+03  0.17200000000E+03 0.  1.
         -6    1    1    2    0  503 -0.14488181528E+03  0.47072099512E+02  0.13701205172E+02  0.23017003709E+03  0.17200000000E+03 0.  1.
</event>
<event>
 4    1  0.4386646E+000  0.2427936E+03  0.7818608E-02  0.1117946E+00
         21   -1    0    0  503  502  0.00000000000E+00  0.00000000000E+00  0.20238213584E+04  0.20238213584E+04  0.00000000000E+00 0. -1.
         21   -1    0    0  501  503 -0.00000000000E+00 -0.00000000000E+00 -0.53617177141E+02  0.53617177141E+02  0.00000000000E+00 0. -1.
          6    1    1    2  501    0 -0.11857463482E+03 -0.12371254838E+03  0.28310023250E+03  0.37295372406E+03  0.17200000000E+03 0. -1.
         -6    1    1    2    0  502  0.11857463482E+03  0.12371254838E+03  0.16871039488E+04  0.17044848115E+04  0.17200000000E+03 0. -1.
</event>
<event>
 4    1  0.4386646E+000  0.2141345E+03  0.7818608E-02  0.1138333E+00
         21   -1    0    0  501  502  0.00000000000E+00  0.00000000000E+00  0.26691258792E+03  0.26691258792E+03  0.00000000000E+00 0.  1.
         21   -1    0    0  502  503 -0.00000000000E+00 -0.00000000000E+00 -0.18267699337E+03  0.18267699337E+03  0.00000000000E+00 0.  1.
          6    1    1    2  501    0  0.16508402588E+02 -0.12647951818E+03  0.96989355727E+02  0.23507558571E+03  0.17200000000E+03 0.  1.
         -6    1    1    2    0  503 -0.16508402588E+02  0.12647951818E+03 -0.12753761182E+02  0.21451399558E+03  0.17200000000E+03 0.  1.
</event>
<event>
 4    1  0.4386646E+000  0.2311750E+03  0.7818608E-02  0.1125815E+00
         21   -1    0    0  501  502  0.00000000000E+00  0.00000000000E+00  0.56923144932E+03  0.56923144932E+03  0.00000000000E+00 0.  1.
         21   -1    0    0  502  503 -0.00000000000E+00 -0.00000000000E+00 -0.94209058715E+02  0.94209058715E+02  0.00000000000E+00 0. -1.
          6    1    1    2  501    0  0.10508739944E+03  0.11320127460E+03  0.21803459330E+03  0.31777503673E+03  0.17200000000E+03 0.  1.
         -6    1    1    2    0  503 -0.10508739944E+03 -0.11320127460E+03  0.25698779730E+03  0.34566547131E+03  0.17200000000E+03 0.  1.
</event>
<event>
 4    1  0.4386646E+000  0.2462185E+03  0.7818608E-02  0.1115718E+00
         21   -1    0    0  501  502  0.00000000000E+00  0.00000000000E+00  0.79504701191E+03  0.79504701191E+03  0.00000000000E+00 0. -1.
         21   -1    0    0  502  503 -0.00000000000E+00 -0.00000000000E+00 -0.79636315292E+02  0.79636315292E+02  0.00000000000E+00 0.  1.
          6    1    1    2  501    0 -0.15317879949E+03  0.87039068249E+02  0.26754171446E+03  0.36359608495E+03  0.17200000000E+03 0.  1.
         -6    1    1    2    0  503  0.15317879949E+03 -0.87039068249E+02  0.44786898216E+03  0.51108724225E+03  0.17200000000E+03 0. -1.
</event>
<event>
 4    1  0.4386646E+000  0.1851374E+03  0.7818608E-02  0.1162922E+00
         21   -1    0    0  501  502  0.00000000000E+00  0.00000000000E+00  0.28847782043E+03  0.28847782043E+03  0.00000000000E+00 0.  1.
         21   -1    0    0  502  503 -0.00000000000E+00 -0.00000000000E+00 -0.33083897334E+03  0.33083897334E+03  0.00000000000E+00 0.  1.
          6    1    1    2  501    0  0.18193219026E+02 -0.66036897671E+02  0.22671323769E+03  0.29270250634E+03  0.17200000000E+03 0.  1.
         -6    1    1    2    0  503 -0.18193219026E+02  0.66036897671E+02 -0.26907439061E+03  0.32661428743E+03  0.17200000000E+03 0.  1.
</event>
<event>
 4    1  0.4386646E+000  0.1752871E+03  0.7818608E-02  0.1172444E+00
         21   -1    0    0  503  502  0.00000000000E+00  0.00000000000E+00  0.31455300945E+03  0.31455300945E+03  0.00000000000E+00 0.  1.
         21   -1    0    0  501  503 -0.00000000000E+00 -0.00000000000E+00 -0.11612568759E+03  0.11612568759E+03  0.00000000000E+00 0.  1.
          6    1    1    2  501    0  0.29351136833E+02  0.16735702915E+02  0.13390331365E+02  0.17579782126E+03  0.17200000000E+03 0.  1.
         -6    1    1    2    0  502 -0.29351136833E+02 -0.16735702915E+02  0.18503699050E+03  0.25488087578E+03  0.17200000000E+03 0.  1.
</event>
<event>
 4    1  0.4386646E+000  0.1822732E+03  0.7818608E-02  0.1165621E+00
         21   -1    0    0  503  502  0.00000000000E+00  0.00000000000E+00  0.76060976877E+03  0.76060976877E+03  0.00000000000E+00 0.  1.
         21   -1    0    0  501  503 -0.00000000000E+00 -0.00000000000E+00 -0.44468721861E+02  0.44468721861E+02  0.00000000000E+00 0. -1.
          6    1    1    2  501    0  0.43507279098E+02  0.41792792483E+02  0.30446473818E+03  0.35485531930E+03  0.17200000000E+03 0. -1.
         -6    1    1    2    0  502 -0.43507279098E+02 -0.41792792483E+02  0.41167630872E+03  0.45022317133E+03  0.17200000000E+03 0. -1.
</event>
<event>
 4    1  0.4386646E+000  0.2009131E+03  0.7818608E-02  0.1148971E+00
         21   -1    0    0  503  502  0.00000000000E+00  0.00000000000E+00  0.34934199839E+03  0.34934199839E+03  0.00000000000E+00 0. -1.
         21   -1    0    0  501  503 -0.00000000000E+00 -0.00000000000E+00 -0.17994934993E+03  0.17994934993E+03  0.00000000000E+00 0. -1.
          6    1    1    2  501    0  0.44208171034E+02 -0.93955830903E+02 -0.73623147513E+02  0.21397763527E+03  0.17200000000E+03 0. -1.
         -6    1    1    2    0  502 -0.44208171034E+02  0.93955830903E+02  0.24301579597E+03  0.31531371305E+03  0.17200000000E+03 0. -1.
</event>
<event>
 4    1  0.4386646E+000  0.1745957E+03  0.7818608E-02  0.1173138E+00
         21   -1    0    0  503  502  0.00000000000E+00  0.00000000000E+00  0.12962742897E+03  0.12962742897E+03  0.00000000000E+00 0. -1.
         21   -1    0    0  501  503 -0.00000000000E+00 -0.00000000000E+00 -0.23602673919E+03  0.23602673919E+03  0.00000000000E+00 0. -1.
          6    1    1    2  501    0 -0.10087118548E+02 -0.28247277570E+02 -0.64255427811E+02  0.18604413093E+03  0.17200000000E+03 0.  1.
         -6    1    1    2    0  502  0.10087118548E+02  0.28247277570E+02 -0.42143882408E+02  0.17961003723E+03  0.17200000000E+03 0.  1.
</event>
<event>
 4    1  0.4386646E+000  0.1934408E+03  0.7818608E-02  0.1155394E+00
         21   -1    0    0  503  502  0.00000000000E+00  0.00000000000E+00  0.10282741254E+04  0.10282741254E+04  0.00000000000E+00 0.  1.
         21   -1    0    0  501  503 -0.00000000000E+00 -0.00000000000E+00 -0.36481176988E+02  0.36481176988E+02  0.00000000000E+00 0.  1.
          6    1    1    2  501    0 -0.80387762354E+02  0.37055944562E+02  0.52244905062E+03  0.55711071239E+03  0.17200000000E+03 0. -1.
         -6    1    1    2    0  502  0.80387762354E+02 -0.37055944562E+02  0.46934389782E+03  0.50764459003E+03  0.17200000000E+03 0. -1.
</event>
<event>
 4    1  0.4386646E+000  0.1771476E+03  0.7818608E-02  0.1170592E+00
         21   -1    0    0  501  502  0.00000000000E+00  0.00000000000E+00  0.13525010363E+03  0.13525010363E+03  0.00000000000E+00 0.  1.
         21   -1    0    0  502  503 -0.00000000000E+00 -0.00000000000E+00 -0.25674098400E+03  0.25674098400E+03  0.00000000000E+00 0.  1.
          6    1    1    2  501    0 -0.14106920461E+02 -0.39978417297E+02  0.67464775528E-01  0.17714763223E+03  0.17200000000E+03 0.  1.
         -6    1    1    2    0  503  0.14106920461E+02  0.39978417297E+02 -0.12155834514E+03  0.21484345540E+03  0.17200000000E+03 0.  1.
</event>
<event>
 4    1  0.4386646E+000  0.1991924E+03  0.7818608E-02  0.1150422E+00
         21   -1    0    0  503  502  0.00000000000E+00  0.00000000000E+00  0.13092477326E+03  0.13092477326E+03  0.00000000000E+00 0.  1.
         21   -1    0    0  501  503 -0.00000000000E+00 -0.00000000000E+00 -0.41212553699E+03  0.41212553699E+03  0.00000000000E+00 0.  1.
          6    1    1    2  501    0  0.42174680032E+02  0.91186084050E+02 -0.28028417381E+03  0.34385581811E+03  0.17200000000E+03 0.  1.
         -6    1    1    2    0  502 -0.42174680032E+02 -0.91186084050E+02 -0.91658992492E+00  0.19919449214E+03  0.17200000000E+03 0.  1.
</event>
<event>
 4    1  0.4386646E+000  0.2132574E+03  0.7818608E-02  0.1139012E+00
         21   -1    0    0  501  502  0.00000000000E+00  0.00000000000E+00  0.18833433894E+03  0.18833433894E+03  0.00000000000E+00 0.  1.
         21   -1    0    0  502  503 -0.00000000000E+00 -0.00000000000E+00 -0.24148994388E+03  0.24148994388E+03  0.00000000000E+00 0. -1.
          6    1    1    2  501    0 -0.48897933888E+02  0.11620551746E+03 -0.28044644044E+02  0.21509354310E+03  0.17200000000E+03 0.  1.
         -6    1    1    2    0  503  0.48897933888E+02 -0.11620551746E+03 -0.25110960896E+02  0.21473073972E+03  0.17200000000E+03 0.  1.
</event>
<event>
 4    1  0.4386646E+000  0.1883768E+03  0.7818608E-02  0.1159934E+00
         21   -1    0    0  503  502  0.00000000000E+00  0.00000000000E+00  0.13693793141E+03  0.13693793141E+03  0.00000000000E+00 0. -1.
         21   -1    0    0  501  503 -0.00000000000E+00 -0.00000000000E+00 -0.57931403394E+03  0.57931403394E+03  0.00000000000E+00 0. -1.
          6    1    1    2  501    0 -0.74870387415E+02  0.17211659507E+02 -0.48742801411E+03  0.52256280491E+03  0.17200000000E+03 0. -1.
         -6    1    1    2    0  502  0.74870387415E+02 -0.17211659507E+02  0.45051911589E+02  0.19368916044E+03  0.17200000000E+03 0. -1.
</event>
<event>
 4    1  0.4386646E+000  0.2900566E+03  0.7818608E-02  0.1090320E+00
         21   -1    0    0  501  502  0.00000000000E+00  0.00000000000E+00  0.17233378995E+04  0.17233378995E+04  0.00000000000E+00 0. -1.
         21   -1    0    0  502  503 -0.00000000000E+00 -0.00000000000E+00 -0.50475472662E+02  0.50475472662E+02  0.00000000000E+00 0.  1.
          6    1    1    2  501    0 -0.12246056933E+03  0.19887742982E+03  0.99706589333E+03  0.10383993542E+04  0.17200000000E+03 0.  1.
         -6    1    1    2    0  503  0.12246056933E+03 -0.19887742982E+03  0.67579653351E+03  0.73541401798E+03  0.17200000000E+03 0.  1.
</event>
<event>
 4    1  0.4386646E+000  0.3885025E+03  0.7818608E-02  0.1047835E+00
         21   -1    0    0  503  502  0.00000000000E+00  0.00000000000E+00  0.10288352561E+03  0.10288352561E+03  0.00000000000E+00 0. -1.
         21   -1    0    0  501  503 -0.00000000000E+00 -0.00000000000E+00 -0.14845571109E+04  0.14845571109E+04  0.00000000000E+00 0. -1.
          6    1    1    2  501    0 -0.31917004230E+03  0.13957326474E+03 -0.60461748452E+03  0.71867691956E+03  0.17200000000E+03 0. -1.
         -6    1    1    2    0  502  0.31917004230E+03 -0.13957326474E+03 -0.77705610082E+03  0.86876371698E+03  0.17200000000E+03 0. -1.
</event>
<event>
 4    1  0.4386646E+000  0.2435744E+03  0.7818608E-02  0.1117434E+00
         21   -1    0    0  503  502  0.00000000000E+00  0.00000000000E+00  0.14149846835E+04  0.14149846835E+04  0.00000000000E+00 0. -1.
         21   -1    0    0  501  503 -0.00000000000E+00 -0.00000000000E+00 -0.44218111934E+02  0.44218111934E+02  0.00000000000E+00 0. -1.
          6    1    1    2  501    0  0.10915024490E+03 -0.13353176079E+03  0.85139736850E+03  0.88555405605E+03  0.17200000000E+03 0. -1.
         -6    1    1    2    0  502 -0.10915024490E+03  0.13353176079E+03  0.51936920306E+03  0.57364873938E+03  0.17200000000E+03 0. -1.
</event>
<event>
 4    1  0.4386646E+000  0.3147110E+03  0.7818608E-02  0.1078110E+00
         21   -1    0    0  501  502  0.00000000000E+00  0.00000000000E+00  0.28200706920E+03  0.28200706920E+03  0.00000000000E+00 0. -1.
         21   -1    0    0  502  503 -0.00000000000E+00 -0.00000000000E+00 -0.46140307763E+03  0.46140307763E+03  0.00000000000E+00 0.  1.
          6    1    1    2  501    0 -0.17604900948E+03  0.19612681759E+03  0.91954101305E+02  0.32786969830E+03  0.17200000000E+03 0. -1.
         -6    1    1    2    0  503  0.17604900948E+03 -0.19612681759E+03 -0.27135010974E+03  0.41554044854E+03  0.17200000000E+03 0.  1.
</event>
<event>
 4    1  0.4386646E+000  0.1913993E+03  0.7818608E-02  0.1157205E+00
         21   -1    0    0  501  502  0.00000000000E+00  0.00000000000E+00  0.44250683123E+03  0.44250683123E+03  0.00000000000E+00 0.  1.
         21   -1    0    0  502  503 -0.00000000000E+00 -0.00000000000E+00 -0.21366500243E+03  0.21366500243E+03  0.00000000000E+00 0.  1.
          6    1    1    2  501    0 -0.56517939614E+02  0.62092024783E+02  0.37119704870E+03  0.41763733789E+03  0.17200000000E+03 0.  1.
         -6    1    1    2    0  503  0.56517939614E+02 -0.62092024783E+02 -0.14235521990E+03  0.23853449577E+03  0.17200000000E+03 0.  1.
</event>
<event>
 4    1  0.4386646E+000  0.3516380E+03  0.7818608E-02  0.1061945E+00
         21   -1    0    0  503  502  0.00000000000E+00  0.00000000000E+00  0.14336184468E+04  0.14336184468E+04  0.00000000000E+00 0. -1.
         21   -1    0    0  501  503 -0.00000000000E+00 -0.00000000000E+00 -0.11224373002E+03  0.11224373002E+03  0.00000000000E+00 0.  1.
          6    1    1    2  501    0 -0.30669268564E+03  0.22047626309E+01  0.28872761828E+03  0.45498670525E+03  0.17200000000E+03 0.  1.
         -6    1    1    2    0  502  0.30669268564E+03 -0.22047626309E+01  0.10326470985E+04  0.10908754715E+04  0.17200000000E+03 0. -1.
</event>
<event>
 4    1  0.4386646E+000  0.1766075E+03  0.7818608E-02  0.1171127E+00
         21   -1    0    0  501  502  0.00000000000E+00  0.00000000000E+00  0.11301345619E+04  0.11301345619E+04  0.00000000000E+00 0. -1.
         21   -1    0    0  502  503 -0.00000000000E+00 -0.00000000000E+00 -0.28392824200E+02  0.28392824200E+02  0.00000000000E+00 0. -1.
          6    1    1    2  501    0 -0.38066572637E+02  0.12535096498E+02  0.64774968917E+03  0.67139396215E+03  0.17200000000E+03 0.  1.
         -6    1    1    2    0  503  0.38066572637E+02 -0.12535096498E+02  0.45399204853E+03  0.48713342394E+03  0.17200000000E+03 0.  1.
</event>
<event>
 4    1  0.4386646E+000  0.2202625E+03  0.7818608E-02  0.1133688E+00
         21   -1    0    0  501  502  0.00000000000E+00  0.00000000000E+00  0.13206678167E+04  0.13206678167E+04  0.00000000000E+00 0.  1.
         21   -1    0    0  502  503 -0.00000000000E+00 -0.00000000000E+00 -0.10858732715E+03  0.10858732715E+03  0.00000000000E+00 0. -1.
          6    1    1    2  501    0 -0.13446551225E+03  0.29164638416E+02  0.11873515169E+04  0.12076088666E+04  0.17200000000E+03 0.  1.
         -6    1    1    2    0  503  0.13446551225E+03 -0.29164638416E+02  0.24728972672E+02  0.22164627723E+03  0.17200000000E+03 0. -1.
</event>
<event>
 4    1  0.4386646E+000  0.3031201E+03  0.7818608E-02  0.1083691E+00
         21   -1    0    0  503  502  0.00000000000E+00  0.00000000000E+00  0.37065853778E+04  0.37065853778E+04  0.00000000000E+00 0. -1.
         21   -1    0    0  501  503 -0.00000000000E+00 -0.00000000000E+00 -0.25293601695E+02  0.25293601695E+02  0.00000000000E+00 0. -1.
          6    1    1    2  501    0 -0.24956539485E+03 -0.38630761300E+01  0.21042498408E+04  0.21259701790E+04  0.17200000000E+03 0. -1.
         -6    1    1    2    0  502  0.24956539485E+03  0.38630761300E+01  0.15770419353E+04  0.16059088005E+04  0.17200000000E+03 0. -1.
</event>
<event>
 4    1  0.4386646E+000  0.1962352E+03  0.7818608E-02  0.1152955E+00
         21   -1    0    0  501  502  0.00000000000E+00  0.00000000000E+00  0.83527057837E+03  0.83527057837E+03  0.00000000000E+00 0.  1.
         21   -1    0    0  502  503 -0.00000000000E+00 -0.00000000000E+00 -0.61409656498E+02  0.61409656498E+02  0.00000000000E+00 0.  1.
          6    1    1    2  501    0  0.92209920868E+02  0.20532948894E+02  0.61076802328E+03  0.64151839393E+03  0.17200000000E+03 0.  1.
         -6    1    1    2    0  503 -0.92209920868E+02 -0.20532948894E+02  0.16309289859E+03  0.25516184093E+03  0.17200000000E+03 0.  1.
</event>
<event>
 4    1  0.4386646E+000  0.2065234E+03  0.7818608E-02  0.1144349E+00
         21   -1    0    0  501  502  0.00000000000E+00  0.00000000000E+00  0.20444971190E+03  0.20444971190E+03  0.00000000000E+00 0. -1.
         21   -1    0    0  502  503 -0.00000000000E+00 -0.00000000000E+00 -0.45500049892E+03  0.45500049892E+03  0.00000000000E+00 0. -1.
          6    1    1    2  501    0 -0.46815257219E+02  0.10428916591E+03  0.11735822260E+03  0.23753915645E+03  0.17200000000E+03 0. -1.
         -6    1    1    2    0  503  0.46815257219E+02 -0.10428916591E+03 -0.36790900963E+03  0.42191105437E+03  0.17200000000E+03 0. -1.
</event>
<event>
 4    1  0.4386646E+000  0.1828247E+03  0.7818608E-02  0.1165097E+00
         21   -1    0    0  503  502  0.00000000000E+00  0.00000000000E+00  0.68084893024E+03  0.68084893024E+03  0.00000000000E+00 0. -1.
         21   -1    0    0  501  503 -0.00000000000E+00 -0.00000000000E+00 -0.10055601134E+03  0.10055601134E+03  0.00000000000E+00 0. -1.
          6    1    1    2  501    0  0.61965127957E+02 -0.10975905749E+01  0.10641221180E+02  0.18313415131E+03  0.17200000000E+03 0. -1.
         -6    1    1    2    0  502 -0.61965127957E+02  0.10975905749E+01  0.56965169772E+03  0.59827079028E+03  0.17200000000E+03 0. -1.
</event>
<event>
 4    1  0.4386646E+000  0.2538063E+03  0.7818608E-02  0.1110923E+00
         21   -1    0    0  501  502  0.00000000000E+00  0.00000000000E+00  0.34077114745E+03  0.34077114745E+03  0.00000000000E+00 0. -1.
         21   -1    0    0  502  503 -0.00000000000E+00 -0.00000000000E+00 -0.27228686080E+03  0.27228686080E+03  0.00000000000E+00 0.  1.
          6    1    1    2  501    0  0.36885101716E+02 -0.18295657437E+03  0.20373665015E+03  0.32546311841E+03  0.17200000000E+03 0. -1.
         -6    1    1    2    0  503 -0.36885101716E+02  0.18295657437E+03 -0.13525236349E+03  0.28759488984E+03  0.17200000000E+03 0.  1.
</event>
<event>
 4    1  0.4386646E+000  0.2953212E+03  0.7818608E-02  0.1087603E+00
         21   -1    0    0  501  502  0.00000000000E+00  0.00000000000E+00  0.10481072354E+04  0.10481072354E+04  0.00000000000E+00 0. -1.
         21   -1    0    0  502  503 -0.00000000000E+00 -0.00000000000E+00 -0.14046673189E+03  0.14046673189E+03  0.00000000000E+00 0.  1.
          6    1    1    2  501    0  0.15270729156E+03 -0.18523247555E+03  0.83323746144E+03  0.88402446461E+03  0.17200000000E+03 0. -1.
         -6    1    1    2    0  503 -0.15270729156E+03  0.18523247555E+03  0.74403042028E+02  0.30454950264E+03  0.17200000000E+03 0.  1.
</event>
<event>
 4    1  0.4386646E+000  0.1875512E+03  0.7818608E-02  0.1160689E+00
         21   -1    0    0  501  502  0.00000000000E+00  0.00000000000E+00  0.50840296818E+03  0.50840296818E+03  0.00000000000E+00 0. -1.
         21   -1    0    0  502  503 -0.00000000000E+00 -0.00000000000E+00 -0.70594357917E+02  0.70594357917E+02  0.00000000000E+00 0. -1.
          6    1    1    2  501    0 -0.74416810869E+02  0.73205140293E+01  0.17804517496E+03  0.25860304714E+03  0.17200000000E+03 0.  1.
         -6    1    1    2    0  503  0.74416810869E+02 -0.73205140293E+01  0.25976343531E+03  0.32039427896E+03  0.17200000000E+03 0.  1.
</event>
<event>
 4    1  0.4386646E+000  0.3705762E+03  0.7818608E-02  0.1054473E+00
         21   -1    0    0  501  502  0.00000000000E+00  0.00000000000E+00  0.11998746681E+04  0.11998746681E+04  0.00000000000E+00 0.  1.
         21   -1    0    0  502  503 -0.00000000000E+00 -0.00000000000E+00 -0.12676353205E+03  0.12676353205E+03  0.00000000000E+00 0.  1.
          6    1    1    2  501    0  0.31200207069E+03  0.10196774389E+03  0.74328443380E+03  0.83054106608E+03  0.17200000000E+03 0.  1.
         -6    1    1    2    0  503 -0.31200207069E+03 -0.10196774389E+03  0.32982670223E+03  0.49609713405E+03  0.17200000000E+03 0.  1.
</event>
<event>
 4    1  0.4386646E+000  0.1727476E+03  0.7818608E-02  0.1175012E+00
         21   -1    0    0  501  502  0.00000000000E+00  0.00000000000E+00  0.26456002933E+03  0.26456002933E+03  0.00000000000E+00 0.  1.
         21   -1    0    0  502  503 -0.00000000000E+00 -0.00000000000E+00 -0.11582632463E+03  0.11582632463E+03  0.00000000000E+00 0.  1.
          6    1    1    2  501    0  0.95145228300E+01 -0.12930635575E+02  0.10512240935E+03  0.20221881324E+03  0.17200000000E+03 0.  1.
         -6    1    1    2    0  503 -0.95145228300E+01  0.12930635575E+02  0.43611295350E+02  0.17816754071E+03  0.17200000000E+03 0.  1.
</event>
<event>
 4    1  0.4386646E+000  0.1868602E+03  0.7818608E-02  0.1161324E+00
         21   -1    0    0  501  502  0.00000000000E+00  0.00000000000E+00  0.82399054814E+02  0.82399054814E+02  0.00000000000E+00 0.  1.
         21   -1    0    0  502  503 -0.00000000000E+00 -0.00000000000E+00 -0.69610696232E+03  0.69610696232E+03  0.00000000000E+00 0.  1.
          6    1    1    2  501    0  0.32840534157E+01 -0.72951584564E+02 -0.63374635817E+02  0.19731462987E+03  0.17200000000E+03 0.  1.
         -6    1    1    2    0  503 -0.32840534157E+01  0.72951584564E+02 -0.55033327169E+03  0.58119138726E+03  0.17200000000E+03 0.  1.
</event>
<event>
 4    1  0.4386646E+000  0.2248104E+03  0.7818608E-02  0.1130347E+00
         21   -1    0    0  501  502  0.00000000000E+00  0.00000000000E+00  0.13767862029E+03  0.13767862029E+03  0.00000000000E+00 0.  1.
         21   -1    0    0  502  503 -0.00000000000E+00 -0.00000000000E+00 -0.36722974524E+03  0.36722974524E+03  0.00000000000E+00 0.  1.
          6    1    1    2  501    0  0.13093147268E+03  0.61746776294E+02 -0.11979282164E+03  0.25473522536E+03  0.17200000000E+03 0.  1.
         -6    1    1    2    0  503 -0.13093147268E+03 -0.61746776294E+02 -0.10975830330E+03  0.25017314017E+03  0.17200000000E+03 0.  1.
</event>
<event>
 4    1  0.4386646E+000  0.1990390E+03  0.7818608E-02  0.1150552E+00
         21   -1    0    0  503  502  0.00000000000E+00  0.00000000000E+00  0.31525851614E+03  0.31525851614E+03  0.00000000000E+00 0. -1.
         21   -1    0    0  501  503 -0.00000000000E+00 -0.00000000000E+00 -0.27992964812E+03  0.27992964812E+03  0.00000000000E+00 0.  1.
          6    1    1    2  501    0 -0.60884747206E+02 -0.79533524944E+02 -0.20325552622E+03  0.28448083058E+03  0.17200000000E+03 0.  1.
         -6    1    1    2    0  502  0.60884747206E+02  0.79533524944E+02  0.23858439423E+03  0.31070733368E+03  0.17200000000E+03 0. -1.
</event>
<event>
 4    1  0.4386646E+000  0.3363105E+03  0.7818608E-02  0.1068378E+00
         21   -1    0    0  501  502  0.00000000000E+00  0.00000000000E+00  0.11690895640E+04  0.11690895640E+04  0.00000000000E+00 0. -1.
         21   -1    0    0  502  503 -0.00000000000E+00 -0.00000000000E+00 -0.11506643063E+03  0.11506643063E+03  0.00000000000E+00 0. -1.
          6    1    1    2  501    0 -0.28897426097E+03  0.38211534195E+01  0.78321293819E+03  0.85236566758E+03  0.17200000000E+03 0. -1.
         -6    1    1    2    0  503  0.28897426097E+03 -0.38211534195E+01  0.27081019518E+03  0.43179032705E+03  0.17200000000E+03 0. -1.
</event>
<event>
 4    1  0.4386646E+000  0.2370592E+03  0.7818608E-02  0.1121768E+00
         21   -1    0    0  503  502  0.00000000000E+00  0.00000000000E+00  0.73524987470E+03  0.73524987470E+03  0.00000000000E+00 0.  1.
         21   -1    0    0  501  503 -0.00000000000E+00 -0.00000000000E+00 -0.80119621476E+02  0.80119621476E+02  0.00000000000E+00 0. -1.
          6    1    1    2  501    0 -0.16272194745E+03  0.11602518803E+02  0.41502192415E+03  0.47795423228E+03  0.17200000000E+03 0.  1.
         -6    1    1    2    0  502  0.16272194745E+03 -0.11602518803E+02  0.24010832907E+03  0.33741526390E+03  0.17200000000E+03 0.  1.
</event>
<event>
 4    1  0.4386646E+000  0.1840939E+03  0.7818608E-02  0.1163899E+00
         21   -1    0    0  503  502  0.00000000000E+00  0.00000000000E+00  0.27960014258E+03  0.27960014258E+03  0.00000000000E+00 0. -1.
         21   -1    0    0  501  503 -0.00000000000E+00 -0.00000000000E+00 -0.30405796643E+03  0.30405796643E+03  0.00000000000E+00 0. -1.
          6    1    1    2  501    0 -0.57416698106E+02  0.31778476992E+02 -0.23853408764E+03  0.30131222974E+03  0.17200000000E+03 0. -1.
         -6    1    1    2    0  502  0.57416698106E+02 -0.31778476992E+02  0.21407626380E+03  0.28234587928E+03  0.17200000000E+03 0. -1.
</event>
<event>
 4    1  0.4386646E+000  0.1787972E+03  0.7818608E-02  0.1168972E+00
         21   -1    0    0  503  502  0.00000000000E+00  0.00000000000E+00  0.42498613543E+03  0.42498613543E+03  0.00000000000E+00 0.  1.
         21   -1    0    0  501  503 -0.00000000000E+00 -0.00000000000E+00 -0.13165880162E+03  0.13165880162E+03  0.00000000000E+00 0.  1.
          6    1    1    2  501    0  0.26580296083E+01 -0.48758252654E+02 -0.35559412526E+02  0.18229894169E+03  0.17200000000E+03 0.  1.
         -6    1    1    2    0  502 -0.26580296083E+01  0.48758252654E+02  0.32888674634E+03  0.37434599536E+03  0.17200000000E+03 0.  1.
</event>
<event>
 4    1  0.4386646E+000  0.2648356E+03  0.7818608E-02  0.1104272E+00
         21   -1    0    0  503  502  0.00000000000E+00  0.00000000000E+00  0.16567656524E+03  0.16567656524E+03  0.00000000000E+00 0.  1.
         21   -1    0    0  501  503 -0.00000000000E+00 -0.00000000000E+00 -0.44016778575E+03  0.44016778575E+03  0.00000000000E+00 0.  1.
          6    1    1    2  501    0  0.16498853283E+03  0.11546721214E+03 -0.19647075703E+03  0.32975544182E+03  0.17200000000E+03 0.  1.
         -6    1    1    2    0  502 -0.16498853283E+03 -0.11546721214E+03 -0.78020463476E+02  0.27608890917E+03  0.17200000000E+03 0.  1.
</event>
<event>
 4    1  0.4386646E+000  0.1752343E+03  0.7818608E-02  0.1172497E+00
         21   -1    0    0  501  502  0.00000000000E+00  0.00000000000E+00  0.37699769501E+03  0.37699769501E+03  0.00000000000E+00 0. -1.
         21   -1    0    0  502  503 -0.00000000000E+00 -0.00000000000E+00 -0.81505141182E+02  0.81505141182E+02  0.00000000000E+00 0. -1.
          6    1    1    2  501    0  0.33505989313E+02  0.64621341818E+00  0.14187102742E+03  0.22546498028E+03  0.17200000000E+03 0.  1.
         -6    1    1    2    0  503 -0.33505989313E+02 -0.64621341818E+00  0.15362152641E+03  0.23303785591E+03  0.17200000000E+03 0.  1.
</event>
<event>
 4    1  0.4386646E+000  0.2034476E+03  0.7818608E-02  0.1146862E+00
         21   -1    0    0  503  502  0.00000000000E+00  0.00000000000E+00  0.32336630231E+03  0.32336630231E+03  0.00000000000E+00 0. -1.
         21   -1    0    0  501  503 -0.00000000000E+00 -0.00000000000E+00 -0.29304036072E+03  0.29304036072E+03  0.00000000000E+00 0.  1.
          6    1    1    2  501    0  0.10114727201E+03  0.39700954407E+02 -0.21613322432E+03  0.29682403385E+03  0.17200000000E+03 0.  1.
         -6    1    1    2    0  502 -0.10114727201E+03 -0.39700954407E+02  0.24645916591E+03  0.31958262918E+03  0.17200000000E+03 0. -1.
</event>
<event>
 4    1  0.4386646E+000  0.1975958E+03  0.7818608E-02  0.1151783E+00
         21   -1    0    0  503  502  0.00000000000E+00  0.00000000000E+00  0.62907758240E+03  0.62907758240E+03  0.00000000000E+00 0.  1.
         21   -1    0    0  501  503 -0.00000000000E+00 -0.00000000000E+00 -0.78741966105E+02  0.78741966105E+02  0.00000000000E+00 0. -1.
          6    1    1    2  501    0 -0.27892032618E+02  0.93177877202E+02  0.11229820306E+03  0.22727729472E+03  0.17200000000E+03 0. -1.
         -6    1    1    2    0  502  0.27892032618E+02 -0.93177877202E+02  0.43803741323E+03  0.48054225379E+03  0.17200000000E+03 0.  1.
</event>
<event>
 4    1  0.4386646E+000  0.2199688E+03  0.7818608E-02  0.1133906E+00
         21   -1    0    0  503  502  0.00000000000E+00  0.00000000000E+00  0.92647598323E+03  0.92647598323E+03  0.00000000000E+00 0.  1.
         21   -1    0    0  501  503 -0.00000000000E+00 -0.00000000000E+00 -0.75620716025E+02  0.75620716025E+02  0.00000000000E+00 0. -1.
          6    1    1    2  501    0  0.10277611732E+02  0.13673560679E+03  0.14674049764E+03  0.26442206624E+03  0.17200000000E+03 0. -1.
         -6    1    1    2    0  502 -0.10277611732E+02 -0.13673560679E+03  0.70411476957E+03  0.73767463302E+03  0.17200000000E+03 0.  1.
</event>
<event>
 4    1  0.4386646E+000  0.1791760E+03  0.7818608E-02  0.1168603E+00
         21   -1    0    0  503  502  0.00000000000E+00  0.00000000000E+00  0.38197922195E+03  0.38197922195E+03  0.00000000000E+00 0.  1.
         21   -1    0    0  501  503 -0.00000000000E+00 -0.00000000000E+00 -0.87655252123E+02  0.87655252123E+02  0.00000000000E+00 0.  1.
          6    1    1    2  501    0 -0.50120629308E+02  0.28212562250E+01  0.99517094571E+02  0.20495777390E+03  0.17200000000E+03 0.  1.
         -6    1    1    2    0  502  0.50120629308E+02 -0.28212562250E+01  0.19480687526E+03  0.26467670018E+03  0.17200000000E+03 0.  1.
</event>
<event>
 4    1  0.4386646E+000  0.1946932E+03  0.7818608E-02  0.1154295E+00
         21   -1    0    0  501  502  0.00000000000E+00  0.00000000000E+00  0.17942295336E+03  0.17942295336E+03  0.00000000000E+00 0. -1.
         21   -1    0    0  502  503 -0.00000000000E+00 -0.00000000000E+00 -0.37182422611E+03  0.37182422611E+03  0.00000000000E+00 0. -1.
          6    1    1    2  501    0 -0.75223601012E+02  0.51602962009E+02  0.84919900602E+02  0.21240726295E+03  0.17200000000E+03 0. -1.
         -6    1    1    2    0  503  0.75223601012E+02 -0.51602962009E+02 -0.27732117335E+03  0.33883991652E+03  0.17200000000E+03 0. -1.
</event>
<event>
 4    1  0.4386646E+000  0.2037405E+03  0.7818608E-02  0.1146621E+00
         21   -1    0    0  503  502  0.00000000000E+00  0.00000000000E+00  0.24221732477E+03  0.24221732477E+03  0.00000000000E+00 0. -1.
         21   -1    0    0  501  503 -0.00000000000E+00 -0.00000000000E+00 -0.19313089736E+03  0.19313089736E+03  0.00000000000E+00 0. -1.
          6    1    1    2  501    0 -0.95215348106E+02 -0.53481211304E+02 -0.48513614206E+02  0.20943680011E+03  0.17200000000E+03 0. -1.
         -6    1    1    2    0  502  0.95215348106E+02  0.53481211304E+02  0.97600041610E+02  0.22591142202E+03  0.17200000000E+03 0. -1.
</event>
<event>
 4    1  0.4386646E+000  0.1915580E+03  0.7818608E-02  0.1157064E+00
         21   -1    0    0  501  502  0.00000000000E+00  0.00000000000E+00  0.27932533114E+03  0.27932533114E+03  0.00000000000E+00 0. -1.
         21   -1    0    0  502  503 -0.00000000000E+00 -0.00000000000E+00 -0.18662550632E+03  0.18662550632E+03  0.00000000000E+00 0. -1.
          6    1    1    2  501    0  0.79869165281E+02  0.27044048682E+02  0.17312078578E+03  0.25819618626E+03  0.17200000000E+03 0. -1.
         -6    1    1    2    0  503 -0.79869165281E+02 -0.27044048682E+02 -0.80420960966E+02  0.20775465120E+03  0.17200000000E+03 0. -1.
</event>
<event>
 4    1  0.4386646E+000  0.2262032E+03  0.7818608E-02  0.1129341E+00
         21   -1    0    0  503  502  0.00000000000E+00  0.00000000000E+00  0.92315427872E+03  0.92315427872E+03  0.00000000000E+00 0. -1.
         21   -1    0    0  501  503 -0.00000000000E+00 -0.00000000000E+00 -0.87897233566E+02  0.87897233566E+02  0.00000000000E+00 0. -1.
          6    1    1    2  501    0 -0.14162970409E+03  0.39050278231E+02  0.11037507843E+03  0.25169536199E+03  0.17200000000E+03 0. -1.
         -6    1    1    2    0  502  0.14162970409E+03 -0.39050278231E+02  0.72488196672E+03  0.75935615029E+03  0.17200000000E+03 0. -1.
</event>
<event>
 4    1  0.4386646E+000  0.2016213E+03  0.7818608E-02  0.1148378E+00
         21   -1    0    0  501  502  0.00000000000E+00  0.00000000000E+00  0.10275212487E+03  0.10275212487E+03  0.00000000000E+00 0. -1.
         21   -1    0    0  502  503 -0.00000000000E+00 -0.00000000000E+00 -0.61693407393E+03  0.61693407393E+03  0.00000000000E+00 0. -1.
          6    1    1    2  501    0  0.61907239592E+02  0.85056634092E+02 -0.41567264833E+02  0.20586154285E+03  0.17200000000E+03 0. -1.
         -6    1    1    2    0  503 -0.61907239592E+02 -0.85056634092E+02 -0.47261468422E+03  0.51382465595E+03  0.17200000000E+03 0. -1.
</event>
<event>
 4    1  0.4386646E+000  0.1826612E+03  0.7818608E-02  0.1165252E+00
         21   -1    0    0  501  502  0.00000000000E+00  0.00000000000E+00  0.28379498941E+03  0.28379498941E+03  0.00000000000E+00 0.  1.
         21   -1    0    0  502  503 -0.00000000000E+00 -0.00000000000E+00 -0.18243200619E+03  0.18243200619E+03  0.00000000000E+00 0.  1.
          6    1    1    2  501    0 -0.28345425325E+02 -0.54567910170E+02  0.18968310533E+03  0.26333400921E+03  0.17200000000E+03 0.  1.
         -6    1    1    2    0  503  0.28345425325E+02  0.54567910170E+02 -0.88320122105E+02  0.20289298639E+03  0.17200000000E+03 0.  1.
</event>
<event>
 4    1  0.4386646E+000  0.2574395E+03  0.7818608E-02  0.1108691E+00
         21   -1    0    0  503  502  0.00000000000E+00  0.00000000000E+00  0.62576245886E+02  0.62576245886E+02  0.00000000000E+00 0. -1.
         21   -1    0    0  501  503 -0.00000000000E+00 -0.00000000000E+00 -0.11703241776E+04  0.11703241776E+04  0.00000000000E+00 0.  1.
          6    1    1    2  501    0 -0.19154706833E+03 -0.91161306494E+00 -0.74390543962E+03  0.78719147196E+03  0.17200000000E+03 0.  1.
         -6    1    1    2    0  502  0.19154706833E+03  0.91161306494E+00 -0.36384249209E+03  0.44570895153E+03  0.17200000000E+03 0. -1.
</event>
<event>
 4    1  0.4386646E+000  0.2218608E+03  0.7818608E-02  0.1132503E+00
         21   -1    0    0  503  502  0.00000000000E+00  0.00000000000E+00  0.59705301688E+03  0.59705301688E+03  0.00000000000E+00 0.  1.
         21   -1    0    0  501  503 -0.00000000000E+00 -0.00000000000E+00 -0.10293887541E+03  0.10293887541E+03  0.00000000000E+00 0.  1.
          6    1    1    2  501    0 -0.48617419388E+01 -0.14005206889E+03  0.90879881867E+02  0.23975272983E+03  0.17200000000E+03 0.  1.
         -6    1    1    2    0  502  0.48617419388E+01  0.14005206889E+03  0.40323425961E+03  0.46023916246E+03  0.17200000000E+03 0.  1.
</event>
<event>
 4    1  0.4386646E+000  0.2113335E+03  0.7818608E-02  0.1140514E+00
         21   -1    0    0  503  502  0.00000000000E+00  0.00000000000E+00  0.72177034691E+03  0.72177034691E+03  0.00000000000E+00 0.  1.
         21   -1    0    0  501  503 -0.00000000000E+00 -0.00000000000E+00 -0.62112687935E+02  0.62112687935E+02  0.00000000000E+00 0. -1.
          6    1    1    2  501    0  0.11148882488E+03 -0.51459461239E+02  0.30574578179E+03  0.37167501571E+03  0.17200000000E+03 0.  1.
         -6    1    1    2    0  502 -0.11148882488E+03  0.51459461239E+02  0.35391187719E+03  0.41220801914E+03  0.17200000000E+03 0.  1.
</event>
<event>
 4    1  0.4386646E+000  0.2550955E+03  0.7818608E-02  0.1110126E+00
         21   -1    0    0  501  502  0.00000000000E+00  0.00000000000E+00  0.17252387302E+03  0.17252387302E+03  0.00000000000E+00 0.  1.
         21   -1    0    0  502  503 -0.00000000000E+00 -0.00000000000E+00 -0.47315689580E+03  0.47315689580E+03  0.00000000000E+00 0. -1.
          6    1    1    2  501    0  0.87287911453E+02  0.16694478158E+03 -0.49203048760E+01  0.25514299713E+03  0.17200000000E+03 0.  1.
         -6    1    1    2    0  503 -0.87287911453E+02 -0.16694478158E+03 -0.29571271791E+03  0.39053777169E+03  0.17200000000E+03 0. -1.
</event>
<event>
 4    1  0.4386646E+000  0.2160079E+03  0.7818608E-02  0.1136895E+00
         21   -1    0    0  503  502  0.00000000000E+00  0.00000000000E+00  0.11765360295E+03  0.11765360295E+03  0.00000000000E+00 0. -1.
         21   -1    0    0  501  503 -0.00000000000E+00 -0.00000000000E+00 -0.60608775258E+03  0.60608775258E+03  0.00000000000E+00 0. -1.
          6    1    1    2  501    0 -0.71016389755E+02  0.10969093053E+03 -0.45697340951E+03  0.50545437465E+03  0.17200000000E+03 0. -1.
         -6    1    1    2    0  502  0.71016389755E+02 -0.10969093053E+03 -0.31460740119E+02  0.21828698088E+03  0.17200000000E+03 0. -1.
</event>
<event>
 4    1  0.4386646E+000  0.1794458E+03  0.7818608E-02  0.1168340E+00
         21   -1    0    0  503  502  0.00000000000E+00  0.00000000000E+00  0.29034574484E+03  0.29034574484E+03  0.00000000000E+00 0.  1.
         21   -1    0    0  501  503 -0.00000000000E+00 -0.00000000000E+00 -0.11444161747E+03  0.11444161747E+03  0.00000000000E+00 0.  1.
          6    1    1    2  501    0  0.25030266243E+02 -0.44612724453E+02  0.52372885153E+02  0.18693241696E+03  0.17200000000E+03 0.  1.
         -6    1    1    2    0  502 -0.25030266243E+02  0.44612724453E+02  0.12353124221E+03  0.21785494535E+03  0.17200000000E+03 0.  1.
</event>
<event>
 4    1  0.4386646E+000  0.1780675E+03  0.7818608E-02  0.1169687E+00
         21   -1    0    0  503  502  0.00000000000E+00  0.00000000000E+00  0.18201869802E+03  0.18201869802E+03  0.00000000000E+00 0. -1.
         21   -1    0    0  501  503 -0.00000000000E+00 -0.00000000000E+00 -0.19407796004E+03  0.19407796004E+03  0.00000000000E+00 0. -1.
          6    1    1    2  501    0 -0.13629523404E+02 -0.44025760858E+02 -0.66208609143E+02  0.18997792359E+03  0.17200000000E+03 0. -1.
         -6    1    1    2    0  502  0.13629523404E+02  0.44025760858E+02  0.54149347127E+02  0.18611873447E+03  0.17200000000E+03 0. -1.
</event>
<event>
 4    1  0.4386646E+000  0.1979053E+03  0.7818608E-02  0.1151518E+00
         21   -1    0    0  503  502  0.00000000000E+00  0.00000000000E+00  0.21834900710E+03  0.21834900710E+03  0.00000000000E+00 0.  1.
         21   -1    0    0  501  503 -0.00000000000E+00 -0.00000000000E+00 -0.21114555426E+03  0.21114555426E+03  0.00000000000E+00 0. -1.
          6    1    1    2  501    0  0.28382839904E+02 -0.93685199747E+02 -0.79698164104E+02  0.21335018072E+03  0.17200000000E+03 0.  1.
         -6    1    1    2    0  502 -0.28382839904E+02  0.93685199747E+02  0.86901616947E+02  0.21614438064E+03  0.17200000000E+03 0.  1.
</event>
<event>
 4    1  0.4386646E+000  0.1768258E+03  0.7818608E-02  0.1170911E+00
         21   -1    0    0  503  502  0.00000000000E+00  0.00000000000E+00  0.10149342879E+04  0.10149342879E+04  0.00000000000E+00 0.  1.
         21   -1    0    0  501  503 -0.00000000000E+00 -0.00000000000E+00 -0.96651346003E+02  0.96651346003E+02  0.00000000000E+00 0.  1.
          6    1    1    2  501    0  0.36254242736E+02 -0.19209303343E+02  0.40075448174E+00  0.17682626517E+03  0.17200000000E+03 0.  1.
         -6    1    1    2    0  502 -0.36254242736E+02  0.19209303343E+02  0.91788218742E+03  0.93475936873E+03  0.17200000000E+03 0.  1.
</event>
<event>
 4    1  0.4386646E+000  0.3803754E+03  0.7818608E-02  0.1050795E+00
         21   -1    0    0  503  502  0.00000000000E+00  0.00000000000E+00  0.39675001552E+03  0.39675001552E+03  0.00000000000E+00 0. -1.
         21   -1    0    0  501  503 -0.00000000000E+00 -0.00000000000E+00 -0.43656328109E+03  0.43656328109E+03  0.00000000000E+00 0. -1.
          6    1    1    2  501    0 -0.26262964773E+03 -0.21477215847E+03 -0.18898155452E+03  0.42473455225E+03  0.17200000000E+03 0. -1.
         -6    1    1    2    0  502  0.26262964773E+03  0.21477215847E+03  0.14916828895E+03  0.40857874437E+03  0.17200000000E+03 0. -1.
</event>
<event>
 4    1  0.4386646E+000  0.1999194E+03  0.7818608E-02  0.1149807E+00
         21   -1    0    0  503  502  0.00000000000E+00  0.00000000000E+00  0.47029563225E+03  0.47029563225E+03  0.00000000000E+00 0.  1.
         21   -1    0    0  501  503 -0.00000000000E+00 -0.00000000000E+00 -0.87489377272E+02  0.87489377272E+02  0.00000000000E+00 0.  1.
          6    1    1    2  501    0 -0.94178405534E+02  0.38912501728E+02  0.14421117515E+03  0.24650480299E+03  0.17200000000E+03 0.  1.
         -6    1    1    2    0  502  0.94178405534E+02 -0.38912501728E+02  0.23859507983E+03  0.31128020653E+03  0.17200000000E+03 0.  1.
</event>
<event>
 4    1  0.4386646E+000  0.2215461E+03  0.7818608E-02  0.1132736E+00
         21   -1    0    0  501  502  0.00000000000E+00  0.00000000000E+00  0.31271659756E+02  0.31271659756E+02  0.00000000000E+00 0.  1.
         21   -1    0    0  502  503 -0.00000000000E+00 -0.00000000000E+00 -0.17038713744E+04  0.17038713744E+04  0.00000000000E+00 0.  1.
          6    1    1    2  501    0 -0.79623320599E+02 -0.11471177771E+03 -0.59271657715E+03  0.63276820871E+03  0.17200000000E+03 0.  1.
         -6    1    1    2    0  503  0.79623320599E+02  0.11471177771E+03 -0.10798831375E+04  0.11023748254E+04  0.17200000000E+03 0.  1.
</event>
<event>
 4    1  0.4386646E+000  0.2228226E+03  0.7818608E-02  0.1131796E+00
         21   -1    0    0  503  502  0.00000000000E+00  0.00000000000E+00  0.19805061498E+03  0.19805061498E+03  0.00000000000E+00 0. -1.
         21   -1    0    0  501  503 -0.00000000000E+00 -0.00000000000E+00 -0.34248500279E+03  0.34248500279E+03  0.00000000000E+00 0.  1.
          6    1    1    2  501    0  0.11116966091E+03  0.87790717451E+02 -0.21213595634E+03  0.30765494885E+03  0.17200000000E+03 0.  1.
         -6    1    1    2    0  502 -0.11116966091E+03 -0.87790717451E+02  0.67701568528E+02  0.23288066893E+03  0.17200000000E+03 0. -1.
</event>
<event>
 4    1  0.4386646E+000  0.2805392E+03  0.7818608E-02  0.1095395E+00
         21   -1    0    0  501  502  0.00000000000E+00  0.00000000000E+00  0.21088206705E+03  0.21088206705E+03  0.00000000000E+00 0.  1.
         21   -1    0    0  502  503 -0.00000000000E+00 -0.00000000000E+00 -0.45239224272E+03  0.45239224272E+03  0.00000000000E+00 0. -1.
          6    1    1    2  501    0 -0.21657971282E+03  0.47026130090E+02  0.17995037645E+02  0.28111572403E+03  0.17200000000E+03 0.  1.
         -6    1    1    2    0  503  0.21657971282E+03 -0.47026130090E+02 -0.25950521331E+03  0.38215858574E+03  0.17200000000E+03 0. -1.
</event>
<event>
 4    1  0.4386646E+000  0.1854801E+03  0.7818608E-02  0.1162602E+00
         21   -1    0    0  503  502  0.00000000000E+00  0.00000000000E+00  0.13164558887E+03  0.13164558887E+03  0.00000000000E+00 0. -1.
         21   -1    0    0  501  503 -0.00000000000E+00 -0.00000000000E+00 -0.35501004416E+03  0.35501004416E+03  0.00000000000E+00 0.  1.
          6    1    1    2  501    0  0.69128173250E+02  0.63374564998E+01 -0.23667827674E+03  0.30069831122E+03  0.17200000000E+03 0.  1.
         -6    1    1    2    0  502 -0.69128173250E+02 -0.63374564998E+01  0.13313821444E+02  0.18595732181E+03  0.17200000000E+03 0. -1.
</event>
<event>
 4    1  0.4386646E+000  0.1814741E+03  0.7818608E-02  0.1166384E+00
         21   -1    0    0  503  502  0.00000000000E+00  0.00000000000E+00  0.96387431115E+03  0.96387431115E+03  0.00000000000E+00 0. -1.
         21   -1    0    0  501  503 -0.00000000000E+00 -0.00000000000E+00 -0.35347682758E+02  0.35347682758E+02  0.00000000000E+00 0.  1.
          6    1    1    2  501    0 -0.17072883409E+02 -0.55293324263E+02  0.37295903539E+03  0.41476653329E+03  0.17200000000E+03 0.  1.
         -6    1    1    2    0  502  0.17072883409E+02  0.55293324263E+02  0.55556759300E+03  0.58445546062E+03  0.17200000000E+03 0. -1.
</event>
<event>
 4    1  0.4386646E+000  0.2442710E+03  0.7818608E-02  0.1116980E+00
         21   -1    0    0  501  502  0.00000000000E+00  0.00000000000E+00  0.76689320966E+03  0.76689320966E+03  0.00000000000E+00 0. -1.
         21   -1    0    0  502  503 -0.00000000000E+00 -0.00000000000E+00 -0.83603555812E+02  0.83603555812E+02  0.00000000000E+00 0.  1.
          6    1    1    2  501    0  0.85850082497E+02  0.15071196950E+03  0.45363503413E+03  0.51522138795E+03  0.17200000000E+03 0. -1.
         -6    1    1    2    0  503 -0.85850082497E+02 -0.15071196950E+03  0.22965461972E+03  0.33527537752E+03  0.17200000000E+03 0.  1.
</event>
<event>
 4    1  0.4386646E+000  0.2350248E+03  0.7818608E-02  0.1123152E+00
         21   -1    0    0  501  502  0.00000000000E+00  0.00000000000E+00  0.97209967270E+03  0.97209967270E+03  0.00000000000E+00 0. -1.
         21   -1    0    0  502  503 -0.00000000000E+00 -0.00000000000E+00 -0.68648451151E+02  0.68648451151E+02  0.00000000000E+00 0.  1.
          6    1    1    2  501    0 -0.14159334220E+03 -0.74859784874E+02  0.66771241552E+03  0.70786759481E+03  0.17200000000E+03 0. -1.
         -6    1    1    2    0  503  0.14159334220E+03  0.74859784874E+02  0.23573880603E+03  0.33288052904E+03  0.17200000000E+03 0.  1.
</event>
<event>
 4    1  0.4386646E+000  0.1878703E+03  0.7818608E-02  0.1160396E+00
         21   -1    0    0  501  502  0.00000000000E+00  0.00000000000E+00  0.37745306001E+03  0.37745306001E+03  0.00000000000E+00 0.  1.
         21   -1    0    0  502  503 -0.00000000000E+00 -0.00000000000E+00 -0.96356807185E+02  0.96356807185E+02  0.00000000000E+00 0.  1.
          6    1    1    2  501    0 -0.51077350063E+02 -0.55698940654E+02  0.99820764678E+02  0.21274269139E+03  0.17200000000E+03 0.  1.
         -6    1    1    2    0  503  0.51077350063E+02  0.55698940654E+02  0.18127548815E+03  0.26106717580E+03  0.17200000000E+03 0.  1.
</event>
<event>
 4    1  0.4386646E+000  0.1867855E+03  0.7818608E-02  0.1161393E+00
         21   -1    0    0  503  502  0.00000000000E+00  0.00000000000E+00  0.97260047250E+03  0.97260047250E+03  0.00000000000E+00 0.  1.
         21   -1    0    0  501  503 -0.00000000000E+00 -0.00000000000E+00 -0.90483698044E+02  0.90483698044E+02  0.00000000000E+00 0. -1.
          6    1    1    2  501    0 -0.69880189915E+02  0.20532201789E+02  0.28109214718E+02  0.18888869793E+03  0.17200000000E+03 0. -1.
         -6    1    1    2    0  502  0.69880189915E+02 -0.20532201789E+02  0.85400755974E+03  0.87419547262E+03  0.17200000000E+03 0.  1.
</event>
<event>
 4    1  0.4386646E+000  0.2075097E+03  0.7818608E-02  0.1143553E+00
         21   -1    0    0  503  502  0.00000000000E+00  0.00000000000E+00  0.95457220711E+03  0.95457220711E+03  0.00000000000E+00 0. -1.
         21   -1    0    0  501  503 -0.00000000000E+00 -0.00000000000E+00 -0.72157521297E+02  0.72157521297E+02  0.00000000000E+00 0.  1.
          6    1    1    2  501    0 -0.31931350304E+02 -0.11160939372E+03  0.12690099846E+03  0.24323678034E+03  0.17200000000E+03 0.  1.
         -6    1    1    2    0  502  0.31931350304E+02  0.11160939372E+03  0.75551368735E+03  0.78349294807E+03  0.17200000000E+03 0. -1.
</event>
<event>
 4    1  0.4386646E+000  0.2672364E+03  0.7818608E-02  0.1102872E+00
         21   -1    0    0  503  502  0.00000000000E+00  0.00000000000E+00  0.12916083459E+04  0.12916083459E+04  0.00000000000E+00 0.  1.
         21   -1    0    0  501  503 -0.00000000000E+00 -0.00000000000E+00 -0.10742016956E+03  0.10742016956E+03  0.00000000000E+00 0.  1.
          6    1    1    2  501    0 -0.18464909691E+03  0.87954634833E+02  0.10480031107E+03  0.28705123581E+03  0.17200000000E+03 0.  1.
         -6    1    1    2    0  502  0.18464909691E+03 -0.87954634833E+02  0.10793878653E+04  0.11119772797E+04  0.17200000000E+03 0.  1.
</event>
<event>
 4    1  0.4386646E+000  0.1996366E+03  0.7818608E-02  0.1150046E+00
         21   -1    0    0  503  502  0.00000000000E+00  0.00000000000E+00  0.35035201840E+03  0.35035201840E+03  0.00000000000E+00 0. -1.
         21   -1    0    0  501  503 -0.00000000000E+00 -0.00000000000E+00 -0.13145782763E+03  0.13145782763E+03  0.00000000000E+00 0. -1.
          6    1    1    2  501    0  0.99673080199E+02  0.18331383794E+02  0.21046058375E+02  0.20074286817E+03  0.17200000000E+03 0. -1.
         -6    1    1    2    0  502 -0.99673080199E+02 -0.18331383794E+02  0.19784813240E+03  0.28106697786E+03  0.17200000000E+03 0. -1.
</event>
<event>
 4    1  0.4386646E+000  0.1720627E+03  0.7818608E-02  0.1175714E+00
         21   -1    0    0  501  502  0.00000000000E+00  0.00000000000E+00  0.24119042269E+03  0.24119042269E+03  0.00000000000E+00 0.  1.
         21   -1    0    0  502  503 -0.00000000000E+00 -0.00000000000E+00 -0.12802809664E+03  0.12802809664E+03  0.00000000000E+00 0.  1.
          6    1    1    2  501    0  0.36991677431E+01  0.28090965151E+01  0.94072697812E+02  0.19610009520E+03  0.17200000000E+03 0.  1.
         -6    1    1    2    0  503 -0.36991677431E+01 -0.28090965151E+01  0.19089628239E+02  0.17311842412E+03  0.17200000000E+03 0.  1.
</event>
<event>
 4    1  0.4386646E+000  0.2190227E+03  0.7818608E-02  0.1134614E+00
         21   -1    0    0  501  502  0.00000000000E+00  0.00000000000E+00  0.80400258471E+03  0.80400258471E+03  0.00000000000E+00 0. -1.
         21   -1    0    0  502  503 -0.00000000000E+00 -0.00000000000E+00 -0.97973663098E+02  0.97973663098E+02  0.00000000000E+00 0.  1.
          6    1    1    2  501    0 -0.48055005574E+02  0.12679770371E+03  0.63502025733E+03  0.67173035397E+03  0.17200000000E+03 0. -1.
         -6    1    1    2    0  503  0.48055005574E+02 -0.12679770371E+03  0.71008664285E+02  0.23024589384E+03  0.17200000000E+03 0.  1.
</event>
<event>
 4    1  0.4386646E+000  0.1775752E+03  0.7818608E-02  0.1170171E+00
         21   -1    0    0  503  502  0.00000000000E+00  0.00000000000E+00  0.25002583717E+03  0.25002583717E+03  0.00000000000E+00 0.  1.
         21   -1    0    0  501  503 -0.00000000000E+00 -0.00000000000E+00 -0.15886504741E+03  0.15886504741E+03  0.00000000000E+00 0.  1.
          6    1    1    2  501    0  0.43496844927E+02 -0.75480134347E+01 -0.47240190613E+02  0.18375141805E+03  0.17200000000E+03 0. -1.
         -6    1    1    2    0  502 -0.43496844927E+02  0.75480134347E+01  0.13840098037E+03  0.22513946654E+03  0.17200000000E+03 0. -1.
</event>
<event>
 4    1  0.4386646E+000  0.1970261E+03  0.7818608E-02  0.1152273E+00
         21   -1    0    0  501  502  0.00000000000E+00  0.00000000000E+00  0.19940655050E+04  0.19940655050E+04  0.00000000000E+00 0.  1.
         21   -1    0    0  502  503 -0.00000000000E+00 -0.00000000000E+00 -0.32793108230E+02  0.32793108230E+02  0.00000000000E+00 0.  1.
          6    1    1    2  501    0 -0.90593954147E+02 -0.32062984266E+02  0.16266578647E+04  0.16385466452E+04  0.17200000000E+03 0.  1.
         -6    1    1    2    0  503  0.90593954147E+02  0.32062984266E+02  0.33461453201E+03  0.38831196803E+03  0.17200000000E+03 0.  1.
</event>
<event>
 4    1  0.4386646E+000  0.1950239E+03  0.7818608E-02  0.1154007E+00
         21   -1    0    0  501  502  0.00000000000E+00  0.00000000000E+00  0.10400549420E+03  0.10400549420E+03  0.00000000000E+00 0. -1.
         21   -1    0    0  502  503 -0.00000000000E+00 -0.00000000000E+00 -0.37225696268E+03  0.37225696268E+03  0.00000000000E+00 0. -1.
          6    1    1    2  501    0  0.11955027623E+02  0.91145007790E+02 -0.10251044195E+03  0.22032413812E+03  0.17200000000E+03 0. -1.
         -6    1    1    2    0  503 -0.11955027623E+02 -0.91145007790E+02 -0.16574102653E+03  0.25593831875E+03  0.17200000000E+03 0. -1.
</event>
<event>
 4    1  0.4386646E+000  0.2091842E+03  0.7818608E-02  0.1142214E+00
         21   -1    0    0  501  502  0.00000000000E+00  0.00000000000E+00  0.16303480120E+03  0.16303480120E+03  0.00000000000E+00 0. -1.
         21   -1    0    0  502  503 -0.00000000000E+00 -0.00000000000E+00 -0.33566518613E+03  0.33566518613E+03  0.00000000000E+00 0. -1.
          6    1    1    2  501    0 -0.98116812293E+02  0.67432308001E+02  0.25309839205E+02  0.21070978377E+03  0.17200000000E+03 0. -1.
         -6    1    1    2    0  503  0.98116812293E+02 -0.67432308001E+02 -0.19794022414E+03  0.28799020356E+03  0.17200000000E+03 0. -1.
</event>
<event>
 4    1  0.4386646E+000  0.2042782E+03  0.7818608E-02  0.1146179E+00
         21   -1    0    0  503  502  0.00000000000E+00  0.00000000000E+00  0.12795046445E+04  0.12795046445E+04  0.00000000000E+00 0.  1.
         21   -1    0    0  501  503 -0.00000000000E+00 -0.00000000000E+00 -0.45787780379E+02  0.45787780379E+02  0.00000000000E+00 0.  1.
          6    1    1    2  501    0  0.24331859050E+01  0.11018008590E+03  0.26141980960E+03  0.33176782329E+03  0.17200000000E+03 0.  1.
         -6    1    1    2    0  502 -0.24331859050E+01 -0.11018008590E+03  0.97229705454E+03  0.99352460161E+03  0.17200000000E+03 0.  1.
</event>
<event>
 4    1  0.4386646E+000  0.2085199E+03  0.7818608E-02  0.1142743E+00
         21   -1    0    0  501  502  0.00000000000E+00  0.00000000000E+00  0.91056314161E+03  0.91056314161E+03  0.00000000000E+00 0. -1.
         21   -1    0    0  502  503 -0.00000000000E+00 -0.00000000000E+00 -0.50678923901E+02  0.50678923901E+02  0.00000000000E+00 0. -1.
          6    1    1    2  501    0  0.92104053059E+02  0.73575680094E+02  0.54546011688E+03  0.58395828310E+03  0.17200000000E+03 0. -1.
         -6    1    1    2    0  503 -0.92104053059E+02 -0.73575680094E+02  0.31442410083E+03  0.37728378242E+03  0.17200000000E+03 0. -1.
</event>
<event>
 4    1  0.4386646E+000  0.1913536E+03  0.7818608E-02  0.1157246E+00
         21   -1    0    0  503  502  0.00000000000E+00  0.00000000000E+00  0.30162302138E+03  0.30162302138E+03  0.00000000000E+00 0. -1.
         21   -1    0    0  501  503 -0.00000000000E+00 -0.00000000000E+00 -0.14433252095E+03  0.14433252095E+03  0.00000000000E+00 0.  1.
          6    1    1    2  501    0  0.26189760304E+02 -0.79663537492E+02 -0.10240494990E+02  0.19162737406E+03  0.17200000000E+03 0. -1.
         -6    1    1    2    0  502 -0.26189760304E+02  0.79663537492E+02  0.16753099542E+03  0.25432816828E+03  0.17200000000E+03 0. -1.
</event>
<event>
 4    1  0.4386646E+000  0.1862770E+03  0.7818608E-02  0.1161863E+00
         21   -1    0    0  503  502  0.00000000000E+00  0.00000000000E+00  0.21379145781E+02  0.21379145781E+02  0.00000000000E+00 0. -1.
         21   -1    0    0  501  503 -0.00000000000E+00 -0.00000000000E+00 -0.16454492165E+04  0.16454492165E+04  0.00000000000E+00 0.  1.
          6    1    1    2  501    0 -0.66410173521E+02 -0.26548163367E+02 -0.90930392704E+03  0.92818788392E+03  0.17200000000E+03 0.  1.
         -6    1    1    2    0  502  0.66410173521E+02  0.26548163367E+02 -0.71476614369E+03  0.73864047837E+03  0.17200000000E+03 0. -1.
</event>
<event>
 4    1  0.4386646E+000  0.1788674E+03  0.7818608E-02  0.1168904E+00
         21   -1    0    0  501  502  0.00000000000E+00  0.00000000000E+00  0.23325292158E+03  0.23325292158E+03  0.00000000000E+00 0.  1.
         21   -1    0    0  502  503 -0.00000000000E+00 -0.00000000000E+00 -0.30353682433E+03  0.30353682433E+03  0.00000000000E+00 0.  1.
          6    1    1    2  501    0  0.26667412774E+02  0.41211467436E+02  0.16356441187E+03  0.24237750057E+03  0.17200000000E+03 0.  1.
         -6    1    1    2    0  503 -0.26667412774E+02 -0.41211467436E+02 -0.23384831462E+03  0.29441224533E+03  0.17200000000E+03 0.  1.
</event>
<event>
 4    1  0.4386646E+000  0.2011662E+03  0.7818608E-02  0.1148759E+00
         21   -1    0    0  501  502  0.00000000000E+00  0.00000000000E+00  0.78722751948E+03  0.78722751948E+03  0.00000000000E+00 0. -1.
         21   -1    0    0  502  503 -0.00000000000E+00 -0.00000000000E+00 -0.12773943016E+03  0.12773943016E+03  0.00000000000E+00 0. -1.
          6    1    1    2  501    0  0.75514413819E+02 -0.71981995289E+02  0.68339244588E+03  0.71238547812E+03  0.17200000000E+03 0. -1.
         -6    1    1    2    0  503 -0.75514413819E+02  0.71981995289E+02 -0.23904356569E+02  0.20258147152E+03  0.17200000000E+03 0. -1.
</event>
<event>
 4    1  0.4386646E+000  0.2999923E+03  0.7818608E-02  0.1085244E+00
         21   -1    0    0  501  502  0.00000000000E+00  0.00000000000E+00  0.42230069826E+03  0.42230069826E+03  0.00000000000E+00 0.  1.
         21   -1    0    0  502  503 -0.00000000000E+00 -0.00000000000E+00 -0.28604627820E+03  0.28604627820E+03  0.00000000000E+00 0. -1.
          6    1    1    2  501    0  0.10827305798E+02 -0.24554869581E+03  0.24697250416E+03  0.38857535997E+03  0.17200000000E+03 0. -1.
         -6    1    1    2    0  503 -0.10827305798E+02  0.24554869581E+03 -0.11071808410E+03  0.31977161648E+03  0.17200000000E+03 0. -1.
</event>
<event>
 4    1  0.4386646E+000  0.2057772E+03  0.7818608E-02  0.1144954E+00
         21   -1    0    0  501  502  0.00000000000E+00  0.00000000000E+00  0.56153915799E+02  0.56153915799E+02  0.00000000000E+00 0.  1.
         21   -1    0    0  502  503 -0.00000000000E+00 -0.00000000000E+00 -0.87948118506E+03  0.87948118506E+03  0.00000000000E+00 0. -1.
          6    1    1    2  501    0 -0.66426188235E+02  0.91366371834E+02 -0.23500979873E+03  0.31236814480E+03  0.17200000000E+03 0.  1.
         -6    1    1    2    0  503  0.66426188235E+02 -0.91366371834E+02 -0.58831747053E+03  0.62326695606E+03  0.17200000000E+03 0. -1.
</event>
<event>
 4    1  0.4386646E+000  0.1810008E+03  0.7818608E-02  0.1166838E+00
         21   -1    0    0  501  502  0.00000000000E+00  0.00000000000E+00  0.99445902961E+03  0.99445902961E+03  0.00000000000E+00 0.  1.
         21   -1    0    0  502  503 -0.00000000000E+00 -0.00000000000E+00 -0.33474979360E+03  0.33474979360E+03  0.00000000000E+00 0.  1.
          6    1    1    2  501    0 -0.37290822106E+02 -0.42269256228E+02  0.96090925873E+03  0.97780770039E+03  0.17200000000E+03 0.  1.
         -6    1    1    2    0  503  0.37290822106E+02  0.42269256228E+02 -0.30120002272E+03  0.35140112282E+03  0.17200000000E+03 0.  1.
</event>
<event>
 4    1  0.4386646E+000  0.2488478E+03  0.7818608E-02  0.1114035E+00
         21   -1    0    0  503  502  0.00000000000E+00  0.00000000000E+00  0.45294354949E+03  0.45294354949E+03  0.00000000000E+00 0. -1.
         21   -1    0    0  501  503 -0.00000000000E+00 -0.00000000000E+00 -0.43568008773E+03  0.43568008773E+03  0.00000000000E+00 0. -1.
          6    1    1    2  501    0  0.68024278409E+02  0.16647501202E+03 -0.35942312875E+03  0.43716154630E+03  0.17200000000E+03 0. -1.
         -6    1    1    2    0  502 -0.68024278409E+02 -0.16647501202E+03  0.37668659050E+03  0.45146209093E+03  0.17200000000E+03 0. -1.
</event>
<event>
 4    1  0.4386646E+000  0.2183003E+03  0.7818608E-02  0.1135157E+00
         21   -1    0    0  503  502  0.00000000000E+00  0.00000000000E+00  0.19336851279E+02  0.19336851279E+02  0.00000000000E+00 0.  1.
         21   -1    0    0  501  503 -0.00000000000E+00 -0.00000000000E+00 -0.24702618892E+04  0.24702618892E+04  0.00000000000E+00 0.  1.
          6    1    1    2  501    0  0.12635756068E+03 -0.45877803354E+02 -0.12857601952E+04  0.13041603757E+04  0.17200000000E+03 0.  1.
         -6    1    1    2    0  502 -0.12635756068E+03  0.45877803354E+02 -0.11651648427E+04  0.11854383648E+04  0.17200000000E+03 0.  1.
</event>
<event>
 4    1  0.4386646E+000  0.1847428E+03  0.7818608E-02  0.1163290E+00
         21   -1    0    0  501  502  0.00000000000E+00  0.00000000000E+00  0.12896607932E+03  0.12896607932E+03  0.00000000000E+00 0.  1.
         21   -1    0    0  502  503 -0.00000000000E+00 -0.00000000000E+00 -0.26761847610E+03  0.26761847610E+03  0.00000000000E+00 0.  1.
          6    1    1    2  501    0  0.31941490539E+02 -0.59377230043E+02 -0.48416026747E+02  0.19098174235E+03  0.17200000000E+03 0.  1.
         -6    1    1    2    0  503 -0.31941490539E+02  0.59377230043E+02 -0.90236370028E+02  0.20560281307E+03  0.17200000000E+03 0.  1.
</event>
<event>
 4    1  0.4386646E+000  0.1841038E+03  0.7818608E-02  0.1163889E+00
         21   -1    0    0  503  502  0.00000000000E+00  0.00000000000E+00  0.26135649105E+02  0.26135649105E+02  0.00000000000E+00 0.  1.
         21   -1    0    0  501  503 -0.00000000000E+00 -0.00000000000E+00 -0.12980275076E+04  0.12980275076E+04  0.00000000000E+00 0. -1.
          6    1    1    2  501    0 -0.41754510141E+02 -0.50663384379E+02 -0.61606998071E+03  0.64299023225E+03  0.17200000000E+03 0.  1.
         -6    1    1    2    0  502  0.41754510141E+02  0.50663384379E+02 -0.65582187784E+03  0.68117292451E+03  0.17200000000E+03 0.  1.
</event>
<event>
 4    1  0.4386646E+000  0.2366126E+03  0.7818608E-02  0.1122070E+00
         21   -1    0    0  501  502  0.00000000000E+00  0.00000000000E+00  0.10245750323E+04  0.10245750323E+04  0.00000000000E+00 0.  1.
         21   -1    0    0  502  503 -0.00000000000E+00 -0.00000000000E+00 -0.62862598442E+02  0.62862598442E+02  0.00000000000E+00 0. -1.
          6    1    1    2  501    0 -0.44695810484E+02 -0.15621715250E+03  0.67746922432E+03  0.71760021190E+03  0.17200000000E+03 0.  1.
         -6    1    1    2    0  503  0.44695810484E+02  0.15621715250E+03  0.28424320952E+03  0.36983741883E+03  0.17200000000E+03 0.  1.
</event>
<event>
 4    1  0.4386646E+000  0.1884884E+03  0.7818608E-02  0.1159832E+00
         21   -1    0    0  503  502  0.00000000000E+00  0.00000000000E+00  0.49441832233E+02  0.49441832233E+02  0.00000000000E+00 0. -1.
         21   -1    0    0  501  503 -0.00000000000E+00 -0.00000000000E+00 -0.85661720159E+03  0.85661720159E+03  0.00000000000E+00 0. -1.
          6    1    1    2  501    0 -0.76519880603E+02  0.94125379271E+01 -0.58544548523E+03  0.61504008339E+03  0.17200000000E+03 0. -1.
         -6    1    1    2    0  502  0.76519880603E+02 -0.94125379271E+01 -0.22172988413E+03  0.29101895044E+03  0.17200000000E+03 0. -1.
</event>
<event>
 4    1  0.4386646E+000  0.1819803E+03  0.7818608E-02  0.1165900E+00
         21   -1    0    0  503  502  0.00000000000E+00  0.00000000000E+00  0.11343135010E+03  0.11343135010E+03  0.00000000000E+00 0. -1.
         21   -1    0    0  501  503 -0.00000000000E+00 -0.00000000000E+00 -0.45588837806E+03  0.45588837806E+03  0.00000000000E+00 0. -1.
          6    1    1    2  501    0  0.47698325667E+02 -0.35464214924E+02 -0.52959276407E+00  0.18198110144E+03  0.17200000000E+03 0. -1.
         -6    1    1    2    0  502 -0.47698325667E+02  0.35464214924E+02 -0.34192743520E+03  0.38733862673E+03  0.17200000000E+03 0. -1.
</event>
<event>
 4    1  0.4386646E+000  0.1722057E+03  0.7818608E-02  0.1175567E+00
         21   -1    0    0  501  502  0.00000000000E+00  0.00000000000E+00  0.26080047694E+03  0.26080047694E+03  0.00000000000E+00 0. -1.
         21   -1    0    0  502  503 -0.00000000000E+00 -0.00000000000E+00 -0.16960348476E+03  0.16960348476E+03  0.00000000000E+00 0. -1.
          6    1    1    2  501    0  0.78751111086E+01  0.29653780277E+01  0.16914246782E+03  0.24137933893E+03  0.17200000000E+03 0. -1.
         -6    1    1    2    0  503 -0.78751111086E+01 -0.29653780277E+01 -0.77945475636E+02  0.18902462277E+03  0.17200000000E+03 0. -1.
</event>
<event>
 4    1  0.4386646E+000  0.1798360E+03  0.7818608E-02  0.1167962E+00
         21   -1    0    0  501  502  0.00000000000E+00  0.00000000000E+00  0.13234063989E+03  0.13234063989E+03  0.00000000000E+00 0. -1.
         21   -1    0    0  502  503 -0.00000000000E+00 -0.00000000000E+00 -0.25701155952E+03  0.25701155952E+03  0.00000000000E+00 0. -1.
          6    1    1    2  501    0 -0.30696425441E+02  0.42599431131E+02 -0.10549927264E+03  0.20849719086E+03  0.17200000000E+03 0.  1.
         -6    1    1    2    0  503  0.30696425441E+02 -0.42599431131E+02 -0.19171646983E+02  0.18085500854E+03  0.17200000000E+03 0.  1.
</event>
<event>
 4    1  0.4386646E+000  0.1781332E+03  0.7818608E-02  0.1169622E+00
         21   -1    0    0  501  502  0.00000000000E+00  0.00000000000E+00  0.99475057975E+02  0.99475057975E+02  0.00000000000E+00 0. -1.
         21   -1    0    0  502  503 -0.00000000000E+00 -0.00000000000E+00 -0.32057013361E+03  0.32057013361E+03  0.00000000000E+00 0. -1.
          6    1    1    2  501    0 -0.14956174038E+02 -0.43860729570E+02 -0.95797716955E+02  0.20225887697E+03  0.17200000000E+03 0. -1.
         -6    1    1    2    0  503  0.14956174038E+02  0.43860729570E+02 -0.12529735868E+03  0.21778631461E+03  0.17200000000E+03 0. -1.
</event>
<event>
 4    1  0.4386646E+000  0.2423741E+03  0.7818608E-02  0.1118221E+00
         21   -1    0    0  501  502  0.00000000000E+00  0.00000000000E+00  0.36842725126E+03  0.36842725126E+03  0.00000000000E+00 0.  1.
         21   -1    0    0  502  503 -0.00000000000E+00 -0.00000000000E+00 -0.25489956404E+03  0.25489956404E+03  0.00000000000E+00 0. -1.
          6    1    1    2  501    0  0.36775797729E+02 -0.16675947667E+03  0.24748180466E+03  0.34639922921E+03  0.17200000000E+03 0.  1.
         -6    1    1    2    0  503 -0.36775797729E+02  0.16675947667E+03 -0.13395411744E+03  0.27692758609E+03  0.17200000000E+03 0. -1.
</event>
<event>
 4    1  0.4386646E+000  0.2844397E+03  0.7818608E-02  0.1093288E+00
         21   -1    0    0  501  502  0.00000000000E+00  0.00000000000E+00  0.12637061279E+03  0.12637061279E+03  0.00000000000E+00 0.  1.
         21   -1    0    0  502  503 -0.00000000000E+00 -0.00000000000E+00 -0.69733542546E+03  0.69733542546E+03  0.00000000000E+00 0. -1.
          6    1    1    2  501    0  0.47135156603E+02 -0.22158566376E+03 -0.16762145380E+03  0.33015584372E+03  0.17200000000E+03 0.  1.
         -6    1    1    2    0  503 -0.47135156603E+02  0.22158566376E+03 -0.40334335887E+03  0.49355019452E+03  0.17200000000E+03 0.  1.
</event>
<event>
 4    1  0.4386646E+000  0.1806674E+03  0.7818608E-02  0.1167159E+00
         21   -1    0    0  501  502  0.00000000000E+00  0.00000000000E+00  0.47099186583E+03  0.47099186583E+03  0.00000000000E+00 0.  1.
         21   -1    0    0  502  503 -0.00000000000E+00 -0.00000000000E+00 -0.74920990600E+02  0.74920990600E+02  0.00000000000E+00 0.  1.
          6    1    1    2  501    0  0.43357435174E+02  0.34304992521E+02  0.27278677500E+03  0.32719004311E+03  0.17200000000E+03 0.  1.
         -6    1    1    2    0  503 -0.43357435174E+02 -0.34304992521E+02  0.12328410023E+03  0.21872281332E+03  0.17200000000E+03 0.  1.
</event>
<event>
 4    1  0.4386646E+000  0.1767366E+03  0.7818608E-02  0.1170999E+00
         21   -1    0    0  501  502  0.00000000000E+00  0.00000000000E+00  0.88036873182E+03  0.88036873182E+03  0.00000000000E+00 0. -1.
         21   -1    0    0  502  503 -0.00000000000E+00 -0.00000000000E+00 -0.40735040901E+02  0.40735040901E+02  0.00000000000E+00 0. -1.
          6    1    1    2  501    0 -0.26774275407E+02 -0.30576905835E+02  0.58522892332E+03  0.61133354373E+03  0.17200000000E+03 0. -1.
         -6    1    1    2    0  503  0.26774275407E+02  0.30576905835E+02  0.25440476760E+03  0.30977022899E+03  0.17200000000E+03 0. -1.
</event>
<event>
 4    1  0.4386646E+000  0.2659124E+03  0.7818608E-02  0.1103642E+00
         21   -1    0    0  501  502  0.00000000000E+00  0.00000000000E+00  0.12123836689E+04  0.12123836689E+04  0.00000000000E+00 0. -1.
         21   -1    0    0  502  503 -0.00000000000E+00 -0.00000000000E+00 -0.59642044900E+02  0.59642044900E+02  0.00000000000E+00 0. -1.
          6    1    1    2  501    0  0.37509712216E+02 -0.19929484417E+03  0.67096818240E+03  0.72173936793E+03  0.17200000000E+03 0. -1.
         -6    1    1    2    0  503 -0.37509712216E+02  0.19929484417E+03  0.48177344162E+03  0.55028634590E+03  0.17200000000E+03 0. -1.
</event>
<event>
 4    1  0.4386646E+000  0.2182810E+03  0.7818608E-02  0.1135171E+00
         21   -1    0    0  501  502  0.00000000000E+00  0.00000000000E+00  0.18703682089E+03  0.18703682089E+03  0.00000000000E+00 0.  1.
         21   -1    0    0  502  503 -0.00000000000E+00 -0.00000000000E+00 -0.25561292066E+03  0.25561292066E+03  0.00000000000E+00 0.  1.
          6    1    1    2  501    0 -0.50680789874E+02 -0.12447508882E+03 -0.21387183146E+02  0.21932624513E+03  0.17200000000E+03 0.  1.
         -6    1    1    2    0  503  0.50680789874E+02  0.12447508882E+03 -0.47188916622E+02  0.22332349642E+03  0.17200000000E+03 0.  1.
</event>
<event>
 4    1  0.4386646E+000  0.2397528E+03  0.7818608E-02  0.1119958E+00
         21   -1    0    0  503  502  0.00000000000E+00  0.00000000000E+00  0.33755488621E+04  0.33755488621E+04  0.00000000000E+00 0.  1.
         21   -1    0    0  501  503 -0.00000000000E+00 -0.00000000000E+00 -0.21866763146E+02  0.21866763146E+02  0.00000000000E+00 0.  1.
          6    1    1    2  501    0  0.15579750813E+03 -0.60204055681E+02  0.87781715415E+03  0.90996942145E+03  0.17200000000E+03 0.  1.
         -6    1    1    2    0  502 -0.15579750813E+03  0.60204055681E+02  0.24758649449E+04  0.24874462038E+04  0.17200000000E+03 0.  1.
</event>
<event>
 4    1  0.4386646E+000  0.1744014E+03  0.7818608E-02  0.1173334E+00
         21   -1    0    0  503  502  0.00000000000E+00  0.00000000000E+00  0.15314386797E+04  0.15314386797E+04  0.00000000000E+00 0.  1.
         21   -1    0    0  501  503 -0.00000000000E+00 -0.00000000000E+00 -0.23620973635E+02  0.23620973635E+02  0.00000000000E+00 0.  1.
          6    1    1    2  501    0  0.14473489441E+02  0.24947133029E+02  0.44369377085E+03  0.47673892607E+03  0.17200000000E+03 0.  1.
         -6    1    1    2    0  502 -0.14473489441E+02 -0.24947133029E+02  0.10641239352E+04  0.10783207273E+04  0.17200000000E+03 0.  1.
</event>
<event>
 4    1  0.4386646E+000  0.1814418E+03  0.7818608E-02  0.1166415E+00
         21   -1    0    0  501  502  0.00000000000E+00  0.00000000000E+00  0.11259272978E+03  0.11259272978E+03  0.00000000000E+00 0.  1.
         21   -1    0    0  502  503 -0.00000000000E+00 -0.00000000000E+00 -0.29278054682E+03  0.29278054682E+03  0.00000000000E+00 0.  1.
          6    1    1    2  501    0 -0.92474831501E+01  0.57023018827E+02 -0.82704037415E+02  0.19940185161E+03  0.17200000000E+03 0. -1.
         -6    1    1    2    0  503  0.92474831501E+01 -0.57023018827E+02 -0.97483779621E+02  0.20597142498E+03  0.17200000000E+03 0. -1.
</event>
<event>
 4    1  0.4386646E+000  0.2403328E+03  0.7818608E-02  0.1119571E+00
         21   -1    0    0  501  502  0.00000000000E+00  0.00000000000E+00  0.30973024974E+03  0.30973024974E+03  0.00000000000E+00 0. -1.
         21   -1    0    0  502  503 -0.00000000000E+00 -0.00000000000E+00 -0.26017303286E+03  0.26017303286E+03  0.00000000000E+00 0.  1.
          6    1    1    2  501    0  0.70584584390E+02 -0.15229470037E+03  0.17642786203E+03  0.29813864193E+03  0.17200000000E+03 0. -1.
         -6    1    1    2    0  503 -0.70584584390E+02  0.15229470037E+03 -0.12687064515E+03  0.27176464066E+03  0.17200000000E+03 0.  1.
</event>
<event>
 4    1  0.4386646E+000  0.2497757E+03  0.7818608E-02  0.1113447E+00
         21   -1    0    0  501  502  0.00000000000E+00  0.00000000000E+00  0.23088627474E+04  0.23088627474E+04  0.00000000000E+00 0.  1.
         21   -1    0    0  502  503 -0.00000000000E+00 -0.00000000000E+00 -0.27150819069E+02  0.27150819069E+02  0.00000000000E+00 0.  1.
          6    1    1    2  501    0  0.94213974110E+02 -0.15468559021E+03  0.10601077412E+04  0.10891355874E+04  0.17200000000E+03 0.  1.
         -6    1    1    2    0  503 -0.94213974110E+02  0.15468559021E+03  0.12216041871E+04  0.12468779791E+04  0.17200000000E+03 0.  1.
</event>
<event>
 4    1  0.4386646E+000  0.2176534E+03  0.7818608E-02  0.1135645E+00
         21   -1    0    0  503  502  0.00000000000E+00  0.00000000000E+00  0.14758912772E+03  0.14758912772E+03  0.00000000000E+00 0. -1.
         21   -1    0    0  501  503 -0.00000000000E+00 -0.00000000000E+00 -0.36175749052E+03  0.36175749052E+03  0.00000000000E+00 0.  1.
          6    1    1    2  501    0  0.12386794892E+03 -0.49454456135E+02 -0.19258892095E+03  0.29062605608E+03  0.17200000000E+03 0.  1.
         -6    1    1    2    0  502 -0.12386794892E+03  0.49454456135E+02 -0.21579441858E+02  0.21872056216E+03  0.17200000000E+03 0. -1.
</event>
<event>
 4    1  0.4386646E+000  0.1881344E+03  0.7818608E-02  0.1160155E+00
         21   -1    0    0  503  502  0.00000000000E+00  0.00000000000E+00  0.65339052657E+03  0.65339052657E+03  0.00000000000E+00 0. -1.
         21   -1    0    0  501  503 -0.00000000000E+00 -0.00000000000E+00 -0.63798641717E+02  0.63798641717E+02  0.00000000000E+00 0. -1.
          6    1    1    2  501    0  0.75256173074E+02  0.12126271050E+02  0.15549064199E+03  0.24407350897E+03  0.17200000000E+03 0. -1.
         -6    1    1    2    0  502 -0.75256173074E+02 -0.12126271050E+02  0.43410124286E+03  0.47311565931E+03  0.17200000000E+03 0. -1.
</event>
<event>
 4    1  0.4386646E+000  0.1859127E+03  0.7818608E-02  0.1162200E+00
         21   -1    0    0  501  502  0.00000000000E+00  0.00000000000E+00  0.12637433034E+03  0.12637433034E+03  0.00000000000E+00 0. -1.
         21   -1    0    0  502  503 -0.00000000000E+00 -0.00000000000E+00 -0.29308559678E+03  0.29308559678E+03  0.00000000000E+00 0. -1.
          6    1    1    2  501    0 -0.37748362070E+02 -0.59620291278E+02 -0.13757063619E+03  0.23127731820E+03  0.17200000000E+03 0.  1.
         -6    1    1    2    0  503  0.37748362070E+02  0.59620291278E+02 -0.29140630249E+02  0.18818260893E+03  0.17200000000E+03 0.  1.
</event>
<event>
 4    1  0.4386646E+000  0.1965661E+03  0.7818608E-02  0.1152669E+00
         21   -1    0    0  503  502  0.00000000000E+00  0.00000000000E+00  0.12099292460E+04  0.12099292460E+04  0.00000000000E+00 0.  1.
         21   -1    0    0  501  503 -0.00000000000E+00 -0.00000000000E+00 -0.41745920621E+02  0.41745920621E+02  0.00000000000E+00 0.  1.
          6    1    1    2  501    0  0.47957412443E+02  0.82184624352E+02  0.28068485930E+03  0.34266925180E+03  0.17200000000E+03 0.  1.
         -6    1    1    2    0  502 -0.47957412443E+02 -0.82184624352E+02  0.88749846606E+03  0.90900591480E+03  0.17200000000E+03 0.  1.
</event>
<event>
 4    1  0.4386646E+000  0.2974004E+03  0.7818608E-02  0.1086547E+00
         21   -1    0    0  501  502  0.00000000000E+00  0.00000000000E+00  0.68431150444E+03  0.68431150444E+03  0.00000000000E+00 0.  1.
         21   -1    0    0  502  503 -0.00000000000E+00 -0.00000000000E+00 -0.15200900174E+03  0.15200900174E+03  0.00000000000E+00 0. -1.
          6    1    1    2  501    0  0.24099486848E+03  0.28008650063E+02  0.42795485814E+03  0.52114525011E+03  0.17200000000E+03 0.  1.
         -6    1    1    2    0  503 -0.24099486848E+03 -0.28008650063E+02  0.10434764456E+03  0.31517525607E+03  0.17200000000E+03 0. -1.
</event>
<event>
 4    1  0.4386646E+000  0.2942298E+03  0.7818608E-02  0.1088161E+00
         21   -1    0    0  503  502  0.00000000000E+00  0.00000000000E+00  0.85898725157E+03  0.85898725157E+03  0.00000000000E+00 0.  1.
         21   -1    0    0  501  503 -0.00000000000E+00 -0.00000000000E+00 -0.19021387287E+03  0.19021387287E+03  0.00000000000E+00 0. -1.
          6    1    1    2  501    0  0.21837342106E+03 -0.96437797596E+02 -0.25322646829E+02  0.29531751772E+03  0.17200000000E+03 0.  1.
         -6    1    1    2    0  502 -0.21837342106E+03  0.96437797596E+02  0.69409602553E+03  0.75388360672E+03  0.17200000000E+03 0.  1.
</event>
<event>
 4    1  0.4386646E+000  0.1739666E+03  0.7818608E-02  0.1173773E+00
         21   -1    0    0  503  502  0.00000000000E+00  0.00000000000E+00  0.14731020669E+04  0.14731020669E+04  0.00000000000E+00 0. -1.
         21   -1    0    0  501  503 -0.00000000000E+00 -0.00000000000E+00 -0.16276941260E+03  0.16276941260E+03  0.00000000000E+00 0. -1.
          6    1    1    2  501    0 -0.11996721141E+02 -0.23161506296E+02 -0.10940918638E+03  0.20551094072E+03  0.17200000000E+03 0. -1.
         -6    1    1    2    0  502  0.11996721141E+02  0.23161506296E+02  0.14197418407E+04  0.14303605388E+04  0.17200000000E+03 0. -1.
</event>
<event>
 4    1  0.4386646E+000  0.2122400E+03  0.7818608E-02  0.1139804E+00
         21   -1    0    0  503  502  0.00000000000E+00  0.00000000000E+00  0.78732130398E+02  0.78732130398E+02  0.00000000000E+00 0. -1.
         21   -1    0    0  501  503 -0.00000000000E+00 -0.00000000000E+00 -0.57484058048E+03  0.57484058048E+03  0.00000000000E+00 0. -1.
          6    1    1    2  501    0 -0.11279983857E+03  0.52326151071E+02 -0.27045121092E+03  0.34378727021E+03  0.17200000000E+03 0. -1.
         -6    1    1    2    0  502  0.11279983857E+03 -0.52326151071E+02 -0.22565723916E+03  0.30978544067E+03  0.17200000000E+03 0. -1.
</event>
<event>
 4    1  0.4386646E+000  0.2542586E+03  0.7818608E-02  0.1110643E+00
         21   -1    0    0  503  502  0.00000000000E+00  0.00000000000E+00  0.90664796359E+03  0.90664796359E+03  0.00000000000E+00 0.  1.
         21   -1    0    0  501  503 -0.00000000000E+00 -0.00000000000E+00 -0.27057253840E+03  0.27057253840E+03  0.00000000000E+00 0. -1.
          6    1    1    2  501    0  0.10769913047E+03  0.15318077251E+03 -0.18709505392E+03  0.31567706754E+03  0.17200000000E+03 0. -1.
         -6    1    1    2    0  502 -0.10769913047E+03 -0.15318077251E+03  0.82317047911E+03  0.86154343445E+03  0.17200000000E+03 0.  1.
</event>
<event>
 4    1  0.4386646E+000  0.2037757E+03  0.7818608E-02  0.1146592E+00
         21   -1    0    0  503  502  0.00000000000E+00  0.00000000000E+00  0.16213839787E+03  0.16213839787E+03  0.00000000000E+00 0. -1.
         21   -1    0    0  501  503 -0.00000000000E+00 -0.00000000000E+00 -0.26809639315E+03  0.26809639315E+03  0.00000000000E+00 0. -1.
          6    1    1    2  501    0  0.99609578368E+02  0.44927549343E+02 -0.98472971708E+02  0.22632162722E+03  0.17200000000E+03 0. -1.
         -6    1    1    2    0  502 -0.99609578368E+02 -0.44927549343E+02 -0.74850235757E+01  0.20391316380E+03  0.17200000000E+03 0. -1.
</event>
<event>
 4    1  0.4386646E+000  0.1999755E+03  0.7818608E-02  0.1149760E+00
         21   -1    0    0  501  502  0.00000000000E+00  0.00000000000E+00  0.32399244928E+03  0.32399244928E+03  0.00000000000E+00 0.  1.
         21   -1    0    0  502  503 -0.00000000000E+00 -0.00000000000E+00 -0.27951412286E+03  0.27951412286E+03  0.00000000000E+00 0.  1.
          6    1    1    2  501    0  0.97232131146E+02  0.30856546511E+02  0.24773069786E+03  0.31837197184E+03  0.17200000000E+03 0.  1.
         -6    1    1    2    0  503 -0.97232131146E+02 -0.30856546511E+02 -0.20325237144E+03  0.28513460030E+03  0.17200000000E+03 0.  1.
</event>
<event>
 4    1  0.4386646E+000  0.2033452E+03  0.7818608E-02  0.1146947E+00
         21   -1    0    0  503  502  0.00000000000E+00  0.00000000000E+00  0.14322919503E+03  0.14322919503E+03  0.00000000000E+00 0. -1.
         21   -1    0    0  501  503 -0.00000000000E+00 -0.00000000000E+00 -0.28912755115E+03  0.28912755115E+03  0.00000000000E+00 0. -1.
          6    1    1    2  501    0 -0.10814838894E+03 -0.83173260372E+01 -0.64567383959E+02  0.21334994496E+03  0.17200000000E+03 0. -1.
         -6    1    1    2    0  502  0.10814838894E+03  0.83173260372E+01 -0.81330972161E+02  0.21900680121E+03  0.17200000000E+03 0. -1.
</event>
<event>
 4    1  0.4386646E+000  0.1906217E+03  0.7818608E-02  0.1157902E+00
         21   -1    0    0  501  502  0.00000000000E+00  0.00000000000E+00  0.69679044223E+03  0.69679044223E+03  0.00000000000E+00 0.  1.
         21   -1    0    0  502  503 -0.00000000000E+00 -0.00000000000E+00 -0.94558459879E+02  0.94558459879E+02  0.00000000000E+00 0.  1.
          6    1    1    2  501    0 -0.71008213920E+02  0.41357827977E+02  0.56610099902E+03  0.59733322146E+03  0.17200000000E+03 0.  1.
         -6    1    1    2    0  503  0.71008213920E+02 -0.41357827977E+02  0.36130983336E+02  0.19401568064E+03  0.17200000000E+03 0.  1.
</event>
<event>
 4    1  0.4386646E+000  0.1780978E+03  0.7818608E-02  0.1169657E+00
         21   -1    0    0  503  502  0.00000000000E+00  0.00000000000E+00  0.52778589385E+03  0.52778589385E+03  0.00000000000E+00 0.  1.
         21   -1    0    0  501  503 -0.00000000000E+00 -0.00000000000E+00 -0.99760404542E+02  0.99760404542E+02  0.00000000000E+00 0.  1.
          6    1    1    2  501    0 -0.13310404435E+02  0.44245634706E+02  0.16167077251E+02  0.17883013573E+03  0.17200000000E+03 0.  1.
         -6    1    1    2    0  502  0.13310404435E+02 -0.44245634706E+02  0.41185841206E+03  0.44871616267E+03  0.17200000000E+03 0.  1.
</event>
<event>
 4    1  0.4386646E+000  0.1770923E+03  0.7818608E-02  0.1170647E+00
         21   -1    0    0  501  502  0.00000000000E+00  0.00000000000E+00  0.12314371689E+03  0.12314371689E+03  0.00000000000E+00 0. -1.
         21   -1    0    0  502  503 -0.00000000000E+00 -0.00000000000E+00 -0.25476637152E+03  0.25476637152E+03  0.00000000000E+00 0. -1.
          6    1    1    2  501    0 -0.22158020997E+02 -0.35870770013E+02 -0.62243075927E+02  0.18771225463E+03  0.17200000000E+03 0. -1.
         -6    1    1    2    0  503  0.22158020997E+02  0.35870770013E+02 -0.69379578704E+02  0.19019783379E+03  0.17200000000E+03 0. -1.
</event>
<event>
 4    1  0.4386646E+000  0.1771969E+03  0.7818608E-02  0.1170544E+00
         21   -1    0    0  503  502  0.00000000000E+00  0.00000000000E+00  0.29454754122E+02  0.29454754122E+02  0.00000000000E+00 0.  1.
         21   -1    0    0  501  503 -0.00000000000E+00 -0.00000000000E+00 -0.12002793803E+04  0.12002793803E+04  0.00000000000E+00 0.  1.
          6    1    1    2  501    0 -0.21033995511E+02 -0.37044749371E+02 -0.79107055666E+03  0.81067340405E+03  0.17200000000E+03 0.  1.
         -6    1    1    2    0  502  0.21033995511E+02  0.37044749371E+02 -0.37975406953E+03  0.41906073038E+03  0.17200000000E+03 0.  1.
</event>
<event>
 4    1  0.4386646E+000  0.1947666E+03  0.7818608E-02  0.1154231E+00
         21   -1    0    0  503  502  0.00000000000E+00  0.00000000000E+00  0.15835248343E+03  0.15835248343E+03  0.00000000000E+00 0.  1.
         21   -1    0    0  501  503 -0.00000000000E+00 -0.00000000000E+00 -0.43596909061E+03  0.43596909061E+03  0.00000000000E+00 0.  1.
          6    1    1    2  501    0 -0.72405540199E+02 -0.55744528703E+02 -0.33826598636E+03  0.39033049107E+03  0.17200000000E+03 0.  1.
         -6    1    1    2    0  502  0.72405540199E+02  0.55744528703E+02  0.60649379185E+02  0.20399108296E+03  0.17200000000E+03 0.  1.
</event>
<event>
 4    1  0.4386646E+000  0.1747524E+03  0.7818608E-02  0.1172981E+00
         21   -1    0    0  501  502  0.00000000000E+00  0.00000000000E+00  0.36817202214E+03  0.36817202214E+03  0.00000000000E+00 0.  1.
         21   -1    0    0  502  503 -0.00000000000E+00 -0.00000000000E+00 -0.96789208795E+02  0.96789208795E+02  0.00000000000E+00 0.  1.
          6    1    1    2  501    0  0.29292492012E+02  0.98151493321E+01  0.22361229308E+03  0.28379718966E+03  0.17200000000E+03 0.  1.
         -6    1    1    2    0  503 -0.29292492012E+02 -0.98151493321E+01  0.47770520271E+02  0.18116404128E+03  0.17200000000E+03 0.  1.
</event>
<event>
 4    1  0.4386646E+000  0.2086582E+03  0.7818608E-02  0.1142633E+00
         21   -1    0    0  503  502  0.00000000000E+00  0.00000000000E+00  0.23431673761E+03  0.23431673761E+03  0.00000000000E+00 0.  1.
         21   -1    0    0  501  503 -0.00000000000E+00 -0.00000000000E+00 -0.24951366716E+03  0.24951366716E+03  0.00000000000E+00 0. -1.
          6    1    1    2  501    0  0.63864728573E+02  0.99375781689E+02 -0.12983479285E+03  0.24575459910E+03  0.17200000000E+03 0. -1.
         -6    1    1    2    0  502 -0.63864728573E+02 -0.99375781689E+02  0.11463786331E+03  0.23807580567E+03  0.17200000000E+03 0.  1.
</event>
<event>
 4    1  0.4386646E+000  0.2027653E+03  0.7818608E-02  0.1147427E+00
         21   -1    0    0  501  502  0.00000000000E+00  0.00000000000E+00  0.11260348398E+03  0.11260348398E+03  0.00000000000E+00 0. -1.
         21   -1    0    0  502  503 -0.00000000000E+00 -0.00000000000E+00 -0.81942988005E+03  0.81942988005E+03  0.00000000000E+00 0. -1.
          6    1    1    2  501    0  0.13911619921E+02 -0.10647166589E+03 -0.64193254518E+01  0.20286684437E+03  0.17200000000E+03 0. -1.
         -6    1    1    2    0  503 -0.13911619921E+02  0.10647166589E+03 -0.70040707062E+03  0.72916651965E+03  0.17200000000E+03 0. -1.
</event>
<event>
 4    1  0.4386646E+000  0.2423467E+03  0.7818608E-02  0.1118239E+00
         21   -1    0    0  503  502  0.00000000000E+00  0.00000000000E+00  0.78619583097E+02  0.78619583097E+02  0.00000000000E+00 0.  1.
         21   -1    0    0  501  503 -0.00000000000E+00 -0.00000000000E+00 -0.96491190571E+03  0.96491190571E+03  0.00000000000E+00 0. -1.
          6    1    1    2  501    0 -0.59346163861E+02 -0.16008107979E+03 -0.69107841725E+03  0.73233960569E+03  0.17200000000E+03 0. -1.
         -6    1    1    2    0  502  0.59346163861E+02  0.16008107979E+03 -0.19521390536E+03  0.31119188312E+03  0.17200000000E+03 0.  1.
</event>
<event>
 4    1  0.4386646E+000  0.2061679E+03  0.7818608E-02  0.1144637E+00
         21   -1    0    0  501  502  0.00000000000E+00  0.00000000000E+00  0.75398532418E+02  0.75398532418E+02  0.00000000000E+00 0. -1.
         21   -1    0    0  502  503 -0.00000000000E+00 -0.00000000000E+00 -0.65614852737E+03  0.65614852737E+03  0.00000000000E+00 0. -1.
          6    1    1    2  501    0 -0.10131811186E+03 -0.51534830897E+02 -0.15310795190E+03  0.25680195389E+03  0.17200000000E+03 0. -1.
         -6    1    1    2    0  503  0.10131811186E+03  0.51534830897E+02 -0.42764204306E+03  0.47474510590E+03  0.17200000000E+03 0. -1.
</event>
<event>
 4    1  0.4386646E+000  0.2983703E+03  0.7818608E-02  0.1086058E+00
         21   -1    0    0  501  502  0.00000000000E+00  0.00000000000E+00  0.31079762191E+03  0.31079762191E+03  0.00000000000E+00 0.  1.
         21   -1    0    0  502  503 -0.00000000000E+00 -0.00000000000E+00 -0.28650678177E+03  0.28650678177E+03  0.00000000000E+00 0. -1.
          6    1    1    2  501    0 -0.17432350762E+03 -0.17044699442E+03  0.16705860485E+02  0.29883766327E+03  0.17200000000E+03 0. -1.
         -6    1    1    2    0  503  0.17432350762E+03  0.17044699442E+03  0.75849796517E+01  0.29846674041E+03  0.17200000000E+03 0.  1.
</event>
<event>
 4    1  0.4386646E+000  0.2772826E+03  0.7818608E-02  0.1097182E+00
         21   -1    0    0  501  502  0.00000000000E+00  0.00000000000E+00  0.31897268588E+03  0.31897268588E+03  0.00000000000E+00 0.  1.
         21   -1    0    0  502  503 -0.00000000000E+00 -0.00000000000E+00 -0.37729293338E+03  0.37729293338E+03  0.00000000000E+00 0. -1.
          6    1    1    2  501    0  0.11173157072E+03 -0.18659502248E+03  0.18004687118E+03  0.33060931948E+03  0.17200000000E+03 0.  1.
         -6    1    1    2    0  503 -0.11173157072E+03  0.18659502248E+03 -0.23836711867E+03  0.36565629978E+03  0.17200000000E+03 0. -1.
</event>
<event>
 4    1  0.4386646E+000  0.2221018E+03  0.7818608E-02  0.1132326E+00
         21   -1    0    0  503  502  0.00000000000E+00  0.00000000000E+00  0.37741084573E+03  0.37741084573E+03  0.00000000000E+00 0. -1.
         21   -1    0    0  501  503 -0.00000000000E+00 -0.00000000000E+00 -0.14331474844E+03  0.14331474844E+03  0.00000000000E+00 0. -1.
          6    1    1    2  501    0  0.10989006126E+03 -0.87575018754E+02  0.39815698630E+02  0.22564241474E+03  0.17200000000E+03 0. -1.
         -6    1    1    2    0  502 -0.10989006126E+03  0.87575018754E+02  0.19428039866E+03  0.29508317942E+03  0.17200000000E+03 0. -1.
</event>
<event>
 4    1  0.4386646E+000  0.1722296E+03  0.7818608E-02  0.1175542E+00
         21   -1    0    0  503  502  0.00000000000E+00  0.00000000000E+00  0.53787893959E+02  0.53787893959E+02  0.00000000000E+00 0.  1.
         21   -1    0    0  501  503 -0.00000000000E+00 -0.00000000000E+00 -0.67405307215E+03  0.67405307215E+03  0.00000000000E+00 0.  1.
          6    1    1    2  501    0 -0.61519043507E+01 -0.64185482614E+01 -0.46531905044E+03  0.49617019499E+03  0.17200000000E+03 0.  1.
         -6    1    1    2    0  502  0.61519043507E+01  0.64185482614E+01 -0.15494612775E+03  0.23167077113E+03  0.17200000000E+03 0.  1.
</event>
<event>
 4    1  0.4386646E+000  0.1758512E+03  0.7818608E-02  0.1171880E+00
         21   -1    0    0  503  502  0.00000000000E+00  0.00000000000E+00  0.15402440606E+03  0.15402440606E+03  0.00000000000E+00 0.  1.
         21   -1    0    0  501  503 -0.00000000000E+00 -0.00000000000E+00 -0.20101164541E+03  0.20101164541E+03  0.00000000000E+00 0.  1.
          6    1    1    2  501    0  0.32604713278E+02 -0.16630099623E+02 -0.17350929054E+02  0.17670507146E+03  0.17200000000E+03 0.  1.
         -6    1    1    2    0  502 -0.32604713278E+02  0.16630099623E+02 -0.29636310291E+02  0.17833098000E+03  0.17200000000E+03 0.  1.
</event>
<event>
 4    1  0.4386646E+000  0.2057498E+03  0.7818608E-02  0.1144977E+00
         21   -1    0    0  501  502  0.00000000000E+00  0.00000000000E+00  0.10648072596E+03  0.10648072596E+03  0.00000000000E+00 0.  1.
         21   -1    0    0  502  503 -0.00000000000E+00 -0.00000000000E+00 -0.40796862937E+03  0.40796862937E+03  0.00000000000E+00 0. -1.
          6    1    1    2  501    0  0.72856949702E+02  0.86260448989E+02 -0.10966743846E+03  0.23315219759E+03  0.17200000000E+03 0.  1.
         -6    1    1    2    0  503 -0.72856949702E+02 -0.86260448989E+02 -0.19182046496E+03  0.28129715774E+03  0.17200000000E+03 0. -1.
</event>
<event>
 4    1  0.4386646E+000  0.2293367E+03  0.7818608E-02  0.1127107E+00
         21   -1    0    0  501  502  0.00000000000E+00  0.00000000000E+00  0.17050574216E+04  0.17050574216E+04  0.00000000000E+00 0.  1.
         21   -1    0    0  502  503 -0.00000000000E+00 -0.00000000000E+00 -0.32725627722E+02  0.32725627722E+02  0.00000000000E+00 0. -1.
          6    1    1    2  501    0 -0.25708982107E+02  0.14950047143E+03  0.10443656131E+04  0.10692496793E+04  0.17200000000E+03 0.  1.
         -6    1    1    2    0  503  0.25708982107E+02 -0.14950047143E+03  0.62796618076E+03  0.66853337006E+03  0.17200000000E+03 0. -1.
</event>
<event>
 4    1  0.4386646E+000  0.2165393E+03  0.7818608E-02  0.1136490E+00
         21   -1    0    0  503  502  0.00000000000E+00  0.00000000000E+00  0.10776912718E+04  0.10776912718E+04  0.00000000000E+00 0. -1.
         21   -1    0    0  501  503 -0.00000000000E+00 -0.00000000000E+00 -0.43955441668E+03  0.43955441668E+03  0.00000000000E+00 0.  1.
          6    1    1    2  501    0 -0.18042029346E+02 -0.13030630325E+03 -0.40103039255E+03  0.45575719768E+03  0.17200000000E+03 0.  1.
         -6    1    1    2    0  502  0.18042029346E+02  0.13030630325E+03  0.10391672477E+04  0.10614884908E+04  0.17200000000E+03 0. -1.
</event>
<event>
 4    1  0.4386646E+000  0.2249657E+03  0.7818608E-02  0.1130234E+00
         21   -1    0    0  503  502  0.00000000000E+00  0.00000000000E+00  0.10874396933E+03  0.10874396933E+03  0.00000000000E+00 0.  1.
         21   -1    0    0  501  503 -0.00000000000E+00 -0.00000000000E+00 -0.60082448538E+03  0.60082448538E+03  0.00000000000E+00 0.  1.
          6    1    1    2  501    0  0.10764378405E+03 -0.97151250911E+02 -0.41447726650E+03  0.47159405663E+03  0.17200000000E+03 0.  1.
         -6    1    1    2    0  502 -0.10764378405E+03  0.97151250911E+02 -0.77603249551E+02  0.23797439808E+03  0.17200000000E+03 0.  1.
</event>
<event>
 4    1  0.4386646E+000  0.2052334E+03  0.7818608E-02  0.1145397E+00
         21   -1    0    0  501  502  0.00000000000E+00  0.00000000000E+00  0.27645139733E+03  0.27645139733E+03  0.00000000000E+00 0.  1.
         21   -1    0    0  502  503 -0.00000000000E+00 -0.00000000000E+00 -0.29609571357E+03  0.29609571357E+03  0.00000000000E+00 0.  1.
          6    1    1    2  501    0  0.21641243503E+02 -0.10985634016E+03  0.18963246462E+03  0.27943018901E+03  0.17200000000E+03 0.  1.
         -6    1    1    2    0  503 -0.21641243503E+02  0.10985634016E+03 -0.20927678085E+03  0.29311692189E+03  0.17200000000E+03 0.  1.
</event>
<event>
 4    1  0.4386646E+000  0.1854110E+03  0.7818608E-02  0.1162667E+00
         21   -1    0    0  503  502  0.00000000000E+00  0.00000000000E+00  0.16806252559E+03  0.16806252559E+03  0.00000000000E+00 0. -1.
         21   -1    0    0  501  503 -0.00000000000E+00 -0.00000000000E+00 -0.21103647071E+03  0.21103647071E+03  0.00000000000E+00 0. -1.
          6    1    1    2  501    0  0.52856277930E+02  0.44715357647E+02  0.11743476968E+02  0.18578255725E+03  0.17200000000E+03 0. -1.
         -6    1    1    2    0  502 -0.52856277930E+02 -0.44715357647E+02 -0.54717422090E+02  0.19331643905E+03  0.17200000000E+03 0. -1.
</event>
<event>
 4    1  0.4386646E+000  0.3221391E+03  0.7818608E-02  0.1074669E+00
         21   -1    0    0  503  502  0.00000000000E+00  0.00000000000E+00  0.50595848906E+03  0.50595848906E+03  0.00000000000E+00 0.  1.
         21   -1    0    0  501  503 -0.00000000000E+00 -0.00000000000E+00 -0.31379458376E+03  0.31379458376E+03  0.00000000000E+00 0. -1.
          6    1    1    2  501    0 -0.14743567499E+03 -0.22902470437E+03  0.33731029694E+03  0.46642451682E+03  0.17200000000E+03 0.  1.
         -6    1    1    2    0  502  0.14743567499E+03  0.22902470437E+03 -0.14514639165E+03  0.35332855599E+03  0.17200000000E+03 0. -1.
</event>
<event>
 4    1  0.4386646E+000  0.2032833E+03  0.7818608E-02  0.1146998E+00
         21   -1    0    0  501  502  0.00000000000E+00  0.00000000000E+00  0.11955412271E+04  0.11955412271E+04  0.00000000000E+00 0. -1.
         21   -1    0    0  502  503 -0.00000000000E+00 -0.00000000000E+00 -0.35495722739E+02  0.35495722739E+02  0.00000000000E+00 0. -1.
          6    1    1    2  501    0 -0.99737805669E+02  0.42337531927E+02  0.67968288976E+03  0.70943141115E+03  0.17200000000E+03 0.  1.
         -6    1    1    2    0  503  0.99737805669E+02 -0.42337531927E+02  0.48036261462E+03  0.52160553871E+03  0.17200000000E+03 0.  1.
</event>
<event>
 4    1  0.4386646E+000  0.2039151E+03  0.7818608E-02  0.1146477E+00
         21   -1    0    0  501  502  0.00000000000E+00  0.00000000000E+00  0.52267271889E+02  0.52267271889E+02  0.00000000000E+00 0. -1.
         21   -1    0    0  502  503 -0.00000000000E+00 -0.00000000000E+00 -0.84272542366E+03  0.84272542366E+03  0.00000000000E+00 0. -1.
          6    1    1    2  501    0 -0.14658112051E+01  0.10952262809E+03 -0.50110402379E+03  0.54100517311E+03  0.17200000000E+03 0. -1.
         -6    1    1    2    0  503  0.14658112051E+01 -0.10952262809E+03 -0.28935412798E+03  0.35398752244E+03  0.17200000000E+03 0. -1.
</event>
<event>
 4    1  0.4386646E+000  0.3109472E+03  0.7818608E-02  0.1079893E+00
         21   -1    0    0  503  502  0.00000000000E+00  0.00000000000E+00  0.37337261179E+03  0.37337261179E+03  0.00000000000E+00 0. -1.
         21   -1    0    0  501  503 -0.00000000000E+00 -0.00000000000E+00 -0.38496856424E+03  0.38496856424E+03  0.00000000000E+00 0.  1.
          6    1    1    2  501    0 -0.24026753373E+03 -0.96828002118E+02 -0.22273015928E+03  0.38248774309E+03  0.17200000000E+03 0.  1.
         -6    1    1    2    0  502  0.24026753373E+03  0.96828002118E+02  0.21113420682E+03  0.37585343294E+03  0.17200000000E+03 0. -1.
</event>
<event>
 4    1  0.4386646E+000  0.2317643E+03  0.7818608E-02  0.1125404E+00
         21   -1    0    0  501  502  0.00000000000E+00  0.00000000000E+00  0.45028243062E+02  0.45028243062E+02  0.00000000000E+00 0.  1.
         21   -1    0    0  502  503 -0.00000000000E+00 -0.00000000000E+00 -0.13119254289E+04  0.13119254289E+04  0.00000000000E+00 0. -1.
          6    1    1    2  501    0 -0.11841796075E+03  0.10053794552E+03 -0.42909605428E+03  0.48768649327E+03  0.17200000000E+03 0.  1.
         -6    1    1    2    0  503  0.11841796075E+03 -0.10053794552E+03 -0.83780113160E+03  0.86926717873E+03  0.17200000000E+03 0. -1.
</event>
<event>
 4    1  0.4386646E+000  0.1964954E+03  0.7818608E-02  0.1152730E+00
         21   -1    0    0  501  502  0.00000000000E+00  0.00000000000E+00  0.94525755053E+02  0.94525755053E+02  0.00000000000E+00 0. -1.
         21   -1    0    0  502  503 -0.00000000000E+00 -0.00000000000E+00 -0.40911048445E+03  0.40911048445E+03  0.00000000000E+00 0. -1.
          6    1    1    2  501    0 -0.92230798275E+02 -0.22801911432E+02 -0.14728859392E+03  0.24556949569E+03  0.17200000000E+03 0. -1.
         -6    1    1    2    0  503  0.92230798275E+02  0.22801911432E+02 -0.16729613548E+03  0.25806674381E+03  0.17200000000E+03 0. -1.
</event>
<event>
 4    1  0.4386646E+000  0.1937105E+03  0.7818608E-02  0.1155157E+00
         21   -1    0    0  503  502  0.00000000000E+00  0.00000000000E+00  0.44091311611E+03  0.44091311611E+03  0.00000000000E+00 0. -1.
         21   -1    0    0  501  503 -0.00000000000E+00 -0.00000000000E+00 -0.13102899729E+03  0.13102899729E+03  0.00000000000E+00 0. -1.
          6    1    1    2  501    0  0.48701148457E+02  0.74618609787E+02 -0.14359148538E+02  0.19424192116E+03  0.17200000000E+03 0. -1.
         -6    1    1    2    0  502 -0.48701148457E+02 -0.74618609787E+02  0.32424326737E+03  0.37770019224E+03  0.17200000000E+03 0. -1.
</event>
<event>
 4    1  0.4386646E+000  0.1931189E+03  0.7818608E-02  0.1155678E+00
         21   -1    0    0  501  502  0.00000000000E+00  0.00000000000E+00  0.59765319128E+03  0.59765319128E+03  0.00000000000E+00 0. -1.
         21   -1    0    0  502  503 -0.00000000000E+00 -0.00000000000E+00 -0.10895321420E+03  0.10895321420E+03  0.00000000000E+00 0.  1.
          6    1    1    2  501    0  0.35822079506E+02  0.80172851275E+02  0.47528610769E+03  0.51302221358E+03  0.17200000000E+03 0. -1.
         -6    1    1    2    0  503 -0.35822079506E+02 -0.80172851275E+02  0.13413869390E+02  0.19358419190E+03  0.17200000000E+03 0.  1.
</event>
<event>
 4    1  0.4386646E+000  0.2293338E+03  0.7818608E-02  0.1127110E+00
         21   -1    0    0  503  502  0.00000000000E+00  0.00000000000E+00  0.34449089203E+03  0.34449089203E+03  0.00000000000E+00 0. -1.
         21   -1    0    0  501  503 -0.00000000000E+00 -0.00000000000E+00 -0.17845355927E+03  0.17845355927E+03  0.00000000000E+00 0.  1.
          6    1    1    2  501    0  0.77306030625E+02  0.13051344241E+03  0.18240365324E+03  0.29302742830E+03  0.17200000000E+03 0. -1.
         -6    1    1    2    0  502 -0.77306030625E+02 -0.13051344241E+03 -0.16366320474E+02  0.22991702300E+03  0.17200000000E+03 0.  1.
</event>
<event>
 4    1  0.4386646E+000  0.2482150E+03  0.7818608E-02  0.1114438E+00
         21   -1    0    0  503  502  0.00000000000E+00  0.00000000000E+00  0.55820020797E+02  0.55820020797E+02  0.00000000000E+00 0.  1.
         21   -1    0    0  501  503 -0.00000000000E+00 -0.00000000000E+00 -0.12104953002E+04  0.12104953002E+04  0.00000000000E+00 0. -1.
          6    1    1    2  501    0  0.73652220731E+01  0.17880842213E+03 -0.76536816822E+03  0.80461116773E+03  0.17200000000E+03 0. -1.
         -6    1    1    2    0  502 -0.73652220731E+01 -0.17880842213E+03 -0.38930711118E+03  0.46170415326E+03  0.17200000000E+03 0.  1.
</event>
<event>
 4    1  0.4386646E+000  0.2344397E+03  0.7818608E-02  0.1123553E+00
         21   -1    0    0  501  502  0.00000000000E+00  0.00000000000E+00  0.88127836252E+02  0.88127836252E+02  0.00000000000E+00 0.  1.
         21   -1    0    0  502  503 -0.00000000000E+00 -0.00000000000E+00 -0.64091748129E+03  0.64091748129E+03  0.00000000000E+00 0. -1.
          6    1    1    2  501    0  0.14172135516E+03  0.72753156587E+02 -0.21658264360E+03  0.31917080978E+03  0.17200000000E+03 0. -1.
         -6    1    1    2    0  503 -0.14172135516E+03 -0.72753156587E+02 -0.33620700143E+03  0.40987450777E+03  0.17200000000E+03 0.  1.
</event>
<event>
 4    1  0.4386646E+000  0.2091430E+03  0.7818608E-02  0.1142246E+00
         21   -1    0    0  503  502  0.00000000000E+00  0.00000000000E+00  0.20599778691E+03  0.20599778691E+03  0.00000000000E+00 0. -1.
         21   -1    0    0  501  503 -0.00000000000E+00 -0.00000000000E+00 -0.39387066605E+03  0.39387066605E+03  0.00000000000E+00 0. -1.
          6    1    1    2  501    0  0.11159246161E+03 -0.41278355554E+02 -0.29756036068E+03  0.36370722893E+03  0.17200000000E+03 0. -1.
         -6    1    1    2    0  502 -0.11159246161E+03  0.41278355554E+02  0.10968748155E+03  0.23616122403E+03  0.17200000000E+03 0. -1.
</event>
<event>
 4    1  0.4386646E+000  0.1738276E+03  0.7818608E-02  0.1173914E+00
         21   -1    0    0  501  502  0.00000000000E+00  0.00000000000E+00  0.79930713835E+03  0.79930713835E+03  0.00000000000E+00 0.  1.
         21   -1    0    0  502  503 -0.00000000000E+00 -0.00000000000E+00 -0.39887197825E+03  0.39887197825E+03  0.00000000000E+00 0.  1.
          6    1    1    2  501    0  0.31198591836E+01  0.24946272268E+02  0.77021146155E+03  0.78958327333E+03  0.17200000000E+03 0.  1.
         -6    1    1    2    0  503 -0.31198591836E+01 -0.24946272268E+02 -0.36977630145E+03  0.40859584327E+03  0.17200000000E+03 0.  1.
</event>
<event>
 4    1  0.4386646E+000  0.1967631E+03  0.7818608E-02  0.1152499E+00
         21   -1    0    0  503  502  0.00000000000E+00  0.00000000000E+00  0.19710868024E+04  0.19710868024E+04  0.00000000000E+00 0. -1.
         21   -1    0    0  501  503 -0.00000000000E+00 -0.00000000000E+00 -0.25218505695E+02  0.25218505695E+02  0.00000000000E+00 0. -1.
          6    1    1    2  501    0 -0.75803568359E+02  0.58185510096E+02  0.50355334034E+03  0.54063083627E+03  0.17200000000E+03 0. -1.
         -6    1    1    2    0  502  0.75803568359E+02 -0.58185510096E+02  0.14423149564E+04  0.14556744718E+04  0.17200000000E+03 0. -1.
</event>
<event>
 4    1  0.4386646E+000  0.1960258E+03  0.7818608E-02  0.1153136E+00
         21   -1    0    0  503  502  0.00000000000E+00  0.00000000000E+00  0.24126486941E+03  0.24126486941E+03  0.00000000000E+00 0. -1.
         21   -1    0    0  501  503 -0.00000000000E+00 -0.00000000000E+00 -0.15928662579E+03  0.15928662579E+03  0.00000000000E+00 0.  1.
          6    1    1    2  501    0 -0.29870375181E+02  0.89162136610E+02  0.43068085707E+02  0.20070123548E+03  0.17200000000E+03 0.  1.
         -6    1    1    2    0  502  0.29870375181E+02 -0.89162136610E+02  0.38910157908E+02  0.19985025971E+03  0.17200000000E+03 0. -1.
</event>
<event>
 4    1  0.4386646E+000  0.2095337E+03  0.7818608E-02  0.1141936E+00
         21   -1    0    0  503  502  0.00000000000E+00  0.00000000000E+00  0.16834301684E+04  0.16834301684E+04  0.00000000000E+00 0. -1.
         21   -1    0    0  501  503 -0.00000000000E+00 -0.00000000000E+00 -0.78232723565E+02  0.78232723565E+02  0.00000000000E+00 0.  1.
          6    1    1    2  501    0 -0.11913916249E+03  0.11235365375E+02  0.83421689734E+02  0.22552949207E+03  0.17200000000E+03 0.  1.
         -6    1    1    2    0  502  0.11913916249E+03 -0.11235365375E+02  0.15217757551E+04  0.15361333999E+04  0.17200000000E+03 0. -1.
</event>
<event>
 4    1  0.4386646E+000  0.2447753E+03  0.7818608E-02  0.1116652E+00
         21   -1    0    0  503  502  0.00000000000E+00  0.00000000000E+00  0.45024709582E+02  0.45024709582E+02  0.00000000000E+00 0.  1.
         21   -1    0    0  501  503 -0.00000000000E+00 -0.00000000000E+00 -0.13720606178E+04  0.13720606178E+04  0.00000000000E+00 0.  1.
          6    1    1    2  501    0  0.11674016210E+03  0.12923888021E+03 -0.78651823145E+03  0.82372682487E+03  0.17200000000E+03 0.  1.
         -6    1    1    2    0  502 -0.11674016210E+03 -0.12923888021E+03 -0.54051767674E+03  0.59335850249E+03  0.17200000000E+03 0.  1.
</event>
<event>
 4    1  0.4386646E+000  0.1853221E+03  0.7818608E-02  0.1162749E+00
         21   -1    0    0  503  502  0.00000000000E+00  0.00000000000E+00  0.11174430469E+03  0.11174430469E+03  0.00000000000E+00 0. -1.
         21   -1    0    0  501  503 -0.00000000000E+00 -0.00000000000E+00 -0.51239096305E+03  0.51239096305E+03  0.00000000000E+00 0.  1.
          6    1    1    2  501    0 -0.26357660405E+02  0.63761701725E+02 -0.39773437646E+03  0.43879028600E+03  0.17200000000E+03 0.  1.
         -6    1    1    2    0  502  0.26357660405E+02 -0.63761701725E+02 -0.29122818947E+01  0.18534498174E+03  0.17200000000E+03 0. -1.
</event>
<event>
 4    1  0.4386646E+000  0.1734793E+03  0.7818608E-02  0.1174267E+00
         21   -1    0    0  503  502  0.00000000000E+00  0.00000000000E+00  0.88644900333E+02  0.88644900333E+02  0.00000000000E+00 0.  1.
         21   -1    0    0  501  503 -0.00000000000E+00 -0.00000000000E+00 -0.41706283905E+03  0.41706283905E+03  0.00000000000E+00 0.  1.
          6    1    1    2  501    0 -0.16980755388E+02  0.14923841119E+02 -0.27325046692E+03  0.32366786179E+03  0.17200000000E+03 0.  1.
         -6    1    1    2    0  502  0.16980755388E+02 -0.14923841119E+02 -0.55167471797E+02  0.18203987759E+03  0.17200000000E+03 0.  1.
</event>
<event>
 4    1  0.4386646E+000  0.1883206E+03  0.7818608E-02  0.1159985E+00
         21   -1    0    0  503  502  0.00000000000E+00  0.00000000000E+00  0.26768616835E+03  0.26768616835E+03  0.00000000000E+00 0.  1.
         21   -1    0    0  501  503 -0.00000000000E+00 -0.00000000000E+00 -0.13260450506E+03  0.13260450506E+03  0.00000000000E+00 0.  1.
          6    1    1    2  501    0 -0.71366503564E+02  0.28061886304E+02  0.73526161629E+02  0.20216513977E+03  0.17200000000E+03 0.  1.
         -6    1    1    2    0  502  0.71366503564E+02 -0.28061886304E+02  0.61555501659E+02  0.19812553364E+03  0.17200000000E+03 0.  1.
</event>
<event>
 4    1  0.4386646E+000  0.2305003E+03  0.7818608E-02  0.1126288E+00
         21   -1    0    0  503  502  0.00000000000E+00  0.00000000000E+00  0.89049617191E+02  0.89049617191E+02  0.00000000000E+00 0. -1.
         21   -1    0    0  501  503 -0.00000000000E+00 -0.00000000000E+00 -0.10678438157E+04  0.10678438157E+04  0.00000000000E+00 0. -1.
          6    1    1    2  501    0  0.11385551835E+03 -0.10287514531E+03 -0.87364797784E+03  0.90354367009E+03  0.17200000000E+03 0. -1.
         -6    1    1    2    0  502 -0.11385551835E+03  0.10287514531E+03 -0.10514622064E+03  0.25334976277E+03  0.17200000000E+03 0. -1.
</event>
<event>
 4    1  0.4386646E+000  0.2670002E+03  0.7818608E-02  0.1103009E+00
         21   -1    0    0  503  502  0.00000000000E+00  0.00000000000E+00  0.10306599124E+03  0.10306599124E+03  0.00000000000E+00 0.  1.
         21   -1    0    0  501  503 -0.00000000000E+00 -0.00000000000E+00 -0.12672176112E+04  0.12672176112E+04  0.00000000000E+00 0.  1.
          6    1    1    2  501    0 -0.20419855355E+03 -0.28340800437E+01 -0.10438081233E+04  0.10774156484E+04  0.17200000000E+03 0.  1.
         -6    1    1    2    0  502  0.20419855355E+03  0.28340800437E+01 -0.12034349666E+03  0.29286795399E+03  0.17200000000E+03 0.  1.
</event>
<event>
 4    1  0.4386646E+000  0.2615631E+03  0.7818608E-02  0.1106208E+00
         21   -1    0    0  503  502  0.00000000000E+00  0.00000000000E+00  0.12291023508E+04  0.12291023508E+04  0.00000000000E+00 0. -1.
         21   -1    0    0  501  503 -0.00000000000E+00 -0.00000000000E+00 -0.86779030193E+02  0.86779030193E+02  0.00000000000E+00 0. -1.
          6    1    1    2  501    0 -0.29585563090E+02 -0.19482284282E+03  0.17718270558E+03  0.31592555577E+03  0.17200000000E+03 0. -1.
         -6    1    1    2    0  502  0.29585563090E+02  0.19482284282E+03  0.96514061498E+03  0.99995582518E+03  0.17200000000E+03 0. -1.
</event>
<event>
 4    1  0.4386646E+000  0.2208374E+03  0.7818608E-02  0.1133260E+00
         21   -1    0    0  501  502  0.00000000000E+00  0.00000000000E+00  0.67793643662E+02  0.67793643662E+02  0.00000000000E+00 0. -1.
         21   -1    0    0  502  503 -0.00000000000E+00 -0.00000000000E+00 -0.80020966264E+03  0.80020966264E+03  0.00000000000E+00 0. -1.
          6    1    1    2  501    0  0.95989872638E+02  0.99855467501E+02 -0.22827009925E+03  0.31761046622E+03  0.17200000000E+03 0. -1.
         -6    1    1    2    0  503 -0.95989872638E+02 -0.99855467501E+02 -0.50414591973E+03  0.55039284009E+03  0.17200000000E+03 0. -1.
</event>
<event>
 4    1  0.4386646E+000  0.2820324E+03  0.7818608E-02  0.1094584E+00
         21   -1    0    0  503  502  0.00000000000E+00  0.00000000000E+00  0.22675080721E+03  0.22675080721E+03  0.00000000000E+00 0.  1.
         21   -1    0    0  501  503 -0.00000000000E+00 -0.00000000000E+00 -0.35216916582E+03  0.35216916582E+03  0.00000000000E+00 0.  1.
          6    1    1    2  501    0 -0.57036795591E+02  0.21611357984E+03 -0.80813038024E+02  0.29338204198E+03  0.17200000000E+03 0.  1.
         -6    1    1    2    0  502  0.57036795591E+02 -0.21611357984E+03 -0.44605320584E+02  0.28553793104E+03  0.17200000000E+03 0.  1.
</event>
<event>
 4    1  0.4386646E+000  0.3049624E+03  0.7818608E-02  0.1082786E+00
         21   -1    0    0  501  502  0.00000000000E+00  0.00000000000E+00  0.13946359993E+03  0.13946359993E+03  0.00000000000E+00 0.  1.
         21   -1    0    0  502  503 -0.00000000000E+00 -0.00000000000E+00 -0.11416481086E+04  0.11416481086E+04  0.00000000000E+00 0. -1.
          6    1    1    2  501    0  0.14466739471E+03  0.20612962088E+03 -0.88004019898E+02  0.31740633770E+03  0.17200000000E+03 0.  1.
         -6    1    1    2    0  503 -0.14466739471E+03 -0.20612962088E+03 -0.91418048875E+03  0.96370537080E+03  0.17200000000E+03 0. -1.
</event>
<event>
 4    1  0.4386646E+000  0.1767292E+03  0.7818608E-02  0.1171007E+00
         21   -1    0    0  501  502  0.00000000000E+00  0.00000000000E+00  0.64956908994E+03  0.64956908994E+03  0.00000000000E+00 0.  1.
         21   -1    0    0  502  503 -0.00000000000E+00 -0.00000000000E+00 -0.48999185830E+02  0.48999185830E+02  0.00000000000E+00 0.  1.
          6    1    1    2  501    0 -0.40173207793E+02 -0.59447692647E+01  0.34804640688E+03  0.39034539609E+03  0.17200000000E+03 0.  1.
         -6    1    1    2    0  503  0.40173207793E+02  0.59447692647E+01  0.25252349724E+03  0.30822287969E+03  0.17200000000E+03 0.  1.
</event>
<event>
 4    1  0.4386646E+000  0.1829319E+03  0.7818608E-02  0.1164995E+00
         21   -1    0    0  501  502  0.00000000000E+00  0.00000000000E+00  0.28846156148E+03  0.28846156148E+03  0.00000000000E+00 0.  1.
         21   -1    0    0  502  503 -0.00000000000E+00 -0.00000000000E+00 -0.11602017672E+03  0.11602017672E+03  0.00000000000E+00 0.  1.
          6    1    1    2  501    0 -0.62256676583E+02  0.20503066556E+01  0.88217885819E+02  0.20309232609E+03  0.17200000000E+03 0. -1.
         -6    1    1    2    0  503  0.62256676583E+02 -0.20503066556E+01  0.84223498939E+02  0.20138941211E+03  0.17200000000E+03 0. -1.
</event>
<event>
 4    1  0.4386646E+000  0.2038462E+03  0.7818608E-02  0.1146534E+00
         21   -1    0    0  501  502  0.00000000000E+00  0.00000000000E+00  0.77581051188E+03  0.77581051188E+03  0.00000000000E+00 0.  1.
         21   -1    0    0  502  503 -0.00000000000E+00 -0.00000000000E+00 -0.10961056281E+03  0.10961056281E+03  0.00000000000E+00 0.  1.
          6    1    1    2  501    0  0.99416984344E+02  0.45667607173E+02  0.64967698166E+03  0.68090634277E+03  0.17200000000E+03 0.  1.
         -6    1    1    2    0  503 -0.99416984344E+02 -0.45667607173E+02  0.16522967415E+02  0.20451473192E+03  0.17200000000E+03 0.  1.
</event>
<event>
 4    1  0.4386646E+000  0.2127888E+03  0.7818608E-02  0.1139376E+00
         21   -1    0    0  503  502  0.00000000000E+00  0.00000000000E+00  0.34546067899E+03  0.34546067899E+03  0.00000000000E+00 0. -1.
         21   -1    0    0  501  503 -0.00000000000E+00 -0.00000000000E+00 -0.17752673600E+03  0.17752673600E+03  0.00000000000E+00 0.  1.
          6    1    1    2  501    0  0.11142970120E+03 -0.57258256338E+02 -0.49803336097E+02  0.21853937520E+03  0.17200000000E+03 0.  1.
         -6    1    1    2    0  502 -0.11142970120E+03  0.57258256338E+02  0.21773727908E+03  0.30444803979E+03  0.17200000000E+03 0. -1.
</event>
<event>
 4    1  0.4386646E+000  0.2207419E+03  0.7818608E-02  0.1133331E+00
         21   -1    0    0  501  502  0.00000000000E+00  0.00000000000E+00  0.40650564122E+03  0.40650564122E+03  0.00000000000E+00 0. -1.
         21   -1    0    0  502  503 -0.00000000000E+00 -0.00000000000E+00 -0.12141833116E+03  0.12141833116E+03  0.00000000000E+00 0. -1.
          6    1    1    2  501    0 -0.10871095257E+03 -0.85585651210E+02  0.11271549842E+03  0.24785430899E+03  0.17200000000E+03 0. -1.
         -6    1    1    2    0  503  0.10871095257E+03  0.85585651210E+02  0.17237181164E+03  0.28006966339E+03  0.17200000000E+03 0. -1.
</event>
<event>
 4    1  0.4386646E+000  0.1775147E+03  0.7818608E-02  0.1170230E+00
         21   -1    0    0  503  502  0.00000000000E+00  0.00000000000E+00  0.35601330413E+03  0.35601330413E+03  0.00000000000E+00 0.  1.
         21   -1    0    0  501  503 -0.00000000000E+00 -0.00000000000E+00 -0.22581848450E+03  0.22581848450E+03  0.00000000000E+00 0. -1.
          6    1    1    2  501    0  0.37764397032E+02  0.22390099767E+02 -0.16174965036E+03  0.24015498255E+03  0.17200000000E+03 0. -1.
         -6    1    1    2    0  502 -0.37764397032E+02 -0.22390099767E+02  0.29194446999E+03  0.34167680608E+03  0.17200000000E+03 0.  1.
</event>
<event>
 4    1  0.4386646E+000  0.1961207E+03  0.7818608E-02  0.1153054E+00
         21   -1    0    0  501  502  0.00000000000E+00  0.00000000000E+00  0.57052620952E+03  0.57052620952E+03  0.00000000000E+00 0. -1.
         21   -1    0    0  502  503 -0.00000000000E+00 -0.00000000000E+00 -0.74642209178E+02  0.74642209178E+02  0.00000000000E+00 0. -1.
          6    1    1    2  501    0 -0.11039117067E+02  0.93581365886E+02  0.34830351064E+03  0.39972324134E+03  0.17200000000E+03 0. -1.
         -6    1    1    2    0  503  0.11039117067E+02 -0.93581365886E+02  0.14758048971E+03  0.24544517736E+03  0.17200000000E+03 0. -1.
</event>
<event>
 4    1  0.4386646E+000  0.1948706E+03  0.7818608E-02  0.1154140E+00
         21   -1    0    0  501  502  0.00000000000E+00  0.00000000000E+00  0.23810401061E+03  0.23810401061E+03  0.00000000000E+00 0. -1.
         21   -1    0    0  502  503 -0.00000000000E+00 -0.00000000000E+00 -0.17095772214E+03  0.17095772214E+03  0.00000000000E+00 0. -1.
          6    1    1    2  501    0  0.90483327313E+02  0.14259076729E+02  0.86552314213E+02  0.21322724236E+03  0.17200000000E+03 0. -1.
         -6    1    1    2    0  503 -0.90483327313E+02 -0.14259076729E+02 -0.19406025743E+02  0.19583449039E+03  0.17200000000E+03 0. -1.
</event>
<event>
 4    1  0.4386646E+000  0.2734847E+03  0.7818608E-02  0.1099302E+00
         21   -1    0    0  501  502  0.00000000000E+00  0.00000000000E+00  0.90347070367E+02  0.90347070367E+02  0.00000000000E+00 0.  1.
         21   -1    0    0  502  503 -0.00000000000E+00 -0.00000000000E+00 -0.90001635075E+03  0.90001635075E+03  0.00000000000E+00 0.  1.
          6    1    1    2  501    0  0.13255721209E+03 -0.16624816961E+03 -0.26461616801E+03  0.38054642916E+03  0.17200000000E+03 0.  1.
         -6    1    1    2    0  503 -0.13255721209E+03  0.16624816961E+03 -0.54505311238E+03  0.60981699196E+03  0.17200000000E+03 0.  1.
</event>
<event>
 4    1  0.4386646E+000  0.1896133E+03  0.7818608E-02  0.1158811E+00
         21   -1    0    0  503  502  0.00000000000E+00  0.00000000000E+00  0.70454758716E+03  0.70454758716E+03  0.00000000000E+00 0.  1.
         21   -1    0    0  501  503 -0.00000000000E+00 -0.00000000000E+00 -0.12019535000E+03  0.12019535000E+03  0.00000000000E+00 0.  1.
          6    1    1    2  501    0 -0.47824930792E+02 -0.63890432678E+02 -0.20639483610E+02  0.19073332084E+03  0.17200000000E+03 0.  1.
         -6    1    1    2    0  502  0.47824930792E+02  0.63890432678E+02  0.60499172077E+03  0.63400961633E+03  0.17200000000E+03 0.  1.
</event>
<event>
 4    1  0.4386646E+000  0.1825200E+03  0.7818608E-02  0.1165386E+00
         21   -1    0    0  501  502  0.00000000000E+00  0.00000000000E+00  0.46220673852E+03  0.46220673852E+03  0.00000000000E+00 0.  1.
         21   -1    0    0  502  503 -0.00000000000E+00 -0.00000000000E+00 -0.72419018094E+02  0.72419018094E+02  0.00000000000E+00 0.  1.
          6    1    1    2  501    0 -0.60791773307E+01 -0.60766604391E+02  0.21331868753E+03  0.28074614700E+03  0.17200000000E+03 0.  1.
         -6    1    1    2    0  503  0.60791773307E+01  0.60766604391E+02  0.17646903289E+03  0.25387960961E+03  0.17200000000E+03 0.  1.
</event>
<event>
 4    1  0.4386646E+000  0.3371069E+03  0.7818608E-02  0.1068035E+00
         21   -1    0    0  503  502  0.00000000000E+00  0.00000000000E+00  0.13597894959E+03  0.13597894959E+03  0.00000000000E+00 0. -1.
         21   -1    0    0  501  503 -0.00000000000E+00 -0.00000000000E+00 -0.84116319559E+03  0.84116319559E+03  0.00000000000E+00 0. -1.
          6    1    1    2  501    0  0.28729260900E+03 -0.38987641641E+02 -0.39187415653E+03  0.51692014272E+03  0.17200000000E+03 0. -1.
         -6    1    1    2    0  502 -0.28729260900E+03  0.38987641641E+02 -0.31331008946E+03  0.46022200246E+03  0.17200000000E+03 0. -1.
</event>
<event>
 4    1  0.4386646E+000  0.2358789E+03  0.7818608E-02  0.1122569E+00
         21   -1    0    0  501  502  0.00000000000E+00  0.00000000000E+00  0.28005682575E+03  0.28005682575E+03  0.00000000000E+00 0. -1.
         21   -1    0    0  502  503 -0.00000000000E+00 -0.00000000000E+00 -0.33117767923E+03  0.33117767923E+03  0.00000000000E+00 0. -1.
          6    1    1    2  501    0  0.14531552041E+03 -0.70272774120E+02  0.16775566912E+03  0.28944917996E+03  0.17200000000E+03 0. -1.
         -6    1    1    2    0  503 -0.14531552041E+03  0.70272774120E+02 -0.21887652260E+03  0.32178532502E+03  0.17200000000E+03 0. -1.
</event>
<event>
 4    1  0.4386646E+000  0.2216590E+03  0.7818608E-02  0.1132652E+00
         21   -1    0    0  503  502  0.00000000000E+00  0.00000000000E+00  0.11885109308E+03  0.11885109308E+03  0.00000000000E+00 0. -1.
         21   -1    0    0  501  503 -0.00000000000E+00 -0.00000000000E+00 -0.46876325537E+03  0.46876325537E+03  0.00000000000E+00 0.  1.
          6    1    1    2  501    0  0.13835745785E+03 -0.20147886230E+02 -0.73982692162E+02  0.23367961443E+03  0.17200000000E+03 0. -1.
         -6    1    1    2    0  502 -0.13835745785E+03  0.20147886230E+02 -0.27592947013E+03  0.35393473402E+03  0.17200000000E+03 0.  1.
</event>
<event>
 4    1  0.4386646E+000  0.2066401E+03  0.7818608E-02  0.1144255E+00
         21   -1    0    0  503  502  0.00000000000E+00  0.00000000000E+00  0.22667357621E+03  0.22667357621E+03  0.00000000000E+00 0. -1.
         21   -1    0    0  501  503 -0.00000000000E+00 -0.00000000000E+00 -0.19278120479E+03  0.19278120479E+03  0.00000000000E+00 0.  1.
          6    1    1    2  501    0  0.10233438464E+03  0.51417758822E+02 -0.14753237076E+02  0.20716604501E+03  0.17200000000E+03 0. -1.
         -6    1    1    2    0  502 -0.10233438464E+03 -0.51417758822E+02  0.48645608490E+02  0.21228873599E+03  0.17200000000E+03 0.  1.
</event>
<event>
 4    1  0.4386646E+000  0.1823931E+03  0.7818608E-02  0.1165507E+00
         21   -1    0    0  503  502  0.00000000000E+00  0.00000000000E+00  0.16949037628E+03  0.16949037628E+03  0.00000000000E+00 0.  1.
         21   -1    0    0  501  503 -0.00000000000E+00 -0.00000000000E+00 -0.25840857882E+03  0.25840857882E+03  0.00000000000E+00 0.  1.
          6    1    1    2  501    0  0.44206608720E+02 -0.41581529267E+02 -0.14936747179E+03  0.23574963300E+03  0.17200000000E+03 0.  1.
         -6    1    1    2    0  502 -0.44206608720E+02  0.41581529267E+02  0.60449269251E+02  0.19214932210E+03  0.17200000000E+03 0.  1.
</event>
<event>
 4    1  0.4386646E+000  0.2026341E+03  0.7818608E-02  0.1147535E+00
         21   -1    0    0  501  502  0.00000000000E+00  0.00000000000E+00  0.10585263479E+03  0.10585263479E+03  0.00000000000E+00 0. -1.
         21   -1    0    0  502  503 -0.00000000000E+00 -0.00000000000E+00 -0.40777189936E+03  0.40777189936E+03  0.00000000000E+00 0.  1.
          6    1    1    2  501    0 -0.92241148001E+02  0.54480634985E+02 -0.94271449139E+02  0.22348976508E+03  0.17200000000E+03 0. -1.
         -6    1    1    2    0  503  0.92241148001E+02 -0.54480634985E+02 -0.20764781543E+03  0.29013476907E+03  0.17200000000E+03 0.  1.
</event>
<event>
 4    1  0.4386646E+000  0.1845180E+03  0.7818608E-02  0.1163501E+00
         21   -1    0    0  501  502  0.00000000000E+00  0.00000000000E+00  0.43228561970E+02  0.43228561970E+02  0.00000000000E+00 0. -1.
         21   -1    0    0  502  503 -0.00000000000E+00 -0.00000000000E+00 -0.88303729549E+03  0.88303729549E+03  0.00000000000E+00 0. -1.
          6    1    1    2  501    0 -0.10824637552E+02  0.65922082320E+02 -0.26764953725E+03  0.32508947769E+03  0.17200000000E+03 0. -1.
         -6    1    1    2    0  503  0.10824637552E+02 -0.65922082320E+02 -0.57215919627E+03  0.60117637977E+03  0.17200000000E+03 0. -1.
</event>
<event>
 4    1  0.4386646E+000  0.2323483E+03  0.7818608E-02  0.1124998E+00
         21   -1    0    0  501  502  0.00000000000E+00  0.00000000000E+00  0.13271598467E+04  0.13271598467E+04  0.00000000000E+00 0. -1.
         21   -1    0    0  502  503 -0.00000000000E+00 -0.00000000000E+00 -0.41328080266E+02  0.41328080266E+02  0.00000000000E+00 0. -1.
          6    1    1    2  501    0  0.18455887081E+02  0.15511638733E+03  0.72875719874E+03  0.76490049556E+03  0.17200000000E+03 0. -1.
         -6    1    1    2    0  503 -0.18455887081E+02 -0.15511638733E+03  0.55707456771E+03  0.60358743143E+03  0.17200000000E+03 0. -1.
</event>
<event>
 4    1  0.4386646E+000  0.1747988E+03  0.7818608E-02  0.1172934E+00
         21   -1    0    0  501  502  0.00000000000E+00  0.00000000000E+00  0.30899508714E+02  0.30899508714E+02  0.00000000000E+00 0.  1.
         21   -1    0    0  502  503 -0.00000000000E+00 -0.00000000000E+00 -0.11621541897E+04  0.11621541897E+04  0.00000000000E+00 0.  1.
          6    1    1    2  501    0 -0.28056163059E+02 -0.13545215661E+02 -0.33526198376E+03  0.37809419317E+03  0.17200000000E+03 0.  1.
         -6    1    1    2    0  503  0.28056163059E+02  0.13545215661E+02 -0.79599269719E+03  0.81495950521E+03  0.17200000000E+03 0.  1.
</event>
<event>
 4    1  0.4386646E+000  0.2079314E+03  0.7818608E-02  0.1143215E+00
         21   -1    0    0  501  502  0.00000000000E+00  0.00000000000E+00  0.40593259633E+02  0.40593259633E+02  0.00000000000E+00 0.  1.
         21   -1    0    0  502  503 -0.00000000000E+00 -0.00000000000E+00 -0.13577755258E+04  0.13577755258E+04  0.00000000000E+00 0.  1.
          6    1    1    2  501    0  0.19298606872E+02  0.11523476567E+03 -0.33396899720E+03  0.39340917445E+03  0.17200000000E+03 0.  1.
         -6    1    1    2    0  503 -0.19298606872E+02 -0.11523476567E+03 -0.98321326901E+03  0.10049596110E+04  0.17200000000E+03 0.  1.
</event>
<event>
 4    1  0.4386646E+000  0.1750587E+03  0.7818608E-02  0.1172673E+00
         21   -1    0    0  501  502  0.00000000000E+00  0.00000000000E+00  0.41421027179E+03  0.41421027179E+03  0.00000000000E+00 0.  1.
         21   -1    0    0  502  503 -0.00000000000E+00 -0.00000000000E+00 -0.86950669996E+02  0.86950669996E+02  0.00000000000E+00 0.  1.
          6    1    1    2  501    0  0.17072379374E+02 -0.27750301904E+02  0.26039077080E+03  0.31376567516E+03  0.17200000000E+03 0.  1.
         -6    1    1    2    0  503 -0.17072379374E+02  0.27750301904E+02  0.66868830990E+02  0.18739526662E+03  0.17200000000E+03 0.  1.
</event>
<event>
 4    1  0.4386646E+000  0.1928506E+03  0.7818608E-02  0.1155915E+00
         21   -1    0    0  501  502  0.00000000000E+00  0.00000000000E+00  0.17876409920E+04  0.17876409920E+04  0.00000000000E+00 0. -1.
         21   -1    0    0  502  503 -0.00000000000E+00 -0.00000000000E+00 -0.31066543301E+02  0.31066543301E+02  0.00000000000E+00 0. -1.
          6    1    1    2  501    0 -0.82419289233E+02  0.28537702660E+02  0.14009228764E+04  0.14141344509E+04  0.17200000000E+03 0. -1.
         -6    1    1    2    0  503  0.82419289233E+02 -0.28537702660E+02  0.35565157229E+03  0.40457308435E+03  0.17200000000E+03 0. -1.
</event>
<event>
 4    1  0.4386646E+000  0.2090298E+03  0.7818608E-02  0.1142337E+00
         21   -1    0    0  501  502  0.00000000000E+00  0.00000000000E+00  0.23791710466E+03  0.23791710466E+03  0.00000000000E+00 0. -1.
         21   -1    0    0  502  503 -0.00000000000E+00 -0.00000000000E+00 -0.22930754497E+03  0.22930754497E+03  0.00000000000E+00 0.  1.
          6    1    1    2  501    0 -0.61857243233E+02 -0.10140590787E+03  0.10854680701E+03  0.23553319512E+03  0.17200000000E+03 0. -1.
         -6    1    1    2    0  503  0.61857243233E+02  0.10140590787E+03 -0.99937247317E+02  0.23169145451E+03  0.17200000000E+03 0. -1.
</event>
<event>
 4    1  0.4386646E+000  0.2196220E+03  0.7818608E-02  0.1134165E+00
         21   -1    0    0  501  502  0.00000000000E+00  0.00000000000E+00  0.23528880212E+03  0.23528880212E+03  0.00000000000E+00 0.  1.
         21   -1    0    0  502  503 -0.00000000000E+00 -0.00000000000E+00 -0.22041380267E+03  0.22041380267E+03  0.00000000000E+00 0.  1.
          6    1    1    2  501    0 -0.57644260698E+02 -0.12380210358E+03 -0.52819837658E+02  0.22588438833E+03  0.17200000000E+03 0. -1.
         -6    1    1    2    0  503  0.57644260698E+02  0.12380210358E+03  0.67694837113E+02  0.22981821646E+03  0.17200000000E+03 0. -1.
</event>
<event>
 4    1  0.4386646E+000  0.1923189E+03  0.7818608E-02  0.1156386E+00
         21   -1    0    0  501  502  0.00000000000E+00  0.00000000000E+00  0.26533898314E+03  0.26533898314E+03  0.00000000000E+00 0.  1.
         21   -1    0    0  502  503 -0.00000000000E+00 -0.00000000000E+00 -0.64241524919E+03  0.64241524919E+03  0.00000000000E+00 0.  1.
          6    1    1    2  501    0 -0.83863800129E+02  0.19219915256E+02  0.21308963081E+03  0.28704308539E+03  0.17200000000E+03 0.  1.
         -6    1    1    2    0  503  0.83863800129E+02 -0.19219915256E+02 -0.59016589686E+03  0.62071114694E+03  0.17200000000E+03 0.  1.
</event>
<event>
 4    1  0.4386646E+000  0.1998983E+03  0.7818608E-02  0.1149825E+00
         21   -1    0    0  503  502  0.00000000000E+00  0.00000000000E+00  0.43656243791E+02  0.43656243791E+02  0.00000000000E+00 0. -1.
         21   -1    0    0  501  503 -0.00000000000E+00 -0.00000000000E+00 -0.11008274096E+04  0.11008274096E+04  0.00000000000E+00 0. -1.
          6    1    1    2  501    0 -0.52492266333E+02  0.87292025880E+02 -0.76349651028E+03  0.78923143438E+03  0.17200000000E+03 0. -1.
         -6    1    1    2    0  502  0.52492266333E+02 -0.87292025880E+02 -0.29367465550E+03  0.35525221898E+03  0.17200000000E+03 0. -1.
</event>
<event>
 4    1  0.4386646E+000  0.2404927E+03  0.7818608E-02  0.1119465E+00
         21   -1    0    0  501  502  0.00000000000E+00  0.00000000000E+00  0.15143894757E+03  0.15143894757E+03  0.00000000000E+00 0.  1.
         21   -1    0    0  502  503 -0.00000000000E+00 -0.00000000000E+00 -0.44926330753E+03  0.44926330753E+03  0.00000000000E+00 0. -1.
          6    1    1    2  501    0 -0.15147593683E+03  0.72854362780E+02 -0.32621741150E+02  0.24269506713E+03  0.17200000000E+03 0.  1.
         -6    1    1    2    0  503  0.15147593683E+03 -0.72854362780E+02 -0.26520261881E+03  0.35800718797E+03  0.17200000000E+03 0. -1.
</event>
<event>
 4    1  0.4386646E+000  0.2458086E+03  0.7818608E-02  0.1115983E+00
         21   -1    0    0  503  502  0.00000000000E+00  0.00000000000E+00  0.31063961586E+03  0.31063961586E+03  0.00000000000E+00 0.  1.
         21   -1    0    0  501  503 -0.00000000000E+00 -0.00000000000E+00 -0.21092053388E+03  0.21092053388E+03  0.00000000000E+00 0.  1.
          6    1    1    2  501    0  0.55403124014E+02 -0.16663842087E+03 -0.22885548834E+02  0.24687166262E+03  0.17200000000E+03 0.  1.
         -6    1    1    2    0  502 -0.55403124014E+02  0.16663842087E+03  0.12260463081E+03  0.27468848712E+03  0.17200000000E+03 0.  1.
</event>
<event>
 4    1  0.4386646E+000  0.2071354E+03  0.7818608E-02  0.1143855E+00
         21   -1    0    0  503  502  0.00000000000E+00  0.00000000000E+00  0.70234221075E+02  0.70234221075E+02  0.00000000000E+00 0.  1.
         21   -1    0    0  501  503 -0.00000000000E+00 -0.00000000000E+00 -0.82112085732E+03  0.82112085732E+03  0.00000000000E+00 0. -1.
          6    1    1    2  501    0 -0.11337541080E+03 -0.21612221471E+02 -0.60095550482E+03  0.63565131217E+03  0.17200000000E+03 0. -1.
         -6    1    1    2    0  502  0.11337541080E+03  0.21612221471E+02 -0.14993113143E+03  0.25570376623E+03  0.17200000000E+03 0.  1.
</event>
<event>
 4    1  0.4386646E+000  0.2799223E+03  0.7818608E-02  0.1095731E+00
         21   -1    0    0  503  502  0.00000000000E+00  0.00000000000E+00  0.19539413288E+03  0.19539413288E+03  0.00000000000E+00 0.  1.
         21   -1    0    0  501  503 -0.00000000000E+00 -0.00000000000E+00 -0.40102088052E+03  0.40102088052E+03  0.00000000000E+00 0. -1.
          6    1    1    2  501    0  0.15240636846E+03  0.15982742559E+03 -0.10365227287E+03  0.29849673497E+03  0.17200000000E+03 0. -1.
         -6    1    1    2    0  502 -0.15240636846E+03 -0.15982742559E+03 -0.10197447478E+03  0.29791827843E+03  0.17200000000E+03 0.  1.
</event>
<event>
 4    1  0.4386646E+000  0.2404565E+03  0.7818608E-02  0.1119489E+00
         21   -1    0    0  501  502  0.00000000000E+00  0.00000000000E+00  0.61175953688E+03  0.61175953688E+03  0.00000000000E+00 0.  1.
         21   -1    0    0  502  503 -0.00000000000E+00 -0.00000000000E+00 -0.20333072386E+03  0.20333072386E+03  0.00000000000E+00 0. -1.
          6    1    1    2  501    0 -0.16777882511E+03  0.92521806972E+01  0.50235675747E+03  0.55693953781E+03  0.17200000000E+03 0.  1.
         -6    1    1    2    0  503  0.16777882511E+03 -0.92521806972E+01 -0.93927944445E+02  0.25815072293E+03  0.17200000000E+03 0. -1.
</event>
<event>
 4    1  0.4386646E+000  0.1951705E+03  0.7818608E-02  0.1153879E+00
         21   -1    0    0  503  502  0.00000000000E+00  0.00000000000E+00  0.25942204773E+03  0.25942204773E+03  0.00000000000E+00 0.  1.
         21   -1    0    0  501  503 -0.00000000000E+00 -0.00000000000E+00 -0.20603739892E+03  0.20603739892E+03  0.00000000000E+00 0.  1.
          6    1    1    2  501    0 -0.91424874409E+02 -0.12207417154E+02 -0.98062825360E+02  0.21842125907E+03  0.17200000000E+03 0.  1.
         -6    1    1    2    0  502  0.91424874409E+02  0.12207417154E+02  0.15144747416E+03  0.24703818758E+03  0.17200000000E+03 0.  1.
</event>
<event>
 4    1  0.4386646E+000  0.1828173E+03  0.7818608E-02  0.1165104E+00
         21   -1    0    0  501  502  0.00000000000E+00  0.00000000000E+00  0.32257069296E+03  0.32257069296E+03  0.00000000000E+00 0. -1.
         21   -1    0    0  502  503 -0.00000000000E+00 -0.00000000000E+00 -0.13463773983E+03  0.13463773983E+03  0.00000000000E+00 0.  1.
          6    1    1    2  501    0 -0.61092098205E+02 -0.10291824830E+02  0.20370586155E+03  0.27371197298E+03  0.17200000000E+03 0. -1.
         -6    1    1    2    0  503  0.61092098205E+02  0.10291824830E+02 -0.15772908419E+02  0.18349645981E+03  0.17200000000E+03 0.  1.
</event>
<event>
 4    1  0.4386646E+000  0.1734188E+03  0.7818608E-02  0.1174329E+00
         21   -1    0    0  503  502  0.00000000000E+00  0.00000000000E+00  0.31083525141E+04  0.31083525141E+04  0.00000000000E+00 0. -1.
         21   -1    0    0  501  503 -0.00000000000E+00 -0.00000000000E+00 -0.10672696375E+02  0.10672696375E+02  0.00000000000E+00 0. -1.
          6    1    1    2  501    0  0.19452963086E+02  0.10566982912E+02  0.10720827709E+04  0.10860182073E+04  0.17200000000E+03 0.  1.
         -6    1    1    2    0  502 -0.19452963086E+02 -0.10566982912E+02  0.20255970468E+04  0.20330070032E+04  0.17200000000E+03 0.  1.
</event>
<event>
 4    1  0.4386646E+000  0.1727484E+03  0.7818608E-02  0.1175012E+00
         21   -1    0    0  501  502  0.00000000000E+00  0.00000000000E+00  0.37882012552E+03  0.37882012552E+03  0.00000000000E+00 0.  1.
         21   -1    0    0  502  503 -0.00000000000E+00 -0.00000000000E+00 -0.91867767512E+02  0.91867767512E+02  0.00000000000E+00 0.  1.
          6    1    1    2  501    0 -0.10685144517E+02  0.11993647133E+02  0.23231787514E+03  0.28950581168E+03  0.17200000000E+03 0.  1.
         -6    1    1    2    0  503  0.10685144517E+02 -0.11993647133E+02  0.54634482861E+02  0.18118208135E+03  0.17200000000E+03 0.  1.
</event>
<event>
 4    1  0.4386646E+000  0.1741573E+03  0.7818608E-02  0.1173581E+00
         21   -1    0    0  503  502  0.00000000000E+00  0.00000000000E+00  0.42839823874E+03  0.42839823874E+03  0.00000000000E+00 0.  1.
         21   -1    0    0  501  503 -0.00000000000E+00 -0.00000000000E+00 -0.89280863629E+02  0.89280863629E+02  0.00000000000E+00 0.  1.
          6    1    1    2  501    0  0.17580740886E+02 -0.20920470926E+02  0.51795819360E+02  0.18169632758E+03  0.17200000000E+03 0.  1.
         -6    1    1    2    0  502 -0.17580740886E+02  0.20920470926E+02  0.28732155575E+03  0.33598277479E+03  0.17200000000E+03 0.  1.
</event>
<event>
 4    1  0.4386646E+000  0.2187953E+03  0.7818608E-02  0.1134784E+00
         21   -1    0    0  501  502  0.00000000000E+00  0.00000000000E+00  0.44521273284E+03  0.44521273284E+03  0.00000000000E+00 0.  1.
         21   -1    0    0  502  503 -0.00000000000E+00 -0.00000000000E+00 -0.26660928761E+03  0.26660928761E+03  0.00000000000E+00 0. -1.
          6    1    1    2  501    0  0.13128580906E+03  0.32425662667E+02  0.36422896291E+03  0.42489307441E+03  0.17200000000E+03 0.  1.
         -6    1    1    2    0  503 -0.13128580906E+03 -0.32425662667E+02 -0.18562551768E+03  0.28692894604E+03  0.17200000000E+03 0. -1.
</event>
<event>
 4    1  0.4386646E+000  0.1985123E+03  0.7818608E-02  0.1151000E+00
         21   -1    0    0  501  502  0.00000000000E+00  0.00000000000E+00  0.34871262484E+03  0.34871262484E+03  0.00000000000E+00 0. -1.
         21   -1    0    0  502  503 -0.00000000000E+00 -0.00000000000E+00 -0.11319200884E+03  0.11319200884E+03  0.00000000000E+00 0.  1.
          6    1    1    2  501    0 -0.31228275709E+02  0.94063424944E+02  0.10843522185E+03  0.22619754741E+03  0.17200000000E+03 0.  1.
         -6    1    1    2    0  503  0.31228275709E+02 -0.94063424944E+02  0.12708539414E+03  0.23570708628E+03  0.17200000000E+03 0. -1.
</event>
<event>
 4    1  0.4386646E+000  0.1841365E+03  0.7818608E-02  0.1163859E+00
         21   -1    0    0  501  502  0.00000000000E+00  0.00000000000E+00  0.68307759933E+02  0.68307759933E+02  0.00000000000E+00 0. -1.
         21   -1    0    0  502  503 -0.00000000000E+00 -0.00000000000E+00 -0.49818502096E+03  0.49818502096E+03  0.00000000000E+00 0. -1.
          6    1    1    2  501    0  0.34545685482E+02  0.55935934555E+02 -0.23201382279E+03  0.29620372571E+03  0.17200000000E+03 0. -1.
         -6    1    1    2    0  503 -0.34545685482E+02 -0.55935934555E+02 -0.19786343824E+03  0.27028905518E+03  0.17200000000E+03 0. -1.
</event>
<event>
 4    1  0.4386646E+000  0.2462924E+03  0.7818608E-02  0.1115671E+00
         21   -1    0    0  501  502  0.00000000000E+00  0.00000000000E+00  0.87194617169E+02  0.87194617169E+02  0.00000000000E+00 0. -1.
         21   -1    0    0  502  503 -0.00000000000E+00 -0.00000000000E+00 -0.14726774919E+04  0.14726774919E+04  0.00000000000E+00 0. -1.
          6    1    1    2  501    0  0.11905398593E+03 -0.13000800387E+03 -0.12622337809E+03  0.27675309178E+03  0.17200000000E+03 0. -1.
         -6    1    1    2    0  503 -0.11905398593E+03  0.13000800387E+03 -0.12592594966E+04  0.12831190173E+04  0.17200000000E+03 0. -1.
</event>
<event>
 4    1  0.4386646E+000  0.1956168E+03  0.7818608E-02  0.1153491E+00
         21   -1    0    0  501  502  0.00000000000E+00  0.00000000000E+00  0.90064172569E+03  0.90064172569E+03  0.00000000000E+00 0.  1.
         21   -1    0    0  502  503 -0.00000000000E+00 -0.00000000000E+00 -0.46356873572E+02  0.46356873572E+02  0.00000000000E+00 0.  1.
          6    1    1    2  501    0  0.90929137626E+02 -0.20342569462E+02  0.29034181709E+03  0.35009184359E+03  0.17200000000E+03 0.  1.
         -6    1    1    2    0  503 -0.90929137626E+02  0.20342569462E+02  0.56394303503E+03  0.59690675567E+03  0.17200000000E+03 0.  1.
</event>
<event>
 4    1  0.4386646E+000  0.2422538E+03  0.7818608E-02  0.1118300E+00
         21   -1    0    0  503  502  0.00000000000E+00  0.00000000000E+00  0.51622397316E+02  0.51622397316E+02  0.00000000000E+00 0. -1.
         21   -1    0    0  501  503 -0.00000000000E+00 -0.00000000000E+00 -0.15130322175E+04  0.15130322175E+04  0.00000000000E+00 0. -1.
          6    1    1    2  501    0  0.78209724864E+02  0.15161174003E+03 -0.11207941745E+04  0.11466762674E+04  0.17200000000E+03 0.  1.
         -6    1    1    2    0  502 -0.78209724864E+02 -0.15161174003E+03 -0.34061564574E+03  0.41797834740E+03  0.17200000000E+03 0.  1.
</event>
<event>
 4    1  0.4386646E+000  0.1812911E+03  0.7818608E-02  0.1166559E+00
         21   -1    0    0  501  502  0.00000000000E+00  0.00000000000E+00  0.46693818913E+03  0.46693818913E+03  0.00000000000E+00 0.  1.
         21   -1    0    0  502  503 -0.00000000000E+00 -0.00000000000E+00 -0.11088558749E+03  0.11088558749E+03  0.00000000000E+00 0.  1.
          6    1    1    2  501    0  0.14796429299E+02 -0.55349087475E+02  0.35262737459E+03  0.39650034188E+03  0.17200000000E+03 0.  1.
         -6    1    1    2    0  503 -0.14796429299E+02  0.55349087475E+02  0.34252270451E+01  0.18132343474E+03  0.17200000000E+03 0.  1.
</event>
<event>
 4    1  0.4386646E+000  0.1925222E+03  0.7818608E-02  0.1156206E+00
         21   -1    0    0  503  502  0.00000000000E+00  0.00000000000E+00  0.45507171318E+02  0.45507171318E+02  0.00000000000E+00 0. -1.
         21   -1    0    0  501  503 -0.00000000000E+00 -0.00000000000E+00 -0.81549026712E+03  0.81549026712E+03  0.00000000000E+00 0. -1.
          6    1    1    2  501    0  0.27312706347E+02  0.82065902604E+02 -0.36985820683E+03  0.41696509382E+03  0.17200000000E+03 0. -1.
         -6    1    1    2    0  502 -0.27312706347E+02 -0.82065902604E+02 -0.40012488897E+03  0.44403234462E+03  0.17200000000E+03 0. -1.
</event>
<event>
 4    1  0.4386646E+000  0.1729318E+03  0.7818608E-02  0.1174824E+00
         21   -1    0    0  503  502  0.00000000000E+00  0.00000000000E+00  0.46408026462E+02  0.46408026462E+02  0.00000000000E+00 0. -1.
         21   -1    0    0  501  503 -0.00000000000E+00 -0.00000000000E+00 -0.67173270649E+03  0.67173270649E+03  0.00000000000E+00 0. -1.
          6    1    1    2  501    0  0.17202866029E+02 -0.50474186104E+01 -0.24023401119E+03  0.29600303236E+03  0.17200000000E+03 0. -1.
         -6    1    1    2    0  502 -0.17202866029E+02  0.50474186104E+01 -0.38509066883E+03  0.42213770059E+03  0.17200000000E+03 0. -1.
</event>
<event>
 4    1  0.4386646E+000  0.2119029E+03  0.7818608E-02  0.1140068E+00
         21   -1    0    0  503  502  0.00000000000E+00  0.00000000000E+00  0.39929215154E+03  0.39929215154E+03  0.00000000000E+00 0. -1.
         21   -1    0    0  501  503 -0.00000000000E+00 -0.00000000000E+00 -0.11763873186E+03  0.11763873186E+03  0.00000000000E+00 0. -1.
          6    1    1    2  501    0 -0.10997218288E+03  0.56788719696E+02  0.86576386369E+02  0.22890677222E+03  0.17200000000E+03 0. -1.
         -6    1    1    2    0  502  0.10997218288E+03 -0.56788719696E+02  0.19507703331E+03  0.28802411117E+03  0.17200000000E+03 0. -1.
</event>
<event>
 4    1  0.4386646E+000  0.2734042E+03  0.7818608E-02  0.1099347E+00
         21   -1    0    0  503  502  0.00000000000E+00  0.00000000000E+00  0.68111864576E+02  0.68111864576E+02  0.00000000000E+00 0. -1.
         21   -1    0    0  501  503 -0.00000000000E+00 -0.00000000000E+00 -0.14467908625E+04  0.14467908625E+04  0.00000000000E+00 0. -1.
          6    1    1    2  501    0 -0.40519900837E+02  0.20862407724E+03 -0.10615357413E+04  0.10961788166E+04  0.17200000000E+03 0. -1.
         -6    1    1    2    0  502  0.40519900837E+02 -0.20862407724E+03 -0.31714325666E+03  0.41872391049E+03  0.17200000000E+03 0. -1.
</event>
<event>
 4    1  0.4386646E+000  0.2140026E+03  0.7818608E-02  0.1138435E+00
         21   -1    0    0  501  502  0.00000000000E+00  0.00000000000E+00  0.48320875963E+03  0.48320875963E+03  0.00000000000E+00 0.  1.
         21   -1    0    0  502  503 -0.00000000000E+00 -0.00000000000E+00 -0.95258755008E+02  0.95258755008E+02  0.00000000000E+00 0. -1.
          6    1    1    2  501    0  0.45937015602E+02 -0.11875567577E+03  0.17340808341E+03  0.27544052593E+03  0.17200000000E+03 0.  1.
         -6    1    1    2    0  503 -0.45937015602E+02  0.11875567577E+03  0.21454192121E+03  0.30302698871E+03  0.17200000000E+03 0. -1.
</event>
<event>
 4    1  0.4386646E+000  0.1816354E+03  0.7818608E-02  0.1166230E+00
         21   -1    0    0  501  502  0.00000000000E+00  0.00000000000E+00  0.45285999569E+02  0.45285999569E+02  0.00000000000E+00 0. -1.
         21   -1    0    0  502  503 -0.00000000000E+00 -0.00000000000E+00 -0.82957857027E+03  0.82957857027E+03  0.00000000000E+00 0.  1.
          6    1    1    2  501    0 -0.57985116707E+02 -0.67194065315E+01 -0.54482707886E+03  0.57430651227E+03  0.17200000000E+03 0.  1.
         -6    1    1    2    0  503  0.57985116707E+02  0.67194065315E+01 -0.23946549184E+03  0.30055805757E+03  0.17200000000E+03 0. -1.
</event>
<event>
 4    1  0.4386646E+000  0.1858059E+03  0.7818608E-02  0.1162299E+00
         21   -1    0    0  501  502  0.00000000000E+00  0.00000000000E+00  0.72821078090E+02  0.72821078090E+02  0.00000000000E+00 0.  1.
         21   -1    0    0  502  503 -0.00000000000E+00 -0.00000000000E+00 -0.10106209677E+04  0.10106209677E+04  0.00000000000E+00 0.  1.
          6    1    1    2  501    0 -0.61817598553E+02 -0.33442711572E+02 -0.74189645146E+02  0.20006982255E+03  0.17200000000E+03 0.  1.
         -6    1    1    2    0  503  0.61817598553E+02  0.33442711572E+02 -0.86361024444E+03  0.88337222321E+03  0.17200000000E+03 0.  1.
</event>
<event>
 4    1  0.4386646E+000  0.1854804E+03  0.7818608E-02  0.1162602E+00
         21   -1    0    0  501  502  0.00000000000E+00  0.00000000000E+00  0.27682652041E+03  0.27682652041E+03  0.00000000000E+00 0. -1.
         21   -1    0    0  502  503 -0.00000000000E+00 -0.00000000000E+00 -0.17243970937E+03  0.17243970937E+03  0.00000000000E+00 0. -1.
          6    1    1    2  501    0 -0.68801559296E+02 -0.92378825476E+01  0.17091055682E+03  0.25221699282E+03  0.17200000000E+03 0.  1.
         -6    1    1    2    0  503  0.68801559296E+02  0.92378825476E+01 -0.66523745775E+02  0.19704923696E+03  0.17200000000E+03 0.  1.
</event>
<event>
 4    1  0.4386646E+000  0.2306197E+03  0.7818608E-02  0.1126204E+00
         21   -1    0    0  501  502  0.00000000000E+00  0.00000000000E+00  0.45380328230E+02  0.45380328230E+02  0.00000000000E+00 0. -1.
         21   -1    0    0  502  503 -0.00000000000E+00 -0.00000000000E+00 -0.13212142234E+04  0.13212142234E+04  0.00000000000E+00 0.  1.
          6    1    1    2  501    0 -0.14740030229E+03 -0.43296425530E+02 -0.40828184021E+03  0.46891309496E+03  0.17200000000E+03 0. -1.
         -6    1    1    2    0  503  0.14740030229E+03  0.43296425530E+02 -0.86755205492E+03  0.89768145663E+03  0.17200000000E+03 0.  1.
</event>
<event>
 4    1  0.4386646E+000  0.3472508E+03  0.7818608E-02  0.1063749E+00
         21   -1    0    0  503  502  0.00000000000E+00  0.00000000000E+00  0.19802932644E+03  0.19802932644E+03  0.00000000000E+00 0.  1.
         21   -1    0    0  501  503 -0.00000000000E+00 -0.00000000000E+00 -0.84678076958E+03  0.84678076958E+03  0.00000000000E+00 0. -1.
          6    1    1    2  501    0  0.26647798570E+03 -0.14138097735E+03 -0.60125313033E+03  0.69432587763E+03  0.17200000000E+03 0. -1.
         -6    1    1    2    0  502 -0.26647798570E+03  0.14138097735E+03 -0.47498312809E+02  0.35048421839E+03  0.17200000000E+03 0.  1.
</event>
<event>
 4    1  0.4386646E+000  0.2348385E+03  0.7818608E-02  0.1123280E+00
         21   -1    0    0  503  502  0.00000000000E+00  0.00000000000E+00  0.24035388992E+03  0.24035388992E+03  0.00000000000E+00 0.  1.
         21   -1    0    0  501  503 -0.00000000000E+00 -0.00000000000E+00 -0.31463724752E+03  0.31463724752E+03  0.00000000000E+00 0.  1.
          6    1    1    2  501    0  0.39163953797E+02 -0.15502026517E+03 -0.18153242528E+03  0.29682169617E+03  0.17200000000E+03 0.  1.
         -6    1    1    2    0  502 -0.39163953797E+02  0.15502026517E+03  0.10724906768E+03  0.25816944127E+03  0.17200000000E+03 0.  1.
</event>
<event>
 4    1  0.4386646E+000  0.2506446E+03  0.7818608E-02  0.1112898E+00
         21   -1    0    0  501  502  0.00000000000E+00  0.00000000000E+00  0.67484796775E+03  0.67484796775E+03  0.00000000000E+00 0.  1.
         21   -1    0    0  502  503 -0.00000000000E+00 -0.00000000000E+00 -0.11426539727E+03  0.11426539727E+03  0.00000000000E+00 0. -1.
          6    1    1    2  501    0 -0.76231185772E+02 -0.16561253029E+03  0.45013559617E+03  0.51521331389E+03  0.17200000000E+03 0. -1.
         -6    1    1    2    0  503  0.76231185772E+02  0.16561253029E+03  0.11044697431E+03  0.27390005113E+03  0.17200000000E+03 0.  1.
</event>
<event>
 4    1  0.4386646E+000  0.2450166E+03  0.7818608E-02  0.1116495E+00
         21   -1    0    0  503  502  0.00000000000E+00  0.00000000000E+00  0.55551114799E+03  0.55551114799E+03  0.00000000000E+00 0.  1.
         21   -1    0    0  501  503 -0.00000000000E+00 -0.00000000000E+00 -0.12237407028E+03  0.12237407028E+03  0.00000000000E+00 0. -1.
          6    1    1    2  501    0  0.10227849231E+03  0.14137980421E+03  0.10068086035E+03  0.26489578077E+03  0.17200000000E+03 0. -1.
         -6    1    1    2    0  502 -0.10227849231E+03 -0.14137980421E+03  0.33245621736E+03  0.41298943750E+03  0.17200000000E+03 0.  1.
</event>
<event>
 4    1  0.4386646E+000  0.1943692E+03  0.7818608E-02  0.1154579E+00
         21   -1    0    0  501  502  0.00000000000E+00  0.00000000000E+00  0.23641802258E+04  0.23641802258E+04  0.00000000000E+00 0.  1.
         21   -1    0    0  502  503 -0.00000000000E+00 -0.00000000000E+00 -0.10439805021E+03  0.10439805021E+03  0.00000000000E+00 0. -1.
          6    1    1    2  501    0 -0.83039885230E+02  0.36052170414E+02  0.22657945077E+04  0.22741161212E+04  0.17200000000E+03 0.  1.
         -6    1    1    2    0  503  0.83039885230E+02 -0.36052170414E+02 -0.60123320853E+01  0.19446215485E+03  0.17200000000E+03 0. -1.
</event>
<event>
 4    1  0.4386646E+000  0.2118362E+03  0.7818608E-02  0.1140120E+00
         21   -1    0    0  501  502  0.00000000000E+00  0.00000000000E+00  0.53784872022E+03  0.53784872022E+03  0.00000000000E+00 0.  1.
         21   -1    0    0  502  503 -0.00000000000E+00 -0.00000000000E+00 -0.21811564815E+03  0.21811564815E+03  0.00000000000E+00 0. -1.
          6    1    1    2  501    0 -0.11749842926E+03 -0.38531563212E+02  0.45688472956E+03  0.50360522073E+03  0.17200000000E+03 0.  1.
         -6    1    1    2    0  503  0.11749842926E+03  0.38531563212E+02 -0.13715165750E+03  0.25235914764E+03  0.17200000000E+03 0. -1.
</event>
<event>
 4    1  0.4386646E+000  0.1972150E+03  0.7818608E-02  0.1152110E+00
         21   -1    0    0  503  502  0.00000000000E+00  0.00000000000E+00  0.22012631591E+03  0.22012631591E+03  0.00000000000E+00 0.  1.
         21   -1    0    0  501  503 -0.00000000000E+00 -0.00000000000E+00 -0.22826953698E+03  0.22826953698E+03  0.00000000000E+00 0.  1.
          6    1    1    2  501    0  0.37301687567E+02 -0.88984985194E+02 -0.11064616096E+03  0.22613340404E+03  0.17200000000E+03 0.  1.
         -6    1    1    2    0  502 -0.37301687567E+02  0.88984985194E+02  0.10250293988E+03  0.22226244885E+03  0.17200000000E+03 0.  1.
</event>
<event>
 4    1  0.4386646E+000  0.3361699E+03  0.7818608E-02  0.1068439E+00
         21   -1    0    0  501  502  0.00000000000E+00  0.00000000000E+00  0.10416832036E+03  0.10416832036E+03  0.00000000000E+00 0.  1.
         21   -1    0    0  502  503 -0.00000000000E+00 -0.00000000000E+00 -0.10860669392E+04  0.10860669392E+04  0.00000000000E+00 0. -1.
          6    1    1    2  501    0  0.24726630212E+03 -0.14928351681E+03 -0.51061794659E+03  0.61134350404E+03  0.17200000000E+03 0.  1.
         -6    1    1    2    0  503 -0.24726630212E+03  0.14928351681E+03 -0.47128067224E+03  0.57889175550E+03  0.17200000000E+03 0.  1.
</event>
<event>
 4    1  0.4386646E+000  0.1945957E+03  0.7818608E-02  0.1154380E+00
         21   -1    0    0  501  502  0.00000000000E+00  0.00000000000E+00  0.93470791786E+03  0.93470791786E+03  0.00000000000E+00 0.  1.
         21   -1    0    0  502  503 -0.00000000000E+00 -0.00000000000E+00 -0.40519917809E+02  0.40519917809E+02  0.00000000000E+00 0.  1.
          6    1    1    2  501    0 -0.82957880830E+02  0.37436400411E+02  0.44056322519E+03  0.48162583969E+03  0.17200000000E+03 0.  1.
         -6    1    1    2    0  503  0.82957880830E+02 -0.37436400411E+02  0.45362477486E+03  0.49360199598E+03  0.17200000000E+03 0.  1.
</event>
<event>
 4    1  0.4386646E+000  0.1726595E+03  0.7818608E-02  0.1175102E+00
         21   -1    0    0  501  502  0.00000000000E+00  0.00000000000E+00  0.23878225718E+03  0.23878225718E+03  0.00000000000E+00 0. -1.
         21   -1    0    0  502  503 -0.00000000000E+00 -0.00000000000E+00 -0.18519281782E+03  0.18519281782E+03  0.00000000000E+00 0. -1.
          6    1    1    2  501    0 -0.51116742461E+01  0.14183327096E+02  0.14780468394E+03  0.22728290868E+03  0.17200000000E+03 0. -1.
         -6    1    1    2    0  503  0.51116742461E+01 -0.14183327096E+02 -0.94215244588E+02  0.19669216633E+03  0.17200000000E+03 0. -1.
</event>
<event>
 4    1  0.4386646E+000  0.2107069E+03  0.7818608E-02  0.1141007E+00
         21   -1    0    0  501  502  0.00000000000E+00  0.00000000000E+00  0.11880316570E+03  0.11880316570E+03  0.00000000000E+00 0.  1.
         21   -1    0    0  502  503 -0.00000000000E+00 -0.00000000000E+00 -0.53400116194E+03  0.53400116194E+03  0.00000000000E+00 0.  1.
          6    1    1    2  501    0 -0.97848347630E+02 -0.72381659951E+02 -0.28768029658E+02  0.21266171108E+03  0.17200000000E+03 0.  1.
         -6    1    1    2    0  503  0.97848347630E+02  0.72381659951E+02 -0.38642996658E+03  0.44014261655E+03  0.17200000000E+03 0.  1.
</event>
<event>
 4    1  0.4386646E+000  0.2633614E+03  0.7818608E-02  0.1105140E+00
         21   -1    0    0  501  502  0.00000000000E+00  0.00000000000E+00  0.93853709928E+02  0.93853709928E+02  0.00000000000E+00 0. -1.
         21   -1    0    0  502  503 -0.00000000000E+00 -0.00000000000E+00 -0.77198331459E+03  0.77198331459E+03  0.00000000000E+00 0. -1.
          6    1    1    2  501    0 -0.18455281261E+03  0.75600984177E+02 -0.24959961376E+03  0.36284875174E+03  0.17200000000E+03 0. -1.
         -6    1    1    2    0  503  0.18455281261E+03 -0.75600984177E+02 -0.42852999090E+03  0.50298827278E+03  0.17200000000E+03 0. -1.
</event>
<event>
 4    1  0.4386646E+000  0.1826828E+03  0.7818608E-02  0.1165232E+00
         21   -1    0    0  503  502  0.00000000000E+00  0.00000000000E+00  0.51369158783E+03  0.51369158783E+03  0.00000000000E+00 0.  1.
         21   -1    0    0  501  503 -0.00000000000E+00 -0.00000000000E+00 -0.13475102539E+03  0.13475102539E+03  0.00000000000E+00 0.  1.
          6    1    1    2  501    0 -0.25384096305E+02  0.56077078522E+02 -0.43850586816E+02  0.18787193789E+03  0.17200000000E+03 0.  1.
         -6    1    1    2    0  502  0.25384096305E+02 -0.56077078522E+02  0.42279114926E+03  0.46057067533E+03  0.17200000000E+03 0.  1.
</event>
<event>
 4    1  0.4386646E+000  0.1924518E+03  0.7818608E-02  0.1156268E+00
         21   -1    0    0  503  502  0.00000000000E+00  0.00000000000E+00  0.10210944418E+03  0.10210944418E+03  0.00000000000E+00 0.  1.
         21   -1    0    0  501  503 -0.00000000000E+00 -0.00000000000E+00 -0.46694039064E+03  0.46694039064E+03  0.00000000000E+00 0. -1.
          6    1    1    2  501    0 -0.19632058184E+02 -0.84073072962E+02 -0.31683255766E+03  0.37070280401E+03  0.17200000000E+03 0. -1.
         -6    1    1    2    0  502  0.19632058184E+02  0.84073072962E+02 -0.47998388792E+02  0.19834703081E+03  0.17200000000E+03 0.  1.
</event>
<event>
 4    1  0.4386646E+000  0.2067500E+03  0.7818608E-02  0.1144166E+00
         21   -1    0    0  503  502  0.00000000000E+00  0.00000000000E+00  0.31113572704E+03  0.31113572704E+03  0.00000000000E+00 0. -1.
         21   -1    0    0  501  503 -0.00000000000E+00 -0.00000000000E+00 -0.13828858338E+03  0.13828858338E+03  0.00000000000E+00 0. -1.
          6    1    1    2  501    0  0.45167664683E+02  0.10545832476E+03  0.68265598918E+02  0.21772865725E+03  0.17200000000E+03 0. -1.
         -6    1    1    2    0  502 -0.45167664683E+02 -0.10545832476E+03  0.10458154474E+03  0.23169565316E+03  0.17200000000E+03 0. -1.
</event>
<event>
 4    1  0.4386646E+000  0.1825330E+03  0.7818608E-02  0.1165374E+00
         21   -1    0    0  501  502  0.00000000000E+00  0.00000000000E+00  0.90284317062E+03  0.90284317062E+03  0.00000000000E+00 0.  1.
         21   -1    0    0  502  503 -0.00000000000E+00 -0.00000000000E+00 -0.77754478109E+02  0.77754478109E+02  0.00000000000E+00 0. -1.
          6    1    1    2  501    0 -0.56550933578E+02  0.23158275908E+02  0.76792841729E+03  0.78932399426E+03  0.17200000000E+03 0.  1.
         -6    1    1    2    0  503  0.56550933578E+02 -0.23158275908E+02  0.57160275223E+02  0.19127365447E+03  0.17200000000E+03 0. -1.
</event>
<event>
 4    1  0.4386646E+000  0.2561547E+03  0.7818608E-02  0.1109476E+00
         21   -1    0    0  503  502  0.00000000000E+00  0.00000000000E+00  0.33640107946E+03  0.33640107946E+03  0.00000000000E+00 0. -1.
         21   -1    0    0  501  503 -0.00000000000E+00 -0.00000000000E+00 -0.21034123623E+03  0.21034123623E+03  0.00000000000E+00 0.  1.
          6    1    1    2  501    0  0.40719518551E+02  0.18539999735E+03 -0.10676107398E+02  0.25637710014E+03  0.17200000000E+03 0.  1.
         -6    1    1    2    0  502 -0.40719518551E+02 -0.18539999735E+03  0.13673595063E+03  0.29036521555E+03  0.17200000000E+03 0. -1.
</event>
<event>
 4    1  0.4386646E+000  0.1942406E+03  0.7818608E-02  0.1154691E+00
         21   -1    0    0  503  502  0.00000000000E+00  0.00000000000E+00  0.35528858937E+03  0.35528858937E+03  0.00000000000E+00 0.  1.
         21   -1    0    0  501  503 -0.00000000000E+00 -0.00000000000E+00 -0.10669843978E+03  0.10669843978E+03  0.00000000000E+00 0.  1.
          6    1    1    2  501    0 -0.27387951830E+02  0.85995930256E+02  0.14018297728E+03  0.23954262052E+03  0.17200000000E+03 0.  1.
         -6    1    1    2    0  502  0.27387951830E+02 -0.85995930256E+02  0.10840717231E+03  0.22244440864E+03  0.17200000000E+03 0.  1.
</event>
<event>
 4    1  0.4386646E+000  0.3420186E+03  0.7818608E-02  0.1065939E+00
         21   -1    0    0  503  502  0.00000000000E+00  0.00000000000E+00  0.43995646766E+03  0.43995646766E+03  0.00000000000E+00 0.  1.
         21   -1    0    0  501  503 -0.00000000000E+00 -0.00000000000E+00 -0.83719387401E+03  0.83719387401E+03  0.00000000000E+00 0. -1.
          6    1    1    2  501    0 -0.13878100455E+02  0.29529669839E+03 -0.72613445027E+03  0.80265059747E+03  0.17200000000E+03 0. -1.
         -6    1    1    2    0  502  0.13878100455E+02 -0.29529669839E+03  0.32889704392E+03  0.47449974420E+03  0.17200000000E+03 0.  1.
</event>
<event>
 4    1  0.4386646E+000  0.1804969E+03  0.7818608E-02  0.1167323E+00
         21   -1    0    0  503  502  0.00000000000E+00  0.00000000000E+00  0.83771817115E+03  0.83771817115E+03  0.00000000000E+00 0.  1.
         21   -1    0    0  501  503 -0.00000000000E+00 -0.00000000000E+00 -0.46958954327E+02  0.46958954327E+02  0.00000000000E+00 0.  1.
          6    1    1    2  501    0 -0.29492685179E+02  0.46101149904E+02  0.21202349551E+03  0.27844765604E+03  0.17200000000E+03 0.  1.
         -6    1    1    2    0  502  0.29492685179E+02 -0.46101149904E+02  0.57873572131E+03  0.60622946944E+03  0.17200000000E+03 0.  1.
</event>
<event>
 4    1  0.4386646E+000  0.1750912E+03  0.7818608E-02  0.1172640E+00
         21   -1    0    0  501  502  0.00000000000E+00  0.00000000000E+00  0.59293951460E+03  0.59293951460E+03  0.00000000000E+00 0. -1.
         21   -1    0    0  502  503 -0.00000000000E+00 -0.00000000000E+00 -0.59001159849E+02  0.59001159849E+02  0.00000000000E+00 0. -1.
          6    1    1    2  501    0 -0.31902914528E+02 -0.74251438362E+01  0.38161166763E+03  0.41986235076E+03  0.17200000000E+03 0.  1.
         -6    1    1    2    0  503  0.31902914528E+02  0.74251438362E+01  0.15232668712E+03  0.23207832369E+03  0.17200000000E+03 0.  1.
</event>
<event>
 4    1  0.4386646E+000  0.2314378E+03  0.7818608E-02  0.1125632E+00
         21   -1    0    0  501  502  0.00000000000E+00  0.00000000000E+00  0.80118244962E+02  0.80118244962E+02  0.00000000000E+00 0. -1.
         21   -1    0    0  502  503 -0.00000000000E+00 -0.00000000000E+00 -0.74091742262E+03  0.74091742262E+03  0.00000000000E+00 0.  1.
          6    1    1    2  501    0 -0.11445931436E+02  0.15442948638E+03 -0.20210662542E+03  0.30726302030E+03  0.17200000000E+03 0. -1.
         -6    1    1    2    0  503  0.11445931436E+02 -0.15442948638E+03 -0.45869255224E+03  0.51377264728E+03  0.17200000000E+03 0.  1.
</event>
<event>
 4    1  0.4386646E+000  0.2495053E+03  0.7818608E-02  0.1113618E+00
         21   -1    0    0  503  502  0.00000000000E+00  0.00000000000E+00  0.13771460841E+04  0.13771460841E+04  0.00000000000E+00 0. -1.
         21   -1    0    0  501  503 -0.00000000000E+00 -0.00000000000E+00 -0.50319248751E+02  0.50319248751E+02  0.00000000000E+00 0.  1.
          6    1    1    2  501    0  0.16657660400E+03  0.70150841974E+02  0.43585666268E+03  0.50221901202E+03  0.17200000000E+03 0. -1.
         -6    1    1    2    0  502 -0.16657660400E+03 -0.70150841974E+02  0.89097017262E+03  0.92524632079E+03  0.17200000000E+03 0.  1.
</event>
<event>
 4    1  0.4386646E+000  0.2369596E+03  0.7818608E-02  0.1121835E+00
         21   -1    0    0  503  502  0.00000000000E+00  0.00000000000E+00  0.12385412287E+04  0.12385412287E+04  0.00000000000E+00 0. -1.
         21   -1    0    0  501  503 -0.00000000000E+00 -0.00000000000E+00 -0.10839636700E+03  0.10839636700E+03  0.00000000000E+00 0. -1.
          6    1    1    2  501    0  0.87243304255E+01 -0.16275671793E+03  0.51395398469E+02  0.24246927673E+03  0.17200000000E+03 0. -1.
         -6    1    1    2    0  502 -0.87243304255E+01  0.16275671793E+03  0.10787494633E+04  0.11044683190E+04  0.17200000000E+03 0. -1.
</event>
<event>
 4    1  0.4386646E+000  0.2079401E+03  0.7818608E-02  0.1143208E+00
         21   -1    0    0  503  502  0.00000000000E+00  0.00000000000E+00  0.16977029017E+03  0.16977029017E+03  0.00000000000E+00 0. -1.
         21   -1    0    0  501  503 -0.00000000000E+00 -0.00000000000E+00 -0.27371420394E+03  0.27371420394E+03  0.00000000000E+00 0. -1.
          6    1    1    2  501    0  0.11488002083E+03 -0.21393529391E+02 -0.11042839859E+03  0.23544327024E+03  0.17200000000E+03 0. -1.
         -6    1    1    2    0  502 -0.11488002083E+03  0.21393529391E+02  0.64844848252E+01  0.20804122387E+03  0.17200000000E+03 0. -1.
</event>
<event>
 4    1  0.4386646E+000  0.1815575E+03  0.7818608E-02  0.1166304E+00
         21   -1    0    0  501  502  0.00000000000E+00  0.00000000000E+00  0.59951660727E+03  0.59951660727E+03  0.00000000000E+00 0. -1.
         21   -1    0    0  502  503 -0.00000000000E+00 -0.00000000000E+00 -0.57693143244E+02  0.57693143244E+02  0.00000000000E+00 0.  1.
          6    1    1    2  501    0 -0.42103476966E+02  0.40080417279E+02  0.34213445644E+03  0.38732302914E+03  0.17200000000E+03 0. -1.
         -6    1    1    2    0  503  0.42103476966E+02 -0.40080417279E+02  0.19968900759E+03  0.26988672137E+03  0.17200000000E+03 0.  1.
</event>
<event>
 4    1  0.4386646E+000  0.5039326E+03  0.7818608E-02  0.1012758E+00
         21   -1    0    0  501  502  0.00000000000E+00  0.00000000000E+00  0.47358402573E+03  0.47358402573E+03  0.00000000000E+00 0. -1.
         21   -1    0    0  502  503 -0.00000000000E+00 -0.00000000000E+00 -0.74645399460E+03  0.74645399460E+03  0.00000000000E+00 0.  1.
          6    1    1    2  501    0 -0.47301756396E+03  0.24869457727E+02  0.18729806412E+03  0.53761386753E+03  0.17200000000E+03 0. -1.
         -6    1    1    2    0  503  0.47301756396E+03 -0.24869457727E+02 -0.46016803299E+03  0.68242415280E+03  0.17200000000E+03 0.  1.
</event>
<event>
 4    1  0.4386646E+000  0.2109984E+03  0.7818608E-02  0.1140778E+00
         21   -1    0    0  501  502  0.00000000000E+00  0.00000000000E+00  0.41433834676E+03  0.41433834676E+03  0.00000000000E+00 0.  1.
         21   -1    0    0  502  503 -0.00000000000E+00 -0.00000000000E+00 -0.12400738073E+03  0.12400738073E+03  0.00000000000E+00 0.  1.
          6    1    1    2  501    0 -0.79961732718E+02  0.92425438243E+02  0.46806666055E+02  0.21612775000E+03  0.17200000000E+03 0.  1.
         -6    1    1    2    0  503  0.79961732718E+02 -0.92425438243E+02  0.24352429997E+03  0.32221797748E+03  0.17200000000E+03 0.  1.
</event>
<event>
 4    1  0.4386646E+000  0.2597582E+03  0.7818608E-02  0.1107289E+00
         21   -1    0    0  503  502  0.00000000000E+00  0.00000000000E+00  0.28180464534E+03  0.28180464534E+03  0.00000000000E+00 0. -1.
         21   -1    0    0  501  503 -0.00000000000E+00 -0.00000000000E+00 -0.27246027190E+03  0.27246027190E+03  0.00000000000E+00 0.  1.
          6    1    1    2  501    0 -0.57391911196E+02  0.18600136882E+03 -0.91810327016E+02  0.27550585623E+03  0.17200000000E+03 0.  1.
         -6    1    1    2    0  502  0.57391911196E+02 -0.18600136882E+03  0.10115470045E+03  0.27875906101E+03  0.17200000000E+03 0. -1.
</event>
<event>
 4    1  0.4386646E+000  0.2011324E+03  0.7818608E-02  0.1148787E+00
         21   -1    0    0  501  502  0.00000000000E+00  0.00000000000E+00  0.22030632010E+03  0.22030632010E+03  0.00000000000E+00 0. -1.
         21   -1    0    0  502  503 -0.00000000000E+00 -0.00000000000E+00 -0.19598555725E+03  0.19598555725E+03  0.00000000000E+00 0. -1.
          6    1    1    2  501    0 -0.37895488872E+02 -0.97129685113E+02 -0.40107559854E+02  0.20509232108E+03  0.17200000000E+03 0. -1.
         -6    1    1    2    0  503  0.37895488872E+02  0.97129685113E+02  0.64428322701E+02  0.21119955628E+03  0.17200000000E+03 0. -1.
</event>
<event>
 4    1  0.4386646E+000  0.2044585E+03  0.7818608E-02  0.1146031E+00
         21   -1    0    0  501  502  0.00000000000E+00  0.00000000000E+00  0.39961929147E+03  0.39961929147E+03  0.00000000000E+00 0. -1.
         21   -1    0    0  502  503 -0.00000000000E+00 -0.00000000000E+00 -0.46425376130E+03  0.46425376130E+03  0.00000000000E+00 0. -1.
          6    1    1    2  501    0  0.43487637810E+02 -0.10162721425E+03  0.34785452603E+03  0.40349230054E+03  0.17200000000E+03 0. -1.
         -6    1    1    2    0  503 -0.43487637810E+02  0.10162721425E+03 -0.41248899585E+03  0.46038075223E+03  0.17200000000E+03 0. -1.
</event>
<event>
 4    1  0.4386646E+000  0.1747411E+03  0.7818608E-02  0.1172992E+00
         21   -1    0    0  501  502  0.00000000000E+00  0.00000000000E+00  0.96718738343E+02  0.96718738343E+02  0.00000000000E+00 0.  1.
         21   -1    0    0  502  503 -0.00000000000E+00 -0.00000000000E+00 -0.45896464871E+03  0.45896464871E+03  0.00000000000E+00 0.  1.
          6    1    1    2  501    0  0.22788006007E+02 -0.20764367890E+02 -0.25894302116E+02  0.17664927703E+03  0.17200000000E+03 0.  1.
         -6    1    1    2    0  503 -0.22788006007E+02  0.20764367890E+02 -0.33635160825E+03  0.37903411003E+03  0.17200000000E+03 0.  1.
</event>
<event>
 4    1  0.4386646E+000  0.1770357E+03  0.7818608E-02  0.1170703E+00
         21   -1    0    0  501  502  0.00000000000E+00  0.00000000000E+00  0.40411121042E+03  0.40411121042E+03  0.00000000000E+00 0. -1.
         21   -1    0    0  502  503 -0.00000000000E+00 -0.00000000000E+00 -0.16925672615E+03  0.16925672615E+03  0.00000000000E+00 0. -1.
          6    1    1    2  501    0 -0.33008387203E+02 -0.25847672177E+02  0.32844278384E+03  0.37311702995E+03  0.17200000000E+03 0. -1.
         -6    1    1    2    0  503  0.33008387203E+02  0.25847672177E+02 -0.93588299569E+02  0.20025090661E+03  0.17200000000E+03 0. -1.
</event>
<event>
 4    1  0.4386646E+000  0.2017087E+03  0.7818608E-02  0.1148305E+00
         21   -1    0    0  501  502  0.00000000000E+00  0.00000000000E+00  0.48992365132E+02  0.48992365132E+02  0.00000000000E+00 0.  1.
         21   -1    0    0  502  503 -0.00000000000E+00 -0.00000000000E+00 -0.83486514366E+03  0.83486514366E+03  0.00000000000E+00 0. -1.
          6    1    1    2  501    0 -0.31303949373E+02  0.10061052043E+03 -0.36085093550E+03  0.41340030445E+03  0.17200000000E+03 0.  1.
         -6    1    1    2    0  503  0.31303949373E+02 -0.10061052043E+03 -0.42502184303E+03  0.47045720434E+03  0.17200000000E+03 0.  1.
</event>
<event>
 4    1  0.4386646E+000  0.1947041E+03  0.7818608E-02  0.1154286E+00
         21   -1    0    0  501  502  0.00000000000E+00  0.00000000000E+00  0.28524389748E+03  0.28524389748E+03  0.00000000000E+00 0.  1.
         21   -1    0    0  502  503 -0.00000000000E+00 -0.00000000000E+00 -0.18950154618E+03  0.18950154618E+03  0.00000000000E+00 0. -1.
          6    1    1    2  501    0 -0.30024209298E+02 -0.86164058107E+02  0.17759747593E+03  0.26353474441E+03  0.17200000000E+03 0.  1.
         -6    1    1    2    0  503  0.30024209298E+02  0.86164058107E+02 -0.81855124629E+02  0.21121069926E+03  0.17200000000E+03 0. -1.
</event>
<event>
 4    1  0.4386646E+000  0.2015994E+03  0.7818608E-02  0.1148397E+00
         21   -1    0    0  501  502  0.00000000000E+00  0.00000000000E+00  0.12890437514E+04  0.12890437514E+04  0.00000000000E+00 0.  1.
         21   -1    0    0  502  503 -0.00000000000E+00 -0.00000000000E+00 -0.32489796009E+02  0.32489796009E+02  0.00000000000E+00 0. -1.
          6    1    1    2  501    0 -0.89544093244E+02  0.55137937938E+02  0.74190276480E+03  0.76880559913E+03  0.17200000000E+03 0.  1.
         -6    1    1    2    0  503  0.89544093244E+02 -0.55137937938E+02  0.51465119061E+03  0.55272794830E+03  0.17200000000E+03 0. -1.
</event>
<event>
 4    1  0.4386646E+000  0.1866464E+03  0.7818608E-02  0.1161521E+00
         21   -1    0    0  503  502  0.00000000000E+00  0.00000000000E+00  0.31947889213E+03  0.31947889213E+03  0.00000000000E+00 0.  1.
         21   -1    0    0  501  503 -0.00000000000E+00 -0.00000000000E+00 -0.12626042598E+03  0.12626042598E+03  0.00000000000E+00 0.  1.
          6    1    1    2  501    0  0.64257038683E+02 -0.33524559887E+02  0.14308378410E+02  0.18719399784E+03  0.17200000000E+03 0.  1.
         -6    1    1    2    0  502 -0.64257038683E+02  0.33524559887E+02  0.17891008775E+03  0.25854532027E+03  0.17200000000E+03 0.  1.
</event>
<event>
 4    1  0.4386646E+000  0.2007352E+03  0.7818608E-02  0.1149120E+00
         21   -1    0    0  503  502  0.00000000000E+00  0.00000000000E+00  0.13041182058E+03  0.13041182058E+03  0.00000000000E+00 0.  1.
         21   -1    0    0  501  503 -0.00000000000E+00 -0.00000000000E+00 -0.13509400398E+04  0.13509400398E+04  0.00000000000E+00 0.  1.
          6    1    1    2  501    0  0.10322605969E+03  0.74158811891E+01 -0.12607468444E+04  0.12766272832E+04  0.17200000000E+03 0.  1.
         -6    1    1    2    0  502 -0.10322605969E+03 -0.74158811891E+01  0.40218625119E+02  0.20472457717E+03  0.17200000000E+03 0.  1.
</event>
<event>
 4    1  0.4386646E+000  0.2087998E+03  0.7818608E-02  0.1142520E+00
         21   -1    0    0  501  502  0.00000000000E+00  0.00000000000E+00  0.18366950702E+03  0.18366950702E+03  0.00000000000E+00 0. -1.
         21   -1    0    0  502  503 -0.00000000000E+00 -0.00000000000E+00 -0.36507237942E+03  0.36507237942E+03  0.00000000000E+00 0. -1.
          6    1    1    2  501    0 -0.10256716138E+03 -0.59104389125E+02  0.71573224635E+02  0.22072625102E+03  0.17200000000E+03 0. -1.
         -6    1    1    2    0  503  0.10256716138E+03  0.59104389125E+02 -0.25297609703E+03  0.32801563542E+03  0.17200000000E+03 0. -1.
</event>
<event>
 4    1  0.4386646E+000  0.2329282E+03  0.7818608E-02  0.1124596E+00
         21   -1    0    0  501  502  0.00000000000E+00  0.00000000000E+00  0.22378901554E+03  0.22378901554E+03  0.00000000000E+00 0.  1.
         21   -1    0    0  502  503 -0.00000000000E+00 -0.00000000000E+00 -0.25523219205E+03  0.25523219205E+03  0.00000000000E+00 0. -1.
          6    1    1    2  501    0 -0.15215112886E+03  0.39007207897E+02  0.37897626848E+02  0.23599101339E+03  0.17200000000E+03 0.  1.
         -6    1    1    2    0  503  0.15215112886E+03 -0.39007207897E+02 -0.69340803364E+02  0.24303019420E+03  0.17200000000E+03 0. -1.
</event>
<event>
 4    1  0.4386646E+000  0.3360951E+03  0.7818608E-02  0.1068471E+00
         21   -1    0    0  503  502  0.00000000000E+00  0.00000000000E+00  0.10135354911E+04  0.10135354911E+04  0.00000000000E+00 0. -1.
         21   -1    0    0  501  503 -0.00000000000E+00 -0.00000000000E+00 -0.16050481028E+03  0.16050481028E+03  0.00000000000E+00 0. -1.
          6    1    1    2  501    0 -0.11220386516E+03 -0.26605681665E+03  0.10199371673E+03  0.35123020271E+03  0.17200000000E+03 0. -1.
         -6    1    1    2    0  502  0.11220386516E+03  0.26605681665E+03  0.75103696407E+03  0.82281009865E+03  0.17200000000E+03 0. -1.
</event>
<event>
 4    1  0.4386646E+000  0.1790783E+03  0.7818608E-02  0.1168698E+00
         21   -1    0    0  501  502  0.00000000000E+00  0.00000000000E+00  0.71131031512E+03  0.71131031512E+03  0.00000000000E+00 0. -1.
         21   -1    0    0  502  503 -0.00000000000E+00 -0.00000000000E+00 -0.11094103987E+03  0.11094103987E+03  0.00000000000E+00 0. -1.
          6    1    1    2  501    0 -0.36171855575E+02 -0.34302181101E+02  0.61694298343E+03  0.64240772689E+03  0.17200000000E+03 0. -1.
         -6    1    1    2    0  503  0.36171855575E+02  0.34302181101E+02 -0.16573708186E+02  0.17984362810E+03  0.17200000000E+03 0. -1.
</event>
<event>
 4    1  0.4386646E+000  0.1780077E+03  0.7818608E-02  0.1169745E+00
         21   -1    0    0  501  502  0.00000000000E+00  0.00000000000E+00  0.44198712175E+02  0.44198712175E+02  0.00000000000E+00 0. -1.
         21   -1    0    0  502  503 -0.00000000000E+00 -0.00000000000E+00 -0.73413373490E+03  0.73413373490E+03  0.00000000000E+00 0. -1.
          6    1    1    2  501    0 -0.90528495860E+01 -0.44953323484E+02 -0.28536864484E+03  0.33633616938E+03  0.17200000000E+03 0.  1.
         -6    1    1    2    0  503  0.90528495860E+01  0.44953323484E+02 -0.40456637789E+03  0.44199627769E+03  0.17200000000E+03 0.  1.
</event>
<event>
 4    1  0.4386646E+000  0.3077979E+03  0.7818608E-02  0.1081406E+00
         21   -1    0    0  503  502  0.00000000000E+00  0.00000000000E+00  0.20858908744E+03  0.20858908744E+03  0.00000000000E+00 0.  1.
         21   -1    0    0  501  503 -0.00000000000E+00 -0.00000000000E+00 -0.10200903173E+04  0.10200903173E+04  0.00000000000E+00 0. -1.
          6    1    1    2  501    0 -0.56440730312E+02  0.24893775854E+03 -0.86332146012E+03  0.91654978434E+03  0.17200000000E+03 0. -1.
         -6    1    1    2    0  502  0.56440730312E+02 -0.24893775854E+03  0.51820230270E+02  0.31212962040E+03  0.17200000000E+03 0.  1.
</event>
<event>
 4    1  0.4386646E+000  0.2222849E+03  0.7818608E-02  0.1132191E+00
         21   -1    0    0  501  502  0.00000000000E+00  0.00000000000E+00  0.13741086077E+03  0.13741086077E+03  0.00000000000E+00 0.  1.
         21   -1    0    0  502  503 -0.00000000000E+00 -0.00000000000E+00 -0.35993328969E+03  0.35993328969E+03  0.00000000000E+00 0. -1.
          6    1    1    2  501    0 -0.12148928714E+03  0.71182455747E+02 -0.11902051972E+03  0.25214375465E+03  0.17200000000E+03 0.  1.
         -6    1    1    2    0  503  0.12148928714E+03 -0.71182455747E+02 -0.10350190920E+03  0.24520039581E+03  0.17200000000E+03 0. -1.
</event>
<event>
 4    1  0.4386646E+000  0.1821831E+03  0.7818608E-02  0.1165707E+00
         21   -1    0    0  501  502  0.00000000000E+00  0.00000000000E+00  0.69258490549E+02  0.69258490549E+02  0.00000000000E+00 0. -1.
         21   -1    0    0  502  503 -0.00000000000E+00 -0.00000000000E+00 -0.50517269913E+03  0.50517269913E+03  0.00000000000E+00 0. -1.
          6    1    1    2  501    0  0.40948214941E+02  0.43930756797E+02 -0.15286846768E+03  0.23782227841E+03  0.17200000000E+03 0. -1.
         -6    1    1    2    0  503 -0.40948214941E+02 -0.43930756797E+02 -0.28304574090E+03  0.33660891126E+03  0.17200000000E+03 0. -1.
</event>
<event>
 4    1  0.4386646E+000  0.2121435E+03  0.7818608E-02  0.1139880E+00
         21   -1    0    0  501  502  0.00000000000E+00  0.00000000000E+00  0.16183800179E+04  0.16183800179E+04  0.00000000000E+00 0. -1.
         21   -1    0    0  502  503 -0.00000000000E+00 -0.00000000000E+00 -0.29791703474E+02  0.29791703474E+02  0.00000000000E+00 0. -1.
          6    1    1    2  501    0 -0.75264348276E+02  0.98773240874E+02  0.10069111533E+04  0.10290164944E+04  0.17200000000E+03 0. -1.
         -6    1    1    2    0  503  0.75264348276E+02 -0.98773240874E+02  0.58167716110E+03  0.61915522689E+03  0.17200000000E+03 0. -1.
</event>
<event>
 4    1  0.4386646E+000  0.1875203E+03  0.7818608E-02  0.1160717E+00
         21   -1    0    0  503  502  0.00000000000E+00  0.00000000000E+00  0.25642339472E+03  0.25642339472E+03  0.00000000000E+00 0. -1.
         21   -1    0    0  501  503 -0.00000000000E+00 -0.00000000000E+00 -0.41838540895E+03  0.41838540895E+03  0.00000000000E+00 0. -1.
          6    1    1    2  501    0 -0.63440141480E+02  0.39436293050E+02 -0.35761867641E+03  0.40380068162E+03  0.17200000000E+03 0. -1.
         -6    1    1    2    0  502  0.63440141480E+02 -0.39436293050E+02  0.19565666218E+03  0.27100812205E+03  0.17200000000E+03 0. -1.
</event>
<event>
 4    1  0.4386646E+000  0.2186820E+03  0.7818608E-02  0.1134869E+00
         21   -1    0    0  501  502  0.00000000000E+00  0.00000000000E+00  0.68328636449E+03  0.68328636449E+03  0.00000000000E+00 0. -1.
         21   -1    0    0  502  503 -0.00000000000E+00 -0.00000000000E+00 -0.75121800926E+02  0.75121800926E+02  0.00000000000E+00 0. -1.
          6    1    1    2  501    0  0.12665651796E+03  0.46861025121E+02  0.40321352774E+03  0.45869704400E+03  0.17200000000E+03 0. -1.
         -6    1    1    2    0  503 -0.12665651796E+03 -0.46861025121E+02  0.20495103582E+03  0.29971112142E+03  0.17200000000E+03 0. -1.
</event>
<event>
 4    1  0.4386646E+000  0.2384833E+03  0.7818608E-02  0.1120807E+00
         21   -1    0    0  501  502  0.00000000000E+00  0.00000000000E+00  0.22769904860E+03  0.22769904860E+03  0.00000000000E+00 0.  1.
         21   -1    0    0  502  503 -0.00000000000E+00 -0.00000000000E+00 -0.40808101284E+03  0.40808101284E+03  0.00000000000E+00 0.  1.
          6    1    1    2  501    0  0.10200953636E+03 -0.12993972360E+03  0.10780114291E+03  0.26171618920E+03  0.17200000000E+03 0.  1.
         -6    1    1    2    0  503 -0.10200953636E+03  0.12993972360E+03 -0.28818310714E+03  0.37406387224E+03  0.17200000000E+03 0.  1.
</event>
<event>
 4    1  0.4386646E+000  0.2579134E+03  0.7818608E-02  0.1108403E+00
         21   -1    0    0  503  502  0.00000000000E+00  0.00000000000E+00  0.24904344373E+04  0.24904344373E+04  0.00000000000E+00 0. -1.
         21   -1    0    0  501  503 -0.00000000000E+00 -0.00000000000E+00 -0.36485817952E+02  0.36485817952E+02  0.00000000000E+00 0.  1.
          6    1    1    2  501    0  0.19073051374E+03  0.23604469834E+02  0.18809744919E+04  0.18985742912E+04  0.17200000000E+03 0. -1.
         -6    1    1    2    0  502 -0.19073051374E+03 -0.23604469834E+02  0.57297412746E+03  0.62834596411E+03  0.17200000000E+03 0.  1.
</event>
<event>
 4    1  0.4386646E+000  0.1735042E+03  0.7818608E-02  0.1174242E+00
         21   -1    0    0  501  502  0.00000000000E+00  0.00000000000E+00  0.18878506082E+03  0.18878506082E+03  0.00000000000E+00 0.  1.
         21   -1    0    0  502  503 -0.00000000000E+00 -0.00000000000E+00 -0.42428554419E+03  0.42428554419E+03  0.00000000000E+00 0.  1.
          6    1    1    2  501    0  0.77152797545E+01 -0.21451922709E+02  0.12442576996E+03  0.21350757073E+03  0.17200000000E+03 0.  1.
         -6    1    1    2    0  503 -0.77152797545E+01  0.21451922709E+02 -0.35992625333E+03  0.39956303428E+03  0.17200000000E+03 0.  1.
</event>
<event>
 4    1  0.4386646E+000  0.1999053E+03  0.7818608E-02  0.1149819E+00
         21   -1    0    0  501  502  0.00000000000E+00  0.00000000000E+00  0.15793976765E+04  0.15793976765E+04  0.00000000000E+00 0. -1.
         21   -1    0    0  502  503 -0.00000000000E+00 -0.00000000000E+00 -0.25189183519E+03  0.25189183519E+03  0.00000000000E+00 0. -1.
          6    1    1    2  501    0 -0.10124881075E+03 -0.11260405912E+02  0.15321934003E+04  0.15451791917E+04  0.17200000000E+03 0. -1.
         -6    1    1    2    0  503  0.10124881075E+03  0.11260405912E+02 -0.20468755899E+03  0.28611032002E+03  0.17200000000E+03 0. -1.
</event>
<event>
 4    1  0.4386646E+000  0.2102043E+03  0.7818608E-02  0.1141404E+00
         21   -1    0    0  501  502  0.00000000000E+00  0.00000000000E+00  0.43665112036E+03  0.43665112036E+03  0.00000000000E+00 0.  1.
         21   -1    0    0  502  503 -0.00000000000E+00 -0.00000000000E+00 -0.10580648662E+03  0.10580648662E+03  0.00000000000E+00 0. -1.
          6    1    1    2  501    0  0.60528923864E+02 -0.10458544938E+03  0.10878370310E+03  0.23668494017E+03  0.17200000000E+03 0. -1.
         -6    1    1    2    0  503 -0.60528923864E+02  0.10458544938E+03  0.22206093064E+03  0.30577266680E+03  0.17200000000E+03 0. -1.
</event>
<event>
 4    1  0.4386646E+000  0.2243836E+03  0.7818608E-02  0.1130656E+00
         21   -1    0    0  503  502  0.00000000000E+00  0.00000000000E+00  0.11707680953E+04  0.11707680953E+04  0.00000000000E+00 0. -1.
         21   -1    0    0  501  503 -0.00000000000E+00 -0.00000000000E+00 -0.18771628062E+03  0.18771628062E+03  0.00000000000E+00 0.  1.
          6    1    1    2  501    0  0.48263074984E+02  0.13577430460E+03 -0.10485814744E+03  0.24767562916E+03  0.17200000000E+03 0.  1.
         -6    1    1    2    0  502 -0.48263074984E+02 -0.13577430460E+03  0.10879099621E+04  0.11108087467E+04  0.17200000000E+03 0. -1.
</event>
<event>
 4    1  0.4386646E+000  0.1817524E+03  0.7818608E-02  0.1166118E+00
         21   -1    0    0  503  502  0.00000000000E+00  0.00000000000E+00  0.14082145985E+03  0.14082145985E+03  0.00000000000E+00 0.  1.
         21   -1    0    0  501  503 -0.00000000000E+00 -0.00000000000E+00 -0.26213329237E+03  0.26213329237E+03  0.00000000000E+00 0.  1.
          6    1    1    2  501    0  0.95249632908E+01  0.57958799857E+02 -0.12597636857E+03  0.22114247182E+03  0.17200000000E+03 0.  1.
         -6    1    1    2    0  502 -0.95249632908E+01 -0.57958799857E+02  0.46645360519E+01  0.18181228040E+03  0.17200000000E+03 0.  1.
</event>
<event>
 4    1  0.4386646E+000  0.1802892E+03  0.7818608E-02  0.1167523E+00
         21   -1    0    0  503  502  0.00000000000E+00  0.00000000000E+00  0.33864145359E+03  0.33864145359E+03  0.00000000000E+00 0. -1.
         21   -1    0    0  501  503 -0.00000000000E+00 -0.00000000000E+00 -0.18118594355E+03  0.18118594355E+03  0.00000000000E+00 0. -1.
          6    1    1    2  501    0 -0.53520037640E+02 -0.74692358652E+01 -0.99506632799E+02  0.20592657401E+03  0.17200000000E+03 0. -1.
         -6    1    1    2    0  502  0.53520037640E+02  0.74692358652E+01  0.25696214284E+03  0.31390082313E+03  0.17200000000E+03 0. -1.
</event>
<event>
 4    1  0.4386646E+000  0.2071485E+03  0.7818608E-02  0.1143844E+00
         21   -1    0    0  503  502  0.00000000000E+00  0.00000000000E+00  0.16397010013E+04  0.16397010013E+04  0.00000000000E+00 0.  1.
         21   -1    0    0  501  503 -0.00000000000E+00 -0.00000000000E+00 -0.26287304360E+02  0.26287304360E+02  0.00000000000E+00 0.  1.
          6    1    1    2  501    0  0.15486744529E+02  0.11439693084E+03  0.75099274389E+03  0.77903825222E+03  0.17200000000E+03 0.  1.
         -6    1    1    2    0  502 -0.15486744529E+02 -0.11439693084E+03  0.86242095307E+03  0.88695005346E+03  0.17200000000E+03 0.  1.
</event>
<event>
 4    1  0.4386646E+000  0.1758539E+03  0.7818608E-02  0.1171877E+00
         21   -1    0    0  501  502  0.00000000000E+00  0.00000000000E+00  0.10287813578E+03  0.10287813578E+03  0.00000000000E+00 0. -1.
         21   -1    0    0  502  503 -0.00000000000E+00 -0.00000000000E+00 -0.34848549955E+03  0.34848549955E+03  0.00000000000E+00 0. -1.
          6    1    1    2  501    0  0.23019608604E+02 -0.28472463152E+02 -0.39140963816E+02  0.18015714970E+03  0.17200000000E+03 0. -1.
         -6    1    1    2    0  503 -0.23019608604E+02  0.28472463152E+02 -0.20646639995E+03  0.27120648563E+03  0.17200000000E+03 0. -1.
</event>
<event>
 4    1  0.4386646E+000  0.2017897E+03  0.7818608E-02  0.1148238E+00
         21   -1    0    0  501  502  0.00000000000E+00  0.00000000000E+00  0.40891461657E+03  0.40891461657E+03  0.00000000000E+00 0. -1.
         21   -1    0    0  502  503 -0.00000000000E+00 -0.00000000000E+00 -0.15494975009E+03  0.15494975009E+03  0.00000000000E+00 0. -1.
          6    1    1    2  501    0 -0.32969336114E+02  0.10024025853E+03  0.29551799288E+03  0.35784070572E+03  0.17200000000E+03 0. -1.
         -6    1    1    2    0  503  0.32969336114E+02 -0.10024025853E+03 -0.41553126397E+02  0.20602366094E+03  0.17200000000E+03 0. -1.
</event>
<event>
 4    1  0.4386646E+000  0.2242031E+03  0.7818608E-02  0.1130788E+00
         21   -1    0    0  503  502  0.00000000000E+00  0.00000000000E+00  0.66171679244E+03  0.66171679244E+03  0.00000000000E+00 0.  1.
         21   -1    0    0  501  503 -0.00000000000E+00 -0.00000000000E+00 -0.16619260364E+03  0.16619260364E+03  0.00000000000E+00 0. -1.
          6    1    1    2  501    0  0.14225662544E+03  0.21121019941E+02 -0.57250426545E+02  0.23139718301E+03  0.17200000000E+03 0. -1.
         -6    1    1    2    0  502 -0.14225662544E+03 -0.21121019941E+02  0.55277461535E+03  0.59651221307E+03  0.17200000000E+03 0.  1.
</event>
<event>
 4    1  0.4386646E+000  0.2338922E+03  0.7818608E-02  0.1123930E+00
         21   -1    0    0  503  502  0.00000000000E+00  0.00000000000E+00  0.34118185141E+02  0.34118185141E+02  0.00000000000E+00 0.  1.
         21   -1    0    0  501  503 -0.00000000000E+00 -0.00000000000E+00 -0.16035340707E+04  0.16035340707E+04  0.00000000000E+00 0. -1.
          6    1    1    2  501    0 -0.13935985729E+03 -0.75500866100E+02 -0.77760075468E+03  0.81201507639E+03  0.17200000000E+03 0.  1.
         -6    1    1    2    0  502  0.13935985729E+03  0.75500866100E+02 -0.79181513091E+03  0.82563717948E+03  0.17200000000E+03 0. -1.
</event>
<event>
 4    1  0.4386646E+000  0.2045838E+03  0.7818608E-02  0.1145928E+00
         21   -1    0    0  501  502  0.00000000000E+00  0.00000000000E+00  0.77825635755E+02  0.77825635755E+02  0.00000000000E+00 0.  1.
         21   -1    0    0  502  503 -0.00000000000E+00 -0.00000000000E+00 -0.20603101325E+04  0.20603101325E+04  0.00000000000E+00 0.  1.
          6    1    1    2  501    0 -0.94457476640E+02 -0.57864798299E+02 -0.72234398370E+02  0.21696165118E+03  0.17200000000E+03 0.  1.
         -6    1    1    2    0  503  0.94457476640E+02  0.57864798299E+02 -0.19102500984E+04  0.19211741171E+04  0.17200000000E+03 0.  1.
</event>
<event>
 4    1  0.4386646E+000  0.2339664E+03  0.7818608E-02  0.1123879E+00
         21   -1    0    0  501  502  0.00000000000E+00  0.00000000000E+00  0.46004031813E+03  0.46004031813E+03  0.00000000000E+00 0.  1.
         21   -1    0    0  502  503 -0.00000000000E+00 -0.00000000000E+00 -0.14286670347E+03  0.14286670347E+03  0.00000000000E+00 0. -1.
          6    1    1    2  501    0 -0.53599718918E+02 -0.14927608499E+03  0.28182360279E+03  0.36628516556E+03  0.17200000000E+03 0.  1.
         -6    1    1    2    0  503  0.53599718918E+02  0.14927608499E+03  0.35350011860E+02  0.23662185604E+03  0.17200000000E+03 0. -1.
</event>
<event>
 4    1  0.4386646E+000  0.2337107E+03  0.7818608E-02  0.1124055E+00
         21   -1    0    0  501  502  0.00000000000E+00  0.00000000000E+00  0.15478623075E+03  0.15478623075E+03  0.00000000000E+00 0.  1.
         21   -1    0    0  502  503 -0.00000000000E+00 -0.00000000000E+00 -0.36092431684E+03  0.36092431684E+03  0.00000000000E+00 0. -1.
          6    1    1    2  501    0 -0.14229908558E+03 -0.69192944572E+02 -0.64569114700E+02  0.24246621189E+03  0.17200000000E+03 0.  1.
         -6    1    1    2    0  503  0.14229908558E+03  0.69192944572E+02 -0.14156897138E+03  0.27324433570E+03  0.17200000000E+03 0.  1.
</event>
<event>
 4    1  0.4386646E+000  0.1842644E+03  0.7818608E-02  0.1163739E+00
         21   -1    0    0  501  502  0.00000000000E+00  0.00000000000E+00  0.10618347623E+03  0.10618347623E+03  0.00000000000E+00 0.  1.
         21   -1    0    0  502  503 -0.00000000000E+00 -0.00000000000E+00 -0.26898437772E+04  0.26898437772E+04  0.00000000000E+00 0.  1.
          6    1    1    2  501    0  0.54493208697E+02 -0.37414640535E+02  0.20459206710E+02  0.18539672128E+03  0.17200000000E+03 0.  1.
         -6    1    1    2    0  503 -0.54493208697E+02  0.37414640535E+02 -0.26041195077E+04  0.26106305322E+04  0.17200000000E+03 0.  1.
</event>
<event>
 4    1  0.4386646E+000  0.1873870E+03  0.7818608E-02  0.1160839E+00
         21   -1    0    0  503  502  0.00000000000E+00  0.00000000000E+00  0.37448824046E+03  0.37448824046E+03  0.00000000000E+00 0.  1.
         21   -1    0    0  501  503 -0.00000000000E+00 -0.00000000000E+00 -0.96182591929E+02  0.96182591929E+02  0.00000000000E+00 0.  1.
          6    1    1    2  501    0  0.73491766250E+02  0.11351802269E+02  0.10184264193E+03  0.21327406508E+03  0.17200000000E+03 0.  1.
         -6    1    1    2    0  502 -0.73491766250E+02 -0.11351802269E+02  0.17646300660E+03  0.25739676731E+03  0.17200000000E+03 0.  1.
</event>
<event>
 4    1  0.4386646E+000  0.2309792E+03  0.7818608E-02  0.1125952E+00
         21   -1    0    0  501  502  0.00000000000E+00  0.00000000000E+00  0.25265208719E+02  0.25265208719E+02  0.00000000000E+00 0.  1.
         21   -1    0    0  502  503 -0.00000000000E+00 -0.00000000000E+00 -0.21128464195E+04  0.21128464195E+04  0.00000000000E+00 0.  1.
          6    1    1    2  501    0 -0.14061923958E+03 -0.63195106624E+02 -0.10691820445E+04  0.10938471723E+04  0.17200000000E+03 0.  1.
         -6    1    1    2    0  503  0.14061923958E+03  0.63195106624E+02 -0.10183991663E+04  0.10442644559E+04  0.17200000000E+03 0.  1.
</event>
<event>
 4    1  0.4386646E+000  0.2269105E+03  0.7818608E-02  0.1128833E+00
         21   -1    0    0  501  502  0.00000000000E+00  0.00000000000E+00  0.19392914016E+03  0.19392914016E+03  0.00000000000E+00 0.  1.
         21   -1    0    0  502  503 -0.00000000000E+00 -0.00000000000E+00 -0.51520189174E+03  0.51520189174E+03  0.00000000000E+00 0.  1.
          6    1    1    2  501    0 -0.14046842358E+03  0.46615474089E+02  0.86204920280E+02  0.24273374040E+03  0.17200000000E+03 0.  1.
         -6    1    1    2    0  503  0.14046842358E+03 -0.46615474089E+02 -0.40747767187E+03  0.46639729150E+03  0.17200000000E+03 0.  1.
</event>
<event>
 4    1  0.4386646E+000  0.2058693E+03  0.7818608E-02  0.1144879E+00
         21   -1    0    0  503  502  0.00000000000E+00  0.00000000000E+00  0.30585793876E+03  0.30585793876E+03  0.00000000000E+00 0.  1.
         21   -1    0    0  501  503 -0.00000000000E+00 -0.00000000000E+00 -0.16706917968E+03  0.16706917968E+03  0.00000000000E+00 0. -1.
          6    1    1    2  501    0  0.19705571808E+02  0.11139946712E+03 -0.28272378795E+02  0.20780153569E+03  0.17200000000E+03 0. -1.
         -6    1    1    2    0  502 -0.19705571808E+02 -0.11139946712E+03  0.16706113788E+03  0.26512558274E+03  0.17200000000E+03 0.  1.
</event>
<event>
 4    1  0.4386646E+000  0.1830403E+03  0.7818608E-02  0.1164893E+00
         21   -1    0    0  503  502  0.00000000000E+00  0.00000000000E+00  0.87301519227E+02  0.87301519227E+02  0.00000000000E+00 0.  1.
         21   -1    0    0  501  503 -0.00000000000E+00 -0.00000000000E+00 -0.51790473389E+03  0.51790473389E+03  0.00000000000E+00 0.  1.
          6    1    1    2  501    0  0.38934632947E+02 -0.49028986288E+02 -0.36930074794E+03  0.41217325188E+03  0.17200000000E+03 0.  1.
         -6    1    1    2    0  502 -0.38934632947E+02  0.49028986288E+02 -0.61302466724E+02  0.19303300123E+03  0.17200000000E+03 0.  1.
</event>
<event>
 4    1  0.4386646E+000  0.1888833E+03  0.7818608E-02  0.1159472E+00
         21   -1    0    0  503  502  0.00000000000E+00  0.00000000000E+00  0.97389791137E+03  0.97389791137E+03  0.00000000000E+00 0.  1.
         21   -1    0    0  501  503 -0.00000000000E+00 -0.00000000000E+00 -0.39507155359E+02  0.39507155359E+02  0.00000000000E+00 0.  1.
          6    1    1    2  501    0 -0.75124247632E+02  0.21195221746E+02  0.33052842797E+03  0.38069138643E+03  0.17200000000E+03 0.  1.
         -6    1    1    2    0  502  0.75124247632E+02 -0.21195221746E+02  0.60386232804E+03  0.63271368030E+03  0.17200000000E+03 0.  1.
</event>
<event>
 4    1  0.4386646E+000  0.2068165E+03  0.7818608E-02  0.1144112E+00
         21   -1    0    0  503  502  0.00000000000E+00  0.00000000000E+00  0.16068549770E+03  0.16068549770E+03  0.00000000000E+00 0.  1.
         21   -1    0    0  501  503 -0.00000000000E+00 -0.00000000000E+00 -0.28148038056E+03  0.28148038056E+03  0.00000000000E+00 0.  1.
          6    1    1    2  501    0 -0.16710114797E+02  0.11362150469E+03 -0.11192297419E+03  0.23515915125E+03  0.17200000000E+03 0.  1.
         -6    1    1    2    0  502  0.16710114797E+02 -0.11362150469E+03 -0.88719086766E+01  0.20700672701E+03  0.17200000000E+03 0.  1.
</event>
<event>
 4    1  0.4386646E+000  0.2084847E+03  0.7818608E-02  0.1142772E+00
         21   -1    0    0  501  502  0.00000000000E+00  0.00000000000E+00  0.59322601832E+02  0.59322601832E+02  0.00000000000E+00 0.  1.
         21   -1    0    0  502  503 -0.00000000000E+00 -0.00000000000E+00 -0.76970672360E+03  0.76970672360E+03  0.00000000000E+00 0.  1.
          6    1    1    2  501    0 -0.11003770926E+03 -0.42113571250E+02 -0.26430547858E+03  0.33663516802E+03  0.17200000000E+03 0.  1.
         -6    1    1    2    0  503  0.11003770926E+03  0.42113571250E+02 -0.44607864319E+03  0.49239415741E+03  0.17200000000E+03 0.  1.
</event>
<event>
 4    1  0.4386646E+000  0.2745050E+03  0.7818608E-02  0.1098729E+00
         21   -1    0    0  501  502  0.00000000000E+00  0.00000000000E+00  0.59109116901E+03  0.59109116901E+03  0.00000000000E+00 0.  1.
         21   -1    0    0  502  503 -0.00000000000E+00 -0.00000000000E+00 -0.12748578181E+03  0.12748578181E+03  0.00000000000E+00 0.  1.
          6    1    1    2  501    0 -0.11382095826E+03  0.18114578996E+03  0.23395811985E+03  0.36067909505E+03  0.17200000000E+03 0.  1.
         -6    1    1    2    0  503  0.11382095826E+03 -0.18114578996E+03  0.22964726735E+03  0.35789785577E+03  0.17200000000E+03 0.  1.
</event>
<event>
 4    1  0.4386646E+000  0.2619251E+03  0.7818608E-02  0.1105992E+00
         21   -1    0    0  501  502  0.00000000000E+00  0.00000000000E+00  0.86545932391E+02  0.86545932391E+02  0.00000000000E+00 0.  1.
         21   -1    0    0  502  503 -0.00000000000E+00 -0.00000000000E+00 -0.11562258404E+04  0.11562258404E+04  0.00000000000E+00 0.  1.
          6    1    1    2  501    0  0.14964739932E+03  0.12894343682E+03 -0.18641510648E+03  0.32148926257E+03  0.17200000000E+03 0.  1.
         -6    1    1    2    0  503 -0.14964739932E+03 -0.12894343682E+03 -0.88326480150E+03  0.92128251019E+03  0.17200000000E+03 0.  1.
</event>
<event>
 4    1  0.4386646E+000  0.1923714E+03  0.7818608E-02  0.1156340E+00
         21   -1    0    0  501  502  0.00000000000E+00  0.00000000000E+00  0.43991242541E+03  0.43991242541E+03  0.00000000000E+00 0.  1.
         21   -1    0    0  502  503 -0.00000000000E+00 -0.00000000000E+00 -0.86746710015E+02  0.86746710015E+02  0.00000000000E+00 0.  1.
          6    1    1    2  501    0  0.36339292546E+02 -0.78116753249E+02  0.22237886148E+03  0.29403933300E+03  0.17200000000E+03 0.  1.
         -6    1    1    2    0  503 -0.36339292546E+02  0.78116753249E+02  0.13078685392E+03  0.23261980242E+03  0.17200000000E+03 0.  1.
</event>
<event>
 4    1  0.4386646E+000  0.1769850E+03  0.7818608E-02  0.1170753E+00
         21   -1    0    0  503  502  0.00000000000E+00  0.00000000000E+00  0.20458875240E+02  0.20458875240E+02  0.00000000000E+00 0. -1.
         21   -1    0    0  501  503 -0.00000000000E+00 -0.00000000000E+00 -0.21107832254E+04  0.21107832254E+04  0.00000000000E+00 0. -1.
          6    1    1    2  501    0  0.10505727263E+02 -0.40364721401E+02 -0.16036232020E+04  0.16133601752E+04  0.17200000000E+03 0. -1.
         -6    1    1    2    0  502 -0.10505727263E+02  0.40364721401E+02 -0.48670114813E+03  0.51788192537E+03  0.17200000000E+03 0. -1.
</event>
<event>
 4    1  0.4386646E+000  0.1938289E+03  0.7818608E-02  0.1155053E+00
         21   -1    0    0  501  502  0.00000000000E+00  0.00000000000E+00  0.29978910336E+03  0.29978910336E+03  0.00000000000E+00 0. -1.
         21   -1    0    0  502  503 -0.00000000000E+00 -0.00000000000E+00 -0.21570283706E+03  0.21570283706E+03  0.00000000000E+00 0. -1.
          6    1    1    2  501    0 -0.43172102325E+02  0.78241907548E+02  0.20888555700E+03  0.28496105425E+03  0.17200000000E+03 0. -1.
         -6    1    1    2    0  503  0.43172102325E+02 -0.78241907548E+02 -0.12479929070E+03  0.23053088616E+03  0.17200000000E+03 0. -1.
</event>
<event>
 4    1  0.4386646E+000  0.1728995E+03  0.7818608E-02  0.1174857E+00
         21   -1    0    0  503  502  0.00000000000E+00  0.00000000000E+00  0.80924772767E+02  0.80924772767E+02  0.00000000000E+00 0.  1.
         21   -1    0    0  501  503 -0.00000000000E+00 -0.00000000000E+00 -0.44280437622E+03  0.44280437622E+03  0.00000000000E+00 0.  1.
          6    1    1    2  501    0  0.17564915768E+02  0.13024676243E+01 -0.74326985666E+02  0.18819862775E+03  0.17200000000E+03 0.  1.
         -6    1    1    2    0  502 -0.17564915768E+02 -0.13024676243E+01 -0.28755261779E+03  0.33553052124E+03  0.17200000000E+03 0.  1.
</event>
<event>
 4    1  0.4386646E+000  0.2194175E+03  0.7818608E-02  0.1134318E+00
         21   -1    0    0  503  502  0.00000000000E+00  0.00000000000E+00  0.22848296288E+03  0.22848296288E+03  0.00000000000E+00 0.  1.
         21   -1    0    0  501  503 -0.00000000000E+00 -0.00000000000E+00 -0.25065830365E+03  0.25065830365E+03  0.00000000000E+00 0.  1.
          6    1    1    2  501    0  0.95874713643E+02 -0.96788810455E+02 -0.10672610055E+03  0.24399691614E+03  0.17200000000E+03 0.  1.
         -6    1    1    2    0  502 -0.95874713643E+02  0.96788810455E+02  0.84550759775E+02  0.23514435040E+03  0.17200000000E+03 0.  1.
</event>
<event>
 4    1  0.4386646E+000  0.1963435E+03  0.7818608E-02  0.1152861E+00
         21   -1    0    0  501  502  0.00000000000E+00  0.00000000000E+00  0.45083918368E+02  0.45083918368E+02  0.00000000000E+00 0.  1.
         21   -1    0    0  502  503 -0.00000000000E+00 -0.00000000000E+00 -0.85943976441E+03  0.85943976441E+03  0.00000000000E+00 0.  1.
          6    1    1    2  501    0 -0.78207089902E+02 -0.53389277937E+02 -0.37499958277E+03  0.42329121299E+03  0.17200000000E+03 0.  1.
         -6    1    1    2    0  503  0.78207089902E+02  0.53389277937E+02 -0.43935626327E+03  0.48123246979E+03  0.17200000000E+03 0.  1.
</event>
<event>
 4    1  0.4386646E+000  0.2093081E+03  0.7818608E-02  0.1142115E+00
         21   -1    0    0  501  502  0.00000000000E+00  0.00000000000E+00  0.98422055698E+02  0.98422055698E+02  0.00000000000E+00 0.  1.
         21   -1    0    0  502  503 -0.00000000000E+00 -0.00000000000E+00 -0.85007987549E+03  0.85007987549E+03  0.00000000000E+00 0. -1.
          6    1    1    2  501    0 -0.78912194954E+02  0.89435825687E+02 -0.48501141387E+02  0.21485404847E+03  0.17200000000E+03 0.  1.
         -6    1    1    2    0  503  0.78912194954E+02 -0.89435825687E+02 -0.70315667841E+03  0.73364788272E+03  0.17200000000E+03 0. -1.
</event>
<event>
 4    1  0.4386646E+000  0.3675987E+03  0.7818608E-02  0.1055615E+00
         21   -1    0    0  501  502  0.00000000000E+00  0.00000000000E+00  0.70326788991E+03  0.70326788991E+03  0.00000000000E+00 0.  1.
         21   -1    0    0  502  503 -0.00000000000E+00 -0.00000000000E+00 -0.28381417109E+03  0.28381417109E+03  0.00000000000E+00 0.  1.
          6    1    1    2  501    0 -0.25437063951E+03  0.20208998811E+03  0.49021853480E+03  0.61273403480E+03  0.17200000000E+03 0.  1.
         -6    1    1    2    0  503  0.25437063951E+03 -0.20208998811E+03 -0.70764815992E+02  0.37434802620E+03  0.17200000000E+03 0.  1.
</event>
<event>
 4    1  0.4386646E+000  0.2230770E+03  0.7818608E-02  0.1131610E+00
         21   -1    0    0  501  502  0.00000000000E+00  0.00000000000E+00  0.45205103137E+03  0.45205103137E+03  0.00000000000E+00 0.  1.
         21   -1    0    0  502  503 -0.00000000000E+00 -0.00000000000E+00 -0.13820462595E+03  0.13820462595E+03  0.00000000000E+00 0.  1.
          6    1    1    2  501    0  0.92111391360E+02 -0.10814263345E+03  0.29005003658E+03  0.36591305156E+03  0.17200000000E+03 0.  1.
         -6    1    1    2    0  503 -0.92111391360E+02  0.10814263345E+03  0.23796368836E+02  0.22434260576E+03  0.17200000000E+03 0.  1.
</event>
<event>
 4    1  0.4386646E+000  0.2395265E+03  0.7818608E-02  0.1120109E+00
         21   -1    0    0  501  502  0.00000000000E+00  0.00000000000E+00  0.34721641890E+03  0.34721641890E+03  0.00000000000E+00 0. -1.
         21   -1    0    0  502  503 -0.00000000000E+00 -0.00000000000E+00 -0.16841209698E+03  0.16841209698E+03  0.00000000000E+00 0.  1.
          6    1    1    2  501    0 -0.15977558622E+03 -0.47547043768E+02  0.12480243984E+03  0.27009000039E+03  0.17200000000E+03 0. -1.
         -6    1    1    2    0  503  0.15977558622E+03  0.47547043768E+02  0.54001882084E+02  0.24553851549E+03  0.17200000000E+03 0.  1.
</event>
<event>
 4    1  0.4386646E+000  0.1782875E+03  0.7818608E-02  0.1169471E+00
         21   -1    0    0  501  502  0.00000000000E+00  0.00000000000E+00  0.16893745489E+04  0.16893745489E+04  0.00000000000E+00 0.  1.
         21   -1    0    0  502  503 -0.00000000000E+00 -0.00000000000E+00 -0.25672504536E+02  0.25672504536E+02  0.00000000000E+00 0.  1.
          6    1    1    2  501    0 -0.30771903626E+02 -0.35433106202E+02  0.12750302161E+04  0.12874348399E+04  0.17200000000E+03 0.  1.
         -6    1    1    2    0  503  0.30771903626E+02  0.35433106202E+02  0.38867182833E+03  0.42761221358E+03  0.17200000000E+03 0.  1.
</event>
<event>
 4    1  0.4386646E+000  0.2463609E+03  0.7818608E-02  0.1115626E+00
         21   -1    0    0  501  502  0.00000000000E+00  0.00000000000E+00  0.14132058969E+03  0.14132058969E+03  0.00000000000E+00 0.  1.
         21   -1    0    0  502  503 -0.00000000000E+00 -0.00000000000E+00 -0.46276190864E+03  0.46276190864E+03  0.00000000000E+00 0. -1.
          6    1    1    2  501    0  0.14938210018E+03  0.93779872576E+02 -0.79713492349E+02  0.25893612575E+03  0.17200000000E+03 0.  1.
         -6    1    1    2    0  503 -0.14938210018E+03 -0.93779872576E+02 -0.24172782660E+03  0.34514637258E+03  0.17200000000E+03 0. -1.
</event>
<event>
 4    1  0.4386646E+000  0.2068527E+03  0.7818608E-02  0.1144083E+00
         21   -1    0    0  503  502  0.00000000000E+00  0.00000000000E+00  0.50605393456E+02  0.50605393456E+02  0.00000000000E+00 0. -1.
         21   -1    0    0  501  503 -0.00000000000E+00 -0.00000000000E+00 -0.20926211250E+04  0.20926211250E+04  0.00000000000E+00 0. -1.
          6    1    1    2  501    0 -0.10934891756E+03 -0.35310615765E+02 -0.18482698831E+04  0.18598090188E+04  0.17200000000E+03 0. -1.
         -6    1    1    2    0  502  0.10934891756E+03  0.35310615765E+02 -0.19374584840E+03  0.28341749969E+03  0.17200000000E+03 0. -1.
</event>
<event>
 4    1  0.4386646E+000  0.1923954E+03  0.7818608E-02  0.1156318E+00
         21   -1    0    0  503  502  0.00000000000E+00  0.00000000000E+00  0.53118063271E+03  0.53118063271E+03  0.00000000000E+00 0.  1.
         21   -1    0    0  501  503 -0.00000000000E+00 -0.00000000000E+00 -0.90755517474E+02  0.90755517474E+02  0.00000000000E+00 0.  1.
          6    1    1    2  501    0  0.34901416128E+02  0.78828215954E+02  0.70380822556E+02  0.20486448365E+03  0.17200000000E+03 0.  1.
         -6    1    1    2    0  502 -0.34901416128E+02 -0.78828215954E+02  0.37004429268E+03  0.41707166653E+03  0.17200000000E+03 0.  1.
</event>
<event>
 4    1  0.4386646E+000  0.2030754E+03  0.7818608E-02  0.1147170E+00
         21   -1    0    0  501  502  0.00000000000E+00  0.00000000000E+00  0.95513248490E+02  0.95513248490E+02  0.00000000000E+00 0. -1.
         21   -1    0    0  502  503 -0.00000000000E+00 -0.00000000000E+00 -0.43989636887E+03  0.43989636887E+03  0.00000000000E+00 0.  1.
          6    1    1    2  501    0 -0.10759207669E+03 -0.89200198370E+01 -0.13580285374E+03  0.24429907246E+03  0.17200000000E+03 0. -1.
         -6    1    1    2    0  503  0.10759207669E+03  0.89200198370E+01 -0.20858026663E+03  0.29111054490E+03  0.17200000000E+03 0.  1.
</event>
<event>
 4    1  0.4386646E+000  0.3456944E+03  0.7818608E-02  0.1064396E+00
         21   -1    0    0  503  502  0.00000000000E+00  0.00000000000E+00  0.59222704302E+03  0.59222704302E+03  0.00000000000E+00 0.  1.
         21   -1    0    0  501  503 -0.00000000000E+00 -0.00000000000E+00 -0.29295070872E+03  0.29295070872E+03  0.00000000000E+00 0. -1.
          6    1    1    2  501    0 -0.21509318312E+03  0.20893908690E+03 -0.97255861118E+02  0.35911463627E+03  0.17200000000E+03 0. -1.
         -6    1    1    2    0  502  0.21509318312E+03 -0.20893908690E+03  0.39653219541E+03  0.52606311547E+03  0.17200000000E+03 0. -1.
</event>
<event>
 4    1  0.4386646E+000  0.2428274E+03  0.7818608E-02  0.1117923E+00
         21   -1    0    0  503  502  0.00000000000E+00  0.00000000000E+00  0.60725705547E+03  0.60725705547E+03  0.00000000000E+00 0. -1.
         21   -1    0    0  501  503 -0.00000000000E+00 -0.00000000000E+00 -0.97755468196E+02  0.97755468196E+02  0.00000000000E+00 0. -1.
          6    1    1    2  501    0 -0.59701819235E+02 -0.16067623039E+03  0.28359776261E+03  0.37335351771E+03  0.17200000000E+03 0. -1.
         -6    1    1    2    0  502  0.59701819235E+02  0.16067623039E+03  0.22590382467E+03  0.33165900595E+03  0.17200000000E+03 0. -1.
</event>
<event>
 4    1  0.4386646E+000  0.1825202E+03  0.7818608E-02  0.1165386E+00
         21   -1    0    0  501  502  0.00000000000E+00  0.00000000000E+00  0.55003513218E+03  0.55003513218E+03  0.00000000000E+00 0. -1.
         21   -1    0    0  502  503 -0.00000000000E+00 -0.00000000000E+00 -0.95832812849E+02  0.95832812849E+02  0.00000000000E+00 0. -1.
          6    1    1    2  501    0  0.27903210074E+02 -0.54323477343E+02  0.42300252736E+03  0.46070030115E+03  0.17200000000E+03 0. -1.
         -6    1    1    2    0  503 -0.27903210074E+02  0.54323477343E+02  0.31199791973E+02  0.18516764389E+03  0.17200000000E+03 0. -1.
</event>
<event>
 4    1  0.4386646E+000  0.1769834E+03  0.7818608E-02  0.1170755E+00
         21   -1    0    0  501  502  0.00000000000E+00  0.00000000000E+00  0.48457510101E+03  0.48457510101E+03  0.00000000000E+00 0. -1.
         21   -1    0    0  502  503 -0.00000000000E+00 -0.00000000000E+00 -0.10460534257E+03  0.10460534257E+03  0.00000000000E+00 0. -1.
          6    1    1    2  501    0  0.12368120088E+02  0.39826574521E+02  0.37207274790E+03  0.41202094141E+03  0.17200000000E+03 0. -1.
         -6    1    1    2    0  503 -0.12368120088E+02 -0.39826574521E+02  0.78970105333E+01  0.17715950217E+03  0.17200000000E+03 0. -1.
</event>
<event>
 4    1  0.4386646E+000  0.1949134E+03  0.7818608E-02  0.1154103E+00
         21   -1    0    0  501  502  0.00000000000E+00  0.00000000000E+00  0.34538769401E+03  0.34538769401E+03  0.00000000000E+00 0.  1.
         21   -1    0    0  502  503 -0.00000000000E+00 -0.00000000000E+00 -0.13907956609E+03  0.13907956609E+03  0.00000000000E+00 0.  1.
          6    1    1    2  501    0 -0.22514789848E+02  0.88883809582E+02  0.21392529414E+03  0.28940504288E+03  0.17200000000E+03 0.  1.
         -6    1    1    2    0  503  0.22514789848E+02 -0.88883809582E+02 -0.76171662183E+01  0.19506221723E+03  0.17200000000E+03 0.  1.
</event>
<event>
 4    1  0.4386646E+000  0.1831342E+03  0.7818608E-02  0.1164804E+00
         21   -1    0    0  501  502  0.00000000000E+00  0.00000000000E+00  0.10269027992E+04  0.10269027992E+04  0.00000000000E+00 0. -1.
         21   -1    0    0  502  503 -0.00000000000E+00 -0.00000000000E+00 -0.25003221726E+03  0.25003221726E+03  0.00000000000E+00 0. -1.
          6    1    1    2  501    0  0.38342700667E+02  0.49839578399E+02  0.98374548295E+03  0.10006464518E+04  0.17200000000E+03 0. -1.
         -6    1    1    2    0  503 -0.38342700667E+02 -0.49839578399E+02 -0.20687490104E+03  0.27628856464E+03  0.17200000000E+03 0. -1.
</event>
<event>
 4    1  0.4386646E+000  0.3197552E+03  0.7818608E-02  0.1075762E+00
         21   -1    0    0  501  502  0.00000000000E+00  0.00000000000E+00  0.14758975497E+03  0.14758975497E+03  0.00000000000E+00 0. -1.
         21   -1    0    0  502  503 -0.00000000000E+00 -0.00000000000E+00 -0.20773672659E+04  0.20773672659E+04  0.00000000000E+00 0.  1.
          6    1    1    2  501    0 -0.25179944709E+03  0.96210382983E+02 -0.56651680736E+02  0.32473498776E+03  0.17200000000E+03 0. -1.
         -6    1    1    2    0  503  0.25179944709E+03 -0.96210382983E+02 -0.18731258302E+04  0.19002220331E+04  0.17200000000E+03 0.  1.
</event>
<event>
 4    1  0.4386646E+000  0.2158132E+03  0.7818608E-02  0.1137044E+00
         21   -1    0    0  503  502  0.00000000000E+00  0.00000000000E+00  0.13075508122E+04  0.13075508122E+04  0.00000000000E+00 0.  1.
         21   -1    0    0  501  503 -0.00000000000E+00 -0.00000000000E+00 -0.62885797120E+02  0.62885797120E+02  0.00000000000E+00 0.  1.
          6    1    1    2  501    0 -0.89818781285E+02 -0.94466541851E+02  0.17114252444E+03  0.27543620799E+03  0.17200000000E+03 0.  1.
         -6    1    1    2    0  502  0.89818781285E+02  0.94466541851E+02  0.10735224906E+04  0.10950004013E+04  0.17200000000E+03 0.  1.
</event>
<event>
 4    1  0.4386646E+000  0.1841482E+03  0.7818608E-02  0.1163848E+00
         21   -1    0    0  501  502  0.00000000000E+00  0.00000000000E+00  0.33643903427E+02  0.33643903427E+02  0.00000000000E+00 0.  1.
         21   -1    0    0  502  503 -0.00000000000E+00 -0.00000000000E+00 -0.10828244716E+04  0.10828244716E+04  0.00000000000E+00 0.  1.
          6    1    1    2  501    0  0.31327813540E+02  0.57837134598E+02 -0.37777414882E+03  0.42026643163E+03  0.17200000000E+03 0.  1.
         -6    1    1    2    0  503 -0.31327813540E+02 -0.57837134598E+02 -0.67140641937E+03  0.69620194342E+03  0.17200000000E+03 0.  1.
</event>
<event>
 4    1  0.4386646E+000  0.2556591E+03  0.7818608E-02  0.1109780E+00
         21   -1    0    0  501  502  0.00000000000E+00  0.00000000000E+00  0.40179529547E+03  0.40179529547E+03  0.00000000000E+00 0. -1.
         21   -1    0    0  502  503 -0.00000000000E+00 -0.00000000000E+00 -0.19730998325E+03  0.19730998325E+03  0.00000000000E+00 0.  1.
          6    1    1    2  501    0 -0.30739483223E+02  0.18663503863E+03  0.22774847292E+03  0.34239001210E+03  0.17200000000E+03 0. -1.
         -6    1    1    2    0  503  0.30739483223E+02 -0.18663503863E+03 -0.23263160698E+02  0.25671526662E+03  0.17200000000E+03 0.  1.
</event>
<event>
 4    1  0.4386646E+000  0.3143635E+03  0.7818608E-02  0.1078273E+00
         21   -1    0    0  503  502  0.00000000000E+00  0.00000000000E+00  0.20072874366E+03  0.20072874366E+03  0.00000000000E+00 0.  1.
         21   -1    0    0  501  503 -0.00000000000E+00 -0.00000000000E+00 -0.53045413085E+03  0.53045413085E+03  0.00000000000E+00 0.  1.
          6    1    1    2  501    0  0.26303540963E+03  0.72669327387E+01 -0.26287529783E+03  0.40979001604E+03  0.17200000000E+03 0.  1.
         -6    1    1    2    0  502 -0.26303540963E+03 -0.72669327387E+01 -0.66850089356E+02  0.32139285847E+03  0.17200000000E+03 0.  1.
</event>
<event>
 4    1  0.4386646E+000  0.3334412E+03  0.7818608E-02  0.1069624E+00
         21   -1    0    0  501  502  0.00000000000E+00  0.00000000000E+00  0.42084197959E+03  0.42084197959E+03  0.00000000000E+00 0. -1.
         21   -1    0    0  502  503 -0.00000000000E+00 -0.00000000000E+00 -0.32248656117E+03  0.32248656117E+03  0.00000000000E+00 0.  1.
          6    1    1    2  501    0 -0.22867583734E+03  0.17119107452E+03  0.20719680296E+03  0.39257297122E+03  0.17200000000E+03 0.  1.
         -6    1    1    2    0  503  0.22867583734E+03 -0.17119107452E+03 -0.10884138453E+03  0.35075556954E+03  0.17200000000E+03 0. -1.
</event>
<event>
 4    1  0.4386646E+000  0.2585272E+03  0.7818608E-02  0.1108031E+00
         21   -1    0    0  503  502  0.00000000000E+00  0.00000000000E+00  0.92048534919E+02  0.92048534919E+02  0.00000000000E+00 0.  1.
         21   -1    0    0  501  503 -0.00000000000E+00 -0.00000000000E+00 -0.74015910537E+03  0.74015910537E+03  0.00000000000E+00 0. -1.
          6    1    1    2  501    0  0.15954234638E+03 -0.10862103753E+03 -0.26670397304E+03  0.37143949618E+03  0.17200000000E+03 0.  1.
         -6    1    1    2    0  502 -0.15954234638E+03  0.10862103753E+03 -0.38140659741E+03  0.46076814412E+03  0.17200000000E+03 0. -1.
</event>
<event>
 4    1  0.4386646E+000  0.3178268E+03  0.7818608E-02  0.1076654E+00
         21   -1    0    0  503  502  0.00000000000E+00  0.00000000000E+00  0.51406597869E+03  0.51406597869E+03  0.00000000000E+00 0. -1.
         21   -1    0    0  501  503 -0.00000000000E+00 -0.00000000000E+00 -0.20370688513E+03  0.20370688513E+03  0.00000000000E+00 0.  1.
          6    1    1    2  501    0 -0.20947074936E+03  0.16598751429E+03  0.22268435850E+03  0.38807495830E+03  0.17200000000E+03 0.  1.
         -6    1    1    2    0  502  0.20947074936E+03 -0.16598751429E+03  0.87674735053E+02  0.32969790552E+03  0.17200000000E+03 0. -1.
</event>
<event>
 4    1  0.4386646E+000  0.1908302E+03  0.7818608E-02  0.1157715E+00
         21   -1    0    0  503  502  0.00000000000E+00  0.00000000000E+00  0.35400448381E+02  0.35400448381E+02  0.00000000000E+00 0.  1.
         21   -1    0    0  501  503 -0.00000000000E+00 -0.00000000000E+00 -0.11959715608E+04  0.11959715608E+04  0.00000000000E+00 0. -1.
          6    1    1    2  501    0  0.80200857544E+02 -0.19999430333E+02 -0.81054657158E+03  0.83270757140E+03  0.17200000000E+03 0.  1.
         -6    1    1    2    0  502 -0.80200857544E+02  0.19999430333E+02 -0.35002454086E+03  0.39866443780E+03  0.17200000000E+03 0. -1.
</event>
<event>
 4    1  0.4386646E+000  0.1787947E+03  0.7818608E-02  0.1168975E+00
         21   -1    0    0  503  502  0.00000000000E+00  0.00000000000E+00  0.58657020704E+03  0.58657020704E+03  0.00000000000E+00 0. -1.
         21   -1    0    0  501  503 -0.00000000000E+00 -0.00000000000E+00 -0.99242880410E+02  0.99242880410E+02  0.00000000000E+00 0. -1.
          6    1    1    2  501    0  0.57192636607E+00 -0.48818066426E+02  0.13417407736E+02  0.17929739970E+03  0.17200000000E+03 0. -1.
         -6    1    1    2    0  502 -0.57192636607E+00  0.48818066426E+02  0.47390991889E+03  0.50651568775E+03  0.17200000000E+03 0. -1.
</event>
<event>
 4    1  0.4386646E+000  0.2703877E+03  0.7818608E-02  0.1101058E+00
         21   -1    0    0  501  502  0.00000000000E+00  0.00000000000E+00  0.10892503898E+04  0.10892503898E+04  0.00000000000E+00 0. -1.
         21   -1    0    0  502  503 -0.00000000000E+00 -0.00000000000E+00 -0.75711225226E+02  0.75711225226E+02  0.00000000000E+00 0.  1.
          6    1    1    2  501    0 -0.10207229220E+02 -0.20837781501E+03  0.70299347487E+03  0.75319939394E+03  0.17200000000E+03 0.  1.
         -6    1    1    2    0  503  0.10207229220E+02  0.20837781501E+03  0.31054568967E+03  0.41176222106E+03  0.17200000000E+03 0.  1.
</event>
<event>
 4    1  0.4386646E+000  0.1735072E+03  0.7818608E-02  0.1174239E+00
         21   -1    0    0  503  502  0.00000000000E+00  0.00000000000E+00  0.37864794824E+02  0.37864794824E+02  0.00000000000E+00 0.  1.
         21   -1    0    0  501  503 -0.00000000000E+00 -0.00000000000E+00 -0.10272355665E+04  0.10272355665E+04  0.00000000000E+00 0.  1.
          6    1    1    2  501    0 -0.16833199564E+02 -0.15407700577E+02 -0.74786836661E+03  0.76773162473E+03  0.17200000000E+03 0.  1.
         -6    1    1    2    0  502  0.16833199564E+02  0.15407700577E+02 -0.24150240505E+03  0.29736873657E+03  0.17200000000E+03 0.  1.
</event>
<event>
 4    1  0.4386646E+000  0.2532106E+03  0.7818608E-02  0.1111292E+00
         21   -1    0    0  501  502  0.00000000000E+00  0.00000000000E+00  0.24427009405E+03  0.24427009405E+03  0.00000000000E+00 0. -1.
         21   -1    0    0  502  503 -0.00000000000E+00 -0.00000000000E+00 -0.40258961035E+03  0.40258961035E+03  0.00000000000E+00 0.  1.
          6    1    1    2  501    0 -0.18289354900E+03  0.32887072030E+02  0.11164330829E+03  0.27673062363E+03  0.17200000000E+03 0. -1.
         -6    1    1    2    0  503  0.18289354900E+03 -0.32887072030E+02 -0.26996282459E+03  0.37012908077E+03  0.17200000000E+03 0.  1.
</event>
<event>
 4    1  0.4386646E+000  0.2521301E+03  0.7818608E-02  0.1111966E+00
         21   -1    0    0  503  502  0.00000000000E+00  0.00000000000E+00  0.22049531893E+03  0.22049531893E+03  0.00000000000E+00 0. -1.
         21   -1    0    0  501  503 -0.00000000000E+00 -0.00000000000E+00 -0.28842487406E+03  0.28842487406E+03  0.00000000000E+00 0.  1.
          6    1    1    2  501    0  0.15580746073E+03 -0.98537479631E+02 -0.28747513913E+02  0.25376370755E+03  0.17200000000E+03 0. -1.
         -6    1    1    2    0  502 -0.15580746073E+03  0.98537479631E+02 -0.39182041224E+02  0.25515648545E+03  0.17200000000E+03 0.  1.
</event>
<event>
 4    1  0.4386646E+000  0.2039752E+03  0.7818608E-02  0.1146428E+00
         21   -1    0    0  503  502  0.00000000000E+00  0.00000000000E+00  0.10596609564E+04  0.10596609564E+04  0.00000000000E+00 0. -1.
         21   -1    0    0  501  503 -0.00000000000E+00 -0.00000000000E+00 -0.39726528481E+02  0.39726528481E+02  0.00000000000E+00 0. -1.
          6    1    1    2  501    0  0.44195180382E+02 -0.10034278931E+03  0.45061561725E+03  0.49463150309E+03  0.17200000000E+03 0. -1.
         -6    1    1    2    0  502 -0.44195180382E+02  0.10034278931E+03  0.56931881069E+03  0.60475598181E+03  0.17200000000E+03 0. -1.
</event>
<event>
 4    1  0.4386646E+000  0.2018713E+03  0.7818608E-02  0.1148170E+00
         21   -1    0    0  501  502  0.00000000000E+00  0.00000000000E+00  0.16325064331E+03  0.16325064331E+03  0.00000000000E+00 0.  1.
         21   -1    0    0  502  503 -0.00000000000E+00 -0.00000000000E+00 -0.14480075926E+04  0.14480075926E+04  0.00000000000E+00 0.  1.
          6    1    1    2  501    0  0.94239402697E+02 -0.47822340627E+02  0.90525059074E+02  0.22123929941E+03  0.17200000000E+03 0.  1.
         -6    1    1    2    0  503 -0.94239402697E+02  0.47822340627E+02 -0.13752820083E+04  0.13900189365E+04  0.17200000000E+03 0.  1.
</event>
<event>
 4    1  0.4386646E+000  0.1930246E+03  0.7818608E-02  0.1155761E+00
         21   -1    0    0  503  502  0.00000000000E+00  0.00000000000E+00  0.10284396941E+03  0.10284396941E+03  0.00000000000E+00 0. -1.
         21   -1    0    0  501  503 -0.00000000000E+00 -0.00000000000E+00 -0.52989689193E+03  0.52989689193E+03  0.00000000000E+00 0. -1.
          6    1    1    2  501    0 -0.35193615974E+02  0.80224193474E+02 -0.39145949757E+03  0.43646196863E+03  0.17200000000E+03 0. -1.
         -6    1    1    2    0  502  0.35193615974E+02 -0.80224193474E+02 -0.35593424949E+02  0.19627889271E+03  0.17200000000E+03 0. -1.
</event>
<event>
 4    1  0.4386646E+000  0.2450825E+03  0.7818608E-02  0.1116453E+00
         21   -1    0    0  503  502  0.00000000000E+00  0.00000000000E+00  0.42328093735E+02  0.42328093735E+02  0.00000000000E+00 0. -1.
         21   -1    0    0  501  503 -0.00000000000E+00 -0.00000000000E+00 -0.14253845252E+04  0.14253845252E+04  0.00000000000E+00 0.  1.
          6    1    1    2  501    0  0.13800835138E+03 -0.10693516433E+03 -0.74047250048E+03  0.77997753710E+03  0.17200000000E+03 0. -1.
         -6    1    1    2    0  502 -0.13800835138E+03  0.10693516433E+03 -0.64258393101E+03  0.68773508186E+03  0.17200000000E+03 0.  1.
</event>
<event>
 4    1  0.4386646E+000  0.1721982E+03  0.7818608E-02  0.1175575E+00
         21   -1    0    0  503  502  0.00000000000E+00  0.00000000000E+00  0.75262004745E+03  0.75262004745E+03  0.00000000000E+00 0.  1.
         21   -1    0    0  501  503 -0.00000000000E+00 -0.00000000000E+00 -0.42704576238E+02  0.42704576238E+02  0.00000000000E+00 0.  1.
          6    1    1    2  501    0 -0.31353419291E+01 -0.76412196591E+01  0.24431487704E+03  0.29890128429E+03  0.17200000000E+03 0.  1.
         -6    1    1    2    0  502  0.31353419291E+01  0.76412196591E+01  0.46560059417E+03  0.49642333940E+03  0.17200000000E+03 0.  1.
</event>
<event>
 4    1  0.4386646E+000  0.1771928E+03  0.7818608E-02  0.1170548E+00
         21   -1    0    0  503  502  0.00000000000E+00  0.00000000000E+00  0.18199679033E+04  0.18199679033E+04  0.00000000000E+00 0. -1.
         21   -1    0    0  501  503 -0.00000000000E+00 -0.00000000000E+00 -0.18410574767E+02  0.18410574767E+02  0.00000000000E+00 0. -1.
          6    1    1    2  501    0 -0.42481701485E+02  0.29330582015E+01  0.67014936723E+03  0.69317924968E+03  0.17200000000E+03 0.  1.
         -6    1    1    2    0  502  0.42481701485E+02 -0.29330582015E+01  0.11314079613E+04  0.11451992283E+04  0.17200000000E+03 0.  1.
</event>
<event>
 4    1  0.4386646E+000  0.1840166E+03  0.7818608E-02  0.1163971E+00
         21   -1    0    0  503  502  0.00000000000E+00  0.00000000000E+00  0.26713161026E+03  0.26713161026E+03  0.00000000000E+00 0.  1.
         21   -1    0    0  501  503 -0.00000000000E+00 -0.00000000000E+00 -0.25826721614E+03  0.25826721614E+03  0.00000000000E+00 0. -1.
          6    1    1    2  501    0 -0.45355151270E+02 -0.47127625036E+02 -0.18302242977E+03  0.25953672686E+03  0.17200000000E+03 0. -1.
         -6    1    1    2    0  502  0.45355151270E+02  0.47127625036E+02  0.19188682390E+03  0.26586209954E+03  0.17200000000E+03 0.  1.
</event>
<event>
 4    1  0.4386646E+000  0.2012597E+03  0.7818608E-02  0.1148681E+00
         21   -1    0    0  501  502  0.00000000000E+00  0.00000000000E+00  0.17645181444E+03  0.17645181444E+03  0.00000000000E+00 0. -1.
         21   -1    0    0  502  503 -0.00000000000E+00 -0.00000000000E+00 -0.33519763089E+03  0.33519763089E+03  0.00000000000E+00 0. -1.
          6    1    1    2  501    0  0.86747963333E+02 -0.58277408244E+02  0.64245741690E+02  0.21126519065E+03  0.17200000000E+03 0. -1.
         -6    1    1    2    0  503 -0.86747963333E+02  0.58277408244E+02 -0.22299155814E+03  0.30038425467E+03  0.17200000000E+03 0. -1.
</event>
<event>
 4    1  0.4386646E+000  0.2196613E+03  0.7818608E-02  0.1134136E+00
         21   -1    0    0  501  502  0.00000000000E+00  0.00000000000E+00  0.16163083505E+04  0.16163083505E+04  0.00000000000E+00 0. -1.
         21   -1    0    0  502  503 -0.00000000000E+00 -0.00000000000E+00 -0.82891554961E+02  0.82891554961E+02  0.00000000000E+00 0. -1.
          6    1    1    2  501    0  0.38883774618E+02  0.13097758619E+03  0.14463135142E+04  0.14628991276E+04  0.17200000000E+03 0. -1.
         -6    1    1    2    0  503 -0.38883774618E+02 -0.13097758619E+03  0.87103281303E+02  0.23630077788E+03  0.17200000000E+03 0. -1.
</event>
<event>
 4    1  0.4386646E+000  0.1917224E+03  0.7818608E-02  0.1156917E+00
         21   -1    0    0  503  502  0.00000000000E+00  0.00000000000E+00  0.22038059875E+02  0.22038059875E+02  0.00000000000E+00 0.  1.
         21   -1    0    0  501  503 -0.00000000000E+00 -0.00000000000E+00 -0.16749629388E+04  0.16749629388E+04  0.00000000000E+00 0.  1.
          6    1    1    2  501    0 -0.60475205085E+02 -0.59297651329E+02 -0.88152906024E+03  0.90213687761E+03  0.17200000000E+03 0.  1.
         -6    1    1    2    0  502  0.60475205085E+02  0.59297651329E+02 -0.77139581866E+03  0.79486412105E+03  0.17200000000E+03 0.  1.
</event>
<event>
 4    1  0.4386646E+000  0.1962005E+03  0.7818608E-02  0.1152985E+00
         21   -1    0    0  501  502  0.00000000000E+00  0.00000000000E+00  0.47685570273E+03  0.47685570273E+03  0.00000000000E+00 0. -1.
         21   -1    0    0  502  503 -0.00000000000E+00 -0.00000000000E+00 -0.17519359698E+03  0.17519359698E+03  0.00000000000E+00 0.  1.
          6    1    1    2  501    0  0.92192233673E+02  0.20278341542E+02  0.39023589067E+03  0.43678217620E+03  0.17200000000E+03 0. -1.
         -6    1    1    2    0  503 -0.92192233673E+02 -0.20278341542E+02 -0.88573784916E+02  0.21526712350E+03  0.17200000000E+03 0.  1.
</event>
<event>
 4    1  0.4386646E+000  0.1821449E+03  0.7818608E-02  0.1165743E+00
         21   -1    0    0  503  502  0.00000000000E+00  0.00000000000E+00  0.22943920513E+03  0.22943920513E+03  0.00000000000E+00 0.  1.
         21   -1    0    0  501  503 -0.00000000000E+00 -0.00000000000E+00 -0.23716591509E+03  0.23716591509E+03  0.00000000000E+00 0.  1.
          6    1    1    2  501    0 -0.41061963474E+02  0.43665487506E+02 -0.14961734248E+03  0.23571616154E+03  0.17200000000E+03 0.  1.
         -6    1    1    2    0  502  0.41061963474E+02 -0.43665487506E+02  0.14189063251E+03  0.23088895868E+03  0.17200000000E+03 0.  1.
</event>
<event>
 4    1  0.4386646E+000  0.1720630E+03  0.7818608E-02  0.1175713E+00
         21   -1    0    0  503  502  0.00000000000E+00  0.00000000000E+00  0.67876155544E+02  0.67876155544E+02  0.00000000000E+00 0.  1.
         21   -1    0    0  501  503 -0.00000000000E+00 -0.00000000000E+00 -0.84668604630E+03  0.84668604630E+03  0.00000000000E+00 0.  1.
          6    1    1    2  501    0  0.43630540275E+01  0.16290075974E+01 -0.70781441367E+03  0.72842771371E+03  0.17200000000E+03 0.  1.
         -6    1    1    2    0  502 -0.43630540275E+01 -0.16290075974E+01 -0.70995477091E+02  0.18613448814E+03  0.17200000000E+03 0.  1.
</event>
<event>
 4    1  0.4386646E+000  0.1802989E+03  0.7818608E-02  0.1167514E+00
         21   -1    0    0  503  502  0.00000000000E+00  0.00000000000E+00  0.47550695696E+02  0.47550695696E+02  0.00000000000E+00 0.  1.
         21   -1    0    0  501  503 -0.00000000000E+00 -0.00000000000E+00 -0.77493756794E+03  0.77493756794E+03  0.00000000000E+00 0.  1.
          6    1    1    2  501    0 -0.52424150048E+02 -0.13244588024E+02 -0.50484584908E+03  0.53607559351E+03  0.17200000000E+03 0.  1.
         -6    1    1    2    0  502  0.52424150048E+02  0.13244588024E+02 -0.22254102317E+03  0.28641267013E+03  0.17200000000E+03 0.  1.
</event>
<event>
 4    1  0.4386646E+000  0.2122550E+03  0.7818608E-02  0.1139793E+00
         21   -1    0    0  501  502  0.00000000000E+00  0.00000000000E+00  0.33080662831E+03  0.33080662831E+03  0.00000000000E+00 0.  1.
         21   -1    0    0  502  503 -0.00000000000E+00 -0.00000000000E+00 -0.21149389385E+03  0.21149389385E+03  0.00000000000E+00 0. -1.
          6    1    1    2  501    0 -0.12185706013E+03 -0.24880672356E+02  0.22145431094E+03  0.30674778368E+03  0.17200000000E+03 0.  1.
         -6    1    1    2    0  503  0.12185706013E+03  0.24880672356E+02 -0.10214157647E+03  0.23555273848E+03  0.17200000000E+03 0. -1.
</event>
<event>
 4    1  0.4386646E+000  0.2501669E+03  0.7818608E-02  0.1113199E+00
         21   -1    0    0  501  502  0.00000000000E+00  0.00000000000E+00  0.43523244437E+03  0.43523244437E+03  0.00000000000E+00 0. -1.
         21   -1    0    0  502  503 -0.00000000000E+00 -0.00000000000E+00 -0.14721840511E+03  0.14721840511E+03  0.00000000000E+00 0. -1.
          6    1    1    2  501    0 -0.94652369179E+02 -0.15504976621E+03  0.18842782374E+03  0.31319090943E+03  0.17200000000E+03 0. -1.
         -6    1    1    2    0  503  0.94652369179E+02  0.15504976621E+03  0.99586215529E+02  0.26925994005E+03  0.17200000000E+03 0. -1.
</event>
<event>
 4    1  0.4386646E+000  0.1869803E+03  0.7818608E-02  0.1161213E+00
         21   -1    0    0  501  502  0.00000000000E+00  0.00000000000E+00  0.12888938012E+03  0.12888938012E+03  0.00000000000E+00 0.  1.
         21   -1    0    0  502  503 -0.00000000000E+00 -0.00000000000E+00 -0.41393785966E+03  0.41393785966E+03  0.00000000000E+00 0.  1.
          6    1    1    2  501    0  0.73003479051E+02  0.69377112606E+01  0.16826067471E+02  0.18773586854E+03  0.17200000000E+03 0.  1.
         -6    1    1    2    0  503 -0.73003479051E+02 -0.69377112606E+01 -0.30187454701E+03  0.35509137123E+03  0.17200000000E+03 0.  1.
</event>
<event>
 4    1  0.4386646E+000  0.3003579E+03  0.7818608E-02  0.1085062E+00
         21   -1    0    0  501  502  0.00000000000E+00  0.00000000000E+00  0.63419053640E+03  0.63419053640E+03  0.00000000000E+00 0. -1.
         21   -1    0    0  502  503 -0.00000000000E+00 -0.00000000000E+00 -0.65151238820E+03  0.65151238820E+03  0.00000000000E+00 0.  1.
          6    1    1    2  501    0 -0.16542746345E+03  0.18238590763E+03  0.55969350531E+03  0.63519421035E+03  0.17200000000E+03 0. -1.
         -6    1    1    2    0  503  0.16542746345E+03 -0.18238590763E+03 -0.57701535712E+03  0.65050871425E+03  0.17200000000E+03 0.  1.
</event>
<event>
 4    1  0.4386646E+000  0.1986104E+03  0.7818608E-02  0.1150917E+00
         21   -1    0    0  503  502  0.00000000000E+00  0.00000000000E+00  0.60180348657E+02  0.60180348657E+02  0.00000000000E+00 0.  1.
         21   -1    0    0  501  503 -0.00000000000E+00 -0.00000000000E+00 -0.73595499935E+03  0.73595499935E+03  0.00000000000E+00 0. -1.
          6    1    1    2  501    0  0.45021992041E+02 -0.88516148176E+02 -0.20624264386E+03  0.28632519345E+03  0.17200000000E+03 0. -1.
         -6    1    1    2    0  502 -0.45021992041E+02  0.88516148176E+02 -0.46953200683E+03  0.50981015456E+03  0.17200000000E+03 0. -1.
</event>
<event>
 4    1  0.4386646E+000  0.1954636E+03  0.7818608E-02  0.1153624E+00
         21   -1    0    0  501  502  0.00000000000E+00  0.00000000000E+00  0.29038567464E+03  0.29038567464E+03  0.00000000000E+00 0.  1.
         21   -1    0    0  502  503 -0.00000000000E+00 -0.00000000000E+00 -0.14122523025E+03  0.14122523025E+03  0.00000000000E+00 0.  1.
          6    1    1    2  501    0 -0.64027119913E+02  0.67249746035E+02  0.13100773377E+03  0.23530624032E+03  0.17200000000E+03 0.  1.
         -6    1    1    2    0  503  0.64027119913E+02 -0.67249746035E+02  0.18152710618E+02  0.19630466456E+03  0.17200000000E+03 0.  1.
</event>
<event>
 4    1  0.4386646E+000  0.2250555E+03  0.7818608E-02  0.1130169E+00
         21   -1    0    0  503  502  0.00000000000E+00  0.00000000000E+00  0.18729233989E+03  0.18729233989E+03  0.00000000000E+00 0. -1.
         21   -1    0    0  501  503 -0.00000000000E+00 -0.00000000000E+00 -0.27528396584E+03  0.27528396584E+03  0.00000000000E+00 0. -1.
          6    1    1    2  501    0 -0.65800727764E+02  0.12936856312E+03 -0.13291923204E+02  0.22544763499E+03  0.17200000000E+03 0. -1.
         -6    1    1    2    0  502  0.65800727764E+02 -0.12936856312E+03 -0.74699702747E+02  0.23712867075E+03  0.17200000000E+03 0. -1.
</event>
<event>
 4    1  0.4386646E+000  0.2815060E+03  0.7818608E-02  0.1094869E+00
         21   -1    0    0  501  502  0.00000000000E+00  0.00000000000E+00  0.10111099717E+04  0.10111099717E+04  0.00000000000E+00 0.  1.
         21   -1    0    0  502  503 -0.00000000000E+00 -0.00000000000E+00 -0.82127977236E+02  0.82127977236E+02  0.00000000000E+00 0.  1.
          6    1    1    2  501    0 -0.15328956577E+03  0.16175262631E+03  0.34763926092E+03  0.44732388582E+03  0.17200000000E+03 0.  1.
         -6    1    1    2    0  503  0.15328956577E+03 -0.16175262631E+03  0.58134273358E+03  0.64591406316E+03  0.17200000000E+03 0.  1.
</event>
<event>
 4    1  0.4386646E+000  0.4519431E+03  0.7818608E-02  0.1027144E+00
         21   -1    0    0  503  502  0.00000000000E+00  0.00000000000E+00  0.56972989765E+03  0.56972989765E+03  0.00000000000E+00 0. -1.
         21   -1    0    0  501  503 -0.00000000000E+00 -0.00000000000E+00 -0.62837150430E+03  0.62837150430E+03  0.00000000000E+00 0.  1.
          6    1    1    2  501    0  0.35366819954E+03 -0.22268222867E+03 -0.42190032130E+03  0.61826568031E+03  0.17200000000E+03 0.  1.
         -6    1    1    2    0  502 -0.35366819954E+03  0.22268222867E+03  0.36325871466E+03  0.57983572165E+03  0.17200000000E+03 0. -1.
</event>
<event>
 4    1  0.4386646E+000  0.1832587E+03  0.7818608E-02  0.1164686E+00
         21   -1    0    0  501  502  0.00000000000E+00  0.00000000000E+00  0.42266669226E+02  0.42266669226E+02  0.00000000000E+00 0. -1.
         21   -1    0    0  502  503 -0.00000000000E+00 -0.00000000000E+00 -0.98076567393E+03  0.98076567393E+03  0.00000000000E+00 0. -1.
          6    1    1    2  501    0 -0.10543230091E+02  0.62358708968E+02 -0.24637357505E+03  0.30705652047E+03  0.17200000000E+03 0.  1.
         -6    1    1    2    0  503  0.10543230091E+02 -0.62358708968E+02 -0.69212542966E+03  0.71597582268E+03  0.17200000000E+03 0.  1.
</event>
<event>
 4    1  0.4386646E+000  0.3238014E+03  0.7818608E-02  0.1073913E+00
         21   -1    0    0  501  502  0.00000000000E+00  0.00000000000E+00  0.70870431541E+03  0.70870431541E+03  0.00000000000E+00 0.  1.
         21   -1    0    0  502  503 -0.00000000000E+00 -0.00000000000E+00 -0.17174922844E+03  0.17174922844E+03  0.00000000000E+00 0. -1.
          6    1    1    2  501    0 -0.23862410690E+03 -0.13535842561E+03  0.43237811256E+03  0.54018348735E+03  0.17200000000E+03 0.  1.
         -6    1    1    2    0  503  0.23862410690E+03  0.13535842561E+03  0.10457697440E+03  0.34027005650E+03  0.17200000000E+03 0. -1.
</event>
<event>
 4    1  0.4386646E+000  0.2061895E+03  0.7818608E-02  0.1144620E+00
         21   -1    0    0  501  502  0.00000000000E+00  0.00000000000E+00  0.32965304932E+03  0.32965304932E+03  0.00000000000E+00 0. -1.
         21   -1    0    0  502  503 -0.00000000000E+00 -0.00000000000E+00 -0.16956947408E+03  0.16956947408E+03  0.00000000000E+00 0. -1.
          6    1    1    2  501    0 -0.11055444572E+03 -0.26604725260E+02 -0.42101873858E+02  0.21044397035E+03  0.17200000000E+03 0. -1.
         -6    1    1    2    0  503  0.11055444572E+03  0.26604725260E+02  0.20218544909E+03  0.28877855305E+03  0.17200000000E+03 0. -1.
</event>
<event>
 4    1  0.4386646E+000  0.2312816E+03  0.7818608E-02  0.1125741E+00
         21   -1    0    0  501  502  0.00000000000E+00  0.00000000000E+00  0.17321235755E+03  0.17321235755E+03  0.00000000000E+00 0. -1.
         21   -1    0    0  502  503 -0.00000000000E+00 -0.00000000000E+00 -0.49830182962E+03  0.49830182962E+03  0.00000000000E+00 0. -1.
          6    1    1    2  501    0  0.13384316375E+03 -0.77415643217E+02  0.44500146377E+02  0.23552375108E+03  0.17200000000E+03 0. -1.
         -6    1    1    2    0  503 -0.13384316375E+03  0.77415643217E+02 -0.36958961844E+03  0.43599043609E+03  0.17200000000E+03 0. -1.
</event>
<event>
 4    1  0.4386646E+000  0.1763711E+03  0.7818608E-02  0.1171362E+00
         21   -1    0    0  501  502  0.00000000000E+00  0.00000000000E+00  0.83280487727E+02  0.83280487727E+02  0.00000000000E+00 0. -1.
         21   -1    0    0  502  503 -0.00000000000E+00 -0.00000000000E+00 -0.63261940449E+03  0.63261940449E+03  0.00000000000E+00 0. -1.
          6    1    1    2  501    0  0.57657639503E+01  0.38594499171E+02 -0.45590211096E+02  0.18216818259E+03  0.17200000000E+03 0. -1.
         -6    1    1    2    0  503 -0.57657639503E+01 -0.38594499171E+02 -0.50374870567E+03  0.53373170963E+03  0.17200000000E+03 0. -1.
</event>
<event>
 4    1  0.4386646E+000  0.1725945E+03  0.7818608E-02  0.1175169E+00
         21   -1    0    0  501  502  0.00000000000E+00  0.00000000000E+00  0.42149498433E+03  0.42149498433E+03  0.00000000000E+00 0.  1.
         21   -1    0    0  502  503 -0.00000000000E+00 -0.00000000000E+00 -0.18032742828E+03  0.18032742828E+03  0.00000000000E+00 0.  1.
          6    1    1    2  501    0 -0.42768380523E+01 -0.13658532970E+02  0.35523242584E+03  0.39494167067E+03  0.17200000000E+03 0.  1.
         -6    1    1    2    0  503  0.42768380523E+01  0.13658532970E+02 -0.11406486978E+03  0.20688074194E+03  0.17200000000E+03 0.  1.
</event>
<event>
 4    1  0.4386646E+000  0.1975496E+03  0.7818608E-02  0.1151823E+00
         21   -1    0    0  501  502  0.00000000000E+00  0.00000000000E+00  0.32918065330E+02  0.32918065330E+02  0.00000000000E+00 0.  1.
         21   -1    0    0  502  503 -0.00000000000E+00 -0.00000000000E+00 -0.20181312895E+04  0.20181312895E+04  0.00000000000E+00 0.  1.
          6    1    1    2  501    0  0.96923325238E+02 -0.69074801461E+01 -0.33390904002E+03  0.38797047731E+03  0.17200000000E+03 0.  1.
         -6    1    1    2    0  503 -0.96923325238E+02  0.69074801461E+01 -0.16513041841E+04  0.16630788775E+04  0.17200000000E+03 0.  1.
</event>
<event>
 4    1  0.4386646E+000  0.2559542E+03  0.7818608E-02  0.1109599E+00
         21   -1    0    0  501  502  0.00000000000E+00  0.00000000000E+00  0.22744118785E+03  0.22744118785E+03  0.00000000000E+00 0.  1.
         21   -1    0    0  502  503 -0.00000000000E+00 -0.00000000000E+00 -0.38028406732E+03  0.38028406732E+03  0.00000000000E+00 0.  1.
          6    1    1    2  501    0 -0.12599846269E+03 -0.14160831492E+03  0.73232667343E+02  0.26622462512E+03  0.17200000000E+03 0.  1.
         -6    1    1    2    0  503  0.12599846269E+03  0.14160831492E+03 -0.22607554682E+03  0.34150063005E+03  0.17200000000E+03 0.  1.
</event>
<event>
 4    1  0.4386646E+000  0.2291069E+03  0.7818608E-02  0.1127270E+00
         21   -1    0    0  501  502  0.00000000000E+00  0.00000000000E+00  0.16554685951E+03  0.16554685951E+03  0.00000000000E+00 0.  1.
         21   -1    0    0  502  503 -0.00000000000E+00 -0.00000000000E+00 -0.93175341439E+03  0.93175341439E+03  0.00000000000E+00 0.  1.
          6    1    1    2  501    0  0.43257735397E+01  0.15128531435E+03  0.62522914716E+02  0.23748489114E+03  0.17200000000E+03 0.  1.
         -6    1    1    2    0  503 -0.43257735397E+01 -0.15128531435E+03 -0.82872946959E+03  0.85981538276E+03  0.17200000000E+03 0.  1.
</event>
<event>
 4    1  0.4386646E+000  0.1726528E+03  0.7818608E-02  0.1175109E+00
         21   -1    0    0  501  502  0.00000000000E+00  0.00000000000E+00  0.27220382161E+02  0.27220382161E+02  0.00000000000E+00 0. -1.
         21   -1    0    0  502  503 -0.00000000000E+00 -0.00000000000E+00 -0.16624330647E+04  0.16624330647E+04  0.00000000000E+00 0. -1.
          6    1    1    2  501    0 -0.23951278053E+00 -0.14997471089E+02 -0.32407420589E+03  0.36719623150E+03  0.17200000000E+03 0. -1.
         -6    1    1    2    0  503  0.23951278053E+00  0.14997471089E+02 -0.13111384766E+04  0.13224572154E+04  0.17200000000E+03 0. -1.
</event>
<event>
 4    1  0.4386646E+000  0.1755882E+03  0.7818608E-02  0.1172142E+00
         21   -1    0    0  501  502  0.00000000000E+00  0.00000000000E+00  0.11912395466E+03  0.11912395466E+03  0.00000000000E+00 0.  1.
         21   -1    0    0  502  503 -0.00000000000E+00 -0.00000000000E+00 -0.70024675617E+03  0.70024675617E+03  0.00000000000E+00 0.  1.
          6    1    1    2  501    0  0.23383105207E+02 -0.26466034718E+02  0.34717606908E+02  0.17898752144E+03  0.17200000000E+03 0.  1.
         -6    1    1    2    0  503 -0.23383105207E+02  0.26466034718E+02 -0.61584040842E+03  0.64038318938E+03  0.17200000000E+03 0.  1.
</event>
<event>
 4    1  0.4386646E+000  0.2059827E+03  0.7818608E-02  0.1144787E+00
         21   -1    0    0  503  502  0.00000000000E+00  0.00000000000E+00  0.15846143833E+03  0.15846143833E+03  0.00000000000E+00 0.  1.
         21   -1    0    0  501  503 -0.00000000000E+00 -0.00000000000E+00 -0.32343057513E+03  0.32343057513E+03  0.00000000000E+00 0.  1.
          6    1    1    2  501    0 -0.96827625066E+02 -0.58900582247E+02 -0.18245255231E+03  0.27516867810E+03  0.17200000000E+03 0.  1.
         -6    1    1    2    0  502  0.96827625066E+02  0.58900582247E+02  0.17483415513E+02  0.20672333536E+03  0.17200000000E+03 0.  1.
</event>
<event>
 4    1  0.4386646E+000  0.2285805E+03  0.7818608E-02  0.1127643E+00
         21   -1    0    0  501  502  0.00000000000E+00  0.00000000000E+00  0.43101268323E+03  0.43101268323E+03  0.00000000000E+00 0. -1.
         21   -1    0    0  502  503 -0.00000000000E+00 -0.00000000000E+00 -0.19731294222E+03  0.19731294222E+03  0.00000000000E+00 0. -1.
          6    1    1    2  501    0 -0.14468794065E+03 -0.41598887082E+02  0.31194114946E+03  0.38672515861E+03  0.17200000000E+03 0. -1.
         -6    1    1    2    0  503  0.14468794065E+03  0.41598887082E+02 -0.78241408459E+02  0.24160046683E+03  0.17200000000E+03 0. -1.
</event>
<event>
 4    1  0.4386646E+000  0.1801800E+03  0.7818608E-02  0.1167629E+00
         21   -1    0    0  501  502  0.00000000000E+00  0.00000000000E+00  0.14813411517E+03  0.14813411517E+03  0.00000000000E+00 0.  1.
         21   -1    0    0  502  503 -0.00000000000E+00 -0.00000000000E+00 -0.34168907255E+03  0.34168907255E+03  0.00000000000E+00 0.  1.
          6    1    1    2  501    0  0.53660487767E+02  0.11822919661E+01  0.49884009503E+02  0.18695791015E+03  0.17200000000E+03 0.  1.
         -6    1    1    2    0  503 -0.53660487767E+02 -0.11822919661E+01 -0.24343896688E+03  0.30286527757E+03  0.17200000000E+03 0.  1.
</event>
<event>
 4    1  0.4386646E+000  0.1725874E+03  0.7818608E-02  0.1175176E+00
         21   -1    0    0  501  502  0.00000000000E+00  0.00000000000E+00  0.15659222610E+03  0.15659222610E+03  0.00000000000E+00 0.  1.
         21   -1    0    0  502  503 -0.00000000000E+00 -0.00000000000E+00 -0.24735937939E+03  0.24735937939E+03  0.00000000000E+00 0.  1.
          6    1    1    2  501    0  0.77850343239E+01  0.11907630699E+02  0.51693538289E+02  0.18016276066E+03  0.17200000000E+03 0.  1.
         -6    1    1    2    0  503 -0.77850343239E+01 -0.11907630699E+02 -0.14246069158E+03  0.22378884484E+03  0.17200000000E+03 0.  1.
</event>
<event>
 4    1  0.4386646E+000  0.1760984E+03  0.7818608E-02  0.1171633E+00
         21   -1    0    0  501  502  0.00000000000E+00  0.00000000000E+00  0.98469469314E+02  0.98469469314E+02  0.00000000000E+00 0. -1.
         21   -1    0    0  502  503 -0.00000000000E+00 -0.00000000000E+00 -0.33680556834E+03  0.33680556834E+03  0.00000000000E+00 0. -1.
          6    1    1    2  501    0 -0.26812934788E+02  0.26602556357E+02 -0.63697796771E+02  0.18726462237E+03  0.17200000000E+03 0.  1.
         -6    1    1    2    0  503  0.26812934788E+02 -0.26602556357E+02 -0.17463830226E+03  0.24801041529E+03  0.17200000000E+03 0.  1.
</event>
<event>
 4    1  0.4386646E+000  0.2675726E+03  0.7818608E-02  0.1102677E+00
         21   -1    0    0  503  502  0.00000000000E+00  0.00000000000E+00  0.87704152267E+02  0.87704152267E+02  0.00000000000E+00 0.  1.
         21   -1    0    0  501  503 -0.00000000000E+00 -0.00000000000E+00 -0.89918192636E+03  0.89918192636E+03  0.00000000000E+00 0.  1.
          6    1    1    2  501    0 -0.20300408006E+03 -0.28291790581E+02 -0.55552720908E+03  0.61660811052E+03  0.17200000000E+03 0.  1.
         -6    1    1    2    0  502  0.20300408006E+03  0.28291790581E+02 -0.25595056501E+03  0.37027796811E+03  0.17200000000E+03 0.  1.
</event>
<event>
 4    1  0.4386646E+000  0.1742252E+03  0.7818608E-02  0.1173512E+00
         21   -1    0    0  501  502  0.00000000000E+00  0.00000000000E+00  0.27154477252E+03  0.27154477252E+03  0.00000000000E+00 0.  1.
         21   -1    0    0  502  503 -0.00000000000E+00 -0.00000000000E+00 -0.21156334331E+03  0.21156334331E+03  0.00000000000E+00 0.  1.
          6    1    1    2  501    0 -0.11042135848E+02  0.25465484104E+02  0.19587833463E+03  0.26215022720E+03  0.17200000000E+03 0.  1.
         -6    1    1    2    0  503  0.11042135848E+02 -0.25465484104E+02 -0.13589690542E+03  0.22095788863E+03  0.17200000000E+03 0.  1.
</event>
<event>
 4    1  0.4386646E+000  0.2113501E+03  0.7818608E-02  0.1140501E+00
         21   -1    0    0  503  502  0.00000000000E+00  0.00000000000E+00  0.75073293210E+02  0.75073293210E+02  0.00000000000E+00 0.  1.
         21   -1    0    0  501  503 -0.00000000000E+00 -0.00000000000E+00 -0.59714117261E+03  0.59714117261E+03  0.00000000000E+00 0.  1.
          6    1    1    2  501    0 -0.79818523848E+02  0.93348108516E+02 -0.28114422379E+03  0.35172566111E+03  0.17200000000E+03 0.  1.
         -6    1    1    2    0  502  0.79818523848E+02 -0.93348108516E+02 -0.24092365561E+03  0.32048880471E+03  0.17200000000E+03 0.  1.
</event>
<event>
 4    1  0.4386646E+000  0.2005511E+03  0.7818608E-02  0.1149275E+00
         21   -1    0    0  503  502  0.00000000000E+00  0.00000000000E+00  0.34181135618E+03  0.34181135618E+03  0.00000000000E+00 0. -1.
         21   -1    0    0  501  503 -0.00000000000E+00 -0.00000000000E+00 -0.15130270734E+03  0.15130270734E+03  0.00000000000E+00 0. -1.
          6    1    1    2  501    0 -0.67285597291E+02  0.78162645596E+02 -0.20991824708E+02  0.20164673931E+03  0.17200000000E+03 0. -1.
         -6    1    1    2    0  502  0.67285597291E+02 -0.78162645596E+02  0.21150047356E+03  0.29146732421E+03  0.17200000000E+03 0. -1.
</event>
<event>
 4    1  0.4386646E+000  0.1797468E+03  0.7818608E-02  0.1168048E+00
         21   -1    0    0  503  502  0.00000000000E+00  0.00000000000E+00  0.81675490439E+03  0.81675490439E+03  0.00000000000E+00 0.  1.
         21   -1    0    0  501  503 -0.00000000000E+00 -0.00000000000E+00 -0.10626384307E+03  0.10626384307E+03  0.00000000000E+00 0.  1.
          6    1    1    2  501    0 -0.49382795374E+02 -0.16919127299E+02 -0.10408861731E+02  0.18004794292E+03  0.17200000000E+03 0.  1.
         -6    1    1    2    0  502  0.49382795374E+02  0.16919127299E+02  0.72089992305E+03  0.74297080454E+03  0.17200000000E+03 0.  1.
</event>
<event>
 4    1  0.4386646E+000  0.2924205E+03  0.7818608E-02  0.1089092E+00
         21   -1    0    0  503  502  0.00000000000E+00  0.00000000000E+00  0.10784474309E+03  0.10784474309E+03  0.00000000000E+00 0.  1.
         21   -1    0    0  501  503 -0.00000000000E+00 -0.00000000000E+00 -0.21763393719E+04  0.21763393719E+04  0.00000000000E+00 0.  1.
          6    1    1    2  501    0 -0.17167685421E+03  0.16264310140E+03 -0.19448279595E+04  0.19666889720E+04  0.17200000000E+03 0.  1.
         -6    1    1    2    0  502  0.17167685421E+03 -0.16264310140E+03 -0.12366666932E+03  0.31749514297E+03  0.17200000000E+03 0.  1.
</event>
<event>
 4    1  0.4386646E+000  0.2092362E+03  0.7818608E-02  0.1142172E+00
         21   -1    0    0  501  502  0.00000000000E+00  0.00000000000E+00  0.65720445753E+02  0.65720445753E+02  0.00000000000E+00 0.  1.
         21   -1    0    0  502  503 -0.00000000000E+00 -0.00000000000E+00 -0.76991077192E+03  0.76991077192E+03  0.00000000000E+00 0. -1.
          6    1    1    2  501    0 -0.11008451850E+03  0.45576261293E+02 -0.19871218043E+03  0.28855905367E+03  0.17200000000E+03 0.  1.
         -6    1    1    2    0  503  0.11008451850E+03 -0.45576261293E+02 -0.50547814573E+03  0.54707216400E+03  0.17200000000E+03 0. -1.
</event>
<event>
 4    1  0.4386646E+000  0.2379107E+03  0.7818608E-02  0.1121193E+00
         21   -1    0    0  503  502  0.00000000000E+00  0.00000000000E+00  0.11745543306E+03  0.11745543306E+03  0.00000000000E+00 0. -1.
         21   -1    0    0  501  503 -0.00000000000E+00 -0.00000000000E+00 -0.48539027650E+03  0.48539027650E+03  0.00000000000E+00 0.  1.
          6    1    1    2  501    0  0.10490009119E+03  0.12654427903E+03 -0.15839841526E+03  0.28581732215E+03  0.17200000000E+03 0. -1.
         -6    1    1    2    0  502 -0.10490009119E+03 -0.12654427903E+03 -0.20953642818E+03  0.31702838741E+03  0.17200000000E+03 0.  1.
</event>
<event>
 4    1  0.4386646E+000  0.2025405E+03  0.7818608E-02  0.1147613E+00
         21   -1    0    0  501  502  0.00000000000E+00  0.00000000000E+00  0.81603710481E+03  0.81603710481E+03  0.00000000000E+00 0.  1.
         21   -1    0    0  502  503 -0.00000000000E+00 -0.00000000000E+00 -0.61315883224E+02  0.61315883224E+02  0.00000000000E+00 0.  1.
          6    1    1    2  501    0  0.86814571082E+02  0.62465104801E+02  0.56354646380E+03  0.59883827194E+03  0.17200000000E+03 0.  1.
         -6    1    1    2    0  503 -0.86814571082E+02 -0.62465104801E+02  0.19117475778E+03  0.27851471610E+03  0.17200000000E+03 0.  1.
</event>
<event>
 4    1  0.4386646E+000  0.1857186E+03  0.7818608E-02  0.1162381E+00
         21   -1    0    0  503  502  0.00000000000E+00  0.00000000000E+00  0.21100756705E+03  0.21100756705E+03  0.00000000000E+00 0.  1.
         21   -1    0    0  501  503 -0.00000000000E+00 -0.00000000000E+00 -0.21337640524E+03  0.21337640524E+03  0.00000000000E+00 0.  1.
          6    1    1    2  501    0 -0.35937027311E+02 -0.60132699223E+02 -0.10381459429E+03  0.21276485010E+03  0.17200000000E+03 0.  1.
         -6    1    1    2    0  502  0.35937027311E+02  0.60132699223E+02  0.10144575610E+03  0.21161912219E+03  0.17200000000E+03 0.  1.
</event>
<event>
 4    1  0.4386646E+000  0.1903248E+03  0.7818608E-02  0.1158169E+00
         21   -1    0    0  501  502  0.00000000000E+00  0.00000000000E+00  0.77976258129E+03  0.77976258129E+03  0.00000000000E+00 0. -1.
         21   -1    0    0  502  503 -0.00000000000E+00 -0.00000000000E+00 -0.18404189925E+03  0.18404189925E+03  0.00000000000E+00 0. -1.
          6    1    1    2  501    0 -0.49766087739E+02 -0.64520397128E+02  0.71452800007E+03  0.73944155145E+03  0.17200000000E+03 0. -1.
         -6    1    1    2    0  503  0.49766087739E+02  0.64520397128E+02 -0.11880731802E+03  0.22436292909E+03  0.17200000000E+03 0. -1.
</event>
<event>
 4    1  0.4386646E+000  0.2169220E+03  0.7818608E-02  0.1136199E+00
         21   -1    0    0  501  502  0.00000000000E+00  0.00000000000E+00  0.56865396376E+02  0.56865396376E+02  0.00000000000E+00 0. -1.
         21   -1    0    0  502  503 -0.00000000000E+00 -0.00000000000E+00 -0.99894988586E+03  0.99894988586E+03  0.00000000000E+00 0. -1.
          6    1    1    2  501    0 -0.13196176218E+03 -0.75662315004E+01 -0.25232848838E+03  0.33275339305E+03  0.17200000000E+03 0. -1.
         -6    1    1    2    0  503  0.13196176218E+03  0.75662315004E+01 -0.68975600111E+03  0.72306188919E+03  0.17200000000E+03 0. -1.
</event>
<event>
 4    1  0.4386646E+000  0.2531971E+03  0.7818608E-02  0.1111301E+00
         21   -1    0    0  503  502  0.00000000000E+00  0.00000000000E+00  0.28909697003E+03  0.28909697003E+03  0.00000000000E+00 0. -1.
         21   -1    0    0  501  503 -0.00000000000E+00 -0.00000000000E+00 -0.58782452104E+03  0.58782452104E+03  0.00000000000E+00 0.  1.
          6    1    1    2  501    0 -0.12670216268E+03 -0.13590924527E+03 -0.49537367645E+03  0.55633069329E+03  0.17200000000E+03 0.  1.
         -6    1    1    2    0  502  0.12670216268E+03  0.13590924527E+03  0.19664612544E+03  0.32059079779E+03  0.17200000000E+03 0. -1.
</event>
<event>
 4    1  0.4386646E+000  0.2677773E+03  0.7818608E-02  0.1102558E+00
         21   -1    0    0  503  502  0.00000000000E+00  0.00000000000E+00  0.34015743666E+03  0.34015743666E+03  0.00000000000E+00 0.  1.
         21   -1    0    0  501  503 -0.00000000000E+00 -0.00000000000E+00 -0.21595968314E+03  0.21595968314E+03  0.00000000000E+00 0.  1.
          6    1    1    2  501    0 -0.18222943568E+03 -0.94409322359E+02  0.19113243307E+02  0.26845856933E+03  0.17200000000E+03 0.  1.
         -6    1    1    2    0  502  0.18222943568E+03  0.94409322359E+02  0.10508451021E+03  0.28765855048E+03  0.17200000000E+03 0.  1.
</event>
<event>
 4    1  0.4386646E+000  0.1764550E+03  0.7818608E-02  0.1171279E+00
         21   -1    0    0  501  502  0.00000000000E+00  0.00000000000E+00  0.23202219321E+04  0.23202219321E+04  0.00000000000E+00 0. -1.
         21   -1    0    0  502  503 -0.00000000000E+00 -0.00000000000E+00 -0.51446358990E+02  0.51446358990E+02  0.00000000000E+00 0. -1.
          6    1    1    2  501    0  0.31888823474E+01 -0.39270681563E+02  0.21538978549E+04  0.21611136769E+04  0.17200000000E+03 0. -1.
         -6    1    1    2    0  503 -0.31888823474E+01  0.39270681563E+02  0.11487771826E+03  0.21055461419E+03  0.17200000000E+03 0. -1.
</event>
<event>
 4    1  0.4386646E+000  0.1733638E+03  0.7818608E-02  0.1174385E+00
         21   -1    0    0  501  502  0.00000000000E+00  0.00000000000E+00  0.42256199117E+03  0.42256199117E+03  0.00000000000E+00 0.  1.
         21   -1    0    0  502  503 -0.00000000000E+00 -0.00000000000E+00 -0.86192379256E+02  0.86192379256E+02  0.00000000000E+00 0.  1.
          6    1    1    2  501    0 -0.19193801210E+01  0.21617934305E+02  0.27453846514E+03  0.32469429921E+03  0.17200000000E+03 0.  1.
         -6    1    1    2    0  503  0.19193801210E+01 -0.21617934305E+02  0.61831146783E+02  0.18406007122E+03  0.17200000000E+03 0.  1.
</event>
<event>
 4    1  0.4386646E+000  0.2134840E+03  0.7818608E-02  0.1138836E+00
         21   -1    0    0  503  502  0.00000000000E+00  0.00000000000E+00  0.29203992504E+03  0.29203992504E+03  0.00000000000E+00 0.  1.
         21   -1    0    0  501  503 -0.00000000000E+00 -0.00000000000E+00 -0.61747668456E+03  0.61747668456E+03  0.00000000000E+00 0.  1.
          6    1    1    2  501    0 -0.61037385102E+02 -0.11075128802E+03 -0.55583151289E+03  0.59541924801E+03  0.17200000000E+03 0.  1.
         -6    1    1    2    0  502  0.61037385102E+02  0.11075128802E+03  0.23039475337E+03  0.31409736159E+03  0.17200000000E+03 0.  1.
</event>
<event>
 4    1  0.4386646E+000  0.2193057E+03  0.7818608E-02  0.1134402E+00
         21   -1    0    0  503  502  0.00000000000E+00  0.00000000000E+00  0.14228921844E+04  0.14228921844E+04  0.00000000000E+00 0. -1.
         21   -1    0    0  501  503 -0.00000000000E+00 -0.00000000000E+00 -0.35272852608E+02  0.35272852608E+02  0.00000000000E+00 0. -1.
          6    1    1    2  501    0 -0.41888837185E+02  0.12944620181E+03  0.54487090964E+03  0.58734938667E+03  0.17200000000E+03 0. -1.
         -6    1    1    2    0  502  0.41888837185E+02 -0.12944620181E+03  0.84274842217E+03  0.87081565037E+03  0.17200000000E+03 0. -1.
</event>
<event>
 4    1  0.4386646E+000  0.1838518E+03  0.7818608E-02  0.1164126E+00
         21   -1    0    0  501  502  0.00000000000E+00  0.00000000000E+00  0.70442433382E+02  0.70442433382E+02  0.00000000000E+00 0. -1.
         21   -1    0    0  502  503 -0.00000000000E+00 -0.00000000000E+00 -0.50104304608E+03  0.50104304608E+03  0.00000000000E+00 0. -1.
          6    1    1    2  501    0  0.41640577826E+02 -0.49835188848E+02 -0.15652693416E+03  0.24145841233E+03  0.17200000000E+03 0. -1.
         -6    1    1    2    0  503 -0.41640577826E+02  0.49835188848E+02 -0.27407367854E+03  0.33002706713E+03  0.17200000000E+03 0. -1.
</event>
<event>
 4    1  0.4386646E+000  0.2919973E+03  0.7818608E-02  0.1089311E+00
         21   -1    0    0  503  502  0.00000000000E+00  0.00000000000E+00  0.34192832246E+03  0.34192832246E+03  0.00000000000E+00 0. -1.
         21   -1    0    0  501  503 -0.00000000000E+00 -0.00000000000E+00 -0.25275374209E+03  0.25275374209E+03  0.00000000000E+00 0.  1.
          6    1    1    2  501    0  0.19003726105E+03 -0.13987224980E+03  0.10120365985E+02  0.29217260080E+03  0.17200000000E+03 0. -1.
         -6    1    1    2    0  502 -0.19003726105E+03  0.13987224980E+03  0.79054214380E+02  0.30250946375E+03  0.17200000000E+03 0.  1.
</event>
<event>
 4    1  0.4386646E+000  0.1895850E+03  0.7818608E-02  0.1158836E+00
         21   -1    0    0  503  502  0.00000000000E+00  0.00000000000E+00  0.18011505497E+03  0.18011505497E+03  0.00000000000E+00 0.  1.
         21   -1    0    0  501  503 -0.00000000000E+00 -0.00000000000E+00 -0.20948093020E+03  0.20948093020E+03  0.00000000000E+00 0.  1.
          6    1    1    2  501    0 -0.42153173845E+02  0.67687256042E+02  0.27724988666E+02  0.19160148666E+03  0.17200000000E+03 0.  1.
         -6    1    1    2    0  502  0.42153173845E+02 -0.67687256042E+02 -0.57090863900E+02  0.19799449850E+03  0.17200000000E+03 0.  1.
</event>
<event>
 4    1  0.4386646E+000  0.1947731E+03  0.7818608E-02  0.1154225E+00
         21   -1    0    0  501  502  0.00000000000E+00  0.00000000000E+00  0.13452318110E+03  0.13452318110E+03  0.00000000000E+00 0. -1.
         21   -1    0    0  502  503 -0.00000000000E+00 -0.00000000000E+00 -0.61990578312E+03  0.61990578312E+03  0.00000000000E+00 0. -1.
          6    1    1    2  501    0  0.36027731755E+02  0.83991365583E+02  0.35804404092E+02  0.19803661858E+03  0.17200000000E+03 0. -1.
         -6    1    1    2    0  503 -0.36027731755E+02 -0.83991365583E+02 -0.52118700611E+03  0.55639234564E+03  0.17200000000E+03 0. -1.
</event>
<event>
 4    1  0.4386646E+000  0.2515845E+03  0.7818608E-02  0.1112308E+00
         21   -1    0    0  501  502  0.00000000000E+00  0.00000000000E+00  0.17797074960E+03  0.17797074960E+03  0.00000000000E+00 0.  1.
         21   -1    0    0  502  503 -0.00000000000E+00 -0.00000000000E+00 -0.37613907601E+03  0.37613907601E+03  0.00000000000E+00 0.  1.
          6    1    1    2  501    0 -0.18339711608E+03  0.87339248033E+01 -0.34417062473E+02  0.25392778072E+03  0.17200000000E+03 0.  1.
         -6    1    1    2    0  503  0.18339711608E+03 -0.87339248033E+01 -0.16375126394E+03  0.30018204489E+03  0.17200000000E+03 0.  1.
</event>
<event>
 4    1  0.4386646E+000  0.2909950E+03  0.7818608E-02  0.1089831E+00
         21   -1    0    0  501  502  0.00000000000E+00  0.00000000000E+00  0.23498167238E+03  0.23498167238E+03  0.00000000000E+00 0. -1.
         21   -1    0    0  502  503 -0.00000000000E+00 -0.00000000000E+00 -0.37198794444E+03  0.37198794444E+03  0.00000000000E+00 0. -1.
          6    1    1    2  501    0  0.23393774043E+03 -0.19163731900E+02 -0.14847605166E+02  0.29137358562E+03  0.17200000000E+03 0. -1.
         -6    1    1    2    0  503 -0.23393774043E+03  0.19163731900E+02 -0.12215866690E+03  0.31559603121E+03  0.17200000000E+03 0. -1.
</event>
<event>
 4    1  0.4386646E+000  0.1753655E+03  0.7818608E-02  0.1172365E+00
         21   -1    0    0  501  502  0.00000000000E+00  0.00000000000E+00  0.17873911983E+03  0.17873911983E+03  0.00000000000E+00 0. -1.
         21   -1    0    0  502  503 -0.00000000000E+00 -0.00000000000E+00 -0.19319789670E+03  0.19319789670E+03  0.00000000000E+00 0. -1.
          6    1    1    2  501    0  0.29100813238E+02 -0.17950243745E+02  0.54290306421E+02  0.18357697555E+03  0.17200000000E+03 0. -1.
         -6    1    1    2    0  503 -0.29100813238E+02  0.17950243745E+02 -0.68749083292E+02  0.18836004097E+03  0.17200000000E+03 0. -1.
</event>
<event>
 4    1  0.4386646E+000  0.2331953E+03  0.7818608E-02  0.1124411E+00
         21   -1    0    0  503  502  0.00000000000E+00  0.00000000000E+00  0.33935407101E+03  0.33935407101E+03  0.00000000000E+00 0.  1.
         21   -1    0    0  501  503 -0.00000000000E+00 -0.00000000000E+00 -0.23451898073E+03  0.23451898073E+03  0.00000000000E+00 0. -1.
          6    1    1    2  501    0 -0.99166514071E+02 -0.12231953765E+03 -0.10906025680E+03  0.25743777193E+03  0.17200000000E+03 0. -1.
         -6    1    1    2    0  502  0.99166514071E+02  0.12231953765E+03  0.21389534708E+03  0.31643527981E+03  0.17200000000E+03 0.  1.
</event>
<event>
 4    1  0.4386646E+000  0.2248093E+03  0.7818608E-02  0.1130347E+00
         21   -1    0    0  503  502  0.00000000000E+00  0.00000000000E+00  0.28282526755E+03  0.28282526755E+03  0.00000000000E+00 0.  1.
         21   -1    0    0  501  503 -0.00000000000E+00 -0.00000000000E+00 -0.19996440139E+03  0.19996440139E+03  0.00000000000E+00 0. -1.
          6    1    1    2  501    0  0.13849885359E+03  0.42110600709E+02 -0.37299054015E+02  0.22788254556E+03  0.17200000000E+03 0. -1.
         -6    1    1    2    0  502 -0.13849885359E+03 -0.42110600709E+02  0.12015992018E+03  0.25490712339E+03  0.17200000000E+03 0.  1.
</event>
<event>
 4    1  0.4386646E+000  0.1927006E+03  0.7818608E-02  0.1156048E+00
         21   -1    0    0  501  502  0.00000000000E+00  0.00000000000E+00  0.11601823311E+03  0.11601823311E+03  0.00000000000E+00 0.  1.
         21   -1    0    0  502  503 -0.00000000000E+00 -0.00000000000E+00 -0.48907308730E+03  0.48907308730E+03  0.00000000000E+00 0.  1.
          6    1    1    2  501    0  0.27303621833E+02  0.82486452089E+02 -0.86763971057E+01  0.19289578121E+03  0.17200000000E+03 0.  1.
         -6    1    1    2    0  503 -0.27303621833E+02 -0.82486452089E+02 -0.36437845709E+03  0.41219553920E+03  0.17200000000E+03 0.  1.
</event>
<event>
 4    1  0.4386646E+000  0.2149457E+03  0.7818608E-02  0.1137708E+00
         21   -1    0    0  501  502  0.00000000000E+00  0.00000000000E+00  0.11524195453E+03  0.11524195453E+03  0.00000000000E+00 0. -1.
         21   -1    0    0  502  503 -0.00000000000E+00 -0.00000000000E+00 -0.41146964416E+03  0.41146964416E+03  0.00000000000E+00 0. -1.
          6    1    1    2  501    0  0.28273043875E+02  0.12577083770E+03 -0.10592519182E+03  0.23962849348E+03  0.17200000000E+03 0. -1.
         -6    1    1    2    0  503 -0.28273043875E+02 -0.12577083770E+03 -0.19030249781E+03  0.28708310521E+03  0.17200000000E+03 0. -1.
</event>
<event>
 4    1  0.4386646E+000  0.2836893E+03  0.7818608E-02  0.1093691E+00
         21   -1    0    0  501  502  0.00000000000E+00  0.00000000000E+00  0.29793875289E+03  0.29793875289E+03  0.00000000000E+00 0.  1.
         21   -1    0    0  502  503 -0.00000000000E+00 -0.00000000000E+00 -0.32110442797E+03  0.32110442797E+03  0.00000000000E+00 0.  1.
          6    1    1    2  501    0 -0.20946706144E+03 -0.83780609239E+02 -0.13491618237E+03  0.31413693922E+03  0.17200000000E+03 0.  1.
         -6    1    1    2    0  503  0.20946706144E+03  0.83780609239E+02  0.11175050730E+03  0.30490624165E+03  0.17200000000E+03 0.  1.
</event>
<event>
 4    1  0.4386646E+000  0.3263105E+03  0.7818608E-02  0.1072781E+00
         21   -1    0    0  501  502  0.00000000000E+00  0.00000000000E+00  0.73735575894E+03  0.73735575894E+03  0.00000000000E+00 0.  1.
         21   -1    0    0  502  503 -0.00000000000E+00 -0.00000000000E+00 -0.14493439620E+03  0.14493439620E+03  0.00000000000E+00 0.  1.
          6    1    1    2  501    0 -0.12333173366E+02  0.27702422419E+03  0.32284939919E+03  0.45903187527E+03  0.17200000000E+03 0.  1.
         -6    1    1    2    0  503  0.12333173366E+02 -0.27702422419E+03  0.26957196355E+03  0.42325827988E+03  0.17200000000E+03 0.  1.
</event>
<event>
 4    1  0.4386646E+000  0.1765079E+03  0.7818608E-02  0.1171226E+00
         21   -1    0    0  503  502  0.00000000000E+00  0.00000000000E+00  0.67013898051E+02  0.67013898051E+02  0.00000000000E+00 0.  1.
         21   -1    0    0  501  503 -0.00000000000E+00 -0.00000000000E+00 -0.15514695150E+04  0.15514695150E+04  0.00000000000E+00 0.  1.
          6    1    1    2  501    0  0.35756310067E+02  0.17103853074E+02 -0.14194551984E+04  0.14303874006E+04  0.17200000000E+03 0.  1.
         -6    1    1    2    0  502 -0.35756310067E+02 -0.17103853074E+02 -0.65000418577E+02  0.18809601249E+03  0.17200000000E+03 0.  1.
</event>
<event>
 4    1  0.4386646E+000  0.1892745E+03  0.7818608E-02  0.1159117E+00
         21   -1    0    0  501  502  0.00000000000E+00  0.00000000000E+00  0.11463204223E+03  0.11463204223E+03  0.00000000000E+00 0.  1.
         21   -1    0    0  502  503 -0.00000000000E+00 -0.00000000000E+00 -0.36652648984E+03  0.36652648984E+03  0.00000000000E+00 0.  1.
          6    1    1    2  501    0  0.51604326579E+02  0.59814913709E+02 -0.33599196020E+02  0.19223354649E+03  0.17200000000E+03 0.  1.
         -6    1    1    2    0  503 -0.51604326579E+02 -0.59814913709E+02 -0.21829525159E+03  0.28892498558E+03  0.17200000000E+03 0.  1.
</event>
<event>
 4    1  0.4386646E+000  0.2113935E+03  0.7818608E-02  0.1140467E+00
         21   -1    0    0  501  502  0.00000000000E+00  0.00000000000E+00  0.11596072034E+04  0.11596072034E+04  0.00000000000E+00 0.  1.
         21   -1    0    0  502  503 -0.00000000000E+00 -0.00000000000E+00 -0.38948974203E+02  0.38948974203E+02  0.00000000000E+00 0.  1.
          6    1    1    2  501    0  0.78866193973E+02  0.94251429255E+02  0.49865878101E+03  0.54161590481E+03  0.17200000000E+03 0.  1.
         -6    1    1    2    0  503 -0.78866193973E+02 -0.94251429255E+02  0.62199944818E+03  0.65694027278E+03  0.17200000000E+03 0.  1.
</event>
<event>
 4    1  0.4386646E+000  0.1797600E+03  0.7818608E-02  0.1168036E+00
         21   -1    0    0  503  502  0.00000000000E+00  0.00000000000E+00  0.13014467118E+04  0.13014467118E+04  0.00000000000E+00 0.  1.
         21   -1    0    0  501  503 -0.00000000000E+00 -0.00000000000E+00 -0.26218013217E+02  0.26218013217E+02  0.00000000000E+00 0.  1.
          6    1    1    2  501    0  0.46031726823E+02 -0.24713098549E+02  0.48481999355E+03  0.51707260927E+03  0.17200000000E+03 0.  1.
         -6    1    1    2    0  502 -0.46031726823E+02  0.24713098549E+02  0.79040870503E+03  0.81059211575E+03  0.17200000000E+03 0.  1.
</event>
<event>
 4    1  0.4386646E+000  0.1905060E+03  0.7818608E-02  0.1158006E+00
         21   -1    0    0  503  502  0.00000000000E+00  0.00000000000E+00  0.65804931364E+03  0.65804931364E+03  0.00000000000E+00 0.  1.
         21   -1    0    0  501  503 -0.00000000000E+00 -0.00000000000E+00 -0.10787042433E+03  0.10787042433E+03  0.00000000000E+00 0.  1.
          6    1    1    2  501    0 -0.10236404413E+02  0.81263443474E+02  0.73671348636E+01  0.19064838288E+03  0.17200000000E+03 0.  1.
         -6    1    1    2    0  502  0.10236404413E+02 -0.81263443474E+02  0.54281175444E+03  0.57527135509E+03  0.17200000000E+03 0.  1.
</event>
<event>
 4    1  0.4386646E+000  0.1783214E+03  0.7818608E-02  0.1169438E+00
         21   -1    0    0  501  502  0.00000000000E+00  0.00000000000E+00  0.85730111778E+02  0.85730111778E+02  0.00000000000E+00 0. -1.
         21   -1    0    0  502  503 -0.00000000000E+00 -0.00000000000E+00 -0.47005194076E+03  0.47005194076E+03  0.00000000000E+00 0. -1.
          6    1    1    2  501    0  0.35552527249E+02  0.30830700353E+02 -0.64540207580E+02  0.18964164277E+03  0.17200000000E+03 0. -1.
         -6    1    1    2    0  503 -0.35552527249E+02 -0.30830700353E+02 -0.31978162140E+03  0.36614040976E+03  0.17200000000E+03 0. -1.
</event>
<event>
 4    1  0.4386646E+000  0.2390734E+03  0.7818608E-02  0.1120412E+00
         21   -1    0    0  503  502  0.00000000000E+00  0.00000000000E+00  0.26532043781E+02  0.26532043781E+02  0.00000000000E+00 0. -1.
         21   -1    0    0  501  503 -0.00000000000E+00 -0.00000000000E+00 -0.22869254517E+04  0.22869254517E+04  0.00000000000E+00 0.  1.
          6    1    1    2  501    0 -0.66255819192E+02 -0.15225727650E+03 -0.14088308493E+04  0.14289718240E+04  0.17200000000E+03 0.  1.
         -6    1    1    2    0  502  0.66255819192E+02  0.15225727650E+03 -0.85156255858E+03  0.88448567145E+03  0.17200000000E+03 0. -1.
</event>
<event>
 4    1  0.4386646E+000  0.1943763E+03  0.7818608E-02  0.1154572E+00
         21   -1    0    0  501  502  0.00000000000E+00  0.00000000000E+00  0.98733074823E+02  0.98733074823E+02  0.00000000000E+00 0. -1.
         21   -1    0    0  502  503 -0.00000000000E+00 -0.00000000000E+00 -0.47232751027E+03  0.47232751027E+03  0.00000000000E+00 0.  1.
          6    1    1    2  501    0 -0.82745264247E+01 -0.90164723115E+02 -0.62395921860E+02  0.20414552688E+03  0.17200000000E+03 0. -1.
         -6    1    1    2    0  503  0.82745264247E+01  0.90164723115E+02 -0.31119851359E+03  0.36691505821E+03  0.17200000000E+03 0.  1.
</event>
<event>
 4    1  0.4386646E+000  0.3027023E+03  0.7818608E-02  0.1083897E+00
         21   -1    0    0  501  502  0.00000000000E+00  0.00000000000E+00  0.57719843305E+03  0.57719843305E+03  0.00000000000E+00 0. -1.
         21   -1    0    0  502  503 -0.00000000000E+00 -0.00000000000E+00 -0.15875708454E+03  0.15875708454E+03  0.00000000000E+00 0.  1.
          6    1    1    2  501    0  0.24425018599E+03  0.48852401011E+02  0.20633633540E+03  0.36633781370E+03  0.17200000000E+03 0. -1.
         -6    1    1    2    0  503 -0.24425018599E+03 -0.48852401011E+02  0.21210501311E+03  0.36961770389E+03  0.17200000000E+03 0. -1.
</event>
<event>
 4    1  0.4386646E+000  0.2628080E+03  0.7818608E-02  0.1105468E+00
         21   -1    0    0  501  502  0.00000000000E+00  0.00000000000E+00  0.15847826154E+03  0.15847826154E+03  0.00000000000E+00 0. -1.
         21   -1    0    0  502  503 -0.00000000000E+00 -0.00000000000E+00 -0.62442448244E+03  0.62442448244E+03  0.00000000000E+00 0. -1.
          6    1    1    2  501    0  0.13755111550E+03  0.14340055974E+03 -0.17836849392E+02  0.26341257204E+03  0.17200000000E+03 0. -1.
         -6    1    1    2    0  503 -0.13755111550E+03 -0.14340055974E+03 -0.44810937150E+03  0.51949017194E+03  0.17200000000E+03 0. -1.
</event>
<event>
 4    1  0.4386646E+000  0.1970329E+03  0.7818608E-02  0.1152267E+00
         21   -1    0    0  503  502  0.00000000000E+00  0.00000000000E+00  0.10415659283E+03  0.10415659283E+03  0.00000000000E+00 0.  1.
         21   -1    0    0  501  503 -0.00000000000E+00 -0.00000000000E+00 -0.64747312672E+03  0.64747312672E+03  0.00000000000E+00 0.  1.
          6    1    1    2  501    0 -0.68220154954E+02 -0.67704921888E+02 -0.51646822471E+03  0.55277606056E+03  0.17200000000E+03 0.  1.
         -6    1    1    2    0  502  0.68220154954E+02  0.67704921888E+02 -0.26848309171E+02  0.19885365899E+03  0.17200000000E+03 0.  1.
</event>
<event>
 4    1  0.4386646E+000  0.1953689E+03  0.7818608E-02  0.1153706E+00
         21   -1    0    0  503  502  0.00000000000E+00  0.00000000000E+00  0.86256735491E+02  0.86256735491E+02  0.00000000000E+00 0. -1.
         21   -1    0    0  501  503 -0.00000000000E+00 -0.00000000000E+00 -0.45416783351E+03  0.45416783351E+03  0.00000000000E+00 0. -1.
          6    1    1    2  501    0  0.90932315544E+02 -0.17784907424E+02 -0.14065341917E+03  0.24073299165E+03  0.17200000000E+03 0. -1.
         -6    1    1    2    0  502 -0.90932315544E+02  0.17784907424E+02 -0.22725767885E+03  0.29969157736E+03  0.17200000000E+03 0. -1.
</event>
<event>
 4    1  0.4386646E+000  0.2462305E+03  0.7818608E-02  0.1115710E+00
         21   -1    0    0  503  502  0.00000000000E+00  0.00000000000E+00  0.80499061035E+03  0.80499061035E+03  0.00000000000E+00 0.  1.
         21   -1    0    0  501  503 -0.00000000000E+00 -0.00000000000E+00 -0.92002375322E+02  0.92002375322E+02  0.00000000000E+00 0. -1.
          6    1    1    2  501    0 -0.15947821691E+03  0.74914385365E+02  0.16549661033E+03  0.29667927942E+03  0.17200000000E+03 0.  1.
         -6    1    1    2    0  502  0.15947821691E+03 -0.74914385365E+02  0.54749162469E+03  0.60031370625E+03  0.17200000000E+03 0.  1.
</event>
<event>
 4    1  0.4386646E+000  0.1750843E+03  0.7818608E-02  0.1172647E+00
         21   -1    0    0  503  502  0.00000000000E+00  0.00000000000E+00  0.18552031204E+03  0.18552031204E+03  0.00000000000E+00 0.  1.
         21   -1    0    0  501  503 -0.00000000000E+00 -0.00000000000E+00 -0.27772446316E+03  0.27772446316E+03  0.00000000000E+00 0.  1.
          6    1    1    2  501    0 -0.15691953500E+02 -0.28710443805E+02 -0.19351262814E+03  0.26096295568E+03  0.17200000000E+03 0.  1.
         -6    1    1    2    0  502  0.15691953500E+02  0.28710443805E+02  0.10130847703E+03  0.20228181951E+03  0.17200000000E+03 0.  1.
</event>
<event>
 4    1  0.4386646E+000  0.2339607E+03  0.7818608E-02  0.1123883E+00
         21   -1    0    0  503  502  0.00000000000E+00  0.00000000000E+00  0.16773332337E+03  0.16773332337E+03  0.00000000000E+00 0.  1.
         21   -1    0    0  501  503 -0.00000000000E+00 -0.00000000000E+00 -0.34679770731E+03  0.34679770731E+03  0.00000000000E+00 0.  1.
          6    1    1    2  501    0  0.56224668571E+02 -0.14829833621E+03 -0.15202103765E+03  0.27901255485E+03  0.17200000000E+03 0.  1.
         -6    1    1    2    0  502 -0.56224668571E+02  0.14829833621E+03 -0.27043346285E+02  0.23551847583E+03  0.17200000000E+03 0.  1.
</event>
<event>
 4    1  0.4386646E+000  0.2158130E+03  0.7818608E-02  0.1137044E+00
         21   -1    0    0  501  502  0.00000000000E+00  0.00000000000E+00  0.27550927619E+03  0.27550927619E+03  0.00000000000E+00 0. -1.
         21   -1    0    0  502  503 -0.00000000000E+00 -0.00000000000E+00 -0.17368551552E+03  0.17368551552E+03  0.00000000000E+00 0.  1.
          6    1    1    2  501    0  0.57611645537E+02  0.11692800174E+03  0.87597948289E+02  0.23291341704E+03  0.17200000000E+03 0. -1.
         -6    1    1    2    0  503 -0.57611645537E+02 -0.11692800174E+03  0.14225812374E+02  0.21628137467E+03  0.17200000000E+03 0.  1.
</event>
<event>
 4    1  0.4386646E+000  0.2019926E+03  0.7818608E-02  0.1148069E+00
         21   -1    0    0  503  502  0.00000000000E+00  0.00000000000E+00  0.34259018319E+03  0.34259018319E+03  0.00000000000E+00 0.  1.
         21   -1    0    0  501  503 -0.00000000000E+00 -0.00000000000E+00 -0.15912142340E+03  0.15912142340E+03  0.00000000000E+00 0. -1.
          6    1    1    2  501    0 -0.91512971293E+02 -0.53314174792E+02 -0.34079716139E+02  0.20484738759E+03  0.17200000000E+03 0. -1.
         -6    1    1    2    0  502  0.91512971293E+02  0.53314174792E+02  0.21754847592E+03  0.29686421900E+03  0.17200000000E+03 0.  1.
</event>
<event>
 4    1  0.4386646E+000  0.1945921E+03  0.7818608E-02  0.1154384E+00
         21   -1    0    0  503  502  0.00000000000E+00  0.00000000000E+00  0.74884614992E+03  0.74884614992E+03  0.00000000000E+00 0. -1.
         21   -1    0    0  501  503 -0.00000000000E+00 -0.00000000000E+00 -0.52487375128E+02  0.52487375128E+02  0.00000000000E+00 0. -1.
          6    1    1    2  501    0  0.50558018786E+02 -0.75670113089E+02  0.42484018113E+03  0.46728498669E+03  0.17200000000E+03 0. -1.
         -6    1    1    2    0  502 -0.50558018786E+02  0.75670113089E+02  0.27151859366E+03  0.33404853836E+03  0.17200000000E+03 0. -1.
</event>
<event>
 4    1  0.4386646E+000  0.2038220E+03  0.7818608E-02  0.1146554E+00
         21   -1    0    0  501  502  0.00000000000E+00  0.00000000000E+00  0.58730170641E+03  0.58730170641E+03  0.00000000000E+00 0.  1.
         21   -1    0    0  502  503 -0.00000000000E+00 -0.00000000000E+00 -0.71432586906E+02  0.71432586906E+02  0.00000000000E+00 0.  1.
          6    1    1    2  501    0  0.88215441890E+02 -0.64633122504E+02  0.29045850163E+03  0.35483735130E+03  0.17200000000E+03 0. -1.
         -6    1    1    2    0  503 -0.88215441890E+02  0.64633122504E+02  0.22541061788E+03  0.30389694201E+03  0.17200000000E+03 0. -1.
</event>
<event>
 4    1  0.4386646E+000  0.2741472E+03  0.7818608E-02  0.1098929E+00
         21   -1    0    0  503  502  0.00000000000E+00  0.00000000000E+00  0.11046318475E+04  0.11046318475E+04  0.00000000000E+00 0.  1.
         21   -1    0    0  501  503 -0.00000000000E+00 -0.00000000000E+00 -0.96232893078E+02  0.96232893078E+02  0.00000000000E+00 0. -1.
          6    1    1    2  501    0  0.40957277153E+02  0.20951178688E+03  0.17919501392E+03  0.32751723681E+03  0.17200000000E+03 0. -1.
         -6    1    1    2    0  502 -0.40957277153E+02 -0.20951178688E+03  0.82920394052E+03  0.87334750378E+03  0.17200000000E+03 0. -1.
</event>
<event>
 4    1  0.4386646E+000  0.6702950E+03  0.7818608E-02  0.9769425E-01
         21   -1    0    0  503  502  0.00000000000E+00  0.00000000000E+00  0.31194189168E+03  0.31194189168E+03  0.00000000000E+00 0. -1.
         21   -1    0    0  501  503 -0.00000000000E+00 -0.00000000000E+00 -0.16526131522E+04  0.16526131522E+04  0.00000000000E+00 0.  1.
          6    1    1    2  501    0 -0.17754969187E+03 -0.62304693316E+03 -0.10223976092E+04  0.12225351714E+04  0.17200000000E+03 0.  1.
         -6    1    1    2    0  502  0.17754969187E+03  0.62304693316E+03 -0.31827365129E+03  0.74201987245E+03  0.17200000000E+03 0. -1.
</event>
<event>
 4    1  0.4386646E+000  0.2830633E+03  0.7818608E-02  0.1094028E+00
         21   -1    0    0  503  502  0.00000000000E+00  0.00000000000E+00  0.62826912205E+03  0.62826912205E+03  0.00000000000E+00 0. -1.
         21   -1    0    0  501  503 -0.00000000000E+00 -0.00000000000E+00 -0.12880165578E+03  0.12880165578E+03  0.00000000000E+00 0.  1.
          6    1    1    2  501    0 -0.22309075810E+02 -0.22370321232E+03  0.28730697336E+03  0.40332383888E+03  0.17200000000E+03 0. -1.
         -6    1    1    2    0  502  0.22309075810E+02  0.22370321232E+03  0.21216049291E+03  0.35374693895E+03  0.17200000000E+03 0.  1.
</event>
<event>
 4    1  0.4386646E+000  0.1827530E+03  0.7818608E-02  0.1165165E+00
         21   -1    0    0  503  502  0.00000000000E+00  0.00000000000E+00  0.34423218398E+03  0.34423218398E+03  0.00000000000E+00 0. -1.
         21   -1    0    0  501  503 -0.00000000000E+00 -0.00000000000E+00 -0.10949225331E+03  0.10949225331E+03  0.00000000000E+00 0. -1.
          6    1    1    2  501    0  0.53773202863E+02 -0.30382829621E+02  0.40814034963E+02  0.18725506437E+03  0.17200000000E+03 0. -1.
         -6    1    1    2    0  502 -0.53773202863E+02  0.30382829621E+02  0.19392589571E+03  0.26646937293E+03  0.17200000000E+03 0. -1.
</event>
<event>
 4    1  0.4386646E+000  0.2796581E+03  0.7818608E-02  0.1095876E+00
         21   -1    0    0  501  502  0.00000000000E+00  0.00000000000E+00  0.15704217045E+04  0.15704217045E+04  0.00000000000E+00 0.  1.
         21   -1    0    0  502  503 -0.00000000000E+00 -0.00000000000E+00 -0.77645202524E+02  0.77645202524E+02  0.00000000000E+00 0. -1.
          6    1    1    2  501    0 -0.74605862054E+02 -0.20750566753E+03  0.12398512535E+04  0.12709995151E+04  0.17200000000E+03 0.  1.
         -6    1    1    2    0  503  0.74605862054E+02  0.20750566753E+03  0.25292524852E+03  0.37706739192E+03  0.17200000000E+03 0. -1.
</event>
<event>
 4    1  0.4386646E+000  0.1875466E+03  0.7818608E-02  0.1160693E+00
         21   -1    0    0  503  502  0.00000000000E+00  0.00000000000E+00  0.27806402291E+03  0.27806402291E+03  0.00000000000E+00 0.  1.
         21   -1    0    0  501  503 -0.00000000000E+00 -0.00000000000E+00 -0.13464769195E+03  0.13464769195E+03  0.00000000000E+00 0.  1.
          6    1    1    2  501    0 -0.65746387962E+02 -0.35596928125E+02  0.20931296087E+02  0.18871101711E+03  0.17200000000E+03 0.  1.
         -6    1    1    2    0  502  0.65746387962E+02  0.35596928125E+02  0.12248503487E+03  0.22400069774E+03  0.17200000000E+03 0.  1.
</event>
<event>
 4    1  0.4386646E+000  0.2368375E+03  0.7818608E-02  0.1121918E+00
         21   -1    0    0  501  502  0.00000000000E+00  0.00000000000E+00  0.58258412980E+03  0.58258412980E+03  0.00000000000E+00 0.  1.
         21   -1    0    0  502  503 -0.00000000000E+00 -0.00000000000E+00 -0.22113229946E+03  0.22113229946E+03  0.00000000000E+00 0. -1.
          6    1    1    2  501    0  0.13193200676E+03 -0.95404049111E+02  0.48268123313E+03  0.53765524252E+03  0.17200000000E+03 0.  1.
         -6    1    1    2    0  503 -0.13193200676E+03  0.95404049111E+02 -0.12122940278E+03  0.26606118675E+03  0.17200000000E+03 0. -1.
</event>
<event>
 4    1  0.4386646E+000  0.2442563E+03  0.7818608E-02  0.1116989E+00
         21   -1    0    0  501  502  0.00000000000E+00  0.00000000000E+00  0.19081829779E+03  0.19081829779E+03  0.00000000000E+00 0. -1.
         21   -1    0    0  502  503 -0.00000000000E+00 -0.00000000000E+00 -0.64282607892E+03  0.64282607892E+03  0.00000000000E+00 0. -1.
          6    1    1    2  501    0 -0.82711205713E+02 -0.15243363215E+03  0.72720465046E+02  0.25485176436E+03  0.17200000000E+03 0. -1.
         -6    1    1    2    0  503  0.82711205713E+02  0.15243363215E+03 -0.52472824618E+03  0.57879261234E+03  0.17200000000E+03 0. -1.
</event>
<event>
 4    1  0.4386646E+000  0.2483705E+03  0.7818608E-02  0.1114339E+00
         21   -1    0    0  501  502  0.00000000000E+00  0.00000000000E+00  0.38530532397E+03  0.38530532397E+03  0.00000000000E+00 0. -1.
         21   -1    0    0  502  503 -0.00000000000E+00 -0.00000000000E+00 -0.17121067578E+03  0.17121067578E+03  0.00000000000E+00 0.  1.
          6    1    1    2  501    0  0.14187805203E+03 -0.10942818100E+03  0.17792766364E+03  0.30552604134E+03  0.17200000000E+03 0. -1.
         -6    1    1    2    0  503 -0.14187805203E+03  0.10942818100E+03  0.36166984546E+02  0.25098995840E+03  0.17200000000E+03 0.  1.
</event>
<event>
 4    1  0.4386646E+000  0.1852085E+03  0.7818608E-02  0.1162855E+00
         21   -1    0    0  503  502  0.00000000000E+00  0.00000000000E+00  0.12390881699E+03  0.12390881699E+03  0.00000000000E+00 0.  1.
         21   -1    0    0  501  503 -0.00000000000E+00 -0.00000000000E+00 -0.32081607125E+03  0.32081607125E+03  0.00000000000E+00 0. -1.
          6    1    1    2  501    0  0.66610876329E+02  0.16768937513E+02 -0.16121389634E+02  0.18590886293E+03  0.17200000000E+03 0.  1.
         -6    1    1    2    0  502 -0.66610876329E+02 -0.16768937513E+02 -0.18078586463E+03  0.25881602531E+03  0.17200000000E+03 0. -1.
</event>
<event>
 4    1  0.4386646E+000  0.2022180E+03  0.7818608E-02  0.1147881E+00
         21   -1    0    0  501  502  0.00000000000E+00  0.00000000000E+00  0.17154413353E+03  0.17154413353E+03  0.00000000000E+00 0.  1.
         21   -1    0    0  502  503 -0.00000000000E+00 -0.00000000000E+00 -0.41751853761E+03  0.41751853761E+03  0.00000000000E+00 0.  1.
          6    1    1    2  501    0 -0.61301157891E+01 -0.10616281416E+03  0.69939419498E+02  0.21397112850E+03  0.17200000000E+03 0.  1.
         -6    1    1    2    0  503  0.61301157891E+01  0.10616281416E+03 -0.31591382358E+03  0.37509154264E+03  0.17200000000E+03 0.  1.
</event>
<event>
 4    1  0.4386646E+000  0.2164566E+03  0.7818608E-02  0.1136553E+00
         21   -1    0    0  503  502  0.00000000000E+00  0.00000000000E+00  0.21080223825E+04  0.21080223825E+04  0.00000000000E+00 0.  1.
         21   -1    0    0  501  503 -0.00000000000E+00 -0.00000000000E+00 -0.25049213572E+02  0.25049213572E+02  0.00000000000E+00 0.  1.
          6    1    1    2  501    0 -0.12357516831E+03  0.44706226605E+02  0.68344811123E+03  0.71690640231E+03  0.17200000000E+03 0.  1.
         -6    1    1    2    0  502  0.12357516831E+03 -0.44706226605E+02  0.13995250577E+04  0.14161651938E+04  0.17200000000E+03 0.  1.
</event>
<event>
 4    1  0.4386646E+000  0.2287187E+03  0.7818608E-02  0.1127545E+00
         21   -1    0    0  503  502  0.00000000000E+00  0.00000000000E+00  0.13814306868E+03  0.13814306868E+03  0.00000000000E+00 0.  1.
         21   -1    0    0  501  503 -0.00000000000E+00 -0.00000000000E+00 -0.41951972211E+03  0.41951972211E+03  0.00000000000E+00 0.  1.
          6    1    1    2  501    0 -0.15075566008E+03  0.97781398801E+00 -0.22768424313E+03  0.32272641624E+03  0.17200000000E+03 0.  1.
         -6    1    1    2    0  502  0.15075566008E+03 -0.97781398801E+00 -0.53692410298E+02  0.23493637456E+03  0.17200000000E+03 0.  1.
</event>
<event>
 4    1  0.4386646E+000  0.1752875E+03  0.7818608E-02  0.1172443E+00
         21   -1    0    0  501  502  0.00000000000E+00  0.00000000000E+00  0.41092441358E+02  0.41092441358E+02  0.00000000000E+00 0.  1.
         21   -1    0    0  502  503 -0.00000000000E+00 -0.00000000000E+00 -0.74878163599E+03  0.74878163599E+03  0.00000000000E+00 0.  1.
          6    1    1    2  501    0 -0.25013234662E+02 -0.22716370199E+02 -0.36870612645E+03  0.40825225421E+03  0.17200000000E+03 0. -1.
         -6    1    1    2    0  503  0.25013234662E+02  0.22716370199E+02 -0.33898306818E+03  0.38162182314E+03  0.17200000000E+03 0. -1.
</event>
<event>
 4    1  0.4386646E+000  0.1924226E+03  0.7818608E-02  0.1156294E+00
         21   -1    0    0  501  502  0.00000000000E+00  0.00000000000E+00  0.16048724007E+04  0.16048724007E+04  0.00000000000E+00 0. -1.
         21   -1    0    0  502  503 -0.00000000000E+00 -0.00000000000E+00 -0.32035322067E+02  0.32035322067E+02  0.00000000000E+00 0.  1.
          6    1    1    2  501    0  0.53206652249E+02  0.67908225646E+02  0.12193621950E+04  0.12344515533E+04  0.17200000000E+03 0. -1.
         -6    1    1    2    0  503 -0.53206652249E+02 -0.67908225646E+02  0.35347488370E+03  0.40245616949E+03  0.17200000000E+03 0.  1.
</event>
<event>
 4    1  0.4386646E+000  0.2598586E+03  0.7818608E-02  0.1107228E+00
         21   -1    0    0  503  502  0.00000000000E+00  0.00000000000E+00  0.19073598524E+03  0.19073598524E+03  0.00000000000E+00 0. -1.
         21   -1    0    0  501  503 -0.00000000000E+00 -0.00000000000E+00 -0.35555388124E+03  0.35555388124E+03  0.00000000000E+00 0. -1.
          6    1    1    2  501    0  0.19474043930E+03 -0.43180863580E+01 -0.10028406115E+03  0.27853792828E+03  0.17200000000E+03 0. -1.
         -6    1    1    2    0  502 -0.19474043930E+03  0.43180863580E+01 -0.64533834843E+02  0.26775193820E+03  0.17200000000E+03 0. -1.
</event>
<event>
 4    1  0.4386646E+000  0.1869214E+03  0.7818608E-02  0.1161268E+00
         21   -1    0    0  501  502  0.00000000000E+00  0.00000000000E+00  0.96330068984E+03  0.96330068984E+03  0.00000000000E+00 0. -1.
         21   -1    0    0  502  503 -0.00000000000E+00 -0.00000000000E+00 -0.36624589897E+02  0.36624589897E+02  0.00000000000E+00 0. -1.
          6    1    1    2  501    0 -0.56258619174E+01 -0.72965368790E+02  0.51248335594E+03  0.54550782348E+03  0.17200000000E+03 0. -1.
         -6    1    1    2    0  503  0.56258619174E+01  0.72965368790E+02  0.41419274401E+03  0.45441745626E+03  0.17200000000E+03 0. -1.
</event>
<event>
 4    1  0.4386646E+000  0.2038126E+03  0.7818608E-02  0.1146562E+00
         21   -1    0    0  503  502  0.00000000000E+00  0.00000000000E+00  0.95912734663E+03  0.95912734663E+03  0.00000000000E+00 0. -1.
         21   -1    0    0  501  503 -0.00000000000E+00 -0.00000000000E+00 -0.65717562571E+02  0.65717562571E+02  0.00000000000E+00 0. -1.
          6    1    1    2  501    0  0.10028472832E+03 -0.43572247344E+02  0.14748728766E+03  0.25157914757E+03  0.17200000000E+03 0. -1.
         -6    1    1    2    0  502 -0.10028472832E+03  0.43572247344E+02  0.74592249640E+03  0.77326576163E+03  0.17200000000E+03 0. -1.
</event>
<event>
 4    1  0.4386646E+000  0.2092650E+03  0.7818608E-02  0.1142149E+00
         21   -1    0    0  503  502  0.00000000000E+00  0.00000000000E+00  0.17508185516E+03  0.17508185516E+03  0.00000000000E+00 0.  1.
         21   -1    0    0  501  503 -0.00000000000E+00 -0.00000000000E+00 -0.94340958483E+03  0.94340958483E+03  0.00000000000E+00 0.  1.
          6    1    1    2  501    0 -0.10693044175E+03 -0.52666178626E+02 -0.86357619449E+03  0.88856946236E+03  0.17200000000E+03 0.  1.
         -6    1    1    2    0  502  0.10693044175E+03  0.52666178626E+02  0.95248464824E+02  0.22992197762E+03  0.17200000000E+03 0.  1.
</event>
<event>
 4    1  0.4386646E+000  0.1894252E+03  0.7818608E-02  0.1158981E+00
         21   -1    0    0  503  502  0.00000000000E+00  0.00000000000E+00  0.15404819403E+04  0.15404819403E+04  0.00000000000E+00 0.  1.
         21   -1    0    0  501  503 -0.00000000000E+00 -0.00000000000E+00 -0.36303407266E+02  0.36303407266E+02  0.00000000000E+00 0.  1.
          6    1    1    2  501    0  0.52598903289E+02 -0.59424268688E+02  0.28011277031E+03  0.33814945280E+03  0.17200000000E+03 0.  1.
         -6    1    1    2    0  502 -0.52598903289E+02  0.59424268688E+02  0.12240657627E+04  0.12386358947E+04  0.17200000000E+03 0.  1.
</event>
<event>
 4    1  0.4386646E+000  0.1736518E+03  0.7818608E-02  0.1174092E+00
         21   -1    0    0  503  502  0.00000000000E+00  0.00000000000E+00  0.42929802727E+02  0.42929802727E+02  0.00000000000E+00 0. -1.
         21   -1    0    0  501  503 -0.00000000000E+00 -0.00000000000E+00 -0.10090091307E+04  0.10090091307E+04  0.00000000000E+00 0. -1.
          6    1    1    2  501    0  0.21600518106E+02  0.10216568989E+02 -0.77296616893E+03  0.79223207394E+03  0.17200000000E+03 0. -1.
         -6    1    1    2    0  502 -0.21600518106E+02 -0.10216568989E+02 -0.19311315900E+03  0.25970685945E+03  0.17200000000E+03 0. -1.
</event>
<event>
 4    1  0.4386646E+000  0.2132653E+03  0.7818608E-02  0.1139006E+00
         21   -1    0    0  503  502  0.00000000000E+00  0.00000000000E+00  0.21926064678E+04  0.21926064678E+04  0.00000000000E+00 0.  1.
         21   -1    0    0  501  503 -0.00000000000E+00 -0.00000000000E+00 -0.20797986928E+02  0.20797986928E+02  0.00000000000E+00 0.  1.
          6    1    1    2  501    0  0.63170480990E+02 -0.10912180985E+03  0.10291986272E+04  0.10510622690E+04  0.17200000000E+03 0.  1.
         -6    1    1    2    0  502 -0.63170480990E+02  0.10912180985E+03  0.11426098537E+04  0.11623421858E+04  0.17200000000E+03 0.  1.
</event>
<event>
 4    1  0.4386646E+000  0.1739365E+03  0.7818608E-02  0.1173804E+00
         21   -1    0    0  501  502  0.00000000000E+00  0.00000000000E+00  0.27098778161E+03  0.27098778161E+03  0.00000000000E+00 0. -1.
         21   -1    0    0  502  503 -0.00000000000E+00 -0.00000000000E+00 -0.11252314575E+03  0.11252314575E+03  0.00000000000E+00 0. -1.
          6    1    1    2  501    0  0.13935980864E+02 -0.21810381607E+02  0.96190921444E+02  0.19876266671E+03  0.17200000000E+03 0. -1.
         -6    1    1    2    0  503 -0.13935980864E+02  0.21810381607E+02  0.62273714419E+02  0.18474826066E+03  0.17200000000E+03 0. -1.
</event>
<event>
 4    1  0.4386646E+000  0.1803936E+03  0.7818608E-02  0.1167423E+00
         21   -1    0    0  503  502  0.00000000000E+00  0.00000000000E+00  0.26677204608E+03  0.26677204608E+03  0.00000000000E+00 0. -1.
         21   -1    0    0  501  503 -0.00000000000E+00 -0.00000000000E+00 -0.27323891925E+03  0.27323891925E+03  0.00000000000E+00 0. -1.
          6    1    1    2  501    0 -0.38091251361E+02  0.38818882336E+02 -0.20412257037E+03  0.27241122001E+03  0.17200000000E+03 0. -1.
         -6    1    1    2    0  502  0.38091251361E+02 -0.38818882336E+02  0.19765569720E+03  0.26759974531E+03  0.17200000000E+03 0. -1.
</event>
<event>
 4    1  0.4386646E+000  0.1944509E+03  0.7818608E-02  0.1154507E+00
         21   -1    0    0  503  502  0.00000000000E+00  0.00000000000E+00  0.12001350550E+04  0.12001350550E+04  0.00000000000E+00 0. -1.
         21   -1    0    0  501  503 -0.00000000000E+00 -0.00000000000E+00 -0.12707060094E+03  0.12707060094E+03  0.00000000000E+00 0. -1.
          6    1    1    2  501    0  0.43421591196E+02 -0.79634783088E+02 -0.38953849666E+02  0.19831423465E+03  0.17200000000E+03 0. -1.
         -6    1    1    2    0  502 -0.43421591196E+02  0.79634783088E+02  0.11120183037E+04  0.11288914213E+04  0.17200000000E+03 0. -1.
</event>
<event>
 4    1  0.4386646E+000  0.1872523E+03  0.7818608E-02  0.1160963E+00
         21   -1    0    0  501  502  0.00000000000E+00  0.00000000000E+00  0.78688726148E+03  0.78688726148E+03  0.00000000000E+00 0. -1.
         21   -1    0    0  502  503 -0.00000000000E+00 -0.00000000000E+00 -0.44799710672E+02  0.44799710672E+02  0.00000000000E+00 0. -1.
          6    1    1    2  501    0 -0.37751455029E+02  0.63673129705E+02  0.40148282907E+03  0.44300327521E+03  0.17200000000E+03 0. -1.
         -6    1    1    2    0  503  0.37751455029E+02 -0.63673129705E+02  0.34060472173E+03  0.38868369695E+03  0.17200000000E+03 0. -1.
</event>
<event>
 4    1  0.4386646E+000  0.1731173E+03  0.7818608E-02  0.1174635E+00
         21   -1    0    0  501  502  0.00000000000E+00  0.00000000000E+00  0.28654394881E+02  0.28654394881E+02  0.00000000000E+00 0. -1.
         21   -1    0    0  502  503 -0.00000000000E+00 -0.00000000000E+00 -0.13338132221E+04  0.13338132221E+04  0.00000000000E+00 0. -1.
          6    1    1    2  501    0 -0.14717515289E+02  0.12999719028E+02 -0.33607455968E+03  0.37804193897E+03  0.17200000000E+03 0. -1.
         -6    1    1    2    0  503  0.14717515289E+02 -0.12999719028E+02 -0.96908426757E+03  0.98442567805E+03  0.17200000000E+03 0. -1.
</event>
<event>
 4    1  0.4386646E+000  0.2730028E+03  0.7818608E-02  0.1099573E+00
         21   -1    0    0  503  502  0.00000000000E+00  0.00000000000E+00  0.19254463988E+03  0.19254463988E+03  0.00000000000E+00 0.  1.
         21   -1    0    0  501  503 -0.00000000000E+00 -0.00000000000E+00 -0.64456915693E+03  0.64456915693E+03  0.00000000000E+00 0. -1.
          6    1    1    2  501    0  0.20704068436E+03  0.45614273633E+02 -0.49055617638E+03  0.56140526282E+03  0.17200000000E+03 0. -1.
         -6    1    1    2    0  502 -0.20704068436E+03 -0.45614273633E+02  0.38531659324E+02  0.27570853398E+03  0.17200000000E+03 0.  1.
</event>
<event>
 4    1  0.4386646E+000  0.2325793E+03  0.7818608E-02  0.1124837E+00
         21   -1    0    0  503  502  0.00000000000E+00  0.00000000000E+00  0.18477460332E+03  0.18477460332E+03  0.00000000000E+00 0. -1.
         21   -1    0    0  501  503 -0.00000000000E+00 -0.00000000000E+00 -0.30442184508E+03  0.30442184508E+03  0.00000000000E+00 0.  1.
          6    1    1    2  501    0 -0.19683500475E+01  0.15654160326E+03 -0.10771381535E+03  0.25631116630E+03  0.17200000000E+03 0.  1.
         -6    1    1    2    0  502  0.19683500475E+01 -0.15654160326E+03 -0.11933426416E+02  0.23288528210E+03  0.17200000000E+03 0. -1.
</event>
<event>
 4    1  0.4386646E+000  0.2915627E+03  0.7818608E-02  0.1089536E+00
         21   -1    0    0  501  502  0.00000000000E+00  0.00000000000E+00  0.90177199654E+03  0.90177199654E+03  0.00000000000E+00 0.  1.
         21   -1    0    0  502  503 -0.00000000000E+00 -0.00000000000E+00 -0.95155202836E+02  0.95155202836E+02  0.00000000000E+00 0.  1.
          6    1    1    2  501    0  0.23523247466E+03 -0.95136930313E+01  0.45142221538E+03  0.53739263488E+03  0.17200000000E+03 0.  1.
         -6    1    1    2    0  503 -0.23523247466E+03  0.95136930313E+01  0.35519457833E+03  0.45953456449E+03  0.17200000000E+03 0.  1.
</event>
<event>
 4    1  0.4386646E+000  0.1881548E+03  0.7818608E-02  0.1160136E+00
         21   -1    0    0  501  502  0.00000000000E+00  0.00000000000E+00  0.44740270378E+02  0.44740270378E+02  0.00000000000E+00 0.  1.
         21   -1    0    0  502  503 -0.00000000000E+00 -0.00000000000E+00 -0.80302516377E+03  0.80302516377E+03  0.00000000000E+00 0.  1.
          6    1    1    2  501    0  0.23824392931E+01  0.76240095570E+02 -0.32788583449E+03  0.37803617373E+03  0.17200000000E+03 0.  1.
         -6    1    1    2    0  503 -0.23824392931E+01 -0.76240095570E+02 -0.43039905890E+03  0.46972926041E+03  0.17200000000E+03 0.  1.
</event>
<event>
 4    1  0.4386646E+000  0.1802664E+03  0.7818608E-02  0.1167545E+00
         21   -1    0    0  503  502  0.00000000000E+00  0.00000000000E+00  0.12972298866E+03  0.12972298866E+03  0.00000000000E+00 0. -1.
         21   -1    0    0  501  503 -0.00000000000E+00 -0.00000000000E+00 -0.38630736784E+03  0.38630736784E+03  0.00000000000E+00 0. -1.
          6    1    1    2  501    0  0.38586462046E+02  0.37723477953E+02 -0.28127262738E+03  0.33408122778E+03  0.17200000000E+03 0. -1.
         -6    1    1    2    0  502 -0.38586462046E+02 -0.37723477953E+02  0.24688248194E+02  0.18194912872E+03  0.17200000000E+03 0. -1.
</event>
<event>
 4    1  0.4386646E+000  0.1888857E+03  0.7818608E-02  0.1159470E+00
         21   -1    0    0  503  502  0.00000000000E+00  0.00000000000E+00  0.32612340472E+02  0.32612340472E+02  0.00000000000E+00 0.  1.
         21   -1    0    0  501  503 -0.00000000000E+00 -0.00000000000E+00 -0.15138492137E+04  0.15138492137E+04  0.00000000000E+00 0.  1.
          6    1    1    2  501    0 -0.46504820791E+02  0.62698683939E+02 -0.11478258893E+04  0.11632635537E+04  0.17200000000E+03 0.  1.
         -6    1    1    2    0  502  0.46504820791E+02 -0.62698683939E+02 -0.33341098390E+03  0.38319800040E+03  0.17200000000E+03 0.  1.
</event>
<event>
 4    1  0.4386646E+000  0.2116994E+03  0.7818608E-02  0.1140227E+00
         21   -1    0    0  501  502  0.00000000000E+00  0.00000000000E+00  0.10447503845E+03  0.10447503845E+03  0.00000000000E+00 0. -1.
         21   -1    0    0  502  503 -0.00000000000E+00 -0.00000000000E+00 -0.55730155908E+03  0.55730155908E+03  0.00000000000E+00 0.  1.
          6    1    1    2  501    0 -0.10579341531E+03  0.63564146890E+02 -0.67630563583E+02  0.22223982682E+03  0.17200000000E+03 0. -1.
         -6    1    1    2    0  503  0.10579341531E+03 -0.63564146890E+02 -0.38519595704E+03  0.43953677072E+03  0.17200000000E+03 0.  1.
</event>
<event>
 4    1  0.4386646E+000  0.1814025E+03  0.7818608E-02  0.1166453E+00
         21   -1    0    0  503  502  0.00000000000E+00  0.00000000000E+00  0.12483472401E+03  0.12483472401E+03  0.00000000000E+00 0. -1.
         21   -1    0    0  501  503 -0.00000000000E+00 -0.00000000000E+00 -0.27497923236E+03  0.27497923236E+03  0.00000000000E+00 0.  1.
          6    1    1    2  501    0  0.39706717833E+02  0.41787913923E+02 -0.11573252677E+03  0.21517637171E+03  0.17200000000E+03 0.  1.
         -6    1    1    2    0  502 -0.39706717833E+02 -0.41787913923E+02 -0.34411981581E+02  0.18463758466E+03  0.17200000000E+03 0. -1.
</event>
<event>
 4    1  0.4386646E+000  0.2317142E+03  0.7818608E-02  0.1125439E+00
         21   -1    0    0  503  502  0.00000000000E+00  0.00000000000E+00  0.71917082573E+03  0.71917082573E+03  0.00000000000E+00 0. -1.
         21   -1    0    0  501  503 -0.00000000000E+00 -0.00000000000E+00 -0.75383244248E+02  0.75383244248E+02  0.00000000000E+00 0.  1.
          6    1    1    2  501    0  0.57410094612E+02 -0.14426214725E+03  0.28291288378E+03  0.36569274795E+03  0.17200000000E+03 0.  1.
         -6    1    1    2    0  502 -0.57410094612E+02  0.14426214725E+03  0.36087469771E+03  0.42886132204E+03  0.17200000000E+03 0. -1.
</event>
<event>
 4    1  0.4386646E+000  0.2723388E+03  0.7818608E-02  0.1099948E+00
         21   -1    0    0  501  502  0.00000000000E+00  0.00000000000E+00  0.32516123941E+02  0.32516123941E+02  0.00000000000E+00 0.  1.
         21   -1    0    0  502  503 -0.00000000000E+00 -0.00000000000E+00 -0.23482666738E+04  0.23482666738E+04  0.00000000000E+00 0. -1.
          6    1    1    2  501    0 -0.10674056034E+03 -0.18218366349E+03 -0.95636376895E+03  0.99438427835E+03  0.17200000000E+03 0.  1.
         -6    1    1    2    0  503  0.10674056034E+03  0.18218366349E+03 -0.13593867809E+04  0.13863985194E+04  0.17200000000E+03 0. -1.
</event>
<event>
 4    1  0.4386646E+000  0.3455363E+03  0.7818608E-02  0.1064462E+00
         21   -1    0    0  503  502  0.00000000000E+00  0.00000000000E+00  0.69333931037E+02  0.69333931037E+02  0.00000000000E+00 0.  1.
         21   -1    0    0  501  503 -0.00000000000E+00 -0.00000000000E+00 -0.17951631818E+04  0.17951631818E+04  0.00000000000E+00 0.  1.
          6    1    1    2  501    0 -0.27751076089E+03  0.11313319458E+03 -0.10510745001E+04  0.11064144553E+04  0.17200000000E+03 0.  1.
         -6    1    1    2    0  502  0.27751076089E+03 -0.11313319458E+03 -0.67475475067E+03  0.75808265755E+03  0.17200000000E+03 0.  1.
</event>
<event>
 4    1  0.4386646E+000  0.2892940E+03  0.7818608E-02  0.1090718E+00
         21   -1    0    0  501  502  0.00000000000E+00  0.00000000000E+00  0.20402689965E+03  0.20402689965E+03  0.00000000000E+00 0.  1.
         21   -1    0    0  502  503 -0.00000000000E+00 -0.00000000000E+00 -0.42227210808E+03  0.42227210808E+03  0.00000000000E+00 0.  1.
          6    1    1    2  501    0  0.93456191618E+02 -0.21300927759E+03 -0.16207913882E+03  0.33160316544E+03  0.17200000000E+03 0.  1.
         -6    1    1    2    0  503 -0.93456191618E+02  0.21300927759E+03 -0.56166069607E+02  0.29469584229E+03  0.17200000000E+03 0.  1.
</event>
<event>
 4    1  0.4386646E+000  0.2238023E+03  0.7818608E-02  0.1131080E+00
         21   -1    0    0  503  502  0.00000000000E+00  0.00000000000E+00  0.17488884374E+04  0.17488884374E+04  0.00000000000E+00 0.  1.
         21   -1    0    0  501  503 -0.00000000000E+00 -0.00000000000E+00 -0.37985190766E+02  0.37985190766E+02  0.00000000000E+00 0. -1.
          6    1    1    2  501    0  0.14209751222E+03  0.17657371776E+02  0.41229239677E+03  0.46911886147E+03  0.17200000000E+03 0. -1.
         -6    1    1    2    0  502 -0.14209751222E+03 -0.17657371776E+02  0.12986108498E+04  0.13177547667E+04  0.17200000000E+03 0.  1.
</event>
<event>
 4    1  0.4386646E+000  0.2139878E+03  0.7818608E-02  0.1138446E+00
         21   -1    0    0  501  502  0.00000000000E+00  0.00000000000E+00  0.13842609666E+03  0.13842609666E+03  0.00000000000E+00 0.  1.
         21   -1    0    0  502  503 -0.00000000000E+00 -0.00000000000E+00 -0.41113115634E+03  0.41113115634E+03  0.00000000000E+00 0. -1.
          6    1    1    2  501    0  0.10560616675E+03  0.71092444230E+02 -0.14889084909E+02  0.21450520491E+03  0.17200000000E+03 0.  1.
         -6    1    1    2    0  503 -0.10560616675E+03 -0.71092444230E+02 -0.25781597478E+03  0.33505204809E+03  0.17200000000E+03 0. -1.
</event>
<event>
 4    1  0.4386646E+000  0.2097190E+03  0.7818608E-02  0.1141789E+00
         21   -1    0    0  503  502  0.00000000000E+00  0.00000000000E+00  0.32659736175E+02  0.32659736175E+02  0.00000000000E+00 0.  1.
         21   -1    0    0  501  503 -0.00000000000E+00 -0.00000000000E+00 -0.13948463832E+04  0.13948463832E+04  0.00000000000E+00 0. -1.
          6    1    1    2  501    0  0.74965905418E+02 -0.93691837499E+02 -0.81373492015E+03  0.84032527492E+03  0.17200000000E+03 0. -1.
         -6    1    1    2    0  502 -0.74965905418E+02  0.93691837499E+02 -0.54845172687E+03  0.58718084446E+03  0.17200000000E+03 0.  1.
</event>
<event>
 4    1  0.4386646E+000  0.1797442E+03  0.7818608E-02  0.1168051E+00
         21   -1    0    0  503  502  0.00000000000E+00  0.00000000000E+00  0.16731282836E+03  0.16731282836E+03  0.00000000000E+00 0. -1.
         21   -1    0    0  501  503 -0.00000000000E+00 -0.00000000000E+00 -0.42893128745E+03  0.42893128745E+03  0.00000000000E+00 0. -1.
          6    1    1    2  501    0  0.41017798596E+02 -0.32272777663E+02 -0.35186486562E+03  0.39511628116E+03  0.17200000000E+03 0. -1.
         -6    1    1    2    0  502 -0.41017798596E+02  0.32272777663E+02  0.90246406536E+02  0.20112783465E+03  0.17200000000E+03 0. -1.
</event>
<event>
 4    1  0.4386646E+000  0.2066303E+03  0.7818608E-02  0.1144263E+00
         21   -1    0    0  501  502  0.00000000000E+00  0.00000000000E+00  0.28848524042E+02  0.28848524042E+02  0.00000000000E+00 0.  1.
         21   -1    0    0  502  503 -0.00000000000E+00 -0.00000000000E+00 -0.15623034654E+04  0.15623034654E+04  0.00000000000E+00 0.  1.
          6    1    1    2  501    0 -0.27585400407E+02  0.11113553942E+03 -0.94932103045E+03  0.97154849662E+03  0.17200000000E+03 0.  1.
         -6    1    1    2    0  503  0.27585400407E+02 -0.11113553942E+03 -0.58413391089E+03  0.61960349280E+03  0.17200000000E+03 0.  1.
</event>
<event>
 4    1  0.4386646E+000  0.1765833E+03  0.7818608E-02  0.1171151E+00
         21   -1    0    0  501  502  0.00000000000E+00  0.00000000000E+00  0.78309645759E+02  0.78309645759E+02  0.00000000000E+00 0. -1.
         21   -1    0    0  502  503 -0.00000000000E+00 -0.00000000000E+00 -0.40601257640E+03  0.40601257640E+03  0.00000000000E+00 0. -1.
          6    1    1    2  501    0  0.39676282764E+02  0.48423048739E+01 -0.13022560121E+03  0.21940912137E+03  0.17200000000E+03 0. -1.
         -6    1    1    2    0  503 -0.39676282764E+02 -0.48423048739E+01 -0.19747732943E+03  0.26491310079E+03  0.17200000000E+03 0. -1.
</event>
<event>
 4    1  0.4386646E+000  0.2119393E+03  0.7818608E-02  0.1140039E+00
         21   -1    0    0  503  502  0.00000000000E+00  0.00000000000E+00  0.29403183993E+03  0.29403183993E+03  0.00000000000E+00 0.  1.
         21   -1    0    0  501  503 -0.00000000000E+00 -0.00000000000E+00 -0.30700742386E+03  0.30700742386E+03  0.00000000000E+00 0.  1.
          6    1    1    2  501    0  0.52837633046E+02  0.11199300147E+03 -0.21949684493E+03  0.30511819477E+03  0.17200000000E+03 0.  1.
         -6    1    1    2    0  502 -0.52837633046E+02 -0.11199300147E+03  0.20652126100E+03  0.29592106902E+03  0.17200000000E+03 0.  1.
</event>
<event>
 4    1  0.4386646E+000  0.1892297E+03  0.7818608E-02  0.1159158E+00
         21   -1    0    0  501  502  0.00000000000E+00  0.00000000000E+00  0.10066953505E+04  0.10066953505E+04  0.00000000000E+00 0.  1.
         21   -1    0    0  502  503 -0.00000000000E+00 -0.00000000000E+00 -0.72294538320E+02  0.72294538320E+02  0.00000000000E+00 0.  1.
          6    1    1    2  501    0 -0.64270478004E+01  0.78629361156E+02  0.85171638726E+03  0.87248420485E+03  0.17200000000E+03 0.  1.
         -6    1    1    2    0  503  0.64270478004E+01 -0.78629361156E+02  0.82684424880E+02  0.20650568393E+03  0.17200000000E+03 0.  1.
</event>
<event>
 4    1  0.4386646E+000  0.1773191E+03  0.7818608E-02  0.1170423E+00
         21   -1    0    0  501  502  0.00000000000E+00  0.00000000000E+00  0.13146975012E+03  0.13146975012E+03  0.00000000000E+00 0. -1.
         21   -1    0    0  502  503 -0.00000000000E+00 -0.00000000000E+00 -0.24009649929E+03  0.24009649929E+03  0.00000000000E+00 0. -1.
          6    1    1    2  501    0  0.24277831931E+02 -0.35617884293E+02 -0.42698280167E+02  0.18238747198E+03  0.17200000000E+03 0. -1.
         -6    1    1    2    0  503 -0.24277831931E+02  0.35617884293E+02 -0.65928469011E+02  0.18917877743E+03  0.17200000000E+03 0. -1.
</event>
<event>
 4    1  0.4386646E+000  0.1840711E+03  0.7818608E-02  0.1163920E+00
         21   -1    0    0  501  502  0.00000000000E+00  0.00000000000E+00  0.12150877599E+04  0.12150877599E+04  0.00000000000E+00 0.  1.
         21   -1    0    0  502  503 -0.00000000000E+00 -0.00000000000E+00 -0.45199289102E+02  0.45199289102E+02  0.00000000000E+00 0. -1.
          6    1    1    2  501    0  0.12102485123E+01 -0.65549122519E+02  0.97495975716E+03  0.99218379358E+03  0.17200000000E+03 0.  1.
         -6    1    1    2    0  503 -0.12102485123E+01  0.65549122519E+02  0.19492871363E+03  0.26810325541E+03  0.17200000000E+03 0. -1.
</event>
<event>
 4    1  0.4386646E+000  0.2042586E+03  0.7818608E-02  0.1146195E+00
         21   -1    0    0  503  502  0.00000000000E+00  0.00000000000E+00  0.19924993875E+03  0.19924993875E+03  0.00000000000E+00 0.  1.
         21   -1    0    0  501  503 -0.00000000000E+00 -0.00000000000E+00 -0.35174195878E+03  0.35174195878E+03  0.00000000000E+00 0.  1.
          6    1    1    2  501    0  0.89309467704E+02  0.64508794563E+02 -0.25150491663E+03  0.32400044550E+03  0.17200000000E+03 0.  1.
         -6    1    1    2    0  502 -0.89309467704E+02 -0.64508794563E+02  0.99012896601E+02  0.22699145202E+03  0.17200000000E+03 0.  1.
</event>
<event>
 4    1  0.4386646E+000  0.2001574E+03  0.7818608E-02  0.1149606E+00
         21   -1    0    0  503  502  0.00000000000E+00  0.00000000000E+00  0.75766293124E+02  0.75766293124E+02  0.00000000000E+00 0.  1.
         21   -1    0    0  501  503 -0.00000000000E+00 -0.00000000000E+00 -0.56325451425E+03  0.56325451425E+03  0.00000000000E+00 0.  1.
          6    1    1    2  501    0 -0.47637371775E+02  0.90607257819E+02 -0.32280112985E+03  0.37982043625E+03  0.17200000000E+03 0.  1.
         -6    1    1    2    0  502  0.47637371775E+02 -0.90607257819E+02 -0.16468709128E+03  0.25920037113E+03  0.17200000000E+03 0.  1.
</event>
<event>
 4    1  0.4386646E+000  0.2577687E+03  0.7818608E-02  0.1108491E+00
         21   -1    0    0  503  502  0.00000000000E+00  0.00000000000E+00  0.25316670264E+03  0.25316670264E+03  0.00000000000E+00 0. -1.
         21   -1    0    0  501  503 -0.00000000000E+00 -0.00000000000E+00 -0.52092494402E+03  0.52092494402E+03  0.00000000000E+00 0. -1.
          6    1    1    2  501    0 -0.18858397231E+02 -0.19106298149E+03 -0.40651334955E+03  0.48134998224E+03  0.17200000000E+03 0. -1.
         -6    1    1    2    0  502  0.18858397231E+02  0.19106298149E+03  0.13875510817E+03  0.29274166441E+03  0.17200000000E+03 0. -1.
</event>
<event>
 4    1  0.4386646E+000  0.2326572E+03  0.7818608E-02  0.1124783E+00
         21   -1    0    0  503  502  0.00000000000E+00  0.00000000000E+00  0.55640222680E+02  0.55640222680E+02  0.00000000000E+00 0. -1.
         21   -1    0    0  501  503 -0.00000000000E+00 -0.00000000000E+00 -0.10156676865E+04  0.10156676865E+04  0.00000000000E+00 0. -1.
          6    1    1    2  501    0 -0.12453412913E+03  0.95061095563E+02 -0.37002682036E+03  0.43709176267E+03  0.17200000000E+03 0. -1.
         -6    1    1    2    0  502  0.12453412913E+03 -0.95061095563E+02 -0.59000064345E+03  0.63421614650E+03  0.17200000000E+03 0. -1.
</event>
<event>
 4    1  0.4386646E+000  0.1947640E+03  0.7818608E-02  0.1154233E+00
         21   -1    0    0  503  502  0.00000000000E+00  0.00000000000E+00  0.14779826349E+03  0.14779826349E+03  0.00000000000E+00 0. -1.
         21   -1    0    0  501  503 -0.00000000000E+00 -0.00000000000E+00 -0.25667025293E+03  0.25667025293E+03  0.00000000000E+00 0.  1.
          6    1    1    2  501    0 -0.86064891241E+02 -0.30689711575E+02 -0.56042468524E+02  0.20266667753E+03  0.17200000000E+03 0. -1.
         -6    1    1    2    0  502  0.86064891241E+02  0.30689711575E+02 -0.52829520924E+02  0.20180183890E+03  0.17200000000E+03 0.  1.
</event>
<event>
 4    1  0.4386646E+000  0.1834062E+03  0.7818608E-02  0.1164547E+00
         21   -1    0    0  501  502  0.00000000000E+00  0.00000000000E+00  0.69135385116E+02  0.69135385116E+02  0.00000000000E+00 0.  1.
         21   -1    0    0  502  503 -0.00000000000E+00 -0.00000000000E+00 -0.10398255927E+04  0.10398255927E+04  0.00000000000E+00 0. -1.
          6    1    1    2  501    0 -0.50258077386E+02 -0.39089273455E+02 -0.80884116771E+02  0.20044970937E+03  0.17200000000E+03 0.  1.
         -6    1    1    2    0  503  0.50258077386E+02  0.39089273455E+02 -0.88980609079E+03  0.90851126843E+03  0.17200000000E+03 0. -1.
</event>
<event>
 4    1  0.4386646E+000  0.1722493E+03  0.7818608E-02  0.1175522E+00
         21   -1    0    0  501  502  0.00000000000E+00  0.00000000000E+00  0.58499621560E+03  0.58499621560E+03  0.00000000000E+00 0. -1.
         21   -1    0    0  502  503 -0.00000000000E+00 -0.00000000000E+00 -0.15345468494E+03  0.15345468494E+03  0.00000000000E+00 0. -1.
          6    1    1    2  501    0  0.36069377605E+00 -0.92566962897E+01  0.51788028101E+03  0.54577449738E+03  0.17200000000E+03 0. -1.
         -6    1    1    2    0  503 -0.36069377605E+00  0.92566962897E+01 -0.86338750345E+02  0.19267640317E+03  0.17200000000E+03 0. -1.
</event>
<event>
 4    1  0.4386646E+000  0.3210929E+03  0.7818608E-02  0.1075147E+00
         21   -1    0    0  501  502  0.00000000000E+00  0.00000000000E+00  0.73218753045E+02  0.73218753045E+02  0.00000000000E+00 0. -1.
         21   -1    0    0  502  503 -0.00000000000E+00 -0.00000000000E+00 -0.20559082608E+04  0.20559082608E+04  0.00000000000E+00 0.  1.
          6    1    1    2  501    0  0.26527103474E+03  0.56106156883E+02 -0.39377719272E+03  0.50809556209E+03  0.17200000000E+03 0. -1.
         -6    1    1    2    0  503 -0.26527103474E+03 -0.56106156883E+02 -0.15889123151E+04  0.16210314518E+04  0.17200000000E+03 0.  1.
</event>
<event>
 4    1  0.4386646E+000  0.1875843E+03  0.7818608E-02  0.1160658E+00
         21   -1    0    0  501  502  0.00000000000E+00  0.00000000000E+00  0.16409289684E+04  0.16409289684E+04  0.00000000000E+00 0. -1.
         21   -1    0    0  502  503 -0.00000000000E+00 -0.00000000000E+00 -0.43310741342E+02  0.43310741342E+02  0.00000000000E+00 0. -1.
          6    1    1    2  501    0  0.74614208724E+02 -0.60475342125E+01  0.13971787006E+04  0.14097149265E+04  0.17200000000E+03 0. -1.
         -6    1    1    2    0  503 -0.74614208724E+02  0.60475342125E+01  0.20043952653E+03  0.27452478323E+03  0.17200000000E+03 0. -1.
</event>
<event>
 4    1  0.4386646E+000  0.2540871E+03  0.7818608E-02  0.1110749E+00
         21   -1    0    0  503  502  0.00000000000E+00  0.00000000000E+00  0.30593841117E+03  0.30593841117E+03  0.00000000000E+00 0. -1.
         21   -1    0    0  501  503 -0.00000000000E+00 -0.00000000000E+00 -0.10718568439E+04  0.10718568439E+04  0.00000000000E+00 0. -1.
          6    1    1    2  501    0  0.14770074999E+03  0.11472026175E+03 -0.10003295988E+04  0.10320947419E+04  0.17200000000E+03 0. -1.
         -6    1    1    2    0  502 -0.14770074999E+03 -0.11472026175E+03  0.23441116610E+03  0.34570051315E+03  0.17200000000E+03 0. -1.
</event>
<event>
 4    1  0.4386646E+000  0.1748514E+03  0.7818608E-02  0.1172881E+00
         21   -1    0    0  503  502  0.00000000000E+00  0.00000000000E+00  0.20748104349E+03  0.20748104349E+03  0.00000000000E+00 0. -1.
         21   -1    0    0  501  503 -0.00000000000E+00 -0.00000000000E+00 -0.22420304787E+03  0.22420304787E+03  0.00000000000E+00 0. -1.
          6    1    1    2  501    0  0.43734494891E+01  0.31142762023E+02 -0.13472889908E+03  0.22073711726E+03  0.17200000000E+03 0. -1.
         -6    1    1    2    0  502 -0.43734494891E+01 -0.31142762023E+02  0.11800689470E+03  0.21094697410E+03  0.17200000000E+03 0. -1.
</event>
<event>
 4    1  0.4386646E+000  0.1947906E+03  0.7818608E-02  0.1154210E+00
         21   -1    0    0  501  502  0.00000000000E+00  0.00000000000E+00  0.25029002986E+03  0.25029002986E+03  0.00000000000E+00 0.  1.
         21   -1    0    0  502  503 -0.00000000000E+00 -0.00000000000E+00 -0.15182644578E+03  0.15182644578E+03  0.00000000000E+00 0.  1.
          6    1    1    2  501    0  0.79577903553E+02  0.45019357021E+02  0.57036445107E+02  0.20296931125E+03  0.17200000000E+03 0.  1.
         -6    1    1    2    0  503 -0.79577903553E+02 -0.45019357021E+02  0.41427138975E+02  0.19914716439E+03  0.17200000000E+03 0.  1.
</event>
<event>
 4    1  0.4386646E+000  0.2184476E+03  0.7818608E-02  0.1135046E+00
         21   -1    0    0  503  502  0.00000000000E+00  0.00000000000E+00  0.91494785706E+02  0.91494785706E+02  0.00000000000E+00 0. -1.
         21   -1    0    0  501  503 -0.00000000000E+00 -0.00000000000E+00 -0.52614321867E+03  0.52614321867E+03  0.00000000000E+00 0. -1.
          6    1    1    2  501    0 -0.12973136355E+03 -0.36126386728E+02 -0.18847805145E+03  0.28851918200E+03  0.17200000000E+03 0. -1.
         -6    1    1    2    0  502  0.12973136355E+03  0.36126386728E+02 -0.24617038151E+03  0.32911882237E+03  0.17200000000E+03 0. -1.
</event>
<event>
 4    1  0.4386646E+000  0.1807543E+03  0.7818608E-02  0.1167075E+00
         21   -1    0    0  501  502  0.00000000000E+00  0.00000000000E+00  0.39485626632E+03  0.39485626632E+03  0.00000000000E+00 0. -1.
         21   -1    0    0  502  503 -0.00000000000E+00 -0.00000000000E+00 -0.96356890083E+02  0.96356890083E+02  0.00000000000E+00 0.  1.
          6    1    1    2  501    0 -0.33049723723E+02 -0.44674794629E+02  0.24156385145E+03  0.30170385453E+03  0.17200000000E+03 0. -1.
         -6    1    1    2    0  503  0.33049723723E+02  0.44674794629E+02  0.56935524792E+02  0.18950930187E+03  0.17200000000E+03 0.  1.
</event>
<event>
 4    1  0.4386646E+000  0.1887722E+03  0.7818608E-02  0.1159573E+00
         21   -1    0    0  503  502  0.00000000000E+00  0.00000000000E+00  0.65254260039E+03  0.65254260039E+03  0.00000000000E+00 0. -1.
         21   -1    0    0  501  503 -0.00000000000E+00 -0.00000000000E+00 -0.59227405260E+02  0.59227405260E+02  0.00000000000E+00 0. -1.
          6    1    1    2  501    0 -0.41862017408E+02  0.65562953207E+02  0.19728245918E+03  0.27304816065E+03  0.17200000000E+03 0. -1.
         -6    1    1    2    0  502  0.41862017408E+02 -0.65562953207E+02  0.39603273594E+03  0.43872184499E+03  0.17200000000E+03 0. -1.
</event>
<event>
 4    1  0.4386646E+000  0.3697404E+03  0.7818608E-02  0.1054792E+00
         21   -1    0    0  503  502  0.00000000000E+00  0.00000000000E+00  0.13659786709E+04  0.13659786709E+04  0.00000000000E+00 0.  1.
         21   -1    0    0  501  503 -0.00000000000E+00 -0.00000000000E+00 -0.13984746647E+03  0.13984746647E+03  0.00000000000E+00 0. -1.
          6    1    1    2  501    0 -0.43770879846E+02  0.32435795601E+03  0.21157241045E+03  0.42599396523E+03  0.17200000000E+03 0.  1.
         -6    1    1    2    0  502  0.43770879846E+02 -0.32435795601E+03  0.10145587940E+04  0.10798321722E+04  0.17200000000E+03 0. -1.
</event>
<event>
 4    1  0.4386646E+000  0.2260316E+03  0.7818608E-02  0.1129465E+00
         21   -1    0    0  501  502  0.00000000000E+00  0.00000000000E+00  0.20294431604E+03  0.20294431604E+03  0.00000000000E+00 0.  1.
         21   -1    0    0  502  503 -0.00000000000E+00 -0.00000000000E+00 -0.47734924790E+03  0.47734924790E+03  0.00000000000E+00 0.  1.
          6    1    1    2  501    0 -0.23447060400E+02 -0.14476363134E+03  0.96639047118E+02  0.24582387807E+03  0.17200000000E+03 0.  1.
         -6    1    1    2    0  503  0.23447060400E+02  0.14476363134E+03 -0.37104397898E+03  0.43446968586E+03  0.17200000000E+03 0.  1.
</event>
<event>
 4    1  0.4386646E+000  0.2001500E+03  0.7818608E-02  0.1149612E+00
         21   -1    0    0  501  502  0.00000000000E+00  0.00000000000E+00  0.61588122680E+02  0.61588122680E+02  0.00000000000E+00 0. -1.
         21   -1    0    0  502  503 -0.00000000000E+00 -0.00000000000E+00 -0.86318885342E+03  0.86318885342E+03  0.00000000000E+00 0. -1.
          6    1    1    2  501    0  0.81921825738E+02 -0.61358370812E+02 -0.17125061114E+03  0.26341375631E+03  0.17200000000E+03 0. -1.
         -6    1    1    2    0  503 -0.81921825738E+02  0.61358370812E+02 -0.63035011960E+03  0.66136321978E+03  0.17200000000E+03 0. -1.
</event>
<event>
 4    1  0.4386646E+000  0.2419562E+03  0.7818608E-02  0.1118497E+00
         21   -1    0    0  503  502  0.00000000000E+00  0.00000000000E+00  0.84866674085E+03  0.84866674085E+03  0.00000000000E+00 0.  1.
         21   -1    0    0  501  503 -0.00000000000E+00 -0.00000000000E+00 -0.10563683207E+03  0.10563683207E+03  0.00000000000E+00 0.  1.
          6    1    1    2  501    0 -0.16100716698E+03 -0.55095204003E+02  0.90445230763E+02  0.25830820562E+03  0.17200000000E+03 0.  1.
         -6    1    1    2    0  502  0.16100716698E+03  0.55095204003E+02  0.65258467801E+03  0.69599536730E+03  0.17200000000E+03 0.  1.
</event>
<event>
 4    1  0.4386646E+000  0.2324007E+03  0.7818608E-02  0.1124961E+00
         21   -1    0    0  501  502  0.00000000000E+00  0.00000000000E+00  0.32031274442E+03  0.32031274442E+03  0.00000000000E+00 0. -1.
         21   -1    0    0  502  503 -0.00000000000E+00 -0.00000000000E+00 -0.24510356877E+03  0.24510356877E+03  0.00000000000E+00 0.  1.
          6    1    1    2  501    0  0.71378573849E+01  0.15612531583E+03  0.19553184493E+03  0.30371494141E+03  0.17200000000E+03 0.  1.
         -6    1    1    2    0  503 -0.71378573849E+01 -0.15612531583E+03 -0.12032266927E+03  0.26170137178E+03  0.17200000000E+03 0.  1.
</event>
<event>
 4    1  0.4386646E+000  0.2085001E+03  0.7818608E-02  0.1142759E+00
         21   -1    0    0  503  502  0.00000000000E+00  0.00000000000E+00  0.12056414942E+03  0.12056414942E+03  0.00000000000E+00 0. -1.
         21   -1    0    0  501  503 -0.00000000000E+00 -0.00000000000E+00 -0.81900350962E+03  0.81900350962E+03  0.00000000000E+00 0. -1.
          6    1    1    2  501    0 -0.46741290594E+00 -0.11784771288E+03 -0.70069225938E+03  0.73105536333E+03  0.17200000000E+03 0. -1.
         -6    1    1    2    0  502  0.46741290594E+00  0.11784771288E+03  0.22528991799E+01  0.20851229570E+03  0.17200000000E+03 0. -1.
</event>
<event>
 4    1  0.4386646E+000  0.1825156E+03  0.7818608E-02  0.1165390E+00
         21   -1    0    0  501  502  0.00000000000E+00  0.00000000000E+00  0.87917864738E+02  0.87917864738E+02  0.00000000000E+00 0.  1.
         21   -1    0    0  502  503 -0.00000000000E+00 -0.00000000000E+00 -0.37976919691E+03  0.37976919691E+03  0.00000000000E+00 0. -1.
          6    1    1    2  501    0  0.19137588186E+02 -0.57980158130E+02 -0.13472865825E+03  0.22685624826E+03  0.17200000000E+03 0. -1.
         -6    1    1    2    0  503 -0.19137588186E+02  0.57980158130E+02 -0.15712267392E+03  0.24083081339E+03  0.17200000000E+03 0. -1.
</event>
<event>
 4    1  0.4386646E+000  0.2362205E+03  0.7818608E-02  0.1122337E+00
         21   -1    0    0  501  502  0.00000000000E+00  0.00000000000E+00  0.36565597940E+03  0.36565597940E+03  0.00000000000E+00 0.  1.
         21   -1    0    0  502  503 -0.00000000000E+00 -0.00000000000E+00 -0.16380585564E+03  0.16380585564E+03  0.00000000000E+00 0.  1.
          6    1    1    2  501    0 -0.15933568445E+03  0.28779329428E+02  0.17015740913E+03  0.29112480833E+03  0.17200000000E+03 0. -1.
         -6    1    1    2    0  503  0.15933568445E+03 -0.28779329428E+02  0.31692714624E+02  0.23833702671E+03  0.17200000000E+03 0. -1.
</event>
<event>
 4    1  0.4386646E+000  0.1945455E+03  0.7818608E-02  0.1154424E+00
         21   -1    0    0  503  502  0.00000000000E+00  0.00000000000E+00  0.58402213868E+02  0.58402213868E+02  0.00000000000E+00 0. -1.
         21   -1    0    0  501  503 -0.00000000000E+00 -0.00000000000E+00 -0.11968525518E+04  0.11968525518E+04  0.00000000000E+00 0. -1.
          6    1    1    2  501    0  0.89212614913E+02  0.17466008058E+02 -0.99422320856E+03  0.10130783487E+04  0.17200000000E+03 0. -1.
         -6    1    1    2    0  502 -0.89212614913E+02 -0.17466008058E+02 -0.14422712933E+03  0.24217641696E+03  0.17200000000E+03 0. -1.
</event>
<event>
 4    1  0.4386646E+000  0.2196575E+03  0.7818608E-02  0.1134139E+00
         21   -1    0    0  503  502  0.00000000000E+00  0.00000000000E+00  0.53182094770E+03  0.53182094770E+03  0.00000000000E+00 0.  1.
         21   -1    0    0  501  503 -0.00000000000E+00 -0.00000000000E+00 -0.92077028819E+02  0.92077028819E+02  0.00000000000E+00 0. -1.
          6    1    1    2  501    0 -0.45688657687E+02 -0.12875547422E+03  0.25767353799E+03  0.33859279048E+03  0.17200000000E+03 0.  1.
         -6    1    1    2    0  502  0.45688657687E+02  0.12875547422E+03  0.18207038089E+03  0.28530518604E+03  0.17200000000E+03 0. -1.
</event>
<event>
 4    1  0.4386646E+000  0.1927589E+03  0.7818608E-02  0.1155996E+00
         21   -1    0    0  503  502  0.00000000000E+00  0.00000000000E+00  0.25650653463E+03  0.25650653463E+03  0.00000000000E+00 0.  1.
         21   -1    0    0  501  503 -0.00000000000E+00 -0.00000000000E+00 -0.58056203158E+03  0.58056203158E+03  0.00000000000E+00 0.  1.
          6    1    1    2  501    0  0.33700084867E+02 -0.80226620879E+02 -0.52460828603E+03  0.55890058167E+03  0.17200000000E+03 0.  1.
         -6    1    1    2    0  502 -0.33700084867E+02  0.80226620879E+02  0.20055278908E+03  0.27816798454E+03  0.17200000000E+03 0.  1.
</event>
<event>
 4    1  0.4386646E+000  0.2047434E+03  0.7818608E-02  0.1145798E+00
         21   -1    0    0  503  502  0.00000000000E+00  0.00000000000E+00  0.58547059683E+02  0.58547059683E+02  0.00000000000E+00 0. -1.
         21   -1    0    0  501  503 -0.00000000000E+00 -0.00000000000E+00 -0.75212182233E+03  0.75212182233E+03  0.00000000000E+00 0.  1.
          6    1    1    2  501    0  0.82755591856E+01  0.11075821185E+03 -0.43561266719E+03  0.48132968139E+03  0.17200000000E+03 0. -1.
         -6    1    1    2    0  502 -0.82755591856E+01 -0.11075821185E+03 -0.25796209546E+03  0.32933920062E+03  0.17200000000E+03 0. -1.
</event>
<event>
 4    1  0.4386646E+000  0.1831182E+03  0.7818608E-02  0.1164819E+00
         21   -1    0    0  503  502  0.00000000000E+00  0.00000000000E+00  0.84502767338E+03  0.84502767338E+03  0.00000000000E+00 0.  1.
         21   -1    0    0  501  503 -0.00000000000E+00 -0.00000000000E+00 -0.40135941491E+02  0.40135941491E+02  0.00000000000E+00 0.  1.
          6    1    1    2  501    0  0.23507784786E+02  0.58272211402E+02  0.35537029695E+03  0.39977533006E+03  0.17200000000E+03 0.  1.
         -6    1    1    2    0  502 -0.23507784786E+02 -0.58272211402E+02  0.44952143494E+03  0.48538828482E+03  0.17200000000E+03 0.  1.
</event>
<event>
 4    1  0.4386646E+000  0.1994891E+03  0.7818608E-02  0.1150171E+00
         21   -1    0    0  503  502  0.00000000000E+00  0.00000000000E+00  0.24037402721E+03  0.24037402721E+03  0.00000000000E+00 0.  1.
         21   -1    0    0  501  503 -0.00000000000E+00 -0.00000000000E+00 -0.17387040594E+03  0.17387040594E+03  0.00000000000E+00 0.  1.
          6    1    1    2  501    0  0.45226895787E+02  0.90368322547E+02  0.78538483697E+02  0.21439262871E+03  0.17200000000E+03 0.  1.
         -6    1    1    2    0  502 -0.45226895787E+02 -0.90368322547E+02 -0.12034862426E+02  0.19985180444E+03  0.17200000000E+03 0.  1.
</event>
<event>
 4    1  0.4386646E+000  0.1735911E+03  0.7818608E-02  0.1174154E+00
         21   -1    0    0  501  502  0.00000000000E+00  0.00000000000E+00  0.44913768907E+03  0.44913768907E+03  0.00000000000E+00 0.  1.
         21   -1    0    0  502  503 -0.00000000000E+00 -0.00000000000E+00 -0.11527402291E+03  0.11527402291E+03  0.00000000000E+00 0.  1.
          6    1    1    2  501    0 -0.11772953323E+02 -0.20280137149E+02  0.34937995374E+03  0.39012848969E+03  0.17200000000E+03 0.  1.
         -6    1    1    2    0  503  0.11772953323E+02  0.20280137149E+02 -0.15516287578E+02  0.17428322229E+03  0.17200000000E+03 0.  1.
</event>
<event>
 4    1  0.4386646E+000  0.2430616E+03  0.7818608E-02  0.1117770E+00
         21   -1    0    0  503  502  0.00000000000E+00  0.00000000000E+00  0.42592970240E+03  0.42592970240E+03  0.00000000000E+00 0.  1.
         21   -1    0    0  501  503 -0.00000000000E+00 -0.00000000000E+00 -0.23464841797E+03  0.23464841797E+03  0.00000000000E+00 0.  1.
          6    1    1    2  501    0 -0.14006943948E+03  0.99375561976E+02 -0.11555793909E+03  0.26913302934E+03  0.17200000000E+03 0.  1.
         -6    1    1    2    0  502  0.14006943948E+03 -0.99375561976E+02  0.30683922353E+03  0.39144509103E+03  0.17200000000E+03 0.  1.
</event>
<event>
 4    1  0.4386646E+000  0.2325104E+03  0.7818608E-02  0.1124885E+00
         21   -1    0    0  503  502  0.00000000000E+00  0.00000000000E+00  0.10145167912E+03  0.10145167912E+03  0.00000000000E+00 0. -1.
         21   -1    0    0  501  503 -0.00000000000E+00 -0.00000000000E+00 -0.26111836915E+04  0.26111836915E+04  0.00000000000E+00 0.  1.
          6    1    1    2  501    0  0.13727829688E+03 -0.75044966206E+02 -0.24649004272E+04  0.24758423201E+04  0.17200000000E+03 0.  1.
         -6    1    1    2    0  502 -0.13727829688E+03  0.75044966206E+02 -0.44831585126E+02  0.23679305051E+03  0.17200000000E+03 0. -1.
</event>
<event>
 4    1  0.4386646E+000  0.1744639E+03  0.7818608E-02  0.1173271E+00
         21   -1    0    0  503  502  0.00000000000E+00  0.00000000000E+00  0.28169384346E+02  0.28169384346E+02  0.00000000000E+00 0.  1.
         21   -1    0    0  501  503 -0.00000000000E+00 -0.00000000000E+00 -0.13297136525E+04  0.13297136525E+04  0.00000000000E+00 0.  1.
          6    1    1    2  501    0  0.28792815778E+02  0.49607334582E+01 -0.94468607396E+03  0.96066092533E+03  0.17200000000E+03 0.  1.
         -6    1    1    2    0  502 -0.28792815778E+02 -0.49607334582E+01 -0.35685819420E+03  0.39722211153E+03  0.17200000000E+03 0.  1.
</event>
<event>
 4    1  0.4386646E+000  0.3204576E+03  0.7818608E-02  0.1075439E+00
         21   -1    0    0  503  502  0.00000000000E+00  0.00000000000E+00  0.34479254162E+03  0.34479254162E+03  0.00000000000E+00 0. -1.
         21   -1    0    0  501  503 -0.00000000000E+00 -0.00000000000E+00 -0.33936639893E+03  0.33936639893E+03  0.00000000000E+00 0. -1.
          6    1    1    2  501    0 -0.11792759027E+02 -0.27012955630E+03 -0.11694835756E+03  0.34113042182E+03  0.17200000000E+03 0. -1.
         -6    1    1    2    0  502  0.11792759027E+02  0.27012955630E+03  0.12237450026E+03  0.34302851874E+03  0.17200000000E+03 0. -1.
</event>
<event>
 4    1  0.4386646E+000  0.2266096E+03  0.7818608E-02  0.1129049E+00
         21   -1    0    0  503  502  0.00000000000E+00  0.00000000000E+00  0.50723345782E+02  0.50723345782E+02  0.00000000000E+00 0. -1.
         21   -1    0    0  501  503 -0.00000000000E+00 -0.00000000000E+00 -0.12045867175E+04  0.12045867175E+04  0.00000000000E+00 0.  1.
          6    1    1    2  501    0  0.47777015346E+02 -0.13958958766E+03 -0.82764246092E+03  0.85810485332E+03  0.17200000000E+03 0.  1.
         -6    1    1    2    0  502 -0.47777015346E+02  0.13958958766E+03 -0.32622091082E+03  0.39720520998E+03  0.17200000000E+03 0. -1.
</event>
<event>
 4    1  0.4386646E+000  0.3186493E+03  0.7818608E-02  0.1076273E+00
         21   -1    0    0  503  502  0.00000000000E+00  0.00000000000E+00  0.17378940804E+03  0.17378940804E+03  0.00000000000E+00 0. -1.
         21   -1    0    0  501  503 -0.00000000000E+00 -0.00000000000E+00 -0.60639475571E+03  0.60639475571E+03  0.00000000000E+00 0.  1.
          6    1    1    2  501    0  0.21822188226E+03  0.15598901136E+03 -0.29084004669E+03  0.43142240822E+03  0.17200000000E+03 0.  1.
         -6    1    1    2    0  502 -0.21822188226E+03 -0.15598901136E+03 -0.14176530099E+03  0.34876175553E+03  0.17200000000E+03 0. -1.
</event>
<event>
 4    1  0.4386646E+000  0.2284571E+03  0.7818608E-02  0.1127730E+00
         21   -1    0    0  503  502  0.00000000000E+00  0.00000000000E+00  0.94779816085E+02  0.94779816085E+02  0.00000000000E+00 0.  1.
         21   -1    0    0  501  503 -0.00000000000E+00 -0.00000000000E+00 -0.69739624547E+03  0.69739624547E+03  0.00000000000E+00 0. -1.
          6    1    1    2  501    0  0.60693094743E+02 -0.13756814501E+03 -0.48298606978E+03  0.53429223265E+03  0.17200000000E+03 0. -1.
         -6    1    1    2    0  502 -0.60693094743E+02  0.13756814501E+03 -0.11963035961E+03  0.25788382891E+03  0.17200000000E+03 0.  1.
</event>
<event>
 4    1  0.4386646E+000  0.1940119E+03  0.7818608E-02  0.1154892E+00
         21   -1    0    0  503  502  0.00000000000E+00  0.00000000000E+00  0.30746752486E+03  0.30746752486E+03  0.00000000000E+00 0. -1.
         21   -1    0    0  501  503 -0.00000000000E+00 -0.00000000000E+00 -0.15197197969E+03  0.15197197969E+03  0.00000000000E+00 0. -1.
          6    1    1    2  501    0  0.29913173157E+02  0.84627427373E+02 -0.23549957035E+02  0.19543592267E+03  0.17200000000E+03 0. -1.
         -6    1    1    2    0  502 -0.29913173157E+02 -0.84627427373E+02  0.17904550220E+03  0.26400358189E+03  0.17200000000E+03 0. -1.
</event>
<event>
 4    1  0.4386646E+000  0.2014808E+03  0.7818608E-02  0.1148496E+00
         21   -1    0    0  503  502  0.00000000000E+00  0.00000000000E+00  0.10328841420E+04  0.10328841420E+04  0.00000000000E+00 0. -1.
         21   -1    0    0  501  503 -0.00000000000E+00 -0.00000000000E+00 -0.11497765341E+03  0.11497765341E+03  0.00000000000E+00 0. -1.
          6    1    1    2  501    0 -0.16459937518E+02 -0.10363199438E+03 -0.66657378021E+01  0.20159105105E+03  0.17200000000E+03 0. -1.
         -6    1    1    2    0  502  0.16459937518E+02  0.10363199438E+03  0.92457222639E+03  0.94627074435E+03  0.17200000000E+03 0. -1.
</event>
<event>
 4    1  0.4386646E+000  0.1768474E+03  0.7818608E-02  0.1170890E+00
         21   -1    0    0  501  502  0.00000000000E+00  0.00000000000E+00  0.15289815126E+03  0.15289815126E+03  0.00000000000E+00 0. -1.
         21   -1    0    0  502  503 -0.00000000000E+00 -0.00000000000E+00 -0.30996411540E+03  0.30996411540E+03  0.00000000000E+00 0. -1.
          6    1    1    2  501    0  0.40476828782E+02  0.72542431309E+01  0.56431582132E+02  0.18563275889E+03  0.17200000000E+03 0. -1.
         -6    1    1    2    0  503 -0.40476828782E+02 -0.72542431309E+01 -0.21349754628E+03  0.27722950777E+03  0.17200000000E+03 0. -1.
</event>
<event>
 4    1  0.4386646E+000  0.1737122E+03  0.7818608E-02  0.1174031E+00
         21   -1    0    0  501  502  0.00000000000E+00  0.00000000000E+00  0.41816397096E+02  0.41816397096E+02  0.00000000000E+00 0. -1.
         21   -1    0    0  502  503 -0.00000000000E+00 -0.00000000000E+00 -0.86801664760E+03  0.86801664760E+03  0.00000000000E+00 0. -1.
          6    1    1    2  501    0 -0.22673272679E+02 -0.88226996401E+01 -0.22628150293E+03  0.28527046095E+03  0.17200000000E+03 0. -1.
         -6    1    1    2    0  503  0.22673272679E+02  0.88226996401E+01 -0.59991874758E+03  0.62456258375E+03  0.17200000000E+03 0. -1.
</event>
<event>
 4    1  0.4386646E+000  0.3875654E+03  0.7818608E-02  0.1048172E+00
         21   -1    0    0  503  502  0.00000000000E+00  0.00000000000E+00  0.12022367315E+04  0.12022367315E+04  0.00000000000E+00 0.  1.
         21   -1    0    0  501  503 -0.00000000000E+00 -0.00000000000E+00 -0.15850048263E+03  0.15850048263E+03  0.00000000000E+00 0. -1.
          6    1    1    2  501    0 -0.20026034699E+03  0.28375825997E+03  0.20879501630E+03  0.44022984396E+03  0.17200000000E+03 0. -1.
         -6    1    1    2    0  502  0.20026034699E+03 -0.28375825997E+03  0.83494123254E+03  0.92050737014E+03  0.17200000000E+03 0.  1.
</event>
<event>
 4    1  0.4386646E+000  0.2019392E+03  0.7818608E-02  0.1148113E+00
         21   -1    0    0  503  502  0.00000000000E+00  0.00000000000E+00  0.12136382198E+04  0.12136382198E+04  0.00000000000E+00 0.  1.
         21   -1    0    0  501  503 -0.00000000000E+00 -0.00000000000E+00 -0.34338751642E+02  0.34338751642E+02  0.00000000000E+00 0.  1.
          6    1    1    2  501    0 -0.47025623769E+02 -0.94784105369E+02  0.49818688443E+03  0.53755893420E+03  0.17200000000E+03 0.  1.
         -6    1    1    2    0  502  0.47025623769E+02  0.94784105369E+02  0.68111258369E+03  0.71041803720E+03  0.17200000000E+03 0.  1.
</event>
<event>
 4    1  0.4386646E+000  0.2171340E+03  0.7818608E-02  0.1136038E+00
         21   -1    0    0  503  502  0.00000000000E+00  0.00000000000E+00  0.18953252526E+03  0.18953252526E+03  0.00000000000E+00 0. -1.
         21   -1    0    0  501  503 -0.00000000000E+00 -0.00000000000E+00 -0.27658266256E+03  0.27658266256E+03  0.00000000000E+00 0. -1.
          6    1    1    2  501    0 -0.12892189206E+03 -0.30697292409E+02 -0.11744959340E+03  0.24686349468E+03  0.17200000000E+03 0. -1.
         -6    1    1    2    0  502  0.12892189206E+03  0.30697292409E+02  0.30399456102E+02  0.21925169314E+03  0.17200000000E+03 0. -1.
</event>
<event>
 4    1  0.4386646E+000  0.2032132E+03  0.7818608E-02  0.1147056E+00
         21   -1    0    0  501  502  0.00000000000E+00  0.00000000000E+00  0.49044559849E+03  0.49044559849E+03  0.00000000000E+00 0.  1.
         21   -1    0    0  502  503 -0.00000000000E+00 -0.00000000000E+00 -0.98430711875E+02  0.98430711875E+02  0.00000000000E+00 0.  1.
          6    1    1    2  501    0  0.10573284037E+03  0.23069221126E+02  0.84053632802E+02  0.21991051744E+03  0.17200000000E+03 0.  1.
         -6    1    1    2    0  503 -0.10573284037E+03 -0.23069221126E+02  0.30796125381E+03  0.36896579292E+03  0.17200000000E+03 0.  1.
</event>
<event>
 4    1  0.4386646E+000  0.1735993E+03  0.7818608E-02  0.1174145E+00
         21   -1    0    0  503  502  0.00000000000E+00  0.00000000000E+00  0.35637288556E+03  0.35637288556E+03  0.00000000000E+00 0. -1.
         21   -1    0    0  501  503 -0.00000000000E+00 -0.00000000000E+00 -0.18841390017E+03  0.18841390017E+03  0.00000000000E+00 0. -1.
          6    1    1    2  501    0  0.62662559985E+01  0.22659472738E+02 -0.11824827525E+03  0.21004611938E+03  0.17200000000E+03 0. -1.
         -6    1    1    2    0  502 -0.62662559985E+01 -0.22659472738E+02  0.28620726063E+03  0.33474066635E+03  0.17200000000E+03 0. -1.
</event>
<event>
 4    1  0.4386646E+000  0.1790805E+03  0.7818608E-02  0.1168696E+00
         21   -1    0    0  503  502  0.00000000000E+00  0.00000000000E+00  0.77521805275E+02  0.77521805275E+02  0.00000000000E+00 0. -1.
         21   -1    0    0  501  503 -0.00000000000E+00 -0.00000000000E+00 -0.45848593270E+03  0.45848593270E+03  0.00000000000E+00 0. -1.
          6    1    1    2  501    0 -0.48835906158E+02  0.10044203252E+02 -0.10670838346E+03  0.20846225282E+03  0.17200000000E+03 0.  1.
         -6    1    1    2    0  502  0.48835906158E+02 -0.10044203252E+02 -0.27425574396E+03  0.32754548516E+03  0.17200000000E+03 0.  1.
</event>
<event>
 4    1  0.4386646E+000  0.2071706E+03  0.7818608E-02  0.1143826E+00
         21   -1    0    0  503  502  0.00000000000E+00  0.00000000000E+00  0.12171183922E+03  0.12171183922E+03  0.00000000000E+00 0.  1.
         21   -1    0    0  501  503 -0.00000000000E+00 -0.00000000000E+00 -0.72853904487E+03  0.72853904487E+03  0.00000000000E+00 0. -1.
          6    1    1    2  501    0  0.70214573237E+02 -0.91682002976E+02 -0.60878617482E+03  0.64307097790E+03  0.17200000000E+03 0. -1.
         -6    1    1    2    0  502 -0.70214573237E+02  0.91682002976E+02  0.19589691753E+01  0.20717990618E+03  0.17200000000E+03 0.  1.
</event>
<event>
 4    1  0.4386646E+000  0.2150461E+03  0.7818608E-02  0.1137631E+00
         21   -1    0    0  503  502  0.00000000000E+00  0.00000000000E+00  0.14878487583E+03  0.14878487583E+03  0.00000000000E+00 0.  1.
         21   -1    0    0  501  503 -0.00000000000E+00 -0.00000000000E+00 -0.41265582996E+03  0.41265582996E+03  0.00000000000E+00 0.  1.
          6    1    1    2  501    0 -0.13572417813E+02  0.12836131731E+03  0.75204719241E+01  0.21517759132E+03  0.17200000000E+03 0.  1.
         -6    1    1    2    0  502  0.13572417813E+02 -0.12836131731E+03 -0.27139142605E+03  0.34626311447E+03  0.17200000000E+03 0.  1.
</event>
<event>
 4    1  0.4386646E+000  0.1759305E+03  0.7818608E-02  0.1171801E+00
         21   -1    0    0  503  502  0.00000000000E+00  0.00000000000E+00  0.42512541586E+03  0.42512541586E+03  0.00000000000E+00 0.  1.
         21   -1    0    0  501  503 -0.00000000000E+00 -0.00000000000E+00 -0.28414168644E+03  0.28414168644E+03  0.00000000000E+00 0.  1.
          6    1    1    2  501    0  0.24208471859E+02  0.27954909360E+02 -0.23535155117E+03  0.29383988788E+03  0.17200000000E+03 0.  1.
         -6    1    1    2    0  502 -0.24208471859E+02 -0.27954909360E+02  0.37633528059E+03  0.41542721442E+03  0.17200000000E+03 0.  1.
</event>
<event>
 4    1  0.4386646E+000  0.1725705E+03  0.7818608E-02  0.1175193E+00
         21   -1    0    0  503  502  0.00000000000E+00  0.00000000000E+00  0.11950134482E+03  0.11950134482E+03  0.00000000000E+00 0. -1.
         21   -1    0    0  501  503 -0.00000000000E+00 -0.00000000000E+00 -0.25679588603E+03  0.25679588603E+03  0.00000000000E+00 0. -1.
          6    1    1    2  501    0 -0.10969875699E+02  0.87310623267E+01 -0.10099147656E+03  0.19994961355E+03  0.17200000000E+03 0. -1.
         -6    1    1    2    0  502  0.10969875699E+02 -0.87310623267E+01 -0.36303064661E+02  0.17634761730E+03  0.17200000000E+03 0. -1.
</event>
<event>
 4    1  0.4386646E+000  0.2038140E+03  0.7818608E-02  0.1146560E+00
         21   -1    0    0  503  502  0.00000000000E+00  0.00000000000E+00  0.17203506306E+03  0.17203506306E+03  0.00000000000E+00 0. -1.
         21   -1    0    0  501  503 -0.00000000000E+00 -0.00000000000E+00 -0.37616955956E+03  0.37616955956E+03  0.00000000000E+00 0. -1.
          6    1    1    2  501    0 -0.72229108209E+02 -0.82092158258E+02 -0.26609398504E+03  0.33518081000E+03  0.17200000000E+03 0. -1.
         -6    1    1    2    0  502  0.72229108209E+02  0.82092158258E+02  0.61959488544E+02  0.21302381261E+03  0.17200000000E+03 0. -1.
</event>
<event>
 4    1  0.4386646E+000  0.2377404E+03  0.7818608E-02  0.1121307E+00
         21   -1    0    0  503  502  0.00000000000E+00  0.00000000000E+00  0.10767866661E+03  0.10767866661E+03  0.00000000000E+00 0. -1.
         21   -1    0    0  501  503 -0.00000000000E+00 -0.00000000000E+00 -0.52654543518E+03  0.52654543518E+03  0.00000000000E+00 0.  1.
          6    1    1    2  501    0  0.35319366731E+02 -0.16027795994E+03 -0.22716288377E+03  0.32882131603E+03  0.17200000000E+03 0. -1.
         -6    1    1    2    0  502 -0.35319366731E+02  0.16027795994E+03 -0.19170388479E+03  0.30540278577E+03  0.17200000000E+03 0. -1.
</event>
<event>
 4    1  0.4386646E+000  0.1771362E+03  0.7818608E-02  0.1170604E+00
         21   -1    0    0  503  502  0.00000000000E+00  0.00000000000E+00  0.54084577412E+02  0.54084577412E+02  0.00000000000E+00 0. -1.
         21   -1    0    0  501  503 -0.00000000000E+00 -0.00000000000E+00 -0.82978106362E+03  0.82978106362E+03  0.00000000000E+00 0. -1.
          6    1    1    2  501    0 -0.41552315317E+02  0.81625167111E+01 -0.63024284351E+03  0.65466270963E+03  0.17200000000E+03 0. -1.
         -6    1    1    2    0  502  0.41552315317E+02 -0.81625167111E+01 -0.14545364269E+03  0.22920293139E+03  0.17200000000E+03 0. -1.
</event>
<event>
 4    1  0.4386646E+000  0.1821343E+03  0.7818608E-02  0.1165753E+00
         21   -1    0    0  503  502  0.00000000000E+00  0.00000000000E+00  0.37674958581E+02  0.37674958581E+02  0.00000000000E+00 0. -1.
         21   -1    0    0  501  503 -0.00000000000E+00 -0.00000000000E+00 -0.99582103646E+03  0.99582103646E+03  0.00000000000E+00 0.  1.
          6    1    1    2  501    0  0.34233794259E+02 -0.49162357213E+02 -0.65492125795E+03  0.67977551011E+03  0.17200000000E+03 0. -1.
         -6    1    1    2    0  502 -0.34233794259E+02  0.49162357213E+02 -0.30322481993E+03  0.35372048493E+03  0.17200000000E+03 0. -1.
</event>
<event>
 4    1  0.4386646E+000  0.2155756E+03  0.7818608E-02  0.1137225E+00
         21   -1    0    0  501  502  0.00000000000E+00  0.00000000000E+00  0.46985197320E+02  0.46985197320E+02  0.00000000000E+00 0.  1.
         21   -1    0    0  502  503 -0.00000000000E+00 -0.00000000000E+00 -0.14006182869E+04  0.14006182869E+04  0.00000000000E+00 0.  1.
          6    1    1    2  501    0  0.52161141864E+02 -0.11902960271E+03 -0.28448172479E+03  0.35693512405E+03  0.17200000000E+03 0.  1.
         -6    1    1    2    0  503 -0.52161141864E+02  0.11902960271E+03 -0.10691513648E+04  0.10906683602E+04  0.17200000000E+03 0.  1.
</event>
<event>
 4    1  0.4386646E+000  0.1783336E+03  0.7818608E-02  0.1169426E+00
         21   -1    0    0  501  502  0.00000000000E+00  0.00000000000E+00  0.75291039377E+02  0.75291039377E+02  0.00000000000E+00 0. -1.
         21   -1    0    0  502  503 -0.00000000000E+00 -0.00000000000E+00 -0.49660502927E+03  0.49660502927E+03  0.00000000000E+00 0. -1.
          6    1    1    2  501    0 -0.38321036149E+02 -0.27393101077E+02 -0.10012189192E+03  0.20451718030E+03  0.17200000000E+03 0. -1.
         -6    1    1    2    0  503  0.38321036149E+02  0.27393101077E+02 -0.32119209797E+03  0.36737888834E+03  0.17200000000E+03 0. -1.
</event>
<event>
 4    1  0.4386646E+000  0.2848684E+03  0.7818608E-02  0.1093059E+00
         21   -1    0    0  503  502  0.00000000000E+00  0.00000000000E+00  0.75933534697E+03  0.75933534697E+03  0.00000000000E+00 0.  1.
         21   -1    0    0  501  503 -0.00000000000E+00 -0.00000000000E+00 -0.13523649693E+03  0.13523649693E+03  0.00000000000E+00 0. -1.
          6    1    1    2  501    0  0.13270461318E+03  0.18427023453E+03  0.10719635088E+03  0.30436999086E+03  0.17200000000E+03 0.  1.
         -6    1    1    2    0  502 -0.13270461318E+03 -0.18427023453E+03  0.51690249916E+03  0.59020185304E+03  0.17200000000E+03 0.  1.
</event>
<event>
 4    1  0.4386646E+000  0.2811052E+03  0.7818608E-02  0.1095087E+00
         21   -1    0    0  503  502  0.00000000000E+00  0.00000000000E+00  0.25881160575E+03  0.25881160575E+03  0.00000000000E+00 0. -1.
         21   -1    0    0  501  503 -0.00000000000E+00 -0.00000000000E+00 -0.30630330670E+03  0.30630330670E+03  0.00000000000E+00 0.  1.
          6    1    1    2  501    0 -0.12334180221E+03 -0.18499448637E+03 -0.39761532042E+02  0.28390339834E+03  0.17200000000E+03 0. -1.
         -6    1    1    2    0  502  0.12334180221E+03  0.18499448637E+03 -0.77301689073E+01  0.28121151411E+03  0.17200000000E+03 0.  1.
</event>
<event>
 4    1  0.4386646E+000  0.1727191E+03  0.7818608E-02  0.1175042E+00
         21   -1    0    0  503  502  0.00000000000E+00  0.00000000000E+00  0.28507525791E+03  0.28507525791E+03  0.00000000000E+00 0. -1.
         21   -1    0    0  501  503 -0.00000000000E+00 -0.00000000000E+00 -0.17331303744E+03  0.17331303744E+03  0.00000000000E+00 0. -1.
          6    1    1    2  501    0  0.12128293755E+02  0.10040124528E+02 -0.88384565602E+02  0.19401992435E+03  0.17200000000E+03 0. -1.
         -6    1    1    2    0  502 -0.12128293755E+02 -0.10040124528E+02  0.20014678606E+03  0.26436837099E+03  0.17200000000E+03 0. -1.
</event>
<event>
 4    1  0.4386646E+000  0.1888240E+03  0.7818608E-02  0.1159526E+00
         21   -1    0    0  503  502  0.00000000000E+00  0.00000000000E+00  0.49008825640E+03  0.49008825640E+03  0.00000000000E+00 0. -1.
         21   -1    0    0  501  503 -0.00000000000E+00 -0.00000000000E+00 -0.14350310113E+03  0.14350310113E+03  0.00000000000E+00 0.  1.
          6    1    1    2  501    0  0.74141332384E+02  0.23949293971E+02 -0.49149878132E+02  0.19511590496E+03  0.17200000000E+03 0.  1.
         -6    1    1    2    0  502 -0.74141332384E+02 -0.23949293971E+02  0.39573503339E+03  0.43847545257E+03  0.17200000000E+03 0. -1.
</event>
<event>
 4    1  0.4386646E+000  0.2625440E+03  0.7818608E-02  0.1105624E+00
         21   -1    0    0  503  502  0.00000000000E+00  0.00000000000E+00  0.18604819953E+03  0.18604819953E+03  0.00000000000E+00 0. -1.
         21   -1    0    0  501  503 -0.00000000000E+00 -0.00000000000E+00 -0.62708839986E+03  0.62708839986E+03  0.00000000000E+00 0. -1.
          6    1    1    2  501    0 -0.19687157287E+03 -0.24227072378E+02 -0.48059259261E+03  0.54762999124E+03  0.17200000000E+03 0. -1.
         -6    1    1    2    0  502  0.19687157287E+03  0.24227072378E+02  0.39552392275E+02  0.26550660815E+03  0.17200000000E+03 0. -1.
</event>
<event>
 4    1  0.4386646E+000  0.3235920E+03  0.7818608E-02  0.1074008E+00
         21   -1    0    0  501  502  0.00000000000E+00  0.00000000000E+00  0.97403215011E+02  0.97403215011E+02  0.00000000000E+00 0.  1.
         21   -1    0    0  502  503 -0.00000000000E+00 -0.00000000000E+00 -0.12682410613E+04  0.12682410613E+04  0.00000000000E+00 0.  1.
          6    1    1    2  501    0 -0.35378348458E+02 -0.27180164719E+03 -0.31890601884E+03  0.45432676766E+03  0.17200000000E+03 0.  1.
         -6    1    1    2    0  503  0.35378348458E+02  0.27180164719E+03 -0.85193182740E+03  0.91131750861E+03  0.17200000000E+03 0.  1.
</event>
<event>
 4    1  0.4386646E+000  0.1871722E+03  0.7818608E-02  0.1161037E+00
         21   -1    0    0  501  502  0.00000000000E+00  0.00000000000E+00  0.55002353284E+02  0.55002353284E+02  0.00000000000E+00 0. -1.
         21   -1    0    0  502  503 -0.00000000000E+00 -0.00000000000E+00 -0.75494378184E+03  0.75494378184E+03  0.00000000000E+00 0. -1.
          6    1    1    2  501    0  0.69847292903E+02  0.23891407984E+02 -0.18986434532E+03  0.26661191520E+03  0.17200000000E+03 0. -1.
         -6    1    1    2    0  503 -0.69847292903E+02 -0.23891407984E+02 -0.51007708324E+03  0.54333421993E+03  0.17200000000E+03 0. -1.
</event>
<event>
 4    1  0.4386646E+000  0.2105697E+03  0.7818608E-02  0.1141116E+00
         21   -1    0    0  503  502  0.00000000000E+00  0.00000000000E+00  0.57239270171E+02  0.57239270171E+02  0.00000000000E+00 0.  1.
         21   -1    0    0  501  503 -0.00000000000E+00 -0.00000000000E+00 -0.94627970844E+03  0.94627970844E+03  0.00000000000E+00 0.  1.
          6    1    1    2  501    0  0.50666195563E+02  0.11040173641E+03 -0.65821780205E+03  0.69107907052E+03  0.17200000000E+03 0.  1.
         -6    1    1    2    0  502 -0.50666195563E+02 -0.11040173641E+03 -0.23082263621E+03  0.31243990809E+03  0.17200000000E+03 0.  1.
</event>
<event>
 4    1  0.4386646E+000  0.2028697E+03  0.7818608E-02  0.1147340E+00
         21   -1    0    0  503  502  0.00000000000E+00  0.00000000000E+00  0.52293212535E+02  0.52293212535E+02  0.00000000000E+00 0.  1.
         21   -1    0    0  501  503 -0.00000000000E+00 -0.00000000000E+00 -0.23563838555E+04  0.23563838555E+04  0.00000000000E+00 0.  1.
          6    1    1    2  501    0  0.94463653442E+02 -0.51466024313E+02 -0.21348936752E+04  0.21445109321E+04  0.17200000000E+03 0.  1.
         -6    1    1    2    0  502 -0.94463653442E+02  0.51466024313E+02 -0.16919696779E+03  0.26416613596E+03  0.17200000000E+03 0.  1.
</event>
<event>
 4    1  0.4386646E+000  0.2569154E+03  0.7818608E-02  0.1109011E+00
         21   -1    0    0  501  502  0.00000000000E+00  0.00000000000E+00  0.22296521611E+03  0.22296521611E+03  0.00000000000E+00 0. -1.
         21   -1    0    0  502  503 -0.00000000000E+00 -0.00000000000E+00 -0.30242795072E+03  0.30242795072E+03  0.00000000000E+00 0.  1.
          6    1    1    2  501    0 -0.11942760718E+03 -0.14885747270E+03 -0.77925375630E+02  0.26847321040E+03  0.17200000000E+03 0.  1.
         -6    1    1    2    0  503  0.11942760718E+03  0.14885747270E+03 -0.15373589813E+01  0.25691995642E+03  0.17200000000E+03 0.  1.
</event>
<event>
 4    1  0.4386646E+000  0.3598330E+03  0.7818608E-02  0.1058650E+00
         21   -1    0    0  501  502  0.00000000000E+00  0.00000000000E+00  0.45299583618E+03  0.45299583618E+03  0.00000000000E+00 0.  1.
         21   -1    0    0  502  503 -0.00000000000E+00 -0.00000000000E+00 -0.35293644518E+03  0.35293644518E+03  0.00000000000E+00 0. -1.
          6    1    1    2  501    0  0.33579031364E+00  0.31606274988E+03  0.22574217191E+03  0.42478147652E+03  0.17200000000E+03 0.  1.
         -6    1    1    2    0  503 -0.33579031364E+00 -0.31606274988E+03 -0.12568278091E+03  0.38115080484E+03  0.17200000000E+03 0. -1.
</event>
<event>
 4    1  0.4386646E+000  0.2331219E+03  0.7818608E-02  0.1124462E+00
         21   -1    0    0  503  502  0.00000000000E+00  0.00000000000E+00  0.78365800482E+03  0.78365800482E+03  0.00000000000E+00 0.  1.
         21   -1    0    0  501  503 -0.00000000000E+00 -0.00000000000E+00 -0.70816532731E+02  0.70816532731E+02  0.00000000000E+00 0.  1.
          6    1    1    2  501    0  0.13473877057E+03  0.81285264041E+02  0.29491598881E+03  0.37592721490E+03  0.17200000000E+03 0.  1.
         -6    1    1    2    0  502 -0.13473877057E+03 -0.81285264041E+02  0.41792548327E+03  0.47854732265E+03  0.17200000000E+03 0.  1.
</event>
<event>
 4    1  0.4386646E+000  0.2219363E+03  0.7818608E-02  0.1132448E+00
         21   -1    0    0  503  502  0.00000000000E+00  0.00000000000E+00  0.27226413731E+03  0.27226413731E+03  0.00000000000E+00 0.  1.
         21   -1    0    0  501  503 -0.00000000000E+00 -0.00000000000E+00 -0.19325389235E+03  0.19325389235E+03  0.00000000000E+00 0. -1.
          6    1    1    2  501    0 -0.80879792912E+02  0.11458704227E+03  0.98327275531E+02  0.24274262969E+03  0.17200000000E+03 0.  1.
         -6    1    1    2    0  502  0.80879792912E+02 -0.11458704227E+03 -0.19317030577E+02  0.22277539996E+03  0.17200000000E+03 0.  1.
</event>
<event>
 4    1  0.4386646E+000  0.1873475E+03  0.7818608E-02  0.1160876E+00
         21   -1    0    0  501  502  0.00000000000E+00  0.00000000000E+00  0.33772652059E+03  0.33772652059E+03  0.00000000000E+00 0. -1.
         21   -1    0    0  502  503 -0.00000000000E+00 -0.00000000000E+00 -0.53558384439E+03  0.53558384439E+03  0.00000000000E+00 0. -1.
          6    1    1    2  501    0  0.32878046482E+01 -0.74190811700E+02  0.29307843484E+03  0.34784199742E+03  0.17200000000E+03 0. -1.
         -6    1    1    2    0  503 -0.32878046482E+01  0.74190811700E+02 -0.49093575864E+03  0.52546836756E+03  0.17200000000E+03 0. -1.
</event>
<event>
 4    1  0.4386646E+000  0.1910645E+03  0.7818608E-02  0.1157505E+00
         21   -1    0    0  501  502  0.00000000000E+00  0.00000000000E+00  0.32739172622E+02  0.32739172622E+02  0.00000000000E+00 0.  1.
         21   -1    0    0  502  503 -0.00000000000E+00 -0.00000000000E+00 -0.11219884499E+04  0.11219884499E+04  0.00000000000E+00 0.  1.
          6    1    1    2  501    0  0.82868555238E+02  0.73778968794E+01 -0.59004619957E+03  0.62020976164E+03  0.17200000000E+03 0.  1.
         -6    1    1    2    0  503 -0.82868555238E+02 -0.73778968794E+01 -0.49920307776E+03  0.53451786093E+03  0.17200000000E+03 0.  1.
</event>
<event>
 4    1  0.4386646E+000  0.1810547E+03  0.7818608E-02  0.1166786E+00
         21   -1    0    0  503  502  0.00000000000E+00  0.00000000000E+00  0.20069191114E+03  0.20069191114E+03  0.00000000000E+00 0. -1.
         21   -1    0    0  501  503 -0.00000000000E+00 -0.00000000000E+00 -0.21735353695E+03  0.21735353695E+03  0.00000000000E+00 0. -1.
          6    1    1    2  501    0 -0.56507668690E+02 -0.19226531627E+01 -0.11253028851E+03  0.21317569995E+03  0.17200000000E+03 0. -1.
         -6    1    1    2    0  502  0.56507668690E+02  0.19226531627E+01  0.95868662697E+02  0.20486974814E+03  0.17200000000E+03 0. -1.
</event>
<event>
 4    1  0.4386646E+000  0.2199979E+03  0.7818608E-02  0.1133885E+00
         21   -1    0    0  501  502  0.00000000000E+00  0.00000000000E+00  0.10867682871E+04  0.10867682871E+04  0.00000000000E+00 0. -1.
         21   -1    0    0  502  503 -0.00000000000E+00 -0.00000000000E+00 -0.61911094907E+02  0.61911094907E+02  0.00000000000E+00 0. -1.
          6    1    1    2  501    0  0.67903196027E+01  0.13699983810E+03  0.81670097924E+03  0.84581295424E+03  0.17200000000E+03 0. -1.
         -6    1    1    2    0  503 -0.67903196027E+01 -0.13699983810E+03  0.20815621298E+03  0.30286642778E+03  0.17200000000E+03 0. -1.
</event>
<event>
 4    1  0.4386646E+000  0.1984433E+03  0.7818608E-02  0.1151059E+00
         21   -1    0    0  501  502  0.00000000000E+00  0.00000000000E+00  0.17278327469E+03  0.17278327469E+03  0.00000000000E+00 0.  1.
         21   -1    0    0  502  503 -0.00000000000E+00 -0.00000000000E+00 -0.23012903461E+03  0.23012903461E+03  0.00000000000E+00 0.  1.
          6    1    1    2  501    0 -0.72178441769E+02 -0.67720084624E+02 -0.89086731998E+01  0.19864315185E+03  0.17200000000E+03 0.  1.
         -6    1    1    2    0  503  0.72178441769E+02  0.67720084624E+02 -0.48437086711E+02  0.20426915745E+03  0.17200000000E+03 0.  1.
</event>
<event>
 4    1  0.4386646E+000  0.3605145E+03  0.7818608E-02  0.1058380E+00
         21   -1    0    0  503  502  0.00000000000E+00  0.00000000000E+00  0.43695095950E+03  0.43695095950E+03  0.00000000000E+00 0.  1.
         21   -1    0    0  501  503 -0.00000000000E+00 -0.00000000000E+00 -0.10110263471E+04  0.10110263471E+04  0.00000000000E+00 0. -1.
          6    1    1    2  501    0  0.30133762873E+03  0.97889482995E+02 -0.89527210475E+03  0.96513359641E+03  0.17200000000E+03 0. -1.
         -6    1    1    2    0  502 -0.30133762873E+03 -0.97889482995E+02  0.32119671715E+03  0.48284371019E+03  0.17200000000E+03 0.  1.
</event>
<event>
 4    1  0.4386646E+000  0.1794675E+03  0.7818608E-02  0.1168319E+00
         21   -1    0    0  501  502  0.00000000000E+00  0.00000000000E+00  0.56142650091E+03  0.56142650091E+03  0.00000000000E+00 0.  1.
         21   -1    0    0  502  503 -0.00000000000E+00 -0.00000000000E+00 -0.63025636810E+02  0.63025636810E+02  0.00000000000E+00 0.  1.
          6    1    1    2  501    0  0.37600239028E+02 -0.34796653597E+02  0.34273718567E+03  0.38688158850E+03  0.17200000000E+03 0.  1.
         -6    1    1    2    0  503 -0.37600239028E+02  0.34796653597E+02  0.15566367843E+03  0.23757054923E+03  0.17200000000E+03 0.  1.
</event>
<event>
 4    1  0.4386646E+000  0.3462532E+03  0.7818608E-02  0.1064163E+00
         21   -1    0    0  503  502  0.00000000000E+00  0.00000000000E+00  0.12806759036E+03  0.12806759036E+03  0.00000000000E+00 0.  1.
         21   -1    0    0  501  503 -0.00000000000E+00 -0.00000000000E+00 -0.10016450628E+04  0.10016450628E+04  0.00000000000E+00 0. -1.
          6    1    1    2  501    0  0.26805248302E+03  0.13584959827E+03 -0.58122137871E+03  0.67654234019E+03  0.17200000000E+03 0. -1.
         -6    1    1    2    0  502 -0.26805248302E+03 -0.13584959827E+03 -0.29235609372E+03  0.45317031295E+03  0.17200000000E+03 0.  1.
</event>
<event>
 4    1  0.4386646E+000  0.2076899E+03  0.7818608E-02  0.1143408E+00
         21   -1    0    0  503  502  0.00000000000E+00  0.00000000000E+00  0.29275061476E+03  0.29275061476E+03  0.00000000000E+00 0.  1.
         21   -1    0    0  501  503 -0.00000000000E+00 -0.00000000000E+00 -0.20117666407E+03  0.20117666407E+03  0.00000000000E+00 0. -1.
          6    1    1    2  501    0  0.49626947323E+02  0.10530085416E+03 -0.81964629193E+02  0.22327853508E+03  0.17200000000E+03 0.  1.
         -6    1    1    2    0  502 -0.49626947323E+02 -0.10530085416E+03  0.17353857988E+03  0.27064874375E+03  0.17200000000E+03 0. -1.
</event>
<event>
 4    1  0.4386646E+000  0.1948589E+03  0.7818608E-02  0.1154151E+00
         21   -1    0    0  501  502  0.00000000000E+00  0.00000000000E+00  0.23416456447E+03  0.23416456447E+03  0.00000000000E+00 0.  1.
         21   -1    0    0  502  503 -0.00000000000E+00 -0.00000000000E+00 -0.35073159882E+03  0.35073159882E+03  0.00000000000E+00 0.  1.
          6    1    1    2  501    0 -0.79522536971E+02 -0.45410794647E+02  0.15615858288E+03  0.24971078704E+03  0.17200000000E+03 0.  1.
         -6    1    1    2    0  503  0.79522536971E+02  0.45410794647E+02 -0.27272561723E+03  0.33518537625E+03  0.17200000000E+03 0.  1.
</event>
<event>
 4    1  0.4386646E+000  0.2644028E+03  0.7818608E-02  0.1104526E+00
         21   -1    0    0  503  502  0.00000000000E+00  0.00000000000E+00  0.15669249320E+04  0.15669249320E+04  0.00000000000E+00 0.  1.
         21   -1    0    0  501  503 -0.00000000000E+00 -0.00000000000E+00 -0.44673325324E+02  0.44673325324E+02  0.00000000000E+00 0. -1.
          6    1    1    2  501    0 -0.19317115751E+03 -0.54861293890E+02  0.73208988123E+03  0.77837295165E+03  0.17200000000E+03 0. -1.
         -6    1    1    2    0  502  0.19317115751E+03  0.54861293890E+02  0.79016172545E+03  0.83322530568E+03  0.17200000000E+03 0.  1.
</event>
<event>
 4    1  0.4386646E+000  0.2171711E+03  0.7818608E-02  0.1136010E+00
         21   -1    0    0  501  502  0.00000000000E+00  0.00000000000E+00  0.17103828595E+03  0.17103828595E+03  0.00000000000E+00 0. -1.
         21   -1    0    0  502  503 -0.00000000000E+00 -0.00000000000E+00 -0.40446459381E+03  0.40446459381E+03  0.00000000000E+00 0.  1.
          6    1    1    2  501    0 -0.75230678955E+02  0.10917701552E+03  0.45615949057E+02  0.22191009572E+03  0.17200000000E+03 0. -1.
         -6    1    1    2    0  503  0.75230678955E+02 -0.10917701552E+03 -0.27904225692E+03  0.35359278404E+03  0.17200000000E+03 0.  1.
</event>
<event>
 4    1  0.4386646E+000  0.4155004E+03  0.7818608E-02  0.1038541E+00
         21   -1    0    0  501  502  0.00000000000E+00  0.00000000000E+00  0.12705016701E+04  0.12705016701E+04  0.00000000000E+00 0.  1.
         21   -1    0    0  502  503 -0.00000000000E+00 -0.00000000000E+00 -0.13623201481E+03  0.13623201481E+03  0.00000000000E+00 0.  1.
          6    1    1    2  501    0  0.21977460099E+03  0.30782414157E+03  0.60269587111E+03  0.73204022460E+03  0.17200000000E+03 0.  1.
         -6    1    1    2    0  503 -0.21977460099E+03 -0.30782414157E+03  0.53157378423E+03  0.67469346036E+03  0.17200000000E+03 0.  1.
</event>
<event>
 4    1  0.4386646E+000  0.2899185E+03  0.7818608E-02  0.1090392E+00
         21   -1    0    0  501  502  0.00000000000E+00  0.00000000000E+00  0.69707512444E+03  0.69707512444E+03  0.00000000000E+00 0.  1.
         21   -1    0    0  502  503 -0.00000000000E+00 -0.00000000000E+00 -0.16564392679E+03  0.16564392679E+03  0.00000000000E+00 0. -1.
          6    1    1    2  501    0  0.16676173202E+03 -0.16327671149E+03  0.49070912014E+03  0.56995455992E+03  0.17200000000E+03 0.  1.
         -6    1    1    2    0  503 -0.16676173202E+03  0.16327671149E+03  0.40722077511E+02  0.29276449132E+03  0.17200000000E+03 0. -1.
</event>
<event>
 4    1  0.4386646E+000  0.1911185E+03  0.7818608E-02  0.1157456E+00
         21   -1    0    0  503  502  0.00000000000E+00  0.00000000000E+00  0.14118819148E+03  0.14118819148E+03  0.00000000000E+00 0. -1.
         21   -1    0    0  501  503 -0.00000000000E+00 -0.00000000000E+00 -0.29755322180E+03  0.29755322180E+03  0.00000000000E+00 0.  1.
          6    1    1    2  501    0 -0.51003021265E+02 -0.65886080123E+02 -0.15744619864E+03  0.24761984815E+03  0.17200000000E+03 0.  1.
         -6    1    1    2    0  502  0.51003021265E+02  0.65886080123E+02  0.10811683260E+01  0.19112156513E+03  0.17200000000E+03 0. -1.
</event>
<event>
 4    1  0.4386646E+000  0.1858859E+03  0.7818608E-02  0.1162225E+00
         21   -1    0    0  503  502  0.00000000000E+00  0.00000000000E+00  0.26906249597E+03  0.26906249597E+03  0.00000000000E+00 0.  1.
         21   -1    0    0  501  503 -0.00000000000E+00 -0.00000000000E+00 -0.33051851021E+03  0.33051851021E+03  0.00000000000E+00 0.  1.
          6    1    1    2  501    0 -0.70494946708E+02  0.19457772812E+00 -0.26515048864E+03  0.32381840127E+03  0.17200000000E+03 0.  1.
         -6    1    1    2    0  502  0.70494946708E+02 -0.19457772812E+00  0.20369447439E+03  0.27576260492E+03  0.17200000000E+03 0.  1.
</event>
<event>
 4    1  0.4386646E+000  0.1796089E+03  0.7818608E-02  0.1168182E+00
         21   -1    0    0  501  502  0.00000000000E+00  0.00000000000E+00  0.17581422467E+04  0.17581422467E+04  0.00000000000E+00 0. -1.
         21   -1    0    0  502  503 -0.00000000000E+00 -0.00000000000E+00 -0.58132045336E+02  0.58132045336E+02  0.00000000000E+00 0. -1.
          6    1    1    2  501    0  0.45705271615E+02 -0.24215416848E+02  0.16012734893E+04  0.16113150361E+04  0.17200000000E+03 0. -1.
         -6    1    1    2    0  503 -0.45705271615E+02  0.24215416848E+02  0.98736712123E+02  0.20495925592E+03  0.17200000000E+03 0. -1.
</event>
<event>
 4    1  0.4386646E+000  0.2036959E+03  0.7818608E-02  0.1146658E+00
         21   -1    0    0  501  502  0.00000000000E+00  0.00000000000E+00  0.12668171354E+04  0.12668171354E+04  0.00000000000E+00 0.  1.
         21   -1    0    0  502  503 -0.00000000000E+00 -0.00000000000E+00 -0.40660041672E+02  0.40660041672E+02  0.00000000000E+00 0.  1.
          6    1    1    2  501    0 -0.83097992537E+02  0.70730123260E+02  0.90136748764E+03  0.92409705901E+03  0.17200000000E+03 0.  1.
         -6    1    1    2    0  503  0.83097992537E+02 -0.70730123260E+02  0.32478960608E+03  0.38338011805E+03  0.17200000000E+03 0.  1.
</event>
<event>
 4    1  0.4386646E+000  0.1921325E+03  0.7818608E-02  0.1156552E+00
         21   -1    0    0  501  502  0.00000000000E+00  0.00000000000E+00  0.49361648115E+03  0.49361648115E+03  0.00000000000E+00 0.  1.
         21   -1    0    0  502  503 -0.00000000000E+00 -0.00000000000E+00 -0.81036503021E+02  0.81036503021E+02  0.00000000000E+00 0.  1.
          6    1    1    2  501    0 -0.26126441707E+02  0.81537141863E+02  0.12648271610E+03  0.23002776774E+03  0.17200000000E+03 0.  1.
         -6    1    1    2    0  503  0.26126441707E+02 -0.81537141863E+02  0.28609726203E+03  0.34462521643E+03  0.17200000000E+03 0.  1.
</event>
<event>
 4    1  0.4386646E+000  0.1895375E+03  0.7818608E-02  0.1158879E+00
         21   -1    0    0  503  502  0.00000000000E+00  0.00000000000E+00  0.12515930002E+03  0.12515930002E+03  0.00000000000E+00 0. -1.
         21   -1    0    0  501  503 -0.00000000000E+00 -0.00000000000E+00 -0.43123807083E+03  0.43123807083E+03  0.00000000000E+00 0.  1.
          6    1    1    2  501    0 -0.32660952434E+02  0.72620401570E+02 -0.31391546350E+03  0.36669793940E+03  0.17200000000E+03 0.  1.
         -6    1    1    2    0  502  0.32660952434E+02 -0.72620401570E+02  0.78366926852E+01  0.18969943144E+03  0.17200000000E+03 0. -1.
</event>
<event>
 4    1  0.4386646E+000  0.1996945E+03  0.7818608E-02  0.1149997E+00
         21   -1    0    0  503  502  0.00000000000E+00  0.00000000000E+00  0.79569157004E+02  0.79569157004E+02  0.00000000000E+00 0.  1.
         21   -1    0    0  501  503 -0.00000000000E+00 -0.00000000000E+00 -0.87434648429E+03  0.87434648429E+03  0.00000000000E+00 0.  1.
          6    1    1    2  501    0  0.58382912384E+02 -0.82977849187E+02 -0.70898601925E+03  0.73657251063E+03  0.17200000000E+03 0.  1.
         -6    1    1    2    0  502 -0.58382912384E+02  0.82977849187E+02 -0.85791308031E+02  0.21734313067E+03  0.17200000000E+03 0.  1.
</event>
<event>
 4    1  0.4386646E+000  0.1780370E+03  0.7818608E-02  0.1169717E+00
         21   -1    0    0  501  502  0.00000000000E+00  0.00000000000E+00  0.15636602825E+04  0.15636602825E+04  0.00000000000E+00 0. -1.
         21   -1    0    0  502  503 -0.00000000000E+00 -0.00000000000E+00 -0.52006014575E+02  0.52006014575E+02  0.00000000000E+00 0. -1.
          6    1    1    2  501    0 -0.23286049795E+02  0.39634806688E+02  0.13868765327E+04  0.13982573708E+04  0.17200000000E+03 0. -1.
         -6    1    1    2    0  503  0.23286049795E+02 -0.39634806688E+02  0.12477773520E+03  0.21740892626E+03  0.17200000000E+03 0. -1.
</event>
<event>
 4    1  0.4386646E+000  0.1793633E+03  0.7818608E-02  0.1168421E+00
         21   -1    0    0  503  502  0.00000000000E+00  0.00000000000E+00  0.18011451487E+03  0.18011451487E+03  0.00000000000E+00 0. -1.
         21   -1    0    0  501  503 -0.00000000000E+00 -0.00000000000E+00 -0.42824865268E+03  0.42824865268E+03  0.00000000000E+00 0. -1.
          6    1    1    2  501    0  0.41896607584E+02  0.28842088140E+02 -0.35630668119E+03  0.39890555629E+03  0.17200000000E+03 0. -1.
         -6    1    1    2    0  502 -0.41896607584E+02 -0.28842088140E+02  0.10817254338E+03  0.20945761127E+03  0.17200000000E+03 0. -1.
</event>
<event>
 4    1  0.4386646E+000  0.2642935E+03  0.7818608E-02  0.1104591E+00
         21   -1    0    0  501  502  0.00000000000E+00  0.00000000000E+00  0.80668204360E+02  0.80668204360E+02  0.00000000000E+00 0. -1.
         21   -1    0    0  502  503 -0.00000000000E+00 -0.00000000000E+00 -0.15717528146E+04  0.15717528146E+04  0.00000000000E+00 0.  1.
          6    1    1    2  501    0 -0.34744994927E+02  0.19763558621E+03 -0.19186849190E+03  0.32659540381E+03  0.17200000000E+03 0. -1.
         -6    1    1    2    0  503  0.34744994927E+02 -0.19763558621E+03 -0.12992161183E+04  0.13258256152E+04  0.17200000000E+03 0.  1.
</event>
<event>
 4    1  0.4386646E+000  0.2012946E+03  0.7818608E-02  0.1148651E+00
         21   -1    0    0  503  502  0.00000000000E+00  0.00000000000E+00  0.13507144823E+04  0.13507144823E+04  0.00000000000E+00 0. -1.
         21   -1    0    0  501  503 -0.00000000000E+00 -0.00000000000E+00 -0.12829391599E+03  0.12829391599E+03  0.00000000000E+00 0. -1.
          6    1    1    2  501    0 -0.10422922804E+03  0.84716605041E+01 -0.36087462699E+02  0.20450380430E+03  0.17200000000E+03 0. -1.
         -6    1    1    2    0  502  0.10422922804E+03 -0.84716605041E+01  0.12585080290E+04  0.12745045940E+04  0.17200000000E+03 0. -1.
</event>
<event>
 4    1  0.4386646E+000  0.2227476E+03  0.7818608E-02  0.1131851E+00
         21   -1    0    0  503  502  0.00000000000E+00  0.00000000000E+00  0.82346360892E+03  0.82346360892E+03  0.00000000000E+00 0. -1.
         21   -1    0    0  501  503 -0.00000000000E+00 -0.00000000000E+00 -0.94000749142E+02  0.94000749142E+02  0.00000000000E+00 0.  1.
          6    1    1    2  501    0  0.74048398907E+02  0.12062051802E+03  0.89870229232E+02  0.24019394840E+03  0.17200000000E+03 0.  1.
         -6    1    1    2    0  502 -0.74048398907E+02 -0.12062051802E+03  0.63959263055E+03  0.67727040966E+03  0.17200000000E+03 0. -1.
</event>
<event>
 4    1  0.4386646E+000  0.3241069E+03  0.7818608E-02  0.1073775E+00
         21   -1    0    0  501  502  0.00000000000E+00  0.00000000000E+00  0.24171459092E+04  0.24171459092E+04  0.00000000000E+00 0.  1.
         21   -1    0    0  502  503 -0.00000000000E+00 -0.00000000000E+00 -0.61291720318E+02  0.61291720318E+02  0.00000000000E+00 0. -1.
          6    1    1    2  501    0 -0.20530944559E+03  0.18250842555E+03  0.18463682755E+04  0.18745989178E+04  0.17200000000E+03 0.  1.
         -6    1    1    2    0  503  0.20530944559E+03 -0.18250842555E+03  0.50948591343E+03  0.60383871176E+03  0.17200000000E+03 0. -1.
</event>
<event>
 4    1  0.4386646E+000  0.1731528E+03  0.7818608E-02  0.1174599E+00
         21   -1    0    0  501  502  0.00000000000E+00  0.00000000000E+00  0.18797675337E+04  0.18797675337E+04  0.00000000000E+00 0.  1.
         21   -1    0    0  502  503 -0.00000000000E+00 -0.00000000000E+00 -0.19591596604E+02  0.19591596604E+02  0.00000000000E+00 0.  1.
          6    1    1    2  501    0  0.93574060078E+01 -0.17616125959E+02  0.13395379789E+04  0.13506827480E+04  0.17200000000E+03 0.  1.
         -6    1    1    2    0  503 -0.93574060078E+01  0.17616125959E+02  0.52063795826E+03  0.54867638233E+03  0.17200000000E+03 0.  1.
</event>
<event>
 4    1  0.4386646E+000  0.2396327E+03  0.7818608E-02  0.1120038E+00
         21   -1    0    0  503  502  0.00000000000E+00  0.00000000000E+00  0.32488731400E+03  0.32488731400E+03  0.00000000000E+00 0.  1.
         21   -1    0    0  501  503 -0.00000000000E+00 -0.00000000000E+00 -0.18468597034E+03  0.18468597034E+03  0.00000000000E+00 0. -1.
          6    1    1    2  501    0  0.67210436645E+02 -0.15271738235E+03  0.17285466851E+02  0.24025534131E+03  0.17200000000E+03 0. -1.
         -6    1    1    2    0  502 -0.67210436645E+02  0.15271738235E+03  0.12291587681E+03  0.26931794303E+03  0.17200000000E+03 0.  1.
</event>
<event>
 4    1  0.4386646E+000  0.1729124E+03  0.7818608E-02  0.1174844E+00
         21   -1    0    0  501  502  0.00000000000E+00  0.00000000000E+00  0.10996039175E+03  0.10996039175E+03  0.00000000000E+00 0. -1.
         21   -1    0    0  502  503 -0.00000000000E+00 -0.00000000000E+00 -0.41822665815E+03  0.41822665815E+03  0.00000000000E+00 0. -1.
          6    1    1    2  501    0 -0.36589397300E+00  0.17736042784E+02  0.20763061670E+01  0.17292487426E+03  0.17200000000E+03 0. -1.
         -6    1    1    2    0  503  0.36589397300E+00 -0.17736042784E+02 -0.31034257257E+03  0.35526217564E+03  0.17200000000E+03 0. -1.
</event>
<event>
 4    1  0.4386646E+000  0.1879683E+03  0.7818608E-02  0.1160307E+00
         21   -1    0    0  503  502  0.00000000000E+00  0.00000000000E+00  0.93218406625E+02  0.93218406625E+02  0.00000000000E+00 0. -1.
         21   -1    0    0  501  503 -0.00000000000E+00 -0.00000000000E+00 -0.38922376194E+03  0.38922376194E+03  0.00000000000E+00 0. -1.
          6    1    1    2  501    0 -0.63130893735E+02  0.41982875148E+02 -0.10895481038E+03  0.21726302551E+03  0.17200000000E+03 0. -1.
         -6    1    1    2    0  502  0.63130893735E+02 -0.41982875148E+02 -0.18705054493E+03  0.26517914305E+03  0.17200000000E+03 0. -1.
</event>
<event>
 4    1  0.4386646E+000  0.1828914E+03  0.7818608E-02  0.1165034E+00
         21   -1    0    0  503  502  0.00000000000E+00  0.00000000000E+00  0.10031753106E+04  0.10031753106E+04  0.00000000000E+00 0.  1.
         21   -1    0    0  501  503 -0.00000000000E+00 -0.00000000000E+00 -0.15417726549E+03  0.15417726549E+03  0.00000000000E+00 0.  1.
          6    1    1    2  501    0  0.60722881249E+02 -0.13341428082E+02 -0.87795693539E+02  0.20287273305E+03  0.17200000000E+03 0.  1.
         -6    1    1    2    0  502 -0.60722881249E+02  0.13341428082E+02  0.93679373862E+03  0.95447984301E+03  0.17200000000E+03 0.  1.
</event>
<event>
 4    1  0.4386646E+000  0.1763744E+03  0.7818608E-02  0.1171359E+00
         21   -1    0    0  503  502  0.00000000000E+00  0.00000000000E+00  0.10431899923E+04  0.10431899923E+04  0.00000000000E+00 0. -1.
         21   -1    0    0  501  503 -0.00000000000E+00 -0.00000000000E+00 -0.42332338120E+02  0.42332338120E+02  0.00000000000E+00 0. -1.
          6    1    1    2  501    0  0.21153633322E+01 -0.38980277242E+02  0.20534752752E+03  0.27069455819E+03  0.17200000000E+03 0. -1.
         -6    1    1    2    0  502 -0.21153633322E+01  0.38980277242E+02  0.79551012667E+03  0.81482777224E+03  0.17200000000E+03 0. -1.
</event>
<event>
 4    1  0.4386646E+000  0.1787270E+03  0.7818608E-02  0.1169041E+00
         21   -1    0    0  503  502  0.00000000000E+00  0.00000000000E+00  0.24168625012E+03  0.24168625012E+03  0.00000000000E+00 0. -1.
         21   -1    0    0  501  503 -0.00000000000E+00 -0.00000000000E+00 -0.13339199079E+03  0.13339199079E+03  0.00000000000E+00 0.  1.
          6    1    1    2  501    0  0.27674285643E+02 -0.39918558978E+02  0.36187727060E+02  0.18235380179E+03  0.17200000000E+03 0.  1.
         -6    1    1    2    0  502 -0.27674285643E+02  0.39918558978E+02  0.72106532275E+02  0.19272443912E+03  0.17200000000E+03 0.  1.
</event>
<event>
 4    1  0.4386646E+000  0.1775660E+03  0.7818608E-02  0.1170180E+00
         21   -1    0    0  503  502  0.00000000000E+00  0.00000000000E+00  0.26053638603E+03  0.26053638603E+03  0.00000000000E+00 0.  1.
         21   -1    0    0  501  503 -0.00000000000E+00 -0.00000000000E+00 -0.13895129612E+03  0.13895129612E+03  0.00000000000E+00 0.  1.
          6    1    1    2  501    0 -0.23888154774E+02  0.37081497104E+02 -0.10965073963E+02  0.17790422764E+03  0.17200000000E+03 0.  1.
         -6    1    1    2    0  502  0.23888154774E+02 -0.37081497104E+02  0.13255016388E+03  0.22158345450E+03  0.17200000000E+03 0.  1.
</event>
<event>
 4    1  0.4386646E+000  0.2420988E+03  0.7818608E-02  0.1118402E+00
         21   -1    0    0  503  502  0.00000000000E+00  0.00000000000E+00  0.33491851585E+03  0.33491851585E+03  0.00000000000E+00 0. -1.
         21   -1    0    0  501  503 -0.00000000000E+00 -0.00000000000E+00 -0.76688687035E+03  0.76688687035E+03  0.00000000000E+00 0.  1.
          6    1    1    2  501    0 -0.17003662231E+03 -0.10741887267E+02 -0.69996415086E+03  0.74064948090E+03  0.17200000000E+03 0.  1.
         -6    1    1    2    0  502  0.17003662231E+03  0.10741887267E+02  0.26799579635E+03  0.36115590530E+03  0.17200000000E+03 0. -1.
</event>
<event>
 4    1  0.4386646E+000  0.1910275E+03  0.7818608E-02  0.1157538E+00
         21   -1    0    0  503  502  0.00000000000E+00  0.00000000000E+00  0.19124330958E+03  0.19124330958E+03  0.00000000000E+00 0.  1.
         21   -1    0    0  501  503 -0.00000000000E+00 -0.00000000000E+00 -0.31279288843E+03  0.31279288843E+03  0.00000000000E+00 0. -1.
          6    1    1    2  501    0 -0.42409660849E+02  0.71476852787E+02 -0.21815465819E+03  0.28997064456E+03  0.17200000000E+03 0. -1.
         -6    1    1    2    0  502  0.42409660849E+02 -0.71476852787E+02  0.96605079346E+02  0.21406555345E+03  0.17200000000E+03 0.  1.
</event>
<event>
 4    1  0.4386646E+000  0.1897565E+03  0.7818608E-02  0.1158681E+00
         21   -1    0    0  501  502  0.00000000000E+00  0.00000000000E+00  0.20174365715E+03  0.20174365715E+03  0.00000000000E+00 0.  1.
         21   -1    0    0  502  503 -0.00000000000E+00 -0.00000000000E+00 -0.17951515319E+03  0.17951515319E+03  0.00000000000E+00 0. -1.
          6    1    1    2  501    0  0.28121326385E+02 -0.75051451121E+02  0.25578878182E+02  0.19147273519E+03  0.17200000000E+03 0.  1.
         -6    1    1    2    0  503 -0.28121326385E+02  0.75051451121E+02 -0.33503742205E+01  0.18978607515E+03  0.17200000000E+03 0. -1.
</event>
<event>
 4    1  0.4386646E+000  0.1985655E+03  0.7818608E-02  0.1150955E+00
         21   -1    0    0  501  502  0.00000000000E+00  0.00000000000E+00  0.10572799919E+04  0.10572799919E+04  0.00000000000E+00 0.  1.
         21   -1    0    0  502  503 -0.00000000000E+00 -0.00000000000E+00 -0.58759644006E+02  0.58759644006E+02  0.00000000000E+00 0. -1.
          6    1    1    2  501    0  0.98063545948E+02  0.15093106003E+02  0.83654791679E+03  0.85979106647E+03  0.17200000000E+03 0.  1.
         -6    1    1    2    0  503 -0.98063545948E+02 -0.15093106003E+02  0.16197243106E+03  0.25624856939E+03  0.17200000000E+03 0. -1.
</event>
<event>
 4    1  0.4386646E+000  0.1842254E+03  0.7818608E-02  0.1163775E+00
         21   -1    0    0  503  502  0.00000000000E+00  0.00000000000E+00  0.23716041012E+03  0.23716041012E+03  0.00000000000E+00 0.  1.
         21   -1    0    0  501  503 -0.00000000000E+00 -0.00000000000E+00 -0.15506741316E+03  0.15506741316E+03  0.00000000000E+00 0.  1.
          6    1    1    2  501    0 -0.65580214896E+02  0.73649554419E+01 -0.13421920946E+02  0.18471371123E+03  0.17200000000E+03 0.  1.
         -6    1    1    2    0  502  0.65580214896E+02 -0.73649554419E+01  0.95514917907E+02  0.20751411204E+03  0.17200000000E+03 0.  1.
</event>
<event>
 4    1  0.4386646E+000  0.1728268E+03  0.7818608E-02  0.1174932E+00
         21   -1    0    0  503  502  0.00000000000E+00  0.00000000000E+00  0.19538834406E+04  0.19538834406E+04  0.00000000000E+00 0.  1.
         21   -1    0    0  501  503 -0.00000000000E+00 -0.00000000000E+00 -0.15661491765E+02  0.15661491765E+02  0.00000000000E+00 0. -1.
          6    1    1    2  501    0 -0.14453057211E+02 -0.87300412592E+01  0.81684100649E+03  0.83492414887E+03  0.17200000000E+03 0. -1.
         -6    1    1    2    0  502  0.14453057211E+02  0.87300412592E+01  0.11213809423E+04  0.11346207835E+04  0.17200000000E+03 0.  1.
</event>
<event>
 4    1  0.4386646E+000  0.1782921E+03  0.7818608E-02  0.1169466E+00
         21   -1    0    0  503  502  0.00000000000E+00  0.00000000000E+00  0.66068741293E+03  0.66068741293E+03  0.00000000000E+00 0.  1.
         21   -1    0    0  501  503 -0.00000000000E+00 -0.00000000000E+00 -0.50290839222E+02  0.50290839222E+02  0.00000000000E+00 0.  1.
          6    1    1    2  501    0 -0.42348383279E+01  0.46756095376E+02  0.23123222807E+03  0.29198700247E+03  0.17200000000E+03 0.  1.
         -6    1    1    2    0  502  0.42348383279E+01 -0.46756095376E+02  0.37916434563E+03  0.41899124968E+03  0.17200000000E+03 0.  1.
</event>
<event>
 4    1  0.4386646E+000  0.1760723E+03  0.7818608E-02  0.1171659E+00
         21   -1    0    0  503  502  0.00000000000E+00  0.00000000000E+00  0.21456488096E+03  0.21456488096E+03  0.00000000000E+00 0.  1.
         21   -1    0    0  501  503 -0.00000000000E+00 -0.00000000000E+00 -0.31199331402E+03  0.31199331402E+03  0.00000000000E+00 0.  1.
          6    1    1    2  501    0 -0.37642388261E+02 -0.71623739099E+00 -0.24162725656E+03  0.29897356656E+03  0.17200000000E+03 0.  1.
         -6    1    1    2    0  502  0.37642388261E+02  0.71623739099E+00  0.14419882350E+03  0.22758462841E+03  0.17200000000E+03 0.  1.
</event>
<event>
 4    1  0.4386646E+000  0.2163553E+03  0.7818608E-02  0.1136630E+00
         21   -1    0    0  501  502  0.00000000000E+00  0.00000000000E+00  0.25584866999E+02  0.25584866999E+02  0.00000000000E+00 0. -1.
         21   -1    0    0  502  503 -0.00000000000E+00 -0.00000000000E+00 -0.19657200541E+04  0.19657200541E+04  0.00000000000E+00 0.  1.
          6    1    1    2  501    0 -0.60627227158E+02 -0.11640419129E+03 -0.70804563646E+03  0.74036357266E+03  0.17200000000E+03 0. -1.
         -6    1    1    2    0  503  0.60627227158E+02  0.11640419129E+03 -0.12320895507E+04  0.12509413485E+04  0.17200000000E+03 0.  1.
</event>
<event>
 4    1  0.4386646E+000  0.2559127E+03  0.7818608E-02  0.1109624E+00
         21   -1    0    0  501  502  0.00000000000E+00  0.00000000000E+00  0.23897005610E+04  0.23897005610E+04  0.00000000000E+00 0. -1.
         21   -1    0    0  502  503 -0.00000000000E+00 -0.00000000000E+00 -0.35032661512E+02  0.35032661512E+02  0.00000000000E+00 0. -1.
          6    1    1    2  501    0  0.16150827335E+03  0.99107846657E+02  0.17430190184E+04  0.17617055901E+04  0.17200000000E+03 0. -1.
         -6    1    1    2    0  503 -0.16150827335E+03 -0.99107846657E+02  0.61164888108E+03  0.66302763243E+03  0.17200000000E+03 0. -1.
</event>
<event>
 4    1  0.4386646E+000  0.1934352E+03  0.7818608E-02  0.1155399E+00
         21   -1    0    0  501  502  0.00000000000E+00  0.00000000000E+00  0.25282517207E+03  0.25282517207E+03  0.00000000000E+00 0. -1.
         21   -1    0    0  502  503 -0.00000000000E+00 -0.00000000000E+00 -0.28464850837E+03  0.28464850837E+03  0.00000000000E+00 0. -1.
          6    1    1    2  501    0 -0.65980305398E+02  0.58989691733E+02  0.17028894752E+03  0.25771206817E+03  0.17200000000E+03 0. -1.
         -6    1    1    2    0  503  0.65980305398E+02 -0.58989691733E+02 -0.20211228382E+03  0.27976161227E+03  0.17200000000E+03 0. -1.
</event>
<event>
 4    1  0.4386646E+000  0.1826227E+03  0.7818608E-02  0.1165289E+00
         21   -1    0    0  503  502  0.00000000000E+00  0.00000000000E+00  0.31706727412E+02  0.31706727412E+02  0.00000000000E+00 0.  1.
         21   -1    0    0  501  503 -0.00000000000E+00 -0.00000000000E+00 -0.11228570136E+04  0.11228570136E+04  0.00000000000E+00 0.  1.
          6    1    1    2  501    0  0.54260342317E+02 -0.28685854737E+02 -0.40041635050E+03  0.44009580407E+03  0.17200000000E+03 0.  1.
         -6    1    1    2    0  502 -0.54260342317E+02  0.28685854737E+02 -0.69073393569E+03  0.71446793695E+03  0.17200000000E+03 0.  1.
</event>
<event>
 4    1  0.4386646E+000  0.1740599E+03  0.7818608E-02  0.1173679E+00
         21   -1    0    0  501  502  0.00000000000E+00  0.00000000000E+00  0.10595404888E+03  0.10595404888E+03  0.00000000000E+00 0. -1.
         21   -1    0    0  502  503 -0.00000000000E+00 -0.00000000000E+00 -0.28736172589E+03  0.28736172589E+03  0.00000000000E+00 0. -1.
          6    1    1    2  501    0 -0.23825868237E+02  0.12048890659E+02 -0.76887148273E+02  0.19028526305E+03  0.17200000000E+03 0. -1.
         -6    1    1    2    0  503  0.23825868237E+02 -0.12048890659E+02 -0.10452052874E+03  0.20303051172E+03  0.17200000000E+03 0. -1.
</event>
<event>
 4    1  0.4386646E+000  0.1947343E+03  0.7818608E-02  0.1154259E+00
         21   -1    0    0  503  502  0.00000000000E+00  0.00000000000E+00  0.33886002710E+03  0.33886002710E+03  0.00000000000E+00 0.  1.
         21   -1    0    0  501  503 -0.00000000000E+00 -0.00000000000E+00 -0.14846868332E+03  0.14846868332E+03  0.00000000000E+00 0.  1.
          6    1    1    2  501    0  0.83686914722E+02  0.36523426751E+02 -0.25718233549E+02  0.19642527316E+03  0.17200000000E+03 0.  1.
         -6    1    1    2    0  502 -0.83686914722E+02 -0.36523426751E+02  0.21610957733E+03  0.29090343726E+03  0.17200000000E+03 0.  1.
</event>
<event>
 4    1  0.4386646E+000  0.2227812E+03  0.7818608E-02  0.1131826E+00
         21   -1    0    0  501  502  0.00000000000E+00  0.00000000000E+00  0.73759494224E+03  0.73759494224E+03  0.00000000000E+00 0.  1.
         21   -1    0    0  502  503 -0.00000000000E+00 -0.00000000000E+00 -0.21036404541E+03  0.21036404541E+03  0.00000000000E+00 0.  1.
          6    1    1    2  501    0 -0.10862201418E+03  0.90822455531E+02 -0.12727666300E+03  0.25657515339E+03  0.17200000000E+03 0.  1.
         -6    1    1    2    0  503  0.10862201418E+03 -0.90822455531E+02  0.65450755983E+03  0.69138383426E+03  0.17200000000E+03 0.  1.
</event>
<event>
 4    1  0.4386646E+000  0.2173460E+03  0.7818608E-02  0.1135877E+00
         21   -1    0    0  501  502  0.00000000000E+00  0.00000000000E+00  0.44908992845E+03  0.44908992845E+03  0.00000000000E+00 0.  1.
         21   -1    0    0  502  503 -0.00000000000E+00 -0.00000000000E+00 -0.10912338741E+03  0.10912338741E+03  0.00000000000E+00 0.  1.
          6    1    1    2  501    0  0.62513737282E+02  0.11724903968E+03  0.22298033117E+03  0.31138325700E+03  0.17200000000E+03 0.  1.
         -6    1    1    2    0  503 -0.62513737282E+02 -0.11724903968E+03  0.11698620987E+03  0.24683005886E+03  0.17200000000E+03 0.  1.
</event>
<event>
 4    1  0.4386646E+000  0.2018229E+03  0.7818608E-02  0.1148210E+00
         21   -1    0    0  501  502  0.00000000000E+00  0.00000000000E+00  0.76238040751E+03  0.76238040751E+03  0.00000000000E+00 0. -1.
         21   -1    0    0  502  503 -0.00000000000E+00 -0.00000000000E+00 -0.97859147571E+02  0.97859147571E+02  0.00000000000E+00 0.  1.
          6    1    1    2  501    0 -0.71525998803E+02  0.77669296560E+02  0.62208325507E+03  0.65400310731E+03  0.17200000000E+03 0. -1.
         -6    1    1    2    0  503  0.71525998803E+02 -0.77669296560E+02  0.42438004871E+02  0.20623644777E+03  0.17200000000E+03 0.  1.
</event>
<event>
 4    1  0.4386646E+000  0.2328101E+03  0.7818608E-02  0.1124677E+00
         21   -1    0    0  503  502  0.00000000000E+00  0.00000000000E+00  0.62010495072E+02  0.62010495072E+02  0.00000000000E+00 0.  1.
         21   -1    0    0  501  503 -0.00000000000E+00 -0.00000000000E+00 -0.20576273195E+04  0.20576273195E+04  0.00000000000E+00 0.  1.
          6    1    1    2  501    0  0.76044605683E+02  0.13723620088E+03 -0.18016043041E+04  0.18165843293E+04  0.17200000000E+03 0.  1.
         -6    1    1    2    0  502 -0.76044605683E+02 -0.13723620088E+03 -0.19401252029E+03  0.30305348524E+03  0.17200000000E+03 0.  1.
</event>
<event>
 4    1  0.4386646E+000  0.2589530E+03  0.7818608E-02  0.1107774E+00
         21   -1    0    0  501  502  0.00000000000E+00  0.00000000000E+00  0.17040152831E+04  0.17040152831E+04  0.00000000000E+00 0.  1.
         21   -1    0    0  502  503 -0.00000000000E+00 -0.00000000000E+00 -0.49781921227E+02  0.49781921227E+02  0.00000000000E+00 0.  1.
          6    1    1    2  501    0  0.15263579638E+03  0.11905857479E+03  0.12284926465E+04  0.12554882767E+04  0.17200000000E+03 0.  1.
         -6    1    1    2    0  503 -0.15263579638E+03 -0.11905857479E+03  0.42574071534E+03  0.49830892754E+03  0.17200000000E+03 0.  1.
</event>
<event>
 4    1  0.4386646E+000  0.1932138E+03  0.7818608E-02  0.1155594E+00
         21   -1    0    0  501  502  0.00000000000E+00  0.00000000000E+00  0.65493047554E+02  0.65493047554E+02  0.00000000000E+00 0. -1.
         21   -1    0    0  502  503 -0.00000000000E+00 -0.00000000000E+00 -0.68862013176E+03  0.68862013176E+03  0.00000000000E+00 0.  1.
          6    1    1    2  501    0 -0.40108350292E+02 -0.78350969506E+02 -0.15507540334E+03  0.24774974250E+03  0.17200000000E+03 0.  1.
         -6    1    1    2    0  503  0.40108350292E+02  0.78350969506E+02 -0.46805168087E+03  0.50636343682E+03  0.17200000000E+03 0.  1.
</event>
<event>
 4    1  0.4386646E+000  0.2039780E+03  0.7818608E-02  0.1146426E+00
         21   -1    0    0  501  502  0.00000000000E+00  0.00000000000E+00  0.18013238258E+04  0.18013238258E+04  0.00000000000E+00 0. -1.
         21   -1    0    0  502  503 -0.00000000000E+00 -0.00000000000E+00 -0.26835453539E+02  0.26835453539E+02  0.00000000000E+00 0. -1.
          6    1    1    2  501    0  0.73185453372E+02 -0.81651092835E+02  0.12283714071E+04  0.12451920837E+04  0.17200000000E+03 0. -1.
         -6    1    1    2    0  503 -0.73185453372E+02  0.81651092835E+02  0.54611696518E+03  0.58296719565E+03  0.17200000000E+03 0. -1.
</event>
<event>
 4    1  0.4386646E+000  0.1813453E+03  0.7818608E-02  0.1166507E+00
         21   -1    0    0  501  502  0.00000000000E+00  0.00000000000E+00  0.11559888720E+03  0.11559888720E+03  0.00000000000E+00 0. -1.
         21   -1    0    0  502  503 -0.00000000000E+00 -0.00000000000E+00 -0.41136970314E+03  0.41136970314E+03  0.00000000000E+00 0. -1.
          6    1    1    2  501    0  0.33116162561E+02  0.46962103460E+02 -0.15519412188E+01  0.18135194486E+03  0.17200000000E+03 0. -1.
         -6    1    1    2    0  503 -0.33116162561E+02 -0.46962103460E+02 -0.29421887472E+03  0.34561664547E+03  0.17200000000E+03 0. -1.
</event>
<event>
 4    1  0.4386646E+000  0.2236676E+03  0.7818608E-02  0.1131178E+00
         21   -1    0    0  503  502  0.00000000000E+00  0.00000000000E+00  0.61982004514E+03  0.61982004514E+03  0.00000000000E+00 0. -1.
         21   -1    0    0  501  503 -0.00000000000E+00 -0.00000000000E+00 -0.80815232553E+02  0.80815232553E+02  0.00000000000E+00 0. -1.
          6    1    1    2  501    0  0.86119496474E+02  0.11413420870E+03  0.28199654206E+03  0.35992948616E+03  0.17200000000E+03 0. -1.
         -6    1    1    2    0  502 -0.86119496474E+02 -0.11413420870E+03  0.25700827053E+03  0.34070579154E+03  0.17200000000E+03 0. -1.
</event>
<event>
 4    1  0.4386646E+000  0.2036216E+03  0.7818608E-02  0.1146719E+00
         21   -1    0    0  501  502  0.00000000000E+00  0.00000000000E+00  0.26092008867E+03  0.26092008867E+03  0.00000000000E+00 0.  1.
         21   -1    0    0  502  503 -0.00000000000E+00 -0.00000000000E+00 -0.22033560683E+03  0.22033560683E+03  0.00000000000E+00 0.  1.
          6    1    1    2  501    0  0.39135494934E+02  0.10171604229E+03  0.14734753991E+03  0.25134247102E+03  0.17200000000E+03 0.  1.
         -6    1    1    2    0  503 -0.39135494934E+02 -0.10171604229E+03 -0.10676305807E+03  0.22991322448E+03  0.17200000000E+03 0.  1.
</event>
<event>
 4    1  0.4386646E+000  0.2478882E+03  0.7818608E-02  0.1114647E+00
         21   -1    0    0  501  502  0.00000000000E+00  0.00000000000E+00  0.45286194214E+03  0.45286194214E+03  0.00000000000E+00 0. -1.
         21   -1    0    0  502  503 -0.00000000000E+00 -0.00000000000E+00 -0.27546476547E+03  0.27546476547E+03  0.00000000000E+00 0. -1.
          6    1    1    2  501    0  0.16308136554E+03 -0.72588105233E+02  0.34810370106E+03  0.42734617291E+03  0.17200000000E+03 0. -1.
         -6    1    1    2    0  503 -0.16308136554E+03  0.72588105233E+02 -0.17070652439E+03  0.30098053471E+03  0.17200000000E+03 0. -1.
</event>
<event>
 4    1  0.4386646E+000  0.2137511E+03  0.7818608E-02  0.1138629E+00
         21   -1    0    0  501  502  0.00000000000E+00  0.00000000000E+00  0.67721870337E+03  0.67721870337E+03  0.00000000000E+00 0. -1.
         21   -1    0    0  502  503 -0.00000000000E+00 -0.00000000000E+00 -0.10456292173E+03  0.10456292173E+03  0.00000000000E+00 0. -1.
          6    1    1    2  501    0  0.12637608474E+03  0.11602990272E+02  0.51915464842E+03  0.56143663325E+03  0.17200000000E+03 0. -1.
         -6    1    1    2    0  503 -0.12637608474E+03 -0.11602990272E+02  0.53501133227E+02  0.22034499185E+03  0.17200000000E+03 0. -1.
</event>
<event>
 4    1  0.4386646E+000  0.2761993E+03  0.7818608E-02  0.1097783E+00
         21   -1    0    0  501  502  0.00000000000E+00  0.00000000000E+00  0.57879651741E+03  0.57879651741E+03  0.00000000000E+00 0. -1.
         21   -1    0    0  502  503 -0.00000000000E+00 -0.00000000000E+00 -0.19998470366E+03  0.19998470366E+03  0.00000000000E+00 0.  1.
          6    1    1    2  501    0  0.46817650737E+02  0.21097436261E+03  0.41677255042E+03  0.49998543267E+03  0.17200000000E+03 0. -1.
         -6    1    1    2    0  503 -0.46817650737E+02 -0.21097436261E+03 -0.37960736676E+02  0.27879578840E+03  0.17200000000E+03 0.  1.
</event>
<event>
 4    1  0.4386646E+000  0.1789412E+03  0.7818608E-02  0.1168832E+00
         21   -1    0    0  503  502  0.00000000000E+00  0.00000000000E+00  0.89676883111E+03  0.89676883111E+03  0.00000000000E+00 0. -1.
         21   -1    0    0  501  503 -0.00000000000E+00 -0.00000000000E+00 -0.37052722952E+02  0.37052722952E+02  0.00000000000E+00 0. -1.
          6    1    1    2  501    0  0.49269361096E+02 -0.29121534153E+01  0.34084025273E+03  0.38495717744E+03  0.17200000000E+03 0. -1.
         -6    1    1    2    0  502 -0.49269361096E+02  0.29121534153E+01  0.51887585544E+03  0.54886437663E+03  0.17200000000E+03 0. -1.
</event>
<event>
 4    1  0.4386646E+000  0.1769560E+03  0.7818608E-02  0.1170782E+00
         21   -1    0    0  503  502  0.00000000000E+00  0.00000000000E+00  0.79890795539E+03  0.79890795539E+03  0.00000000000E+00 0. -1.
         21   -1    0    0  501  503 -0.00000000000E+00 -0.00000000000E+00 -0.43848999711E+02  0.43848999711E+02  0.00000000000E+00 0. -1.
          6    1    1    2  501    0 -0.35042015150E+02  0.22394166005E+02  0.24025448843E+03  0.29838843930E+03  0.17200000000E+03 0.  1.
         -6    1    1    2    0  502  0.35042015150E+02 -0.22394166005E+02  0.51480446724E+03  0.54436851580E+03  0.17200000000E+03 0.  1.
</event>
<event>
 4    1  0.4386646E+000  0.1956729E+03  0.7818608E-02  0.1153442E+00
         21   -1    0    0  501  502  0.00000000000E+00  0.00000000000E+00  0.70507372364E+02  0.70507372364E+02  0.00000000000E+00 0. -1.
         21   -1    0    0  502  503 -0.00000000000E+00 -0.00000000000E+00 -0.55576429447E+03  0.55576429447E+03  0.00000000000E+00 0. -1.
          6    1    1    2  501    0 -0.43992021744E+02  0.82271296985E+02 -0.29002159415E+03  0.34985767015E+03  0.17200000000E+03 0.  1.
         -6    1    1    2    0  503  0.43992021744E+02 -0.82271296985E+02 -0.19523532796E+03  0.27641399669E+03  0.17200000000E+03 0.  1.
</event>
<event>
 4    1  0.4386646E+000  0.1846631E+03  0.7818608E-02  0.1163365E+00
         21   -1    0    0  501  502  0.00000000000E+00  0.00000000000E+00  0.44403184369E+03  0.44403184369E+03  0.00000000000E+00 0. -1.
         21   -1    0    0  502  503 -0.00000000000E+00 -0.00000000000E+00 -0.10694837326E+03  0.10694837326E+03  0.00000000000E+00 0. -1.
          6    1    1    2  501    0 -0.67097633754E+02  0.37883740792E+01  0.31481681598E+03  0.36497954992E+03  0.17200000000E+03 0. -1.
         -6    1    1    2    0  503  0.67097633754E+02 -0.37883740792E+01  0.22266654443E+02  0.18600066702E+03  0.17200000000E+03 0. -1.
</event>
<event>
 4    1  0.4386646E+000  0.1997819E+03  0.7818608E-02  0.1149923E+00
         21   -1    0    0  503  502  0.00000000000E+00  0.00000000000E+00  0.75299076613E+03  0.75299076613E+03  0.00000000000E+00 0. -1.
         21   -1    0    0  501  503 -0.00000000000E+00 -0.00000000000E+00 -0.86034210796E+02  0.86034210796E+02  0.00000000000E+00 0. -1.
          6    1    1    2  501    0  0.94628696539E+02 -0.37070558164E+02  0.73549909878E+02  0.21289059569E+03  0.17200000000E+03 0. -1.
         -6    1    1    2    0  502 -0.94628696539E+02  0.37070558164E+02  0.59340664546E+03  0.62613438123E+03  0.17200000000E+03 0. -1.
</event>
<event>
 4    1  0.4386646E+000  0.2018073E+03  0.7818608E-02  0.1148223E+00
         21   -1    0    0  503  502  0.00000000000E+00  0.00000000000E+00  0.13150153198E+03  0.13150153198E+03  0.00000000000E+00 0. -1.
         21   -1    0    0  501  503 -0.00000000000E+00 -0.00000000000E+00 -0.58554117547E+03  0.58554117547E+03  0.00000000000E+00 0.  1.
          6    1    1    2  501    0  0.10103686001E+03 -0.30557446151E+02 -0.47309328212E+03  0.51433788329E+03  0.17200000000E+03 0.  1.
         -6    1    1    2    0  502 -0.10103686001E+03  0.30557446151E+02  0.19053638633E+02  0.20270482417E+03  0.17200000000E+03 0. -1.
</event>
<event>
 4    1  0.4386646E+000  0.2351455E+03  0.7818608E-02  0.1123070E+00
         21   -1    0    0  501  502  0.00000000000E+00  0.00000000000E+00  0.31049434200E+03  0.31049434200E+03  0.00000000000E+00 0.  1.
         21   -1    0    0  502  503 -0.00000000000E+00 -0.00000000000E+00 -0.21011101567E+03  0.21011101567E+03  0.00000000000E+00 0.  1.
          6    1    1    2  501    0 -0.11872573866E+03 -0.10776641868E+03  0.15182288451E+03  0.27989925022E+03  0.17200000000E+03 0.  1.
         -6    1    1    2    0  503  0.11872573866E+03  0.10776641868E+03 -0.51439558190E+02  0.24070610744E+03  0.17200000000E+03 0.  1.
</event>
<event>
 4    1  0.4386646E+000  0.2257319E+03  0.7818608E-02  0.1129680E+00
         21   -1    0    0  503  502  0.00000000000E+00  0.00000000000E+00  0.14763560789E+03  0.14763560789E+03  0.00000000000E+00 0. -1.
         21   -1    0    0  501  503 -0.00000000000E+00 -0.00000000000E+00 -0.35250626137E+03  0.35250626137E+03  0.00000000000E+00 0. -1.
          6    1    1    2  501    0  0.14345222602E+03  0.28148985726E+02 -0.66284954135E+02  0.23526283534E+03  0.17200000000E+03 0. -1.
         -6    1    1    2    0  502 -0.14345222602E+03 -0.28148985726E+02 -0.13858569935E+03  0.26487903392E+03  0.17200000000E+03 0. -1.
</event>
<event>
 4    1  0.4386646E+000  0.1946964E+03  0.7818608E-02  0.1154292E+00
         21   -1    0    0  501  502  0.00000000000E+00  0.00000000000E+00  0.18681558727E+03  0.18681558727E+03  0.00000000000E+00 0.  1.
         21   -1    0    0  502  503 -0.00000000000E+00 -0.00000000000E+00 -0.24047131316E+03  0.24047131316E+03  0.00000000000E+00 0. -1.
          6    1    1    2  501    0  0.49300838312E+01  0.91095462778E+02  0.57608640335E+02  0.20304049967E+03  0.17200000000E+03 0.  1.
         -6    1    1    2    0  503 -0.49300838312E+01 -0.91095462778E+02 -0.11126436622E+03  0.22424640076E+03  0.17200000000E+03 0. -1.
</event>
<event>
 4    1  0.4386646E+000  0.1955821E+03  0.7818608E-02  0.1153521E+00
         21   -1    0    0  501  502  0.00000000000E+00  0.00000000000E+00  0.10908196344E+03  0.10908196344E+03  0.00000000000E+00 0. -1.
         21   -1    0    0  502  503 -0.00000000000E+00 -0.00000000000E+00 -0.39472626177E+03  0.39472626177E+03  0.00000000000E+00 0. -1.
          6    1    1    2  501    0 -0.17479124393E+02  0.91448513898E+02 -0.58670053845E+02  0.20419237425E+03  0.17200000000E+03 0. -1.
         -6    1    1    2    0  503  0.17479124393E+02 -0.91448513898E+02 -0.22697424449E+03  0.29961585096E+03  0.17200000000E+03 0. -1.
</event>
<event>
 4    1  0.4386646E+000  0.1754991E+03  0.7818608E-02  0.1172232E+00
         21   -1    0    0  501  502  0.00000000000E+00  0.00000000000E+00  0.21708703710E+02  0.21708703710E+02  0.00000000000E+00 0.  1.
         21   -1    0    0  502  503 -0.00000000000E+00 -0.00000000000E+00 -0.14781681950E+04  0.14781681950E+04  0.00000000000E+00 0.  1.
          6    1    1    2  501    0  0.26882973618E+02 -0.22208959474E+02 -0.57791413992E+03  0.60397407665E+03  0.17200000000E+03 0.  1.
         -6    1    1    2    0  503 -0.26882973618E+02  0.22208959474E+02 -0.87854535138E+03  0.89590282206E+03  0.17200000000E+03 0.  1.
</event>
<event>
 4    1  0.4386646E+000  0.2255547E+03  0.7818608E-02  0.1129808E+00
         21   -1    0    0  503  502  0.00000000000E+00  0.00000000000E+00  0.16735004315E+04  0.16735004315E+04  0.00000000000E+00 0.  1.
         21   -1    0    0  501  503 -0.00000000000E+00 -0.00000000000E+00 -0.30659060221E+02  0.30659060221E+02  0.00000000000E+00 0. -1.
          6    1    1    2  501    0 -0.10912951499E+03  0.96858985941E+02  0.74314082124E+03  0.77661650407E+03  0.17200000000E+03 0. -1.
         -6    1    1    2    0  502  0.10912951499E+03 -0.96858985941E+02  0.89970055001E+03  0.92754298762E+03  0.17200000000E+03 0.  1.
</event>
<event>
 4    1  0.4386646E+000  0.2302344E+03  0.7818608E-02  0.1126475E+00
         21   -1    0    0  501  502  0.00000000000E+00  0.00000000000E+00  0.45432978712E+03  0.45432978712E+03  0.00000000000E+00 0. -1.
         21   -1    0    0  502  503 -0.00000000000E+00 -0.00000000000E+00 -0.15559752895E+03  0.15559752895E+03  0.00000000000E+00 0.  1.
          6    1    1    2  501    0  0.11477661712E+03  0.10124330898E+03  0.30189783938E+03  0.37967115359E+03  0.17200000000E+03 0. -1.
         -6    1    1    2    0  503 -0.11477661712E+03 -0.10124330898E+03 -0.31655812020E+01  0.23025616247E+03  0.17200000000E+03 0.  1.
</event>
<event>
 4    1  0.4386646E+000  0.1913111E+03  0.7818608E-02  0.1157284E+00
         21   -1    0    0  501  502  0.00000000000E+00  0.00000000000E+00  0.56561555356E+02  0.56561555356E+02  0.00000000000E+00 0.  1.
         21   -1    0    0  502  503 -0.00000000000E+00 -0.00000000000E+00 -0.68892841221E+03  0.68892841221E+03  0.00000000000E+00 0.  1.
          6    1    1    2  501    0 -0.81244874026E+02  0.20376842644E+02 -0.22431725526E+03  0.29481888725E+03  0.17200000000E+03 0.  1.
         -6    1    1    2    0  503  0.81244874026E+02 -0.20376842644E+02 -0.40804960160E+03  0.45067108032E+03  0.17200000000E+03 0.  1.
</event>
<event>
 4    1  0.4386646E+000  0.1984669E+03  0.7818608E-02  0.1151039E+00
         21   -1    0    0  503  502  0.00000000000E+00  0.00000000000E+00  0.32355441179E+03  0.32355441179E+03  0.00000000000E+00 0. -1.
         21   -1    0    0  501  503 -0.00000000000E+00 -0.00000000000E+00 -0.41697893662E+03  0.41697893662E+03  0.00000000000E+00 0. -1.
          6    1    1    2  501    0 -0.82997220461E+02  0.54005112656E+02 -0.35827488073E+03  0.40957292508E+03  0.17200000000E+03 0. -1.
         -6    1    1    2    0  502  0.82997220461E+02 -0.54005112656E+02  0.26485035589E+03  0.33096042333E+03  0.17200000000E+03 0. -1.
</event>
<event>
 4    1  0.4386646E+000  0.2258825E+03  0.7818608E-02  0.1129572E+00
         21   -1    0    0  501  502  0.00000000000E+00  0.00000000000E+00  0.39154323425E+03  0.39154323425E+03  0.00000000000E+00 0. -1.
         21   -1    0    0  502  503 -0.00000000000E+00 -0.00000000000E+00 -0.15741382682E+03  0.15741382682E+03  0.00000000000E+00 0.  1.
          6    1    1    2  501    0  0.11183958601E+03  0.94502898112E+02  0.23095428541E+03  0.32305227549E+03  0.17200000000E+03 0. -1.
         -6    1    1    2    0  503 -0.11183958601E+03 -0.94502898112E+02  0.31751220162E+01  0.22590478559E+03  0.17200000000E+03 0.  1.
</event>
<event>
 4    1  0.4386646E+000  0.2098761E+03  0.7818608E-02  0.1141664E+00
         21   -1    0    0  503  502  0.00000000000E+00  0.00000000000E+00  0.63852306238E+02  0.63852306238E+02  0.00000000000E+00 0. -1.
         21   -1    0    0  501  503 -0.00000000000E+00 -0.00000000000E+00 -0.72983527449E+03  0.72983527449E+03  0.00000000000E+00 0. -1.
          6    1    1    2  501    0 -0.81214867905E+02  0.88702402063E+02 -0.24009412995E+03  0.31889365334E+03  0.17200000000E+03 0. -1.
         -6    1    1    2    0  502  0.81214867905E+02 -0.88702402063E+02 -0.42588883830E+03  0.47479392739E+03  0.17200000000E+03 0. -1.
</event>
<event>
 4    1  0.4386646E+000  0.2001064E+03  0.7818608E-02  0.1149649E+00
         21   -1    0    0  501  502  0.00000000000E+00  0.00000000000E+00  0.86000383733E+03  0.86000383733E+03  0.00000000000E+00 0.  1.
         21   -1    0    0  502  503 -0.00000000000E+00 -0.00000000000E+00 -0.48205125501E+02  0.48205125501E+02  0.00000000000E+00 0. -1.
          6    1    1    2  501    0  0.67782510187E+01  0.10204236870E+03  0.48976501854E+03  0.52906744662E+03  0.17200000000E+03 0. -1.
         -6    1    1    2    0  503 -0.67782510187E+01 -0.10204236870E+03  0.32203369330E+03  0.37914151621E+03  0.17200000000E+03 0. -1.
</event>
<event>
 4    1  0.4386646E+000  0.2038578E+03  0.7818608E-02  0.1146524E+00
         21   -1    0    0  501  502  0.00000000000E+00  0.00000000000E+00  0.12428030358E+03  0.12428030358E+03  0.00000000000E+00 0.  1.
         21   -1    0    0  502  503 -0.00000000000E+00 -0.00000000000E+00 -0.47467551725E+03  0.47467551725E+03  0.00000000000E+00 0.  1.
          6    1    1    2  501    0  0.18982565216E+02  0.10776672684E+03 -0.12390311305E+02  0.20423399572E+03  0.17200000000E+03 0.  1.
         -6    1    1    2    0  503 -0.18982565216E+02 -0.10776672684E+03 -0.33800490236E+03  0.39472182511E+03  0.17200000000E+03 0.  1.
</event>
<event>
 4    1  0.4386646E+000  0.1851022E+03  0.7818608E-02  0.1162955E+00
         21   -1    0    0  501  502  0.00000000000E+00  0.00000000000E+00  0.46620089933E+02  0.46620089933E+02  0.00000000000E+00 0. -1.
         21   -1    0    0  502  503 -0.00000000000E+00 -0.00000000000E+00 -0.77911324407E+03  0.77911324407E+03  0.00000000000E+00 0. -1.
          6    1    1    2  501    0  0.67740083594E+02 -0.94915346736E+01 -0.26793466933E+03  0.32565594603E+03  0.17200000000E+03 0.  1.
         -6    1    1    2    0  503 -0.67740083594E+02  0.94915346736E+01 -0.46455848481E+03  0.50007738798E+03  0.17200000000E+03 0.  1.
</event>
<event>
 4    1  0.4386646E+000  0.1761477E+03  0.7818608E-02  0.1171584E+00
         21   -1    0    0  503  502  0.00000000000E+00  0.00000000000E+00  0.51638196129E+03  0.51638196129E+03  0.00000000000E+00 0. -1.
         21   -1    0    0  501  503 -0.00000000000E+00 -0.00000000000E+00 -0.71256658277E+02  0.71256658277E+02  0.00000000000E+00 0. -1.
          6    1    1    2  501    0  0.87043302313E+01 -0.36989643331E+02  0.10623534505E+03  0.20570354303E+03  0.17200000000E+03 0. -1.
         -6    1    1    2    0  502 -0.87043302313E+01  0.36989643331E+02  0.33888995796E+03  0.38193507653E+03  0.17200000000E+03 0. -1.
</event>
<event>
 4    1  0.4386646E+000  0.1792453E+03  0.7818608E-02  0.1168535E+00
         21   -1    0    0  501  502  0.00000000000E+00  0.00000000000E+00  0.73316708035E+02  0.73316708035E+02  0.00000000000E+00 0. -1.
         21   -1    0    0  502  503 -0.00000000000E+00 -0.00000000000E+00 -0.44452337067E+03  0.44452337067E+03  0.00000000000E+00 0. -1.
          6    1    1    2  501    0 -0.37051059487E+02  0.34235999982E+02 -0.15477234310E+03  0.23681926208E+03  0.17200000000E+03 0. -1.
         -6    1    1    2    0  503  0.37051059487E+02 -0.34235999982E+02 -0.21643431954E+03  0.28102081663E+03  0.17200000000E+03 0. -1.
</event>
<event>
 4    1  0.4386646E+000  0.2764284E+03  0.7818608E-02  0.1097656E+00
         21   -1    0    0  503  502  0.00000000000E+00  0.00000000000E+00  0.62849068110E+03  0.62849068110E+03  0.00000000000E+00 0.  1.
         21   -1    0    0  501  503 -0.00000000000E+00 -0.00000000000E+00 -0.13090434837E+03  0.13090434837E+03  0.00000000000E+00 0. -1.
          6    1    1    2  501    0  0.88223626085E+02  0.19759876979E+03  0.14746250587E+03  0.31330156824E+03  0.17200000000E+03 0.  1.
         -6    1    1    2    0  502 -0.88223626085E+02 -0.19759876979E+03  0.35012382686E+03  0.44609346123E+03  0.17200000000E+03 0.  1.
</event>
<event>
 4    1  0.4386646E+000  0.1948608E+03  0.7818608E-02  0.1154149E+00
         21   -1    0    0  501  502  0.00000000000E+00  0.00000000000E+00  0.20639374507E+03  0.20639374507E+03  0.00000000000E+00 0. -1.
         21   -1    0    0  502  503 -0.00000000000E+00 -0.00000000000E+00 -0.29235022881E+03  0.29235022881E+03  0.00000000000E+00 0. -1.
          6    1    1    2  501    0 -0.72053865945E+02 -0.56524063681E+02  0.10885483587E+03  0.22320417708E+03  0.17200000000E+03 0. -1.
         -6    1    1    2    0  503  0.72053865945E+02  0.56524063681E+02 -0.19481131961E+03  0.27553979680E+03  0.17200000000E+03 0. -1.
</event>
<event>
 4    1  0.4386646E+000  0.1927100E+03  0.7818608E-02  0.1156040E+00
         21   -1    0    0  501  502  0.00000000000E+00  0.00000000000E+00  0.21127743974E+03  0.21127743974E+03  0.00000000000E+00 0.  1.
         21   -1    0    0  502  503 -0.00000000000E+00 -0.00000000000E+00 -0.21679510965E+03  0.21679510965E+03  0.00000000000E+00 0. -1.
          6    1    1    2  501    0  0.29461641984E+02  0.81762716659E+02  0.90344471528E+02  0.21283621336E+03  0.17200000000E+03 0.  1.
         -6    1    1    2    0  503 -0.29461641984E+02 -0.81762716659E+02 -0.95862141435E+02  0.21523633602E+03  0.17200000000E+03 0.  1.
</event>
<event>
 4    1  0.4386646E+000  0.1839454E+03  0.7818608E-02  0.1164038E+00
         21   -1    0    0  503  502  0.00000000000E+00  0.00000000000E+00  0.22770661890E+03  0.22770661890E+03  0.00000000000E+00 0. -1.
         21   -1    0    0  501  503 -0.00000000000E+00 -0.00000000000E+00 -0.28510046608E+03  0.28510046608E+03  0.00000000000E+00 0.  1.
          6    1    1    2  501    0  0.62329929794E+02 -0.19153963493E+02 -0.20611639057E+03  0.27626049469E+03  0.17200000000E+03 0.  1.
         -6    1    1    2    0  502 -0.62329929794E+02  0.19153963493E+02  0.14872254339E+03  0.23654659029E+03  0.17200000000E+03 0. -1.
</event>
<event>
 4    1  0.4386646E+000  0.1931574E+03  0.7818608E-02  0.1155644E+00
         21   -1    0    0  501  502  0.00000000000E+00  0.00000000000E+00  0.36623684903E+03  0.36623684903E+03  0.00000000000E+00 0. -1.
         21   -1    0    0  502  503 -0.00000000000E+00 -0.00000000000E+00 -0.10891782948E+03  0.10891782948E+03  0.00000000000E+00 0.  1.
          6    1    1    2  501    0  0.76201662353E+02 -0.43807605021E+02  0.18907911505E+03  0.27029744977E+03  0.17200000000E+03 0.  1.
         -6    1    1    2    0  503 -0.76201662353E+02  0.43807605021E+02  0.68239904495E+02  0.20485722874E+03  0.17200000000E+03 0. -1.
</event>
<event>
 4    1  0.4386646E+000  0.1723022E+03  0.7818608E-02  0.1175468E+00
         21   -1    0    0  501  502  0.00000000000E+00  0.00000000000E+00  0.55623789575E+02  0.55623789575E+02  0.00000000000E+00 0. -1.
         21   -1    0    0  502  503 -0.00000000000E+00 -0.00000000000E+00 -0.54810467252E+03  0.54810467252E+03  0.00000000000E+00 0. -1.
          6    1    1    2  501    0 -0.65809867497E+01  0.77932786621E+01 -0.19735383213E+03  0.26198583861E+03  0.17200000000E+03 0.  1.
         -6    1    1    2    0  503  0.65809867497E+01 -0.77932786621E+01 -0.29512705082E+03  0.34174262348E+03  0.17200000000E+03 0.  1.
</event>
<event>
 4    1  0.4386646E+000  0.2578395E+03  0.7818608E-02  0.1108448E+00
         21   -1    0    0  503  502  0.00000000000E+00  0.00000000000E+00  0.23473516380E+03  0.23473516380E+03  0.00000000000E+00 0.  1.
         21   -1    0    0  501  503 -0.00000000000E+00 -0.00000000000E+00 -0.43389564201E+03  0.43389564201E+03  0.00000000000E+00 0. -1.
          6    1    1    2  501    0  0.19102017206E+03 -0.20210907958E+02 -0.29659028631E+03  0.39299743621E+03  0.17200000000E+03 0. -1.
         -6    1    1    2    0  502 -0.19102017206E+03  0.20210907958E+02  0.97429808100E+02  0.27563336961E+03  0.17200000000E+03 0.  1.
</event>
<event>
 4    1  0.4386646E+000  0.1901827E+03  0.7818608E-02  0.1158297E+00
         21   -1    0    0  503  502  0.00000000000E+00  0.00000000000E+00  0.11684385236E+04  0.11684385236E+04  0.00000000000E+00 0.  1.
         21   -1    0    0  501  503 -0.00000000000E+00 -0.00000000000E+00 -0.31019793006E+02  0.31019793006E+02  0.00000000000E+00 0. -1.
          6    1    1    2  501    0  0.30626384300E+02  0.75149639767E+02  0.59604096165E+03  0.62564708241E+03  0.17200000000E+03 0.  1.
         -6    1    1    2    0  502 -0.30626384300E+02 -0.75149639767E+02  0.54137776890E+03  0.57381123415E+03  0.17200000000E+03 0.  1.
</event>
<event>
 4    1  0.4386646E+000  0.2654457E+03  0.7818608E-02  0.1103915E+00
         21   -1    0    0  501  502  0.00000000000E+00  0.00000000000E+00  0.51411081121E+03  0.51411081121E+03  0.00000000000E+00 0.  1.
         21   -1    0    0  502  503 -0.00000000000E+00 -0.00000000000E+00 -0.13713499230E+03  0.13713499230E+03  0.00000000000E+00 0.  1.
          6    1    1    2  501    0  0.88583186174E+02 -0.18174272221E+03  0.18061785586E+03  0.32106729482E+03  0.17200000000E+03 0.  1.
         -6    1    1    2    0  503 -0.88583186174E+02  0.18174272221E+03  0.19635796306E+03  0.33017850869E+03  0.17200000000E+03 0.  1.
</event>
<event>
 4    1  0.4386646E+000  0.2151749E+03  0.7818608E-02  0.1137532E+00
         21   -1    0    0  501  502  0.00000000000E+00  0.00000000000E+00  0.61009779082E+02  0.61009779082E+02  0.00000000000E+00 0. -1.
         21   -1    0    0  502  503 -0.00000000000E+00 -0.00000000000E+00 -0.77738845610E+03  0.77738845610E+03  0.00000000000E+00 0.  1.
          6    1    1    2  501    0 -0.65472312554E+02 -0.11148819016E+03 -0.29353952903E+03  0.36395837037E+03  0.17200000000E+03 0. -1.
         -6    1    1    2    0  503  0.65472312554E+02  0.11148819016E+03 -0.42283914798E+03  0.47443986481E+03  0.17200000000E+03 0. -1.
</event>
<event>
 4    1  0.4386646E+000  0.1794135E+03  0.7818608E-02  0.1168372E+00
         21   -1    0    0  503  502  0.00000000000E+00  0.00000000000E+00  0.38193013771E+02  0.38193013771E+02  0.00000000000E+00 0. -1.
         21   -1    0    0  501  503 -0.00000000000E+00 -0.00000000000E+00 -0.90695772357E+03  0.90695772357E+03  0.00000000000E+00 0.  1.
          6    1    1    2  501    0  0.46102024978E+02 -0.21904412268E+02 -0.56006945080E+03  0.58810457379E+03  0.17200000000E+03 0.  1.
         -6    1    1    2    0  502 -0.46102024978E+02  0.21904412268E+02 -0.30869525900E+03  0.35704616356E+03  0.17200000000E+03 0. -1.
</event>
<event>
 4    1  0.4386646E+000  0.2868198E+03  0.7818608E-02  0.1092021E+00
         21   -1    0    0  501  502  0.00000000000E+00  0.00000000000E+00  0.28656458211E+03  0.28656458211E+03  0.00000000000E+00 0. -1.
         21   -1    0    0  502  503 -0.00000000000E+00 -0.00000000000E+00 -0.39222986269E+03  0.39222986269E+03  0.00000000000E+00 0.  1.
          6    1    1    2  501    0 -0.42403169911E+02 -0.22557387134E+03  0.12289986933E+03  0.31204162885E+03  0.17200000000E+03 0. -1.
         -6    1    1    2    0  503  0.42403169911E+02  0.22557387134E+03 -0.22856514992E+03  0.36675281595E+03  0.17200000000E+03 0.  1.
</event>
<event>
 4    1  0.4386646E+000  0.2160485E+03  0.7818608E-02  0.1136864E+00
         21   -1    0    0  503  502  0.00000000000E+00  0.00000000000E+00  0.47545206006E+02  0.47545206006E+02  0.00000000000E+00 0. -1.
         21   -1    0    0  501  503 -0.00000000000E+00 -0.00000000000E+00 -0.98924560306E+03  0.98924560306E+03  0.00000000000E+00 0.  1.
          6    1    1    2  501    0  0.11698440240E+02 -0.13021554237E+03 -0.42568994523E+03  0.47737707365E+03  0.17200000000E+03 0. -1.
         -6    1    1    2    0  502 -0.11698440240E+02  0.13021554237E+03 -0.51601045182E+03  0.55941373541E+03  0.17200000000E+03 0.  1.
</event>
<event>
 4    1  0.4386646E+000  0.1818971E+03  0.7818608E-02  0.1165980E+00
         21   -1    0    0  501  502  0.00000000000E+00  0.00000000000E+00  0.69755640008E+03  0.69755640008E+03  0.00000000000E+00 0. -1.
         21   -1    0    0  502  503 -0.00000000000E+00 -0.00000000000E+00 -0.89830502251E+02  0.89830502251E+02  0.00000000000E+00 0. -1.
          6    1    1    2  501    0  0.59549443720E+01 -0.58881914011E+02  0.57433425402E+03  0.60245031040E+03  0.17200000000E+03 0. -1.
         -6    1    1    2    0  503 -0.59549443720E+01  0.58881914011E+02  0.33391643812E+02  0.18493659194E+03  0.17200000000E+03 0. -1.
</event>
<event>
 4    1  0.4386646E+000  0.1821389E+03  0.7818608E-02  0.1165749E+00
         21   -1    0    0  501  502  0.00000000000E+00  0.00000000000E+00  0.20126412729E+03  0.20126412729E+03  0.00000000000E+00 0.  1.
         21   -1    0    0  502  503 -0.00000000000E+00 -0.00000000000E+00 -0.18897290407E+03  0.18897290407E+03  0.00000000000E+00 0.  1.
          6    1    1    2  501    0 -0.55036245370E+02  0.23697808809E+02  0.75885967357E+02  0.19731511470E+03  0.17200000000E+03 0.  1.
         -6    1    1    2    0  503  0.55036245370E+02 -0.23697808809E+02 -0.63594744135E+02  0.19292191666E+03  0.17200000000E+03 0.  1.
</event>
<event>
 4    1  0.4386646E+000  0.1865372E+03  0.7818608E-02  0.1161622E+00
         21   -1    0    0  501  502  0.00000000000E+00  0.00000000000E+00  0.14714523459E+04  0.14714523459E+04  0.00000000000E+00 0. -1.
         21   -1    0    0  502  503 -0.00000000000E+00 -0.00000000000E+00 -0.38790688164E+02  0.38790688164E+02  0.00000000000E+00 0.  1.
          6    1    1    2  501    0  0.39053723795E+02  0.60720036470E+02  0.11881355486E+04  0.12026895684E+04  0.17200000000E+03 0. -1.
         -6    1    1    2    0  503 -0.39053723795E+02 -0.60720036470E+02  0.24452610913E+03  0.30755346562E+03  0.17200000000E+03 0.  1.
</event>
<event>
 4    1  0.4386646E+000  0.4525883E+03  0.7818608E-02  0.1026953E+00
         21   -1    0    0  503  502  0.00000000000E+00  0.00000000000E+00  0.20063250827E+03  0.20063250827E+03  0.00000000000E+00 0. -1.
         21   -1    0    0  501  503 -0.00000000000E+00 -0.00000000000E+00 -0.14079589154E+04  0.14079589154E+04  0.00000000000E+00 0. -1.
          6    1    1    2  501    0 -0.67101861819E+02 -0.41321848839E+03 -0.10253403588E+04  0.11207850063E+04  0.17200000000E+03 0. -1.
         -6    1    1    2    0  502  0.67101861819E+02  0.41321848839E+03 -0.18198604832E+03  0.48780641733E+03  0.17200000000E+03 0. -1.
</event>
<event>
 4    1  0.4386646E+000  0.2624911E+03  0.7818608E-02  0.1105656E+00
         21   -1    0    0  503  502  0.00000000000E+00  0.00000000000E+00  0.76650916328E+02  0.76650916328E+02  0.00000000000E+00 0. -1.
         21   -1    0    0  501  503 -0.00000000000E+00 -0.00000000000E+00 -0.15064241297E+04  0.15064241297E+04  0.00000000000E+00 0.  1.
          6    1    1    2  501    0 -0.68359779327E+02  0.18613031702E+03 -0.12175525118E+04  0.12455262636E+04  0.17200000000E+03 0.  1.
         -6    1    1    2    0  502  0.68359779327E+02 -0.18613031702E+03 -0.21222070160E+03  0.33754878245E+03  0.17200000000E+03 0. -1.
</event>
<event>
 4    1  0.4386646E+000  0.1964942E+03  0.7818608E-02  0.1152731E+00
         21   -1    0    0  501  502  0.00000000000E+00  0.00000000000E+00  0.17295070840E+03  0.17295070840E+03  0.00000000000E+00 0.  1.
         21   -1    0    0  502  503 -0.00000000000E+00 -0.00000000000E+00 -0.79903967835E+03  0.79903967835E+03  0.00000000000E+00 0.  1.
          6    1    1    2  501    0 -0.50809648139E+02  0.80276589158E+02  0.99511186282E+02  0.22025536839E+03  0.17200000000E+03 0.  1.
         -6    1    1    2    0  503  0.50809648139E+02 -0.80276589158E+02 -0.72560015623E+03  0.75173501836E+03  0.17200000000E+03 0.  1.
</event>
<event>
 4    1  0.4386646E+000  0.2297337E+03  0.7818608E-02  0.1126827E+00
         21   -1    0    0  501  502  0.00000000000E+00  0.00000000000E+00  0.47456138558E+03  0.47456138558E+03  0.00000000000E+00 0. -1.
         21   -1    0    0  502  503 -0.00000000000E+00 -0.00000000000E+00 -0.17818424531E+03  0.17818424531E+03  0.00000000000E+00 0.  1.
          6    1    1    2  501    0  0.15191204424E+03 -0.10784319459E+02  0.34827715659E+03  0.41722242094E+03  0.17200000000E+03 0. -1.
         -6    1    1    2    0  503 -0.15191204424E+03  0.10784319459E+02 -0.51900016326E+02  0.23552320995E+03  0.17200000000E+03 0.  1.
</event>
<event>
 4    1  0.4386646E+000  0.2043312E+03  0.7818608E-02  0.1146135E+00
         21   -1    0    0  503  502  0.00000000000E+00  0.00000000000E+00  0.25656346020E+03  0.25656346020E+03  0.00000000000E+00 0.  1.
         21   -1    0    0  501  503 -0.00000000000E+00 -0.00000000000E+00 -0.16382186913E+03  0.16382186913E+03  0.00000000000E+00 0.  1.
          6    1    1    2  501    0 -0.87682354522E+02  0.66925679984E+02  0.63510245846E+02  0.21397381443E+03  0.17200000000E+03 0.  1.
         -6    1    1    2    0  502  0.87682354522E+02 -0.66925679984E+02  0.29231345223E+02  0.20641151489E+03  0.17200000000E+03 0.  1.
</event>
<event>
 4    1  0.4386646E+000  0.2285047E+03  0.7818608E-02  0.1127697E+00
         21   -1    0    0  501  502  0.00000000000E+00  0.00000000000E+00  0.57691839667E+03  0.57691839667E+03  0.00000000000E+00 0.  1.
         21   -1    0    0  502  503 -0.00000000000E+00 -0.00000000000E+00 -0.90547046454E+02  0.90547046454E+02  0.00000000000E+00 0.  1.
          6    1    1    2  501    0  0.65619848179E+02 -0.13536778092E+03  0.25031758396E+03  0.33892962901E+03  0.17200000000E+03 0.  1.
         -6    1    1    2    0  503 -0.65619848179E+02  0.13536778092E+03  0.23605376625E+03  0.32853581410E+03  0.17200000000E+03 0.  1.
</event>
<event>
 4    1  0.4386646E+000  0.1768668E+03  0.7818608E-02  0.1170870E+00
         21   -1    0    0  501  502  0.00000000000E+00  0.00000000000E+00  0.13023229945E+03  0.13023229945E+03  0.00000000000E+00 0. -1.
         21   -1    0    0  502  503 -0.00000000000E+00 -0.00000000000E+00 -0.24648544743E+03  0.24648544743E+03  0.00000000000E+00 0. -1.
          6    1    1    2  501    0 -0.12199290701E+02 -0.39357802091E+02 -0.28049029894E+02  0.17907709892E+03  0.17200000000E+03 0. -1.
         -6    1    1    2    0  503  0.12199290701E+02  0.39357802091E+02 -0.88204118083E+02  0.19764064796E+03  0.17200000000E+03 0. -1.
</event>
<event>
 4    1  0.4386646E+000  0.1985665E+03  0.7818608E-02  0.1150954E+00
         21   -1    0    0  503  502  0.00000000000E+00  0.00000000000E+00  0.12152669164E+03  0.12152669164E+03  0.00000000000E+00 0. -1.
         21   -1    0    0  501  503 -0.00000000000E+00 -0.00000000000E+00 -0.33380781035E+03  0.33380781035E+03  0.00000000000E+00 0. -1.
          6    1    1    2  501    0 -0.10884812938E+02  0.98621314939E+02 -0.14427097737E+03  0.24544400140E+03  0.17200000000E+03 0. -1.
         -6    1    1    2    0  502  0.10884812938E+02 -0.98621314939E+02 -0.68010141339E+02  0.20989050059E+03  0.17200000000E+03 0. -1.
</event>
<event>
 4    1  0.4386646E+000  0.2844121E+03  0.7818608E-02  0.1093303E+00
         21   -1    0    0  503  502  0.00000000000E+00  0.00000000000E+00  0.12551233575E+03  0.12551233575E+03  0.00000000000E+00 0.  1.
         21   -1    0    0  501  503 -0.00000000000E+00 -0.00000000000E+00 -0.10157557637E+04  0.10157557637E+04  0.00000000000E+00 0. -1.
          6    1    1    2  501    0  0.17374107134E+03 -0.14532828520E+03 -0.79011525241E+03  0.83974542716E+03  0.17200000000E+03 0. -1.
         -6    1    1    2    0  502 -0.17374107134E+03  0.14532828520E+03 -0.10012817550E+03  0.30152267225E+03  0.17200000000E+03 0.  1.
</event>
<event>
 4    1  0.4386646E+000  0.2038724E+03  0.7818608E-02  0.1146512E+00
         21   -1    0    0  503  502  0.00000000000E+00  0.00000000000E+00  0.22161324713E+03  0.22161324713E+03  0.00000000000E+00 0. -1.
         21   -1    0    0  501  503 -0.00000000000E+00 -0.00000000000E+00 -0.26491623980E+03  0.26491623980E+03  0.00000000000E+00 0. -1.
          6    1    1    2  501    0  0.15401496815E+02  0.10836392734E+03 -0.15311214837E+03  0.25496524632E+03  0.17200000000E+03 0. -1.
         -6    1    1    2    0  502 -0.15401496815E+02 -0.10836392734E+03  0.10980915571E+03  0.23156424061E+03  0.17200000000E+03 0. -1.
</event>
<event>
 4    1  0.4386646E+000  0.1803835E+03  0.7818608E-02  0.1167432E+00
         21   -1    0    0  501  502  0.00000000000E+00  0.00000000000E+00  0.44996448195E+03  0.44996448195E+03  0.00000000000E+00 0.  1.
         21   -1    0    0  502  503 -0.00000000000E+00 -0.00000000000E+00 -0.81728707484E+02  0.81728707484E+02  0.00000000000E+00 0.  1.
          6    1    1    2  501    0 -0.18117097761E+02 -0.51244347703E+02  0.27435263549E+03  0.32834064781E+03  0.17200000000E+03 0.  1.
         -6    1    1    2    0  503  0.18117097761E+02  0.51244347703E+02  0.93883138983E+02  0.20335254163E+03  0.17200000000E+03 0.  1.
</event>
<event>
 4    1  0.4386646E+000  0.1943728E+03  0.7818608E-02  0.1154575E+00
         21   -1    0    0  503  502  0.00000000000E+00  0.00000000000E+00  0.33340438377E+03  0.33340438377E+03  0.00000000000E+00 0. -1.
         21   -1    0    0  501  503 -0.00000000000E+00 -0.00000000000E+00 -0.15079736069E+03  0.15079736069E+03  0.00000000000E+00 0. -1.
          6    1    1    2  501    0 -0.82153709040E+02  0.38046903607E+02 -0.29392846738E+02  0.19658264985E+03  0.17200000000E+03 0. -1.
         -6    1    1    2    0  502  0.82153709040E+02 -0.38046903607E+02  0.21199986981E+03  0.28761909461E+03  0.17200000000E+03 0. -1.
</event>
<event>
 4    1  0.4386646E+000  0.1884019E+03  0.7818608E-02  0.1159911E+00
         21   -1    0    0  503  502  0.00000000000E+00  0.00000000000E+00  0.17396406538E+03  0.17396406538E+03  0.00000000000E+00 0. -1.
         21   -1    0    0  501  503 -0.00000000000E+00 -0.00000000000E+00 -0.25675069517E+03  0.25675069517E+03  0.00000000000E+00 0. -1.
          6    1    1    2  501    0 -0.15985279014E+02  0.75204776449E+02 -0.13897344148E+03  0.23411301754E+03  0.17200000000E+03 0. -1.
         -6    1    1    2    0  502  0.15985279014E+02 -0.75204776449E+02  0.56186811696E+02  0.19660174301E+03  0.17200000000E+03 0. -1.
</event>
<event>
 4    1  0.4386646E+000  0.1960461E+03  0.7818608E-02  0.1153118E+00
         21   -1    0    0  501  502  0.00000000000E+00  0.00000000000E+00  0.18369891885E+04  0.18369891885E+04  0.00000000000E+00 0. -1.
         21   -1    0    0  502  503 -0.00000000000E+00 -0.00000000000E+00 -0.22526507758E+02  0.22526507758E+02  0.00000000000E+00 0. -1.
          6    1    1    2  501    0  0.67619481040E+02 -0.65403900602E+02  0.11553453820E+04  0.11718604934E+04  0.17200000000E+03 0. -1.
         -6    1    1    2    0  503 -0.67619481040E+02  0.65403900602E+02  0.65911729873E+03  0.68765520279E+03  0.17200000000E+03 0. -1.
</event>
<event>
 4    1  0.4386646E+000  0.2761430E+03  0.7818608E-02  0.1097814E+00
         21   -1    0    0  503  502  0.00000000000E+00  0.00000000000E+00  0.56354215624E+02  0.56354215624E+02  0.00000000000E+00 0. -1.
         21   -1    0    0  501  503 -0.00000000000E+00 -0.00000000000E+00 -0.15262260501E+04  0.15262260501E+04  0.00000000000E+00 0. -1.
          6    1    1    2  501    0 -0.16237818735E+02 -0.21542354526E+03 -0.10014138178E+04  0.10387899716E+04  0.17200000000E+03 0. -1.
         -6    1    1    2    0  502  0.16237818735E+02  0.21542354526E+03 -0.46845801674E+03  0.54379029419E+03  0.17200000000E+03 0. -1.
</event>
<event>
 4    1  0.4386646E+000  0.1945460E+03  0.7818608E-02  0.1154424E+00
         21   -1    0    0  503  502  0.00000000000E+00  0.00000000000E+00  0.76751844168E+03  0.76751844168E+03  0.00000000000E+00 0.  1.
         21   -1    0    0  501  503 -0.00000000000E+00 -0.00000000000E+00 -0.91650602394E+02  0.91650602394E+02  0.00000000000E+00 0.  1.
          6    1    1    2  501    0  0.10497413868E+02 -0.90299132443E+02  0.45957695862E+02  0.19990057235E+03  0.17200000000E+03 0.  1.
         -6    1    1    2    0  502 -0.10497413868E+02  0.90299132443E+02  0.62991014343E+03  0.65926847172E+03  0.17200000000E+03 0.  1.
</event>
<event>
 4    1  0.4386646E+000  0.2464889E+03  0.7818608E-02  0.1115544E+00
         21   -1    0    0  503  502  0.00000000000E+00  0.00000000000E+00  0.14914845937E+03  0.14914845937E+03  0.00000000000E+00 0. -1.
         21   -1    0    0  501  503 -0.00000000000E+00 -0.00000000000E+00 -0.42498586004E+03  0.42498586004E+03  0.00000000000E+00 0.  1.
          6    1    1    2  501    0 -0.74519004066E+02 -0.16006155461E+03 -0.79453297057E+02  0.25897800996E+03  0.17200000000E+03 0. -1.
         -6    1    1    2    0  502  0.74519004066E+02  0.16006155461E+03 -0.19638410361E+03  0.31515630944E+03  0.17200000000E+03 0. -1.
</event>
<event>
 4    1  0.4386646E+000  0.3249851E+03  0.7818608E-02  0.1073378E+00
         21   -1    0    0  503  502  0.00000000000E+00  0.00000000000E+00  0.18883582069E+03  0.18883582069E+03  0.00000000000E+00 0.  1.
         21   -1    0    0  501  503 -0.00000000000E+00 -0.00000000000E+00 -0.56466467492E+03  0.56466467492E+03  0.00000000000E+00 0.  1.
          6    1    1    2  501    0 -0.23694673005E+03  0.14102335119E+03 -0.15118240692E+03  0.35842915426E+03  0.17200000000E+03 0.  1.
         -6    1    1    2    0  502  0.23694673005E+03 -0.14102335119E+03 -0.22464644731E+03  0.39507134134E+03  0.17200000000E+03 0.  1.
</event>
<event>
 4    1  0.4386646E+000  0.1818872E+03  0.7818608E-02  0.1165989E+00
         21   -1    0    0  503  502  0.00000000000E+00  0.00000000000E+00  0.33009260883E+03  0.33009260883E+03  0.00000000000E+00 0.  1.
         21   -1    0    0  501  503 -0.00000000000E+00 -0.00000000000E+00 -0.15389854796E+03  0.15389854796E+03  0.00000000000E+00 0.  1.
          6    1    1    2  501    0  0.25761349471E+02  0.53247753082E+02 -0.54817768369E+02  0.18996830805E+03  0.17200000000E+03 0.  1.
         -6    1    1    2    0  502 -0.25761349471E+02 -0.53247753082E+02  0.23101182924E+03  0.29402284875E+03  0.17200000000E+03 0.  1.
</event>
<event>
 4    1  0.4386646E+000  0.1991951E+03  0.7818608E-02  0.1150420E+00
         21   -1    0    0  501  502  0.00000000000E+00  0.00000000000E+00  0.46130629409E+03  0.46130629409E+03  0.00000000000E+00 0. -1.
         21   -1    0    0  502  503 -0.00000000000E+00 -0.00000000000E+00 -0.95412628790E+02  0.95412628790E+02  0.00000000000E+00 0. -1.
          6    1    1    2  501    0 -0.51284723040E+02  0.86397682396E+02  0.27031257611E+03  0.33577905108E+03  0.17200000000E+03 0. -1.
         -6    1    1    2    0  503  0.51284723040E+02 -0.86397682396E+02  0.95581089190E+02  0.22093987180E+03  0.17200000000E+03 0. -1.
</event>
<event>
 4    1  0.4386646E+000  0.2176642E+03  0.7818608E-02  0.1135637E+00
         21   -1    0    0  501  502  0.00000000000E+00  0.00000000000E+00  0.17456643816E+03  0.17456643816E+03  0.00000000000E+00 0.  1.
         21   -1    0    0  502  503 -0.00000000000E+00 -0.00000000000E+00 -0.33005451684E+03  0.33005451684E+03  0.00000000000E+00 0.  1.
          6    1    1    2  501    0  0.95107761406E+01  0.13305362707E+03 -0.18410564356E+03  0.28508351501E+03  0.17200000000E+03 0.  1.
         -6    1    1    2    0  503 -0.95107761406E+01 -0.13305362707E+03  0.28617564886E+02  0.21953743999E+03  0.17200000000E+03 0.  1.
</event>
<event>
 4    1  0.4386646E+000  0.3981412E+03  0.7818608E-02  0.1044425E+00
         21   -1    0    0  501  502  0.00000000000E+00  0.00000000000E+00  0.56274018611E+03  0.56274018611E+03  0.00000000000E+00 0.  1.
         21   -1    0    0  502  503 -0.00000000000E+00 -0.00000000000E+00 -0.29757757351E+03  0.29757757351E+03  0.00000000000E+00 0. -1.
          6    1    1    2  501    0 -0.32215369798E+02 -0.35762348569E+03  0.23198524930E+03  0.46079664003E+03  0.17200000000E+03 0. -1.
         -6    1    1    2    0  503  0.32215369798E+02  0.35762348569E+03  0.33177363292E+02  0.39952111959E+03  0.17200000000E+03 0.  1.
</event>
<event>
 4    1  0.4386646E+000  0.1843145E+03  0.7818608E-02  0.1163692E+00
         21   -1    0    0  503  502  0.00000000000E+00  0.00000000000E+00  0.40322505057E+03  0.40322505057E+03  0.00000000000E+00 0. -1.
         21   -1    0    0  501  503 -0.00000000000E+00 -0.00000000000E+00 -0.15060409797E+03  0.15060409797E+03  0.00000000000E+00 0. -1.
          6    1    1    2  501    0  0.93247376276E+01 -0.65581185065E+02  0.31011670404E+03  0.36075505914E+03  0.17200000000E+03 0. -1.
         -6    1    1    2    0  502 -0.93247376276E+01  0.65581185065E+02 -0.57495751441E+02  0.19307408941E+03  0.17200000000E+03 0. -1.
</event>
<event>
 4    1  0.4386646E+000  0.2158596E+03  0.7818608E-02  0.1137008E+00
         21   -1    0    0  501  502  0.00000000000E+00  0.00000000000E+00  0.12360634471E+03  0.12360634471E+03  0.00000000000E+00 0. -1.
         21   -1    0    0  502  503 -0.00000000000E+00 -0.00000000000E+00 -0.66688346160E+03  0.66688346160E+03  0.00000000000E+00 0. -1.
          6    1    1    2  501    0  0.92496790898E+02  0.91955007341E+02 -0.11036075182E+02  0.21614156161E+03  0.17200000000E+03 0. -1.
         -6    1    1    2    0  503 -0.92496790898E+02 -0.91955007341E+02 -0.53224104171E+03  0.57434824470E+03  0.17200000000E+03 0. -1.
</event>
<event>
 4    1  0.4386646E+000  0.1722066E+03  0.7818608E-02  0.1175566E+00
         21   -1    0    0  503  502  0.00000000000E+00  0.00000000000E+00  0.15801772360E+03  0.15801772360E+03  0.00000000000E+00 0.  1.
         21   -1    0    0  501  503 -0.00000000000E+00 -0.00000000000E+00 -0.24848292277E+03  0.24848292277E+03  0.00000000000E+00 0.  1.
          6    1    1    2  501    0 -0.79423280391E+01  0.28347677464E+01  0.55317495358E+02  0.18087327546E+03  0.17200000000E+03 0. -1.
         -6    1    1    2    0  502  0.79423280391E+01 -0.28347677464E+01 -0.14578269452E+03  0.22562737091E+03  0.17200000000E+03 0. -1.
</event>
<event>
 4    1  0.4386646E+000  0.4364221E+03  0.7818608E-02  0.1031850E+00
         21   -1    0    0  501  502  0.00000000000E+00  0.00000000000E+00  0.10225382962E+04  0.10225382962E+04  0.00000000000E+00 0. -1.
         21   -1    0    0  502  503 -0.00000000000E+00 -0.00000000000E+00 -0.45835873751E+03  0.45835873751E+03  0.00000000000E+00 0.  1.
          6    1    1    2  501    0 -0.15003759235E+03 -0.37197982010E+03  0.85258297678E+03  0.95779016386E+03  0.17200000000E+03 0. -1.
         -6    1    1    2    0  503  0.15003759235E+03  0.37197982010E+03 -0.28840341812E+03  0.52310686982E+03  0.17200000000E+03 0.  1.
</event>
<event>
 4    1  0.4386646E+000  0.1905202E+03  0.7818608E-02  0.1157993E+00
         21   -1    0    0  501  502  0.00000000000E+00  0.00000000000E+00  0.16477293205E+03  0.16477293205E+03  0.00000000000E+00 0. -1.
         21   -1    0    0  502  503 -0.00000000000E+00 -0.00000000000E+00 -0.91612058605E+03  0.91612058605E+03  0.00000000000E+00 0. -1.
          6    1    1    2  501    0  0.72170276824E+02  0.38799514414E+02  0.95333997786E+02  0.21304112821E+03  0.17200000000E+03 0. -1.
         -6    1    1    2    0  503 -0.72170276824E+02 -0.38799514414E+02 -0.84668165178E+03  0.86785238989E+03  0.17200000000E+03 0. -1.
</event>
<event>
 4    1  0.4386646E+000  0.2097222E+03  0.7818608E-02  0.1141786E+00
         21   -1    0    0  501  502  0.00000000000E+00  0.00000000000E+00  0.26083954114E+02  0.26083954114E+02  0.00000000000E+00 0.  1.
         21   -1    0    0  502  503 -0.00000000000E+00 -0.00000000000E+00 -0.32387492018E+04  0.32387492018E+04  0.00000000000E+00 0.  1.
          6    1    1    2  501    0 -0.85880595556E+02  0.83808802486E+02 -0.47611610011E+03  0.52025948607E+03  0.17200000000E+03 0.  1.
         -6    1    1    2    0  503  0.85880595556E+02 -0.83808802486E+02 -0.27365491476E+04  0.27445736698E+04  0.17200000000E+03 0.  1.
</event>
<event>
 4    1  0.4386646E+000  0.2947888E+03  0.7818608E-02  0.1087875E+00
         21   -1    0    0  503  502  0.00000000000E+00  0.00000000000E+00  0.61285745612E+03  0.61285745612E+03  0.00000000000E+00 0.  1.
         21   -1    0    0  501  503 -0.00000000000E+00 -0.00000000000E+00 -0.15233356585E+03  0.15233356585E+03  0.00000000000E+00 0.  1.
          6    1    1    2  501    0 -0.63576528412E+02  0.23081262523E+03  0.33089069230E+03  0.44315809051E+03  0.17200000000E+03 0.  1.
         -6    1    1    2    0  502  0.63576528412E+02 -0.23081262523E+03  0.12963319797E+03  0.32203293146E+03  0.17200000000E+03 0.  1.
</event>
<event>
 4    1  0.4386646E+000  0.2050468E+03  0.7818608E-02  0.1145550E+00
         21   -1    0    0  501  502  0.00000000000E+00  0.00000000000E+00  0.99754129908E+02  0.99754129908E+02  0.00000000000E+00 0.  1.
         21   -1    0    0  502  503 -0.00000000000E+00 -0.00000000000E+00 -0.43112195018E+03  0.43112195018E+03  0.00000000000E+00 0.  1.
          6    1    1    2  501    0  0.87324395496E+02  0.69531656168E+02 -0.12598452497E+03  0.24065805989E+03  0.17200000000E+03 0.  1.
         -6    1    1    2    0  503 -0.87324395496E+02 -0.69531656168E+02 -0.20538329530E+03  0.29021802020E+03  0.17200000000E+03 0.  1.
</event>
<event>
 4    1  0.4386646E+000  0.1997482E+03  0.7818608E-02  0.1149952E+00
         21   -1    0    0  503  502  0.00000000000E+00  0.00000000000E+00  0.90789369608E+02  0.90789369608E+02  0.00000000000E+00 0.  1.
         21   -1    0    0  501  503 -0.00000000000E+00 -0.00000000000E+00 -0.44818979887E+03  0.44818979887E+03  0.00000000000E+00 0.  1.
          6    1    1    2  501    0  0.21658754720E+02  0.99228169436E+02 -0.14111393025E+03  0.24456588596E+03  0.17200000000E+03 0.  1.
         -6    1    1    2    0  502 -0.21658754720E+02 -0.99228169436E+02 -0.21628649901E+03  0.29441328252E+03  0.17200000000E+03 0.  1.
</event>
<event>
 4    1  0.4386646E+000  0.1957165E+03  0.7818608E-02  0.1153404E+00
         21   -1    0    0  503  502  0.00000000000E+00  0.00000000000E+00  0.54081311004E+03  0.54081311004E+03  0.00000000000E+00 0. -1.
         21   -1    0    0  501  503 -0.00000000000E+00 -0.00000000000E+00 -0.14266101909E+03  0.14266101909E+03  0.00000000000E+00 0.  1.
          6    1    1    2  501    0 -0.63645768312E+02  0.68338520436E+02 -0.43417519874E+02  0.20047448274E+03  0.17200000000E+03 0.  1.
         -6    1    1    2    0  502  0.63645768312E+02 -0.68338520436E+02  0.44156961083E+03  0.48299964638E+03  0.17200000000E+03 0. -1.
</event>
<event>
 4    1  0.4386646E+000  0.1932727E+03  0.7818608E-02  0.1155542E+00
         21   -1    0    0  501  502  0.00000000000E+00  0.00000000000E+00  0.38671853564E+03  0.38671853564E+03  0.00000000000E+00 0.  1.
         21   -1    0    0  502  503 -0.00000000000E+00 -0.00000000000E+00 -0.10118510871E+03  0.10118510871E+03  0.00000000000E+00 0.  1.
          6    1    1    2  501    0 -0.47992651178E+02 -0.73939543090E+02  0.19473592022E+03  0.27436550298E+03  0.17200000000E+03 0.  1.
         -6    1    1    2    0  503  0.47992651178E+02  0.73939543090E+02  0.90797506706E+02  0.21353814138E+03  0.17200000000E+03 0.  1.
</event>
<event>
 4    1  0.4386646E+000  0.2948103E+03  0.7818608E-02  0.1087864E+00
         21   -1    0    0  503  502  0.00000000000E+00  0.00000000000E+00  0.46798768635E+03  0.46798768635E+03  0.00000000000E+00 0. -1.
         21   -1    0    0  501  503 -0.00000000000E+00 -0.00000000000E+00 -0.18583101863E+03  0.18583101863E+03  0.00000000000E+00 0.  1.
          6    1    1    2  501    0  0.23868745444E+03 -0.18905455054E+02  0.14918745678E+03  0.33040885944E+03  0.17200000000E+03 0.  1.
         -6    1    1    2    0  502 -0.23868745444E+03  0.18905455054E+02  0.13296921094E+03  0.32340984555E+03  0.17200000000E+03 0. -1.
</event>
<event>
 4    1  0.4386646E+000  0.1869654E+03  0.7818608E-02  0.1161227E+00
         21   -1    0    0  501  502  0.00000000000E+00  0.00000000000E+00  0.52509887954E+03  0.52509887954E+03  0.00000000000E+00 0.  1.
         21   -1    0    0  502  503 -0.00000000000E+00 -0.00000000000E+00 -0.14267403962E+03  0.14267403962E+03  0.00000000000E+00 0.  1.
          6    1    1    2  501    0 -0.33971296393E+02  0.64946199054E+02  0.43506590043E+03  0.47353816686E+03  0.17200000000E+03 0.  1.
         -6    1    1    2    0  503  0.33971296393E+02 -0.64946199054E+02 -0.52641060520E+02  0.19423475230E+03  0.17200000000E+03 0.  1.
</event>
<event>
 4    1  0.4386646E+000  0.1768151E+03  0.7818608E-02  0.1170922E+00
         21   -1    0    0  503  502  0.00000000000E+00  0.00000000000E+00  0.26776484644E+03  0.26776484644E+03  0.00000000000E+00 0. -1.
         21   -1    0    0  501  503 -0.00000000000E+00 -0.00000000000E+00 -0.14972740273E+03  0.14972740273E+03  0.00000000000E+00 0. -1.
          6    1    1    2  501    0 -0.36729374132E+02  0.18180271381E+02 -0.38936194162E+02  0.18105136400E+03  0.17200000000E+03 0. -1.
         -6    1    1    2    0  502  0.36729374132E+02 -0.18180271381E+02  0.15697363787E+03  0.23644088517E+03  0.17200000000E+03 0. -1.
</event>
<event>
 4    1  0.4386646E+000  0.2264879E+03  0.7818608E-02  0.1129136E+00
         21   -1    0    0  503  502  0.00000000000E+00  0.00000000000E+00  0.13296812359E+04  0.13296812359E+04  0.00000000000E+00 0. -1.
         21   -1    0    0  501  503 -0.00000000000E+00 -0.00000000000E+00 -0.59916170975E+02  0.59916170975E+02  0.00000000000E+00 0.  1.
          6    1    1    2  501    0 -0.13636795653E+02  0.14672021804E+03  0.22025040257E+03  0.31592249747E+03  0.17200000000E+03 0.  1.
         -6    1    1    2    0  502  0.13636795653E+02 -0.14672021804E+03  0.10495146624E+04  0.10736749094E+04  0.17200000000E+03 0. -1.
</event>
<event>
 4    1  0.4386646E+000  0.2012300E+03  0.7818608E-02  0.1148705E+00
         21   -1    0    0  503  502  0.00000000000E+00  0.00000000000E+00  0.43680457975E+03  0.43680457975E+03  0.00000000000E+00 0. -1.
         21   -1    0    0  501  503 -0.00000000000E+00 -0.00000000000E+00 -0.12739173185E+03  0.12739173185E+03  0.00000000000E+00 0.  1.
          6    1    1    2  501    0  0.10343857954E+03  0.14489895874E+02  0.75029434994E+01  0.20136978667E+03  0.17200000000E+03 0.  1.
         -6    1    1    2    0  502 -0.10343857954E+03 -0.14489895874E+02  0.30190990440E+03  0.36282652493E+03  0.17200000000E+03 0. -1.
</event>
<event>
 4    1  0.4386646E+000  0.2597538E+03  0.7818608E-02  0.1107291E+00
         21   -1    0    0  501  502  0.00000000000E+00  0.00000000000E+00  0.46528699373E+03  0.46528699373E+03  0.00000000000E+00 0. -1.
         21   -1    0    0  502  503 -0.00000000000E+00 -0.00000000000E+00 -0.20742695518E+03  0.20742695518E+03  0.00000000000E+00 0. -1.
          6    1    1    2  501    0 -0.19423273535E+03  0.12715548052E+02  0.31343723096E+03  0.40708099734E+03  0.17200000000E+03 0. -1.
         -6    1    1    2    0  503  0.19423273535E+03 -0.12715548052E+02 -0.55577192410E+02  0.26563295157E+03  0.17200000000E+03 0. -1.
</event>
<event>
 4    1  0.4386646E+000  0.1802087E+03  0.7818608E-02  0.1167601E+00
         21   -1    0    0  501  502  0.00000000000E+00  0.00000000000E+00  0.24032633487E+03  0.24032633487E+03  0.00000000000E+00 0. -1.
         21   -1    0    0  502  503 -0.00000000000E+00 -0.00000000000E+00 -0.14448582577E+03  0.14448582577E+03  0.00000000000E+00 0. -1.
          6    1    1    2  501    0  0.18079822679E+02 -0.50638836008E+02  0.96882282160E+02  0.20460046016E+03  0.17200000000E+03 0. -1.
         -6    1    1    2    0  503 -0.18079822679E+02  0.50638836008E+02 -0.10417730653E+01  0.18021170048E+03  0.17200000000E+03 0. -1.
</event>
<event>
 4    1  0.4386646E+000  0.2435044E+03  0.7818608E-02  0.1117480E+00
         21   -1    0    0  501  502  0.00000000000E+00  0.00000000000E+00  0.13998588955E+03  0.13998588955E+03  0.00000000000E+00 0. -1.
         21   -1    0    0  502  503 -0.00000000000E+00 -0.00000000000E+00 -0.43310309016E+03  0.43310309016E+03  0.00000000000E+00 0.  1.
          6    1    1    2  501    0 -0.16217921122E+03  0.58380502096E+02 -0.10405529299E+03  0.26480536924E+03  0.17200000000E+03 0. -1.
         -6    1    1    2    0  503  0.16217921122E+03 -0.58380502096E+02 -0.18906190762E+03  0.30828361048E+03  0.17200000000E+03 0.  1.
</event>
<event>
 4    1  0.4386646E+000  0.1737901E+03  0.7818608E-02  0.1173952E+00
         21   -1    0    0  503  502  0.00000000000E+00  0.00000000000E+00  0.84586191437E+02  0.84586191437E+02  0.00000000000E+00 0.  1.
         21   -1    0    0  501  503 -0.00000000000E+00 -0.00000000000E+00 -0.43498562163E+03  0.43498562163E+03  0.00000000000E+00 0.  1.
          6    1    1    2  501    0 -0.12672771973E+02 -0.21410573530E+02 -0.28514999069E+03  0.33393641460E+03  0.17200000000E+03 0.  1.
         -6    1    1    2    0  502  0.12672771973E+02  0.21410573530E+02 -0.65249439508E+02  0.18563539847E+03  0.17200000000E+03 0.  1.
</event>
<event>
 4    1  0.4386646E+000  0.1786168E+03  0.7818608E-02  0.1169148E+00
         21   -1    0    0  503  502  0.00000000000E+00  0.00000000000E+00  0.55817387627E+03  0.55817387627E+03  0.00000000000E+00 0.  1.
         21   -1    0    0  501  503 -0.00000000000E+00 -0.00000000000E+00 -0.61716783278E+02  0.61716783278E+02  0.00000000000E+00 0. -1.
          6    1    1    2  501    0  0.46173228289E+02  0.13711228741E+02  0.16398829159E+03  0.24247912195E+03  0.17200000000E+03 0.  1.
         -6    1    1    2    0  502 -0.46173228289E+02 -0.13711228741E+02  0.33246880141E+03  0.37741153760E+03  0.17200000000E+03 0.  1.
</event>
<event>
 4    1  0.4386646E+000  0.1865841E+03  0.7818608E-02  0.1161579E+00
         21   -1    0    0  503  502  0.00000000000E+00  0.00000000000E+00  0.48293757314E+03  0.48293757314E+03  0.00000000000E+00 0.  1.
         21   -1    0    0  501  503 -0.00000000000E+00 -0.00000000000E+00 -0.92804102119E+02  0.92804102119E+02  0.00000000000E+00 0. -1.
          6    1    1    2  501    0 -0.69240315140E+02 -0.20866795479E+02  0.59055148989E+02  0.19570680881E+03  0.17200000000E+03 0. -1.
         -6    1    1    2    0  502  0.69240315140E+02  0.20866795479E+02  0.33107832203E+03  0.38003486645E+03  0.17200000000E+03 0. -1.
</event>
<event>
 4    1  0.4386646E+000  0.1947908E+03  0.7818608E-02  0.1154210E+00
         21   -1    0    0  501  502  0.00000000000E+00  0.00000000000E+00  0.10708583655E+03  0.10708583655E+03  0.00000000000E+00 0.  1.
         21   -1    0    0  502  503 -0.00000000000E+00 -0.00000000000E+00 -0.11382712031E+04  0.11382712031E+04  0.00000000000E+00 0.  1.
          6    1    1    2  501    0  0.91428399284E+02  0.54992656576E+00  0.11608484898E+01  0.19479425603E+03  0.17200000000E+03 0.  1.
         -6    1    1    2    0  503 -0.91428399284E+02 -0.54992656576E+00 -0.10323462151E+04  0.10505627837E+04  0.17200000000E+03 0.  1.
</event>
<event>
 4    1  0.4386646E+000  0.2815855E+03  0.7818608E-02  0.1094826E+00
         21   -1    0    0  501  502  0.00000000000E+00  0.00000000000E+00  0.13878558852E+03  0.13878558852E+03  0.00000000000E+00 0.  1.
         21   -1    0    0  502  503 -0.00000000000E+00 -0.00000000000E+00 -0.89375552317E+03  0.89375552317E+03  0.00000000000E+00 0. -1.
          6    1    1    2  501    0 -0.22093685913E+03 -0.29887905903E+02 -0.67391698356E+02  0.28953760317E+03  0.17200000000E+03 0.  1.
         -6    1    1    2    0  503  0.22093685913E+03  0.29887905903E+02 -0.68757823629E+03  0.74300350852E+03  0.17200000000E+03 0. -1.
</event>
<event>
 4    1  0.4386646E+000  0.1872268E+03  0.7818608E-02  0.1160987E+00
         21   -1    0    0  501  502  0.00000000000E+00  0.00000000000E+00  0.19401364731E+03  0.19401364731E+03  0.00000000000E+00 0.  1.
         21   -1    0    0  502  503 -0.00000000000E+00 -0.00000000000E+00 -0.18122636219E+03  0.18122636219E+03  0.00000000000E+00 0.  1.
          6    1    1    2  501    0 -0.73797670766E+02  0.48772035033E+01  0.16719726942E+02  0.18797189309E+03  0.17200000000E+03 0. -1.
         -6    1    1    2    0  503  0.73797670766E+02 -0.48772035033E+01 -0.39324418173E+01  0.18726811641E+03  0.17200000000E+03 0. -1.
</event>
<event>
 4    1  0.4386646E+000  0.2261476E+03  0.7818608E-02  0.1129381E+00
         21   -1    0    0  503  502  0.00000000000E+00  0.00000000000E+00  0.87746563364E+02  0.87746563364E+02  0.00000000000E+00 0.  1.
         21   -1    0    0  501  503 -0.00000000000E+00 -0.00000000000E+00 -0.72262294051E+03  0.72262294051E+03  0.00000000000E+00 0.  1.
          6    1    1    2  501    0 -0.26671119479E+01  0.14680467503E+03 -0.49564123199E+03  0.54479625269E+03  0.17200000000E+03 0. -1.
         -6    1    1    2    0  502  0.26671119479E+01 -0.14680467503E+03 -0.13923514516E+03  0.26557325118E+03  0.17200000000E+03 0. -1.
</event>
<event>
 4    1  0.4386646E+000  0.2045742E+03  0.7818608E-02  0.1145936E+00
         21   -1    0    0  501  502  0.00000000000E+00  0.00000000000E+00  0.12654892371E+03  0.12654892371E+03  0.00000000000E+00 0. -1.
         21   -1    0    0  502  503 -0.00000000000E+00 -0.00000000000E+00 -0.52298276803E+03  0.52298276803E+03  0.00000000000E+00 0. -1.
          6    1    1    2  501    0 -0.10870182838E+03 -0.21225103456E+02 -0.12972346741E+01  0.20457828655E+03  0.17200000000E+03 0. -1.
         -6    1    1    2    0  503  0.10870182838E+03  0.21225103456E+02 -0.39513660964E+03  0.44495340519E+03  0.17200000000E+03 0. -1.
</event>
<event>
 4    1  0.4386646E+000  0.1750855E+03  0.7818608E-02  0.1172646E+00
         21   -1    0    0  503  502  0.00000000000E+00  0.00000000000E+00  0.10181762659E+03  0.10181762659E+03  0.00000000000E+00 0. -1.
         21   -1    0    0  501  503 -0.00000000000E+00 -0.00000000000E+00 -0.95777757038E+03  0.95777757038E+03  0.00000000000E+00 0. -1.
          6    1    1    2  501    0  0.32461464216E+02  0.41452423202E+01 -0.86667367678E+03  0.88418221635E+03  0.17200000000E+03 0. -1.
         -6    1    1    2    0  502 -0.32461464216E+02 -0.41452423202E+01  0.10713732984E+02  0.17541298061E+03  0.17200000000E+03 0. -1.
</event>
<event>
 4    1  0.4386646E+000  0.2354442E+03  0.7818608E-02  0.1122866E+00
         21   -1    0    0  503  502  0.00000000000E+00  0.00000000000E+00  0.39519137574E+02  0.39519137574E+02  0.00000000000E+00 0.  1.
         21   -1    0    0  501  503 -0.00000000000E+00 -0.00000000000E+00 -0.19565366667E+04  0.19565366667E+04  0.00000000000E+00 0. -1.
          6    1    1    2  501    0 -0.46591361638E+02  0.15388047111E+03 -0.14894970931E+04  0.15079905652E+04  0.17200000000E+03 0.  1.
         -6    1    1    2    0  502  0.46591361638E+02 -0.15388047111E+03 -0.42752043596E+03  0.48806523901E+03  0.17200000000E+03 0. -1.
</event>
<event>
 4    1  0.4386646E+000  0.1946475E+03  0.7818608E-02  0.1154335E+00
         21   -1    0    0  501  502  0.00000000000E+00  0.00000000000E+00  0.26485228045E+03  0.26485228045E+03  0.00000000000E+00 0.  1.
         21   -1    0    0  502  503 -0.00000000000E+00 -0.00000000000E+00 -0.17037115337E+03  0.17037115337E+03  0.00000000000E+00 0.  1.
          6    1    1    2  501    0 -0.77063570187E+01  0.90797813063E+02  0.13438073115E+03  0.23652866993E+03  0.17200000000E+03 0.  1.
         -6    1    1    2    0  503  0.77063570187E+01 -0.90797813063E+02 -0.39899604068E+02  0.19869476390E+03  0.17200000000E+03 0.  1.
</event>
<event>
 4    1  0.4386646E+000  0.1918340E+03  0.7818608E-02  0.1156818E+00
         21   -1    0    0  503  502  0.00000000000E+00  0.00000000000E+00  0.61039745271E+03  0.61039745271E+03  0.00000000000E+00 0. -1.
         21   -1    0    0  501  503 -0.00000000000E+00 -0.00000000000E+00 -0.66442758342E+02  0.66442758342E+02  0.00000000000E+00 0.  1.
          6    1    1    2  501    0  0.23252448494E+02  0.81704342405E+02  0.16898589858E+03  0.25564919293E+03  0.17200000000E+03 0.  1.
         -6    1    1    2    0  502 -0.23252448494E+02 -0.81704342405E+02  0.37496879579E+03  0.42119101812E+03  0.17200000000E+03 0. -1.
</event>
<event>
 4    1  0.4386646E+000  0.2426026E+03  0.7818608E-02  0.1118071E+00
         21   -1    0    0  501  502  0.00000000000E+00  0.00000000000E+00  0.49120317218E+03  0.49120317218E+03  0.00000000000E+00 0.  1.
         21   -1    0    0  502  503 -0.00000000000E+00 -0.00000000000E+00 -0.62185934847E+03  0.62185934847E+03  0.00000000000E+00 0.  1.
          6    1    1    2  501    0 -0.16889178365E+03  0.27342136072E+02  0.43472061255E+03  0.49783334356E+03  0.17200000000E+03 0.  1.
         -6    1    1    2    0  503  0.16889178365E+03 -0.27342136072E+02 -0.56537678884E+03  0.61522917709E+03  0.17200000000E+03 0.  1.
</event>
<event>
 4    1  0.4386646E+000  0.2015858E+03  0.7818608E-02  0.1148408E+00
         21   -1    0    0  503  502  0.00000000000E+00  0.00000000000E+00  0.16461254795E+04  0.16461254795E+04  0.00000000000E+00 0. -1.
         21   -1    0    0  501  503 -0.00000000000E+00 -0.00000000000E+00 -0.25820902528E+02  0.25820902528E+02  0.00000000000E+00 0. -1.
          6    1    1    2  501    0 -0.10513072390E+03  0.59550430677E+00  0.63491777694E+03  0.66615118945E+03  0.17200000000E+03 0. -1.
         -6    1    1    2    0  502  0.10513072390E+03 -0.59550430677E+00  0.98538680007E+03  0.10057951926E+04  0.17200000000E+03 0. -1.
</event>
<event>
 4    1  0.4386646E+000  0.2540480E+03  0.7818608E-02  0.1110773E+00
         21   -1    0    0  503  502  0.00000000000E+00  0.00000000000E+00  0.48611424303E+03  0.48611424303E+03  0.00000000000E+00 0. -1.
         21   -1    0    0  501  503 -0.00000000000E+00 -0.00000000000E+00 -0.13970128451E+03  0.13970128451E+03  0.00000000000E+00 0. -1.
          6    1    1    2  501    0  0.94792279725E+02  0.16115459845E+03  0.10349763216E+03  0.27432123644E+03  0.17200000000E+03 0. -1.
         -6    1    1    2    0  502 -0.94792279725E+02 -0.16115459845E+03  0.24291532636E+03  0.35149429110E+03  0.17200000000E+03 0. -1.
</event>
<event>
 4    1  0.4386646E+000  0.2064226E+03  0.7818608E-02  0.1144431E+00
         21   -1    0    0  503  502  0.00000000000E+00  0.00000000000E+00  0.11535776304E+03  0.11535776304E+03  0.00000000000E+00 0.  1.
         21   -1    0    0  501  503 -0.00000000000E+00 -0.00000000000E+00 -0.36949222178E+03  0.36949222178E+03  0.00000000000E+00 0. -1.
          6    1    1    2  501    0 -0.43004260224E+02  0.10572097939E+03 -0.13138229218E+03  0.24468673560E+03  0.17200000000E+03 0. -1.
         -6    1    1    2    0  502  0.43004260224E+02 -0.10572097939E+03 -0.12275216655E+03  0.24016324922E+03  0.17200000000E+03 0. -1.
</event>
<event>
 4    1  0.4386646E+000  0.2004080E+03  0.7818608E-02  0.1149395E+00
         21   -1    0    0  501  502  0.00000000000E+00  0.00000000000E+00  0.17785235120E+04  0.17785235120E+04  0.00000000000E+00 0. -1.
         21   -1    0    0  502  503 -0.00000000000E+00 -0.00000000000E+00 -0.24135244529E+02  0.24135244529E+02  0.00000000000E+00 0.  1.
          6    1    1    2  501    0  0.76750969357E+02  0.68473633250E+02  0.11058172079E+04  0.11238305241E+04  0.17200000000E+03 0.  1.
         -6    1    1    2    0  503 -0.76750969357E+02 -0.68473633250E+02  0.64857105961E+03  0.67882823241E+03  0.17200000000E+03 0. -1.
</event>
<event>
 4    1  0.4386646E+000  0.2046873E+03  0.7818608E-02  0.1145843E+00
         21   -1    0    0  503  502  0.00000000000E+00  0.00000000000E+00  0.11279211030E+04  0.11279211030E+04  0.00000000000E+00 0. -1.
         21   -1    0    0  501  503 -0.00000000000E+00 -0.00000000000E+00 -0.51758424171E+03  0.51758424171E+03  0.00000000000E+00 0. -1.
          6    1    1    2  501    0  0.69943668582E+02  0.86143989680E+02 -0.48751157785E+03  0.52873853867E+03  0.17200000000E+03 0. -1.
         -6    1    1    2    0  502 -0.69943668582E+02 -0.86143989680E+02  0.10978484391E+04  0.11167668060E+04  0.17200000000E+03 0. -1.
</event>
<event>
 4    1  0.4386646E+000  0.1732477E+03  0.7818608E-02  0.1174503E+00
         21   -1    0    0  501  502  0.00000000000E+00  0.00000000000E+00  0.16683006759E+03  0.16683006759E+03  0.00000000000E+00 0. -1.
         21   -1    0    0  502  503 -0.00000000000E+00 -0.00000000000E+00 -0.18969276580E+03  0.18969276580E+03  0.00000000000E+00 0. -1.
          6    1    1    2  501    0  0.20487905757E+02  0.33187558783E+01  0.29046127930E+02  0.17566572224E+03  0.17200000000E+03 0. -1.
         -6    1    1    2    0  503 -0.20487905757E+02 -0.33187558783E+01 -0.51908826143E+02  0.18085711115E+03  0.17200000000E+03 0. -1.
</event>
<event>
 4    1  0.4386646E+000  0.2119025E+03  0.7818608E-02  0.1140068E+00
         21   -1    0    0  501  502  0.00000000000E+00  0.00000000000E+00  0.14069196824E+04  0.14069196824E+04  0.00000000000E+00 0.  1.
         21   -1    0    0  502  503 -0.00000000000E+00 -0.00000000000E+00 -0.99387789177E+02  0.99387789177E+02  0.00000000000E+00 0.  1.
          6    1    1    2  501    0 -0.12201592932E+03  0.20755635508E+02  0.12743198700E+04  0.12918180269E+04  0.17200000000E+03 0.  1.
         -6    1    1    2    0  503  0.12201592932E+03 -0.20755635508E+02  0.33212023222E+02  0.21448944473E+03  0.17200000000E+03 0.  1.
</event>
<event>
 4    1  0.4386646E+000  0.2348837E+03  0.7818608E-02  0.1123249E+00
         21   -1    0    0  501  502  0.00000000000E+00  0.00000000000E+00  0.21231494904E+04  0.21231494904E+04  0.00000000000E+00 0.  1.
         21   -1    0    0  502  503 -0.00000000000E+00 -0.00000000000E+00 -0.10123759397E+03  0.10123759397E+03  0.00000000000E+00 0. -1.
          6    1    1    2  501    0  0.15858833926E+03  0.20882800274E+02  0.19698481202E+04  0.19838024018E+04  0.17200000000E+03 0.  1.
         -6    1    1    2    0  503 -0.15858833926E+03 -0.20882800274E+02  0.52063776238E+02  0.24058468258E+03  0.17200000000E+03 0. -1.
</event>
<event>
 4    1  0.4386646E+000  0.1788650E+03  0.7818608E-02  0.1168906E+00
         21   -1    0    0  503  502  0.00000000000E+00  0.00000000000E+00  0.39594945168E+03  0.39594945168E+03  0.00000000000E+00 0.  1.
         21   -1    0    0  501  503 -0.00000000000E+00 -0.00000000000E+00 -0.82835096408E+02  0.82835096408E+02  0.00000000000E+00 0.  1.
          6    1    1    2  501    0 -0.49027495141E+02  0.22335159797E+01  0.11903361992E+03  0.21485270895E+03  0.17200000000E+03 0.  1.
         -6    1    1    2    0  502  0.49027495141E+02 -0.22335159797E+01  0.19408073535E+03  0.26393183913E+03  0.17200000000E+03 0.  1.
</event>
<event>
 4    1  0.4386646E+000  0.1785424E+03  0.7818608E-02  0.1169221E+00
         21   -1    0    0  501  502  0.00000000000E+00  0.00000000000E+00  0.89880934891E+02  0.89880934891E+02  0.00000000000E+00 0.  1.
         21   -1    0    0  502  503 -0.00000000000E+00 -0.00000000000E+00 -0.69409973712E+03  0.69409973712E+03  0.00000000000E+00 0.  1.
          6    1    1    2  501    0  0.87550701198E+01  0.47082082955E+02 -0.27987125866E+02  0.18072258576E+03  0.17200000000E+03 0.  1.
         -6    1    1    2    0  503 -0.87550701198E+01 -0.47082082955E+02 -0.57623167636E+03  0.60325808626E+03  0.17200000000E+03 0.  1.
</event>
<event>
 4    1  0.4386646E+000  0.1992088E+03  0.7818608E-02  0.1150408E+00
         21   -1    0    0  503  502  0.00000000000E+00  0.00000000000E+00  0.13147793734E+03  0.13147793734E+03  0.00000000000E+00 0.  1.
         21   -1    0    0  501  503 -0.00000000000E+00 -0.00000000000E+00 -0.30478110799E+03  0.30478110799E+03  0.00000000000E+00 0.  1.
          6    1    1    2  501    0  0.78369886583E+02  0.62915142140E+02 -0.10811104136E+03  0.22665425542E+03  0.17200000000E+03 0.  1.
         -6    1    1    2    0  502 -0.78369886583E+02 -0.62915142140E+02 -0.65192129294E+02  0.20960478992E+03  0.17200000000E+03 0.  1.
</event>
<event>
 4    1  0.4386646E+000  0.1827731E+03  0.7818608E-02  0.1165146E+00
         21   -1    0    0  501  502  0.00000000000E+00  0.00000000000E+00  0.68666444395E+02  0.68666444395E+02  0.00000000000E+00 0.  1.
         21   -1    0    0  502  503 -0.00000000000E+00 -0.00000000000E+00 -0.53771540863E+03  0.53771540863E+03  0.00000000000E+00 0.  1.
          6    1    1    2  501    0 -0.16997223169E+02 -0.59439952092E+02 -0.14095087923E+03  0.23080980017E+03  0.17200000000E+03 0.  1.
         -6    1    1    2    0  503  0.16997223169E+02  0.59439952092E+02 -0.32809808500E+03  0.37557205285E+03  0.17200000000E+03 0.  1.
</event>
<event>
 4    1  0.4386646E+000  0.1734104E+03  0.7818608E-02  0.1174337E+00
         21   -1    0    0  503  502  0.00000000000E+00  0.00000000000E+00  0.32140646013E+03  0.32140646013E+03  0.00000000000E+00 0. -1.
         21   -1    0    0  501  503 -0.00000000000E+00 -0.00000000000E+00 -0.10566511975E+03  0.10566511975E+03  0.00000000000E+00 0. -1.
          6    1    1    2  501    0  0.19140576797E+02  0.10990447559E+02  0.35598828193E+02  0.17702663129E+03  0.17200000000E+03 0. -1.
         -6    1    1    2    0  502 -0.19140576797E+02 -0.10990447559E+02  0.18014251219E+03  0.25004494859E+03  0.17200000000E+03 0. -1.
</event>
<event>
 4    1  0.4386646E+000  0.2401491E+03  0.7818608E-02  0.1119694E+00
         21   -1    0    0  501  502  0.00000000000E+00  0.00000000000E+00  0.19021716852E+03  0.19021716852E+03  0.00000000000E+00 0. -1.
         21   -1    0    0  502  503 -0.00000000000E+00 -0.00000000000E+00 -0.32692189651E+03  0.32692189651E+03  0.00000000000E+00 0. -1.
          6    1    1    2  501    0  0.52883572925E+02  0.15903111668E+03  0.13166404440E+01  0.24015266374E+03  0.17200000000E+03 0. -1.
         -6    1    1    2    0  503 -0.52883572925E+02 -0.15903111668E+03 -0.13802136843E+03  0.27698640129E+03  0.17200000000E+03 0. -1.
</event>
<event>
 4    1  0.4386646E+000  0.2443852E+03  0.7818608E-02  0.1116906E+00
         21   -1    0    0  503  502  0.00000000000E+00  0.00000000000E+00  0.11256513291E+03  0.11256513291E+03  0.00000000000E+00 0. -1.
         21   -1    0    0  501  503 -0.00000000000E+00 -0.00000000000E+00 -0.55107876760E+03  0.55107876760E+03  0.00000000000E+00 0. -1.
          6    1    1    2  501    0  0.95824167700E+02  0.14476829087E+03 -0.28326360676E+03  0.37411549028E+03  0.17200000000E+03 0. -1.
         -6    1    1    2    0  502 -0.95824167700E+02 -0.14476829087E+03 -0.15525002794E+03  0.28952841023E+03  0.17200000000E+03 0. -1.
</event>
<event>
 4    1  0.4386646E+000  0.2208799E+03  0.7818608E-02  0.1133229E+00
         21   -1    0    0  503  502  0.00000000000E+00  0.00000000000E+00  0.57083625654E+03  0.57083625654E+03  0.00000000000E+00 0.  1.
         21   -1    0    0  501  503 -0.00000000000E+00 -0.00000000000E+00 -0.95010583157E+02  0.95010583157E+02  0.00000000000E+00 0. -1.
          6    1    1    2  501    0  0.33901489672E+02  0.13436743778E+03  0.13240035395E+03  0.25752237391E+03  0.17200000000E+03 0. -1.
         -6    1    1    2    0  502 -0.33901489672E+02 -0.13436743778E+03  0.34342531943E+03  0.40832446579E+03  0.17200000000E+03 0.  1.
</event>
<event>
 4    1  0.4386646E+000  0.2228358E+03  0.7818608E-02  0.1131786E+00
         21   -1    0    0  503  502  0.00000000000E+00  0.00000000000E+00  0.10608441938E+03  0.10608441938E+03  0.00000000000E+00 0.  1.
         21   -1    0    0  501  503 -0.00000000000E+00 -0.00000000000E+00 -0.53389209926E+03  0.53389209926E+03  0.00000000000E+00 0. -1.
          6    1    1    2  501    0  0.13217870831E+03  0.50995864323E+02 -0.32625215754E+03  0.39509019149E+03  0.17200000000E+03 0. -1.
         -6    1    1    2    0  502 -0.13217870831E+03 -0.50995864323E+02 -0.10155552234E+03  0.24488632715E+03  0.17200000000E+03 0.  1.
</event>
<event>
 4    1  0.4386646E+000  0.1770907E+03  0.7818608E-02  0.1170649E+00
         21   -1    0    0  501  502  0.00000000000E+00  0.00000000000E+00  0.94707955954E+03  0.94707955954E+03  0.00000000000E+00 0. -1.
         21   -1    0    0  502  503 -0.00000000000E+00 -0.00000000000E+00 -0.37792139216E+02  0.37792139216E+02  0.00000000000E+00 0. -1.
          6    1    1    2  501    0  0.52202087009E+01 -0.41831328356E+02  0.62790802017E+03  0.65240293716E+03  0.17200000000E+03 0. -1.
         -6    1    1    2    0  503 -0.52202087009E+01  0.41831328356E+02  0.28137940016E+03  0.33246876160E+03  0.17200000000E+03 0. -1.
</event>
<event>
 4    1  0.4386646E+000  0.1788230E+03  0.7818608E-02  0.1168947E+00
         21   -1    0    0  503  502  0.00000000000E+00  0.00000000000E+00  0.41004931347E+03  0.41004931347E+03  0.00000000000E+00 0. -1.
         21   -1    0    0  501  503 -0.00000000000E+00 -0.00000000000E+00 -0.99806360504E+02  0.99806360504E+02  0.00000000000E+00 0.  1.
          6    1    1    2  501    0  0.48079639437E+02  0.90555323623E+01  0.35920430504E+02  0.18239498821E+03  0.17200000000E+03 0.  1.
         -6    1    1    2    0  502 -0.48079639437E+02 -0.90555323623E+01  0.27432252247E+03  0.32746068577E+03  0.17200000000E+03 0. -1.
</event>
<event>
 4    1  0.4386646E+000  0.3409299E+03  0.7818608E-02  0.1066401E+00
         21   -1    0    0  501  502  0.00000000000E+00  0.00000000000E+00  0.20593804242E+03  0.20593804242E+03  0.00000000000E+00 0. -1.
         21   -1    0    0  502  503 -0.00000000000E+00 -0.00000000000E+00 -0.12971797788E+04  0.12971797788E+04  0.00000000000E+00 0. -1.
          6    1    1    2  501    0 -0.82977761855E+01  0.29424541023E+03  0.19247317450E+02  0.34147280091E+03  0.17200000000E+03 0. -1.
         -6    1    1    2    0  503  0.82977761855E+01 -0.29424541023E+03 -0.11104890538E+04  0.11616450203E+04  0.17200000000E+03 0. -1.
</event>
<event>
 4    1  0.4386646E+000  0.2248980E+03  0.7818608E-02  0.1130283E+00
         21   -1    0    0  503  502  0.00000000000E+00  0.00000000000E+00  0.23847796029E+03  0.23847796029E+03  0.00000000000E+00 0. -1.
         21   -1    0    0  501  503 -0.00000000000E+00 -0.00000000000E+00 -0.21523705324E+03  0.21523705324E+03  0.00000000000E+00 0.  1.
          6    1    1    2  501    0 -0.87774440117E+02  0.11528564289E+03 -0.15804628673E+02  0.22545269589E+03  0.17200000000E+03 0.  1.
         -6    1    1    2    0  502  0.87774440117E+02 -0.11528564289E+03  0.39045535727E+02  0.22826231764E+03  0.17200000000E+03 0.  1.
</event>
<event>
 4    1  0.4386646E+000  0.1883599E+03  0.7818608E-02  0.1159949E+00
         21   -1    0    0  501  502  0.00000000000E+00  0.00000000000E+00  0.32520817468E+03  0.32520817468E+03  0.00000000000E+00 0.  1.
         21   -1    0    0  502  503 -0.00000000000E+00 -0.00000000000E+00 -0.10925428552E+03  0.10925428552E+03  0.00000000000E+00 0.  1.
          6    1    1    2  501    0  0.69564122728E+02  0.32500778797E+02  0.99753341756E+02  0.21314360648E+03  0.17200000000E+03 0.  1.
         -6    1    1    2    0  503 -0.69564122728E+02 -0.32500778797E+02  0.11620054740E+03  0.22131885372E+03  0.17200000000E+03 0.  1.
</event>
<event>
 4    1  0.4386646E+000  0.1735330E+03  0.7818608E-02  0.1174213E+00
         21   -1    0    0  503  502  0.00000000000E+00  0.00000000000E+00  0.14181502770E+03  0.14181502770E+03  0.00000000000E+00 0. -1.
         21   -1    0    0  501  503 -0.00000000000E+00 -0.00000000000E+00 -0.24256984792E+03  0.24256984792E+03  0.00000000000E+00 0. -1.
          6    1    1    2  501    0 -0.14063255811E+02 -0.18218634379E+02 -0.11821975877E+03  0.20997524894E+03  0.17200000000E+03 0. -1.
         -6    1    1    2    0  502  0.14063255811E+02  0.18218634379E+02  0.17464938549E+02  0.17440962669E+03  0.17200000000E+03 0. -1.
</event>
<event>
 4    1  0.4386646E+000  0.2473299E+03  0.7818608E-02  0.1115004E+00
         21   -1    0    0  503  502  0.00000000000E+00  0.00000000000E+00  0.11951091252E+04  0.11951091252E+04  0.00000000000E+00 0.  1.
         21   -1    0    0  501  503 -0.00000000000E+00 -0.00000000000E+00 -0.54991998981E+02  0.54991998981E+02  0.00000000000E+00 0.  1.
          6    1    1    2  501    0 -0.17614983730E+03 -0.23650123224E+02  0.40560771660E+03  0.47506811435E+03  0.17200000000E+03 0.  1.
         -6    1    1    2    0  502  0.17614983730E+03  0.23650123224E+02  0.73450940965E+03  0.77503300986E+03  0.17200000000E+03 0.  1.
</event>
<event>
 4    1  0.4386646E+000  0.1833441E+03  0.7818608E-02  0.1164605E+00
         21   -1    0    0  501  502  0.00000000000E+00  0.00000000000E+00  0.23194521287E+03  0.23194521287E+03  0.00000000000E+00 0. -1.
         21   -1    0    0  502  503 -0.00000000000E+00 -0.00000000000E+00 -0.20521393346E+03  0.20521393346E+03  0.00000000000E+00 0.  1.
          6    1    1    2  501    0  0.26521892269E+02 -0.57685614398E+02  0.13183854444E+03  0.22582391963E+03  0.17200000000E+03 0. -1.
         -6    1    1    2    0  503 -0.26521892269E+02  0.57685614398E+02 -0.10510726504E+03  0.21133522669E+03  0.17200000000E+03 0.  1.
</event>
<event>
 4    1  0.4386646E+000  0.1823019E+03  0.7818608E-02  0.1165594E+00
         21   -1    0    0  501  502  0.00000000000E+00  0.00000000000E+00  0.72943416701E+02  0.72943416701E+02  0.00000000000E+00 0. -1.
         21   -1    0    0  502  503 -0.00000000000E+00 -0.00000000000E+00 -0.84931806559E+03  0.84931806559E+03  0.00000000000E+00 0. -1.
          6    1    1    2  501    0 -0.43371271219E+02  0.42058684014E+02 -0.74227440344E+02  0.19683422713E+03  0.17200000000E+03 0. -1.
         -6    1    1    2    0  503  0.43371271219E+02 -0.42058684014E+02 -0.70214720854E+03  0.72542725516E+03  0.17200000000E+03 0. -1.
</event>
<event>
 4    1  0.4386646E+000  0.1994703E+03  0.7818608E-02  0.1150187E+00
         21   -1    0    0  503  502  0.00000000000E+00  0.00000000000E+00  0.16596770843E+03  0.16596770843E+03  0.00000000000E+00 0.  1.
         21   -1    0    0  501  503 -0.00000000000E+00 -0.00000000000E+00 -0.24334171148E+03  0.24334171148E+03  0.00000000000E+00 0.  1.
          6    1    1    2  501    0 -0.19107941687E+02  0.99193266554E+02 -0.63599375422E+02  0.20936403254E+03  0.17200000000E+03 0.  1.
         -6    1    1    2    0  502  0.19107941687E+02 -0.99193266554E+02 -0.13774627627E+02  0.19994538737E+03  0.17200000000E+03 0.  1.
</event>
<event>
 4    1  0.4386646E+000  0.2469075E+03  0.7818608E-02  0.1115275E+00
         21   -1    0    0  501  502  0.00000000000E+00  0.00000000000E+00  0.76373065548E+03  0.76373065548E+03  0.00000000000E+00 0. -1.
         21   -1    0    0  502  503 -0.00000000000E+00 -0.00000000000E+00 -0.16123231483E+03  0.16123231483E+03  0.00000000000E+00 0.  1.
          6    1    1    2  501    0  0.17595934090E+03 -0.20435991485E+02  0.62987764498E+03  0.67654206598E+03  0.17200000000E+03 0. -1.
         -6    1    1    2    0  503 -0.17595934090E+03  0.20435991485E+02 -0.27379304332E+02  0.24842090432E+03  0.17200000000E+03 0.  1.
</event>
<event>
 4    1  0.4386646E+000  0.1957540E+03  0.7818608E-02  0.1153372E+00
         21   -1    0    0  503  502  0.00000000000E+00  0.00000000000E+00  0.12246762713E+04  0.12246762713E+04  0.00000000000E+00 0. -1.
         21   -1    0    0  501  503 -0.00000000000E+00 -0.00000000000E+00 -0.31325064262E+02  0.31325064262E+02  0.00000000000E+00 0. -1.
          6    1    1    2  501    0  0.45574344392E+02  0.81600396795E+02  0.61780245325E+03  0.64807369710E+03  0.17200000000E+03 0. -1.
         -6    1    1    2    0  502 -0.45574344392E+02 -0.81600396795E+02  0.57554875377E+03  0.60792763845E+03  0.17200000000E+03 0. -1.
</event>
<event>
 4    1  0.4386646E+000  0.2531088E+03  0.7818608E-02  0.1111356E+00
         21   -1    0    0  501  502  0.00000000000E+00  0.00000000000E+00  0.18219461002E+04  0.18219461002E+04  0.00000000000E+00 0.  1.
         21   -1    0    0  502  503 -0.00000000000E+00 -0.00000000000E+00 -0.43615677164E+02  0.43615677164E+02  0.00000000000E+00 0. -1.
          6    1    1    2  501    0  0.13723217453E+03 -0.12508945207E+03  0.12998137439E+04  0.13242280051E+04  0.17200000000E+03 0.  1.
         -6    1    1    2    0  503 -0.13723217453E+03  0.12508945207E+03  0.47851667912E+03  0.54133377222E+03  0.17200000000E+03 0. -1.
</event>
<event>
 4    1  0.4386646E+000  0.1808349E+03  0.7818608E-02  0.1166997E+00
         21   -1    0    0  501  502  0.00000000000E+00  0.00000000000E+00  0.27178091019E+02  0.27178091019E+02  0.00000000000E+00 0.  1.
         21   -1    0    0  502  503 -0.00000000000E+00 -0.00000000000E+00 -0.12289667078E+04  0.12289667078E+04  0.00000000000E+00 0.  1.
          6    1    1    2  501    0 -0.11907753448E+02 -0.54547931778E+02 -0.50998981208E+03  0.54110154303E+03  0.17200000000E+03 0. -1.
         -6    1    1    2    0  503  0.11907753448E+02  0.54547931778E+02 -0.69179880475E+03  0.71504325583E+03  0.17200000000E+03 0. -1.
</event>
<event>
 4    1  0.4386646E+000  0.1991841E+03  0.7818608E-02  0.1150429E+00
         21   -1    0    0  501  502  0.00000000000E+00  0.00000000000E+00  0.12281573966E+04  0.12281573966E+04  0.00000000000E+00 0.  1.
         21   -1    0    0  502  503 -0.00000000000E+00 -0.00000000000E+00 -0.32333967745E+02  0.32333967745E+02  0.00000000000E+00 0.  1.
          6    1    1    2  501    0 -0.39049518321E+02  0.92549596605E+02  0.61712577345E+03  0.64847398789E+03  0.17200000000E+03 0. -1.
         -6    1    1    2    0  503  0.39049518321E+02 -0.92549596605E+02  0.57869765540E+03  0.61201737645E+03  0.17200000000E+03 0. -1.
</event>
<event>
 4    1  0.4386646E+000  0.2221031E+03  0.7818608E-02  0.1132325E+00
         21   -1    0    0  501  502  0.00000000000E+00  0.00000000000E+00  0.69105349223E+02  0.69105349223E+02  0.00000000000E+00 0.  1.
         21   -1    0    0  502  503 -0.00000000000E+00 -0.00000000000E+00 -0.15700992942E+04  0.15700992942E+04  0.00000000000E+00 0. -1.
          6    1    1    2  501    0 -0.14042831471E+03  0.50667628001E+01 -0.14523462170E+03  0.26537309396E+03  0.17200000000E+03 0.  1.
         -6    1    1    2    0  503  0.14042831471E+03 -0.50667628001E+01 -0.13557593232E+04  0.13738315494E+04  0.17200000000E+03 0. -1.
</event>
<event>
 4    1  0.4386646E+000  0.1848000E+03  0.7818608E-02  0.1163237E+00
         21   -1    0    0  501  502  0.00000000000E+00  0.00000000000E+00  0.27294844178E+02  0.27294844178E+02  0.00000000000E+00 0. -1.
         21   -1    0    0  502  503 -0.00000000000E+00 -0.00000000000E+00 -0.17325786854E+04  0.17325786854E+04  0.00000000000E+00 0. -1.
          6    1    1    2  501    0  0.33501744401E+02  0.58691194465E+02 -0.38881801112E+03  0.43050025431E+03  0.17200000000E+03 0. -1.
         -6    1    1    2    0  503 -0.33501744401E+02 -0.58691194465E+02 -0.13164658301E+04  0.13293732753E+04  0.17200000000E+03 0. -1.
</event>
<event>
 4    1  0.4386646E+000  0.2387366E+03  0.7818608E-02  0.1120637E+00
         21   -1    0    0  501  502  0.00000000000E+00  0.00000000000E+00  0.18126330239E+04  0.18126330239E+04  0.00000000000E+00 0. -1.
         21   -1    0    0  502  503 -0.00000000000E+00 -0.00000000000E+00 -0.31487210520E+02  0.31487210520E+02  0.00000000000E+00 0. -1.
          6    1    1    2  501    0 -0.96871633465E+01  0.16527955814E+03  0.92500397318E+03  0.95531540544E+03  0.17200000000E+03 0. -1.
         -6    1    1    2    0  503  0.96871633465E+01 -0.16527955814E+03  0.85614184015E+03  0.88880482893E+03  0.17200000000E+03 0. -1.
</event>
<event>
 4    1  0.4386646E+000  0.1948248E+03  0.7818608E-02  0.1154180E+00
         21   -1    0    0  501  502  0.00000000000E+00  0.00000000000E+00  0.20443945754E+03  0.20443945754E+03  0.00000000000E+00 0.  1.
         21   -1    0    0  502  503 -0.00000000000E+00 -0.00000000000E+00 -0.35624670900E+03  0.35624670900E+03  0.00000000000E+00 0.  1.
          6    1    1    2  501    0  0.91105431028E+02  0.85142830027E+01  0.11808851168E+03  0.22781920281E+03  0.17200000000E+03 0.  1.
         -6    1    1    2    0  503 -0.91105431028E+02 -0.85142830027E+01 -0.26989576314E+03  0.33286696372E+03  0.17200000000E+03 0.  1.
</event>
<event>
 4    1  0.4386646E+000  0.2029069E+03  0.7818608E-02  0.1147309E+00
         21   -1    0    0  501  502  0.00000000000E+00  0.00000000000E+00  0.10042032592E+03  0.10042032592E+03  0.00000000000E+00 0. -1.
         21   -1    0    0  502  503 -0.00000000000E+00 -0.00000000000E+00 -0.97746873594E+03  0.97746873594E+03  0.00000000000E+00 0. -1.
          6    1    1    2  501    0  0.82124374638E+02  0.69590334839E+02 -0.27877998058E+02  0.20481311088E+03  0.17200000000E+03 0. -1.
         -6    1    1    2    0  503 -0.82124374638E+02 -0.69590334839E+02 -0.84917041197E+03  0.87307595098E+03  0.17200000000E+03 0. -1.
</event>
<event>
 4    1  0.4386646E+000  0.1993573E+03  0.7818608E-02  0.1150282E+00
         21   -1    0    0  501  502  0.00000000000E+00  0.00000000000E+00  0.96382460278E+03  0.96382460278E+03  0.00000000000E+00 0.  1.
         21   -1    0    0  502  503 -0.00000000000E+00 -0.00000000000E+00 -0.41687813686E+02  0.41687813686E+02  0.00000000000E+00 0.  1.
          6    1    1    2  501    0 -0.61338739116E+01 -0.10060672795E+03  0.51346430819E+03  0.55080752891E+03  0.17200000000E+03 0.  1.
         -6    1    1    2    0  503  0.61338739116E+01  0.10060672795E+03  0.40867248090E+03  0.45470488755E+03  0.17200000000E+03 0.  1.
</event>
<event>
 4    1  0.4386646E+000  0.4030785E+03  0.7818608E-02  0.1042719E+00
         21   -1    0    0  501  502  0.00000000000E+00  0.00000000000E+00  0.25340926667E+03  0.25340926667E+03  0.00000000000E+00 0. -1.
         21   -1    0    0  502  503 -0.00000000000E+00 -0.00000000000E+00 -0.13762115944E+04  0.13762115944E+04  0.00000000000E+00 0. -1.
          6    1    1    2  501    0  0.22275827613E+03  0.28856032397E+03  0.34092374732E+02  0.40451773777E+03  0.17200000000E+03 0. -1.
         -6    1    1    2    0  503 -0.22275827613E+03 -0.28856032397E+03 -0.11568947025E+04  0.12251031234E+04  0.17200000000E+03 0. -1.
</event>
<event>
 4    1  0.4386646E+000  0.1908108E+03  0.7818608E-02  0.1157732E+00
         21   -1    0    0  501  502  0.00000000000E+00  0.00000000000E+00  0.14388121889E+04  0.14388121889E+04  0.00000000000E+00 0.  1.
         21   -1    0    0  502  503 -0.00000000000E+00 -0.00000000000E+00 -0.39065900294E+02  0.39065900294E+02  0.00000000000E+00 0.  1.
          6    1    1    2  501    0 -0.32052109602E+02  0.76140809757E+02  0.11384415151E+04  0.11543213781E+04  0.17200000000E+03 0.  1.
         -6    1    1    2    0  503  0.32052109602E+02 -0.76140809757E+02  0.26130477354E+03  0.32355671113E+03  0.17200000000E+03 0.  1.
</event>
<event>
 4    1  0.4386646E+000  0.2200304E+03  0.7818608E-02  0.1133860E+00
         21   -1    0    0  503  502  0.00000000000E+00  0.00000000000E+00  0.11294908077E+04  0.11294908077E+04  0.00000000000E+00 0.  1.
         21   -1    0    0  501  503 -0.00000000000E+00 -0.00000000000E+00 -0.49039934782E+02  0.49039934782E+02  0.00000000000E+00 0.  1.
          6    1    1    2  501    0 -0.89299530965E+02  0.10418727932E+03  0.33109293893E+03  0.39753733109E+03  0.17200000000E+03 0.  1.
         -6    1    1    2    0  502  0.89299530965E+02 -0.10418727932E+03  0.74935793401E+03  0.78099341141E+03  0.17200000000E+03 0.  1.
</event>
<event>
 4    1  0.4386646E+000  0.2134773E+03  0.7818608E-02  0.1138842E+00
         21   -1    0    0  503  502  0.00000000000E+00  0.00000000000E+00  0.28407071685E+03  0.28407071685E+03  0.00000000000E+00 0.  1.
         21   -1    0    0  501  503 -0.00000000000E+00 -0.00000000000E+00 -0.16145137269E+03  0.16145137269E+03  0.00000000000E+00 0. -1.
          6    1    1    2  501    0 -0.10515685596E+03  0.70218308185E+02  0.43564691538E+02  0.21787716151E+03  0.17200000000E+03 0. -1.
         -6    1    1    2    0  502  0.10515685596E+03 -0.70218308185E+02  0.79054652619E+02  0.22764492803E+03  0.17200000000E+03 0.  1.
</event>
<event>
 4    1  0.4386646E+000  0.2072038E+03  0.7818608E-02  0.1143800E+00
         21   -1    0    0  501  502  0.00000000000E+00  0.00000000000E+00  0.11438464105E+03  0.11438464105E+03  0.00000000000E+00 0. -1.
         21   -1    0    0  502  503 -0.00000000000E+00 -0.00000000000E+00 -0.39252889884E+03  0.39252889884E+03  0.00000000000E+00 0.  1.
          6    1    1    2  501    0  0.47956016817E+02 -0.10511725257E+03 -0.86037368750E+02  0.22435651352E+03  0.17200000000E+03 0. -1.
         -6    1    1    2    0  503 -0.47956016817E+02  0.10511725257E+03 -0.19210688904E+03  0.28255702637E+03  0.17200000000E+03 0.  1.
</event>
<event>
 4    1  0.4386646E+000  0.3056097E+03  0.7818608E-02  0.1082470E+00
         21   -1    0    0  503  502  0.00000000000E+00  0.00000000000E+00  0.14696338779E+03  0.14696338779E+03  0.00000000000E+00 0. -1.
         21   -1    0    0  501  503 -0.00000000000E+00 -0.00000000000E+00 -0.63579006268E+03  0.63579006268E+03  0.00000000000E+00 0.  1.
          6    1    1    2  501    0 -0.11352620533E+03 -0.22566584250E+03 -0.25257055108E+03  0.39647087540E+03  0.17200000000E+03 0.  1.
         -6    1    1    2    0  502  0.11352620533E+03  0.22566584250E+03 -0.23625612381E+03  0.38628257508E+03  0.17200000000E+03 0. -1.
</event>
<event>
 4    1  0.4386646E+000  0.3883562E+03  0.7818608E-02  0.1047888E+00
         21   -1    0    0  501  502  0.00000000000E+00  0.00000000000E+00  0.69961267255E+03  0.69961267255E+03  0.00000000000E+00 0.  1.
         21   -1    0    0  502  503 -0.00000000000E+00 -0.00000000000E+00 -0.22604101224E+03  0.22604101224E+03  0.00000000000E+00 0. -1.
          6    1    1    2  501    0  0.33555541890E+03  0.92946757365E+02  0.13720632806E+03  0.41188119078E+03  0.17200000000E+03 0. -1.
         -6    1    1    2    0  503 -0.33555541890E+03 -0.92946757365E+02  0.33636533225E+03  0.51377249401E+03  0.17200000000E+03 0.  1.
</event>
<event>
 4    1  0.4386646E+000  0.1865789E+03  0.7818608E-02  0.1161584E+00
         21   -1    0    0  503  502  0.00000000000E+00  0.00000000000E+00  0.53006409901E+02  0.53006409901E+02  0.00000000000E+00 0. -1.
         21   -1    0    0  501  503 -0.00000000000E+00 -0.00000000000E+00 -0.12341907073E+04  0.12341907073E+04  0.00000000000E+00 0. -1.
          6    1    1    2  501    0  0.60780291828E+02 -0.39159164941E+02 -0.10308220937E+04  0.10475714166E+04  0.17200000000E+03 0. -1.
         -6    1    1    2    0  502 -0.60780291828E+02  0.39159164941E+02 -0.15036220370E+03  0.23962570057E+03  0.17200000000E+03 0. -1.
</event>
<event>
 4    1  0.4386646E+000  0.2379666E+03  0.7818608E-02  0.1121155E+00
         21   -1    0    0  503  502  0.00000000000E+00  0.00000000000E+00  0.51999648462E+03  0.51999648462E+03  0.00000000000E+00 0.  1.
         21   -1    0    0  501  503 -0.00000000000E+00 -0.00000000000E+00 -0.12917034602E+03  0.12917034602E+03  0.00000000000E+00 0. -1.
          6    1    1    2  501    0 -0.36238085529E+02 -0.16040849209E+03  0.66835297632E+02  0.24717410906E+03  0.17200000000E+03 0.  1.
         -6    1    1    2    0  502  0.36238085529E+02  0.16040849209E+03  0.32399084097E+03  0.40199272159E+03  0.17200000000E+03 0. -1.
</event>
<event>
 4    1  0.4386646E+000  0.2357004E+03  0.7818608E-02  0.1122691E+00
         21   -1    0    0  503  502  0.00000000000E+00  0.00000000000E+00  0.18223293102E+03  0.18223293102E+03  0.00000000000E+00 0. -1.
         21   -1    0    0  501  503 -0.00000000000E+00 -0.00000000000E+00 -0.45571268113E+03  0.45571268113E+03  0.00000000000E+00 0. -1.
          6    1    1    2  501    0 -0.12842888228E+03 -0.97348426148E+02 -0.32026318522E+03  0.39764708182E+03  0.17200000000E+03 0. -1.
         -6    1    1    2    0  502  0.12842888228E+03  0.97348426148E+02  0.46783435114E+02  0.24029853033E+03  0.17200000000E+03 0. -1.
</event>
<event>
 4    1  0.4386646E+000  0.2282231E+03  0.7818608E-02  0.1127897E+00
         21   -1    0    0  501  502  0.00000000000E+00  0.00000000000E+00  0.10584393408E+03  0.10584393408E+03  0.00000000000E+00 0. -1.
         21   -1    0    0  502  503 -0.00000000000E+00 -0.00000000000E+00 -0.49428145170E+03  0.49428145170E+03  0.00000000000E+00 0.  1.
          6    1    1    2  501    0 -0.44207349580E+02 -0.14334400870E+03 -0.17428438027E+03  0.28715995507E+03  0.17200000000E+03 0.  1.
         -6    1    1    2    0  503  0.44207349580E+02  0.14334400870E+03 -0.21415313735E+03  0.31296543072E+03  0.17200000000E+03 0. -1.
</event>
<event>
 4    1  0.4386646E+000  0.1723845E+03  0.7818608E-02  0.1175384E+00
         21   -1    0    0  501  502  0.00000000000E+00  0.00000000000E+00  0.46337447675E+03  0.46337447675E+03  0.00000000000E+00 0. -1.
         21   -1    0    0  502  503 -0.00000000000E+00 -0.00000000000E+00 -0.25480456807E+03  0.25480456807E+03  0.00000000000E+00 0. -1.
          6    1    1    2  501    0 -0.19123322018E+01  0.11347184640E+02  0.41491609900E+03  0.44930144093E+03  0.17200000000E+03 0. -1.
         -6    1    1    2    0  503  0.19123322018E+01 -0.11347184640E+02 -0.20634619032E+03  0.26887760389E+03  0.17200000000E+03 0. -1.
</event>
<event>
 4    1  0.4386646E+000  0.1892333E+03  0.7818608E-02  0.1159155E+00
         21   -1    0    0  503  502  0.00000000000E+00  0.00000000000E+00  0.16044363226E+03  0.16044363226E+03  0.00000000000E+00 0.  1.
         21   -1    0    0  501  503 -0.00000000000E+00 -0.00000000000E+00 -0.23743229439E+03  0.23743229439E+03  0.00000000000E+00 0. -1.
          6    1    1    2  501    0  0.45472802315E+02 -0.64478428366E+02 -0.87219570615E+02  0.20836625680E+03  0.17200000000E+03 0. -1.
         -6    1    1    2    0  502 -0.45472802315E+02  0.64478428366E+02  0.10230908484E+02  0.18950966984E+03  0.17200000000E+03 0.  1.
</event>
<event>
 4    1  0.4386646E+000  0.1731287E+03  0.7818608E-02  0.1174624E+00
         21   -1    0    0  503  502  0.00000000000E+00  0.00000000000E+00  0.51297089345E+03  0.51297089345E+03  0.00000000000E+00 0. -1.
         21   -1    0    0  501  503 -0.00000000000E+00 -0.00000000000E+00 -0.10108463106E+03  0.10108463106E+03  0.00000000000E+00 0. -1.
          6    1    1    2  501    0  0.12555205250E+02  0.15228541144E+02  0.65033894852E+01  0.17325078851E+03  0.17200000000E+03 0. -1.
         -6    1    1    2    0  502 -0.12555205250E+02 -0.15228541144E+02  0.40538287290E+03  0.44080473600E+03  0.17200000000E+03 0. -1.
</event>
<event>
 4    1  0.4386646E+000  0.2048988E+03  0.7818608E-02  0.1145670E+00
         21   -1    0    0  503  502  0.00000000000E+00  0.00000000000E+00  0.13556427429E+03  0.13556427429E+03  0.00000000000E+00 0. -1.
         21   -1    0    0  501  503 -0.00000000000E+00 -0.00000000000E+00 -0.31667959905E+03  0.31667959905E+03  0.00000000000E+00 0. -1.
          6    1    1    2  501    0  0.22228095435E+02 -0.10911204789E+03 -0.12414031689E+03  0.23957117001E+03  0.17200000000E+03 0.  1.
         -6    1    1    2    0  502 -0.22228095435E+02  0.10911204789E+03 -0.56975007872E+02  0.21267270333E+03  0.17200000000E+03 0.  1.
</event>
<event>
 4    1  0.4386646E+000  0.1762247E+03  0.7818608E-02  0.1171508E+00
         21   -1    0    0  501  502  0.00000000000E+00  0.00000000000E+00  0.10682333304E+03  0.10682333304E+03  0.00000000000E+00 0. -1.
         21   -1    0    0  502  503 -0.00000000000E+00 -0.00000000000E+00 -0.31337215307E+03  0.31337215307E+03  0.00000000000E+00 0. -1.
          6    1    1    2  501    0  0.31735066336E+02  0.21541635231E+02 -0.46781642729E+02  0.18232849086E+03  0.17200000000E+03 0. -1.
         -6    1    1    2    0  503 -0.31735066336E+02 -0.21541635231E+02 -0.15976717731E+03  0.23786699525E+03  0.17200000000E+03 0. -1.
</event>
<event>
 4    1  0.4386646E+000  0.1856805E+03  0.7818608E-02  0.1162416E+00
         21   -1    0    0  503  502  0.00000000000E+00  0.00000000000E+00  0.32129777210E+03  0.32129777210E+03  0.00000000000E+00 0. -1.
         21   -1    0    0  501  503 -0.00000000000E+00 -0.00000000000E+00 -0.11200928602E+03  0.11200928602E+03  0.00000000000E+00 0.  1.
          6    1    1    2  501    0 -0.19312981291E+02 -0.67232807229E+02  0.60249615968E+02  0.19521080359E+03  0.17200000000E+03 0.  1.
         -6    1    1    2    0  502  0.19312981291E+02  0.67232807229E+02  0.14903887011E+03  0.23809625453E+03  0.17200000000E+03 0. -1.
</event>
<event>
 4    1  0.4386646E+000  0.2504074E+03  0.7818608E-02  0.1113048E+00
         21   -1    0    0  501  502  0.00000000000E+00  0.00000000000E+00  0.44074215633E+03  0.44074215633E+03  0.00000000000E+00 0.  1.
         21   -1    0    0  502  503 -0.00000000000E+00 -0.00000000000E+00 -0.15787092817E+03  0.15787092817E+03  0.00000000000E+00 0. -1.
          6    1    1    2  501    0 -0.17664251729E+03 -0.43786799607E+02  0.23552852187E+03  0.34376961377E+03  0.17200000000E+03 0.  1.
         -6    1    1    2    0  503  0.17664251729E+03  0.43786799607E+02  0.47342706292E+02  0.25484347073E+03  0.17200000000E+03 0. -1.
</event>
<event>
 4    1  0.4386646E+000  0.2171386E+03  0.7818608E-02  0.1136034E+00
         21   -1    0    0  503  502  0.00000000000E+00  0.00000000000E+00  0.42686660889E+03  0.42686660889E+03  0.00000000000E+00 0.  1.
         21   -1    0    0  501  503 -0.00000000000E+00 -0.00000000000E+00 -0.17764595166E+03  0.17764595166E+03  0.00000000000E+00 0.  1.
          6    1    1    2  501    0  0.33400127525E+02 -0.12825598088E+03 -0.61279657711E+02  0.22561994947E+03  0.17200000000E+03 0.  1.
         -6    1    1    2    0  502 -0.33400127525E+02  0.12825598088E+03  0.31050031494E+03  0.37889261108E+03  0.17200000000E+03 0.  1.
</event>
<event>
 4    1  0.4386646E+000  0.2146040E+03  0.7818608E-02  0.1137971E+00
         21   -1    0    0  501  502  0.00000000000E+00  0.00000000000E+00  0.21027999599E+03  0.21027999599E+03  0.00000000000E+00 0.  1.
         21   -1    0    0  502  503 -0.00000000000E+00 -0.00000000000E+00 -0.22350106094E+03  0.22350106094E+03  0.00000000000E+00 0. -1.
          6    1    1    2  501    0  0.12794295693E+03 -0.10073819910E+02 -0.37331809521E+02  0.21782687180E+03  0.17200000000E+03 0. -1.
         -6    1    1    2    0  503 -0.12794295693E+03  0.10073819910E+02  0.24110744576E+02  0.21595418514E+03  0.17200000000E+03 0.  1.
</event>
<event>
 4    1  0.4386646E+000  0.2451569E+03  0.7818608E-02  0.1116404E+00
         21   -1    0    0  501  502  0.00000000000E+00  0.00000000000E+00  0.57593624251E+03  0.57593624251E+03  0.00000000000E+00 0.  1.
         21   -1    0    0  502  503 -0.00000000000E+00 -0.00000000000E+00 -0.21627038784E+03  0.21627038784E+03  0.00000000000E+00 0.  1.
          6    1    1    2  501    0  0.66947216334E+02 -0.16135666591E+03  0.46477369561E+03  0.52546787870E+03  0.17200000000E+03 0.  1.
         -6    1    1    2    0  503 -0.66947216334E+02  0.16135666591E+03 -0.10510784094E+03  0.26673875166E+03  0.17200000000E+03 0.  1.
</event>
<event>
 4    1  0.4386646E+000  0.1765865E+03  0.7818608E-02  0.1171148E+00
         21   -1    0    0  501  502  0.00000000000E+00  0.00000000000E+00  0.25820024816E+02  0.25820024816E+02  0.00000000000E+00 0.  1.
         21   -1    0    0  502  503 -0.00000000000E+00 -0.00000000000E+00 -0.13224500319E+04  0.13224500319E+04  0.00000000000E+00 0.  1.
          6    1    1    2  501    0  0.45694876116E+01 -0.39723066600E+02 -0.44973444668E+03  0.48316029925E+03  0.17200000000E+03 0.  1.
         -6    1    1    2    0  503 -0.45694876116E+01  0.39723066600E+02 -0.84689556042E+03  0.86510975749E+03  0.17200000000E+03 0.  1.
</event>
<event>
 4    1  0.4386646E+000  0.2542385E+03  0.7818608E-02  0.1110655E+00
         21   -1    0    0  503  502  0.00000000000E+00  0.00000000000E+00  0.11726502522E+03  0.11726502522E+03  0.00000000000E+00 0. -1.
         21   -1    0    0  501  503 -0.00000000000E+00 -0.00000000000E+00 -0.75360662102E+03  0.75360662102E+03  0.00000000000E+00 0.  1.
          6    1    1    2  501    0  0.90866517707E+02  0.16369630765E+03 -0.54383233546E+03  0.60032559022E+03  0.17200000000E+03 0.  1.
         -6    1    1    2    0  502 -0.90866517707E+02 -0.16369630765E+03 -0.92509260349E+02  0.27054605602E+03  0.17200000000E+03 0. -1.
</event>
<event>
 4    1  0.4386646E+000  0.1912661E+03  0.7818608E-02  0.1157324E+00
         21   -1    0    0  503  502  0.00000000000E+00  0.00000000000E+00  0.48422207501E+03  0.48422207501E+03  0.00000000000E+00 0. -1.
         21   -1    0    0  501  503 -0.00000000000E+00 -0.00000000000E+00 -0.10159944833E+03  0.10159944833E+03  0.00000000000E+00 0. -1.
          6    1    1    2  501    0  0.14838554989E+02 -0.82331986648E+02  0.42993595880E+02  0.19603874114E+03  0.17200000000E+03 0. -1.
         -6    1    1    2    0  502 -0.14838554989E+02  0.82331986648E+02  0.33962903080E+03  0.38978278221E+03  0.17200000000E+03 0. -1.
</event>
<event>
 4    1  0.4386646E+000  0.2744639E+03  0.7818608E-02  0.1098752E+00
         21   -1    0    0  503  502  0.00000000000E+00  0.00000000000E+00  0.40502931031E+02  0.40502931031E+02  0.00000000000E+00 0.  1.
         21   -1    0    0  501  503 -0.00000000000E+00 -0.00000000000E+00 -0.25111703596E+04  0.25111703596E+04  0.00000000000E+00 0.  1.
          6    1    1    2  501    0 -0.72187469246E+02  0.20133410525E+03 -0.18850824611E+04  0.19049583559E+04  0.17200000000E+03 0.  1.
         -6    1    1    2    0  502  0.72187469246E+02 -0.20133410525E+03 -0.58558496752E+03  0.64671493476E+03  0.17200000000E+03 0.  1.
</event>
<event>
 4    1  0.4386646E+000  0.2282811E+03  0.7818608E-02  0.1127856E+00
         21   -1    0    0  501  502  0.00000000000E+00  0.00000000000E+00  0.47886315383E+03  0.47886315383E+03  0.00000000000E+00 0. -1.
         21   -1    0    0  502  503 -0.00000000000E+00 -0.00000000000E+00 -0.11130625541E+03  0.11130625541E+03  0.00000000000E+00 0.  1.
          6    1    1    2  501    0  0.15150504379E+02 -0.14932749438E+03  0.22783705544E+03  0.32252435907E+03  0.17200000000E+03 0.  1.
         -6    1    1    2    0  503 -0.15150504379E+02  0.14932749438E+03  0.13971984298E+03  0.26764505017E+03  0.17200000000E+03 0. -1.
</event>
<event>
 4    1  0.4386646E+000  0.1864740E+03  0.7818608E-02  0.1161681E+00
         21   -1    0    0  501  502  0.00000000000E+00  0.00000000000E+00  0.38449797510E+03  0.38449797510E+03  0.00000000000E+00 0. -1.
         21   -1    0    0  502  503 -0.00000000000E+00 -0.00000000000E+00 -0.10571259358E+03  0.10571259358E+03  0.00000000000E+00 0. -1.
          6    1    1    2  501    0 -0.42692432745E+02 -0.58016317782E+02  0.23256775200E+03  0.29809444177E+03  0.17200000000E+03 0. -1.
         -6    1    1    2    0  503  0.42692432745E+02  0.58016317782E+02  0.46217629513E+02  0.19211612691E+03  0.17200000000E+03 0. -1.
</event>
<event>
 4    1  0.4386646E+000  0.2188665E+03  0.7818608E-02  0.1134731E+00
         21   -1    0    0  503  502  0.00000000000E+00  0.00000000000E+00  0.22944096757E+04  0.22944096757E+04  0.00000000000E+00 0.  1.
         21   -1    0    0  501  503 -0.00000000000E+00 -0.00000000000E+00 -0.29717141174E+02  0.29717141174E+02  0.00000000000E+00 0.  1.
          6    1    1    2  501    0 -0.34257732368E+02 -0.13093867550E+03  0.49857430773E+03  0.54449873214E+03  0.17200000000E+03 0.  1.
         -6    1    1    2    0  502  0.34257732368E+02  0.13093867550E+03  0.17661182268E+04  0.17796280848E+04  0.17200000000E+03 0.  1.
</event>
<event>
 4    1  0.4386646E+000  0.1898801E+03  0.7818608E-02  0.1158570E+00
         21   -1    0    0  501  502  0.00000000000E+00  0.00000000000E+00  0.96478837559E+02  0.96478837559E+02  0.00000000000E+00 0. -1.
         21   -1    0    0  502  503 -0.00000000000E+00 -0.00000000000E+00 -0.61017772435E+03  0.61017772435E+03  0.00000000000E+00 0. -1.
          6    1    1    2  501    0 -0.70549938603E+02  0.38641468646E+02 -0.36890136054E+02  0.19343045022E+03  0.17200000000E+03 0. -1.
         -6    1    1    2    0  503  0.70549938603E+02 -0.38641468646E+02 -0.47680875073E+03  0.51322611168E+03  0.17200000000E+03 0. -1.
</event>
<event>
 4    1  0.4386646E+000  0.1864542E+03  0.7818608E-02  0.1161699E+00
         21   -1    0    0  503  502  0.00000000000E+00  0.00000000000E+00  0.11074835420E+04  0.11074835420E+04  0.00000000000E+00 0. -1.
         21   -1    0    0  501  503 -0.00000000000E+00 -0.00000000000E+00 -0.34369882306E+02  0.34369882306E+02  0.00000000000E+00 0. -1.
          6    1    1    2  501    0  0.70046668040E+02  0.16572054912E+02  0.36847995957E+03  0.41296809721E+03  0.17200000000E+03 0. -1.
         -6    1    1    2    0  502 -0.70046668040E+02 -0.16572054912E+02  0.70463370014E+03  0.72888532712E+03  0.17200000000E+03 0. -1.
</event>
<event>
 4    1  0.4386646E+000  0.2756708E+03  0.7818608E-02  0.1098077E+00
         21   -1    0    0  501  502  0.00000000000E+00  0.00000000000E+00  0.37824771321E+03  0.37824771321E+03  0.00000000000E+00 0. -1.
         21   -1    0    0  502  503 -0.00000000000E+00 -0.00000000000E+00 -0.20196272848E+03  0.20196272848E+03  0.00000000000E+00 0.  1.
          6    1    1    2  501    0  0.14559496136E+03  0.15878451127E+03  0.67215116839E+02  0.28374686910E+03  0.17200000000E+03 0.  1.
         -6    1    1    2    0  503 -0.14559496136E+03 -0.15878451127E+03  0.10906986788E+03  0.29646357259E+03  0.17200000000E+03 0. -1.
</event>
<event>
 4    1  0.4386646E+000  0.1900348E+03  0.7818608E-02  0.1158430E+00
         21   -1    0    0  501  502  0.00000000000E+00  0.00000000000E+00  0.20029052246E+04  0.20029052246E+04  0.00000000000E+00 0.  1.
         21   -1    0    0  502  503 -0.00000000000E+00 -0.00000000000E+00 -0.49177382934E+02  0.49177382934E+02  0.00000000000E+00 0.  1.
          6    1    1    2  501    0  0.64019801648E+02  0.49301974774E+02  0.17934274893E+04  0.18034675986E+04  0.17200000000E+03 0.  1.
         -6    1    1    2    0  503 -0.64019801648E+02 -0.49301974774E+02  0.16030035241E+03  0.24861500900E+03  0.17200000000E+03 0.  1.
</event>
<event>
 4    1  0.4386646E+000  0.1919408E+03  0.7818608E-02  0.1156722E+00
         21   -1    0    0  501  502  0.00000000000E+00  0.00000000000E+00  0.52538142575E+02  0.52538142575E+02  0.00000000000E+00 0. -1.
         21   -1    0    0  502  503 -0.00000000000E+00 -0.00000000000E+00 -0.82807994177E+03  0.82807994177E+03  0.00000000000E+00 0. -1.
          6    1    1    2  501    0 -0.82359036812E+02 -0.21777832846E+02 -0.21543815455E+03  0.28853922330E+03  0.17200000000E+03 0. -1.
         -6    1    1    2    0  503  0.82359036812E+02  0.21777832846E+02 -0.56010364465E+03  0.59207886105E+03  0.17200000000E+03 0. -1.
</event>
<event>
 4    1  0.4386646E+000  0.1798065E+03  0.7818608E-02  0.1167990E+00
         21   -1    0    0  501  502  0.00000000000E+00  0.00000000000E+00  0.11380729360E+03  0.11380729360E+03  0.00000000000E+00 0. -1.
         21   -1    0    0  502  503 -0.00000000000E+00 -0.00000000000E+00 -0.37527050460E+03  0.37527050460E+03  0.00000000000E+00 0. -1.
          6    1    1    2  501    0 -0.52348559795E+02 -0.24482381308E+01 -0.10186171816E+02  0.18009476305E+03  0.17200000000E+03 0. -1.
         -6    1    1    2    0  503  0.52348559795E+02  0.24482381308E+01 -0.25127703918E+03  0.30898303514E+03  0.17200000000E+03 0. -1.
</event>
<event>
 4    1  0.4386646E+000  0.2164857E+03  0.7818608E-02  0.1136531E+00
         21   -1    0    0  501  502  0.00000000000E+00  0.00000000000E+00  0.68877935012E+03  0.68877935012E+03  0.00000000000E+00 0. -1.
         21   -1    0    0  502  503 -0.00000000000E+00 -0.00000000000E+00 -0.68048434311E+02  0.68048434311E+02  0.00000000000E+00 0.  1.
          6    1    1    2  501    0 -0.13759270936E+02  0.13073919734E+03  0.31399045643E+03  0.38138702389E+03  0.17200000000E+03 0.  1.
         -6    1    1    2    0  503  0.13759270936E+02 -0.13073919734E+03  0.30674045938E+03  0.37544076054E+03  0.17200000000E+03 0.  1.
</event>
<event>
 4    1  0.4386646E+000  0.2381513E+03  0.7818608E-02  0.1121031E+00
         21   -1    0    0  503  502  0.00000000000E+00  0.00000000000E+00  0.17184692437E+04  0.17184692437E+04  0.00000000000E+00 0.  1.
         21   -1    0    0  501  503 -0.00000000000E+00 -0.00000000000E+00 -0.56876572708E+02  0.56876572708E+02  0.00000000000E+00 0.  1.
          6    1    1    2  501    0 -0.16140273956E+03  0.32881681927E+02  0.25570409603E+03  0.34942901149E+03  0.17200000000E+03 0. -1.
         -6    1    1    2    0  502  0.16140273956E+03 -0.32881681927E+02  0.14058885749E+04  0.14259168049E+04  0.17200000000E+03 0. -1.
</event>
<event>
 4    1  0.4386646E+000  0.2144918E+03  0.7818608E-02  0.1138058E+00
         21   -1    0    0  501  502  0.00000000000E+00  0.00000000000E+00  0.39362518231E+03  0.39362518231E+03  0.00000000000E+00 0.  1.
         21   -1    0    0  502  503 -0.00000000000E+00 -0.00000000000E+00 -0.11722507846E+03  0.11722507846E+03  0.00000000000E+00 0. -1.
          6    1    1    2  501    0 -0.60161499836E+02  0.11315176043E+03  0.12433227615E+03  0.24792184624E+03  0.17200000000E+03 0.  1.
         -6    1    1    2    0  503  0.60161499836E+02 -0.11315176043E+03  0.15206782770E+03  0.26292841454E+03  0.17200000000E+03 0. -1.
</event>
<event>
 4    1  0.4386646E+000  0.3197798E+03  0.7818608E-02  0.1075751E+00
         21   -1    0    0  503  502  0.00000000000E+00  0.00000000000E+00  0.49398693629E+03  0.49398693629E+03  0.00000000000E+00 0. -1.
         21   -1    0    0  501  503 -0.00000000000E+00 -0.00000000000E+00 -0.52357644526E+03  0.52357644526E+03  0.00000000000E+00 0.  1.
          6    1    1    2  501    0 -0.22729575542E+03 -0.14495425394E+03 -0.41041221075E+03  0.52028576658E+03  0.17200000000E+03 0.  1.
         -6    1    1    2    0  502  0.22729575542E+03  0.14495425394E+03  0.38082270177E+03  0.49727761498E+03  0.17200000000E+03 0. -1.
</event>
<event>
 4    1  0.4386646E+000  0.2886232E+03  0.7818608E-02  0.1091070E+00
         21   -1    0    0  503  502  0.00000000000E+00  0.00000000000E+00  0.44779160615E+03  0.44779160615E+03  0.00000000000E+00 0.  1.
         21   -1    0    0  501  503 -0.00000000000E+00 -0.00000000000E+00 -0.49551123283E+03  0.49551123283E+03  0.00000000000E+00 0. -1.
          6    1    1    2  501    0  0.22659379374E+03 -0.48729822320E+02 -0.39660367685E+03  0.49050771598E+03  0.17200000000E+03 0. -1.
         -6    1    1    2    0  502 -0.22659379374E+03  0.48729822320E+02  0.34888405017E+03  0.45279512300E+03  0.17200000000E+03 0.  1.
</event>
