<event>
 4    1  0.1181383E+000  0.2031068E+03  0.7818608E-02  0.1147144E+00
         21   -1    0    0  503  502  0.00000000000E+00  0.00000000000E+00  0.35802837423E+03  0.35802837423E+03  0.00000000000E+00 0.  1.
         21   -1    0    0  501  503 -0.00000000000E+00 -0.00000000000E+00 -0.16842118775E+03  0.16842118775E+03  0.00000000000E+00 0.  1.
          6    1    1    2  501    0 -0.24547873832E+02 -0.10519389572E+03 -0.53136325058E+02  0.20994242746E+03  0.17200000000E+03 0.  1.
         -6    1    1    2    0  502  0.24547873832E+02  0.10519389572E+03  0.24274351154E+03  0.31650713452E+03  0.17200000000E+03 0.  1.
</event>
<event>
 4    1  0.1181383E+000  0.2308243E+03  0.7818608E-02  0.1126061E+00
         21   -1    0    0  503  502  0.00000000000E+00  0.00000000000E+00  0.33937003782E+03  0.33937003782E+03  0.00000000000E+00 0. -1.
         21   -1    0    0  501  503 -0.00000000000E+00 -0.00000000000E+00 -0.22714753690E+03  0.22714753690E+03  0.00000000000E+00 0. -1.
          6    1    1    2  501    0  0.86936369165E+02 -0.12703507770E+03 -0.10130407618E+03  0.25207609784E+03  0.17200000000E+03 0. -1.
         -6    1    1    2    0  502 -0.86936369165E+02  0.12703507770E+03  0.21352657710E+03  0.31444147688E+03  0.17200000000E+03 0. -1.
</event>
<event>
 4    1  0.1181383E+000  0.2538391E+03  0.7818608E-02  0.1110902E+00
         21   -1    0    0  501  502  0.00000000000E+00  0.00000000000E+00  0.21066689242E+03  0.21066689242E+03  0.00000000000E+00 0. -1.
         21   -1    0    0  502  503 -0.00000000000E+00 -0.00000000000E+00 -0.32403768396E+03  0.32403768396E+03  0.00000000000E+00 0.  1.
          6    1    1    2  501    0  0.69494678776E+02  0.17326500637E+03 -0.12001001622E+03  0.28077869721E+03  0.17200000000E+03 0.  1.
         -6    1    1    2    0  503 -0.69494678776E+02 -0.17326500637E+03  0.66392246887E+01  0.25392587918E+03  0.17200000000E+03 0. -1.
</event>
<event>
 4    1  0.1181383E+000  0.2048802E+03  0.7818608E-02  0.1145686E+00
         21   -1    0    0  501  502  0.00000000000E+00  0.00000000000E+00  0.11762349542E+04  0.11762349542E+04  0.00000000000E+00 0.  1.
         21   -1    0    0  502  503 -0.00000000000E+00 -0.00000000000E+00 -0.83273852075E+02  0.83273852075E+02  0.00000000000E+00 0.  1.
          6    1    1    2  501    0 -0.10191044455E+03  0.44790276104E+02  0.10225407610E+04  0.10428640925E+04  0.17200000000E+03 0.  1.
         -6    1    1    2    0  503  0.10191044455E+03 -0.44790276104E+02  0.70420341070E+02  0.21664471371E+03  0.17200000000E+03 0.  1.
</event>
<event>
 4    1  0.1181383E+000  0.1813314E+03  0.7818608E-02  0.1166521E+00
         21   -1    0    0  503  502  0.00000000000E+00  0.00000000000E+00  0.35639720608E+03  0.35639720608E+03  0.00000000000E+00 0. -1.
         21   -1    0    0  501  503 -0.00000000000E+00 -0.00000000000E+00 -0.35494426513E+03  0.35494426513E+03  0.00000000000E+00 0. -1.
          6    1    1    2  501    0 -0.21209021863E+02  0.53359530303E+02 -0.30524815740E+03  0.35504577125E+03  0.17200000000E+03 0. -1.
         -6    1    1    2    0  502  0.21209021863E+02 -0.53359530303E+02  0.30670109836E+03  0.35629569997E+03  0.17200000000E+03 0. -1.
</event>
<event>
 4    1  0.1181383E+000  0.1853672E+03  0.7818608E-02  0.1162707E+00
         21   -1    0    0  501  502  0.00000000000E+00  0.00000000000E+00  0.11174459781E+03  0.11174459781E+03  0.00000000000E+00 0.  1.
         21   -1    0    0  502  503 -0.00000000000E+00 -0.00000000000E+00 -0.30926975740E+03  0.30926975740E+03  0.00000000000E+00 0.  1.
          6    1    1    2  501    0  0.17273116286E+02  0.66922698568E+02 -0.82820137861E+02  0.20302754337E+03  0.17200000000E+03 0. -1.
         -6    1    1    2    0  503 -0.17273116286E+02 -0.66922698568E+02 -0.11470502172E+03  0.21798681185E+03  0.17200000000E+03 0. -1.
</event>
<event>
 4    1  0.1181383E+000  0.2155723E+03  0.7818608E-02  0.1137228E+00
         21   -1    0    0  501  502  0.00000000000E+00  0.00000000000E+00  0.22104061688E+03  0.22104061688E+03  0.00000000000E+00 0. -1.
         21   -1    0    0  502  503 -0.00000000000E+00 -0.00000000000E+00 -0.24811382341E+03  0.24811382341E+03  0.00000000000E+00 0. -1.
          6    1    1    2  501    0  0.12933165793E+03  0.12678954347E+02  0.78113658153E+02  0.22928841492E+03  0.17200000000E+03 0. -1.
         -6    1    1    2    0  503 -0.12933165793E+03 -0.12678954347E+02 -0.10518686468E+03  0.23986602537E+03  0.17200000000E+03 0. -1.
</event>
<event>
 4    1  0.1181383E+000  0.2457896E+03  0.7818608E-02  0.1115995E+00
         21   -1    0    0  503  502  0.00000000000E+00  0.00000000000E+00  0.18755435642E+04  0.18755435642E+04  0.00000000000E+00 0. -1.
         21   -1    0    0  501  503 -0.00000000000E+00 -0.00000000000E+00 -0.34339584172E+02  0.34339584172E+02  0.00000000000E+00 0.  1.
          6    1    1    2  501    0 -0.61352037920E+02 -0.16451282210E+03  0.68283206144E+03  0.72572182365E+03  0.17200000000E+03 0.  1.
         -6    1    1    2    0  502  0.61352037920E+02  0.16451282210E+03  0.11583719185E+04  0.11841613247E+04  0.17200000000E+03 0. -1.
</event>
<event>
 4    1  0.1181383E+000  0.2778293E+03  0.7818608E-02  0.1096880E+00
         21   -1    0    0  503  502  0.00000000000E+00  0.00000000000E+00  0.20169121282E+03  0.20169121282E+03  0.00000000000E+00 0. -1.
         21   -1    0    0  501  503 -0.00000000000E+00 -0.00000000000E+00 -0.46900812161E+03  0.46900812161E+03  0.00000000000E+00 0.  1.
          6    1    1    2  501    0 -0.10925525381E+03 -0.18886076920E+03 -0.27750855132E+03  0.39268320143E+03  0.17200000000E+03 0.  1.
         -6    1    1    2    0  502  0.10925525381E+03  0.18886076920E+03  0.10191642530E+02  0.27801613300E+03  0.17200000000E+03 0. -1.
</event>
<event>
 4    1  0.1181383E+000  0.2096525E+03  0.7818608E-02  0.1141841E+00
         21   -1    0    0  503  502  0.00000000000E+00  0.00000000000E+00  0.66119062263E+03  0.66119062263E+03  0.00000000000E+00 0. -1.
         21   -1    0    0  501  503 -0.00000000000E+00 -0.00000000000E+00 -0.94144227017E+02  0.94144227017E+02  0.00000000000E+00 0. -1.
          6    1    1    2  501    0 -0.11212868653E+03 -0.42394874357E+02  0.78787704981E+02  0.22396801149E+03  0.17200000000E+03 0. -1.
         -6    1    1    2    0  502  0.11212868653E+03  0.42394874357E+02  0.48825869063E+03  0.53136683815E+03  0.17200000000E+03 0. -1.
</event>
<event>
 4    1  0.1181383E+000  0.2017306E+03  0.7818608E-02  0.1148287E+00
         21   -1    0    0  503  502  0.00000000000E+00  0.00000000000E+00  0.38217845979E+03  0.38217845979E+03  0.00000000000E+00 0.  1.
         21   -1    0    0  501  503 -0.00000000000E+00 -0.00000000000E+00 -0.10707972418E+03  0.10707972418E+03  0.00000000000E+00 0.  1.
          6    1    1    2  501    0 -0.75260767828E+02 -0.73804143252E+02  0.15582204687E+03  0.25490340333E+03  0.17200000000E+03 0.  1.
         -6    1    1    2    0  502  0.75260767828E+02  0.73804143252E+02  0.11927668874E+03  0.23435478064E+03  0.17200000000E+03 0.  1.
</event>
<event>
 4    1  0.1181383E+000  0.2224807E+03  0.7818608E-02  0.1132047E+00
         21   -1    0    0  503  502  0.00000000000E+00  0.00000000000E+00  0.14044085860E+03  0.14044085860E+03  0.00000000000E+00 0. -1.
         21   -1    0    0  501  503 -0.00000000000E+00 -0.00000000000E+00 -0.35815971424E+03  0.35815971424E+03  0.00000000000E+00 0. -1.
          6    1    1    2  501    0  0.13426910420E+03 -0.43421861572E+02 -0.14035063039E+03  0.26305123048E+03  0.17200000000E+03 0. -1.
         -6    1    1    2    0  502 -0.13426910420E+03  0.43421861572E+02 -0.77368225253E+02  0.23554934235E+03  0.17200000000E+03 0. -1.
</event>
<event>
 4    1  0.1181383E+000  0.2997527E+03  0.7818608E-02  0.1085364E+00
         21   -1    0    0  503  502  0.00000000000E+00  0.00000000000E+00  0.28416552678E+03  0.28416552678E+03  0.00000000000E+00 0.  1.
         21   -1    0    0  501  503 -0.00000000000E+00 -0.00000000000E+00 -0.38319609898E+03  0.38319609898E+03  0.00000000000E+00 0. -1.
          6    1    1    2  501    0 -0.38754535189E+01 -0.24546415819E+03  0.90012977738E+02  0.31297605061E+03  0.17200000000E+03 0.  1.
         -6    1    1    2    0  502  0.38754535189E+01  0.24546415819E+03 -0.18904354994E+03  0.35438557514E+03  0.17200000000E+03 0. -1.
</event>
<event>
 4    1  0.1181383E+000  0.2545491E+03  0.7818608E-02  0.1110463E+00
         21   -1    0    0  501  502  0.00000000000E+00  0.00000000000E+00  0.58151099039E+03  0.58151099039E+03  0.00000000000E+00 0.  1.
         21   -1    0    0  502  503 -0.00000000000E+00 -0.00000000000E+00 -0.12477665065E+03  0.12477665065E+03  0.00000000000E+00 0.  1.
          6    1    1    2  501    0  0.17156951808E+03 -0.75994219339E+02  0.34388323691E+03  0.42784448289E+03  0.17200000000E+03 0. -1.
         -6    1    1    2    0  503 -0.17156951808E+03  0.75994219339E+02  0.11285110283E+03  0.27844315815E+03  0.17200000000E+03 0. -1.
</event>
<event>
 4    1  0.1181383E+000  0.1842337E+03  0.7818608E-02  0.1163767E+00
         21   -1    0    0  503  502  0.00000000000E+00  0.00000000000E+00  0.28252980951E+03  0.28252980951E+03  0.00000000000E+00 0. -1.
         21   -1    0    0  501  503 -0.00000000000E+00 -0.00000000000E+00 -0.63309838238E+03  0.63309838238E+03  0.00000000000E+00 0.  1.
          6    1    1    2  501    0 -0.48763729925E+02  0.44499040575E+02 -0.58737821893E+03  0.61559340318E+03  0.17200000000E+03 0.  1.
         -6    1    1    2    0  502  0.48763729925E+02 -0.44499040575E+02  0.23680964606E+03  0.30003478871E+03  0.17200000000E+03 0. -1.
</event>
<event>
 4    1  0.1181383E+000  0.1913503E+03  0.7818608E-02  0.1157249E+00
         21   -1    0    0  503  502  0.00000000000E+00  0.00000000000E+00  0.15257491812E+03  0.15257491812E+03  0.00000000000E+00 0.  1.
         21   -1    0    0  501  503 -0.00000000000E+00 -0.00000000000E+00 -0.50016562315E+03  0.50016562315E+03  0.00000000000E+00 0.  1.
          6    1    1    2  501    0 -0.83849430170E+02 -0.46284201141E+00 -0.40918927862E+03  0.45171983230E+03  0.17200000000E+03 0.  1.
         -6    1    1    2    0  502  0.83849430170E+02  0.46284201141E+00  0.61598573588E+02  0.20102070896E+03  0.17200000000E+03 0.  1.
</event>
<event>
 4    1  0.1181383E+000  0.2173533E+03  0.7818608E-02  0.1135872E+00
         21   -1    0    0  503  502  0.00000000000E+00  0.00000000000E+00  0.96090712579E+03  0.96090712579E+03  0.00000000000E+00 0.  1.
         21   -1    0    0  501  503 -0.00000000000E+00 -0.00000000000E+00 -0.19534122227E+03  0.19534122227E+03  0.00000000000E+00 0.  1.
          6    1    1    2  501    0 -0.12578310083E+03 -0.42861104120E+02 -0.11732455675E+03  0.24699699253E+03  0.17200000000E+03 0.  1.
         -6    1    1    2    0  502  0.12578310083E+03  0.42861104120E+02  0.88289046027E+03  0.90925135553E+03  0.17200000000E+03 0.  1.
</event>
<event>
 4    1  0.1181383E+000  0.6375998E+03  0.7818608E-02  0.9830330E-01
         21   -1    0    0  501  502  0.00000000000E+00  0.00000000000E+00  0.30743194968E+03  0.30743194968E+03  0.00000000000E+00 0.  1.
         21   -1    0    0  502  503 -0.00000000000E+00 -0.00000000000E+00 -0.13248065933E+04  0.13248065933E+04  0.00000000000E+00 0. -1.
          6    1    1    2  501    0  0.12149529961E+03  0.60182087566E+03 -0.47356334736E+03  0.79422649048E+03  0.17200000000E+03 0.  1.
         -6    1    1    2    0  503 -0.12149529961E+03 -0.60182087566E+03 -0.54381129628E+03  0.83801205252E+03  0.17200000000E+03 0. -1.
</event>
<event>
 4    1  0.1181383E+000  0.1808760E+03  0.7818608E-02  0.1166958E+00
         21   -1    0    0  503  502  0.00000000000E+00  0.00000000000E+00  0.56149680014E+02  0.56149680014E+02  0.00000000000E+00 0. -1.
         21   -1    0    0  501  503 -0.00000000000E+00 -0.00000000000E+00 -0.58812800952E+03  0.58812800952E+03  0.00000000000E+00 0.  1.
          6    1    1    2  501    0 -0.50524727942E+02 -0.24070650623E+02 -0.29705204636E+03  0.34778738131E+03  0.17200000000E+03 0. -1.
         -6    1    1    2    0  502  0.50524727942E+02  0.24070650623E+02 -0.23492628315E+03  0.29649030822E+03  0.17200000000E+03 0. -1.
</event>
<event>
 4    1  0.1181383E+000  0.1777924E+03  0.7818608E-02  0.1169957E+00
         21   -1    0    0  503  502  0.00000000000E+00  0.00000000000E+00  0.66076200090E+03  0.66076200090E+03  0.00000000000E+00 0.  1.
         21   -1    0    0  501  503 -0.00000000000E+00 -0.00000000000E+00 -0.17878366693E+03  0.17878366693E+03  0.00000000000E+00 0.  1.
          6    1    1    2  501    0  0.42100743902E+02  0.15926362522E+02 -0.11825894682E+03  0.21353056025E+03  0.17200000000E+03 0.  1.
         -6    1    1    2    0  502 -0.42100743902E+02 -0.15926362522E+02  0.60023728078E+03  0.62601510757E+03  0.17200000000E+03 0.  1.
</event>
<event>
 4    1  0.1181383E+000  0.1974386E+03  0.7818608E-02  0.1151918E+00
         21   -1    0    0  501  502  0.00000000000E+00  0.00000000000E+00  0.13847086054E+04  0.13847086054E+04  0.00000000000E+00 0.  1.
         21   -1    0    0  502  503 -0.00000000000E+00 -0.00000000000E+00 -0.41674000192E+02  0.41674000192E+02  0.00000000000E+00 0.  1.
          6    1    1    2  501    0 -0.96822706049E+02  0.48329353462E+01  0.10777713103E+04  0.10957066172E+04  0.17200000000E+03 0.  1.
         -6    1    1    2    0  503  0.96822706049E+02 -0.48329353462E+01  0.26526329489E+03  0.33067598837E+03  0.17200000000E+03 0.  1.
</event>
<event>
 4    1  0.1181383E+000  0.1961527E+03  0.7818608E-02  0.1153026E+00
         21   -1    0    0  503  502  0.00000000000E+00  0.00000000000E+00  0.15364255570E+04  0.15364255570E+04  0.00000000000E+00 0.  1.
         21   -1    0    0  501  503 -0.00000000000E+00 -0.00000000000E+00 -0.53427604535E+02  0.53427604535E+02  0.00000000000E+00 0.  1.
          6    1    1    2  501    0 -0.85989720538E+02 -0.38699415157E+02  0.16208399941E+03  0.25445451388E+03  0.17200000000E+03 0.  1.
         -6    1    1    2    0  502  0.85989720538E+02  0.38699415157E+02  0.13209139531E+04  0.13353986477E+04  0.17200000000E+03 0.  1.
</event>
<event>
 4    1  0.1181383E+000  0.2507305E+03  0.7818608E-02  0.1112844E+00
         21   -1    0    0  501  502  0.00000000000E+00  0.00000000000E+00  0.97879152325E+02  0.97879152325E+02  0.00000000000E+00 0. -1.
         21   -1    0    0  502  503 -0.00000000000E+00 -0.00000000000E+00 -0.73825620313E+03  0.73825620313E+03  0.00000000000E+00 0.  1.
          6    1    1    2  501    0 -0.10656038937E+03 -0.14807653574E+03 -0.16944944523E+03  0.30262004479E+03  0.17200000000E+03 0. -1.
         -6    1    1    2    0  503  0.10656038937E+03  0.14807653574E+03 -0.47092760558E+03  0.53351531067E+03  0.17200000000E+03 0.  1.
</event>
<event>
 4    1  0.1181383E+000  0.1816617E+03  0.7818608E-02  0.1166204E+00
         21   -1    0    0  501  502  0.00000000000E+00  0.00000000000E+00  0.76898198192E+03  0.76898198192E+03  0.00000000000E+00 0. -1.
         21   -1    0    0  502  503 -0.00000000000E+00 -0.00000000000E+00 -0.43094328690E+02  0.43094328690E+02  0.00000000000E+00 0. -1.
          6    1    1    2  501    0 -0.58414703318E+02 -0.21707169612E+01  0.38912446934E+03  0.42944014974E+03  0.17200000000E+03 0. -1.
         -6    1    1    2    0  503  0.58414703318E+02  0.21707169612E+01  0.33676318390E+03  0.38263616087E+03  0.17200000000E+03 0. -1.
</event>
<event>
 4    1  0.1181383E+000  0.2234157E+03  0.7818608E-02  0.1131362E+00
         21   -1    0    0  503  502  0.00000000000E+00  0.00000000000E+00  0.29265498394E+03  0.29265498394E+03  0.00000000000E+00 0. -1.
         21   -1    0    0  501  503 -0.00000000000E+00 -0.00000000000E+00 -0.17203109872E+03  0.17203109872E+03  0.00000000000E+00 0. -1.
          6    1    1    2  501    0 -0.13185871067E+03  0.54257311490E+02  0.81813951754E+02  0.23792456395E+03  0.17200000000E+03 0. -1.
         -6    1    1    2    0  502  0.13185871067E+03 -0.54257311490E+02  0.38809933473E+02  0.22676151871E+03  0.17200000000E+03 0. -1.
</event>
<event>
 4    1  0.1181383E+000  0.1754018E+03  0.7818608E-02  0.1172329E+00
         21   -1    0    0  503  502  0.00000000000E+00  0.00000000000E+00  0.20778458408E+04  0.20778458408E+04  0.00000000000E+00 0.  1.
         21   -1    0    0  501  503 -0.00000000000E+00 -0.00000000000E+00 -0.25608309209E+02  0.25608309209E+02  0.00000000000E+00 0.  1.
          6    1    1    2  501    0 -0.29798195761E+02 -0.17142672743E+02  0.34305834946E+03  0.38529837118E+03  0.17200000000E+03 0.  1.
         -6    1    1    2    0  502  0.29798195761E+02  0.17142672743E+02  0.17091791822E+04  0.17181557789E+04  0.17200000000E+03 0.  1.
</event>
<event>
 4    1  0.1181383E+000  0.1869941E+03  0.7818608E-02  0.1161201E+00
         21   -1    0    0  503  502  0.00000000000E+00  0.00000000000E+00  0.38546614160E+03  0.38546614160E+03  0.00000000000E+00 0. -1.
         21   -1    0    0  501  503 -0.00000000000E+00 -0.00000000000E+00 -0.18037764057E+03  0.18037764057E+03  0.00000000000E+00 0. -1.
          6    1    1    2  501    0 -0.26539542866E+02 -0.68399052597E+02  0.30201806151E+03  0.35522061766E+03  0.17200000000E+03 0. -1.
         -6    1    1    2    0  502  0.26539542866E+02  0.68399052597E+02 -0.96929560483E+02  0.21062316451E+03  0.17200000000E+03 0. -1.
</event>
<event>
 4    1  0.1181383E+000  0.2631859E+03  0.7818608E-02  0.1105244E+00
         21   -1    0    0  501  502  0.00000000000E+00  0.00000000000E+00  0.63563437979E+02  0.63563437979E+02  0.00000000000E+00 0. -1.
         21   -1    0    0  502  503 -0.00000000000E+00 -0.00000000000E+00 -0.11633162045E+04  0.11633162045E+04  0.00000000000E+00 0.  1.
          6    1    1    2  501    0 -0.13598096153E+03 -0.14557470252E+03 -0.70416331400E+03  0.75173984110E+03  0.17200000000E+03 0.  1.
         -6    1    1    2    0  503  0.13598096153E+03  0.14557470252E+03 -0.39558945254E+03  0.47513980140E+03  0.17200000000E+03 0. -1.
</event>
<event>
 4    1  0.1181383E+000  0.2221696E+03  0.7818608E-02  0.1132276E+00
         21   -1    0    0  503  502  0.00000000000E+00  0.00000000000E+00  0.45909962034E+03  0.45909962034E+03  0.00000000000E+00 0.  1.
         21   -1    0    0  501  503 -0.00000000000E+00 -0.00000000000E+00 -0.22136091212E+03  0.22136091212E+03  0.00000000000E+00 0. -1.
          6    1    1    2  501    0  0.77849152588E+02  0.11711043993E+03 -0.12512754863E+03  0.25498284084E+03  0.17200000000E+03 0. -1.
         -6    1    1    2    0  502 -0.77849152588E+02 -0.11711043993E+03  0.36286625685E+03  0.42547769161E+03  0.17200000000E+03 0.  1.
</event>
<event>
 4    1  0.1181383E+000  0.1757351E+03  0.7818608E-02  0.1171996E+00
         21   -1    0    0  503  502  0.00000000000E+00  0.00000000000E+00  0.10820795605E+04  0.10820795605E+04  0.00000000000E+00 0. -1.
         21   -1    0    0  501  503 -0.00000000000E+00 -0.00000000000E+00 -0.51544171880E+02  0.51544171880E+02  0.00000000000E+00 0. -1.
          6    1    1    2  501    0 -0.17922581907E+02  0.31266591681E+02  0.13660709841E+03  0.22258552970E+03  0.17200000000E+03 0. -1.
         -6    1    1    2    0  502  0.17922581907E+02 -0.31266591681E+02  0.89392829017E+03  0.91103820264E+03  0.17200000000E+03 0. -1.
</event>
<event>
 4    1  0.1181383E+000  0.2709128E+03  0.7818608E-02  0.1100758E+00
         21   -1    0    0  503  502  0.00000000000E+00  0.00000000000E+00  0.27685530897E+03  0.27685530897E+03  0.00000000000E+00 0. -1.
         21   -1    0    0  501  503 -0.00000000000E+00 -0.00000000000E+00 -0.42260225047E+03  0.42260225047E+03  0.00000000000E+00 0.  1.
          6    1    1    2  501    0  0.20872875196E+03 -0.15558061528E+02 -0.28638032692E+03  0.39421749938E+03  0.17200000000E+03 0. -1.
         -6    1    1    2    0  502 -0.20872875196E+03  0.15558061528E+02  0.14063338541E+03  0.30524006006E+03  0.17200000000E+03 0. -1.
</event>
<event>
 4    1  0.1181383E+000  0.2536331E+03  0.7818608E-02  0.1111030E+00
         21   -1    0    0  503  502  0.00000000000E+00  0.00000000000E+00  0.13861277485E+03  0.13861277485E+03  0.00000000000E+00 0. -1.
         21   -1    0    0  501  503 -0.00000000000E+00 -0.00000000000E+00 -0.50338174832E+03  0.50338174832E+03  0.00000000000E+00 0. -1.
          6    1    1    2  501    0 -0.14417017891E+03  0.11815545052E+03 -0.27205826323E+03  0.37194818129E+03  0.17200000000E+03 0. -1.
         -6    1    1    2    0  502  0.14417017891E+03 -0.11815545052E+03 -0.92710710243E+02  0.27004634189E+03  0.17200000000E+03 0. -1.
</event>
<event>
 4    1  0.1181383E+000  0.1804782E+03  0.7818608E-02  0.1167341E+00
         21   -1    0    0  503  502  0.00000000000E+00  0.00000000000E+00  0.19600173063E+03  0.19600173063E+03  0.00000000000E+00 0. -1.
         21   -1    0    0  501  503 -0.00000000000E+00 -0.00000000000E+00 -0.19409237761E+03  0.19409237761E+03  0.00000000000E+00 0. -1.
          6    1    1    2  501    0 -0.24747294240E+02  0.48743849764E+02 -0.73005998858E+02  0.19468504650E+03  0.17200000000E+03 0. -1.
         -6    1    1    2    0  502  0.24747294240E+02 -0.48743849764E+02  0.74915351878E+02  0.19540906174E+03  0.17200000000E+03 0. -1.
</event>
<event>
 4    1  0.1181383E+000  0.2271095E+03  0.7818608E-02  0.1128691E+00
         21   -1    0    0  501  502  0.00000000000E+00  0.00000000000E+00  0.17457539669E+03  0.17457539669E+03  0.00000000000E+00 0. -1.
         21   -1    0    0  502  503 -0.00000000000E+00 -0.00000000000E+00 -0.31054101181E+03  0.31054101181E+03  0.00000000000E+00 0. -1.
          6    1    1    2  501    0 -0.14637683259E+03 -0.23844099662E+02 -0.14516367111E+02  0.22757294022E+03  0.17200000000E+03 0. -1.
         -6    1    1    2    0  503  0.14637683259E+03  0.23844099662E+02 -0.12144924801E+03  0.25754346827E+03  0.17200000000E+03 0. -1.
</event>
<event>
 4    1  0.1181383E+000  0.1901124E+03  0.7818608E-02  0.1158360E+00
         21   -1    0    0  503  502  0.00000000000E+00  0.00000000000E+00  0.14230406531E+03  0.14230406531E+03  0.00000000000E+00 0. -1.
         21   -1    0    0  501  503 -0.00000000000E+00 -0.00000000000E+00 -0.55530107170E+03  0.55530107170E+03  0.00000000000E+00 0. -1.
          6    1    1    2  501    0 -0.35193284395E+01  0.80909394833E+02 -0.46343659971E+03  0.50091535991E+03  0.17200000000E+03 0. -1.
         -6    1    1    2    0  502  0.35193284395E+01 -0.80909394833E+02  0.50439593310E+02  0.19668977711E+03  0.17200000000E+03 0. -1.
</event>
<event>
 4    1  0.1181383E+000  0.1739837E+03  0.7818608E-02  0.1173756E+00
         21   -1    0    0  503  502  0.00000000000E+00  0.00000000000E+00  0.14575040928E+03  0.14575040928E+03  0.00000000000E+00 0.  1.
         21   -1    0    0  501  503 -0.00000000000E+00 -0.00000000000E+00 -0.23912729396E+03  0.23912729396E+03  0.00000000000E+00 0.  1.
          6    1    1    2  501    0  0.12776906519E+02 -0.22870996381E+02 -0.11646793443E+03  0.20936836333E+03  0.17200000000E+03 0.  1.
         -6    1    1    2    0  502 -0.12776906519E+02  0.22870996381E+02  0.23091049755E+02  0.17550933991E+03  0.17200000000E+03 0.  1.
</event>
<event>
 4    1  0.1181383E+000  0.2111956E+03  0.7818608E-02  0.1140623E+00
         21   -1    0    0  501  502  0.00000000000E+00  0.00000000000E+00  0.30517853314E+03  0.30517853314E+03  0.00000000000E+00 0.  1.
         21   -1    0    0  502  503 -0.00000000000E+00 -0.00000000000E+00 -0.23219933086E+03  0.23219933086E+03  0.00000000000E+00 0.  1.
          6    1    1    2  501    0 -0.53456210234E+02 -0.11028148584E+03  0.20005021761E+03  0.29090146458E+03  0.17200000000E+03 0.  1.
         -6    1    1    2    0  503  0.53456210234E+02  0.11028148584E+03 -0.12707101534E+03  0.24647639942E+03  0.17200000000E+03 0.  1.
</event>
<event>
 4    1  0.1181383E+000  0.1927581E+03  0.7818608E-02  0.1155997E+00
         21   -1    0    0  503  502  0.00000000000E+00  0.00000000000E+00  0.89765027004E+03  0.89765027004E+03  0.00000000000E+00 0.  1.
         21   -1    0    0  501  503 -0.00000000000E+00 -0.00000000000E+00 -0.41392174502E+02  0.41392174502E+02  0.00000000000E+00 0.  1.
          6    1    1    2  501    0  0.66012043074E+01  0.86764649772E+02  0.42843975480E+03  0.46980453791E+03  0.17200000000E+03 0.  1.
         -6    1    1    2    0  502 -0.66012043074E+01 -0.86764649772E+02  0.42781834074E+03  0.46923790663E+03  0.17200000000E+03 0.  1.
</event>
<event>
 4    1  0.1181383E+000  0.1736926E+03  0.7818608E-02  0.1174051E+00
         21   -1    0    0  503  502  0.00000000000E+00  0.00000000000E+00  0.62694894119E+02  0.62694894119E+02  0.00000000000E+00 0. -1.
         21   -1    0    0  501  503 -0.00000000000E+00 -0.00000000000E+00 -0.95202259695E+03  0.95202259695E+03  0.00000000000E+00 0. -1.
          6    1    1    2  501    0  0.16499945897E+01 -0.24132753857E+02 -0.80145802163E+03  0.82006345652E+03  0.17200000000E+03 0.  1.
         -6    1    1    2    0  502 -0.16499945897E+01  0.24132753857E+02 -0.87869681203E+02  0.19465403455E+03  0.17200000000E+03 0.  1.
</event>
<event>
 4    1  0.1181383E+000  0.1846243E+03  0.7818608E-02  0.1163401E+00
         21   -1    0    0  503  502  0.00000000000E+00  0.00000000000E+00  0.19547882235E+03  0.19547882235E+03  0.00000000000E+00 0. -1.
         21   -1    0    0  501  503 -0.00000000000E+00 -0.00000000000E+00 -0.17624806747E+03  0.17624806747E+03  0.00000000000E+00 0. -1.
          6    1    1    2  501    0  0.58329770640E+01  0.66843960670E+02 -0.95577763860E+01  0.18487154943E+03  0.17200000000E+03 0. -1.
         -6    1    1    2    0  502 -0.58329770640E+01 -0.66843960670E+02  0.28788531272E+02  0.18685534039E+03  0.17200000000E+03 0. -1.
</event>
<event>
 4    1  0.1181383E+000  0.2330180E+03  0.7818608E-02  0.1124533E+00
         21   -1    0    0  501  502  0.00000000000E+00  0.00000000000E+00  0.59440393695E+03  0.59440393695E+03  0.00000000000E+00 0.  1.
         21   -1    0    0  502  503 -0.00000000000E+00 -0.00000000000E+00 -0.11879164856E+03  0.11879164856E+03  0.00000000000E+00 0.  1.
          6    1    1    2  501    0  0.10757210293E+03 -0.11463692178E+03  0.40920569435E+03  0.47089986351E+03  0.17200000000E+03 0.  1.
         -6    1    1    2    0  503 -0.10757210293E+03  0.11463692178E+03  0.66406594032E+02  0.24229572199E+03  0.17200000000E+03 0.  1.
</event>
<event>
 4    1  0.1181383E+000  0.2038996E+03  0.7818608E-02  0.1146490E+00
         21   -1    0    0  503  502  0.00000000000E+00  0.00000000000E+00  0.21641629020E+03  0.21641629020E+03  0.00000000000E+00 0.  1.
         21   -1    0    0  501  503 -0.00000000000E+00 -0.00000000000E+00 -0.46461641862E+03  0.46461641862E+03  0.00000000000E+00 0. -1.
          6    1    1    2  501    0 -0.10624649961E+03  0.26508818554E+02 -0.38488447980E+03  0.43555837603E+03  0.17200000000E+03 0. -1.
         -6    1    1    2    0  502  0.10624649961E+03 -0.26508818554E+02  0.13668435138E+03  0.24547433278E+03  0.17200000000E+03 0.  1.
</event>
<event>
 4    1  0.1181383E+000  0.3135904E+03  0.7818608E-02  0.1078638E+00
         21   -1    0    0  501  502  0.00000000000E+00  0.00000000000E+00  0.95214771336E+03  0.95214771336E+03  0.00000000000E+00 0.  1.
         21   -1    0    0  502  503 -0.00000000000E+00 -0.00000000000E+00 -0.10794927780E+03  0.10794927780E+03  0.00000000000E+00 0. -1.
          6    1    1    2  501    0  0.25907494135E+03 -0.40436220970E+02  0.53232342586E+03  0.61782452437E+03  0.17200000000E+03 0. -1.
         -6    1    1    2    0  503 -0.25907494135E+03  0.40436220970E+02  0.31187500970E+03  0.44227246679E+03  0.17200000000E+03 0. -1.
</event>
<event>
 4    1  0.1181383E+000  0.2455018E+03  0.7818608E-02  0.1116181E+00
         21   -1    0    0  503  502  0.00000000000E+00  0.00000000000E+00  0.47474572803E+03  0.47474572803E+03  0.00000000000E+00 0.  1.
         21   -1    0    0  501  503 -0.00000000000E+00 -0.00000000000E+00 -0.18280947787E+03  0.18280947787E+03  0.00000000000E+00 0. -1.
          6    1    1    2  501    0 -0.13096383491E+03  0.11634270216E+03 -0.35764731620E+02  0.24809326155E+03  0.17200000000E+03 0. -1.
         -6    1    1    2    0  502  0.13096383491E+03 -0.11634270216E+03  0.32770098178E+03  0.40946194434E+03  0.17200000000E+03 0.  1.
</event>
<event>
 4    1  0.1181383E+000  0.2127417E+03  0.7818608E-02  0.1139413E+00
         21   -1    0    0  503  502  0.00000000000E+00  0.00000000000E+00  0.62052463505E+02  0.62052463505E+02  0.00000000000E+00 0. -1.
         21   -1    0    0  501  503 -0.00000000000E+00 -0.00000000000E+00 -0.12089881608E+04  0.12089881608E+04  0.00000000000E+00 0. -1.
          6    1    1    2  501    0 -0.11161830706E+03  0.56713133842E+02 -0.97375120216E+03  0.99671983512E+03  0.17200000000E+03 0. -1.
         -6    1    1    2    0  502  0.11161830706E+03 -0.56713133842E+02 -0.17318449512E+03  0.27432078917E+03  0.17200000000E+03 0. -1.
</event>
<event>
 4    1  0.1181383E+000  0.4438055E+03  0.7818608E-02  0.1029586E+00
         21   -1    0    0  503  502  0.00000000000E+00  0.00000000000E+00  0.77277800950E+03  0.77277800950E+03  0.00000000000E+00 0.  1.
         21   -1    0    0  501  503 -0.00000000000E+00 -0.00000000000E+00 -0.25925948570E+03  0.25925948570E+03  0.00000000000E+00 0. -1.
          6    1    1    2  501    0  0.34024151164E+03 -0.22718951671E+03  0.32384913876E+03  0.54940115346E+03  0.17200000000E+03 0. -1.
         -6    1    1    2    0  502 -0.34024151164E+03  0.22718951671E+03  0.18966938504E+03  0.48263634174E+03  0.17200000000E+03 0. -1.
</event>
<event>
 4    1  0.1181383E+000  0.1812071E+03  0.7818608E-02  0.1166640E+00
         21   -1    0    0  503  502  0.00000000000E+00  0.00000000000E+00  0.76035254492E+02  0.76035254492E+02  0.00000000000E+00 0.  1.
         21   -1    0    0  501  503 -0.00000000000E+00 -0.00000000000E+00 -0.43980225150E+03  0.43980225150E+03  0.00000000000E+00 0.  1.
          6    1    1    2  501    0 -0.40897118426E+02  0.39742116854E+02 -0.21655978822E+03  0.28237236413E+03  0.17200000000E+03 0.  1.
         -6    1    1    2    0  502  0.40897118426E+02 -0.39742116854E+02 -0.14720720879E+03  0.23346514187E+03  0.17200000000E+03 0.  1.
</event>
<event>
 4    1  0.1181383E+000  0.1858591E+03  0.7818608E-02  0.1162250E+00
         21   -1    0    0  503  502  0.00000000000E+00  0.00000000000E+00  0.59113271544E+02  0.59113271544E+02  0.00000000000E+00 0. -1.
         21   -1    0    0  501  503 -0.00000000000E+00 -0.00000000000E+00 -0.58946702499E+03  0.58946702499E+03  0.00000000000E+00 0. -1.
          6    1    1    2  501    0  0.69660746749E+02 -0.10342929991E+02 -0.29535343109E+03  0.34896596553E+03  0.17200000000E+03 0. -1.
         -6    1    1    2    0  502 -0.69660746749E+02  0.10342929991E+02 -0.23500032235E+03  0.29961433101E+03  0.17200000000E+03 0. -1.
</event>
<event>
 4    1  0.1181383E+000  0.1734180E+03  0.7818608E-02  0.1174330E+00
         21   -1    0    0  501  502  0.00000000000E+00  0.00000000000E+00  0.22428313401E+02  0.22428313401E+02  0.00000000000E+00 0.  1.
         21   -1    0    0  502  503 -0.00000000000E+00 -0.00000000000E+00 -0.28558264607E+04  0.28558264607E+04  0.00000000000E+00 0.  1.
          6    1    1    2  501    0  0.13470699201E+02 -0.17559509630E+02 -0.36853031348E+03  0.40729398237E+03  0.17200000000E+03 0.  1.
         -6    1    1    2    0  503 -0.13470699201E+02  0.17559509630E+02 -0.24648678338E+04  0.24709607917E+04  0.17200000000E+03 0.  1.
</event>
<event>
 4    1  0.1181383E+000  0.2468886E+03  0.7818608E-02  0.1115287E+00
         21   -1    0    0  501  502  0.00000000000E+00  0.00000000000E+00  0.41864694553E+02  0.41864694553E+02  0.00000000000E+00 0.  1.
         21   -1    0    0  502  503 -0.00000000000E+00 -0.00000000000E+00 -0.19745992127E+04  0.19745992127E+04  0.00000000000E+00 0.  1.
          6    1    1    2  501    0 -0.82784848917E+02 -0.15657790418E+03 -0.44965692735E+03  0.51297692307E+03  0.17200000000E+03 0.  1.
         -6    1    1    2    0  503  0.82784848917E+02  0.15657790418E+03 -0.14830775908E+04  0.15034869842E+04  0.17200000000E+03 0.  1.
</event>
<event>
 4    1  0.1181383E+000  0.2035084E+03  0.7818608E-02  0.1146812E+00
         21   -1    0    0  501  502  0.00000000000E+00  0.00000000000E+00  0.17784790807E+03  0.17784790807E+03  0.00000000000E+00 0. -1.
         21   -1    0    0  502  503 -0.00000000000E+00 -0.00000000000E+00 -0.39143545558E+03  0.39143545558E+03  0.00000000000E+00 0.  1.
          6    1    1    2  501    0  0.10485255206E+03 -0.28941238124E+02  0.74369885695E+02  0.21667148598E+03  0.17200000000E+03 0. -1.
         -6    1    1    2    0  503 -0.10485255206E+03  0.28941238124E+02 -0.28795743320E+03  0.35261187767E+03  0.17200000000E+03 0.  1.
</event>
<event>
 4    1  0.1181383E+000  0.2021982E+03  0.7818608E-02  0.1147898E+00
         21   -1    0    0  503  502  0.00000000000E+00  0.00000000000E+00  0.42961761917E+03  0.42961761917E+03  0.00000000000E+00 0.  1.
         21   -1    0    0  501  503 -0.00000000000E+00 -0.00000000000E+00 -0.14389627353E+04  0.14389627353E+04  0.00000000000E+00 0.  1.
          6    1    1    2  501    0  0.88735385600E+02  0.58533320065E+02 -0.14075402824E+04  0.14219893687E+04  0.17200000000E+03 0.  1.
         -6    1    1    2    0  502 -0.88735385600E+02 -0.58533320065E+02  0.39819516620E+03  0.44659098580E+03  0.17200000000E+03 0.  1.
</event>
<event>
 4    1  0.1181383E+000  0.4936593E+03  0.7818608E-02  0.1015447E+00
         21   -1    0    0  503  502  0.00000000000E+00  0.00000000000E+00  0.51189306346E+03  0.51189306346E+03  0.00000000000E+00 0.  1.
         21   -1    0    0  501  503 -0.00000000000E+00 -0.00000000000E+00 -0.57513966449E+03  0.57513966449E+03  0.00000000000E+00 0. -1.
          6    1    1    2  501    0 -0.44883601153E+03 -0.11252436254E+03 -0.25719536790E+03  0.55664077706E+03  0.17200000000E+03 0. -1.
         -6    1    1    2    0  502  0.44883601153E+03  0.11252436254E+03  0.19394876687E+03  0.53039195090E+03  0.17200000000E+03 0. -1.
</event>
<event>
 4    1  0.1181383E+000  0.2057002E+03  0.7818608E-02  0.1145017E+00
         21   -1    0    0  501  502  0.00000000000E+00  0.00000000000E+00  0.30915944865E+03  0.30915944865E+03  0.00000000000E+00 0.  1.
         21   -1    0    0  502  503 -0.00000000000E+00 -0.00000000000E+00 -0.27157313983E+03  0.27157313983E+03  0.00000000000E+00 0.  1.
          6    1    1    2  501    0 -0.10712778646E+03 -0.35386666464E+02  0.22329746837E+03  0.30360226972E+03  0.17200000000E+03 0.  1.
         -6    1    1    2    0  503  0.10712778646E+03  0.35386666464E+02 -0.18571115955E+03  0.27713031877E+03  0.17200000000E+03 0.  1.
</event>
<event>
 4    1  0.1181383E+000  0.2196305E+03  0.7818608E-02  0.1134159E+00
         21   -1    0    0  503  502  0.00000000000E+00  0.00000000000E+00  0.26453269052E+02  0.26453269052E+02  0.00000000000E+00 0. -1.
         21   -1    0    0  501  503 -0.00000000000E+00 -0.00000000000E+00 -0.22521197128E+04  0.22521197128E+04  0.00000000000E+00 0. -1.
          6    1    1    2  501    0 -0.13520309627E+03 -0.19331198455E+02 -0.61581468571E+03  0.65380830494E+03  0.17200000000E+03 0.  1.
         -6    1    1    2    0  502  0.13520309627E+03  0.19331198455E+02 -0.16098517580E+04  0.16247646769E+04  0.17200000000E+03 0.  1.
</event>
<event>
 4    1  0.1181383E+000  0.1754778E+03  0.7818608E-02  0.1172253E+00
         21   -1    0    0  501  502  0.00000000000E+00  0.00000000000E+00  0.20754787221E+02  0.20754787221E+02  0.00000000000E+00 0. -1.
         21   -1    0    0  502  503 -0.00000000000E+00 -0.00000000000E+00 -0.15038632301E+04  0.15038632301E+04  0.00000000000E+00 0. -1.
          6    1    1    2  501    0  0.23794567862E+02  0.25342896768E+02 -0.65313438400E+03  0.67629650852E+03  0.17200000000E+03 0.  1.
         -6    1    1    2    0  503 -0.23794567862E+02 -0.25342896768E+02 -0.82997405884E+03  0.84832150875E+03  0.17200000000E+03 0.  1.
</event>
<event>
 4    1  0.1181383E+000  0.2458013E+03  0.7818608E-02  0.1115987E+00
         21   -1    0    0  501  502  0.00000000000E+00  0.00000000000E+00  0.52260432510E+03  0.52260432510E+03  0.00000000000E+00 0.  1.
         21   -1    0    0  502  503 -0.00000000000E+00 -0.00000000000E+00 -0.13488438935E+03  0.13488438935E+03  0.00000000000E+00 0. -1.
          6    1    1    2  501    0  0.74928697959E+02  0.15880796388E+03  0.31813043292E+03  0.40202643137E+03  0.17200000000E+03 0. -1.
         -6    1    1    2    0  503 -0.74928697959E+02 -0.15880796388E+03  0.69589502837E+02  0.25546228308E+03  0.17200000000E+03 0. -1.
</event>
<event>
 4    1  0.1181383E+000  0.2400640E+03  0.7818608E-02  0.1119750E+00
         21   -1    0    0  501  502  0.00000000000E+00  0.00000000000E+00  0.55520639844E+02  0.55520639844E+02  0.00000000000E+00 0. -1.
         21   -1    0    0  502  503 -0.00000000000E+00 -0.00000000000E+00 -0.24268275671E+04  0.24268275671E+04  0.00000000000E+00 0.  1.
          6    1    1    2  501    0 -0.14715884973E+03  0.79943702775E+02 -0.24671621272E+03  0.34423772641E+03  0.17200000000E+03 0. -1.
         -6    1    1    2    0  503  0.14715884973E+03 -0.79943702775E+02 -0.21245907145E+04  0.21381104805E+04  0.17200000000E+03 0.  1.
</event>
<event>
 4    1  0.1181383E+000  0.1874411E+03  0.7818608E-02  0.1160790E+00
         21   -1    0    0  503  502  0.00000000000E+00  0.00000000000E+00  0.28756212793E+03  0.28756212793E+03  0.00000000000E+00 0.  1.
         21   -1    0    0  501  503 -0.00000000000E+00 -0.00000000000E+00 -0.34113392872E+03  0.34113392872E+03  0.00000000000E+00 0.  1.
          6    1    1    2  501    0 -0.51573558463E+02 -0.53761742947E+02 -0.27862623513E+03  0.33580758752E+03  0.17200000000E+03 0.  1.
         -6    1    1    2    0  502  0.51573558463E+02  0.53761742947E+02  0.22505443433E+03  0.29288846913E+03  0.17200000000E+03 0.  1.
</event>
<event>
 4    1  0.1181383E+000  0.1729465E+03  0.7818608E-02  0.1174809E+00
         21   -1    0    0  501  502  0.00000000000E+00  0.00000000000E+00  0.13506612108E+03  0.13506612108E+03  0.00000000000E+00 0. -1.
         21   -1    0    0  502  503 -0.00000000000E+00 -0.00000000000E+00 -0.26908608152E+03  0.26908608152E+03  0.00000000000E+00 0. -1.
          6    1    1    2  501    0 -0.13018764079E+02 -0.12530224787E+02  0.18012525780E+02  0.17388198825E+03  0.17200000000E+03 0. -1.
         -6    1    1    2    0  503  0.13018764079E+02  0.12530224787E+02 -0.15203248622E+03  0.23027021435E+03  0.17200000000E+03 0. -1.
</event>
<event>
 4    1  0.1181383E+000  0.2629564E+03  0.7818608E-02  0.1105380E+00
         21   -1    0    0  501  502  0.00000000000E+00  0.00000000000E+00  0.10525137778E+03  0.10525137778E+03  0.00000000000E+00 0. -1.
         21   -1    0    0  502  503 -0.00000000000E+00 -0.00000000000E+00 -0.14952875607E+04  0.14952875607E+04  0.00000000000E+00 0. -1.
          6    1    1    2  501    0  0.15129143427E+03 -0.12912393655E+03 -0.95806223638E+02  0.27986589925E+03  0.17200000000E+03 0. -1.
         -6    1    1    2    0  503 -0.15129143427E+03  0.12912393655E+03 -0.12942299593E+04  0.13206730393E+04  0.17200000000E+03 0. -1.
</event>
<event>
 4    1  0.1181383E+000  0.2381226E+03  0.7818608E-02  0.1121050E+00
         21   -1    0    0  503  502  0.00000000000E+00  0.00000000000E+00  0.38379304415E+03  0.38379304415E+03  0.00000000000E+00 0.  1.
         21   -1    0    0  501  503 -0.00000000000E+00 -0.00000000000E+00 -0.14777056825E+03  0.14777056825E+03  0.00000000000E+00 0.  1.
          6    1    1    2  501    0 -0.43265383548E+02 -0.15889138383E+03  0.12170448842E+03  0.26742166660E+03  0.17200000000E+03 0. -1.
         -6    1    1    2    0  502  0.43265383548E+02  0.15889138383E+03  0.11431798748E+03  0.26414194580E+03  0.17200000000E+03 0. -1.
</event>
<event>
 4    1  0.1181383E+000  0.1946648E+03  0.7818608E-02  0.1154320E+00
         21   -1    0    0  501  502  0.00000000000E+00  0.00000000000E+00  0.90575964072E+02  0.90575964072E+02  0.00000000000E+00 0.  1.
         21   -1    0    0  502  503 -0.00000000000E+00 -0.00000000000E+00 -0.48569874043E+03  0.48569874043E+03  0.00000000000E+00 0.  1.
          6    1    1    2  501    0 -0.44709248372E+02  0.79444697091E+02 -0.90282966425E+02  0.21458189768E+03  0.17200000000E+03 0.  1.
         -6    1    1    2    0  503  0.44709248372E+02 -0.79444697091E+02 -0.30483980993E+03  0.36169280682E+03  0.17200000000E+03 0.  1.
</event>
<event>
 4    1  0.1181383E+000  0.1852020E+03  0.7818608E-02  0.1162861E+00
         21   -1    0    0  501  502  0.00000000000E+00  0.00000000000E+00  0.11520608634E+03  0.11520608634E+03  0.00000000000E+00 0.  1.
         21   -1    0    0  502  503 -0.00000000000E+00 -0.00000000000E+00 -0.32513463488E+03  0.32513463488E+03  0.00000000000E+00 0.  1.
          6    1    1    2  501    0  0.36211669976E+02 -0.58347957042E+02 -0.41038453669E+02  0.18969429041E+03  0.17200000000E+03 0. -1.
         -6    1    1    2    0  503 -0.36211669976E+02  0.58347957042E+02 -0.16889009487E+03  0.25064643081E+03  0.17200000000E+03 0. -1.
</event>
<event>
 4    1  0.1181383E+000  0.2038577E+03  0.7818608E-02  0.1146524E+00
         21   -1    0    0  503  502  0.00000000000E+00  0.00000000000E+00  0.18057729140E+03  0.18057729140E+03  0.00000000000E+00 0.  1.
         21   -1    0    0  501  503 -0.00000000000E+00 -0.00000000000E+00 -0.28628678626E+03  0.28628678626E+03  0.00000000000E+00 0. -1.
          6    1    1    2  501    0 -0.23385587799E+02  0.10689759634E+03 -0.15623173946E+03  0.25683912909E+03  0.17200000000E+03 0. -1.
         -6    1    1    2    0  502  0.23385587799E+02 -0.10689759634E+03  0.50522244595E+02  0.21002494856E+03  0.17200000000E+03 0.  1.
</event>
<event>
 4    1  0.1181383E+000  0.2151017E+03  0.7818608E-02  0.1137588E+00
         21   -1    0    0  503  502  0.00000000000E+00  0.00000000000E+00  0.11191517356E+03  0.11191517356E+03  0.00000000000E+00 0.  1.
         21   -1    0    0  501  503 -0.00000000000E+00 -0.00000000000E+00 -0.10849370408E+04  0.10849370408E+04  0.00000000000E+00 0.  1.
          6    1    1    2  501    0 -0.79584087694E+02 -0.10174050814E+03 -0.95730882471E+03  0.98117732540E+03  0.17200000000E+03 0.  1.
         -6    1    1    2    0  502  0.79584087694E+02  0.10174050814E+03 -0.15713042499E+02  0.21567488893E+03  0.17200000000E+03 0.  1.
</event>
<event>
 4    1  0.1181383E+000  0.1763613E+03  0.7818608E-02  0.1171372E+00
         21   -1    0    0  501  502  0.00000000000E+00  0.00000000000E+00  0.73785338011E+02  0.73785338011E+02  0.00000000000E+00 0.  1.
         21   -1    0    0  502  503 -0.00000000000E+00 -0.00000000000E+00 -0.47737141520E+03  0.47737141520E+03  0.00000000000E+00 0.  1.
          6    1    1    2  501    0 -0.62280388353E+01 -0.38477450804E+02 -0.29603951945E+03  0.34459062635E+03  0.17200000000E+03 0.  1.
         -6    1    1    2    0  503  0.62280388353E+01  0.38477450804E+02 -0.10754655774E+03  0.20656612687E+03  0.17200000000E+03 0.  1.
</event>
<event>
 4    1  0.1181383E+000  0.1845036E+03  0.7818608E-02  0.1163514E+00
         21   -1    0    0  501  502  0.00000000000E+00  0.00000000000E+00  0.28470500100E+03  0.28470500100E+03  0.00000000000E+00 0.  1.
         21   -1    0    0  502  503 -0.00000000000E+00 -0.00000000000E+00 -0.14666260039E+03  0.14666260039E+03  0.00000000000E+00 0.  1.
          6    1    1    2  501    0  0.47209976848E+02 -0.47210038778E+02  0.16172558568E+03  0.24535022873E+03  0.17200000000E+03 0.  1.
         -6    1    1    2    0  503 -0.47209976848E+02  0.47210038778E+02 -0.23683185065E+02  0.18601737266E+03  0.17200000000E+03 0.  1.
</event>
<event>
 4    1  0.1181383E+000  0.1889842E+03  0.7818608E-02  0.1159381E+00
         21   -1    0    0  503  502  0.00000000000E+00  0.00000000000E+00  0.57114107760E+03  0.57114107760E+03  0.00000000000E+00 0. -1.
         21   -1    0    0  501  503 -0.00000000000E+00 -0.00000000000E+00 -0.65519108717E+02  0.65519108717E+02  0.00000000000E+00 0. -1.
          6    1    1    2  501    0 -0.33051531556E+02  0.70983304131E+02  0.18484943148E+03  0.26435647433E+03  0.17200000000E+03 0. -1.
         -6    1    1    2    0  502  0.33051531556E+02 -0.70983304131E+02  0.32077253740E+03  0.37230371198E+03  0.17200000000E+03 0. -1.
</event>
<event>
 4    1  0.1181383E+000  0.1734711E+03  0.7818608E-02  0.1174276E+00
         21   -1    0    0  501  502  0.00000000000E+00  0.00000000000E+00  0.15097451206E+03  0.15097451206E+03  0.00000000000E+00 0.  1.
         21   -1    0    0  502  503 -0.00000000000E+00 -0.00000000000E+00 -0.22145693873E+03  0.22145693873E+03  0.00000000000E+00 0.  1.
          6    1    1    2  501    0 -0.19304638841E+02 -0.11642709816E+02  0.23633886438E+02  0.17507364839E+03  0.17200000000E+03 0. -1.
         -6    1    1    2    0  503  0.19304638841E+02  0.11642709816E+02 -0.94116313114E+02  0.19735780240E+03  0.17200000000E+03 0. -1.
</event>
<event>
 4    1  0.1181383E+000  0.2006173E+03  0.7818608E-02  0.1149219E+00
         21   -1    0    0  501  502  0.00000000000E+00  0.00000000000E+00  0.33821626394E+03  0.33821626394E+03  0.00000000000E+00 0. -1.
         21   -1    0    0  502  503 -0.00000000000E+00 -0.00000000000E+00 -0.22760251321E+03  0.22760251321E+03  0.00000000000E+00 0. -1.
          6    1    1    2  501    0  0.98385047781E+02  0.31363945670E+02  0.25073238729E+03  0.32111375672E+03  0.17200000000E+03 0. -1.
         -6    1    1    2    0  503 -0.98385047781E+02 -0.31363945670E+02 -0.14011863657E+03  0.24470502044E+03  0.17200000000E+03 0. -1.
</event>
<event>
 4    1  0.1181383E+000  0.1976242E+03  0.7818608E-02  0.1151759E+00
         21   -1    0    0  501  502  0.00000000000E+00  0.00000000000E+00  0.68398476179E+03  0.68398476179E+03  0.00000000000E+00 0.  1.
         21   -1    0    0  502  503 -0.00000000000E+00 -0.00000000000E+00 -0.57922409025E+02  0.57922409025E+02  0.00000000000E+00 0. -1.
          6    1    1    2  501    0 -0.59018138608E+02  0.77383424074E+02  0.26882169506E+03  0.33364717703E+03  0.17200000000E+03 0.  1.
         -6    1    1    2    0  503  0.59018138608E+02 -0.77383424074E+02  0.35724065770E+03  0.40825999378E+03  0.17200000000E+03 0.  1.
</event>
<event>
 4    1  0.1181383E+000  0.2110027E+03  0.7818608E-02  0.1140774E+00
         21   -1    0    0  501  502  0.00000000000E+00  0.00000000000E+00  0.11458183767E+03  0.11458183767E+03  0.00000000000E+00 0. -1.
         21   -1    0    0  502  503 -0.00000000000E+00 -0.00000000000E+00 -0.92361265307E+03  0.92361265307E+03  0.00000000000E+00 0. -1.
          6    1    1    2  501    0  0.51833369931E+02  0.11068618350E+03 -0.94206181993E+01  0.21121287248E+03  0.17200000000E+03 0. -1.
         -6    1    1    2    0  503 -0.51833369931E+02 -0.11068618350E+03 -0.79961019721E+03  0.82698161825E+03  0.17200000000E+03 0. -1.
</event>
<event>
 4    1  0.1181383E+000  0.1786348E+03  0.7818608E-02  0.1169131E+00
         21   -1    0    0  501  502  0.00000000000E+00  0.00000000000E+00  0.69740380419E+02  0.69740380419E+02  0.00000000000E+00 0.  1.
         21   -1    0    0  502  503 -0.00000000000E+00 -0.00000000000E+00 -0.66873657600E+03  0.66873657600E+03  0.00000000000E+00 0.  1.
          6    1    1    2  501    0 -0.33615113318E+02  0.34589320159E+02 -0.50699062298E+03  0.53754059260E+03  0.17200000000E+03 0.  1.
         -6    1    1    2    0  503  0.33615113318E+02 -0.34589320159E+02 -0.92005572603E+02  0.20093636381E+03  0.17200000000E+03 0.  1.
</event>
<event>
 4    1  0.1181383E+000  0.2263517E+03  0.7818608E-02  0.1129234E+00
         21   -1    0    0  501  502  0.00000000000E+00  0.00000000000E+00  0.68784948895E+02  0.68784948895E+02  0.00000000000E+00 0. -1.
         21   -1    0    0  502  503 -0.00000000000E+00 -0.00000000000E+00 -0.97920592827E+03  0.97920592827E+03  0.00000000000E+00 0. -1.
          6    1    1    2  501    0 -0.71278208238E+02  0.12872653381E+03 -0.71155257735E+03  0.74668746729E+03  0.17200000000E+03 0. -1.
         -6    1    1    2    0  503  0.71278208238E+02 -0.12872653381E+03 -0.19886840202E+03  0.30130340987E+03  0.17200000000E+03 0. -1.
</event>
<event>
 4    1  0.1181383E+000  0.1915596E+03  0.7818608E-02  0.1157062E+00
         21   -1    0    0  501  502  0.00000000000E+00  0.00000000000E+00  0.87355708069E+03  0.87355708069E+03  0.00000000000E+00 0.  1.
         21   -1    0    0  502  503 -0.00000000000E+00 -0.00000000000E+00 -0.42140650195E+02  0.42140650195E+02  0.00000000000E+00 0.  1.
          6    1    1    2  501    0 -0.83212866510E+02  0.13663174632E+02  0.44154208375E+03  0.48130497111E+03  0.17200000000E+03 0.  1.
         -6    1    1    2    0  503  0.83212866510E+02 -0.13663174632E+02  0.38987434674E+03  0.43439275977E+03  0.17200000000E+03 0.  1.
</event>
<event>
 4    1  0.1181383E+000  0.2099566E+03  0.7818608E-02  0.1141600E+00
         21   -1    0    0  503  502  0.00000000000E+00  0.00000000000E+00  0.98350020027E+03  0.98350020027E+03  0.00000000000E+00 0.  1.
         21   -1    0    0  501  503 -0.00000000000E+00 -0.00000000000E+00 -0.68707747080E+02  0.68707747080E+02  0.00000000000E+00 0. -1.
          6    1    1    2  501    0  0.17384603527E+02  0.11914501983E+03  0.14719430655E+03  0.25641358012E+03  0.17200000000E+03 0. -1.
         -6    1    1    2    0  502 -0.17384603527E+02 -0.11914501983E+03  0.76759814664E+03  0.79579436723E+03  0.17200000000E+03 0.  1.
</event>
<event>
 4    1  0.1181383E+000  0.1977305E+03  0.7818608E-02  0.1151668E+00
         21   -1    0    0  503  502  0.00000000000E+00  0.00000000000E+00  0.63045277367E+03  0.63045277367E+03  0.00000000000E+00 0. -1.
         21   -1    0    0  501  503 -0.00000000000E+00 -0.00000000000E+00 -0.66226243066E+02  0.66226243066E+02  0.00000000000E+00 0. -1.
          6    1    1    2  501    0 -0.97534830096E+02 -0.54852288994E+00  0.19427010667E+03  0.27719707485E+03  0.17200000000E+03 0. -1.
         -6    1    1    2    0  502  0.97534830096E+02  0.54852288994E+00  0.36995642393E+03  0.41948194188E+03  0.17200000000E+03 0. -1.
</event>
<event>
 4    1  0.1181383E+000  0.1762472E+03  0.7818608E-02  0.1171485E+00
         21   -1    0    0  501  502  0.00000000000E+00  0.00000000000E+00  0.12696386061E+04  0.12696386061E+04  0.00000000000E+00 0.  1.
         21   -1    0    0  502  503 -0.00000000000E+00 -0.00000000000E+00 -0.25280767752E+02  0.25280767752E+02  0.00000000000E+00 0.  1.
          6    1    1    2  501    0  0.27256180560E+01  0.38361985382E+02  0.73840806412E+03  0.75915053848E+03  0.17200000000E+03 0. -1.
         -6    1    1    2    0  503 -0.27256180560E+01 -0.38361985382E+02  0.50594977424E+03  0.53576883538E+03  0.17200000000E+03 0. -1.
</event>
<event>
 4    1  0.1181383E+000  0.2261269E+03  0.7818608E-02  0.1129396E+00
         21   -1    0    0  503  502  0.00000000000E+00  0.00000000000E+00  0.18439982941E+04  0.18439982941E+04  0.00000000000E+00 0. -1.
         21   -1    0    0  501  503 -0.00000000000E+00 -0.00000000000E+00 -0.10978003225E+03  0.10978003225E+03  0.00000000000E+00 0.  1.
          6    1    1    2  501    0  0.85600414579E+02 -0.11925580484E+03  0.22561807211E+02  0.22724967131E+03  0.17200000000E+03 0.  1.
         -6    1    1    2    0  502 -0.85600414579E+02  0.11925580484E+03  0.17116564546E+04  0.17265286550E+04  0.17200000000E+03 0. -1.
</event>
<event>
 4    1  0.1181383E+000  0.1818953E+03  0.7818608E-02  0.1165981E+00
         21   -1    0    0  501  502  0.00000000000E+00  0.00000000000E+00  0.13873939358E+03  0.13873939358E+03  0.00000000000E+00 0.  1.
         21   -1    0    0  502  503 -0.00000000000E+00 -0.00000000000E+00 -0.27571926427E+03  0.27571926427E+03  0.00000000000E+00 0.  1.
          6    1    1    2  501    0 -0.34328623989E+02 -0.48202322064E+02  0.76733423089E+01  0.18205712966E+03  0.17200000000E+03 0.  1.
         -6    1    1    2    0  503  0.34328623989E+02  0.48202322064E+02 -0.14465321300E+03  0.23240152820E+03  0.17200000000E+03 0.  1.
</event>
<event>
 4    1  0.1181383E+000  0.1881831E+03  0.7818608E-02  0.1160110E+00
         21   -1    0    0  503  502  0.00000000000E+00  0.00000000000E+00  0.59429179028E+03  0.59429179028E+03  0.00000000000E+00 0. -1.
         21   -1    0    0  501  503 -0.00000000000E+00 -0.00000000000E+00 -0.62673847142E+02  0.62673847142E+02  0.00000000000E+00 0. -1.
          6    1    1    2  501    0 -0.65146811506E+02 -0.39809351544E+02  0.19292547895E+03  0.26950534679E+03  0.17200000000E+03 0. -1.
         -6    1    1    2    0  502  0.65146811506E+02  0.39809351544E+02  0.33869246419E+03  0.38746029063E+03  0.17200000000E+03 0. -1.
</event>
<event>
 4    1  0.1181383E+000  0.1913275E+03  0.7818608E-02  0.1157269E+00
         21   -1    0    0  503  502  0.00000000000E+00  0.00000000000E+00  0.31147862532E+03  0.31147862532E+03  0.00000000000E+00 0.  1.
         21   -1    0    0  501  503 -0.00000000000E+00 -0.00000000000E+00 -0.17051172941E+03  0.17051172941E+03  0.00000000000E+00 0.  1.
          6    1    1    2  501    0  0.28749124742E+02  0.78712803750E+02 -0.63860723318E+02  0.20170376702E+03  0.17200000000E+03 0.  1.
         -6    1    1    2    0  502 -0.28749124742E+02 -0.78712803750E+02  0.20482761923E+03  0.28028658771E+03  0.17200000000E+03 0.  1.
</event>
<event>
 4    1  0.1181383E+000  0.1804674E+03  0.7818608E-02  0.1167351E+00
         21   -1    0    0  501  502  0.00000000000E+00  0.00000000000E+00  0.35095044489E+03  0.35095044489E+03  0.00000000000E+00 0.  1.
         21   -1    0    0  502  503 -0.00000000000E+00 -0.00000000000E+00 -0.23405256323E+03  0.23405256323E+03  0.00000000000E+00 0.  1.
          6    1    1    2  501    0 -0.39288231130E+01 -0.54489053156E+02  0.28568031537E+03  0.33790787968E+03  0.17200000000E+03 0.  1.
         -6    1    1    2    0  503  0.39288231130E+01  0.54489053156E+02 -0.16878243371E+03  0.24709512843E+03  0.17200000000E+03 0.  1.
</event>
<event>
 4    1  0.1181383E+000  0.2120500E+03  0.7818608E-02  0.1139953E+00
         21   -1    0    0  501  502  0.00000000000E+00  0.00000000000E+00  0.25065073460E+03  0.25065073460E+03  0.00000000000E+00 0. -1.
         21   -1    0    0  502  503 -0.00000000000E+00 -0.00000000000E+00 -0.19298909713E+03  0.19298909713E+03  0.00000000000E+00 0. -1.
          6    1    1    2  501    0  0.80350022872E+02  0.94472676442E+02  0.87705274653E+02  0.22947206360E+03  0.17200000000E+03 0.  1.
         -6    1    1    2    0  503 -0.80350022872E+02 -0.94472676442E+02 -0.30043637182E+02  0.21416776813E+03  0.17200000000E+03 0.  1.
</event>
<event>
 4    1  0.1181383E+000  0.2021442E+03  0.7818608E-02  0.1147942E+00
         21   -1    0    0  503  502  0.00000000000E+00  0.00000000000E+00  0.33370342855E+03  0.33370342855E+03  0.00000000000E+00 0. -1.
         21   -1    0    0  501  503 -0.00000000000E+00 -0.00000000000E+00 -0.16026286794E+03  0.16026286794E+03  0.00000000000E+00 0. -1.
          6    1    1    2  501    0  0.31585269945E+02 -0.10139350433E+03 -0.33247806799E+02  0.20486016854E+03  0.17200000000E+03 0.  1.
         -6    1    1    2    0  502 -0.31585269945E+02  0.10139350433E+03  0.20668836740E+03  0.28910612795E+03  0.17200000000E+03 0.  1.
</event>
<event>
 4    1  0.1181383E+000  0.2218454E+03  0.7818608E-02  0.1132515E+00
         21   -1    0    0  503  502  0.00000000000E+00  0.00000000000E+00  0.18154952615E+03  0.18154952615E+03  0.00000000000E+00 0. -1.
         21   -1    0    0  501  503 -0.00000000000E+00 -0.00000000000E+00 -0.27366349062E+03  0.27366349062E+03  0.00000000000E+00 0. -1.
          6    1    1    2  501    0 -0.93842806248E+02  0.10404285592E+03 -0.68149380014E+02  0.23207698324E+03  0.17200000000E+03 0. -1.
         -6    1    1    2    0  502  0.93842806248E+02 -0.10404285592E+03 -0.23964584460E+02  0.22313603353E+03  0.17200000000E+03 0. -1.
</event>
<event>
 4    1  0.1181383E+000  0.1930457E+03  0.7818608E-02  0.1155743E+00
         21   -1    0    0  503  502  0.00000000000E+00  0.00000000000E+00  0.30124571054E+03  0.30124571054E+03  0.00000000000E+00 0. -1.
         21   -1    0    0  501  503 -0.00000000000E+00 -0.00000000000E+00 -0.21268731994E+03  0.21268731994E+03  0.00000000000E+00 0. -1.
          6    1    1    2  501    0 -0.55426200499E+02 -0.67901326913E+02 -0.12192771079E+03  0.22832656560E+03  0.17200000000E+03 0. -1.
         -6    1    1    2    0  502  0.55426200499E+02  0.67901326913E+02  0.21048610140E+03  0.28560646488E+03  0.17200000000E+03 0. -1.
</event>
<event>
 4    1  0.1181383E+000  0.1976348E+03  0.7818608E-02  0.1151750E+00
         21   -1    0    0  503  502  0.00000000000E+00  0.00000000000E+00  0.15936488068E+04  0.15936488068E+04  0.00000000000E+00 0. -1.
         21   -1    0    0  501  503 -0.00000000000E+00 -0.00000000000E+00 -0.50122238288E+02  0.50122238288E+02  0.00000000000E+00 0. -1.
          6    1    1    2  501    0 -0.46830332585E+02 -0.85337099643E+02  0.18424106843E+03  0.27019302715E+03  0.17200000000E+03 0. -1.
         -6    1    1    2    0  502  0.46830332585E+02  0.85337099643E+02  0.13592855001E+04  0.13735780180E+04  0.17200000000E+03 0. -1.
</event>
<event>
 4    1  0.1181383E+000  0.2212621E+03  0.7818608E-02  0.1132946E+00
         21   -1    0    0  503  502  0.00000000000E+00  0.00000000000E+00  0.13078102891E+03  0.13078102891E+03  0.00000000000E+00 0.  1.
         21   -1    0    0  501  503 -0.00000000000E+00 -0.00000000000E+00 -0.43285975790E+03  0.43285975790E+03  0.00000000000E+00 0.  1.
          6    1    1    2  501    0  0.21052634635E+02 -0.13758526557E+03 -0.25465855297E+03  0.33735426087E+03  0.17200000000E+03 0.  1.
         -6    1    1    2    0  502 -0.21052634635E+02  0.13758526557E+03 -0.47420176017E+02  0.22628652594E+03  0.17200000000E+03 0.  1.
</event>
<event>
 4    1  0.1181383E+000  0.1840109E+03  0.7818608E-02  0.1163977E+00
         21   -1    0    0  501  502  0.00000000000E+00  0.00000000000E+00  0.13557931468E+03  0.13557931468E+03  0.00000000000E+00 0. -1.
         21   -1    0    0  502  503 -0.00000000000E+00 -0.00000000000E+00 -0.25322672362E+03  0.25322672362E+03  0.00000000000E+00 0. -1.
          6    1    1    2  501    0 -0.42265681303E+02  0.49896216208E+02 -0.81624699444E+02  0.20130228952E+03  0.17200000000E+03 0. -1.
         -6    1    1    2    0  503  0.42265681303E+02 -0.49896216208E+02 -0.36022709493E+02  0.18750374878E+03  0.17200000000E+03 0. -1.
</event>
<event>
 4    1  0.1181383E+000  0.2569508E+03  0.7818608E-02  0.1108989E+00
         21   -1    0    0  503  502  0.00000000000E+00  0.00000000000E+00  0.93626573319E+02  0.93626573319E+02  0.00000000000E+00 0. -1.
         21   -1    0    0  501  503 -0.00000000000E+00 -0.00000000000E+00 -0.70948622041E+03  0.70948622041E+03  0.00000000000E+00 0. -1.
          6    1    1    2  501    0 -0.15425297453E+02 -0.19026764826E+03 -0.27665086872E+03  0.37757041852E+03  0.17200000000E+03 0.  1.
         -6    1    1    2    0  502  0.15425297453E+02  0.19026764826E+03 -0.33920877838E+03  0.42554237522E+03  0.17200000000E+03 0.  1.
</event>
<event>
 4    1  0.1181383E+000  0.1862031E+03  0.7818608E-02  0.1161931E+00
         21   -1    0    0  501  502  0.00000000000E+00  0.00000000000E+00  0.22744570599E+03  0.22744570599E+03  0.00000000000E+00 0. -1.
         21   -1    0    0  502  503 -0.00000000000E+00 -0.00000000000E+00 -0.15470807757E+03  0.15470807757E+03  0.00000000000E+00 0. -1.
          6    1    1    2  501    0  0.71278918874E+02 -0.26274995313E+01  0.59509684470E+02  0.19548143281E+03  0.17200000000E+03 0. -1.
         -6    1    1    2    0  503 -0.71278918874E+02  0.26274995313E+01  0.13227943949E+02  0.18667235074E+03  0.17200000000E+03 0. -1.
</event>
<event>
 4    1  0.1181383E+000  0.2388652E+03  0.7818608E-02  0.1120551E+00
         21   -1    0    0  501  502  0.00000000000E+00  0.00000000000E+00  0.26125297590E+03  0.26125297590E+03  0.00000000000E+00 0.  1.
         21   -1    0    0  502  503 -0.00000000000E+00 -0.00000000000E+00 -0.22056713702E+03  0.22056713702E+03  0.00000000000E+00 0.  1.
          6    1    1    2  501    0  0.57359275129E+02 -0.15550727435E+03  0.44244712439E+02  0.24292837092E+03  0.17200000000E+03 0. -1.
         -6    1    1    2    0  503 -0.57359275129E+02  0.15550727435E+03 -0.35588735568E+01  0.23889174201E+03  0.17200000000E+03 0. -1.
</event>
<event>
 4    1  0.1181383E+000  0.2251146E+03  0.7818608E-02  0.1130126E+00
         21   -1    0    0  501  502  0.00000000000E+00  0.00000000000E+00  0.30355507086E+02  0.30355507086E+02  0.00000000000E+00 0. -1.
         21   -1    0    0  502  503 -0.00000000000E+00 -0.00000000000E+00 -0.21255081420E+04  0.21255081420E+04  0.00000000000E+00 0. -1.
          6    1    1    2  501    0  0.91519378544E+02 -0.11276868591E+03 -0.54825888369E+03  0.59267560834E+03  0.17200000000E+03 0. -1.
         -6    1    1    2    0  503 -0.91519378544E+02  0.11276868591E+03 -0.15468937512E+04  0.15631880408E+04  0.17200000000E+03 0. -1.
</event>
<event>
 4    1  0.1181383E+000  0.1978073E+03  0.7818608E-02  0.1151602E+00
         21   -1    0    0  503  502  0.00000000000E+00  0.00000000000E+00  0.51846510383E+03  0.51846510383E+03  0.00000000000E+00 0. -1.
         21   -1    0    0  501  503 -0.00000000000E+00 -0.00000000000E+00 -0.75595548215E+02  0.75595548215E+02  0.00000000000E+00 0. -1.
          6    1    1    2  501    0  0.19455246597E+02  0.95735255322E+02  0.20925436361E+03  0.28794988179E+03  0.17200000000E+03 0.  1.
         -6    1    1    2    0  502 -0.19455246597E+02 -0.95735255322E+02  0.23361519200E+03  0.30611077025E+03  0.17200000000E+03 0.  1.
</event>
<event>
 4    1  0.1181383E+000  0.2162695E+03  0.7818608E-02  0.1136695E+00
         21   -1    0    0  503  502  0.00000000000E+00  0.00000000000E+00  0.19061996497E+03  0.19061996497E+03  0.00000000000E+00 0.  1.
         21   -1    0    0  501  503 -0.00000000000E+00 -0.00000000000E+00 -0.25027329938E+03  0.25027329938E+03  0.00000000000E+00 0.  1.
          6    1    1    2  501    0 -0.91297732089E+02  0.94091631305E+02 -0.60681234936E+02  0.22462128848E+03  0.17200000000E+03 0. -1.
         -6    1    1    2    0  502  0.91297732089E+02 -0.94091631305E+02  0.10279005249E+01  0.21627197587E+03  0.17200000000E+03 0. -1.
</event>
<event>
 4    1  0.1181383E+000  0.1929933E+03  0.7818608E-02  0.1155789E+00
         21   -1    0    0  501  502  0.00000000000E+00  0.00000000000E+00  0.20587752623E+02  0.20587752623E+02  0.00000000000E+00 0.  1.
         21   -1    0    0  502  503 -0.00000000000E+00 -0.00000000000E+00 -0.18427145787E+04  0.18427145787E+04  0.00000000000E+00 0.  1.
          6    1    1    2  501    0 -0.27487296003E+02 -0.83107546589E+02 -0.78533345049E+03  0.80869960072E+03  0.17200000000E+03 0.  1.
         -6    1    1    2    0  503  0.27487296003E+02  0.83107546589E+02 -0.10367933756E+04  0.10546027306E+04  0.17200000000E+03 0.  1.
</event>
<event>
 4    1  0.1181383E+000  0.2217892E+03  0.7818608E-02  0.1132556E+00
         21   -1    0    0  501  502  0.00000000000E+00  0.00000000000E+00  0.87854000308E+02  0.87854000308E+02  0.00000000000E+00 0. -1.
         21   -1    0    0  502  503 -0.00000000000E+00 -0.00000000000E+00 -0.66922793333E+03  0.66922793333E+03  0.00000000000E+00 0. -1.
          6    1    1    2  501    0 -0.11072873657E+03  0.85706446443E+02 -0.44367905344E+03  0.49602575591E+03  0.17200000000E+03 0. -1.
         -6    1    1    2    0  503  0.11072873657E+03 -0.85706446443E+02 -0.13769487957E+03  0.26105617772E+03  0.17200000000E+03 0. -1.
</event>
<event>
 4    1  0.1181383E+000  0.1878331E+03  0.7818608E-02  0.1160430E+00
         21   -1    0    0  501  502  0.00000000000E+00  0.00000000000E+00  0.65790645312E+02  0.65790645312E+02  0.00000000000E+00 0.  1.
         21   -1    0    0  502  503 -0.00000000000E+00 -0.00000000000E+00 -0.60327025227E+03  0.60327025227E+03  0.00000000000E+00 0.  1.
          6    1    1    2  501    0 -0.43054975992E+02  0.61996280734E+02 -0.15725088844E+03  0.24496757275E+03  0.17200000000E+03 0.  1.
         -6    1    1    2    0  503  0.43054975992E+02 -0.61996280734E+02 -0.38022871852E+03  0.42409332483E+03  0.17200000000E+03 0.  1.
</event>
<event>
 4    1  0.1181383E+000  0.1822474E+03  0.7818608E-02  0.1165646E+00
         21   -1    0    0  501  502  0.00000000000E+00  0.00000000000E+00  0.51967587980E+02  0.51967587980E+02  0.00000000000E+00 0.  1.
         21   -1    0    0  502  503 -0.00000000000E+00 -0.00000000000E+00 -0.67093727573E+03  0.67093727573E+03  0.00000000000E+00 0.  1.
          6    1    1    2  501    0 -0.71112736376E+01  0.59829156619E+02 -0.38818332927E+03  0.42883609377E+03  0.17200000000E+03 0. -1.
         -6    1    1    2    0  503  0.71112736376E+01 -0.59829156619E+02 -0.23078635848E+03  0.29406876994E+03  0.17200000000E+03 0. -1.
</event>
<event>
 4    1  0.1181383E+000  0.2013499E+03  0.7818608E-02  0.1148605E+00
         21   -1    0    0  503  502  0.00000000000E+00  0.00000000000E+00  0.57197323718E+03  0.57197323718E+03  0.00000000000E+00 0. -1.
         21   -1    0    0  501  503 -0.00000000000E+00 -0.00000000000E+00 -0.73610830214E+02  0.73610830214E+02  0.00000000000E+00 0.  1.
          6    1    1    2  501    0 -0.10301999253E+03  0.18564582197E+02  0.18701452621E+03  0.27480210259E+03  0.17200000000E+03 0.  1.
         -6    1    1    2    0  502  0.10301999253E+03 -0.18564582197E+02  0.31134788075E+03  0.37078196480E+03  0.17200000000E+03 0. -1.
</event>
<event>
 4    1  0.1181383E+000  0.1850924E+03  0.7818608E-02  0.1162964E+00
         21   -1    0    0  503  502  0.00000000000E+00  0.00000000000E+00  0.10249869540E+04  0.10249869540E+04  0.00000000000E+00 0.  1.
         21   -1    0    0  501  503 -0.00000000000E+00 -0.00000000000E+00 -0.35038940921E+02  0.35038940921E+02  0.00000000000E+00 0. -1.
          6    1    1    2  501    0  0.68322397113E+02  0.26914455361E+01  0.38118890694E+03  0.42375013464E+03  0.17200000000E+03 0. -1.
         -6    1    1    2    0  502 -0.68322397113E+02 -0.26914455361E+01  0.60875910614E+03  0.63627576029E+03  0.17200000000E+03 0.  1.
</event>
<event>
 4    1  0.1181383E+000  0.1809835E+03  0.7818608E-02  0.1166855E+00
         21   -1    0    0  501  502  0.00000000000E+00  0.00000000000E+00  0.24228375612E+03  0.24228375612E+03  0.00000000000E+00 0. -1.
         21   -1    0    0  502  503 -0.00000000000E+00 -0.00000000000E+00 -0.13717282903E+03  0.13717282903E+03  0.00000000000E+00 0. -1.
          6    1    1    2  501    0  0.18988741892E+02 -0.53013808521E+02  0.29761166029E+02  0.18341418488E+03  0.17200000000E+03 0. -1.
         -6    1    1    2    0  503 -0.18988741892E+02  0.53013808521E+02  0.75349761052E+02  0.19604240027E+03  0.17200000000E+03 0. -1.
</event>
<event>
 4    1  0.1181383E+000  0.2348006E+03  0.7818608E-02  0.1123306E+00
         21   -1    0    0  503  502  0.00000000000E+00  0.00000000000E+00  0.10298225936E+03  0.10298225936E+03  0.00000000000E+00 0.  1.
         21   -1    0    0  501  503 -0.00000000000E+00 -0.00000000000E+00 -0.99922723437E+03  0.99922723437E+03  0.00000000000E+00 0.  1.
          6    1    1    2  501    0  0.15528282537E+03  0.37875875418E+02 -0.82361780565E+03  0.85643308412E+03  0.17200000000E+03 0. -1.
         -6    1    1    2    0  502 -0.15528282537E+03 -0.37875875418E+02 -0.72627169360E+02  0.24577640961E+03  0.17200000000E+03 0. -1.
</event>
<event>
 4    1  0.1181383E+000  0.2185221E+03  0.7818608E-02  0.1134990E+00
         21   -1    0    0  501  502  0.00000000000E+00  0.00000000000E+00  0.10823049663E+03  0.10823049663E+03  0.00000000000E+00 0. -1.
         21   -1    0    0  502  503 -0.00000000000E+00 -0.00000000000E+00 -0.44923112561E+03  0.44923112561E+03  0.00000000000E+00 0.  1.
          6    1    1    2  501    0 -0.11281930006E+03  0.73754331202E+02 -0.13324500781E+03  0.25594164949E+03  0.17200000000E+03 0.  1.
         -6    1    1    2    0  503  0.11281930006E+03 -0.73754331202E+02 -0.20775562117E+03  0.30151997275E+03  0.17200000000E+03 0.  1.
</event>
<event>
 4    1  0.1181383E+000  0.2098746E+03  0.7818608E-02  0.1141665E+00
         21   -1    0    0  501  502  0.00000000000E+00  0.00000000000E+00  0.19754854439E+04  0.19754854439E+04  0.00000000000E+00 0.  1.
         21   -1    0    0  502  503 -0.00000000000E+00 -0.00000000000E+00 -0.32982898388E+02  0.32982898388E+02  0.00000000000E+00 0. -1.
          6    1    1    2  501    0 -0.46248615431E+02  0.11101539717E+03  0.15428570124E+04  0.15570661879E+04  0.17200000000E+03 0.  1.
         -6    1    1    2    0  503  0.46248615431E+02 -0.11101539717E+03  0.39964553313E+03  0.45140215439E+03  0.17200000000E+03 0. -1.
</event>
<event>
 4    1  0.1181383E+000  0.2335963E+03  0.7818608E-02  0.1124134E+00
         21   -1    0    0  503  502  0.00000000000E+00  0.00000000000E+00  0.95889055243E+03  0.95889055243E+03  0.00000000000E+00 0.  1.
         21   -1    0    0  501  503 -0.00000000000E+00 -0.00000000000E+00 -0.56911862773E+02  0.56911862773E+02  0.00000000000E+00 0.  1.
          6    1    1    2  501    0  0.14427644439E+03  0.64556593608E+02  0.44612709794E+03  0.50358379015E+03  0.17200000000E+03 0. -1.
         -6    1    1    2    0  502 -0.14427644439E+03 -0.64556593608E+02  0.45585159172E+03  0.51221862506E+03  0.17200000000E+03 0. -1.
</event>
<event>
 4    1  0.1181383E+000  0.1778056E+03  0.7818608E-02  0.1169944E+00
         21   -1    0    0  501  502  0.00000000000E+00  0.00000000000E+00  0.50886971508E+03  0.50886971508E+03  0.00000000000E+00 0. -1.
         21   -1    0    0  502  503 -0.00000000000E+00 -0.00000000000E+00 -0.83418727222E+02  0.83418727222E+02  0.00000000000E+00 0.  1.
          6    1    1    2  501    0  0.22271436612E+02  0.39176618542E+02  0.36233920904E+03  0.40361432920E+03  0.17200000000E+03 0. -1.
         -6    1    1    2    0  503 -0.22271436612E+02 -0.39176618542E+02  0.63111778820E+02  0.18867411310E+03  0.17200000000E+03 0.  1.
</event>
<event>
 4    1  0.1181383E+000  0.1964431E+03  0.7818608E-02  0.1152775E+00
         21   -1    0    0  503  502  0.00000000000E+00  0.00000000000E+00  0.10888656476E+03  0.10888656476E+03  0.00000000000E+00 0.  1.
         21   -1    0    0  501  503 -0.00000000000E+00 -0.00000000000E+00 -0.77283956889E+03  0.77283956889E+03  0.00000000000E+00 0.  1.
          6    1    1    2  501    0 -0.94775163379E+02  0.48528078812E+01 -0.65637072751E+03  0.68513678435E+03  0.17200000000E+03 0.  1.
         -6    1    1    2    0  502  0.94775163379E+02 -0.48528078812E+01 -0.75822766194E+01  0.19658934930E+03  0.17200000000E+03 0.  1.
</event>
<event>
 4    1  0.1181383E+000  0.2101846E+03  0.7818608E-02  0.1141420E+00
         21   -1    0    0  501  502  0.00000000000E+00  0.00000000000E+00  0.12231165634E+03  0.12231165634E+03  0.00000000000E+00 0.  1.
         21   -1    0    0  502  503 -0.00000000000E+00 -0.00000000000E+00 -0.82776194897E+03  0.82776194897E+03  0.00000000000E+00 0. -1.
          6    1    1    2  501    0 -0.56837740196E+02  0.10659750678E+03  0.39185589437E+01  0.21022110329E+03  0.17200000000E+03 0.  1.
         -6    1    1    2    0  503  0.56837740196E+02 -0.10659750678E+03 -0.70936885158E+03  0.73985250203E+03  0.17200000000E+03 0. -1.
</event>
<event>
 4    1  0.1181383E+000  0.1927875E+03  0.7818608E-02  0.1155971E+00
         21   -1    0    0  501  502  0.00000000000E+00  0.00000000000E+00  0.88179804283E+02  0.88179804283E+02  0.00000000000E+00 0. -1.
         21   -1    0    0  502  503 -0.00000000000E+00 -0.00000000000E+00 -0.77867772468E+03  0.77867772468E+03  0.00000000000E+00 0. -1.
          6    1    1    2  501    0 -0.77808671053E+02  0.39100184242E+02 -0.51696062044E+02  0.19959833799E+03  0.17200000000E+03 0. -1.
         -6    1    1    2    0  503  0.77808671053E+02 -0.39100184242E+02 -0.63880185835E+03  0.66725919097E+03  0.17200000000E+03 0. -1.
</event>
<event>
 4    1  0.1181383E+000  0.2006248E+03  0.7818608E-02  0.1149213E+00
         21   -1    0    0  501  502  0.00000000000E+00  0.00000000000E+00  0.97043831925E+02  0.97043831925E+02  0.00000000000E+00 0.  1.
         21   -1    0    0  502  503 -0.00000000000E+00 -0.00000000000E+00 -0.45072974109E+03  0.45072974109E+03  0.00000000000E+00 0.  1.
          6    1    1    2  501    0  0.41467902250E+02 -0.94587214813E+02 -0.99476093474E+02  0.22393262669E+03  0.17200000000E+03 0.  1.
         -6    1    1    2    0  503 -0.41467902250E+02  0.94587214813E+02 -0.25420981569E+03  0.32384094632E+03  0.17200000000E+03 0.  1.
</event>
<event>
 4    1  0.1181383E+000  0.1861539E+03  0.7818608E-02  0.1161977E+00
         21   -1    0    0  503  502  0.00000000000E+00  0.00000000000E+00  0.74185220209E+03  0.74185220209E+03  0.00000000000E+00 0.  1.
         21   -1    0    0  501  503 -0.00000000000E+00 -0.00000000000E+00 -0.14721958142E+03  0.14721958142E+03  0.00000000000E+00 0.  1.
          6    1    1    2  501    0  0.58065300445E+02  0.41203038585E+02 -0.69986146863E+02  0.19887516249E+03  0.17200000000E+03 0.  1.
         -6    1    1    2    0  502 -0.58065300445E+02 -0.41203038585E+02  0.66461876754E+03  0.69019662102E+03  0.17200000000E+03 0.  1.
</event>
<event>
 4    1  0.1181383E+000  0.1896339E+03  0.7818608E-02  0.1158792E+00
         21   -1    0    0  501  502  0.00000000000E+00  0.00000000000E+00  0.20500709909E+03  0.20500709909E+03  0.00000000000E+00 0.  1.
         21   -1    0    0  502  503 -0.00000000000E+00 -0.00000000000E+00 -0.20574772896E+03  0.20574772896E+03  0.00000000000E+00 0.  1.
          6    1    1    2  501    0 -0.39611478334E+02 -0.69339281058E+02  0.78488800979E+02  0.20523522357E+03  0.17200000000E+03 0. -1.
         -6    1    1    2    0  503  0.39611478334E+02  0.69339281058E+02 -0.79229430850E+02  0.20551960448E+03  0.17200000000E+03 0. -1.
</event>
<event>
 4    1  0.1181383E+000  0.1770206E+03  0.7818608E-02  0.1170718E+00
         21   -1    0    0  503  502  0.00000000000E+00  0.00000000000E+00  0.13043695230E+03  0.13043695230E+03  0.00000000000E+00 0. -1.
         21   -1    0    0  501  503 -0.00000000000E+00 -0.00000000000E+00 -0.24219056510E+03  0.24219056510E+03  0.00000000000E+00 0. -1.
          6    1    1    2  501    0  0.18337917939E+01 -0.41820034078E+02 -0.39159849165E+02  0.18130022567E+03  0.17200000000E+03 0. -1.
         -6    1    1    2    0  502 -0.18337917939E+01  0.41820034078E+02 -0.72593763628E+02  0.19132729173E+03  0.17200000000E+03 0. -1.
</event>
<event>
 4    1  0.1181383E+000  0.1721072E+03  0.7818608E-02  0.1175668E+00
         21   -1    0    0  501  502  0.00000000000E+00  0.00000000000E+00  0.27489137068E+03  0.27489137068E+03  0.00000000000E+00 0. -1.
         21   -1    0    0  502  503 -0.00000000000E+00 -0.00000000000E+00 -0.11454296521E+03  0.11454296521E+03  0.00000000000E+00 0. -1.
          6    1    1    2  501    0 -0.48241641223E+01 -0.36891241381E+01  0.32772472331E+02  0.17519964937E+03  0.17200000000E+03 0. -1.
         -6    1    1    2    0  503  0.48241641223E+01  0.36891241381E+01  0.12757593314E+03  0.21423468653E+03  0.17200000000E+03 0. -1.
</event>
<event>
 4    1  0.1181383E+000  0.2061226E+03  0.7818608E-02  0.1144674E+00
         21   -1    0    0  503  502  0.00000000000E+00  0.00000000000E+00  0.31985591603E+03  0.31985591603E+03  0.00000000000E+00 0. -1.
         21   -1    0    0  501  503 -0.00000000000E+00 -0.00000000000E+00 -0.15778623966E+03  0.15778623966E+03  0.00000000000E+00 0. -1.
          6    1    1    2  501    0  0.53660624931E+02 -0.10011518814E+03 -0.13943866770E+02  0.20659367121E+03  0.17200000000E+03 0.  1.
         -6    1    1    2    0  502 -0.53660624931E+02  0.10011518814E+03  0.17601354314E+03  0.27104848447E+03  0.17200000000E+03 0.  1.
</event>
<event>
 4    1  0.1181383E+000  0.2310101E+03  0.7818608E-02  0.1125931E+00
         21   -1    0    0  501  502  0.00000000000E+00  0.00000000000E+00  0.15794241288E+03  0.15794241288E+03  0.00000000000E+00 0. -1.
         21   -1    0    0  502  503 -0.00000000000E+00 -0.00000000000E+00 -0.39509197872E+03  0.39509197872E+03  0.00000000000E+00 0. -1.
          6    1    1    2  501    0  0.23499490475E+02 -0.15241205388E+03 -0.22379874567E+03  0.32163883283E+03  0.17200000000E+03 0.  1.
         -6    1    1    2    0  503 -0.23499490475E+02  0.15241205388E+03 -0.13350820173E+02  0.23139555877E+03  0.17200000000E+03 0.  1.
</event>
<event>
 4    1  0.1181383E+000  0.1765586E+03  0.7818608E-02  0.1171176E+00
         21   -1    0    0  503  502  0.00000000000E+00  0.00000000000E+00  0.38696488256E+02  0.38696488256E+02  0.00000000000E+00 0. -1.
         21   -1    0    0  501  503 -0.00000000000E+00 -0.00000000000E+00 -0.11482322981E+04  0.11482322981E+04  0.00000000000E+00 0. -1.
          6    1    1    2  501    0 -0.39702991001E+02 -0.35492347869E+01 -0.87896548135E+03  0.89652286193E+03  0.17200000000E+03 0.  1.
         -6    1    1    2    0  502  0.39702991001E+02  0.35492347869E+01 -0.23057032852E+03  0.29040592445E+03  0.17200000000E+03 0.  1.
</event>
<event>
 4    1  0.1181383E+000  0.2444957E+03  0.7818608E-02  0.1116834E+00
         21   -1    0    0  503  502  0.00000000000E+00  0.00000000000E+00  0.44200563384E+03  0.44200563384E+03  0.00000000000E+00 0. -1.
         21   -1    0    0  501  503 -0.00000000000E+00 -0.00000000000E+00 -0.13850770903E+03  0.13850770903E+03  0.00000000000E+00 0. -1.
          6    1    1    2  501    0  0.14497583700E+03  0.95792347727E+02  0.10718666328E+03  0.26695907548E+03  0.17200000000E+03 0. -1.
         -6    1    1    2    0  502 -0.14497583700E+03 -0.95792347727E+02  0.19631126152E+03  0.31355426739E+03  0.17200000000E+03 0. -1.
</event>
<event>
 4    1  0.1181383E+000  0.1753330E+03  0.7818608E-02  0.1172398E+00
         21   -1    0    0  501  502  0.00000000000E+00  0.00000000000E+00  0.64854306706E+02  0.64854306706E+02  0.00000000000E+00 0. -1.
         21   -1    0    0  502  503 -0.00000000000E+00 -0.00000000000E+00 -0.60584696310E+03  0.60584696310E+03  0.00000000000E+00 0. -1.
          6    1    1    2  501    0  0.20026173040E+02  0.27506811913E+02 -0.11406124118E+03  0.20916892467E+03  0.17200000000E+03 0. -1.
         -6    1    1    2    0  503 -0.20026173040E+02 -0.27506811913E+02 -0.42693141521E+03  0.46153234513E+03  0.17200000000E+03 0. -1.
</event>
<event>
 4    1  0.1181383E+000  0.1742340E+03  0.7818608E-02  0.1173503E+00
         21   -1    0    0  501  502  0.00000000000E+00  0.00000000000E+00  0.10729511276E+04  0.10729511276E+04  0.00000000000E+00 0. -1.
         21   -1    0    0  502  503 -0.00000000000E+00 -0.00000000000E+00 -0.41047294160E+02  0.41047294160E+02  0.00000000000E+00 0. -1.
          6    1    1    2  501    0  0.21242456603E+02  0.17951082364E+02  0.82643143614E+03  0.84459836725E+03  0.17200000000E+03 0.  1.
         -6    1    1    2    0  503 -0.21242456603E+02 -0.17951082364E+02  0.20547239732E+03  0.26940005453E+03  0.17200000000E+03 0.  1.
</event>
<event>
 4    1  0.1181383E+000  0.1837642E+03  0.7818608E-02  0.1164209E+00
         21   -1    0    0  503  502  0.00000000000E+00  0.00000000000E+00  0.10543688130E+04  0.10543688130E+04  0.00000000000E+00 0. -1.
         21   -1    0    0  501  503 -0.00000000000E+00 -0.00000000000E+00 -0.43791375699E+02  0.43791375699E+02  0.00000000000E+00 0. -1.
          6    1    1    2  501    0 -0.59728288191E+02  0.24855616137E+02  0.78987131639E+03  0.81096606989E+03  0.17200000000E+03 0. -1.
         -6    1    1    2    0  502  0.59728288191E+02 -0.24855616137E+02  0.22070612088E+03  0.28719411877E+03  0.17200000000E+03 0. -1.
</event>
<event>
 4    1  0.1181383E+000  0.1733820E+03  0.7818608E-02  0.1174366E+00
         21   -1    0    0  501  502  0.00000000000E+00  0.00000000000E+00  0.10565267499E+04  0.10565267499E+04  0.00000000000E+00 0.  1.
         21   -1    0    0  502  503 -0.00000000000E+00 -0.00000000000E+00 -0.32583930595E+02  0.32583930595E+02  0.00000000000E+00 0.  1.
          6    1    1    2  501    0  0.12801363568E+02  0.17704790277E+02  0.70586581799E+03  0.72684791224E+03  0.17200000000E+03 0.  1.
         -6    1    1    2    0  503 -0.12801363568E+02 -0.17704790277E+02  0.31807700134E+03  0.36226276829E+03  0.17200000000E+03 0.  1.
</event>
<event>
 4    1  0.1181383E+000  0.3466389E+03  0.7818608E-02  0.1064003E+00
         21   -1    0    0  503  502  0.00000000000E+00  0.00000000000E+00  0.20679138713E+03  0.20679138713E+03  0.00000000000E+00 0.  1.
         21   -1    0    0  501  503 -0.00000000000E+00 -0.00000000000E+00 -0.58109578809E+03  0.58109578809E+03  0.00000000000E+00 0. -1.
          6    1    1    2  501    0  0.81635092414E+02 -0.28967262268E+03 -0.19017763982E+03  0.39538089399E+03  0.17200000000E+03 0. -1.
         -6    1    1    2    0  502 -0.81635092414E+02  0.28967262268E+03 -0.18412676114E+03  0.39250628124E+03  0.17200000000E+03 0.  1.
</event>
<event>
 4    1  0.1181383E+000  0.1836903E+03  0.7818608E-02  0.1164279E+00
         21   -1    0    0  503  502  0.00000000000E+00  0.00000000000E+00  0.49499846060E+03  0.49499846060E+03  0.00000000000E+00 0. -1.
         21   -1    0    0  501  503 -0.00000000000E+00 -0.00000000000E+00 -0.69752462306E+02  0.69752462306E+02  0.00000000000E+00 0. -1.
          6    1    1    2  501    0  0.31894362085E+02  0.56043649789E+02  0.17003952807E+03  0.25031097084E+03  0.17200000000E+03 0. -1.
         -6    1    1    2    0  502 -0.31894362085E+02 -0.56043649789E+02  0.25520647022E+03  0.31443995207E+03  0.17200000000E+03 0. -1.
</event>
<event>
 4    1  0.1181383E+000  0.2242698E+03  0.7818608E-02  0.1130739E+00
         21   -1    0    0  501  502  0.00000000000E+00  0.00000000000E+00  0.47859210866E+03  0.47859210866E+03  0.00000000000E+00 0. -1.
         21   -1    0    0  502  503 -0.00000000000E+00 -0.00000000000E+00 -0.20983462806E+03  0.20983462806E+03  0.00000000000E+00 0. -1.
          6    1    1    2  501    0  0.70165708624E+02  0.12565711987E+03  0.37756985091E+03  0.43915365279E+03  0.17200000000E+03 0. -1.
         -6    1    1    2    0  503 -0.70165708624E+02 -0.12565711987E+03 -0.10881237030E+03  0.24927308393E+03  0.17200000000E+03 0. -1.
</event>
<event>
 4    1  0.1181383E+000  0.2552973E+03  0.7818608E-02  0.1110002E+00
         21   -1    0    0  501  502  0.00000000000E+00  0.00000000000E+00  0.82545894315E+03  0.82545894315E+03  0.00000000000E+00 0.  1.
         21   -1    0    0  502  503 -0.00000000000E+00 -0.00000000000E+00 -0.79405074094E+02  0.79405074094E+02  0.00000000000E+00 0. -1.
          6    1    1    2  501    0  0.18769096676E+02  0.18772430267E+03  0.40697045015E+03  0.48041819293E+03  0.17200000000E+03 0.  1.
         -6    1    1    2    0  503 -0.18769096676E+02 -0.18772430267E+03  0.33908341890E+03  0.42444582431E+03  0.17200000000E+03 0. -1.
</event>
<event>
 4    1  0.1181383E+000  0.3167848E+03  0.7818608E-02  0.1077139E+00
         21   -1    0    0  501  502  0.00000000000E+00  0.00000000000E+00  0.16617645729E+03  0.16617645729E+03  0.00000000000E+00 0.  1.
         21   -1    0    0  502  503 -0.00000000000E+00 -0.00000000000E+00 -0.61985237401E+03  0.61985237401E+03  0.00000000000E+00 0.  1.
          6    1    1    2  501    0 -0.22162750041E+03 -0.14713890347E+03 -0.16377300005E+03  0.35661492032E+03  0.17200000000E+03 0.  1.
         -6    1    1    2    0  503  0.22162750041E+03  0.14713890347E+03 -0.28990291666E+03  0.42941391098E+03  0.17200000000E+03 0.  1.
</event>
<event>
 4    1  0.1181383E+000  0.1884647E+03  0.7818608E-02  0.1159853E+00
         21   -1    0    0  503  502  0.00000000000E+00  0.00000000000E+00  0.79423082099E+02  0.79423082099E+02  0.00000000000E+00 0. -1.
         21   -1    0    0  501  503 -0.00000000000E+00 -0.00000000000E+00 -0.44780141862E+03  0.44780141862E+03  0.00000000000E+00 0. -1.
          6    1    1    2  501    0  0.62608343929E+02  0.44890300970E+02 -0.19375424172E+03  0.27029548653E+03  0.17200000000E+03 0. -1.
         -6    1    1    2    0  502 -0.62608343929E+02 -0.44890300970E+02 -0.17462409480E+03  0.25692901419E+03  0.17200000000E+03 0. -1.
</event>
<event>
 4    1  0.1181383E+000  0.1764604E+03  0.7818608E-02  0.1171273E+00
         21   -1    0    0  501  502  0.00000000000E+00  0.00000000000E+00  0.13241489119E+03  0.13241489119E+03  0.00000000000E+00 0. -1.
         21   -1    0    0  502  503 -0.00000000000E+00 -0.00000000000E+00 -0.62168794229E+03  0.62168794229E+03  0.00000000000E+00 0. -1.
          6    1    1    2  501    0 -0.36817999734E+02  0.14096832186E+02  0.52671408712E+02  0.18415363987E+03  0.17200000000E+03 0. -1.
         -6    1    1    2    0  503  0.36817999734E+02 -0.14096832186E+02 -0.54194445981E+03  0.56994919361E+03  0.17200000000E+03 0. -1.
</event>
<event>
 4    1  0.1181383E+000  0.1839139E+03  0.7818608E-02  0.1164068E+00
         21   -1    0    0  501  502  0.00000000000E+00  0.00000000000E+00  0.19239185031E+03  0.19239185031E+03  0.00000000000E+00 0.  1.
         21   -1    0    0  502  503 -0.00000000000E+00 -0.00000000000E+00 -0.22154017527E+03  0.22154017527E+03  0.00000000000E+00 0.  1.
          6    1    1    2  501    0 -0.63708208501E+02 -0.13475677137E+02  0.79457958033E+02  0.20034444539E+03  0.17200000000E+03 0.  1.
         -6    1    1    2    0  503  0.63708208501E+02  0.13475677137E+02 -0.10860628299E+03  0.21358758019E+03  0.17200000000E+03 0.  1.
</event>
<event>
 4    1  0.1181383E+000  0.1765366E+03  0.7818608E-02  0.1171198E+00
         21   -1    0    0  501  502  0.00000000000E+00  0.00000000000E+00  0.46204682195E+03  0.46204682195E+03  0.00000000000E+00 0. -1.
         21   -1    0    0  502  503 -0.00000000000E+00 -0.00000000000E+00 -0.97514868433E+02  0.97514868433E+02  0.00000000000E+00 0. -1.
          6    1    1    2  501    0  0.38914638333E+02  0.81744979871E+01  0.33761568436E+03  0.38098493647E+03  0.17200000000E+03 0. -1.
         -6    1    1    2    0  503 -0.38914638333E+02 -0.81744979871E+01  0.26916269167E+02  0.17857675392E+03  0.17200000000E+03 0. -1.
</event>
<event>
 4    1  0.1181383E+000  0.1880808E+03  0.7818608E-02  0.1160204E+00
         21   -1    0    0  501  502  0.00000000000E+00  0.00000000000E+00  0.25439540535E+04  0.25439540535E+04  0.00000000000E+00 0. -1.
         21   -1    0    0  502  503 -0.00000000000E+00 -0.00000000000E+00 -0.16118903031E+02  0.16118903031E+02  0.00000000000E+00 0. -1.
          6    1    1    2  501    0 -0.48865414651E+02  0.58331415396E+02  0.17382762509E+04  0.17484217761E+04  0.17200000000E+03 0. -1.
         -6    1    1    2    0  503  0.48865414651E+02 -0.58331415396E+02  0.78955889957E+03  0.81165118041E+03  0.17200000000E+03 0. -1.
</event>
<event>
 4    1  0.1181383E+000  0.1837498E+03  0.7818608E-02  0.1164223E+00
         21   -1    0    0  503  502  0.00000000000E+00  0.00000000000E+00  0.11956519157E+04  0.11956519157E+04  0.00000000000E+00 0.  1.
         21   -1    0    0  501  503 -0.00000000000E+00 -0.00000000000E+00 -0.35156879493E+02  0.35156879493E+02  0.00000000000E+00 0. -1.
          6    1    1    2  501    0  0.13254899410E+02 -0.63279582029E+02  0.30726026604E+03  0.35801238658E+03  0.17200000000E+03 0. -1.
         -6    1    1    2    0  502 -0.13254899410E+02  0.63279582029E+02  0.85323477020E+03  0.87279640864E+03  0.17200000000E+03 0.  1.
</event>
<event>
 4    1  0.1181383E+000  0.1761025E+03  0.7818608E-02  0.1171629E+00
         21   -1    0    0  503  502  0.00000000000E+00  0.00000000000E+00  0.62452400040E+03  0.62452400040E+03  0.00000000000E+00 0.  1.
         21   -1    0    0  501  503 -0.00000000000E+00 -0.00000000000E+00 -0.11856923475E+03  0.11856923475E+03  0.00000000000E+00 0.  1.
          6    1    1    2  501    0  0.17402354048E+02 -0.33544960108E+02 -0.30275849937E+02  0.17868613087E+03  0.17200000000E+03 0.  1.
         -6    1    1    2    0  502 -0.17402354048E+02  0.33544960108E+02  0.53623061559E+03  0.56440710428E+03  0.17200000000E+03 0.  1.
</event>
<event>
 4    1  0.1181383E+000  0.2133020E+03  0.7818608E-02  0.1138978E+00
         21   -1    0    0  503  502  0.00000000000E+00  0.00000000000E+00  0.73818562798E+03  0.73818562798E+03  0.00000000000E+00 0.  1.
         21   -1    0    0  501  503 -0.00000000000E+00 -0.00000000000E+00 -0.16284749996E+03  0.16284749996E+03  0.00000000000E+00 0.  1.
          6    1    1    2  501    0  0.77752356380E+02 -0.99339320436E+02 -0.67502579075E+02  0.22372824517E+03  0.17200000000E+03 0.  1.
         -6    1    1    2    0  502 -0.77752356380E+02  0.99339320436E+02  0.64284070710E+03  0.67730488276E+03  0.17200000000E+03 0.  1.
</event>
<event>
 4    1  0.1181383E+000  0.2009255E+03  0.7818608E-02  0.1148961E+00
         21   -1    0    0  503  502  0.00000000000E+00  0.00000000000E+00  0.31144990934E+03  0.31144990934E+03  0.00000000000E+00 0.  1.
         21   -1    0    0  501  503 -0.00000000000E+00 -0.00000000000E+00 -0.12996300590E+03  0.12996300590E+03  0.00000000000E+00 0.  1.
          6    1    1    2  501    0 -0.59450114834E+02  0.85163002476E+02  0.10203325136E+03  0.22534825832E+03  0.17200000000E+03 0. -1.
         -6    1    1    2    0  502  0.59450114834E+02 -0.85163002476E+02  0.79453652081E+02  0.21606465693E+03  0.17200000000E+03 0. -1.
</event>
<event>
 4    1  0.1181383E+000  0.1730092E+03  0.7818608E-02  0.1174746E+00
         21   -1    0    0  501  502  0.00000000000E+00  0.00000000000E+00  0.14484857030E+03  0.14484857030E+03  0.00000000000E+00 0. -1.
         21   -1    0    0  502  503 -0.00000000000E+00 -0.00000000000E+00 -0.10927048980E+04  0.10927048980E+04  0.00000000000E+00 0. -1.
          6    1    1    2  501    0  0.11592282392E+02  0.14621626421E+02  0.83275768883E+02  0.19200788175E+03  0.17200000000E+03 0. -1.
         -6    1    1    2    0  503 -0.11592282392E+02 -0.14621626421E+02 -0.10311320966E+04  0.10455455866E+04  0.17200000000E+03 0. -1.
</event>
<event>
 4    1  0.1181383E+000  0.1904674E+03  0.7818608E-02  0.1158040E+00
         21   -1    0    0  503  502  0.00000000000E+00  0.00000000000E+00  0.10636029397E+03  0.10636029397E+03  0.00000000000E+00 0.  1.
         21   -1    0    0  501  503 -0.00000000000E+00 -0.00000000000E+00 -0.37774462950E+03  0.37774462950E+03  0.00000000000E+00 0.  1.
          6    1    1    2  501    0 -0.34660250743E+01  0.81742432491E+02 -0.21109850711E+03  0.28432449473E+03  0.17200000000E+03 0.  1.
         -6    1    1    2    0  502  0.34660250743E+01 -0.81742432491E+02 -0.60285828411E+02  0.19978042874E+03  0.17200000000E+03 0.  1.
</event>
<event>
 4    1  0.1181383E+000  0.1741065E+03  0.7818608E-02  0.1173632E+00
         21   -1    0    0  503  502  0.00000000000E+00  0.00000000000E+00  0.11340308369E+03  0.11340308369E+03  0.00000000000E+00 0. -1.
         21   -1    0    0  501  503 -0.00000000000E+00 -0.00000000000E+00 -0.26916791216E+03  0.26916791216E+03  0.00000000000E+00 0. -1.
          6    1    1    2  501    0  0.18113293823E+02  0.20024422104E+02 -0.93801308684E+02  0.19776691939E+03  0.17200000000E+03 0. -1.
         -6    1    1    2    0  502 -0.18113293823E+02 -0.20024422104E+02 -0.61963519778E+02  0.18480407646E+03  0.17200000000E+03 0. -1.
</event>
<event>
 4    1  0.1181383E+000  0.2063233E+03  0.7818608E-02  0.1144511E+00
         21   -1    0    0  501  502  0.00000000000E+00  0.00000000000E+00  0.13143087765E+03  0.13143087765E+03  0.00000000000E+00 0.  1.
         21   -1    0    0  502  503 -0.00000000000E+00 -0.00000000000E+00 -0.32720791912E+03  0.32720791912E+03  0.00000000000E+00 0.  1.
          6    1    1    2  501    0 -0.11291734272E+03 -0.15329606554E+02 -0.12097586874E+03  0.23917458883E+03  0.17200000000E+03 0. -1.
         -6    1    1    2    0  503  0.11291734272E+03  0.15329606554E+02 -0.74801172731E+02  0.21946420794E+03  0.17200000000E+03 0. -1.
</event>
<event>
 4    1  0.1181383E+000  0.2360180E+03  0.7818608E-02  0.1122474E+00
         21   -1    0    0  501  502  0.00000000000E+00  0.00000000000E+00  0.50824799859E+03  0.50824799859E+03  0.00000000000E+00 0. -1.
         21   -1    0    0  502  503 -0.00000000000E+00 -0.00000000000E+00 -0.11209536657E+03  0.11209536657E+03  0.00000000000E+00 0. -1.
          6    1    1    2  501    0 -0.63099095664E+02  0.14879184844E+03  0.24434475338E+03  0.33971880805E+03  0.17200000000E+03 0. -1.
         -6    1    1    2    0  503  0.63099095664E+02 -0.14879184844E+03  0.15180787865E+03  0.28062455711E+03  0.17200000000E+03 0. -1.
</event>
<event>
 4    1  0.1181383E+000  0.1746381E+03  0.7818608E-02  0.1173096E+00
         21   -1    0    0  501  502  0.00000000000E+00  0.00000000000E+00  0.36865117972E+03  0.36865117972E+03  0.00000000000E+00 0. -1.
         21   -1    0    0  502  503 -0.00000000000E+00 -0.00000000000E+00 -0.82814647238E+02  0.82814647238E+02  0.00000000000E+00 0. -1.
          6    1    1    2  501    0  0.12216910355E+01  0.30215637185E+02  0.13569738832E+03  0.22116115947E+03  0.17200000000E+03 0.  1.
         -6    1    1    2    0  503 -0.12216910355E+01 -0.30215637185E+02  0.15013914416E+03  0.23030466749E+03  0.17200000000E+03 0.  1.
</event>
<event>
 4    1  0.1181383E+000  0.2015556E+03  0.7818608E-02  0.1148433E+00
         21   -1    0    0  501  502  0.00000000000E+00  0.00000000000E+00  0.28890369777E+02  0.28890369777E+02  0.00000000000E+00 0.  1.
         21   -1    0    0  502  503 -0.00000000000E+00 -0.00000000000E+00 -0.14061872185E+04  0.14061872185E+04  0.00000000000E+00 0. -1.
          6    1    1    2  501    0  0.37400912484E+00  0.10507393600E+03 -0.68589821831E+03  0.71489932004E+03  0.17200000000E+03 0. -1.
         -6    1    1    2    0  503 -0.37400912484E+00 -0.10507393600E+03 -0.69139863045E+03  0.72017826828E+03  0.17200000000E+03 0. -1.
</event>
<event>
 4    1  0.1181383E+000  0.2054868E+03  0.7818608E-02  0.1145191E+00
         21   -1    0    0  503  502  0.00000000000E+00  0.00000000000E+00  0.86361413595E+03  0.86361413595E+03  0.00000000000E+00 0.  1.
         21   -1    0    0  501  503 -0.00000000000E+00 -0.00000000000E+00 -0.10697802843E+03  0.10697802843E+03  0.00000000000E+00 0.  1.
          6    1    1    2  501    0  0.73873329274E+02 -0.84755807480E+02  0.20723387877E+02  0.20652911292E+03  0.17200000000E+03 0.  1.
         -6    1    1    2    0  502 -0.73873329274E+02  0.84755807480E+02  0.73591271964E+03  0.76406305146E+03  0.17200000000E+03 0.  1.
</event>
<event>
 4    1  0.1181383E+000  0.1976466E+03  0.7818608E-02  0.1151740E+00
         21   -1    0    0  501  502  0.00000000000E+00  0.00000000000E+00  0.22954679457E+03  0.22954679457E+03  0.00000000000E+00 0.  1.
         21   -1    0    0  502  503 -0.00000000000E+00 -0.00000000000E+00 -0.23283673035E+03  0.23283673035E+03  0.00000000000E+00 0. -1.
          6    1    1    2  501    0  0.94881973150E+02 -0.21854147960E+02 -0.12157603422E+03  0.23204509197E+03  0.17200000000E+03 0. -1.
         -6    1    1    2    0  503 -0.94881973150E+02  0.21854147960E+02  0.11828609844E+03  0.23033843295E+03  0.17200000000E+03 0. -1.
</event>
<event>
 4    1  0.1181383E+000  0.2138373E+03  0.7818608E-02  0.1138563E+00
         21   -1    0    0  503  502  0.00000000000E+00  0.00000000000E+00  0.64226745207E+03  0.64226745207E+03  0.00000000000E+00 0.  1.
         21   -1    0    0  501  503 -0.00000000000E+00 -0.00000000000E+00 -0.71738335539E+02  0.71738335539E+02  0.00000000000E+00 0.  1.
          6    1    1    2  501    0  0.11255089653E+02 -0.12655314683E+03  0.25420179808E+03  0.33218207382E+03  0.17200000000E+03 0.  1.
         -6    1    1    2    0  502 -0.11255089653E+02  0.12655314683E+03  0.31632731845E+03  0.38182371379E+03  0.17200000000E+03 0.  1.
</event>
<event>
 4    1  0.1181383E+000  0.1739016E+03  0.7818608E-02  0.1173839E+00
         21   -1    0    0  501  502  0.00000000000E+00  0.00000000000E+00  0.71956408830E+03  0.71956408830E+03  0.00000000000E+00 0.  1.
         21   -1    0    0  502  503 -0.00000000000E+00 -0.00000000000E+00 -0.42125844474E+02  0.42125844474E+02  0.00000000000E+00 0.  1.
          6    1    1    2  501    0 -0.25273248395E+02  0.43640620069E+01  0.32035716483E+03  0.36451405347E+03  0.17200000000E+03 0. -1.
         -6    1    1    2    0  503  0.25273248395E+02 -0.43640620069E+01  0.35708107899E+03  0.39717587930E+03  0.17200000000E+03 0. -1.
</event>
<event>
 4    1  0.1181383E+000  0.1774528E+03  0.7818608E-02  0.1170291E+00
         21   -1    0    0  501  502  0.00000000000E+00  0.00000000000E+00  0.16917611360E+03  0.16917611360E+03  0.00000000000E+00 0.  1.
         21   -1    0    0  502  503 -0.00000000000E+00 -0.00000000000E+00 -0.21117945146E+03  0.21117945146E+03  0.00000000000E+00 0.  1.
          6    1    1    2  501    0  0.24487271133E+02  0.36136612673E+02  0.44491437481E+02  0.18294526294E+03  0.17200000000E+03 0. -1.
         -6    1    1    2    0  503 -0.24487271133E+02 -0.36136612673E+02 -0.86494775336E+02  0.19741030212E+03  0.17200000000E+03 0. -1.
</event>
<event>
 4    1  0.1181383E+000  0.1831966E+03  0.7818608E-02  0.1164745E+00
         21   -1    0    0  503  502  0.00000000000E+00  0.00000000000E+00  0.65105561155E+02  0.65105561155E+02  0.00000000000E+00 0. -1.
         21   -1    0    0  501  503 -0.00000000000E+00 -0.00000000000E+00 -0.58226032908E+03  0.58226032908E+03  0.00000000000E+00 0.  1.
          6    1    1    2  501    0  0.11425132640E+02 -0.62019920123E+02 -0.36819138751E+03  0.41124919694E+03  0.17200000000E+03 0. -1.
         -6    1    1    2    0  502 -0.11425132640E+02  0.62019920123E+02 -0.14896338042E+03  0.23611669330E+03  0.17200000000E+03 0. -1.
</event>
<event>
 4    1  0.1181383E+000  0.1915567E+03  0.7818608E-02  0.1157065E+00
         21   -1    0    0  503  502  0.00000000000E+00  0.00000000000E+00  0.56343328487E+03  0.56343328487E+03  0.00000000000E+00 0.  1.
         21   -1    0    0  501  503 -0.00000000000E+00 -0.00000000000E+00 -0.14574972564E+03  0.14574972564E+03  0.00000000000E+00 0.  1.
          6    1    1    2  501    0 -0.67360885335E+02 -0.50719626948E+02 -0.54886546448E+02  0.19926490512E+03  0.17200000000E+03 0.  1.
         -6    1    1    2    0  502  0.67360885335E+02  0.50719626948E+02  0.47257010568E+03  0.50991810539E+03  0.17200000000E+03 0.  1.
</event>
<event>
 4    1  0.1181383E+000  0.1746502E+03  0.7818608E-02  0.1173083E+00
         21   -1    0    0  501  502  0.00000000000E+00  0.00000000000E+00  0.10638507369E+03  0.10638507369E+03  0.00000000000E+00 0. -1.
         21   -1    0    0  502  503 -0.00000000000E+00 -0.00000000000E+00 -0.41399009366E+03  0.41399009366E+03  0.00000000000E+00 0. -1.
          6    1    1    2  501    0  0.30033130765E+02 -0.40859217312E+01 -0.95393333575E+01  0.17491049877E+03  0.17200000000E+03 0. -1.
         -6    1    1    2    0  503 -0.30033130765E+02  0.40859217312E+01 -0.29806568661E+03  0.34546466857E+03  0.17200000000E+03 0. -1.
</event>
<event>
 4    1  0.1181383E+000  0.1921084E+03  0.7818608E-02  0.1156573E+00
         21   -1    0    0  501  502  0.00000000000E+00  0.00000000000E+00  0.21260078442E+04  0.21260078442E+04  0.00000000000E+00 0. -1.
         21   -1    0    0  502  503 -0.00000000000E+00 -0.00000000000E+00 -0.61533238714E+02  0.61533238714E+02  0.00000000000E+00 0.  1.
          6    1    1    2  501    0 -0.81479886746E+02 -0.26128228165E+02  0.19589715459E+04  0.19683686580E+04  0.17200000000E+03 0. -1.
         -6    1    1    2    0  503  0.81479886746E+02  0.26128228165E+02  0.10550305959E+03  0.21917242490E+03  0.17200000000E+03 0.  1.
</event>
<event>
 4    1  0.1181383E+000  0.2725497E+03  0.7818608E-02  0.1099829E+00
         21   -1    0    0  503  502  0.00000000000E+00  0.00000000000E+00  0.15334888903E+03  0.15334888903E+03  0.00000000000E+00 0.  1.
         21   -1    0    0  501  503 -0.00000000000E+00 -0.00000000000E+00 -0.79071713077E+03  0.79071713077E+03  0.00000000000E+00 0.  1.
          6    1    1    2  501    0  0.21103147206E+03 -0.12847828456E+02 -0.61247758947E+03  0.67038208994E+03  0.17200000000E+03 0.  1.
         -6    1    1    2    0  502 -0.21103147206E+03  0.12847828456E+02 -0.24890652272E+02  0.27368392987E+03  0.17200000000E+03 0.  1.
</event>
<event>
 4    1  0.1181383E+000  0.1755314E+03  0.7818608E-02  0.1172199E+00
         21   -1    0    0  503  502  0.00000000000E+00  0.00000000000E+00  0.40132258193E+02  0.40132258193E+02  0.00000000000E+00 0. -1.
         21   -1    0    0  501  503 -0.00000000000E+00 -0.00000000000E+00 -0.76926806937E+03  0.76926806937E+03  0.00000000000E+00 0. -1.
          6    1    1    2  501    0 -0.72469321836E+01 -0.34274589049E+02 -0.34654930943E+03  0.38846838913E+03  0.17200000000E+03 0.  1.
         -6    1    1    2    0  502  0.72469321836E+01  0.34274589049E+02 -0.38258650175E+03  0.42093193844E+03  0.17200000000E+03 0.  1.
</event>
<event>
 4    1  0.1181383E+000  0.1934318E+03  0.7818608E-02  0.1155402E+00
         21   -1    0    0  501  502  0.00000000000E+00  0.00000000000E+00  0.52178802750E+03  0.52178802750E+03  0.00000000000E+00 0.  1.
         21   -1    0    0  502  503 -0.00000000000E+00 -0.00000000000E+00 -0.19871284633E+03  0.19871284633E+03  0.00000000000E+00 0.  1.
          6    1    1    2  501    0 -0.41508894330E+02  0.78159212900E+02  0.44954483442E+03  0.48939392010E+03  0.17200000000E+03 0.  1.
         -6    1    1    2    0  503  0.41508894330E+02 -0.78159212900E+02 -0.12646965326E+03  0.23110695374E+03  0.17200000000E+03 0.  1.
</event>
<event>
 4    1  0.1181383E+000  0.2625965E+03  0.7818608E-02  0.1105593E+00
         21   -1    0    0  501  502  0.00000000000E+00  0.00000000000E+00  0.15647279715E+04  0.15647279715E+04  0.00000000000E+00 0. -1.
         21   -1    0    0  502  503 -0.00000000000E+00 -0.00000000000E+00 -0.78747973726E+02  0.78747973726E+02  0.00000000000E+00 0. -1.
          6    1    1    2  501    0  0.25675812765E+02  0.19675788595E+03  0.12882995630E+04  0.13147899745E+04  0.17200000000E+03 0. -1.
         -6    1    1    2    0  503 -0.25675812765E+02 -0.19675788595E+03  0.19768043474E+03  0.32868597068E+03  0.17200000000E+03 0. -1.
</event>
<event>
 4    1  0.1181383E+000  0.1744338E+03  0.7818608E-02  0.1173301E+00
         21   -1    0    0  503  502  0.00000000000E+00  0.00000000000E+00  0.22314372825E+03  0.22314372825E+03  0.00000000000E+00 0.  1.
         21   -1    0    0  501  503 -0.00000000000E+00 -0.00000000000E+00 -0.17028519931E+03  0.17028519931E+03  0.00000000000E+00 0.  1.
          6    1    1    2  501    0 -0.18324203044E+02 -0.22524930134E+02 -0.61377905840E+02  0.18491726858E+03  0.17200000000E+03 0.  1.
         -6    1    1    2    0  502  0.18324203044E+02  0.22524930134E+02  0.11423643478E+03  0.20851165897E+03  0.17200000000E+03 0.  1.
</event>
<event>
 4    1  0.1181383E+000  0.2135704E+03  0.7818608E-02  0.1138769E+00
         21   -1    0    0  501  502  0.00000000000E+00  0.00000000000E+00  0.74476538102E+03  0.74476538102E+03  0.00000000000E+00 0. -1.
         21   -1    0    0  502  503 -0.00000000000E+00 -0.00000000000E+00 -0.68541034132E+02  0.68541034132E+02  0.00000000000E+00 0. -1.
          6    1    1    2  501    0  0.62425697582E+02 -0.11014249556E+03  0.20542619863E+03  0.29633133505E+03  0.17200000000E+03 0. -1.
         -6    1    1    2    0  503 -0.62425697582E+02  0.11014249556E+03  0.47079814826E+03  0.51697508011E+03  0.17200000000E+03 0. -1.
</event>
<event>
 4    1  0.1181383E+000  0.1815711E+03  0.7818608E-02  0.1166291E+00
         21   -1    0    0  501  502  0.00000000000E+00  0.00000000000E+00  0.31932361566E+03  0.31932361566E+03  0.00000000000E+00 0.  1.
         21   -1    0    0  502  503 -0.00000000000E+00 -0.00000000000E+00 -0.11272665708E+03  0.11272665708E+03  0.00000000000E+00 0.  1.
          6    1    1    2  501    0 -0.57085377046E+02 -0.11194068892E+02  0.16595558547E+03  0.24598638946E+03  0.17200000000E+03 0.  1.
         -6    1    1    2    0  503  0.57085377046E+02  0.11194068892E+02  0.40641373111E+02  0.18606388327E+03  0.17200000000E+03 0.  1.
</event>
<event>
 4    1  0.1181383E+000  0.2033085E+03  0.7818608E-02  0.1146977E+00
         21   -1    0    0  503  502  0.00000000000E+00  0.00000000000E+00  0.12332288190E+03  0.12332288190E+03  0.00000000000E+00 0. -1.
         21   -1    0    0  501  503 -0.00000000000E+00 -0.00000000000E+00 -0.41602117226E+03  0.41602117226E+03  0.00000000000E+00 0. -1.
          6    1    1    2  501    0 -0.73897330861E+02 -0.79306608446E+02 -0.26523124840E+03  0.33418852281E+03  0.17200000000E+03 0. -1.
         -6    1    1    2    0  502  0.73897330861E+02  0.79306608446E+02 -0.27467041967E+02  0.20515553136E+03  0.17200000000E+03 0. -1.
</event>
<event>
 4    1  0.1181383E+000  0.2228108E+03  0.7818608E-02  0.1131805E+00
         21   -1    0    0  501  502  0.00000000000E+00  0.00000000000E+00  0.16156414638E+03  0.16156414638E+03  0.00000000000E+00 0.  1.
         21   -1    0    0  502  503 -0.00000000000E+00 -0.00000000000E+00 -0.45105687369E+03  0.45105687369E+03  0.00000000000E+00 0.  1.
          6    1    1    2  501    0 -0.95254113046E+02  0.10482033760E+03  0.28194678092E+02  0.22458759783E+03  0.17200000000E+03 0. -1.
         -6    1    1    2    0  503  0.95254113046E+02 -0.10482033760E+03 -0.31768740540E+03  0.38803342224E+03  0.17200000000E+03 0. -1.
</event>
<event>
 4    1  0.1181383E+000  0.2377306E+03  0.7818608E-02  0.1121314E+00
         21   -1    0    0  503  502  0.00000000000E+00  0.00000000000E+00  0.23182022399E+02  0.23182022399E+02  0.00000000000E+00 0. -1.
         21   -1    0    0  501  503 -0.00000000000E+00 -0.00000000000E+00 -0.26314366401E+04  0.26314366401E+04  0.00000000000E+00 0.  1.
          6    1    1    2  501    0 -0.20313466228E+02  0.16284719485E+03 -0.16640740514E+04  0.16809694507E+04  0.17200000000E+03 0.  1.
         -6    1    1    2    0  502  0.20313466228E+02 -0.16284719485E+03 -0.94418056639E+03  0.97364921184E+03  0.17200000000E+03 0. -1.
</event>
<event>
 4    1  0.1181383E+000  0.2034656E+03  0.7818608E-02  0.1146848E+00
         21   -1    0    0  503  502  0.00000000000E+00  0.00000000000E+00  0.87971402024E+02  0.87971402024E+02  0.00000000000E+00 0.  1.
         21   -1    0    0  501  503 -0.00000000000E+00 -0.00000000000E+00 -0.59855399462E+03  0.59855399462E+03  0.00000000000E+00 0.  1.
          6    1    1    2  501    0 -0.10383915616E+03 -0.32119950970E+02 -0.41400802615E+03  0.46130348721E+03  0.17200000000E+03 0. -1.
         -6    1    1    2    0  502  0.10383915616E+03  0.32119950970E+02 -0.96574566450E+02  0.22522190943E+03  0.17200000000E+03 0. -1.
</event>
<event>
 4    1  0.1181383E+000  0.2307372E+03  0.7818608E-02  0.1126122E+00
         21   -1    0    0  501  502  0.00000000000E+00  0.00000000000E+00  0.26170236904E+03  0.26170236904E+03  0.00000000000E+00 0.  1.
         21   -1    0    0  502  503 -0.00000000000E+00 -0.00000000000E+00 -0.32565078106E+03  0.32565078106E+03  0.00000000000E+00 0. -1.
          6    1    1    2  501    0 -0.95819872277E+02 -0.12030887405E+03  0.14793574273E+03  0.27408877591E+03  0.17200000000E+03 0.  1.
         -6    1    1    2    0  503  0.95819872277E+02  0.12030887405E+03 -0.21188415475E+03  0.31326437419E+03  0.17200000000E+03 0. -1.
</event>
<event>
 4    1  0.1181383E+000  0.1909107E+03  0.7818608E-02  0.1157642E+00
         21   -1    0    0  501  502  0.00000000000E+00  0.00000000000E+00  0.94958877805E+02  0.94958877805E+02  0.00000000000E+00 0.  1.
         21   -1    0    0  502  503 -0.00000000000E+00 -0.00000000000E+00 -0.47490796110E+03  0.47490796110E+03  0.00000000000E+00 0.  1.
          6    1    1    2  501    0 -0.95081470093E+01  0.82295235110E+02 -0.65186110559E+02  0.20173284212E+03  0.17200000000E+03 0.  1.
         -6    1    1    2    0  503  0.95081470093E+01 -0.82295235110E+02 -0.31476297274E+03  0.36813399678E+03  0.17200000000E+03 0.  1.
</event>
<event>
 4    1  0.1181383E+000  0.2072973E+03  0.7818608E-02  0.1143724E+00
         21   -1    0    0  503  502  0.00000000000E+00  0.00000000000E+00  0.32830809704E+03  0.32830809704E+03  0.00000000000E+00 0.  1.
         21   -1    0    0  501  503 -0.00000000000E+00 -0.00000000000E+00 -0.18956416931E+03  0.18956416931E+03  0.00000000000E+00 0.  1.
          6    1    1    2  501    0 -0.80140857328E+02  0.83460194790E+02 -0.74686564187E+02  0.22034119905E+03  0.17200000000E+03 0.  1.
         -6    1    1    2    0  502  0.80140857328E+02 -0.83460194790E+02  0.21343049191E+03  0.29753106730E+03  0.17200000000E+03 0.  1.
</event>
<event>
 4    1  0.1181383E+000  0.2667683E+03  0.7818608E-02  0.1103144E+00
         21   -1    0    0  501  502  0.00000000000E+00  0.00000000000E+00  0.82324201311E+03  0.82324201311E+03  0.00000000000E+00 0. -1.
         21   -1    0    0  502  503 -0.00000000000E+00 -0.00000000000E+00 -0.86558010220E+02  0.86558010220E+02  0.00000000000E+00 0. -1.
          6    1    1    2  501    0 -0.10507722737E+03 -0.17475721318E+03  0.38476556544E+03  0.46819851305E+03  0.17200000000E+03 0. -1.
         -6    1    1    2    0  503  0.10507722737E+03  0.17475721318E+03  0.35191843745E+03  0.44160151028E+03  0.17200000000E+03 0. -1.
</event>
<event>
 4    1  0.1181383E+000  0.1940786E+03  0.7818608E-02  0.1154833E+00
         21   -1    0    0  501  502  0.00000000000E+00  0.00000000000E+00  0.44490552030E+03  0.44490552030E+03  0.00000000000E+00 0. -1.
         21   -1    0    0  502  503 -0.00000000000E+00 -0.00000000000E+00 -0.98716515076E+02  0.98716515076E+02  0.00000000000E+00 0. -1.
          6    1    1    2  501    0 -0.89774236388E+02 -0.48039926161E+01  0.27565580568E+03  0.33712403514E+03  0.17200000000E+03 0. -1.
         -6    1    1    2    0  503  0.89774236388E+02  0.48039926161E+01  0.70533199545E+02  0.20649800024E+03  0.17200000000E+03 0. -1.
</event>
<event>
 4    1  0.1181383E+000  0.1761813E+03  0.7818608E-02  0.1171551E+00
         21   -1    0    0  503  502  0.00000000000E+00  0.00000000000E+00  0.63015068641E+02  0.63015068641E+02  0.00000000000E+00 0. -1.
         21   -1    0    0  501  503 -0.00000000000E+00 -0.00000000000E+00 -0.91911040458E+03  0.91911040458E+03  0.00000000000E+00 0. -1.
          6    1    1    2  501    0  0.11468394621E+02 -0.36391208950E+02 -0.76257306281E+03  0.78266053962E+03  0.17200000000E+03 0. -1.
         -6    1    1    2    0  502 -0.11468394621E+02  0.36391208950E+02 -0.93522273135E+02  0.19946493360E+03  0.17200000000E+03 0. -1.
</event>
<event>
 4    1  0.1181383E+000  0.2191303E+03  0.7818608E-02  0.1134533E+00
         21   -1    0    0  503  502  0.00000000000E+00  0.00000000000E+00  0.58291568989E+03  0.58291568989E+03  0.00000000000E+00 0.  1.
         21   -1    0    0  501  503 -0.00000000000E+00 -0.00000000000E+00 -0.11300988107E+03  0.11300988107E+03  0.00000000000E+00 0. -1.
          6    1    1    2  501    0  0.83084965503E+02  0.10738229434E+03  0.53786375772E+02  0.22563475541E+03  0.17200000000E+03 0.  1.
         -6    1    1    2    0  502 -0.83084965503E+02 -0.10738229434E+03  0.41611943305E+03  0.47029081555E+03  0.17200000000E+03 0.  1.
</event>
<event>
 4    1  0.1181383E+000  0.1969404E+03  0.7818608E-02  0.1152346E+00
         21   -1    0    0  501  502  0.00000000000E+00  0.00000000000E+00  0.21419989071E+02  0.21419989071E+02  0.00000000000E+00 0.  1.
         21   -1    0    0  502  503 -0.00000000000E+00 -0.00000000000E+00 -0.18755241202E+04  0.18755241202E+04  0.00000000000E+00 0.  1.
          6    1    1    2  501    0  0.48473351967E+02 -0.82776045340E+02 -0.75074310322E+03  0.77614479742E+03  0.17200000000E+03 0. -1.
         -6    1    1    2    0  503 -0.48473351967E+02  0.82776045340E+02 -0.11033610279E+04  0.11207993118E+04  0.17200000000E+03 0. -1.
</event>
<event>
 4    1  0.1181383E+000  0.2179817E+03  0.7818608E-02  0.1135397E+00
         21   -1    0    0  503  502  0.00000000000E+00  0.00000000000E+00  0.14022042290E+04  0.14022042290E+04  0.00000000000E+00 0. -1.
         21   -1    0    0  501  503 -0.00000000000E+00 -0.00000000000E+00 -0.46015622462E+02  0.46015622462E+02  0.00000000000E+00 0.  1.
          6    1    1    2  501    0  0.12202251925E+03  0.55159263597E+02  0.30633366924E+03  0.37597387738E+03  0.17200000000E+03 0.  1.
         -6    1    1    2    0  502 -0.12202251925E+03 -0.55159263597E+02  0.10498549373E+04  0.10722459741E+04  0.17200000000E+03 0.  1.
</event>
<event>
 4    1  0.1181383E+000  0.1723021E+03  0.7818608E-02  0.1175468E+00
         21   -1    0    0  503  502  0.00000000000E+00  0.00000000000E+00  0.51074785716E+03  0.51074785716E+03  0.00000000000E+00 0. -1.
         21   -1    0    0  501  503 -0.00000000000E+00 -0.00000000000E+00 -0.12429257392E+03  0.12429257392E+03  0.00000000000E+00 0. -1.
          6    1    1    2  501    0 -0.45950878813E+01  0.91046532821E+01 -0.38440501177E+02  0.17653804597E+03  0.17200000000E+03 0. -1.
         -6    1    1    2    0  502  0.45950878813E+01 -0.91046532821E+01  0.42489578441E+03  0.45850238511E+03  0.17200000000E+03 0. -1.
</event>
<event>
 4    1  0.1181383E+000  0.2513041E+03  0.7818608E-02  0.1112483E+00
         21   -1    0    0  503  502  0.00000000000E+00  0.00000000000E+00  0.31900587441E+03  0.31900587441E+03  0.00000000000E+00 0. -1.
         21   -1    0    0  501  503 -0.00000000000E+00 -0.00000000000E+00 -0.20391774991E+03  0.20391774991E+03  0.00000000000E+00 0.  1.
          6    1    1    2  501    0  0.15861753938E+03 -0.91707188458E+02  0.10219608765E+03  0.27128909404E+03  0.17200000000E+03 0. -1.
         -6    1    1    2    0  502 -0.15861753938E+03  0.91707188458E+02  0.12892036848E+02  0.25163453028E+03  0.17200000000E+03 0. -1.
</event>
<event>
 4    1  0.1181383E+000  0.1945702E+03  0.7818608E-02  0.1154403E+00
         21   -1    0    0  501  502  0.00000000000E+00  0.00000000000E+00  0.41640215953E+03  0.41640215953E+03  0.00000000000E+00 0. -1.
         21   -1    0    0  502  503 -0.00000000000E+00 -0.00000000000E+00 -0.91172898957E+02  0.91172898957E+02  0.00000000000E+00 0. -1.
          6    1    1    2  501    0 -0.11969994947E+02  0.90168103989E+02  0.17608942095E+03  0.26242151575E+03  0.17200000000E+03 0.  1.
         -6    1    1    2    0  503  0.11969994947E+02 -0.90168103989E+02  0.14913983962E+03  0.24515354274E+03  0.17200000000E+03 0.  1.
</event>
<event>
 4    1  0.1181383E+000  0.2113896E+03  0.7818608E-02  0.1140470E+00
         21   -1    0    0  501  502  0.00000000000E+00  0.00000000000E+00  0.45026813066E+03  0.45026813066E+03  0.00000000000E+00 0. -1.
         21   -1    0    0  502  503 -0.00000000000E+00 -0.00000000000E+00 -0.99265491528E+02  0.99265491528E+02  0.00000000000E+00 0.  1.
          6    1    1    2  501    0 -0.71564503521E+02 -0.99900465522E+02  0.17128871231E+03  0.27207609990E+03  0.17200000000E+03 0. -1.
         -6    1    1    2    0  503  0.71564503521E+02  0.99900465522E+02  0.17971392682E+03  0.27745752228E+03  0.17200000000E+03 0.  1.
</event>
<event>
 4    1  0.1181383E+000  0.2488611E+03  0.7818608E-02  0.1114027E+00
         21   -1    0    0  501  502  0.00000000000E+00  0.00000000000E+00  0.46742034415E+02  0.46742034415E+02  0.00000000000E+00 0.  1.
         21   -1    0    0  502  503 -0.00000000000E+00 -0.00000000000E+00 -0.13265985084E+04  0.13265985084E+04  0.00000000000E+00 0.  1.
          6    1    1    2  501    0 -0.17768499839E+03 -0.27855199253E+02 -0.61588170350E+03  0.66426059908E+03  0.17200000000E+03 0. -1.
         -6    1    1    2    0  503  0.17768499839E+03  0.27855199253E+02 -0.66397477050E+03  0.70907994375E+03  0.17200000000E+03 0. -1.
</event>
<event>
 4    1  0.1181383E+000  0.2096298E+03  0.7818608E-02  0.1141859E+00
         21   -1    0    0  501  502  0.00000000000E+00  0.00000000000E+00  0.19416613867E+03  0.19416613867E+03  0.00000000000E+00 0.  1.
         21   -1    0    0  502  503 -0.00000000000E+00 -0.00000000000E+00 -0.25304873627E+03  0.25304873627E+03  0.00000000000E+00 0. -1.
          6    1    1    2  501    0  0.20066095462E+02  0.11814399281E+03  0.43224951656E+02  0.21403982730E+03  0.17200000000E+03 0.  1.
         -6    1    1    2    0  503 -0.20066095462E+02 -0.11814399281E+03 -0.10210754926E+03  0.23317504764E+03  0.17200000000E+03 0. -1.
</event>
<event>
 4    1  0.1181383E+000  0.1780906E+03  0.7818608E-02  0.1169664E+00
         21   -1    0    0  503  502  0.00000000000E+00  0.00000000000E+00  0.90308721820E+02  0.90308721820E+02  0.00000000000E+00 0.  1.
         21   -1    0    0  501  503 -0.00000000000E+00 -0.00000000000E+00 -0.42292409249E+03  0.42292409249E+03  0.00000000000E+00 0.  1.
          6    1    1    2  501    0 -0.28936834317E+02 -0.35985047995E+02 -0.27198726321E+03  0.32510511440E+03  0.17200000000E+03 0. -1.
         -6    1    1    2    0  502  0.28936834317E+02  0.35985047995E+02 -0.60628107458E+02  0.18812769991E+03  0.17200000000E+03 0. -1.
</event>
<event>
 4    1  0.1181383E+000  0.2167182E+03  0.7818608E-02  0.1136354E+00
         21   -1    0    0  501  502  0.00000000000E+00  0.00000000000E+00  0.38058255300E+03  0.38058255300E+03  0.00000000000E+00 0. -1.
         21   -1    0    0  502  503 -0.00000000000E+00 -0.00000000000E+00 -0.18229080665E+03  0.18229080665E+03  0.00000000000E+00 0.  1.
          6    1    1    2  501    0 -0.12332287088E+03 -0.46628909426E+02  0.25909945937E+03  0.33778590190E+03  0.17200000000E+03 0. -1.
         -6    1    1    2    0  503  0.12332287088E+03  0.46628909426E+02 -0.60807713019E+02  0.22508745775E+03  0.17200000000E+03 0.  1.
</event>
<event>
 4    1  0.1181383E+000  0.1812019E+03  0.7818608E-02  0.1166645E+00
         21   -1    0    0  501  502  0.00000000000E+00  0.00000000000E+00  0.27300788530E+03  0.27300788530E+03  0.00000000000E+00 0.  1.
         21   -1    0    0  502  503 -0.00000000000E+00 -0.00000000000E+00 -0.37434218146E+03  0.37434218146E+03  0.00000000000E+00 0. -1.
          6    1    1    2  501    0  0.16813451313E+02 -0.54474108842E+02  0.21599112333E+03  0.28193312334E+03  0.17200000000E+03 0.  1.
         -6    1    1    2    0  503 -0.16813451313E+02  0.54474108842E+02 -0.31732541949E+03  0.36541694341E+03  0.17200000000E+03 0. -1.
</event>
<event>
 4    1  0.1181383E+000  0.1801894E+03  0.7818608E-02  0.1167620E+00
         21   -1    0    0  503  502  0.00000000000E+00  0.00000000000E+00  0.44452709575E+02  0.44452709575E+02  0.00000000000E+00 0. -1.
         21   -1    0    0  501  503 -0.00000000000E+00 -0.00000000000E+00 -0.98295888065E+03  0.98295888065E+03  0.00000000000E+00 0. -1.
          6    1    1    2  501    0 -0.42070700254E+02 -0.33380611296E+02 -0.72964595032E+03  0.75156597970E+03  0.17200000000E+03 0. -1.
         -6    1    1    2    0  502  0.42070700254E+02  0.33380611296E+02 -0.20886022076E+03  0.27584561052E+03  0.17200000000E+03 0. -1.
</event>
<event>
 4    1  0.1181383E+000  0.1956513E+03  0.7818608E-02  0.1153461E+00
         21   -1    0    0  501  502  0.00000000000E+00  0.00000000000E+00  0.15460322299E+04  0.15460322299E+04  0.00000000000E+00 0. -1.
         21   -1    0    0  502  503 -0.00000000000E+00 -0.00000000000E+00 -0.73078074723E+02  0.73078074723E+02  0.00000000000E+00 0. -1.
          6    1    1    2  501    0  0.92673171252E+02 -0.10348785552E+02  0.13947541106E+04  0.14084098988E+04  0.17200000000E+03 0. -1.
         -6    1    1    2    0  503 -0.92673171252E+02  0.10348785552E+02  0.78200044555E+02  0.21070040579E+03  0.17200000000E+03 0. -1.
</event>
<event>
 4    1  0.1181383E+000  0.2349667E+03  0.7818608E-02  0.1123192E+00
         21   -1    0    0  501  502  0.00000000000E+00  0.00000000000E+00  0.10095447915E+03  0.10095447915E+03  0.00000000000E+00 0.  1.
         21   -1    0    0  502  503 -0.00000000000E+00 -0.00000000000E+00 -0.55595414442E+03  0.55595414442E+03  0.00000000000E+00 0.  1.
          6    1    1    2  501    0  0.86744682647E+02  0.13453893283E+03 -0.26947626368E+03  0.35752876961E+03  0.17200000000E+03 0. -1.
         -6    1    1    2    0  503 -0.86744682647E+02 -0.13453893283E+03 -0.18552340160E+03  0.29937985396E+03  0.17200000000E+03 0. -1.
</event>
<event>
 4    1  0.1181383E+000  0.1880505E+03  0.7818608E-02  0.1160231E+00
         21   -1    0    0  501  502  0.00000000000E+00  0.00000000000E+00  0.55320454463E+03  0.55320454463E+03  0.00000000000E+00 0.  1.
         21   -1    0    0  502  503 -0.00000000000E+00 -0.00000000000E+00 -0.64170840906E+02  0.64170840906E+02  0.00000000000E+00 0.  1.
          6    1    1    2  501    0 -0.70601873488E+02 -0.28184752287E+02  0.26366499228E+03  0.32385526544E+03  0.17200000000E+03 0. -1.
         -6    1    1    2    0  503  0.70601873488E+02  0.28184752287E+02  0.22536871145E+03  0.29352012010E+03  0.17200000000E+03 0. -1.
</event>
<event>
 4    1  0.1181383E+000  0.2201421E+03  0.7818608E-02  0.1133777E+00
         21   -1    0    0  501  502  0.00000000000E+00  0.00000000000E+00  0.26948308203E+04  0.26948308203E+04  0.00000000000E+00 0. -1.
         21   -1    0    0  502  503 -0.00000000000E+00 -0.00000000000E+00 -0.29446630040E+02  0.29446630040E+02  0.00000000000E+00 0. -1.
          6    1    1    2  501    0 -0.79355502107E+02 -0.11216616427E+03  0.21825665380E+04  0.21936406353E+04  0.17200000000E+03 0. -1.
         -6    1    1    2    0  503  0.79355502107E+02  0.11216616427E+03  0.48281765227E+03  0.53063681503E+03  0.17200000000E+03 0. -1.
</event>
<event>
 4    1  0.1181383E+000  0.1789972E+03  0.7818608E-02  0.1168777E+00
         21   -1    0    0  503  502  0.00000000000E+00  0.00000000000E+00  0.60030813156E+03  0.60030813156E+03  0.00000000000E+00 0. -1.
         21   -1    0    0  501  503 -0.00000000000E+00 -0.00000000000E+00 -0.87218497567E+02  0.87218497567E+02  0.00000000000E+00 0. -1.
          6    1    1    2  501    0  0.32287762554E+02 -0.37596424414E+02  0.42399586457E+02  0.18395030761E+03  0.17200000000E+03 0. -1.
         -6    1    1    2    0  502 -0.32287762554E+02  0.37596424414E+02  0.47069004753E+03  0.50357632151E+03  0.17200000000E+03 0. -1.
</event>
<event>
 4    1  0.1181383E+000  0.2315569E+03  0.7818608E-02  0.1125549E+00
         21   -1    0    0  503  502  0.00000000000E+00  0.00000000000E+00  0.40260179850E+03  0.40260179850E+03  0.00000000000E+00 0.  1.
         21   -1    0    0  501  503 -0.00000000000E+00 -0.00000000000E+00 -0.14465956319E+03  0.14465956319E+03  0.00000000000E+00 0.  1.
          6    1    1    2  501    0  0.65629595118E+02  0.14045407084E+03  0.51889639633E+02  0.23729965122E+03  0.17200000000E+03 0.  1.
         -6    1    1    2    0  502 -0.65629595118E+02 -0.14045407084E+03  0.20605259568E+03  0.30996171046E+03  0.17200000000E+03 0.  1.
</event>
<event>
 4    1  0.1181383E+000  0.1739283E+03  0.7818608E-02  0.1173812E+00
         21   -1    0    0  501  502  0.00000000000E+00  0.00000000000E+00  0.79754131286E+03  0.79754131286E+03  0.00000000000E+00 0.  1.
         21   -1    0    0  502  503 -0.00000000000E+00 -0.00000000000E+00 -0.43561970990E+02  0.43561970990E+02  0.00000000000E+00 0.  1.
          6    1    1    2  501    0  0.14530918560E+02 -0.21351679401E+02  0.52819993863E+03  0.55609910715E+03  0.17200000000E+03 0. -1.
         -6    1    1    2    0  503 -0.14530918560E+02  0.21351679401E+02  0.22577940324E+03  0.28500417670E+03  0.17200000000E+03 0. -1.
</event>
<event>
 4    1  0.1181383E+000  0.2377011E+03  0.7818608E-02  0.1121334E+00
         21   -1    0    0  503  502  0.00000000000E+00  0.00000000000E+00  0.93349960725E+03  0.93349960725E+03  0.00000000000E+00 0.  1.
         21   -1    0    0  501  503 -0.00000000000E+00 -0.00000000000E+00 -0.61001286765E+02  0.61001286765E+02  0.00000000000E+00 0. -1.
          6    1    1    2  501    0  0.12622672189E+03 -0.10480750481E+03  0.39239699047E+03  0.45877793813E+03  0.17200000000E+03 0.  1.
         -6    1    1    2    0  502 -0.12622672189E+03  0.10480750481E+03  0.48010133002E+03  0.53572295589E+03  0.17200000000E+03 0.  1.
</event>
<event>
 4    1  0.1181383E+000  0.2703423E+03  0.7818608E-02  0.1101084E+00
         21   -1    0    0  503  502  0.00000000000E+00  0.00000000000E+00  0.15567527701E+03  0.15567527701E+03  0.00000000000E+00 0. -1.
         21   -1    0    0  501  503 -0.00000000000E+00 -0.00000000000E+00 -0.48721475947E+03  0.48721475947E+03  0.00000000000E+00 0. -1.
          6    1    1    2  501    0  0.94916469233E+02  0.18571977360E+03 -0.10442549631E+03  0.28980968706E+03  0.17200000000E+03 0.  1.
         -6    1    1    2    0  502 -0.94916469233E+02 -0.18571977360E+03 -0.22711398615E+03  0.35308034941E+03  0.17200000000E+03 0.  1.
</event>
<event>
 4    1  0.1181383E+000  0.2077547E+03  0.7818608E-02  0.1143356E+00
         21   -1    0    0  503  502  0.00000000000E+00  0.00000000000E+00  0.12121830828E+03  0.12121830828E+03  0.00000000000E+00 0.  1.
         21   -1    0    0  501  503 -0.00000000000E+00 -0.00000000000E+00 -0.10121454754E+04  0.10121454754E+04  0.00000000000E+00 0.  1.
          6    1    1    2  501    0  0.29566194789E+02 -0.11271141513E+03 -0.90170558066E+03  0.92532965864E+03  0.17200000000E+03 0.  1.
         -6    1    1    2    0  502 -0.29566194789E+02  0.11271141513E+03  0.10778413549E+02  0.20803412502E+03  0.17200000000E+03 0.  1.
</event>
<event>
 4    1  0.1181383E+000  0.1788136E+03  0.7818608E-02  0.1168956E+00
         21   -1    0    0  501  502  0.00000000000E+00  0.00000000000E+00  0.18230818153E+03  0.18230818153E+03  0.00000000000E+00 0. -1.
         21   -1    0    0  502  503 -0.00000000000E+00 -0.00000000000E+00 -0.17608404116E+03  0.17608404116E+03  0.00000000000E+00 0. -1.
          6    1    1    2  501    0 -0.13118894075E+02  0.47097871467E+02 -0.81699886455E+01  0.17900017763E+03  0.17200000000E+03 0.  1.
         -6    1    1    2    0  503  0.13118894075E+02 -0.47097871467E+02  0.14394129018E+02  0.17939204505E+03  0.17200000000E+03 0.  1.
</event>
<event>
 4    1  0.1181383E+000  0.1807579E+03  0.7818608E-02  0.1167072E+00
         21   -1    0    0  503  502  0.00000000000E+00  0.00000000000E+00  0.37616298105E+02  0.37616298105E+02  0.00000000000E+00 0. -1.
         21   -1    0    0  501  503 -0.00000000000E+00 -0.00000000000E+00 -0.89695049355E+03  0.89695049355E+03  0.00000000000E+00 0. -1.
          6    1    1    2  501    0  0.38560128266E+02 -0.40031490464E+02 -0.34658654171E+03  0.39089082186E+03  0.17200000000E+03 0. -1.
         -6    1    1    2    0  502 -0.38560128266E+02  0.40031490464E+02 -0.51274765374E+03  0.54367596979E+03  0.17200000000E+03 0. -1.
</event>
<event>
 4    1  0.1181383E+000  0.3780171E+03  0.7818608E-02  0.1051669E+00
         21   -1    0    0  501  502  0.00000000000E+00  0.00000000000E+00  0.85677015787E+03  0.85677015787E+03  0.00000000000E+00 0. -1.
         21   -1    0    0  502  503 -0.00000000000E+00 -0.00000000000E+00 -0.17272502900E+03  0.17272502900E+03  0.00000000000E+00 0.  1.
          6    1    1    2  501    0 -0.31408945524E+03  0.12108147826E+03  0.43747558085E+03  0.57817107686E+03  0.17200000000E+03 0. -1.
         -6    1    1    2    0  503  0.31408945524E+03 -0.12108147826E+03  0.24656954802E+03  0.45132411002E+03  0.17200000000E+03 0.  1.
</event>
<event>
 4    1  0.1181383E+000  0.2269334E+03  0.7818608E-02  0.1128817E+00
         21   -1    0    0  503  502  0.00000000000E+00  0.00000000000E+00  0.94710483050E+03  0.94710483050E+03  0.00000000000E+00 0.  1.
         21   -1    0    0  501  503 -0.00000000000E+00 -0.00000000000E+00 -0.16344482963E+03  0.16344482963E+03  0.00000000000E+00 0.  1.
          6    1    1    2  501    0  0.29778129353E+02 -0.14501052660E+03 -0.61771817208E+02  0.23519044881E+03  0.17200000000E+03 0.  1.
         -6    1    1    2    0  502 -0.29778129353E+02  0.14501052660E+03  0.84543181808E+03  0.87535921131E+03  0.17200000000E+03 0.  1.
</event>
<event>
 4    1  0.1181383E+000  0.2342788E+03  0.7818608E-02  0.1123664E+00
         21   -1    0    0  501  502  0.00000000000E+00  0.00000000000E+00  0.43050771098E+02  0.43050771098E+02  0.00000000000E+00 0. -1.
         21   -1    0    0  502  503 -0.00000000000E+00 -0.00000000000E+00 -0.13302459245E+04  0.13302459245E+04  0.00000000000E+00 0. -1.
          6    1    1    2  501    0 -0.12366884680E+03  0.10004296445E+03 -0.78362283186E+03  0.81789444369E+03  0.17200000000E+03 0.  1.
         -6    1    1    2    0  503  0.12366884680E+03 -0.10004296445E+03 -0.50357232157E+03  0.55540225194E+03  0.17200000000E+03 0.  1.
</event>
<event>
 4    1  0.1181383E+000  0.2409172E+03  0.7818608E-02  0.1119183E+00
         21   -1    0    0  503  502  0.00000000000E+00  0.00000000000E+00  0.12101132663E+04  0.12101132663E+04  0.00000000000E+00 0.  1.
         21   -1    0    0  501  503 -0.00000000000E+00 -0.00000000000E+00 -0.58930954654E+02  0.58930954654E+02  0.00000000000E+00 0.  1.
          6    1    1    2  501    0  0.28177345641E+02  0.16632237387E+03  0.30185587697E+03  0.38620987211E+03  0.17200000000E+03 0.  1.
         -6    1    1    2    0  502 -0.28177345641E+02 -0.16632237387E+03  0.84932643466E+03  0.88283434883E+03  0.17200000000E+03 0.  1.
</event>
<event>
 4    1  0.1181383E+000  0.1764303E+03  0.7818608E-02  0.1171303E+00
         21   -1    0    0  503  502  0.00000000000E+00  0.00000000000E+00  0.14525174166E+03  0.14525174166E+03  0.00000000000E+00 0. -1.
         21   -1    0    0  501  503 -0.00000000000E+00 -0.00000000000E+00 -0.21594868426E+03  0.21594868426E+03  0.00000000000E+00 0. -1.
          6    1    1    2  501    0  0.27447818980E+02 -0.28112011604E+02 -0.51121401858E+02  0.18368741299E+03  0.17200000000E+03 0.  1.
         -6    1    1    2    0  502 -0.27447818980E+02  0.28112011604E+02 -0.19575540737E+02  0.17751301293E+03  0.17200000000E+03 0.  1.
</event>
<event>
 4    1  0.1181383E+000  0.2756061E+03  0.7818608E-02  0.1098113E+00
         21   -1    0    0  503  502  0.00000000000E+00  0.00000000000E+00  0.16932461309E+03  0.16932461309E+03  0.00000000000E+00 0. -1.
         21   -1    0    0  501  503 -0.00000000000E+00 -0.00000000000E+00 -0.82892483801E+03  0.82892483801E+03  0.00000000000E+00 0.  1.
          6    1    1    2  501    0 -0.11119198431E+03 -0.18442091857E+03 -0.66788816697E+03  0.72251874450E+03  0.17200000000E+03 0.  1.
         -6    1    1    2    0  502  0.11119198431E+03  0.18442091857E+03  0.82879420389E+01  0.27573070660E+03  0.17200000000E+03 0. -1.
</event>
<event>
 4    1  0.1181383E+000  0.1738427E+03  0.7818608E-02  0.1173899E+00
         21   -1    0    0  501  502  0.00000000000E+00  0.00000000000E+00  0.36879284856E+03  0.36879284856E+03  0.00000000000E+00 0.  1.
         21   -1    0    0  502  503 -0.00000000000E+00 -0.00000000000E+00 -0.33990011102E+03  0.33990011102E+03  0.00000000000E+00 0.  1.
          6    1    1    2  501    0 -0.12151999556E+02 -0.22127030065E+02  0.32313688744E+03  0.36693149848E+03  0.17200000000E+03 0.  1.
         -6    1    1    2    0  503  0.12151999556E+02  0.22127030065E+02 -0.29424414989E+03  0.34176146110E+03  0.17200000000E+03 0.  1.
</event>
<event>
 4    1  0.1181383E+000  0.2003168E+03  0.7818608E-02  0.1149472E+00
         21   -1    0    0  501  502  0.00000000000E+00  0.00000000000E+00  0.16136213225E+04  0.16136213225E+04  0.00000000000E+00 0.  1.
         21   -1    0    0  502  503 -0.00000000000E+00 -0.00000000000E+00 -0.30841757628E+02  0.30841757628E+02  0.00000000000E+00 0.  1.
          6    1    1    2  501    0 -0.59264572404E+02 -0.83848205236E+02  0.42950970077E+03  0.47392551537E+03  0.17200000000E+03 0.  1.
         -6    1    1    2    0  503  0.59264572404E+02  0.83848205236E+02  0.11532698641E+04  0.11705375648E+04  0.17200000000E+03 0.  1.
</event>
<event>
 4    1  0.1181383E+000  0.2530817E+03  0.7818608E-02  0.1111373E+00
         21   -1    0    0  501  502  0.00000000000E+00  0.00000000000E+00  0.13132987367E+03  0.13132987367E+03  0.00000000000E+00 0.  1.
         21   -1    0    0  502  503 -0.00000000000E+00 -0.00000000000E+00 -0.66086881759E+03  0.66086881759E+03  0.00000000000E+00 0.  1.
          6    1    1    2  501    0  0.13229346902E+03 -0.13024896455E+03 -0.62013368058E+02  0.26056863305E+03  0.17200000000E+03 0.  1.
         -6    1    1    2    0  503 -0.13229346902E+03  0.13024896455E+03 -0.46752557586E+03  0.53163005821E+03  0.17200000000E+03 0.  1.
</event>
<event>
 4    1  0.1181383E+000  0.2340373E+03  0.7818608E-02  0.1123830E+00
         21   -1    0    0  501  502  0.00000000000E+00  0.00000000000E+00  0.13035824338E+04  0.13035824338E+04  0.00000000000E+00 0.  1.
         21   -1    0    0  502  503 -0.00000000000E+00 -0.00000000000E+00 -0.61709749773E+02  0.61709749773E+02  0.00000000000E+00 0. -1.
          6    1    1    2  501    0 -0.53558569324E+02  0.14940185592E+03  0.10065612076E+04  0.10334112925E+04  0.17200000000E+03 0.  1.
         -6    1    1    2    0  503  0.53558569324E+02 -0.14940185592E+03  0.23531147646E+03  0.33188089107E+03  0.17200000000E+03 0.  1.
</event>
<event>
 4    1  0.1181383E+000  0.1959479E+03  0.7818608E-02  0.1153203E+00
         21   -1    0    0  501  502  0.00000000000E+00  0.00000000000E+00  0.22161674051E+03  0.22161674051E+03  0.00000000000E+00 0. -1.
         21   -1    0    0  502  503 -0.00000000000E+00 -0.00000000000E+00 -0.21619320427E+03  0.21619320427E+03  0.00000000000E+00 0. -1.
          6    1    1    2  501    0  0.91454797700E+02 -0.21157001155E+02  0.10027146852E+03  0.22011353007E+03  0.17200000000E+03 0. -1.
         -6    1    1    2    0  503 -0.91454797700E+02  0.21157001155E+02 -0.94847932283E+02  0.21769641471E+03  0.17200000000E+03 0. -1.
</event>
<event>
 4    1  0.1181383E+000  0.2723582E+03  0.7818608E-02  0.1099937E+00
         21   -1    0    0  503  502  0.00000000000E+00  0.00000000000E+00  0.22327274375E+03  0.22327274375E+03  0.00000000000E+00 0.  1.
         21   -1    0    0  501  503 -0.00000000000E+00 -0.00000000000E+00 -0.52041994557E+03  0.52041994557E+03  0.00000000000E+00 0. -1.
          6    1    1    2  501    0  0.13640709839E+03 -0.16120818586E+03 -0.37217742067E+03  0.46118869038E+03  0.17200000000E+03 0. -1.
         -6    1    1    2    0  502 -0.13640709839E+03  0.16120818586E+03  0.75030218852E+02  0.28250399894E+03  0.17200000000E+03 0.  1.
</event>
<event>
 4    1  0.1181383E+000  0.3239777E+03  0.7818608E-02  0.1073833E+00
         21   -1    0    0  501  502  0.00000000000E+00  0.00000000000E+00  0.86986481246E+03  0.86986481246E+03  0.00000000000E+00 0.  1.
         21   -1    0    0  502  503 -0.00000000000E+00 -0.00000000000E+00 -0.17627283205E+03  0.17627283205E+03  0.00000000000E+00 0. -1.
          6    1    1    2  501    0 -0.11470210009E+02 -0.27431002817E+03  0.64058610533E+03  0.71785243304E+03  0.17200000000E+03 0.  1.
         -6    1    1    2    0  503  0.11470210009E+02  0.27431002817E+03  0.53005875072E+02  0.32828521147E+03  0.17200000000E+03 0.  1.
</event>
<event>
 4    1  0.1181383E+000  0.1919431E+03  0.7818608E-02  0.1156720E+00
         21   -1    0    0  501  502  0.00000000000E+00  0.00000000000E+00  0.18641259936E+03  0.18641259936E+03  0.00000000000E+00 0. -1.
         21   -1    0    0  502  503 -0.00000000000E+00 -0.00000000000E+00 -0.21924530730E+03  0.21924530730E+03  0.00000000000E+00 0. -1.
          6    1    1    2  501    0 -0.78136951160E+02 -0.33952268293E+02  0.47258666198E+02  0.19767529231E+03  0.17200000000E+03 0. -1.
         -6    1    1    2    0  503  0.78136951160E+02  0.33952268293E+02 -0.80091374141E+02  0.20798261435E+03  0.17200000000E+03 0. -1.
</event>
<event>
 4    1  0.1181383E+000  0.1808296E+03  0.7818608E-02  0.1167003E+00
         21   -1    0    0  503  502  0.00000000000E+00  0.00000000000E+00  0.16637447535E+03  0.16637447535E+03  0.00000000000E+00 0. -1.
         21   -1    0    0  501  503 -0.00000000000E+00 -0.00000000000E+00 -0.27396116285E+03  0.27396116285E+03  0.00000000000E+00 0. -1.
          6    1    1    2  501    0 -0.16302151136E+02 -0.53381556961E+02 -0.17083415074E+03  0.24876426153E+03  0.17200000000E+03 0. -1.
         -6    1    1    2    0  502  0.16302151136E+02  0.53381556961E+02  0.63247463238E+02  0.19157137668E+03  0.17200000000E+03 0. -1.
</event>
<event>
 4    1  0.1181383E+000  0.3503530E+03  0.7818608E-02  0.1062470E+00
         21   -1    0    0  503  502  0.00000000000E+00  0.00000000000E+00  0.15670218201E+03  0.15670218201E+03  0.00000000000E+00 0. -1.
         21   -1    0    0  501  503 -0.00000000000E+00 -0.00000000000E+00 -0.91370733360E+03  0.91370733360E+03  0.00000000000E+00 0. -1.
          6    1    1    2  501    0  0.25192367352E+03 -0.17233009272E+03 -0.58068441223E+03  0.67818993264E+03  0.17200000000E+03 0. -1.
         -6    1    1    2    0  502 -0.25192367352E+03  0.17233009272E+03 -0.17632073936E+03  0.39221958297E+03  0.17200000000E+03 0. -1.
</event>
<event>
 4    1  0.1181383E+000  0.2043106E+03  0.7818608E-02  0.1146152E+00
         21   -1    0    0  503  502  0.00000000000E+00  0.00000000000E+00  0.30471386615E+03  0.30471386615E+03  0.00000000000E+00 0.  1.
         21   -1    0    0  501  503 -0.00000000000E+00 -0.00000000000E+00 -0.21210551255E+03  0.21210551255E+03  0.00000000000E+00 0.  1.
          6    1    1    2  501    0  0.76837149009E+01  0.10999892270E+03 -0.10747486826E+03  0.23085417427E+03  0.17200000000E+03 0.  1.
         -6    1    1    2    0  502 -0.76837149009E+01 -0.10999892270E+03  0.20008322187E+03  0.28596520443E+03  0.17200000000E+03 0.  1.
</event>
<event>
 4    1  0.1181383E+000  0.1832427E+03  0.7818608E-02  0.1164701E+00
         21   -1    0    0  503  502  0.00000000000E+00  0.00000000000E+00  0.14319431263E+03  0.14319431263E+03  0.00000000000E+00 0.  1.
         21   -1    0    0  501  503 -0.00000000000E+00 -0.00000000000E+00 -0.24217817445E+03  0.24217817445E+03  0.00000000000E+00 0. -1.
          6    1    1    2  501    0  0.47537538254E+02 -0.41642373157E+02 -0.83819375864E+02  0.20150333138E+03  0.17200000000E+03 0. -1.
         -6    1    1    2    0  502 -0.47537538254E+02  0.41642373157E+02 -0.15164485959E+02  0.18386915571E+03  0.17200000000E+03 0. -1.
</event>
<event>
 4    1  0.1181383E+000  0.2020189E+03  0.7818608E-02  0.1148047E+00
         21   -1    0    0  503  502  0.00000000000E+00  0.00000000000E+00  0.23276911259E+03  0.23276911259E+03  0.00000000000E+00 0. -1.
         21   -1    0    0  501  503 -0.00000000000E+00 -0.00000000000E+00 -0.17535358072E+03  0.17535358072E+03  0.00000000000E+00 0. -1.
          6    1    1    2  501    0 -0.86490681300E+00 -0.10595704712E+03  0.31022836063E+02  0.20438703544E+03  0.17200000000E+03 0. -1.
         -6    1    1    2    0  502  0.86490681300E+00  0.10595704712E+03  0.26392695803E+02  0.20373565788E+03  0.17200000000E+03 0. -1.
</event>
<event>
 4    1  0.1181383E+000  0.1968890E+03  0.7818608E-02  0.1152391E+00
         21   -1    0    0  503  502  0.00000000000E+00  0.00000000000E+00  0.54308214501E+02  0.54308214501E+02  0.00000000000E+00 0.  1.
         21   -1    0    0  501  503 -0.00000000000E+00 -0.00000000000E+00 -0.74234931678E+03  0.74234931678E+03  0.00000000000E+00 0.  1.
          6    1    1    2  501    0  0.94498447036E+02 -0.15853171189E+02 -0.26590729768E+03  0.33086548700E+03  0.17200000000E+03 0.  1.
         -6    1    1    2    0  502 -0.94498447036E+02  0.15853171189E+02 -0.42213380460E+03  0.46579204428E+03  0.17200000000E+03 0.  1.
</event>
<event>
 4    1  0.1181383E+000  0.1994094E+03  0.7818608E-02  0.1150238E+00
         21   -1    0    0  503  502  0.00000000000E+00  0.00000000000E+00  0.58736920883E+02  0.58736920883E+02  0.00000000000E+00 0.  1.
         21   -1    0    0  501  503 -0.00000000000E+00 -0.00000000000E+00 -0.69858775756E+03  0.69858775756E+03  0.00000000000E+00 0.  1.
          6    1    1    2  501    0  0.18143617781E+02 -0.99251882432E+02 -0.38651050130E+03  0.43491895182E+03  0.17200000000E+03 0.  1.
         -6    1    1    2    0  502 -0.18143617781E+02  0.99251882432E+02 -0.25334033537E+03  0.32240572662E+03  0.17200000000E+03 0.  1.
</event>
<event>
 4    1  0.1181383E+000  0.1931843E+03  0.7818608E-02  0.1155620E+00
         21   -1    0    0  501  502  0.00000000000E+00  0.00000000000E+00  0.82793846054E+02  0.82793846054E+02  0.00000000000E+00 0.  1.
         21   -1    0    0  502  503 -0.00000000000E+00 -0.00000000000E+00 -0.58870360684E+03  0.58870360684E+03  0.00000000000E+00 0.  1.
          6    1    1    2  501    0 -0.86704959720E+02  0.14778712247E+02 -0.90431182950E+02  0.21330250637E+03  0.17200000000E+03 0.  1.
         -6    1    1    2    0  503  0.86704959720E+02 -0.14778712247E+02 -0.41547857784E+03  0.45819494652E+03  0.17200000000E+03 0.  1.
</event>
<event>
 4    1  0.1181383E+000  0.1868098E+03  0.7818608E-02  0.1161371E+00
         21   -1    0    0  503  502  0.00000000000E+00  0.00000000000E+00  0.22819114686E+03  0.22819114686E+03  0.00000000000E+00 0.  1.
         21   -1    0    0  501  503 -0.00000000000E+00 -0.00000000000E+00 -0.15827305029E+03  0.15827305029E+03  0.00000000000E+00 0.  1.
          6    1    1    2  501    0 -0.71988181005E+02 -0.11471161597E+02 -0.53545423688E+00  0.18681052557E+03  0.17200000000E+03 0.  1.
         -6    1    1    2    0  502  0.71988181005E+02  0.11471161597E+02  0.70453550803E+02  0.19965367158E+03  0.17200000000E+03 0.  1.
</event>
<event>
 4    1  0.1181383E+000  0.2733288E+03  0.7818608E-02  0.1099389E+00
         21   -1    0    0  503  502  0.00000000000E+00  0.00000000000E+00  0.76956701878E+03  0.76956701878E+03  0.00000000000E+00 0. -1.
         21   -1    0    0  501  503 -0.00000000000E+00 -0.00000000000E+00 -0.10056939765E+03  0.10056939765E+03  0.00000000000E+00 0.  1.
          6    1    1    2  501    0 -0.18827469544E+03  0.98373241687E+02  0.25344503002E+03  0.37275063899E+03  0.17200000000E+03 0. -1.
         -6    1    1    2    0  502  0.18827469544E+03 -0.98373241687E+02  0.41555259111E+03  0.49738577744E+03  0.17200000000E+03 0.  1.
</event>
<event>
 4    1  0.1181383E+000  0.2158135E+03  0.7818608E-02  0.1137043E+00
         21   -1    0    0  503  502  0.00000000000E+00  0.00000000000E+00  0.23162795805E+03  0.23162795805E+03  0.00000000000E+00 0. -1.
         21   -1    0    0  501  503 -0.00000000000E+00 -0.00000000000E+00 -0.28548061094E+03  0.28548061094E+03  0.00000000000E+00 0. -1.
          6    1    1    2  501    0 -0.18703946185E+02 -0.12900243044E+03 -0.16751145827E+03  0.27319508289E+03  0.17200000000E+03 0. -1.
         -6    1    1    2    0  502  0.18703946185E+02  0.12900243044E+03  0.11365880538E+03  0.24391348610E+03  0.17200000000E+03 0. -1.
</event>
<event>
 4    1  0.1181383E+000  0.3790013E+03  0.7818608E-02  0.1051304E+00
         21   -1    0    0  501  502  0.00000000000E+00  0.00000000000E+00  0.33806265589E+04  0.33806265589E+04  0.00000000000E+00 0.  1.
         21   -1    0    0  502  503 -0.00000000000E+00 -0.00000000000E+00 -0.42535107529E+02  0.42535107529E+02  0.00000000000E+00 0. -1.
          6    1    1    2  501    0  0.10000300589E+02  0.33757657917E+03  0.17249420247E+04  0.17660880333E+04  0.17200000000E+03 0. -1.
         -6    1    1    2    0  503 -0.10000300589E+02 -0.33757657917E+03  0.16131494267E+04  0.16570736331E+04  0.17200000000E+03 0.  1.
</event>
<event>
 4    1  0.1181383E+000  0.2035428E+03  0.7818608E-02  0.1146784E+00
         21   -1    0    0  501  502  0.00000000000E+00  0.00000000000E+00  0.32676361185E+03  0.32676361185E+03  0.00000000000E+00 0. -1.
         21   -1    0    0  502  503 -0.00000000000E+00 -0.00000000000E+00 -0.48429086871E+03  0.48429086871E+03  0.00000000000E+00 0.  1.
          6    1    1    2  501    0 -0.96647756517E+02 -0.50048831742E+02  0.26965928989E+03  0.33785471289E+03  0.17200000000E+03 0. -1.
         -6    1    1    2    0  503  0.96647756517E+02  0.50048831742E+02 -0.42718654676E+03  0.47319976767E+03  0.17200000000E+03 0.  1.
</event>
<event>
 4    1  0.1181383E+000  0.1791870E+03  0.7818608E-02  0.1168592E+00
         21   -1    0    0  503  502  0.00000000000E+00  0.00000000000E+00  0.89896268122E+03  0.89896268122E+03  0.00000000000E+00 0. -1.
         21   -1    0    0  501  503 -0.00000000000E+00 -0.00000000000E+00 -0.41917236388E+02  0.41917236388E+02  0.00000000000E+00 0. -1.
          6    1    1    2  501    0 -0.42298890760E+02  0.27107182108E+02  0.60945744753E+03  0.63525300143E+03  0.17200000000E+03 0. -1.
         -6    1    1    2    0  502  0.42298890760E+02 -0.27107182108E+02  0.24758799730E+03  0.30562691617E+03  0.17200000000E+03 0. -1.
</event>
<event>
 4    1  0.1181383E+000  0.2063912E+03  0.7818608E-02  0.1144456E+00
         21   -1    0    0  501  502  0.00000000000E+00  0.00000000000E+00  0.21790564026E+03  0.21790564026E+03  0.00000000000E+00 0.  1.
         21   -1    0    0  502  503 -0.00000000000E+00 -0.00000000000E+00 -0.20452630007E+03  0.20452630007E+03  0.00000000000E+00 0. -1.
          6    1    1    2  501    0 -0.10954643149E+03 -0.31826453462E+02  0.51097651461E+02  0.21262246772E+03  0.17200000000E+03 0. -1.
         -6    1    1    2    0  503  0.10954643149E+03  0.31826453462E+02 -0.37718311265E+02  0.20980947261E+03  0.17200000000E+03 0. -1.
</event>
<event>
 4    1  0.1181383E+000  0.1819400E+03  0.7818608E-02  0.1165939E+00
         21   -1    0    0  501  502  0.00000000000E+00  0.00000000000E+00  0.10538378154E+03  0.10538378154E+03  0.00000000000E+00 0.  1.
         21   -1    0    0  502  503 -0.00000000000E+00 -0.00000000000E+00 -0.40722135124E+03  0.40722135124E+03  0.00000000000E+00 0. -1.
          6    1    1    2  501    0  0.50100518887E+02 -0.31750532194E+02 -0.28361903580E+02  0.18413732881E+03  0.17200000000E+03 0.  1.
         -6    1    1    2    0  503 -0.50100518887E+02  0.31750532194E+02 -0.27347566612E+03  0.32846780397E+03  0.17200000000E+03 0. -1.
</event>
<event>
 4    1  0.1181383E+000  0.2164046E+03  0.7818608E-02  0.1136592E+00
         21   -1    0    0  503  502  0.00000000000E+00  0.00000000000E+00  0.91426152459E+03  0.91426152459E+03  0.00000000000E+00 0.  1.
         21   -1    0    0  501  503 -0.00000000000E+00 -0.00000000000E+00 -0.38001489744E+03  0.38001489744E+03  0.00000000000E+00 0. -1.
          6    1    1    2  501    0 -0.69486116002E+02 -0.11143893506E+03 -0.33482260624E+03  0.39866920399E+03  0.17200000000E+03 0. -1.
         -6    1    1    2    0  502  0.69486116002E+02  0.11143893506E+03  0.86906923339E+03  0.89560721804E+03  0.17200000000E+03 0.  1.
</event>
<event>
 4    1  0.1181383E+000  0.2554663E+03  0.7818608E-02  0.1109898E+00
         21   -1    0    0  501  502  0.00000000000E+00  0.00000000000E+00  0.21086701162E+03  0.21086701162E+03  0.00000000000E+00 0. -1.
         21   -1    0    0  502  503 -0.00000000000E+00 -0.00000000000E+00 -0.31808485301E+03  0.31808485301E+03  0.00000000000E+00 0.  1.
          6    1    1    2  501    0 -0.17025787470E+03  0.81800350303E+02 -0.10156203040E+02  0.25566812408E+03  0.17200000000E+03 0.  1.
         -6    1    1    2    0  503  0.17025787470E+03 -0.81800350303E+02 -0.97061638350E+02  0.27328374055E+03  0.17200000000E+03 0.  1.
</event>
<event>
 4    1  0.1181383E+000  0.2315761E+03  0.7818608E-02  0.1125535E+00
         21   -1    0    0  501  502  0.00000000000E+00  0.00000000000E+00  0.55362348068E+02  0.55362348068E+02  0.00000000000E+00 0. -1.
         21   -1    0    0  502  503 -0.00000000000E+00 -0.00000000000E+00 -0.99498775565E+03  0.99498775565E+03  0.00000000000E+00 0.  1.
          6    1    1    2  501    0 -0.67377639865E+02 -0.13965578940E+03 -0.55523539824E+03  0.60159274706E+03  0.17200000000E+03 0. -1.
         -6    1    1    2    0  503  0.67377639865E+02  0.13965578940E+03 -0.38439000935E+03  0.44875735666E+03  0.17200000000E+03 0. -1.
</event>
<event>
 4    1  0.1181383E+000  0.1738425E+03  0.7818608E-02  0.1173899E+00
         21   -1    0    0  503  502  0.00000000000E+00  0.00000000000E+00  0.15793278654E+03  0.15793278654E+03  0.00000000000E+00 0. -1.
         21   -1    0    0  501  503 -0.00000000000E+00 -0.00000000000E+00 -0.32069409339E+03  0.32069409339E+03  0.00000000000E+00 0. -1.
          6    1    1    2  501    0 -0.18209535099E+02 -0.17481984093E+02 -0.23336075940E+03  0.29099562018E+03  0.17200000000E+03 0. -1.
         -6    1    1    2    0  502  0.18209535099E+02  0.17481984093E+02  0.70599452543E+02  0.18763125975E+03  0.17200000000E+03 0. -1.
</event>
<event>
 4    1  0.1181383E+000  0.2840052E+03  0.7818608E-02  0.1093521E+00
         21   -1    0    0  501  502  0.00000000000E+00  0.00000000000E+00  0.18339121246E+04  0.18339121246E+04  0.00000000000E+00 0. -1.
         21   -1    0    0  502  503 -0.00000000000E+00 -0.00000000000E+00 -0.88966193836E+02  0.88966193836E+02  0.00000000000E+00 0.  1.
          6    1    1    2  501    0 -0.10590557192E+03  0.19964705961E+03  0.15561323157E+04  0.15818365031E+04  0.17200000000E+03 0. -1.
         -6    1    1    2    0  503  0.10590557192E+03 -0.19964705961E+03  0.18881361507E+03  0.34104181534E+03  0.17200000000E+03 0.  1.
</event>
<event>
 4    1  0.1181383E+000  0.2291327E+03  0.7818608E-02  0.1127252E+00
         21   -1    0    0  503  502  0.00000000000E+00  0.00000000000E+00  0.87832500554E+02  0.87832500554E+02  0.00000000000E+00 0.  1.
         21   -1    0    0  501  503 -0.00000000000E+00 -0.00000000000E+00 -0.10711432445E+04  0.10711432445E+04  0.00000000000E+00 0.  1.
          6    1    1    2  501    0 -0.29978314464E+02 -0.14838838383E+03 -0.10641486598E+03  0.25263795340E+03  0.17200000000E+03 0.  1.
         -6    1    1    2    0  502  0.29978314464E+02  0.14838838383E+03 -0.87689587798E+03  0.90633779168E+03  0.17200000000E+03 0.  1.
</event>
<event>
 4    1  0.1181383E+000  0.2119178E+03  0.7818608E-02  0.1140056E+00
         21   -1    0    0  503  502  0.00000000000E+00  0.00000000000E+00  0.11536339954E+03  0.11536339954E+03  0.00000000000E+00 0.  1.
         21   -1    0    0  501  503 -0.00000000000E+00 -0.00000000000E+00 -0.43304796514E+03  0.43304796514E+03  0.00000000000E+00 0.  1.
          6    1    1    2  501    0 -0.25358464303E+02  0.12116980477E+03 -0.24601181806E+03  0.32470138270E+03  0.17200000000E+03 0.  1.
         -6    1    1    2    0  502  0.25358464303E+02 -0.12116980477E+03 -0.71672747532E+02  0.22370998198E+03  0.17200000000E+03 0.  1.
</event>
<event>
 4    1  0.1181383E+000  0.1939902E+03  0.7818608E-02  0.1154911E+00
         21   -1    0    0  501  502  0.00000000000E+00  0.00000000000E+00  0.26088887018E+03  0.26088887018E+03  0.00000000000E+00 0. -1.
         21   -1    0    0  502  503 -0.00000000000E+00 -0.00000000000E+00 -0.20798017312E+03  0.20798017312E+03  0.00000000000E+00 0. -1.
          6    1    1    2  501    0 -0.71332577024E+02  0.54404746272E+02  0.15623091839E+03  0.24907892890E+03  0.17200000000E+03 0. -1.
         -6    1    1    2    0  503  0.71332577024E+02 -0.54404746272E+02 -0.10332222134E+03  0.21979011439E+03  0.17200000000E+03 0. -1.
</event>
<event>
 4    1  0.1181383E+000  0.1963785E+03  0.7818608E-02  0.1152831E+00
         21   -1    0    0  501  502  0.00000000000E+00  0.00000000000E+00  0.15122166073E+04  0.15122166073E+04  0.00000000000E+00 0. -1.
         21   -1    0    0  502  503 -0.00000000000E+00 -0.00000000000E+00 -0.36156071991E+02  0.36156071991E+02  0.00000000000E+00 0. -1.
          6    1    1    2  501    0 -0.80295039750E+02  0.50331078512E+02  0.11582855642E+04  0.11748148616E+04  0.17200000000E+03 0. -1.
         -6    1    1    2    0  503  0.80295039750E+02 -0.50331078512E+02  0.31777497111E+03  0.37355781766E+03  0.17200000000E+03 0. -1.
</event>
<event>
 4    1  0.1181383E+000  0.2418541E+03  0.7818608E-02  0.1118564E+00
         21   -1    0    0  501  502  0.00000000000E+00  0.00000000000E+00  0.13390863338E+04  0.13390863338E+04  0.00000000000E+00 0.  1.
         21   -1    0    0  502  503 -0.00000000000E+00 -0.00000000000E+00 -0.44960784709E+02  0.44960784709E+02  0.00000000000E+00 0. -1.
          6    1    1    2  501    0 -0.30637429586E+02  0.16724455381E+03  0.53033458994E+03  0.58287920717E+03  0.17200000000E+03 0. -1.
         -6    1    1    2    0  503  0.30637429586E+02 -0.16724455381E+03  0.76379095913E+03  0.80116791131E+03  0.17200000000E+03 0. -1.
</event>
<event>
 4    1  0.1181383E+000  0.2142918E+03  0.7818608E-02  0.1138212E+00
         21   -1    0    0  501  502  0.00000000000E+00  0.00000000000E+00  0.18222451583E+03  0.18222451583E+03  0.00000000000E+00 0. -1.
         21   -1    0    0  502  503 -0.00000000000E+00 -0.00000000000E+00 -0.30351365801E+03  0.30351365801E+03  0.00000000000E+00 0. -1.
          6    1    1    2  501    0 -0.12763860027E+03 -0.67354376668E+01  0.39409566535E+02  0.21788550281E+03  0.17200000000E+03 0. -1.
         -6    1    1    2    0  503  0.12763860027E+03  0.67354376668E+01 -0.16069870872E+03  0.26785267104E+03  0.17200000000E+03 0. -1.
</event>
<event>
 4    1  0.1181383E+000  0.1776829E+03  0.7818608E-02  0.1170065E+00
         21   -1    0    0  503  502  0.00000000000E+00  0.00000000000E+00  0.60926264487E+03  0.60926264487E+03  0.00000000000E+00 0. -1.
         21   -1    0    0  501  503 -0.00000000000E+00 -0.00000000000E+00 -0.61227194666E+02  0.61227194666E+02  0.00000000000E+00 0. -1.
          6    1    1    2  501    0  0.39463504531E+02  0.20732869777E+02  0.14260141527E+03  0.22782972527E+03  0.17200000000E+03 0. -1.
         -6    1    1    2    0  502 -0.39463504531E+02 -0.20732869777E+02  0.40543403493E+03  0.44266011427E+03  0.17200000000E+03 0. -1.
</event>
<event>
 4    1  0.1181383E+000  0.1833694E+03  0.7818608E-02  0.1164581E+00
         21   -1    0    0  503  502  0.00000000000E+00  0.00000000000E+00  0.93671659261E+03  0.93671659261E+03  0.00000000000E+00 0. -1.
         21   -1    0    0  501  503 -0.00000000000E+00 -0.00000000000E+00 -0.36105550411E+02  0.36105550411E+02  0.00000000000E+00 0. -1.
          6    1    1    2  501    0  0.62082430213E+02  0.13642820679E+02  0.48736398356E+03  0.52071874094E+03  0.17200000000E+03 0. -1.
         -6    1    1    2    0  502 -0.62082430213E+02 -0.13642820679E+02  0.41324705865E+03  0.45210340209E+03  0.17200000000E+03 0. -1.
</event>
<event>
 4    1  0.1181383E+000  0.2072980E+03  0.7818608E-02  0.1143724E+00
         21   -1    0    0  503  502  0.00000000000E+00  0.00000000000E+00  0.13782826401E+04  0.13782826401E+04  0.00000000000E+00 0. -1.
         21   -1    0    0  501  503 -0.00000000000E+00 -0.00000000000E+00 -0.31178750659E+02  0.31178750659E+02  0.00000000000E+00 0. -1.
          6    1    1    2  501    0 -0.11358751607E+03  0.22053125765E+02  0.67077632339E+03  0.70207787331E+03  0.17200000000E+03 0.  1.
         -6    1    1    2    0  502  0.11358751607E+03 -0.22053125765E+02  0.67632756605E+03  0.70738351745E+03  0.17200000000E+03 0.  1.
</event>
<event>
 4    1  0.1181383E+000  0.1726963E+03  0.7818608E-02  0.1175065E+00
         21   -1    0    0  503  502  0.00000000000E+00  0.00000000000E+00  0.29590743127E+03  0.29590743127E+03  0.00000000000E+00 0.  1.
         21   -1    0    0  501  503 -0.00000000000E+00 -0.00000000000E+00 -0.26521830837E+03  0.26521830837E+03  0.00000000000E+00 0.  1.
          6    1    1    2  501    0  0.21598929320E+01  0.15341563162E+02 -0.20556722480E+03  0.26848074905E+03  0.17200000000E+03 0.  1.
         -6    1    1    2    0  502 -0.21598929320E+01 -0.15341563162E+02  0.23625634769E+03  0.29264499060E+03  0.17200000000E+03 0.  1.
</event>
<event>
 4    1  0.1181383E+000  0.2166354E+03  0.7818608E-02  0.1136417E+00
         21   -1    0    0  501  502  0.00000000000E+00  0.00000000000E+00  0.10933099483E+03  0.10933099483E+03  0.00000000000E+00 0.  1.
         21   -1    0    0  502  503 -0.00000000000E+00 -0.00000000000E+00 -0.82411831954E+03  0.82411831954E+03  0.00000000000E+00 0.  1.
          6    1    1    2  501    0 -0.12157034644E+03 -0.50671098700E+02 -0.34329197854E+02  0.21933855840E+03  0.17200000000E+03 0.  1.
         -6    1    1    2    0  503  0.12157034644E+03  0.50671098700E+02 -0.68045812686E+03  0.71411075596E+03  0.17200000000E+03 0.  1.
</event>
<event>
 4    1  0.1181383E+000  0.2226080E+03  0.7818608E-02  0.1131954E+00
         21   -1    0    0  503  502  0.00000000000E+00  0.00000000000E+00  0.31237538287E+03  0.31237538287E+03  0.00000000000E+00 0.  1.
         21   -1    0    0  501  503 -0.00000000000E+00 -0.00000000000E+00 -0.17276914957E+03  0.17276914957E+03  0.00000000000E+00 0. -1.
          6    1    1    2  501    0 -0.95992643036E+02  0.10370975015E+03  0.42670128227E+00  0.22260835983E+03  0.17200000000E+03 0. -1.
         -6    1    1    2    0  502  0.95992643036E+02 -0.10370975015E+03  0.13917953202E+03  0.26253617261E+03  0.17200000000E+03 0.  1.
</event>
<event>
 4    1  0.1181383E+000  0.2130904E+03  0.7818608E-02  0.1139142E+00
         21   -1    0    0  501  502  0.00000000000E+00  0.00000000000E+00  0.98299345636E+03  0.98299345636E+03  0.00000000000E+00 0.  1.
         21   -1    0    0  502  503 -0.00000000000E+00 -0.00000000000E+00 -0.51763660686E+02  0.51763660686E+02  0.00000000000E+00 0.  1.
          6    1    1    2  501    0  0.11834288563E+03 -0.42643875273E+02  0.63533936453E+03  0.67012211335E+03  0.17200000000E+03 0.  1.
         -6    1    1    2    0  503 -0.11834288563E+03  0.42643875273E+02  0.29589043114E+03  0.36463500369E+03  0.17200000000E+03 0.  1.
</event>
<event>
 4    1  0.1181383E+000  0.1828745E+03  0.7818608E-02  0.1165050E+00
         21   -1    0    0  501  502  0.00000000000E+00  0.00000000000E+00  0.34392406378E+03  0.34392406378E+03  0.00000000000E+00 0.  1.
         21   -1    0    0  502  503 -0.00000000000E+00 -0.00000000000E+00 -0.11105112429E+03  0.11105112429E+03  0.00000000000E+00 0.  1.
          6    1    1    2  501    0 -0.61324256342E+02  0.99199183921E+01  0.19666256137E+03  0.26855024156E+03  0.17200000000E+03 0.  1.
         -6    1    1    2    0  503  0.61324256342E+02 -0.99199183921E+01  0.36210378124E+02  0.18642494651E+03  0.17200000000E+03 0.  1.
</event>
<event>
 4    1  0.1181383E+000  0.2206851E+03  0.7818608E-02  0.1133373E+00
         21   -1    0    0  503  502  0.00000000000E+00  0.00000000000E+00  0.53660369363E+03  0.53660369363E+03  0.00000000000E+00 0. -1.
         21   -1    0    0  501  503 -0.00000000000E+00 -0.00000000000E+00 -0.91174406230E+02  0.91174406230E+02  0.00000000000E+00 0. -1.
          6    1    1    2  501    0 -0.10039252334E+03 -0.95074975358E+02  0.20154134230E+03  0.29886589357E+03  0.17200000000E+03 0.  1.
         -6    1    1    2    0  502  0.10039252334E+03  0.95074975358E+02  0.24388794510E+03  0.32891220629E+03  0.17200000000E+03 0.  1.
</event>
<event>
 4    1  0.1181383E+000  0.2309331E+03  0.7818608E-02  0.1125985E+00
         21   -1    0    0  503  502  0.00000000000E+00  0.00000000000E+00  0.14018098333E+03  0.14018098333E+03  0.00000000000E+00 0. -1.
         21   -1    0    0  501  503 -0.00000000000E+00 -0.00000000000E+00 -0.38090922773E+03  0.38090922773E+03  0.00000000000E+00 0.  1.
          6    1    1    2  501    0 -0.14562305201E+03  0.50398648308E+02 -0.12953343902E+03  0.26478105833E+03  0.17200000000E+03 0. -1.
         -6    1    1    2    0  502  0.14562305201E+03 -0.50398648308E+02 -0.11119480539E+03  0.25630915273E+03  0.17200000000E+03 0. -1.
</event>
<event>
 4    1  0.1181383E+000  0.1827248E+03  0.7818608E-02  0.1165192E+00
         21   -1    0    0  501  502  0.00000000000E+00  0.00000000000E+00  0.47417155176E+03  0.47417155176E+03  0.00000000000E+00 0. -1.
         21   -1    0    0  502  503 -0.00000000000E+00 -0.00000000000E+00 -0.79501156009E+02  0.79501156009E+02  0.00000000000E+00 0. -1.
          6    1    1    2  501    0 -0.49040725111E+02  0.37407966387E+02  0.29092935265E+03  0.34355237869E+03  0.17200000000E+03 0.  1.
         -6    1    1    2    0  503  0.49040725111E+02 -0.37407966387E+02  0.10374104310E+03  0.21012032908E+03  0.17200000000E+03 0.  1.
</event>
<event>
 4    1  0.1181383E+000  0.1769785E+03  0.7818608E-02  0.1170760E+00
         21   -1    0    0  501  502  0.00000000000E+00  0.00000000000E+00  0.89869573185E+02  0.89869573185E+02  0.00000000000E+00 0.  1.
         21   -1    0    0  502  503 -0.00000000000E+00 -0.00000000000E+00 -0.37763066256E+03  0.37763066256E+03  0.00000000000E+00 0.  1.
          6    1    1    2  501    0  0.17643655225E+02  0.37763724527E+02 -0.78981277700E+02  0.19380257915E+03  0.17200000000E+03 0. -1.
         -6    1    1    2    0  503 -0.17643655225E+02 -0.37763724527E+02 -0.20877981167E+03  0.27369765659E+03  0.17200000000E+03 0. -1.
</event>
<event>
 4    1  0.1181383E+000  0.1923552E+03  0.7818608E-02  0.1156354E+00
         21   -1    0    0  503  502  0.00000000000E+00  0.00000000000E+00  0.35485620689E+03  0.35485620689E+03  0.00000000000E+00 0.  1.
         21   -1    0    0  501  503 -0.00000000000E+00 -0.00000000000E+00 -0.23150719665E+03  0.23150719665E+03  0.00000000000E+00 0.  1.
          6    1    1    2  501    0  0.34444002840E+01 -0.86050427008E+02 -0.15567726576E+03  0.24745898843E+03  0.17200000000E+03 0.  1.
         -6    1    1    2    0  502 -0.34444002840E+01  0.86050427008E+02  0.27902627599E+03  0.33890441510E+03  0.17200000000E+03 0.  1.
</event>
<event>
 4    1  0.1181383E+000  0.2015052E+03  0.7818608E-02  0.1148475E+00
         21   -1    0    0  503  502  0.00000000000E+00  0.00000000000E+00  0.26223733285E+03  0.26223733285E+03  0.00000000000E+00 0. -1.
         21   -1    0    0  501  503 -0.00000000000E+00 -0.00000000000E+00 -0.37430033873E+03  0.37430033873E+03  0.00000000000E+00 0. -1.
          6    1    1    2  501    0  0.95210753915E+02 -0.44218100533E+02 -0.29973620952E+03  0.36117325949E+03  0.17200000000E+03 0. -1.
         -6    1    1    2    0  502 -0.95210753915E+02  0.44218100533E+02  0.18767320364E+03  0.27536441208E+03  0.17200000000E+03 0. -1.
</event>
<event>
 4    1  0.1181383E+000  0.2117880E+03  0.7818608E-02  0.1140158E+00
         21   -1    0    0  503  502  0.00000000000E+00  0.00000000000E+00  0.10879276335E+04  0.10879276335E+04  0.00000000000E+00 0. -1.
         21   -1    0    0  501  503 -0.00000000000E+00 -0.00000000000E+00 -0.87782848556E+02  0.87782848556E+02  0.00000000000E+00 0.  1.
          6    1    1    2  501    0 -0.55214982176E+02 -0.11055064197E+03  0.71974113609E+02  0.22368373147E+03  0.17200000000E+03 0.  1.
         -6    1    1    2    0  502  0.55214982176E+02  0.11055064197E+03  0.92817067132E+03  0.95202675057E+03  0.17200000000E+03 0. -1.
</event>
<event>
 4    1  0.1181383E+000  0.2171205E+03  0.7818608E-02  0.1136048E+00
         21   -1    0    0  501  502  0.00000000000E+00  0.00000000000E+00  0.34237473275E+03  0.34237473275E+03  0.00000000000E+00 0.  1.
         21   -1    0    0  502  503 -0.00000000000E+00 -0.00000000000E+00 -0.29669638896E+03  0.29669638896E+03  0.00000000000E+00 0.  1.
          6    1    1    2  501    0  0.10763114328E+03 -0.77284163526E+02  0.25676137180E+03  0.33625541926E+03  0.17200000000E+03 0. -1.
         -6    1    1    2    0  503 -0.10763114328E+03  0.77284163526E+02 -0.21108302801E+03  0.30281570245E+03  0.17200000000E+03 0. -1.
</event>
<event>
 4    1  0.1181383E+000  0.4614899E+03  0.7818608E-02  0.1024350E+00
         21   -1    0    0  503  502  0.00000000000E+00  0.00000000000E+00  0.13737144518E+04  0.13737144518E+04  0.00000000000E+00 0. -1.
         21   -1    0    0  501  503 -0.00000000000E+00 -0.00000000000E+00 -0.21609032937E+04  0.21609032937E+04  0.00000000000E+00 0. -1.
          6    1    1    2  501    0  0.39888173762E+03 -0.15582768357E+03 -0.20963255305E+04  0.21465212874E+04  0.17200000000E+03 0. -1.
         -6    1    1    2    0  502 -0.39888173762E+03  0.15582768357E+03  0.13091366886E+04  0.13880964581E+04  0.17200000000E+03 0. -1.
</event>
<event>
 4    1  0.1181383E+000  0.2075865E+03  0.7818608E-02  0.1143492E+00
         21   -1    0    0  501  502  0.00000000000E+00  0.00000000000E+00  0.66138124254E+02  0.66138124254E+02  0.00000000000E+00 0.  1.
         21   -1    0    0  502  503 -0.00000000000E+00 -0.00000000000E+00 -0.65353727562E+03  0.65353727562E+03  0.00000000000E+00 0.  1.
          6    1    1    2  501    0  0.98288339539E+02 -0.62028584585E+02 -0.31355372508E+03  0.37604265915E+03  0.17200000000E+03 0.  1.
         -6    1    1    2    0  503 -0.98288339539E+02  0.62028584585E+02 -0.27384542629E+03  0.34363274072E+03  0.17200000000E+03 0.  1.
</event>
<event>
 4    1  0.1181383E+000  0.1726921E+03  0.7818608E-02  0.1175069E+00
         21   -1    0    0  501  502  0.00000000000E+00  0.00000000000E+00  0.18605398613E+03  0.18605398613E+03  0.00000000000E+00 0. -1.
         21   -1    0    0  502  503 -0.00000000000E+00 -0.00000000000E+00 -0.18309306600E+03  0.18309306600E+03  0.00000000000E+00 0. -1.
          6    1    1    2  501    0  0.22516348001E+01  0.15280260608E+02  0.66618095211E+02  0.18509599356E+03  0.17200000000E+03 0.  1.
         -6    1    1    2    0  503 -0.22516348001E+01 -0.15280260608E+02 -0.63657175082E+02  0.18405105858E+03  0.17200000000E+03 0.  1.
</event>
<event>
 4    1  0.1181383E+000  0.1785516E+03  0.7818608E-02  0.1169212E+00
         21   -1    0    0  501  502  0.00000000000E+00  0.00000000000E+00  0.89575252128E+02  0.89575252128E+02  0.00000000000E+00 0. -1.
         21   -1    0    0  502  503 -0.00000000000E+00 -0.00000000000E+00 -0.10475667679E+04  0.10475667679E+04  0.00000000000E+00 0. -1.
          6    1    1    2  501    0  0.10512217574E+02 -0.46756451214E+02 -0.16998533855E+02  0.17935892117E+03  0.17200000000E+03 0. -1.
         -6    1    1    2    0  503 -0.10512217574E+02  0.46756451214E+02 -0.94099298191E+03  0.95778309886E+03  0.17200000000E+03 0. -1.
</event>
<event>
 4    1  0.1181383E+000  0.1786004E+03  0.7818608E-02  0.1169164E+00
         21   -1    0    0  501  502  0.00000000000E+00  0.00000000000E+00  0.10331169569E+04  0.10331169569E+04  0.00000000000E+00 0.  1.
         21   -1    0    0  502  503 -0.00000000000E+00 -0.00000000000E+00 -0.10365515767E+03  0.10365515767E+03  0.00000000000E+00 0.  1.
          6    1    1    2  501    0 -0.48017100664E+02  0.29094859129E+01  0.94100027878E+03  0.95779936925E+03  0.17200000000E+03 0.  1.
         -6    1    1    2    0  503  0.48017100664E+02 -0.29094859129E+01 -0.11538479526E+02  0.17897274534E+03  0.17200000000E+03 0.  1.
</event>
<event>
 4    1  0.1181383E+000  0.1819470E+03  0.7818608E-02  0.1165932E+00
         21   -1    0    0  501  502  0.00000000000E+00  0.00000000000E+00  0.38411328756E+03  0.38411328756E+03  0.00000000000E+00 0. -1.
         21   -1    0    0  502  503 -0.00000000000E+00 -0.00000000000E+00 -0.12376933281E+03  0.12376933281E+03  0.00000000000E+00 0. -1.
          6    1    1    2  501    0  0.24117453690E+02 -0.54213026463E+02  0.27010871854E+03  0.32567379944E+03  0.17200000000E+03 0. -1.
         -6    1    1    2    0  503 -0.24117453690E+02  0.54213026463E+02 -0.97647638037E+01  0.18220882093E+03  0.17200000000E+03 0. -1.
</event>
<event>
 4    1  0.1181383E+000  0.1789192E+03  0.7818608E-02  0.1168853E+00
         21   -1    0    0  501  502  0.00000000000E+00  0.00000000000E+00  0.55185004148E+02  0.55185004148E+02  0.00000000000E+00 0. -1.
         21   -1    0    0  502  503 -0.00000000000E+00 -0.00000000000E+00 -0.79839755137E+03  0.79839755137E+03  0.00000000000E+00 0. -1.
          6    1    1    2  501    0  0.19358595517E+02  0.45313802058E+02 -0.14843235567E+03  0.23247421381E+03  0.17200000000E+03 0.  1.
         -6    1    1    2    0  503 -0.19358595517E+02 -0.45313802058E+02 -0.59478019154E+03  0.62110834170E+03  0.17200000000E+03 0.  1.
</event>
<event>
 4    1  0.1181383E+000  0.1777536E+03  0.7818608E-02  0.1169995E+00
         21   -1    0    0  501  502  0.00000000000E+00  0.00000000000E+00  0.65992572873E+02  0.65992572873E+02  0.00000000000E+00 0. -1.
         21   -1    0    0  502  503 -0.00000000000E+00 -0.00000000000E+00 -0.56432245689E+03  0.56432245689E+03  0.00000000000E+00 0. -1.
          6    1    1    2  501    0 -0.37450759797E+02  0.24693975604E+02 -0.37186320204E+03  0.41216330850E+03  0.17200000000E+03 0.  1.
         -6    1    1    2    0  503  0.37450759797E+02 -0.24693975604E+02 -0.12646668198E+03  0.21815172127E+03  0.17200000000E+03 0.  1.
</event>
<event>
 4    1  0.1181383E+000  0.3109658E+03  0.7818608E-02  0.1079884E+00
         21   -1    0    0  501  502  0.00000000000E+00  0.00000000000E+00  0.26064298640E+03  0.26064298640E+03  0.00000000000E+00 0. -1.
         21   -1    0    0  502  503 -0.00000000000E+00 -0.00000000000E+00 -0.37562204315E+03  0.37562204315E+03  0.00000000000E+00 0.  1.
          6    1    1    2  501    0  0.63576570409E+02 -0.25114481740E+03 -0.92762482668E+02  0.32450666835E+03  0.17200000000E+03 0. -1.
         -6    1    1    2    0  503 -0.63576570409E+02  0.25114481740E+03 -0.22216574088E+02  0.31175836120E+03  0.17200000000E+03 0.  1.
</event>
<event>
 4    1  0.1181383E+000  0.1839956E+03  0.7818608E-02  0.1163991E+00
         21   -1    0    0  501  502  0.00000000000E+00  0.00000000000E+00  0.66373167330E+03  0.66373167330E+03  0.00000000000E+00 0.  1.
         21   -1    0    0  502  503 -0.00000000000E+00 -0.00000000000E+00 -0.54049853057E+02  0.54049853057E+02  0.00000000000E+00 0.  1.
          6    1    1    2  501    0  0.27870286938E+02 -0.59107050628E+02  0.39000691315E+03  0.43123055160E+03  0.17200000000E+03 0. -1.
         -6    1    1    2    0  503 -0.27870286938E+02  0.59107050628E+02  0.21967490709E+03  0.28655097476E+03  0.17200000000E+03 0. -1.
</event>
<event>
 4    1  0.1181383E+000  0.5334463E+03  0.7818608E-02  0.1005400E+00
         21   -1    0    0  501  502  0.00000000000E+00  0.00000000000E+00  0.35084783750E+03  0.35084783750E+03  0.00000000000E+00 0.  1.
         21   -1    0    0  502  503 -0.00000000000E+00 -0.00000000000E+00 -0.10757846543E+04  0.10757846543E+04  0.00000000000E+00 0. -1.
          6    1    1    2  501    0  0.50233310686E+03  0.51403867786E+02 -0.71630439443E+03  0.89311639407E+03  0.17200000000E+03 0. -1.
         -6    1    1    2    0  503 -0.50233310686E+03 -0.51403867786E+02 -0.86324224248E+01  0.53351609778E+03  0.17200000000E+03 0.  1.
</event>
<event>
 4    1  0.1181383E+000  0.1758429E+03  0.7818608E-02  0.1171888E+00
         21   -1    0    0  501  502  0.00000000000E+00  0.00000000000E+00  0.40649325463E+02  0.40649325463E+02  0.00000000000E+00 0. -1.
         21   -1    0    0  502  503 -0.00000000000E+00 -0.00000000000E+00 -0.13835973692E+04  0.13835973692E+04  0.00000000000E+00 0. -1.
          6    1    1    2  501    0 -0.32620644046E+02  0.16511349456E+02 -0.11492991586E+04  0.11626733363E+04  0.17200000000E+03 0. -1.
         -6    1    1    2    0  503  0.32620644046E+02 -0.16511349456E+02 -0.19364888521E+03  0.26157335839E+03  0.17200000000E+03 0. -1.
</event>
<event>
 4    1  0.1181383E+000  0.1865185E+03  0.7818608E-02  0.1161639E+00
         21   -1    0    0  503  502  0.00000000000E+00  0.00000000000E+00  0.34391743128E+03  0.34391743128E+03  0.00000000000E+00 0.  1.
         21   -1    0    0  501  503 -0.00000000000E+00 -0.00000000000E+00 -0.25756994442E+03  0.25756994442E+03  0.00000000000E+00 0.  1.
          6    1    1    2  501    0 -0.44997446643E+02  0.56394966823E+02 -0.19118829411E+03  0.26709946891E+03  0.17200000000E+03 0. -1.
         -6    1    1    2    0  502  0.44997446643E+02 -0.56394966823E+02  0.27753578097E+03  0.33438790679E+03  0.17200000000E+03 0. -1.
</event>
<event>
 4    1  0.1181383E+000  0.1832914E+03  0.7818608E-02  0.1164655E+00
         21   -1    0    0  501  502  0.00000000000E+00  0.00000000000E+00  0.68987450611E+02  0.68987450611E+02  0.00000000000E+00 0. -1.
         21   -1    0    0  502  503 -0.00000000000E+00 -0.00000000000E+00 -0.48700096492E+03  0.48700096492E+03  0.00000000000E+00 0. -1.
          6    1    1    2  501    0  0.49661446668E+02  0.39312497050E+02 -0.21068422144E+03  0.27925539006E+03  0.17200000000E+03 0.  1.
         -6    1    1    2    0  503 -0.49661446668E+02 -0.39312497050E+02 -0.20732929287E+03  0.27673302548E+03  0.17200000000E+03 0.  1.
</event>
<event>
 4    1  0.1181383E+000  0.2196718E+03  0.7818608E-02  0.1134128E+00
         21   -1    0    0  503  502  0.00000000000E+00  0.00000000000E+00  0.12967360943E+03  0.12967360943E+03  0.00000000000E+00 0. -1.
         21   -1    0    0  501  503 -0.00000000000E+00 -0.00000000000E+00 -0.66495995406E+03  0.66495995406E+03  0.00000000000E+00 0. -1.
          6    1    1    2  501    0 -0.13167572521E+03  0.36512969367E+02 -0.39824335230E+01  0.21970788178E+03  0.17200000000E+03 0. -1.
         -6    1    1    2    0  502  0.13167572521E+03 -0.36512969367E+02 -0.53130391110E+03  0.57492568171E+03  0.17200000000E+03 0. -1.
</event>
<event>
 4    1  0.1181383E+000  0.2378174E+03  0.7818608E-02  0.1121255E+00
         21   -1    0    0  503  502  0.00000000000E+00  0.00000000000E+00  0.11809460966E+03  0.11809460966E+03  0.00000000000E+00 0.  1.
         21   -1    0    0  501  503 -0.00000000000E+00 -0.00000000000E+00 -0.47923183920E+03  0.47923183920E+03  0.00000000000E+00 0.  1.
          6    1    1    2  501    0 -0.12887513104E+03  0.10180521048E+03 -0.17287077694E+03  0.29400919340E+03  0.17200000000E+03 0. -1.
         -6    1    1    2    0  502  0.12887513104E+03 -0.10180521048E+03 -0.18826645261E+03  0.30331725546E+03  0.17200000000E+03 0. -1.
</event>
<event>
 4    1  0.1181383E+000  0.2914933E+03  0.7818608E-02  0.1089572E+00
         21   -1    0    0  501  502  0.00000000000E+00  0.00000000000E+00  0.54219767010E+03  0.54219767010E+03  0.00000000000E+00 0. -1.
         21   -1    0    0  502  503 -0.00000000000E+00 -0.00000000000E+00 -0.19403450933E+03  0.19403450933E+03  0.00000000000E+00 0.  1.
          6    1    1    2  501    0  0.20502044996E+03  0.11554630894E+03  0.33553104067E+03  0.44446531210E+03  0.17200000000E+03 0. -1.
         -6    1    1    2    0  503 -0.20502044996E+03 -0.11554630894E+03  0.12632120106E+02  0.29176686733E+03  0.17200000000E+03 0.  1.
</event>
<event>
 4    1  0.1181383E+000  0.2271333E+03  0.7818608E-02  0.1128674E+00
         21   -1    0    0  501  502  0.00000000000E+00  0.00000000000E+00  0.70298955764E+02  0.70298955764E+02  0.00000000000E+00 0. -1.
         21   -1    0    0  502  503 -0.00000000000E+00 -0.00000000000E+00 -0.15729015154E+04  0.15729015154E+04  0.00000000000E+00 0. -1.
          6    1    1    2  501    0 -0.12402850507E+03  0.81378581722E+02 -0.15123158866E+03  0.27287458115E+03  0.17200000000E+03 0. -1.
         -6    1    1    2    0  503  0.12402850507E+03 -0.81378581722E+02 -0.13513709710E+04  0.13703258901E+04  0.17200000000E+03 0. -1.
</event>
<event>
 4    1  0.1181383E+000  0.1774432E+03  0.7818608E-02  0.1170301E+00
         21   -1    0    0  503  502  0.00000000000E+00  0.00000000000E+00  0.53584045900E+02  0.53584045900E+02  0.00000000000E+00 0. -1.
         21   -1    0    0  501  503 -0.00000000000E+00 -0.00000000000E+00 -0.71263587618E+03  0.71263587618E+03  0.00000000000E+00 0. -1.
          6    1    1    2  501    0 -0.13658445967E+02 -0.41419212299E+02 -0.48999932074E+03  0.52113859828E+03  0.17200000000E+03 0. -1.
         -6    1    1    2    0  502  0.13658445967E+02  0.41419212299E+02 -0.16905250954E+03  0.24508132380E+03  0.17200000000E+03 0. -1.
</event>
<event>
 4    1  0.1181383E+000  0.1745704E+03  0.7818608E-02  0.1173164E+00
         21   -1    0    0  501  502  0.00000000000E+00  0.00000000000E+00  0.75880170704E+03  0.75880170704E+03  0.00000000000E+00 0. -1.
         21   -1    0    0  502  503 -0.00000000000E+00 -0.00000000000E+00 -0.44529616972E+02  0.44529616972E+02  0.00000000000E+00 0. -1.
          6    1    1    2  501    0  0.26574055381E+02 -0.13588126505E+02  0.48293414063E+03  0.51351747953E+03  0.17200000000E+03 0. -1.
         -6    1    1    2    0  503 -0.26574055381E+02  0.13588126505E+02  0.23133794944E+03  0.28981384448E+03  0.17200000000E+03 0. -1.
</event>
<event>
 4    1  0.1181383E+000  0.1864954E+03  0.7818608E-02  0.1161661E+00
         21   -1    0    0  501  502  0.00000000000E+00  0.00000000000E+00  0.10801361499E+03  0.10801361499E+03  0.00000000000E+00 0. -1.
         21   -1    0    0  502  503 -0.00000000000E+00 -0.00000000000E+00 -0.37153479404E+03  0.37153479404E+03  0.00000000000E+00 0. -1.
          6    1    1    2  501    0  0.12092513975E+01 -0.72076924072E+02 -0.44211557317E+02  0.19166430829E+03  0.17200000000E+03 0. -1.
         -6    1    1    2    0  503 -0.12092513975E+01  0.72076924072E+02 -0.21930962174E+03  0.28788410074E+03  0.17200000000E+03 0. -1.
</event>
<event>
 4    1  0.1181383E+000  0.2031713E+03  0.7818608E-02  0.1147091E+00
         21   -1    0    0  501  502  0.00000000000E+00  0.00000000000E+00  0.10634497030E+04  0.10634497030E+04  0.00000000000E+00 0. -1.
         21   -1    0    0  502  503 -0.00000000000E+00 -0.00000000000E+00 -0.45862552045E+02  0.45862552045E+02  0.00000000000E+00 0.  1.
          6    1    1    2  501    0  0.10814112843E+03  0.26598090033E+00  0.72620953501E+03  0.75409473088E+03  0.17200000000E+03 0.  1.
         -6    1    1    2    0  503 -0.10814112843E+03 -0.26598090033E+00  0.29137761598E+03  0.35521752419E+03  0.17200000000E+03 0.  1.
</event>
<event>
 4    1  0.1181383E+000  0.1908327E+03  0.7818608E-02  0.1157712E+00
         21   -1    0    0  503  502  0.00000000000E+00  0.00000000000E+00  0.20214307752E+03  0.20214307752E+03  0.00000000000E+00 0. -1.
         21   -1    0    0  501  503 -0.00000000000E+00 -0.00000000000E+00 -0.36988737071E+03  0.36988737071E+03  0.00000000000E+00 0. -1.
          6    1    1    2  501    0  0.44392424522E+02 -0.69731146526E+02 -0.28871693675E+03  0.34608465686E+03  0.17200000000E+03 0. -1.
         -6    1    1    2    0  502 -0.44392424522E+02  0.69731146526E+02  0.12097264355E+03  0.22594579137E+03  0.17200000000E+03 0. -1.
</event>
<event>
 4    1  0.1181383E+000  0.2295178E+03  0.7818608E-02  0.1126980E+00
         21   -1    0    0  501  502  0.00000000000E+00  0.00000000000E+00  0.29794022295E+03  0.29794022295E+03  0.00000000000E+00 0. -1.
         21   -1    0    0  502  503 -0.00000000000E+00 -0.00000000000E+00 -0.17824723171E+03  0.17824723171E+03  0.00000000000E+00 0. -1.
          6    1    1    2  501    0  0.89120847123E+02 -0.12309307280E+03  0.81235619760E+02  0.24347003077E+03  0.17200000000E+03 0.  1.
         -6    1    1    2    0  503 -0.89120847123E+02  0.12309307280E+03  0.38457371481E+02  0.23271742389E+03  0.17200000000E+03 0.  1.
</event>
<event>
 4    1  0.1181383E+000  0.1788445E+03  0.7818608E-02  0.1168926E+00
         21   -1    0    0  503  502  0.00000000000E+00  0.00000000000E+00  0.26334788686E+03  0.26334788686E+03  0.00000000000E+00 0.  1.
         21   -1    0    0  501  503 -0.00000000000E+00 -0.00000000000E+00 -0.19025046729E+03  0.19025046729E+03  0.00000000000E+00 0.  1.
          6    1    1    2  501    0  0.30227298281E+02  0.38570229419E+02 -0.99832114890E+02  0.20482139371E+03  0.17200000000E+03 0.  1.
         -6    1    1    2    0  502 -0.30227298281E+02 -0.38570229419E+02  0.17292953446E+03  0.24877696044E+03  0.17200000000E+03 0.  1.
</event>
<event>
 4    1  0.1181383E+000  0.3574174E+03  0.7818608E-02  0.1059611E+00
         21   -1    0    0  501  502  0.00000000000E+00  0.00000000000E+00  0.54230568637E+03  0.54230568637E+03  0.00000000000E+00 0.  1.
         21   -1    0    0  502  503 -0.00000000000E+00 -0.00000000000E+00 -0.27964215824E+03  0.27964215824E+03  0.00000000000E+00 0. -1.
          6    1    1    2  501    0  0.25181255137E+03 -0.18642330091E+03  0.29449755126E+03  0.46311555345E+03  0.17200000000E+03 0.  1.
         -6    1    1    2    0  503 -0.25181255137E+03  0.18642330091E+03 -0.31834023124E+02  0.35883229116E+03  0.17200000000E+03 0. -1.
</event>
<event>
 4    1  0.1181383E+000  0.2755943E+03  0.7818608E-02  0.1098120E+00
         21   -1    0    0  503  502  0.00000000000E+00  0.00000000000E+00  0.11368278212E+04  0.11368278212E+04  0.00000000000E+00 0. -1.
         21   -1    0    0  501  503 -0.00000000000E+00 -0.00000000000E+00 -0.93907176861E+02  0.93907176861E+02  0.00000000000E+00 0.  1.
          6    1    1    2  501    0  0.16595087326E+03  0.13721705940E+03  0.19090670033E+03  0.33525748605E+03  0.17200000000E+03 0.  1.
         -6    1    1    2    0  502 -0.16595087326E+03 -0.13721705940E+03  0.85201394404E+03  0.89547751204E+03  0.17200000000E+03 0. -1.
</event>
<event>
 4    1  0.1181383E+000  0.1768850E+03  0.7818608E-02  0.1170852E+00
         21   -1    0    0  501  502  0.00000000000E+00  0.00000000000E+00  0.14548270310E+03  0.14548270310E+03  0.00000000000E+00 0. -1.
         21   -1    0    0  502  503 -0.00000000000E+00 -0.00000000000E+00 -0.22586865554E+03  0.22586865554E+03  0.00000000000E+00 0. -1.
          6    1    1    2  501    0 -0.31764006222E+02 -0.26369240282E+02 -0.80800387441E+02  0.19446591356E+03  0.17200000000E+03 0. -1.
         -6    1    1    2    0  503  0.31764006222E+02  0.26369240282E+02  0.41443500367E+00  0.17688544508E+03  0.17200000000E+03 0. -1.
</event>
<event>
 4    1  0.1181383E+000  0.2084885E+03  0.7818608E-02  0.1142769E+00
         21   -1    0    0  501  502  0.00000000000E+00  0.00000000000E+00  0.74871389526E+02  0.74871389526E+02  0.00000000000E+00 0.  1.
         21   -1    0    0  502  503 -0.00000000000E+00 -0.00000000000E+00 -0.64934007220E+03  0.64934007220E+03  0.00000000000E+00 0.  1.
          6    1    1    2  501    0 -0.28449514676E+01 -0.11779378555E+03 -0.16938561732E+03  0.26862419291E+03  0.17200000000E+03 0. -1.
         -6    1    1    2    0  503  0.28449514676E+01  0.11779378555E+03 -0.40508306536E+03  0.45558726881E+03  0.17200000000E+03 0. -1.
</event>
<event>
 4    1  0.1181383E+000  0.2202858E+03  0.7818608E-02  0.1133670E+00
         21   -1    0    0  503  502  0.00000000000E+00  0.00000000000E+00  0.97782910479E+03  0.97782910479E+03  0.00000000000E+00 0.  1.
         21   -1    0    0  501  503 -0.00000000000E+00 -0.00000000000E+00 -0.11062497984E+03  0.11062497984E+03  0.00000000000E+00 0. -1.
          6    1    1    2  501    0 -0.91078959200E+02  0.10318167509E+03  0.29478212199E+02  0.22224940917E+03  0.17200000000E+03 0. -1.
         -6    1    1    2    0  502  0.91078959200E+02 -0.10318167509E+03  0.83772591276E+03  0.86620467546E+03  0.17200000000E+03 0. -1.
</event>
<event>
 4    1  0.1181383E+000  0.1729822E+03  0.7818608E-02  0.1174773E+00
         21   -1    0    0  503  502  0.00000000000E+00  0.00000000000E+00  0.13567390129E+03  0.13567390129E+03  0.00000000000E+00 0. -1.
         21   -1    0    0  501  503 -0.00000000000E+00 -0.00000000000E+00 -0.22494579001E+03  0.22494579001E+03  0.00000000000E+00 0. -1.
          6    1    1    2  501    0  0.10844688644E+02  0.14874096283E+02 -0.69842352321E+02  0.18654972578E+03  0.17200000000E+03 0. -1.
         -6    1    1    2    0  502 -0.10844688644E+02 -0.14874096283E+02 -0.19429536403E+02  0.17406996552E+03  0.17200000000E+03 0. -1.
</event>
<event>
 4    1  0.1181383E+000  0.1857208E+03  0.7818608E-02  0.1162379E+00
         21   -1    0    0  503  502  0.00000000000E+00  0.00000000000E+00  0.66883192842E+02  0.66883192842E+02  0.00000000000E+00 0.  1.
         21   -1    0    0  501  503 -0.00000000000E+00 -0.00000000000E+00 -0.56347169731E+03  0.56347169731E+03  0.00000000000E+00 0.  1.
          6    1    1    2  501    0 -0.66636491681E+02 -0.21628174162E+02 -0.34005731232E+03  0.38746764459E+03  0.17200000000E+03 0.  1.
         -6    1    1    2    0  502  0.66636491681E+02  0.21628174162E+02 -0.15653119214E+03  0.24288724556E+03  0.17200000000E+03 0.  1.
</event>
<event>
 4    1  0.1181383E+000  0.2830298E+03  0.7818608E-02  0.1094046E+00
         21   -1    0    0  503  502  0.00000000000E+00  0.00000000000E+00  0.51605245796E+02  0.51605245796E+02  0.00000000000E+00 0.  1.
         21   -1    0    0  501  503 -0.00000000000E+00 -0.00000000000E+00 -0.15525822174E+04  0.15525822174E+04  0.00000000000E+00 0. -1.
          6    1    1    2  501    0 -0.10226442749E+03  0.20015957469E+03 -0.76165134590E+03  0.81253839366E+03  0.17200000000E+03 0.  1.
         -6    1    1    2    0  502  0.10226442749E+03 -0.20015957469E+03 -0.73932562574E+03  0.79164906957E+03  0.17200000000E+03 0. -1.
</event>
<event>
 4    1  0.1181383E+000  0.1978790E+03  0.7818608E-02  0.1151541E+00
         21   -1    0    0  501  502  0.00000000000E+00  0.00000000000E+00  0.12656615823E+03  0.12656615823E+03  0.00000000000E+00 0. -1.
         21   -1    0    0  502  503 -0.00000000000E+00 -0.00000000000E+00 -0.44800996462E+03  0.44800996462E+03  0.00000000000E+00 0. -1.
          6    1    1    2  501    0 -0.19589042605E+01  0.97817562720E+02 -0.90829847503E+00  0.19788112060E+03  0.17200000000E+03 0. -1.
         -6    1    1    2    0  503  0.19589042605E+01 -0.97817562720E+02 -0.32053550792E+03  0.37669500225E+03  0.17200000000E+03 0. -1.
</event>
<event>
 4    1  0.1181383E+000  0.2033301E+03  0.7818608E-02  0.1146959E+00
         21   -1    0    0  503  502  0.00000000000E+00  0.00000000000E+00  0.90486089063E+02  0.90486089063E+02  0.00000000000E+00 0.  1.
         21   -1    0    0  501  503 -0.00000000000E+00 -0.00000000000E+00 -0.70471218982E+03  0.70471218982E+03  0.00000000000E+00 0.  1.
          6    1    1    2  501    0 -0.99160053021E+02  0.43891077450E+02 -0.54288948980E+03  0.57971729397E+03  0.17200000000E+03 0.  1.
         -6    1    1    2    0  502  0.99160053021E+02 -0.43891077450E+02 -0.71336610956E+02  0.21548098491E+03  0.17200000000E+03 0.  1.
</event>
<event>
 4    1  0.1181383E+000  0.2034686E+03  0.7818608E-02  0.1146845E+00
         21   -1    0    0  503  502  0.00000000000E+00  0.00000000000E+00  0.71475841796E+03  0.71475841796E+03  0.00000000000E+00 0.  1.
         21   -1    0    0  501  503 -0.00000000000E+00 -0.00000000000E+00 -0.68922083819E+02  0.68922083819E+02  0.00000000000E+00 0. -1.
          6    1    1    2  501    0 -0.10676577361E+03  0.20408850664E+02  0.16636944166E+03  0.26282740100E+03  0.17200000000E+03 0. -1.
         -6    1    1    2    0  502  0.10676577361E+03 -0.20408850664E+02  0.47946689248E+03  0.52085310077E+03  0.17200000000E+03 0.  1.
</event>
<event>
 4    1  0.1181383E+000  0.1800556E+03  0.7818608E-02  0.1167749E+00
         21   -1    0    0  501  502  0.00000000000E+00  0.00000000000E+00  0.22227656834E+03  0.22227656834E+03  0.00000000000E+00 0.  1.
         21   -1    0    0  502  503 -0.00000000000E+00 -0.00000000000E+00 -0.14785396730E+03  0.14785396730E+03  0.00000000000E+00 0.  1.
          6    1    1    2  501    0  0.35730958818E+02 -0.39488044770E+02  0.58733197661E+02  0.18939270209E+03  0.17200000000E+03 0. -1.
         -6    1    1    2    0  503 -0.35730958818E+02  0.39488044770E+02  0.15689403384E+02  0.18073783355E+03  0.17200000000E+03 0. -1.
</event>
<event>
 4    1  0.1181383E+000  0.1845225E+03  0.7818608E-02  0.1163497E+00
         21   -1    0    0  501  502  0.00000000000E+00  0.00000000000E+00  0.12764947087E+03  0.12764947087E+03  0.00000000000E+00 0.  1.
         21   -1    0    0  502  503 -0.00000000000E+00 -0.00000000000E+00 -0.85719540983E+03  0.85719540983E+03  0.00000000000E+00 0.  1.
          6    1    1    2  501    0 -0.54799394170E+01  0.66592272564E+02  0.43916427306E+02  0.18967660132E+03  0.17200000000E+03 0.  1.
         -6    1    1    2    0  503  0.54799394170E+01 -0.66592272564E+02 -0.77346236627E+03  0.79516827938E+03  0.17200000000E+03 0.  1.
</event>
<event>
 4    1  0.1181383E+000  0.2034637E+03  0.7818608E-02  0.1146849E+00
         21   -1    0    0  501  502  0.00000000000E+00  0.00000000000E+00  0.54447930635E+02  0.54447930635E+02  0.00000000000E+00 0. -1.
         21   -1    0    0  502  503 -0.00000000000E+00 -0.00000000000E+00 -0.11934957977E+04  0.11934957977E+04  0.00000000000E+00 0. -1.
          6    1    1    2  501    0  0.72017576370E+02  0.81406034130E+02 -0.19360852965E+03  0.28085892625E+03  0.17200000000E+03 0. -1.
         -6    1    1    2    0  503 -0.72017576370E+02 -0.81406034130E+02 -0.94543933740E+03  0.96708480207E+03  0.17200000000E+03 0. -1.
</event>
<event>
 4    1  0.1181383E+000  0.2219262E+03  0.7818608E-02  0.1132455E+00
         21   -1    0    0  501  502  0.00000000000E+00  0.00000000000E+00  0.10250951665E+03  0.10250951665E+03  0.00000000000E+00 0.  1.
         21   -1    0    0  502  503 -0.00000000000E+00 -0.00000000000E+00 -0.50792366767E+03  0.50792366767E+03  0.00000000000E+00 0.  1.
          6    1    1    2  501    0 -0.10266899780E+03 -0.95531793761E+02 -0.13172889446E+03  0.25807702022E+03  0.17200000000E+03 0.  1.
         -6    1    1    2    0  503  0.10266899780E+03  0.95531793761E+02 -0.27368525655E+03  0.35235616410E+03  0.17200000000E+03 0.  1.
</event>
<event>
 4    1  0.1181383E+000  0.3064875E+03  0.7818608E-02  0.1082042E+00
         21   -1    0    0  503  502  0.00000000000E+00  0.00000000000E+00  0.22993868565E+03  0.22993868565E+03  0.00000000000E+00 0.  1.
         21   -1    0    0  501  503 -0.00000000000E+00 -0.00000000000E+00 -0.70295876903E+03  0.70295876903E+03  0.00000000000E+00 0.  1.
          6    1    1    2  501    0  0.17512700300E+03  0.18352415862E+03 -0.53839145860E+03  0.61951589703E+03  0.17200000000E+03 0.  1.
         -6    1    1    2    0  502 -0.17512700300E+03 -0.18352415862E+03  0.65371375225E+02  0.31338155765E+03  0.17200000000E+03 0.  1.
</event>
<event>
 4    1  0.1181383E+000  0.2041834E+03  0.7818608E-02  0.1146257E+00
         21   -1    0    0  501  502  0.00000000000E+00  0.00000000000E+00  0.68406813949E+03  0.68406813949E+03  0.00000000000E+00 0. -1.
         21   -1    0    0  502  503 -0.00000000000E+00 -0.00000000000E+00 -0.81157399819E+02  0.81157399819E+02  0.00000000000E+00 0. -1.
          6    1    1    2  501    0  0.10327038960E+03  0.37975067517E+02  0.49239624063E+03  0.53305247106E+03  0.17200000000E+03 0. -1.
         -6    1    1    2    0  503 -0.10327038960E+03 -0.37975067517E+02  0.11051449904E+03  0.23217306825E+03  0.17200000000E+03 0. -1.
</event>
<event>
 4    1  0.1181383E+000  0.1788450E+03  0.7818608E-02  0.1168926E+00
         21   -1    0    0  503  502  0.00000000000E+00  0.00000000000E+00  0.12140087963E+04  0.12140087963E+04  0.00000000000E+00 0.  1.
         21   -1    0    0  501  503 -0.00000000000E+00 -0.00000000000E+00 -0.19155164100E+03  0.19155164100E+03  0.00000000000E+00 0.  1.
          6    1    1    2  501    0 -0.28004524661E+01  0.48925285041E+02 -0.14143243855E+03  0.22801022066E+03  0.17200000000E+03 0.  1.
         -6    1    1    2    0  502  0.28004524661E+01 -0.48925285041E+02  0.11638895938E+04  0.11775502166E+04  0.17200000000E+03 0.  1.
</event>
<event>
 4    1  0.1181383E+000  0.1798429E+03  0.7818608E-02  0.1167955E+00
         21   -1    0    0  501  502  0.00000000000E+00  0.00000000000E+00  0.51917447432E+03  0.51917447432E+03  0.00000000000E+00 0. -1.
         21   -1    0    0  502  503 -0.00000000000E+00 -0.00000000000E+00 -0.64670873956E+02  0.64670873956E+02  0.00000000000E+00 0. -1.
          6    1    1    2  501    0 -0.52530426761E+02 -0.99516203183E-01  0.28317141255E+03  0.33545417649E+03  0.17200000000E+03 0. -1.
         -6    1    1    2    0  503  0.52530426761E+02  0.99516203183E-01  0.17133218781E+03  0.24839117178E+03  0.17200000000E+03 0. -1.
</event>
<event>
 4    1  0.1181383E+000  0.2663861E+03  0.7818608E-02  0.1103366E+00
         21   -1    0    0  503  502  0.00000000000E+00  0.00000000000E+00  0.37654290216E+03  0.37654290216E+03  0.00000000000E+00 0.  1.
         21   -1    0    0  501  503 -0.00000000000E+00 -0.00000000000E+00 -0.20736385500E+03  0.20736385500E+03  0.00000000000E+00 0.  1.
          6    1    1    2  501    0 -0.20040930864E+03 -0.34837915398E+02  0.17275004329E+03  0.31749669100E+03  0.17200000000E+03 0.  1.
         -6    1    1    2    0  502  0.20040930864E+03  0.34837915398E+02 -0.35709961277E+01  0.26641006616E+03  0.17200000000E+03 0.  1.
</event>
<event>
 4    1  0.1181383E+000  0.2235172E+03  0.7818608E-02  0.1131288E+00
         21   -1    0    0  503  502  0.00000000000E+00  0.00000000000E+00  0.12975574032E+03  0.12975574032E+03  0.00000000000E+00 0.  1.
         21   -1    0    0  501  503 -0.00000000000E+00 -0.00000000000E+00 -0.41362141185E+03  0.41362141185E+03  0.00000000000E+00 0. -1.
          6    1    1    2  501    0 -0.89916296844E+02 -0.11086473064E+03 -0.21336325669E+03  0.30900454405E+03  0.17200000000E+03 0. -1.
         -6    1    1    2    0  502  0.89916296844E+02  0.11086473064E+03 -0.70502414839E+02  0.23437260812E+03  0.17200000000E+03 0.  1.
</event>
<event>
 4    1  0.1181383E+000  0.2008800E+03  0.7818608E-02  0.1148999E+00
         21   -1    0    0  503  502  0.00000000000E+00  0.00000000000E+00  0.11307039147E+04  0.11307039147E+04  0.00000000000E+00 0. -1.
         21   -1    0    0  501  503 -0.00000000000E+00 -0.00000000000E+00 -0.56550735303E+02  0.56550735303E+02  0.00000000000E+00 0. -1.
          6    1    1    2  501    0  0.10360587542E+03 -0.58823392642E+01  0.17651590282E+03  0.26741474021E+03  0.17200000000E+03 0. -1.
         -6    1    1    2    0  502 -0.10360587542E+03  0.58823392642E+01  0.89763727662E+03  0.91983990983E+03  0.17200000000E+03 0. -1.
</event>
<event>
 4    1  0.1181383E+000  0.2073620E+03  0.7818608E-02  0.1143672E+00
         21   -1    0    0  501  502  0.00000000000E+00  0.00000000000E+00  0.20457769258E+03  0.20457769258E+03  0.00000000000E+00 0. -1.
         21   -1    0    0  502  503 -0.00000000000E+00 -0.00000000000E+00 -0.21498280900E+03  0.21498280900E+03  0.00000000000E+00 0. -1.
          6    1    1    2  501    0  0.86437172339E+02  0.77094930123E+02  0.26138758599E+02  0.20900298494E+03  0.17200000000E+03 0.  1.
         -6    1    1    2    0  503 -0.86437172339E+02 -0.77094930123E+02 -0.36543875019E+02  0.21055751664E+03  0.17200000000E+03 0.  1.
</event>
<event>
 4    1  0.1181383E+000  0.2013272E+03  0.7818608E-02  0.1148624E+00
         21   -1    0    0  501  502  0.00000000000E+00  0.00000000000E+00  0.16049374946E+03  0.16049374946E+03  0.00000000000E+00 0. -1.
         21   -1    0    0  502  503 -0.00000000000E+00 -0.00000000000E+00 -0.28284816680E+03  0.28284816680E+03  0.00000000000E+00 0. -1.
          6    1    1    2  501    0  0.67733502227E+02  0.79754667569E+02  0.11373734646E+02  0.20164819901E+03  0.17200000000E+03 0.  1.
         -6    1    1    2    0  503 -0.67733502227E+02 -0.79754667569E+02 -0.13372815199E+03  0.24169371725E+03  0.17200000000E+03 0.  1.
</event>
<event>
 4    1  0.1181383E+000  0.2205515E+03  0.7818608E-02  0.1133473E+00
         21   -1    0    0  503  502  0.00000000000E+00  0.00000000000E+00  0.89235790975E+02  0.89235790975E+02  0.00000000000E+00 0. -1.
         21   -1    0    0  501  503 -0.00000000000E+00 -0.00000000000E+00 -0.73111196223E+03  0.73111196223E+03  0.00000000000E+00 0. -1.
          6    1    1    2  501    0  0.93868002632E+02  0.10123132233E+03 -0.52782796987E+03  0.57205362364E+03  0.17200000000E+03 0. -1.
         -6    1    1    2    0  502 -0.93868002632E+02 -0.10123132233E+03 -0.11404820138E+03  0.24829412956E+03  0.17200000000E+03 0. -1.
</event>
<event>
 4    1  0.1181383E+000  0.2235344E+03  0.7818608E-02  0.1131275E+00
         21   -1    0    0  503  502  0.00000000000E+00  0.00000000000E+00  0.40622449565E+03  0.40622449565E+03  0.00000000000E+00 0. -1.
         21   -1    0    0  501  503 -0.00000000000E+00 -0.00000000000E+00 -0.22964426482E+03  0.22964426482E+03  0.00000000000E+00 0. -1.
          6    1    1    2  501    0  0.14276745482E+03  0.10387013785E+01 -0.12836470595E+03  0.25776951486E+03  0.17200000000E+03 0. -1.
         -6    1    1    2    0  502 -0.14276745482E+03 -0.10387013785E+01  0.30494493679E+03  0.37809924561E+03  0.17200000000E+03 0. -1.
</event>
<event>
 4    1  0.1181383E+000  0.2126731E+03  0.7818608E-02  0.1139467E+00
         21   -1    0    0  501  502  0.00000000000E+00  0.00000000000E+00  0.36030265955E+03  0.36030265955E+03  0.00000000000E+00 0.  1.
         21   -1    0    0  502  503 -0.00000000000E+00 -0.00000000000E+00 -0.13755574128E+03  0.13755574128E+03  0.00000000000E+00 0. -1.
          6    1    1    2  501    0  0.51453422419E+02  0.11401042046E+03  0.37779800322E+02  0.21600264805E+03  0.17200000000E+03 0. -1.
         -6    1    1    2    0  503 -0.51453422419E+02 -0.11401042046E+03  0.18496711794E+03  0.28185575278E+03  0.17200000000E+03 0.  1.
</event>
<event>
 4    1  0.1181383E+000  0.1943756E+03  0.7818608E-02  0.1154573E+00
         21   -1    0    0  503  502  0.00000000000E+00  0.00000000000E+00  0.13303909762E+03  0.13303909762E+03  0.00000000000E+00 0.  1.
         21   -1    0    0  501  503 -0.00000000000E+00 -0.00000000000E+00 -0.35171408559E+03  0.35171408559E+03  0.00000000000E+00 0.  1.
          6    1    1    2  501    0 -0.25436688113E+02  0.86895537519E+02 -0.21569430094E+03  0.29035476749E+03  0.17200000000E+03 0.  1.
         -6    1    1    2    0  502  0.25436688113E+02 -0.86895537519E+02 -0.29806870252E+01  0.19439841573E+03  0.17200000000E+03 0.  1.
</event>
<event>
 4    1  0.1181383E+000  0.2285950E+03  0.7818608E-02  0.1127633E+00
         21   -1    0    0  503  502  0.00000000000E+00  0.00000000000E+00  0.64886894946E+02  0.64886894946E+02  0.00000000000E+00 0.  1.
         21   -1    0    0  501  503 -0.00000000000E+00 -0.00000000000E+00 -0.80599621238E+03  0.80599621238E+03  0.00000000000E+00 0.  1.
          6    1    1    2  501    0 -0.68147256181E+02  0.13426701137E+03 -0.38302785482E+03  0.44605606871E+03  0.17200000000E+03 0.  1.
         -6    1    1    2    0  502  0.68147256181E+02 -0.13426701137E+03 -0.35808146261E+03  0.42482703861E+03  0.17200000000E+03 0.  1.
</event>
<event>
 4    1  0.1181383E+000  0.2514078E+03  0.7818608E-02  0.1112418E+00
         21   -1    0    0  501  502  0.00000000000E+00  0.00000000000E+00  0.28534050219E+03  0.28534050219E+03  0.00000000000E+00 0. -1.
         21   -1    0    0  502  503 -0.00000000000E+00 -0.00000000000E+00 -0.27459855042E+04  0.27459855042E+04  0.00000000000E+00 0. -1.
          6    1    1    2  501    0 -0.11481435507E+03  0.14296695808E+03  0.22292329787E+03  0.33600697012E+03  0.17200000000E+03 0. -1.
         -6    1    1    2    0  503  0.11481435507E+03 -0.14296695808E+03 -0.26835682999E+04  0.26953190363E+04  0.17200000000E+03 0. -1.
</event>
<event>
 4    1  0.1181383E+000  0.2051632E+03  0.7818608E-02  0.1145455E+00
         21   -1    0    0  503  502  0.00000000000E+00  0.00000000000E+00  0.35350109283E+03  0.35350109283E+03  0.00000000000E+00 0.  1.
         21   -1    0    0  501  503 -0.00000000000E+00 -0.00000000000E+00 -0.15307195898E+03  0.15307195898E+03  0.00000000000E+00 0.  1.
          6    1    1    2  501    0 -0.72181306738E+02  0.85427080942E+02 -0.19158475483E+02  0.20605575552E+03  0.17200000000E+03 0.  1.
         -6    1    1    2    0  502  0.72181306738E+02 -0.85427080942E+02  0.21958760933E+03  0.30051729629E+03  0.17200000000E+03 0.  1.
</event>
<event>
 4    1  0.1181383E+000  0.1910864E+03  0.7818608E-02  0.1157485E+00
         21   -1    0    0  501  502  0.00000000000E+00  0.00000000000E+00  0.44893473852E+03  0.44893473852E+03  0.00000000000E+00 0. -1.
         21   -1    0    0  502  503 -0.00000000000E+00 -0.00000000000E+00 -0.85867295177E+02  0.85867295177E+02  0.00000000000E+00 0.  1.
          6    1    1    2  501    0  0.35760958160E+02 -0.75174284252E+02  0.24296897140E+03  0.30910829850E+03  0.17200000000E+03 0.  1.
         -6    1    1    2    0  503 -0.35760958160E+02  0.75174284252E+02  0.12009847194E+03  0.22569373519E+03  0.17200000000E+03 0.  1.
</event>
<event>
 4    1  0.1181383E+000  0.2065982E+03  0.7818608E-02  0.1144289E+00
         21   -1    0    0  501  502  0.00000000000E+00  0.00000000000E+00  0.43570086848E+02  0.43570086848E+02  0.00000000000E+00 0.  1.
         21   -1    0    0  502  503 -0.00000000000E+00 -0.00000000000E+00 -0.98325622955E+03  0.98325622955E+03  0.00000000000E+00 0.  1.
          6    1    1    2  501    0  0.56849532536E+02 -0.99332404512E+02 -0.43868701150E+03  0.48490111362E+03  0.17200000000E+03 0.  1.
         -6    1    1    2    0  503 -0.56849532536E+02  0.99332404512E+02 -0.50099913121E+03  0.54192520278E+03  0.17200000000E+03 0.  1.
</event>
<event>
 4    1  0.1181383E+000  0.1759819E+03  0.7818608E-02  0.1171749E+00
         21   -1    0    0  503  502  0.00000000000E+00  0.00000000000E+00  0.55490128280E+03  0.55490128280E+03  0.00000000000E+00 0.  1.
         21   -1    0    0  501  503 -0.00000000000E+00 -0.00000000000E+00 -0.56520700047E+02  0.56520700047E+02  0.00000000000E+00 0.  1.
          6    1    1    2  501    0 -0.14591664287E+02 -0.34244866091E+02  0.28344553373E+03  0.33363302911E+03  0.17200000000E+03 0.  1.
         -6    1    1    2    0  502  0.14591664287E+02  0.34244866091E+02  0.21493504902E+03  0.27778895373E+03  0.17200000000E+03 0.  1.
</event>
<event>
 4    1  0.1181383E+000  0.1805208E+03  0.7818608E-02  0.1167300E+00
         21   -1    0    0  503  502  0.00000000000E+00  0.00000000000E+00  0.41475023675E+02  0.41475023675E+02  0.00000000000E+00 0.  1.
         21   -1    0    0  501  503 -0.00000000000E+00 -0.00000000000E+00 -0.10207857177E+04  0.10207857177E+04  0.00000000000E+00 0.  1.
          6    1    1    2  501    0  0.51787677947E+02 -0.17938877275E+02 -0.74453093414E+03  0.76610317765E+03  0.17200000000E+03 0.  1.
         -6    1    1    2    0  502 -0.51787677947E+02  0.17938877275E+02 -0.23477975990E+03  0.29615756374E+03  0.17200000000E+03 0.  1.
</event>
<event>
 4    1  0.1181383E+000  0.1853080E+03  0.7818608E-02  0.1162763E+00
         21   -1    0    0  501  502  0.00000000000E+00  0.00000000000E+00  0.46872693501E+03  0.46872693501E+03  0.00000000000E+00 0.  1.
         21   -1    0    0  502  503 -0.00000000000E+00 -0.00000000000E+00 -0.75337708624E+02  0.75337708624E+02  0.00000000000E+00 0. -1.
          6    1    1    2  501    0  0.30794587587E+02 -0.61698736044E+02  0.24186804910E+03  0.30469524747E+03  0.17200000000E+03 0. -1.
         -6    1    1    2    0  503 -0.30794587587E+02  0.61698736044E+02  0.15152117728E+03  0.23936939616E+03  0.17200000000E+03 0. -1.
</event>
<event>
 4    1  0.1181383E+000  0.1837005E+03  0.7818608E-02  0.1164269E+00
         21   -1    0    0  501  502  0.00000000000E+00  0.00000000000E+00  0.17649278684E+03  0.17649278684E+03  0.00000000000E+00 0.  1.
         21   -1    0    0  502  503 -0.00000000000E+00 -0.00000000000E+00 -0.65129666616E+03  0.65129666616E+03  0.00000000000E+00 0.  1.
          6    1    1    2  501    0  0.58568388346E+02 -0.27048224807E+02  0.11047354740E+03  0.21436013448E+03  0.17200000000E+03 0.  1.
         -6    1    1    2    0  503 -0.58568388346E+02  0.27048224807E+02 -0.58527742673E+03  0.61342931852E+03  0.17200000000E+03 0.  1.
</event>
<event>
 4    1  0.1181383E+000  0.1815379E+03  0.7818608E-02  0.1166323E+00
         21   -1    0    0  501  502  0.00000000000E+00  0.00000000000E+00  0.24234150068E+02  0.24234150068E+02  0.00000000000E+00 0.  1.
         21   -1    0    0  502  503 -0.00000000000E+00 -0.00000000000E+00 -0.18585226224E+04  0.18585226224E+04  0.00000000000E+00 0.  1.
          6    1    1    2  501    0 -0.45413428723E+02 -0.36188848796E+02 -0.42954115986E+03  0.46632780348E+03  0.17200000000E+03 0.  1.
         -6    1    1    2    0  503  0.45413428723E+02  0.36188848796E+02 -0.14047473124E+04  0.14164289690E+04  0.17200000000E+03 0.  1.
</event>
<event>
 4    1  0.1181383E+000  0.3006229E+03  0.7818608E-02  0.1084930E+00
         21   -1    0    0  503  502  0.00000000000E+00  0.00000000000E+00  0.16601106920E+03  0.16601106920E+03  0.00000000000E+00 0.  1.
         21   -1    0    0  501  503 -0.00000000000E+00 -0.00000000000E+00 -0.54992421736E+03  0.54992421736E+03  0.00000000000E+00 0.  1.
          6    1    1    2  501    0 -0.14944713888E+03  0.19610124578E+03 -0.22787910744E+03  0.37723074308E+03  0.17200000000E+03 0. -1.
         -6    1    1    2    0  502  0.14944713888E+03 -0.19610124578E+03 -0.15603404072E+03  0.33870454349E+03  0.17200000000E+03 0. -1.
</event>
<event>
 4    1  0.1181383E+000  0.1931218E+03  0.7818608E-02  0.1155675E+00
         21   -1    0    0  501  502  0.00000000000E+00  0.00000000000E+00  0.76265680823E+03  0.76265680823E+03  0.00000000000E+00 0. -1.
         21   -1    0    0  502  503 -0.00000000000E+00 -0.00000000000E+00 -0.10187158270E+03  0.10187158270E+03  0.00000000000E+00 0.  1.
          6    1    1    2  501    0  0.42978698726E+02 -0.76582269321E+02  0.64208985029E+03  0.67050383173E+03  0.17200000000E+03 0. -1.
         -6    1    1    2    0  503 -0.42978698726E+02  0.76582269321E+02  0.18695375239E+02  0.19402455920E+03  0.17200000000E+03 0.  1.
</event>
<event>
 4    1  0.1181383E+000  0.2073951E+03  0.7818608E-02  0.1143646E+00
         21   -1    0    0  503  502  0.00000000000E+00  0.00000000000E+00  0.41750042151E+03  0.41750042151E+03  0.00000000000E+00 0. -1.
         21   -1    0    0  501  503 -0.00000000000E+00 -0.00000000000E+00 -0.24779902555E+03  0.24779902555E+03  0.00000000000E+00 0. -1.
          6    1    1    2  501    0  0.89734858214E+01  0.11553447786E+03 -0.16941253455E+03  0.26779347618E+03  0.17200000000E+03 0. -1.
         -6    1    1    2    0  502 -0.89734858214E+01 -0.11553447786E+03  0.33911393050E+03  0.39750597088E+03  0.17200000000E+03 0. -1.
</event>
<event>
 4    1  0.1181383E+000  0.4553323E+03  0.7818608E-02  0.1026144E+00
         21   -1    0    0  501  502  0.00000000000E+00  0.00000000000E+00  0.10627535312E+04  0.10627535312E+04  0.00000000000E+00 0. -1.
         21   -1    0    0  502  503 -0.00000000000E+00 -0.00000000000E+00 -0.48064842043E+03  0.48064842043E+03  0.00000000000E+00 0.  1.
          6    1    1    2  501    0 -0.22183280587E+03 -0.35851598114E+03 -0.30376860908E+03  0.54735990934E+03  0.17200000000E+03 0.  1.
         -6    1    1    2    0  503  0.22183280587E+03  0.35851598114E+03  0.88587371989E+03  0.99604204232E+03  0.17200000000E+03 0.  1.
</event>
<event>
 4    1  0.1181383E+000  0.3123106E+03  0.7818608E-02  0.1079244E+00
         21   -1    0    0  503  502  0.00000000000E+00  0.00000000000E+00  0.18349036989E+03  0.18349036989E+03  0.00000000000E+00 0.  1.
         21   -1    0    0  501  503 -0.00000000000E+00 -0.00000000000E+00 -0.65897664298E+03  0.65897664298E+03  0.00000000000E+00 0.  1.
          6    1    1    2  501    0 -0.10118950548E+02 -0.26048321864E+03 -0.42296175341E+03  0.52577043013E+03  0.17200000000E+03 0.  1.
         -6    1    1    2    0  502  0.10118950548E+02  0.26048321864E+03 -0.52524519685E+02  0.31669658274E+03  0.17200000000E+03 0.  1.
</event>
<event>
 4    1  0.1181383E+000  0.1804648E+03  0.7818608E-02  0.1167354E+00
         21   -1    0    0  501  502  0.00000000000E+00  0.00000000000E+00  0.95285777648E+02  0.95285777648E+02  0.00000000000E+00 0.  1.
         21   -1    0    0  502  503 -0.00000000000E+00 -0.00000000000E+00 -0.41089206354E+03  0.41089206354E+03  0.00000000000E+00 0.  1.
          6    1    1    2  501    0 -0.23519586952E+02 -0.49298946293E+02 -0.54011990453E+02  0.18837423441E+03  0.17200000000E+03 0.  1.
         -6    1    1    2    0  503  0.23519586952E+02  0.49298946293E+02 -0.26159429544E+03  0.31780360678E+03  0.17200000000E+03 0.  1.
</event>
<event>
 4    1  0.1181383E+000  0.2091890E+03  0.7818608E-02  0.1142210E+00
         21   -1    0    0  501  502  0.00000000000E+00  0.00000000000E+00  0.18445265833E+03  0.18445265833E+03  0.00000000000E+00 0. -1.
         21   -1    0    0  502  503 -0.00000000000E+00 -0.00000000000E+00 -0.25148963736E+03  0.25148963736E+03  0.00000000000E+00 0.  1.
          6    1    1    2  501    0 -0.52614182313E+02 -0.10680730576E+03  0.18361421258E+02  0.20999332022E+03  0.17200000000E+03 0. -1.
         -6    1    1    2    0  503  0.52614182313E+02  0.10680730576E+03 -0.85398400284E+02  0.22594897547E+03  0.17200000000E+03 0.  1.
</event>
<event>
 4    1  0.1181383E+000  0.2414147E+03  0.7818608E-02  0.1118854E+00
         21   -1    0    0  501  502  0.00000000000E+00  0.00000000000E+00  0.61360076216E+02  0.61360076216E+02  0.00000000000E+00 0. -1.
         21   -1    0    0  502  503 -0.00000000000E+00 -0.00000000000E+00 -0.11247976854E+04  0.11247976854E+04  0.00000000000E+00 0. -1.
          6    1    1    2  501    0  0.54425395431E+02 -0.16042115527E+03 -0.76563792032E+03  0.80279667149E+03  0.17200000000E+03 0. -1.
         -6    1    1    2    0  503 -0.54425395431E+02  0.16042115527E+03 -0.29779968882E+03  0.38336109008E+03  0.17200000000E+03 0. -1.
</event>
<event>
 4    1  0.1181383E+000  0.1739159E+03  0.7818608E-02  0.1173825E+00
         21   -1    0    0  501  502  0.00000000000E+00  0.00000000000E+00  0.23444487609E+03  0.23444487609E+03  0.00000000000E+00 0. -1.
         21   -1    0    0  502  503 -0.00000000000E+00 -0.00000000000E+00 -0.13426694447E+03  0.13426694447E+03  0.00000000000E+00 0. -1.
          6    1    1    2  501    0 -0.12500420905E+01 -0.25713542538E+02  0.13625308304E+02  0.17444884036E+03  0.17200000000E+03 0. -1.
         -6    1    1    2    0  503  0.12500420905E+01  0.25713542538E+02  0.86552623315E+02  0.19426298020E+03  0.17200000000E+03 0. -1.
</event>
<event>
 4    1  0.1181383E+000  0.2256158E+03  0.7818608E-02  0.1129764E+00
         21   -1    0    0  503  502  0.00000000000E+00  0.00000000000E+00  0.99622523071E+03  0.99622523071E+03  0.00000000000E+00 0.  1.
         21   -1    0    0  501  503 -0.00000000000E+00 -0.00000000000E+00 -0.58500273607E+02  0.58500273607E+02  0.00000000000E+00 0. -1.
          6    1    1    2  501    0 -0.14342125975E+03  0.27364447442E+02  0.65648759491E+03  0.69417464157E+03  0.17200000000E+03 0.  1.
         -6    1    1    2    0  502  0.14342125975E+03 -0.27364447442E+02  0.28123736220E+03  0.36055086275E+03  0.17200000000E+03 0. -1.
</event>
<event>
 4    1  0.1181383E+000  0.2389752E+03  0.7818608E-02  0.1120477E+00
         21   -1    0    0  503  502  0.00000000000E+00  0.00000000000E+00  0.38844215697E+03  0.38844215697E+03  0.00000000000E+00 0.  1.
         21   -1    0    0  501  503 -0.00000000000E+00 -0.00000000000E+00 -0.14838004750E+03  0.14838004750E+03  0.00000000000E+00 0.  1.
          6    1    1    2  501    0 -0.92258111749E+02  0.13788974981E+03  0.14571933360E+03  0.27989867179E+03  0.17200000000E+03 0.  1.
         -6    1    1    2    0  502  0.92258111749E+02 -0.13788974981E+03  0.94342775859E+02  0.25692353268E+03  0.17200000000E+03 0.  1.
</event>
<event>
 4    1  0.1181383E+000  0.2639586E+03  0.7818608E-02  0.1104788E+00
         21   -1    0    0  501  502  0.00000000000E+00  0.00000000000E+00  0.35555733266E+03  0.35555733266E+03  0.00000000000E+00 0. -1.
         21   -1    0    0  502  503 -0.00000000000E+00 -0.00000000000E+00 -0.19820101930E+03  0.19820101930E+03  0.00000000000E+00 0. -1.
          6    1    1    2  501    0 -0.47061512953E+02 -0.19461587062E+03  0.10813614265E+03  0.28524997536E+03  0.17200000000E+03 0.  1.
         -6    1    1    2    0  503  0.47061512953E+02  0.19461587062E+03  0.49220170710E+02  0.26850837659E+03  0.17200000000E+03 0.  1.
</event>
<event>
 4    1  0.1181383E+000  0.1859615E+03  0.7818608E-02  0.1162155E+00
         21   -1    0    0  501  502  0.00000000000E+00  0.00000000000E+00  0.16246866638E+03  0.16246866638E+03  0.00000000000E+00 0. -1.
         21   -1    0    0  502  503 -0.00000000000E+00 -0.00000000000E+00 -0.33719769229E+03  0.33719769229E+03  0.00000000000E+00 0. -1.
          6    1    1    2  501    0  0.14754972352E+02 -0.69137206085E+02  0.64349068117E+02  0.19678024556E+03  0.17200000000E+03 0. -1.
         -6    1    1    2    0  503 -0.14754972352E+02  0.69137206085E+02 -0.23907809402E+03  0.30288611311E+03  0.17200000000E+03 0. -1.
</event>
<event>
 4    1  0.1181383E+000  0.2128395E+03  0.7818608E-02  0.1139337E+00
         21   -1    0    0  503  502  0.00000000000E+00  0.00000000000E+00  0.11499672595E+03  0.11499672595E+03  0.00000000000E+00 0.  1.
         21   -1    0    0  501  503 -0.00000000000E+00 -0.00000000000E+00 -0.65296774377E+03  0.65296774377E+03  0.00000000000E+00 0.  1.
          6    1    1    2  501    0 -0.11707698379E+03 -0.44828916956E+02 -0.51083593289E+03  0.55340220659E+03  0.17200000000E+03 0.  1.
         -6    1    1    2    0  502  0.11707698379E+03  0.44828916956E+02 -0.27135084930E+02  0.21456226314E+03  0.17200000000E+03 0.  1.
</event>
<event>
 4    1  0.1181383E+000  0.1933636E+03  0.7818608E-02  0.1155462E+00
         21   -1    0    0  503  502  0.00000000000E+00  0.00000000000E+00  0.24679284342E+03  0.24679284342E+03  0.00000000000E+00 0.  1.
         21   -1    0    0  501  503 -0.00000000000E+00 -0.00000000000E+00 -0.16080920007E+03  0.16080920007E+03  0.00000000000E+00 0. -1.
          6    1    1    2  501    0  0.88335935512E+02  0.14955426695E+01 -0.60394568975E+01  0.19345787446E+03  0.17200000000E+03 0.  1.
         -6    1    1    2    0  502 -0.88335935512E+02 -0.14955426695E+01  0.92023100254E+02  0.21414416903E+03  0.17200000000E+03 0.  1.
</event>
<event>
 4    1  0.1181383E+000  0.2052182E+03  0.7818608E-02  0.1145410E+00
         21   -1    0    0  503  502  0.00000000000E+00  0.00000000000E+00  0.40573233845E+03  0.40573233845E+03  0.00000000000E+00 0. -1.
         21   -1    0    0  501  503 -0.00000000000E+00 -0.00000000000E+00 -0.11798652074E+03  0.11798652074E+03  0.00000000000E+00 0. -1.
          6    1    1    2  501    0 -0.10982476489E+03 -0.21657216607E+02  0.53068082237E+02  0.21196871318E+03  0.17200000000E+03 0. -1.
         -6    1    1    2    0  502  0.10982476489E+03  0.21657216607E+02  0.23467773547E+03  0.31175014601E+03  0.17200000000E+03 0. -1.
</event>
<event>
 4    1  0.1181383E+000  0.1816238E+03  0.7818608E-02  0.1166241E+00
         21   -1    0    0  501  502  0.00000000000E+00  0.00000000000E+00  0.13936876350E+03  0.13936876350E+03  0.00000000000E+00 0. -1.
         21   -1    0    0  502  503 -0.00000000000E+00 -0.00000000000E+00 -0.28141350270E+03  0.28141350270E+03  0.00000000000E+00 0. -1.
          6    1    1    2  501    0  0.37599453354E+02 -0.44603583882E+02  0.12850724408E+02  0.18207783969E+03  0.17200000000E+03 0. -1.
         -6    1    1    2    0  503 -0.37599453354E+02  0.44603583882E+02 -0.15489546361E+03  0.23870442651E+03  0.17200000000E+03 0. -1.
</event>
<event>
 4    1  0.1181383E+000  0.1925749E+03  0.7818608E-02  0.1156159E+00
         21   -1    0    0  503  502  0.00000000000E+00  0.00000000000E+00  0.67409493270E+02  0.67409493270E+02  0.00000000000E+00 0.  1.
         21   -1    0    0  501  503 -0.00000000000E+00 -0.00000000000E+00 -0.55046003779E+03  0.55046003779E+03  0.00000000000E+00 0.  1.
          6    1    1    2  501    0 -0.67243552149E+02 -0.54583918730E+02 -0.24889787926E+03  0.31469867141E+03  0.17200000000E+03 0.  1.
         -6    1    1    2    0  502  0.67243552149E+02  0.54583918730E+02 -0.23415266526E+03  0.30317085964E+03  0.17200000000E+03 0.  1.
</event>
<event>
 4    1  0.1181383E+000  0.2519237E+03  0.7818608E-02  0.1112095E+00
         21   -1    0    0  501  502  0.00000000000E+00  0.00000000000E+00  0.42397597080E+02  0.42397597080E+02  0.00000000000E+00 0. -1.
         21   -1    0    0  502  503 -0.00000000000E+00 -0.00000000000E+00 -0.16688826852E+04  0.16688826852E+04  0.00000000000E+00 0.  1.
          6    1    1    2  501    0 -0.84383640675E+02  0.16358780162E+03 -0.53857799828E+03  0.59458542522E+03  0.17200000000E+03 0. -1.
         -6    1    1    2    0  503  0.84383640675E+02 -0.16358780162E+03 -0.10879070898E+04  0.11166948570E+04  0.17200000000E+03 0.  1.
</event>
<event>
 4    1  0.1181383E+000  0.1779984E+03  0.7818608E-02  0.1169754E+00
         21   -1    0    0  503  502  0.00000000000E+00  0.00000000000E+00  0.26489524953E+03  0.26489524953E+03  0.00000000000E+00 0.  1.
         21   -1    0    0  501  503 -0.00000000000E+00 -0.00000000000E+00 -0.12637041319E+03  0.12637041319E+03  0.00000000000E+00 0.  1.
          6    1    1    2  501    0 -0.43320010841E+02 -0.14926649476E+02  0.11451982056E+03  0.21165589410E+03  0.17200000000E+03 0. -1.
         -6    1    1    2    0  502  0.43320010841E+02  0.14926649476E+02  0.24005015773E+02  0.17960976863E+03  0.17200000000E+03 0. -1.
</event>
<event>
 4    1  0.1181383E+000  0.1860002E+03  0.7818608E-02  0.1162119E+00
         21   -1    0    0  503  502  0.00000000000E+00  0.00000000000E+00  0.40303955827E+02  0.40303955827E+02  0.00000000000E+00 0.  1.
         21   -1    0    0  501  503 -0.00000000000E+00 -0.00000000000E+00 -0.88835976129E+03  0.88835976129E+03  0.00000000000E+00 0.  1.
          6    1    1    2  501    0 -0.21951851108E+01 -0.70762045692E+02 -0.33872724513E+03  0.38643528895E+03  0.17200000000E+03 0. -1.
         -6    1    1    2    0  502  0.21951851108E+01  0.70762045692E+02 -0.50932856032E+03  0.54222842817E+03  0.17200000000E+03 0. -1.
</event>
<event>
 4    1  0.1181383E+000  0.2773206E+03  0.7818608E-02  0.1097161E+00
         21   -1    0    0  501  502  0.00000000000E+00  0.00000000000E+00  0.74344023786E+03  0.74344023786E+03  0.00000000000E+00 0. -1.
         21   -1    0    0  502  503 -0.00000000000E+00 -0.00000000000E+00 -0.39598901170E+03  0.39598901170E+03  0.00000000000E+00 0. -1.
          6    1    1    2  501    0  0.13636315360E+03 -0.16949282215E+03  0.66340278515E+03  0.71903406162E+03  0.17200000000E+03 0. -1.
         -6    1    1    2    0  503 -0.13636315360E+03  0.16949282215E+03 -0.31595155900E+03  0.42039518795E+03  0.17200000000E+03 0. -1.
</event>
<event>
 4    1  0.1181383E+000  0.2034301E+03  0.7818608E-02  0.1146877E+00
         21   -1    0    0  501  502  0.00000000000E+00  0.00000000000E+00  0.76831956998E+03  0.76831956998E+03  0.00000000000E+00 0. -1.
         21   -1    0    0  502  503 -0.00000000000E+00 -0.00000000000E+00 -0.85502355659E+02  0.85502355659E+02  0.00000000000E+00 0. -1.
          6    1    1    2  501    0  0.71964829511E+02  0.81368671590E+02  0.60110377304E+03  0.63459399884E+03  0.17200000000E+03 0. -1.
         -6    1    1    2    0  503 -0.71964829511E+02 -0.81368671590E+02  0.81713441285E+02  0.21922792680E+03  0.17200000000E+03 0. -1.
</event>
<event>
 4    1  0.1181383E+000  0.2045559E+03  0.7818608E-02  0.1145951E+00
         21   -1    0    0  503  502  0.00000000000E+00  0.00000000000E+00  0.46414560573E+02  0.46414560573E+02  0.00000000000E+00 0. -1.
         21   -1    0    0  501  503 -0.00000000000E+00 -0.00000000000E+00 -0.92316800185E+03  0.92316800185E+03  0.00000000000E+00 0.  1.
          6    1    1    2  501    0  0.10201053270E+03  0.43046079950E+02 -0.51263419857E+03  0.55193924967E+03  0.17200000000E+03 0.  1.
         -6    1    1    2    0  502 -0.10201053270E+03 -0.43046079950E+02 -0.36411924271E+03  0.41764331276E+03  0.17200000000E+03 0. -1.
</event>
<event>
 4    1  0.1181383E+000  0.4990206E+03  0.7818608E-02  0.1014035E+00
         21   -1    0    0  501  502  0.00000000000E+00  0.00000000000E+00  0.44686759219E+03  0.44686759219E+03  0.00000000000E+00 0.  1.
         21   -1    0    0  502  503 -0.00000000000E+00 -0.00000000000E+00 -0.56247403315E+03  0.56247403315E+03  0.00000000000E+00 0. -1.
          6    1    1    2  501    0  0.35970933243E+01 -0.46842783410E+03 -0.92150264868E+01  0.49910569176E+03  0.17200000000E+03 0.  1.
         -6    1    1    2    0  503 -0.35970933243E+01  0.46842783410E+03 -0.10639141447E+03  0.51023593357E+03  0.17200000000E+03 0. -1.
</event>
<event>
 4    1  0.1181383E+000  0.1778591E+03  0.7818608E-02  0.1169891E+00
         21   -1    0    0  503  502  0.00000000000E+00  0.00000000000E+00  0.39187275860E+02  0.39187275860E+02  0.00000000000E+00 0.  1.
         21   -1    0    0  501  503 -0.00000000000E+00 -0.00000000000E+00 -0.80802440751E+03  0.80802440751E+03  0.00000000000E+00 0.  1.
          6    1    1    2  501    0  0.43824766936E+02 -0.11368371749E+02 -0.37128766579E+03  0.41168966569E+03  0.17200000000E+03 0.  1.
         -6    1    1    2    0  502 -0.43824766936E+02  0.11368371749E+02 -0.39754946586E+03  0.43552201767E+03  0.17200000000E+03 0.  1.
</event>
<event>
 4    1  0.1181383E+000  0.1841821E+03  0.7818608E-02  0.1163816E+00
         21   -1    0    0  503  502  0.00000000000E+00  0.00000000000E+00  0.13647034076E+04  0.13647034076E+04  0.00000000000E+00 0. -1.
         21   -1    0    0  501  503 -0.00000000000E+00 -0.00000000000E+00 -0.11608067556E+03  0.11608067556E+03  0.00000000000E+00 0.  1.
          6    1    1    2  501    0 -0.65788515576E+02  0.33062025114E+01 -0.32037089919E+02  0.18694767954E+03  0.17200000000E+03 0.  1.
         -6    1    1    2    0  502  0.65788515576E+02 -0.33062025114E+01  0.12806598220E+04  0.12938364036E+04  0.17200000000E+03 0. -1.
</event>
<event>
 4    1  0.1181383E+000  0.1920869E+03  0.7818608E-02  0.1156592E+00
         21   -1    0    0  503  502  0.00000000000E+00  0.00000000000E+00  0.18352480095E+03  0.18352480095E+03  0.00000000000E+00 0.  1.
         21   -1    0    0  501  503 -0.00000000000E+00 -0.00000000000E+00 -0.64471742608E+03  0.64471742608E+03  0.00000000000E+00 0.  1.
          6    1    1    2  501    0 -0.43338643772E+02 -0.73723503484E+02 -0.57413223458E+03  0.60541326034E+03  0.17200000000E+03 0.  1.
         -6    1    1    2    0  502  0.43338643772E+02  0.73723503484E+02  0.11293960946E+03  0.22282896669E+03  0.17200000000E+03 0.  1.
</event>
<event>
 4    1  0.1181383E+000  0.2700230E+03  0.7818608E-02  0.1101266E+00
         21   -1    0    0  501  502  0.00000000000E+00  0.00000000000E+00  0.18244135415E+03  0.18244135415E+03  0.00000000000E+00 0.  1.
         21   -1    0    0  502  503 -0.00000000000E+00 -0.00000000000E+00 -0.50570694262E+03  0.50570694262E+03  0.00000000000E+00 0.  1.
          6    1    1    2  501    0 -0.20513817670E+03  0.35309715103E+02 -0.40623254991E+01  0.27005360581E+03  0.17200000000E+03 0.  1.
         -6    1    1    2    0  503  0.20513817670E+03 -0.35309715103E+02 -0.31920326297E+03  0.41809469096E+03  0.17200000000E+03 0.  1.
</event>
<event>
 4    1  0.1181383E+000  0.1827854E+03  0.7818608E-02  0.1165134E+00
         21   -1    0    0  503  502  0.00000000000E+00  0.00000000000E+00  0.69230562348E+02  0.69230562348E+02  0.00000000000E+00 0. -1.
         21   -1    0    0  501  503 -0.00000000000E+00 -0.00000000000E+00 -0.79293100011E+03  0.79293100011E+03  0.00000000000E+00 0. -1.
          6    1    1    2  501    0  0.61848380897E+02  0.11368120785E+01 -0.63153417351E+03  0.65745412530E+03  0.17200000000E+03 0. -1.
         -6    1    1    2    0  502 -0.61848380897E+02 -0.11368120785E+01 -0.92166264248E+02  0.20470743716E+03  0.17200000000E+03 0. -1.
</event>
<event>
 4    1  0.1181383E+000  0.1760976E+03  0.7818608E-02  0.1171634E+00
         21   -1    0    0  501  502  0.00000000000E+00  0.00000000000E+00  0.21816070086E+04  0.21816070086E+04  0.00000000000E+00 0.  1.
         21   -1    0    0  502  503 -0.00000000000E+00 -0.00000000000E+00 -0.16029743477E+02  0.16029743477E+02  0.00000000000E+00 0.  1.
          6    1    1    2  501    0 -0.26026453627E+02  0.27367749287E+02  0.14525611347E+04  0.14631965760E+04  0.17200000000E+03 0.  1.
         -6    1    1    2    0  503  0.26026453627E+02 -0.27367749287E+02  0.71301613046E+03  0.73444017612E+03  0.17200000000E+03 0.  1.
</event>
<event>
 4    1  0.1181383E+000  0.1756682E+03  0.7818608E-02  0.1172062E+00
         21   -1    0    0  501  502  0.00000000000E+00  0.00000000000E+00  0.68104935435E+02  0.68104935435E+02  0.00000000000E+00 0.  1.
         21   -1    0    0  502  503 -0.00000000000E+00 -0.00000000000E+00 -0.46819006418E+03  0.46819006418E+03  0.00000000000E+00 0.  1.
          6    1    1    2  501    0 -0.31700016417E+02  0.16444412376E+02 -0.24816022717E+03  0.30404408905E+03  0.17200000000E+03 0.  1.
         -6    1    1    2    0  503  0.31700016417E+02 -0.16444412376E+02 -0.15192490158E+03  0.23225091057E+03  0.17200000000E+03 0.  1.
</event>
<event>
 4    1  0.1181383E+000  0.1999724E+03  0.7818608E-02  0.1149762E+00
         21   -1    0    0  503  502  0.00000000000E+00  0.00000000000E+00  0.40430193066E+02  0.40430193066E+02  0.00000000000E+00 0. -1.
         21   -1    0    0  501  503 -0.00000000000E+00 -0.00000000000E+00 -0.99210756113E+03  0.99210756113E+03  0.00000000000E+00 0.  1.
          6    1    1    2  501    0  0.13326515519E+02 -0.10113038281E+03 -0.44734883104E+03  0.49001012946E+03  0.17200000000E+03 0.  1.
         -6    1    1    2    0  502 -0.13326515519E+02  0.10113038281E+03 -0.50432853703E+03  0.54252762474E+03  0.17200000000E+03 0. -1.
</event>
<event>
 4    1  0.1181383E+000  0.1934774E+03  0.7818608E-02  0.1155362E+00
         21   -1    0    0  501  502  0.00000000000E+00  0.00000000000E+00  0.13274289043E+03  0.13274289043E+03  0.00000000000E+00 0. -1.
         21   -1    0    0  502  503 -0.00000000000E+00 -0.00000000000E+00 -0.28210245809E+03  0.28210245809E+03  0.00000000000E+00 0. -1.
          6    1    1    2  501    0  0.29375870732E+02 -0.83585609835E+02 -0.78632651885E+02  0.20884585199E+03  0.17200000000E+03 0. -1.
         -6    1    1    2    0  503 -0.29375870732E+02  0.83585609835E+02 -0.70726915773E+02  0.20599949652E+03  0.17200000000E+03 0. -1.
</event>
<event>
 4    1  0.1181383E+000  0.2825582E+03  0.7818608E-02  0.1094300E+00
         21   -1    0    0  501  502  0.00000000000E+00  0.00000000000E+00  0.76828893397E+03  0.76828893397E+03  0.00000000000E+00 0.  1.
         21   -1    0    0  502  503 -0.00000000000E+00 -0.00000000000E+00 -0.22933626055E+03  0.22933626055E+03  0.00000000000E+00 0. -1.
          6    1    1    2  501    0 -0.17437521906E+03 -0.14088444821E+03  0.63835303431E+03  0.69809293163E+03  0.17200000000E+03 0.  1.
         -6    1    1    2    0  503  0.17437521906E+03  0.14088444821E+03 -0.99400360886E+02  0.29953226289E+03  0.17200000000E+03 0. -1.
</event>
<event>
 4    1  0.1181383E+000  0.3557184E+03  0.7818608E-02  0.1060292E+00
         21   -1    0    0  503  502  0.00000000000E+00  0.00000000000E+00  0.33811457521E+03  0.33811457521E+03  0.00000000000E+00 0. -1.
         21   -1    0    0  501  503 -0.00000000000E+00 -0.00000000000E+00 -0.40708599592E+03  0.40708599592E+03  0.00000000000E+00 0. -1.
          6    1    1    2  501    0 -0.10814188282E+03  0.29198787979E+03  0.71354168303E+02  0.36280436339E+03  0.17200000000E+03 0. -1.
         -6    1    1    2    0  502  0.10814188282E+03 -0.29198787979E+03 -0.14032558901E+03  0.38239620774E+03  0.17200000000E+03 0. -1.
</event>
<event>
 4    1  0.1181383E+000  0.2166098E+03  0.7818608E-02  0.1136436E+00
         21   -1    0    0  501  502  0.00000000000E+00  0.00000000000E+00  0.10096734628E+04  0.10096734628E+04  0.00000000000E+00 0.  1.
         21   -1    0    0  502  503 -0.00000000000E+00 -0.00000000000E+00 -0.48700525597E+02  0.48700525597E+02  0.00000000000E+00 0.  1.
          6    1    1    2  501    0  0.10995785199E+03  0.72422971334E+02  0.59373118889E+03  0.63200992132E+03  0.17200000000E+03 0.  1.
         -6    1    1    2    0  503 -0.10995785199E+03 -0.72422971334E+02  0.36724174834E+03  0.42636406710E+03  0.17200000000E+03 0.  1.
</event>
<event>
 4    1  0.1181383E+000  0.2184331E+03  0.7818608E-02  0.1135057E+00
         21   -1    0    0  501  502  0.00000000000E+00  0.00000000000E+00  0.18196440065E+03  0.18196440065E+03  0.00000000000E+00 0.  1.
         21   -1    0    0  502  503 -0.00000000000E+00 -0.00000000000E+00 -0.60922881872E+03  0.60922881872E+03  0.00000000000E+00 0.  1.
          6    1    1    2  501    0  0.13057902439E+03  0.32835264844E+02  0.84932407072E+02  0.23436413975E+03  0.17200000000E+03 0.  1.
         -6    1    1    2    0  503 -0.13057902439E+03 -0.32835264844E+02 -0.51219682514E+03  0.55682907962E+03  0.17200000000E+03 0.  1.
</event>
<event>
 4    1  0.1181383E+000  0.1921353E+03  0.7818608E-02  0.1156549E+00
         21   -1    0    0  503  502  0.00000000000E+00  0.00000000000E+00  0.56245340753E+03  0.56245340753E+03  0.00000000000E+00 0. -1.
         21   -1    0    0  501  503 -0.00000000000E+00 -0.00000000000E+00 -0.65847623913E+02  0.65847623913E+02  0.00000000000E+00 0.  1.
          6    1    1    2  501    0 -0.77249283743E+02  0.36939673560E+02  0.23040387021E+03  0.30000322453E+03  0.17200000000E+03 0.  1.
         -6    1    1    2    0  502  0.77249283743E+02 -0.36939673560E+02  0.26620191341E+03  0.32829780691E+03  0.17200000000E+03 0. -1.
</event>
<event>
 4    1  0.1181383E+000  0.1767388E+03  0.7818608E-02  0.1170997E+00
         21   -1    0    0  501  502  0.00000000000E+00  0.00000000000E+00  0.21446654565E+04  0.21446654565E+04  0.00000000000E+00 0.  1.
         21   -1    0    0  502  503 -0.00000000000E+00 -0.00000000000E+00 -0.28386450858E+02  0.28386450858E+02  0.00000000000E+00 0. -1.
          6    1    1    2  501    0 -0.14607434340E+02  0.37937345155E+02  0.18163059244E+04  0.18248846074E+04  0.17200000000E+03 0.  1.
         -6    1    1    2    0  503  0.14607434340E+02 -0.37937345155E+02  0.29997308126E+03  0.34816729998E+03  0.17200000000E+03 0. -1.
</event>
<event>
 4    1  0.1181383E+000  0.1824752E+03  0.7818608E-02  0.1165429E+00
         21   -1    0    0  503  502  0.00000000000E+00  0.00000000000E+00  0.10785368077E+04  0.10785368077E+04  0.00000000000E+00 0. -1.
         21   -1    0    0  501  503 -0.00000000000E+00 -0.00000000000E+00 -0.33097359328E+02  0.33097359328E+02  0.00000000000E+00 0. -1.
          6    1    1    2  501    0  0.39399138466E+02  0.46485734250E+02  0.37861489563E+03  0.42029329616E+03  0.17200000000E+03 0.  1.
         -6    1    1    2    0  502 -0.39399138466E+02 -0.46485734250E+02  0.66682455275E+03  0.69134087089E+03  0.17200000000E+03 0.  1.
</event>
<event>
 4    1  0.1181383E+000  0.1724488E+03  0.7818608E-02  0.1175318E+00
         21   -1    0    0  501  502  0.00000000000E+00  0.00000000000E+00  0.61471955255E+02  0.61471955255E+02  0.00000000000E+00 0. -1.
         21   -1    0    0  502  503 -0.00000000000E+00 -0.00000000000E+00 -0.69097163632E+03  0.69097163632E+03  0.00000000000E+00 0. -1.
          6    1    1    2  501    0 -0.76462115841E+01 -0.98042899235E+01 -0.10873177588E+03  0.20386561196E+03  0.17200000000E+03 0. -1.
         -6    1    1    2    0  503  0.76462115841E+01  0.98042899235E+01 -0.52076790518E+03  0.54857797961E+03  0.17200000000E+03 0. -1.
</event>
<event>
 4    1  0.1181383E+000  0.2084436E+03  0.7818608E-02  0.1142804E+00
         21   -1    0    0  503  502  0.00000000000E+00  0.00000000000E+00  0.11996047979E+03  0.11996047979E+03  0.00000000000E+00 0. -1.
         21   -1    0    0  501  503 -0.00000000000E+00 -0.00000000000E+00 -0.40325343382E+03  0.40325343382E+03  0.00000000000E+00 0.  1.
          6    1    1    2  501    0  0.70472384529E+02 -0.94331144650E+02 -0.22512552639E+03  0.30680649352E+03  0.17200000000E+03 0.  1.
         -6    1    1    2    0  502 -0.70472384529E+02  0.94331144650E+02 -0.58167427645E+02  0.21640742009E+03  0.17200000000E+03 0. -1.
</event>
<event>
 4    1  0.1181383E+000  0.2035589E+03  0.7818608E-02  0.1146771E+00
         21   -1    0    0  501  502  0.00000000000E+00  0.00000000000E+00  0.56958493990E+02  0.56958493990E+02  0.00000000000E+00 0. -1.
         21   -1    0    0  502  503 -0.00000000000E+00 -0.00000000000E+00 -0.98962248578E+03  0.98962248578E+03  0.00000000000E+00 0. -1.
          6    1    1    2  501    0 -0.77898003272E+02 -0.76053372584E+02 -0.19700737567E+03  0.28328099206E+03  0.17200000000E+03 0. -1.
         -6    1    1    2    0  503  0.77898003272E+02  0.76053372584E+02 -0.73565661612E+03  0.76329998770E+03  0.17200000000E+03 0. -1.
</event>
<event>
 4    1  0.1181383E+000  0.2003660E+03  0.7818608E-02  0.1149431E+00
         21   -1    0    0  503  502  0.00000000000E+00  0.00000000000E+00  0.19104261797E+03  0.19104261797E+03  0.00000000000E+00 0.  1.
         21   -1    0    0  501  503 -0.00000000000E+00 -0.00000000000E+00 -0.23700838691E+03  0.23700838691E+03  0.00000000000E+00 0.  1.
          6    1    1    2  501    0  0.39758691558E+02 -0.94772327362E+02 -0.95038598337E+02  0.22176312309E+03  0.17200000000E+03 0.  1.
         -6    1    1    2    0  502 -0.39758691558E+02  0.94772327362E+02  0.49072829403E+02  0.20628788179E+03  0.17200000000E+03 0.  1.
</event>
<event>
 4    1  0.1181383E+000  0.1962943E+03  0.7818608E-02  0.1152904E+00
         21   -1    0    0  503  502  0.00000000000E+00  0.00000000000E+00  0.29988028123E+02  0.29988028123E+02  0.00000000000E+00 0.  1.
         21   -1    0    0  501  503 -0.00000000000E+00 -0.00000000000E+00 -0.13048220238E+04  0.13048220238E+04  0.00000000000E+00 0.  1.
          6    1    1    2  501    0 -0.31211097257E+02  0.89293390385E+02 -0.55493783886E+03  0.58863184348E+03  0.17200000000E+03 0.  1.
         -6    1    1    2    0  502  0.31211097257E+02 -0.89293390385E+02 -0.71989615686E+03  0.74617820848E+03  0.17200000000E+03 0.  1.
</event>
<event>
 4    1  0.1181383E+000  0.1922860E+03  0.7818608E-02  0.1156416E+00
         21   -1    0    0  501  502  0.00000000000E+00  0.00000000000E+00  0.21454515667E+03  0.21454515667E+03  0.00000000000E+00 0.  1.
         21   -1    0    0  502  503 -0.00000000000E+00 -0.00000000000E+00 -0.27034808178E+03  0.27034808178E+03  0.00000000000E+00 0.  1.
          6    1    1    2  501    0 -0.19516935219E+02  0.83719763740E+02  0.11807865877E+03  0.22564680201E+03  0.17200000000E+03 0.  1.
         -6    1    1    2    0  503  0.19516935219E+02 -0.83719763740E+02 -0.17388158388E+03  0.25924643645E+03  0.17200000000E+03 0.  1.
</event>
<event>
 4    1  0.1181383E+000  0.2073493E+03  0.7818608E-02  0.1143682E+00
         21   -1    0    0  501  502  0.00000000000E+00  0.00000000000E+00  0.15432721157E+03  0.15432721157E+03  0.00000000000E+00 0. -1.
         21   -1    0    0  502  503 -0.00000000000E+00 -0.00000000000E+00 -0.29376026487E+03  0.29376026487E+03  0.00000000000E+00 0.  1.
          6    1    1    2  501    0  0.71422224396E+02  0.91151465533E+02 -0.12063321389E+03  0.23988767392E+03  0.17200000000E+03 0. -1.
         -6    1    1    2    0  503 -0.71422224396E+02 -0.91151465533E+02 -0.18799839413E+02  0.20819980252E+03  0.17200000000E+03 0.  1.
</event>
<event>
 4    1  0.1181383E+000  0.2167545E+03  0.7818608E-02  0.1136326E+00
         21   -1    0    0  503  502  0.00000000000E+00  0.00000000000E+00  0.83445761862E+02  0.83445761862E+02  0.00000000000E+00 0.  1.
         21   -1    0    0  501  503 -0.00000000000E+00 -0.00000000000E+00 -0.59643928564E+03  0.59643928564E+03  0.00000000000E+00 0.  1.
          6    1    1    2  501    0  0.12684279201E+03  0.36185721513E+02 -0.17604169576E+03  0.27923677940E+03  0.17200000000E+03 0.  1.
         -6    1    1    2    0  502 -0.12684279201E+03 -0.36185721513E+02 -0.33695182802E+03  0.40064826810E+03  0.17200000000E+03 0.  1.
</event>
<event>
 4    1  0.1181383E+000  0.2730577E+03  0.7818608E-02  0.1099542E+00
         21   -1    0    0  501  502  0.00000000000E+00  0.00000000000E+00  0.34700007530E+03  0.34700007530E+03  0.00000000000E+00 0. -1.
         21   -1    0    0  502  503 -0.00000000000E+00 -0.00000000000E+00 -0.23403073216E+03  0.23403073216E+03  0.00000000000E+00 0. -1.
          6    1    1    2  501    0 -0.58114746327E+02  0.20395884176E+03  0.13960711488E+03  0.30667683218E+03  0.17200000000E+03 0. -1.
         -6    1    1    2    0  503  0.58114746327E+02 -0.20395884176E+03 -0.26637771743E+02  0.27435397528E+03  0.17200000000E+03 0. -1.
</event>
<event>
 4    1  0.1181383E+000  0.1732152E+03  0.7818608E-02  0.1174536E+00
         21   -1    0    0  503  502  0.00000000000E+00  0.00000000000E+00  0.18458650421E+03  0.18458650421E+03  0.00000000000E+00 0. -1.
         21   -1    0    0  501  503 -0.00000000000E+00 -0.00000000000E+00 -0.25969691076E+03  0.25969691076E+03  0.00000000000E+00 0. -1.
          6    1    1    2  501    0  0.66679656408E+01 -0.19366482181E+02 -0.17342517604E+03  0.24511183994E+03  0.17200000000E+03 0. -1.
         -6    1    1    2    0  502 -0.66679656408E+01  0.19366482181E+02  0.98314769488E+02  0.19917157502E+03  0.17200000000E+03 0. -1.
</event>
<event>
 4    1  0.1181383E+000  0.1885817E+03  0.7818608E-02  0.1159747E+00
         21   -1    0    0  501  502  0.00000000000E+00  0.00000000000E+00  0.79200681050E+02  0.79200681050E+02  0.00000000000E+00 0.  1.
         21   -1    0    0  502  503 -0.00000000000E+00 -0.00000000000E+00 -0.45679901037E+03  0.45679901037E+03  0.00000000000E+00 0. -1.
          6    1    1    2  501    0 -0.60067840627E+02 -0.48692166135E+02 -0.15383692777E+03  0.24336982736E+03  0.17200000000E+03 0.  1.
         -6    1    1    2    0  503  0.60067840627E+02  0.48692166135E+02 -0.22376140155E+03  0.29262986406E+03  0.17200000000E+03 0. -1.
</event>
<event>
 4    1  0.1181383E+000  0.2513933E+03  0.7818608E-02  0.1112427E+00
         21   -1    0    0  501  502  0.00000000000E+00  0.00000000000E+00  0.48706411917E+02  0.48706411917E+02  0.00000000000E+00 0. -1.
         21   -1    0    0  502  503 -0.00000000000E+00 -0.00000000000E+00 -0.13822082868E+04  0.13822082868E+04  0.00000000000E+00 0.  1.
          6    1    1    2  501    0  0.18276789785E+03  0.14508740978E+02 -0.48967782026E+03  0.55043889371E+03  0.17200000000E+03 0. -1.
         -6    1    1    2    0  503 -0.18276789785E+03 -0.14508740978E+02 -0.84382405463E+03  0.88047580502E+03  0.17200000000E+03 0.  1.
</event>
<event>
 4    1  0.1181383E+000  0.1834569E+03  0.7818608E-02  0.1164499E+00
         21   -1    0    0  503  502  0.00000000000E+00  0.00000000000E+00  0.10589870730E+04  0.10589870730E+04  0.00000000000E+00 0. -1.
         21   -1    0    0  501  503 -0.00000000000E+00 -0.00000000000E+00 -0.32746629419E+02  0.32746629419E+02  0.00000000000E+00 0. -1.
          6    1    1    2  501    0 -0.16813766401E+02 -0.61560931188E+02  0.60682082067E+03  0.63394633794E+03  0.17200000000E+03 0.  1.
         -6    1    1    2    0  502  0.16813766401E+02  0.61560931188E+02  0.41941962286E+03  0.45778736443E+03  0.17200000000E+03 0.  1.
</event>
<event>
 4    1  0.1181383E+000  0.1928972E+03  0.7818608E-02  0.1155874E+00
         21   -1    0    0  503  502  0.00000000000E+00  0.00000000000E+00  0.36325247243E+03  0.36325247243E+03  0.00000000000E+00 0. -1.
         21   -1    0    0  501  503 -0.00000000000E+00 -0.00000000000E+00 -0.10281050491E+03  0.10281050491E+03  0.00000000000E+00 0. -1.
          6    1    1    2  501    0  0.86959612518E+02  0.79585714130E+01  0.14432767412E+03  0.24091448812E+03  0.17200000000E+03 0. -1.
         -6    1    1    2    0  502 -0.86959612518E+02 -0.79585714130E+01  0.11611429339E+03  0.22514848922E+03  0.17200000000E+03 0. -1.
</event>
<event>
 4    1  0.1181383E+000  0.1961046E+03  0.7818608E-02  0.1153068E+00
         21   -1    0    0  503  502  0.00000000000E+00  0.00000000000E+00  0.11832788844E+03  0.11832788844E+03  0.00000000000E+00 0.  1.
         21   -1    0    0  501  503 -0.00000000000E+00 -0.00000000000E+00 -0.32751727249E+03  0.32751727249E+03  0.00000000000E+00 0.  1.
          6    1    1    2  501    0  0.88031874967E+02 -0.33517368911E+02 -0.85066343125E+02  0.21375993021E+03  0.17200000000E+03 0.  1.
         -6    1    1    2    0  502 -0.88031874967E+02  0.33517368911E+02 -0.12412304093E+03  0.23208523072E+03  0.17200000000E+03 0.  1.
</event>
<event>
 4    1  0.1181383E+000  0.1913859E+03  0.7818608E-02  0.1157217E+00
         21   -1    0    0  501  502  0.00000000000E+00  0.00000000000E+00  0.12112801835E+04  0.12112801835E+04  0.00000000000E+00 0. -1.
         21   -1    0    0  502  503 -0.00000000000E+00 -0.00000000000E+00 -0.40236967243E+02  0.40236967243E+02  0.00000000000E+00 0. -1.
          6    1    1    2  501    0  0.64499958087E+02 -0.53705859998E+02  0.89743797606E+03  0.91761837648E+03  0.17200000000E+03 0. -1.
         -6    1    1    2    0  503 -0.64499958087E+02  0.53705859998E+02  0.27360524024E+03  0.33389877430E+03  0.17200000000E+03 0. -1.
</event>
<event>
 4    1  0.1181383E+000  0.1912050E+03  0.7818608E-02  0.1157379E+00
         21   -1    0    0  501  502  0.00000000000E+00  0.00000000000E+00  0.97252645630E+02  0.97252645630E+02  0.00000000000E+00 0. -1.
         21   -1    0    0  502  503 -0.00000000000E+00 -0.00000000000E+00 -0.41083366392E+03  0.41083366392E+03  0.00000000000E+00 0. -1.
          6    1    1    2  501    0 -0.81187059847E+02  0.19596528713E+02 -0.82734086502E+02  0.20833696670E+03  0.17200000000E+03 0. -1.
         -6    1    1    2    0  503  0.81187059847E+02 -0.19596528713E+02 -0.23084693179E+03  0.29974934285E+03  0.17200000000E+03 0. -1.
</event>
<event>
 4    1  0.1181383E+000  0.2202091E+03  0.7818608E-02  0.1133727E+00
         21   -1    0    0  503  502  0.00000000000E+00  0.00000000000E+00  0.40365969262E+03  0.40365969262E+03  0.00000000000E+00 0. -1.
         21   -1    0    0  501  503 -0.00000000000E+00 -0.00000000000E+00 -0.28152492438E+03  0.28152492438E+03  0.00000000000E+00 0. -1.
          6    1    1    2  501    0  0.41408869793E+02  0.13112336543E+03 -0.19832833888E+03  0.29635478984E+03  0.17200000000E+03 0. -1.
         -6    1    1    2    0  502 -0.41408869793E+02 -0.13112336543E+03  0.32046310713E+03  0.38882982716E+03  0.17200000000E+03 0. -1.
</event>
<event>
 4    1  0.1181383E+000  0.1903885E+03  0.7818608E-02  0.1158111E+00
         21   -1    0    0  501  502  0.00000000000E+00  0.00000000000E+00  0.41786979694E+03  0.41786979694E+03  0.00000000000E+00 0.  1.
         21   -1    0    0  502  503 -0.00000000000E+00 -0.00000000000E+00 -0.91708533102E+02  0.91708533102E+02  0.00000000000E+00 0.  1.
          6    1    1    2  501    0 -0.57884469493E+02 -0.57560035816E+02  0.22236057323E+03  0.29273194916E+03  0.17200000000E+03 0.  1.
         -6    1    1    2    0  503  0.57884469493E+02  0.57560035816E+02  0.10380069061E+03  0.21684638089E+03  0.17200000000E+03 0.  1.
</event>
<event>
 4    1  0.1181383E+000  0.2077037E+03  0.7818608E-02  0.1143397E+00
         21   -1    0    0  503  502  0.00000000000E+00  0.00000000000E+00  0.76376136823E+03  0.76376136823E+03  0.00000000000E+00 0.  1.
         21   -1    0    0  501  503 -0.00000000000E+00 -0.00000000000E+00 -0.57503656299E+02  0.57503656299E+02  0.00000000000E+00 0. -1.
          6    1    1    2  501    0 -0.69175080172E+02  0.93657019236E+02  0.40779068496E+03  0.45763967454E+03  0.17200000000E+03 0. -1.
         -6    1    1    2    0  502  0.69175080172E+02 -0.93657019236E+02  0.29846702697E+03  0.36362534999E+03  0.17200000000E+03 0. -1.
</event>
<event>
 4    1  0.1181383E+000  0.1782390E+03  0.7818608E-02  0.1169518E+00
         21   -1    0    0  501  502  0.00000000000E+00  0.00000000000E+00  0.13707060255E+04  0.13707060255E+04  0.00000000000E+00 0.  1.
         21   -1    0    0  502  503 -0.00000000000E+00 -0.00000000000E+00 -0.74907015977E+02  0.74907015977E+02  0.00000000000E+00 0.  1.
          6    1    1    2  501    0 -0.42826353633E+02 -0.18736543975E+02  0.12485629430E+04  0.12612210660E+04  0.17200000000E+03 0.  1.
         -6    1    1    2    0  503  0.42826353633E+02  0.18736543975E+02  0.47236066521E+02  0.18439197549E+03  0.17200000000E+03 0.  1.
</event>
<event>
 4    1  0.1181383E+000  0.3188016E+03  0.7818608E-02  0.1076202E+00
         21   -1    0    0  501  502  0.00000000000E+00  0.00000000000E+00  0.91886347230E+03  0.91886347230E+03  0.00000000000E+00 0.  1.
         21   -1    0    0  502  503 -0.00000000000E+00 -0.00000000000E+00 -0.26111811926E+03  0.26111811926E+03  0.00000000000E+00 0. -1.
          6    1    1    2  501    0 -0.20518041218E+03  0.17306489034E+03  0.77680078368E+03  0.83967488669E+03  0.17200000000E+03 0.  1.
         -6    1    1    2    0  503  0.20518041218E+03 -0.17306489034E+03 -0.11905543064E+03  0.34030670487E+03  0.17200000000E+03 0. -1.
</event>
<event>
 4    1  0.1181383E+000  0.3182972E+03  0.7818608E-02  0.1076436E+00
         21   -1    0    0  503  502  0.00000000000E+00  0.00000000000E+00  0.39835892165E+03  0.39835892165E+03  0.00000000000E+00 0.  1.
         21   -1    0    0  501  503 -0.00000000000E+00 -0.00000000000E+00 -0.28938611303E+03  0.28938611303E+03  0.00000000000E+00 0. -1.
          6    1    1    2  501    0 -0.26767532982E+03 -0.88912639858E+01 -0.65205186140E+02  0.32490745308E+03  0.17200000000E+03 0. -1.
         -6    1    1    2    0  502  0.26767532982E+03  0.88912639858E+01  0.17417799476E+03  0.36283758161E+03  0.17200000000E+03 0.  1.
</event>
<event>
 4    1  0.1181383E+000  0.2313444E+03  0.7818608E-02  0.1125697E+00
         21   -1    0    0  503  502  0.00000000000E+00  0.00000000000E+00  0.32252156176E+03  0.32252156176E+03  0.00000000000E+00 0.  1.
         21   -1    0    0  501  503 -0.00000000000E+00 -0.00000000000E+00 -0.19496475838E+03  0.19496475838E+03  0.00000000000E+00 0. -1.
          6    1    1    2  501    0 -0.15116374884E+03  0.32950879685E+02 -0.36049435572E+02  0.23413628775E+03  0.17200000000E+03 0. -1.
         -6    1    1    2    0  502  0.15116374884E+03 -0.32950879685E+02  0.16360623895E+03  0.28335003240E+03  0.17200000000E+03 0. -1.
</event>
<event>
 4    1  0.1181383E+000  0.1851990E+03  0.7818608E-02  0.1162864E+00
         21   -1    0    0  503  502  0.00000000000E+00  0.00000000000E+00  0.11725792387E+03  0.11725792387E+03  0.00000000000E+00 0.  1.
         21   -1    0    0  501  503 -0.00000000000E+00 -0.00000000000E+00 -0.31647665451E+03  0.31647665451E+03  0.00000000000E+00 0.  1.
          6    1    1    2  501    0 -0.67320247801E+02 -0.13514672723E+02 -0.15929391645E+03  0.24428101433E+03  0.17200000000E+03 0. -1.
         -6    1    1    2    0  502  0.67320247801E+02  0.13514672723E+02 -0.39924814195E+02  0.18945356405E+03  0.17200000000E+03 0. -1.
</event>
<event>
 4    1  0.1181383E+000  0.1741004E+03  0.7818608E-02  0.1173638E+00
         21   -1    0    0  501  502  0.00000000000E+00  0.00000000000E+00  0.13355960137E+03  0.13355960137E+03  0.00000000000E+00 0.  1.
         21   -1    0    0  502  503 -0.00000000000E+00 -0.00000000000E+00 -0.57818832728E+03  0.57818832728E+03  0.00000000000E+00 0.  1.
          6    1    1    2  501    0  0.17660589555E+02  0.20372708053E+02  0.55058771649E+02  0.18259904707E+03  0.17200000000E+03 0.  1.
         -6    1    1    2    0  503 -0.17660589555E+02 -0.20372708053E+02 -0.49968749756E+03  0.52914888158E+03  0.17200000000E+03 0.  1.
</event>
<event>
 4    1  0.1181383E+000  0.2212571E+03  0.7818608E-02  0.1132949E+00
         21   -1    0    0  503  502  0.00000000000E+00  0.00000000000E+00  0.45713203932E+03  0.45713203932E+03  0.00000000000E+00 0.  1.
         21   -1    0    0  501  503 -0.00000000000E+00 -0.00000000000E+00 -0.16938062033E+03  0.16938062033E+03  0.00000000000E+00 0. -1.
          6    1    1    2  501    0 -0.12308627916E+03  0.64964995647E+02 -0.46090421078E+02  0.22600665851E+03  0.17200000000E+03 0. -1.
         -6    1    1    2    0  502  0.12308627916E+03 -0.64964995647E+02  0.33384184007E+03  0.40050600115E+03  0.17200000000E+03 0. -1.
</event>
<event>
 4    1  0.1181383E+000  0.1989685E+03  0.7818608E-02  0.1150612E+00
         21   -1    0    0  503  502  0.00000000000E+00  0.00000000000E+00  0.38439645354E+02  0.38439645354E+02  0.00000000000E+00 0. -1.
         21   -1    0    0  501  503 -0.00000000000E+00 -0.00000000000E+00 -0.13388161053E+04  0.13388161053E+04  0.00000000000E+00 0.  1.
          6    1    1    2  501    0  0.45055641276E+02 -0.89299687507E+02 -0.98097976689E+03  0.10009544186E+04  0.17200000000E+03 0.  1.
         -6    1    1    2    0  502 -0.45055641276E+02  0.89299687507E+02 -0.31939669309E+03  0.37630133212E+03  0.17200000000E+03 0. -1.
</event>
<event>
 4    1  0.1181383E+000  0.1966143E+03  0.7818608E-02  0.1152627E+00
         21   -1    0    0  501  502  0.00000000000E+00  0.00000000000E+00  0.19828402359E+03  0.19828402359E+03  0.00000000000E+00 0.  1.
         21   -1    0    0  502  503 -0.00000000000E+00 -0.00000000000E+00 -0.20065561368E+03  0.20065561368E+03  0.00000000000E+00 0.  1.
          6    1    1    2  501    0 -0.84531265901E+02 -0.43905133456E+02  0.32424422155E+02  0.19927001483E+03  0.17200000000E+03 0. -1.
         -6    1    1    2    0  503  0.84531265901E+02  0.43905133456E+02 -0.34796012248E+02  0.19966962244E+03  0.17200000000E+03 0. -1.
</event>
<event>
 4    1  0.1181383E+000  0.1789126E+03  0.7818608E-02  0.1168860E+00
         21   -1    0    0  503  502  0.00000000000E+00  0.00000000000E+00  0.21051094678E+03  0.21051094678E+03  0.00000000000E+00 0. -1.
         21   -1    0    0  501  503 -0.00000000000E+00 -0.00000000000E+00 -0.15389663759E+03  0.15389663759E+03  0.00000000000E+00 0. -1.
          6    1    1    2  501    0  0.23616545895E+02 -0.43219907642E+02  0.83872466732E+01  0.17910903820E+03  0.17200000000E+03 0. -1.
         -6    1    1    2    0  502 -0.23616545895E+02  0.43219907642E+02  0.48227062521E+02  0.18529854618E+03  0.17200000000E+03 0. -1.
</event>
<event>
 4    1  0.1181383E+000  0.1794923E+03  0.7818608E-02  0.1168295E+00
         21   -1    0    0  503  502  0.00000000000E+00  0.00000000000E+00  0.35043271546E+02  0.35043271546E+02  0.00000000000E+00 0.  1.
         21   -1    0    0  501  503 -0.00000000000E+00 -0.00000000000E+00 -0.92968855584E+03  0.92968855584E+03  0.00000000000E+00 0.  1.
          6    1    1    2  501    0 -0.36490744091E+02  0.36081848284E+02 -0.39648651740E+03  0.43522296890E+03  0.17200000000E+03 0.  1.
         -6    1    1    2    0  502  0.36490744091E+02 -0.36081848284E+02 -0.49815876690E+03  0.52950885849E+03  0.17200000000E+03 0.  1.
</event>
<event>
 4    1  0.1181383E+000  0.1831640E+03  0.7818608E-02  0.1164776E+00
         21   -1    0    0  503  502  0.00000000000E+00  0.00000000000E+00  0.37067827648E+02  0.37067827648E+02  0.00000000000E+00 0.  1.
         21   -1    0    0  501  503 -0.00000000000E+00 -0.00000000000E+00 -0.97787865170E+03  0.97787865170E+03  0.00000000000E+00 0.  1.
          6    1    1    2  501    0  0.33569244257E+02  0.53274348982E+02 -0.60887563534E+03  0.63582905701E+03  0.17200000000E+03 0.  1.
         -6    1    1    2    0  502 -0.33569244257E+02 -0.53274348982E+02 -0.33193518871E+03  0.37911742234E+03  0.17200000000E+03 0.  1.
</event>
<event>
 4    1  0.1181383E+000  0.1758694E+03  0.7818608E-02  0.1171862E+00
         21   -1    0    0  503  502  0.00000000000E+00  0.00000000000E+00  0.43421349425E+03  0.43421349425E+03  0.00000000000E+00 0. -1.
         21   -1    0    0  501  503 -0.00000000000E+00 -0.00000000000E+00 -0.13465019301E+03  0.13465019301E+03  0.00000000000E+00 0. -1.
          6    1    1    2  501    0 -0.24755452936E+02  0.27077943882E+02 -0.45418640161E+02  0.18163947910E+03  0.17200000000E+03 0. -1.
         -6    1    1    2    0  502  0.24755452936E+02 -0.27077943882E+02  0.34498194140E+03  0.38722420816E+03  0.17200000000E+03 0. -1.
</event>
<event>
 4    1  0.1181383E+000  0.2166435E+03  0.7818608E-02  0.1136410E+00
         21   -1    0    0  503  502  0.00000000000E+00  0.00000000000E+00  0.22007422601E+03  0.22007422601E+03  0.00000000000E+00 0.  1.
         21   -1    0    0  501  503 -0.00000000000E+00 -0.00000000000E+00 -0.27074142582E+03  0.27074142582E+03  0.00000000000E+00 0.  1.
          6    1    1    2  501    0  0.13162675053E+03  0.49813553343E+01 -0.13840454624E+03  0.25708020883E+03  0.17200000000E+03 0.  1.
         -6    1    1    2    0  502 -0.13162675053E+03 -0.49813553343E+01  0.87737346424E+02  0.23373544300E+03  0.17200000000E+03 0.  1.
</event>
<event>
 4    1  0.1181383E+000  0.2502002E+03  0.7818608E-02  0.1113178E+00
         21   -1    0    0  503  502  0.00000000000E+00  0.00000000000E+00  0.74502500869E+03  0.74502500869E+03  0.00000000000E+00 0. -1.
         21   -1    0    0  501  503 -0.00000000000E+00 -0.00000000000E+00 -0.88726123796E+02  0.88726123796E+02  0.00000000000E+00 0.  1.
          6    1    1    2  501    0 -0.17841620989E+03  0.34406019593E+02  0.23218303524E+03  0.34133426431E+03  0.17200000000E+03 0.  1.
         -6    1    1    2    0  502  0.17841620989E+03 -0.34406019593E+02  0.42411584966E+03  0.49241686818E+03  0.17200000000E+03 0. -1.
</event>
<event>
 4    1  0.1181383E+000  0.1976483E+03  0.7818608E-02  0.1151738E+00
         21   -1    0    0  503  502  0.00000000000E+00  0.00000000000E+00  0.10999179898E+03  0.10999179898E+03  0.00000000000E+00 0.  1.
         21   -1    0    0  501  503 -0.00000000000E+00 -0.00000000000E+00 -0.36141198212E+03  0.36141198212E+03  0.00000000000E+00 0.  1.
          6    1    1    2  501    0  0.79694393423E+02 -0.55943421573E+02 -0.15670677667E+03  0.25223377374E+03  0.17200000000E+03 0. -1.
         -6    1    1    2    0  502 -0.79694393423E+02  0.55943421573E+02 -0.94713406473E+02  0.21917000736E+03  0.17200000000E+03 0. -1.
</event>
<event>
 4    1  0.1181383E+000  0.1750285E+03  0.7818608E-02  0.1172703E+00
         21   -1    0    0  503  502  0.00000000000E+00  0.00000000000E+00  0.76817147750E+03  0.76817147750E+03  0.00000000000E+00 0. -1.
         21   -1    0    0  501  503 -0.00000000000E+00 -0.00000000000E+00 -0.40766784158E+02  0.40766784158E+02  0.00000000000E+00 0. -1.
          6    1    1    2  501    0  0.25372843180E+02  0.20178862335E+02  0.42334389796E+03  0.45809935996E+03  0.17200000000E+03 0. -1.
         -6    1    1    2    0  502 -0.25372843180E+02 -0.20178862335E+02  0.30406079538E+03  0.35083890170E+03  0.17200000000E+03 0. -1.
</event>
<event>
 4    1  0.1181383E+000  0.2577895E+03  0.7818608E-02  0.1108479E+00
         21   -1    0    0  501  502  0.00000000000E+00  0.00000000000E+00  0.10091177969E+03  0.10091177969E+03  0.00000000000E+00 0.  1.
         21   -1    0    0  502  503 -0.00000000000E+00 -0.00000000000E+00 -0.74504795610E+03  0.74504795610E+03  0.00000000000E+00 0. -1.
          6    1    1    2  501    0  0.18663015615E+03 -0.45173303027E+02 -0.17794593048E+03  0.31324143510E+03  0.17200000000E+03 0.  1.
         -6    1    1    2    0  503 -0.18663015615E+03  0.45173303027E+02 -0.46619024593E+03  0.53271830069E+03  0.17200000000E+03 0. -1.
</event>
<event>
 4    1  0.1181383E+000  0.1786087E+03  0.7818608E-02  0.1169156E+00
         21   -1    0    0  503  502  0.00000000000E+00  0.00000000000E+00  0.11386074237E+03  0.11386074237E+03  0.00000000000E+00 0. -1.
         21   -1    0    0  501  503 -0.00000000000E+00 -0.00000000000E+00 -0.29397630925E+03  0.29397630925E+03  0.00000000000E+00 0. -1.
          6    1    1    2  501    0  0.33190544513E+02  0.34863376529E+02 -0.13423945811E+03  0.22343074851E+03  0.17200000000E+03 0.  1.
         -6    1    1    2    0  502 -0.33190544513E+02 -0.34863376529E+02 -0.45876108769E+02  0.18440630310E+03  0.17200000000E+03 0.  1.
</event>
<event>
 4    1  0.1181383E+000  0.1800029E+03  0.7818608E-02  0.1167800E+00
         21   -1    0    0  503  502  0.00000000000E+00  0.00000000000E+00  0.32391062229E+03  0.32391062229E+03  0.00000000000E+00 0.  1.
         21   -1    0    0  501  503 -0.00000000000E+00 -0.00000000000E+00 -0.20889989741E+03  0.20889989741E+03  0.00000000000E+00 0.  1.
          6    1    1    2  501    0 -0.46068960002E+02 -0.26357288586E+02 -0.13481527420E+03  0.22489156030E+03  0.17200000000E+03 0.  1.
         -6    1    1    2    0  502  0.46068960002E+02  0.26357288586E+02  0.24982599908E+03  0.30791895940E+03  0.17200000000E+03 0.  1.
</event>
<event>
 4    1  0.1181383E+000  0.2329778E+03  0.7818608E-02  0.1124561E+00
         21   -1    0    0  501  502  0.00000000000E+00  0.00000000000E+00  0.52792530012E+03  0.52792530012E+03  0.00000000000E+00 0. -1.
         21   -1    0    0  502  503 -0.00000000000E+00 -0.00000000000E+00 -0.11605351636E+03  0.11605351636E+03  0.00000000000E+00 0.  1.
          6    1    1    2  501    0 -0.87369489818E+02 -0.13061863525E+03  0.97185307728E+02  0.25243541682E+03  0.17200000000E+03 0. -1.
         -6    1    1    2    0  503  0.87369489818E+02  0.13061863525E+03  0.31468647603E+03  0.39154339967E+03  0.17200000000E+03 0. -1.
</event>
<event>
 4    1  0.1181383E+000  0.1932741E+03  0.7818608E-02  0.1155541E+00
         21   -1    0    0  501  502  0.00000000000E+00  0.00000000000E+00  0.40787964101E+03  0.40787964101E+03  0.00000000000E+00 0. -1.
         21   -1    0    0  502  503 -0.00000000000E+00 -0.00000000000E+00 -0.21564257019E+03  0.21564257019E+03  0.00000000000E+00 0. -1.
          6    1    1    2  501    0 -0.87480712616E+02  0.10863540191E+02 -0.14034795350E+03  0.23885652521E+03  0.17200000000E+03 0. -1.
         -6    1    1    2    0  503  0.87480712616E+02 -0.10863540191E+02  0.33258502431E+03  0.38466568600E+03  0.17200000000E+03 0. -1.
</event>
<event>
 4    1  0.1181383E+000  0.1939904E+03  0.7818608E-02  0.1154911E+00
         21   -1    0    0  503  502  0.00000000000E+00  0.00000000000E+00  0.16542586634E+03  0.16542586634E+03  0.00000000000E+00 0.  1.
         21   -1    0    0  501  503 -0.00000000000E+00 -0.00000000000E+00 -0.23702899717E+03  0.23702899717E+03  0.00000000000E+00 0.  1.
          6    1    1    2  501    0 -0.73249517162E+02  0.51795489308E+02 -0.76175576847E+02  0.20841061150E+03  0.17200000000E+03 0. -1.
         -6    1    1    2    0  502  0.73249517162E+02 -0.51795489308E+02  0.45724460237E+01  0.19404425201E+03  0.17200000000E+03 0. -1.
</event>
<event>
 4    1  0.1181383E+000  0.1739155E+03  0.7818608E-02  0.1173825E+00
         21   -1    0    0  501  502  0.00000000000E+00  0.00000000000E+00  0.15127969797E+02  0.15127969797E+02  0.00000000000E+00 0.  1.
         21   -1    0    0  502  503 -0.00000000000E+00 -0.00000000000E+00 -0.25452288557E+04  0.25452288557E+04  0.00000000000E+00 0.  1.
          6    1    1    2  501    0  0.46215753184E+01 -0.25322482240E+02 -0.67220350998E+03  0.69433719898E+03  0.17200000000E+03 0.  1.
         -6    1    1    2    0  503 -0.46215753184E+01  0.25322482240E+02 -0.18578973759E+04  0.18660196265E+04  0.17200000000E+03 0.  1.
</event>
<event>
 4    1  0.1181383E+000  0.1758546E+03  0.7818608E-02  0.1171876E+00
         21   -1    0    0  501  502  0.00000000000E+00  0.00000000000E+00  0.17490741833E+03  0.17490741833E+03  0.00000000000E+00 0. -1.
         21   -1    0    0  502  503 -0.00000000000E+00 -0.00000000000E+00 -0.37113549076E+03  0.37113549076E+03  0.00000000000E+00 0. -1.
          6    1    1    2  501    0 -0.30574688801E+02 -0.20149798995E+02  0.99445938849E+02  0.20202554479E+03  0.17200000000E+03 0. -1.
         -6    1    1    2    0  503  0.30574688801E+02  0.20149798995E+02 -0.29567401128E+03  0.34401736430E+03  0.17200000000E+03 0. -1.
</event>
<event>
 4    1  0.1181383E+000  0.2164804E+03  0.7818608E-02  0.1136535E+00
         21   -1    0    0  501  502  0.00000000000E+00  0.00000000000E+00  0.76469154233E+02  0.76469154233E+02  0.00000000000E+00 0.  1.
         21   -1    0    0  502  503 -0.00000000000E+00 -0.00000000000E+00 -0.93640723477E+03  0.93640723477E+03  0.00000000000E+00 0.  1.
          6    1    1    2  501    0  0.39400678199E+02 -0.12540865663E+03 -0.13227308496E+03  0.25369255725E+03  0.17200000000E+03 0. -1.
         -6    1    1    2    0  503 -0.39400678199E+02  0.12540865663E+03 -0.72766499557E+03  0.75918383175E+03  0.17200000000E+03 0. -1.
</event>
<event>
 4    1  0.1181383E+000  0.1796753E+03  0.7818608E-02  0.1168118E+00
         21   -1    0    0  501  502  0.00000000000E+00  0.00000000000E+00  0.19916740796E+02  0.19916740796E+02  0.00000000000E+00 0. -1.
         21   -1    0    0  502  503 -0.00000000000E+00 -0.00000000000E+00 -0.20694127467E+04  0.20694127467E+04  0.00000000000E+00 0.  1.
          6    1    1    2  501    0  0.23699861100E+02  0.46233473260E+02 -0.53841181703E+03  0.56760065379E+03  0.17200000000E+03 0. -1.
         -6    1    1    2    0  503 -0.23699861100E+02 -0.46233473260E+02 -0.15110841889E+04  0.15217288337E+04  0.17200000000E+03 0.  1.
</event>
<event>
 4    1  0.1181383E+000  0.2059592E+03  0.7818608E-02  0.1144806E+00
         21   -1    0    0  501  502  0.00000000000E+00  0.00000000000E+00  0.41400849081E+03  0.41400849081E+03  0.00000000000E+00 0.  1.
         21   -1    0    0  502  503 -0.00000000000E+00 -0.00000000000E+00 -0.10432639457E+03  0.10432639457E+03  0.00000000000E+00 0. -1.
          6    1    1    2  501    0  0.10257662093E+03 -0.48096199358E+02  0.18950785606E+03  0.27987932232E+03  0.17200000000E+03 0.  1.
         -6    1    1    2    0  503 -0.10257662093E+03  0.48096199358E+02  0.12017424018E+03  0.23845556306E+03  0.17200000000E+03 0.  1.
</event>
<event>
 4    1  0.1181383E+000  0.1973228E+03  0.7818608E-02  0.1152018E+00
         21   -1    0    0  501  502  0.00000000000E+00  0.00000000000E+00  0.64637988870E+03  0.64637988870E+03  0.00000000000E+00 0.  1.
         21   -1    0    0  502  503 -0.00000000000E+00 -0.00000000000E+00 -0.67361261713E+02  0.67361261713E+02  0.00000000000E+00 0. -1.
          6    1    1    2  501    0  0.92373908619E+02 -0.28624291867E+02  0.40556361562E+03  0.45101899671E+03  0.17200000000E+03 0.  1.
         -6    1    1    2    0  503 -0.92373908619E+02  0.28624291867E+02  0.17345501137E+03  0.26272215370E+03  0.17200000000E+03 0. -1.
</event>
<event>
 4    1  0.1181383E+000  0.1862934E+03  0.7818608E-02  0.1161848E+00
         21   -1    0    0  503  502  0.00000000000E+00  0.00000000000E+00  0.36227323253E+03  0.36227323253E+03  0.00000000000E+00 0.  1.
         21   -1    0    0  501  503 -0.00000000000E+00 -0.00000000000E+00 -0.18593755309E+03  0.18593755309E+03  0.00000000000E+00 0.  1.
          6    1    1    2  501    0  0.55525889204E+02  0.45145398517E+02 -0.10268144033E+03  0.21271744068E+03  0.17200000000E+03 0.  1.
         -6    1    1    2    0  502 -0.55525889204E+02 -0.45145398517E+02  0.27901711977E+03  0.33549334494E+03  0.17200000000E+03 0.  1.
</event>
<event>
 4    1  0.1181383E+000  0.4184940E+03  0.7818608E-02  0.1037558E+00
         21   -1    0    0  503  502  0.00000000000E+00  0.00000000000E+00  0.25290844498E+03  0.25290844498E+03  0.00000000000E+00 0.  1.
         21   -1    0    0  501  503 -0.00000000000E+00 -0.00000000000E+00 -0.73070888739E+03  0.73070888739E+03  0.00000000000E+00 0.  1.
          6    1    1    2  501    0  0.21991320206E+03 -0.31175537020E+03 -0.35137320447E+03  0.54644336954E+03  0.17200000000E+03 0.  1.
         -6    1    1    2    0  502 -0.21991320206E+03  0.31175537020E+03 -0.12642723794E+03  0.43717396284E+03  0.17200000000E+03 0.  1.
</event>
<event>
 4    1  0.1181383E+000  0.1780877E+03  0.7818608E-02  0.1169667E+00
         21   -1    0    0  501  502  0.00000000000E+00  0.00000000000E+00  0.58066832695E+03  0.58066832695E+03  0.00000000000E+00 0.  1.
         21   -1    0    0  502  503 -0.00000000000E+00 -0.00000000000E+00 -0.90655808664E+02  0.90655808664E+02  0.00000000000E+00 0.  1.
          6    1    1    2  501    0 -0.35432661978E+02 -0.29593133594E+02  0.45663794124E+03  0.49013614075E+03  0.17200000000E+03 0.  1.
         -6    1    1    2    0  503  0.35432661978E+02  0.29593133594E+02  0.33374577050E+02  0.18118799487E+03  0.17200000000E+03 0.  1.
</event>
<event>
 4    1  0.1181383E+000  0.1820709E+03  0.7818608E-02  0.1165814E+00
         21   -1    0    0  501  502  0.00000000000E+00  0.00000000000E+00  0.11971570064E+03  0.11971570064E+03  0.00000000000E+00 0. -1.
         21   -1    0    0  502  503 -0.00000000000E+00 -0.00000000000E+00 -0.29007091730E+03  0.29007091730E+03  0.00000000000E+00 0. -1.
          6    1    1    2  501    0 -0.28080571469E+02  0.52699937327E+02 -0.41524872717E+02  0.18674612966E+03  0.17200000000E+03 0. -1.
         -6    1    1    2    0  503  0.28080571469E+02 -0.52699937327E+02 -0.12883034394E+03  0.22304048827E+03  0.17200000000E+03 0. -1.
</event>
<event>
 4    1  0.1181383E+000  0.2176921E+03  0.7818608E-02  0.1135615E+00
         21   -1    0    0  501  502  0.00000000000E+00  0.00000000000E+00  0.17231932910E+03  0.17231932910E+03  0.00000000000E+00 0. -1.
         21   -1    0    0  502  503 -0.00000000000E+00 -0.00000000000E+00 -0.29336634029E+03  0.29336634029E+03  0.00000000000E+00 0.  1.
          6    1    1    2  501    0  0.72554810381E+02 -0.11198948090E+03 -0.22823741843E+01  0.21770405043E+03  0.17200000000E+03 0. -1.
         -6    1    1    2    0  503 -0.72554810381E+02  0.11198948090E+03 -0.11876463700E+03  0.24798161896E+03  0.17200000000E+03 0.  1.
</event>
<event>
 4    1  0.1181383E+000  0.1752917E+03  0.7818608E-02  0.1172439E+00
         21   -1    0    0  503  502  0.00000000000E+00  0.00000000000E+00  0.61691578855E+02  0.61691578855E+02  0.00000000000E+00 0.  1.
         21   -1    0    0  501  503 -0.00000000000E+00 -0.00000000000E+00 -0.52583802358E+03  0.52583802358E+03  0.00000000000E+00 0.  1.
          6    1    1    2  501    0  0.24226450020E+02  0.23585221738E+02 -0.29957078222E+03  0.34708765049E+03  0.17200000000E+03 0. -1.
         -6    1    1    2    0  502 -0.24226450020E+02 -0.23585221738E+02 -0.16457566251E+03  0.24044195195E+03  0.17200000000E+03 0. -1.
</event>
<event>
 4    1  0.1181383E+000  0.1909365E+03  0.7818608E-02  0.1157619E+00
         21   -1    0    0  501  502  0.00000000000E+00  0.00000000000E+00  0.64275887553E+03  0.64275887553E+03  0.00000000000E+00 0. -1.
         21   -1    0    0  502  503 -0.00000000000E+00 -0.00000000000E+00 -0.57126012777E+02  0.57126012777E+02  0.00000000000E+00 0. -1.
          6    1    1    2  501    0  0.68845136145E+02 -0.46185400382E+02  0.32234877485E+03  0.37465380904E+03  0.17200000000E+03 0. -1.
         -6    1    1    2    0  503 -0.68845136145E+02  0.46185400382E+02  0.26328408790E+03  0.32523107927E+03  0.17200000000E+03 0. -1.
</event>
<event>
 4    1  0.1181383E+000  0.2059830E+03  0.7818608E-02  0.1144787E+00
         21   -1    0    0  501  502  0.00000000000E+00  0.00000000000E+00  0.99165218626E+02  0.99165218626E+02  0.00000000000E+00 0. -1.
         21   -1    0    0  502  503 -0.00000000000E+00 -0.00000000000E+00 -0.62799320231E+03  0.62799320231E+03  0.00000000000E+00 0. -1.
          6    1    1    2  501    0 -0.60149676444E+02 -0.96057275531E+02 -0.46966224310E+03  0.51284657195E+03  0.17200000000E+03 0. -1.
         -6    1    1    2    0  503  0.60149676444E+02  0.96057275531E+02 -0.59165740579E+02  0.21431184899E+03  0.17200000000E+03 0. -1.
</event>
<event>
 4    1  0.1181383E+000  0.1752485E+03  0.7818608E-02  0.1172482E+00
         21   -1    0    0  501  502  0.00000000000E+00  0.00000000000E+00  0.78519812657E+02  0.78519812657E+02  0.00000000000E+00 0. -1.
         21   -1    0    0  502  503 -0.00000000000E+00 -0.00000000000E+00 -0.47110148508E+03  0.47110148508E+03  0.00000000000E+00 0. -1.
          6    1    1    2  501    0 -0.28566734474E+02  0.17663255081E+02 -0.30951088543E+03  0.35568108904E+03  0.17200000000E+03 0.  1.
         -6    1    1    2    0  503  0.28566734474E+02 -0.17663255081E+02 -0.83070786989E+02  0.19394020870E+03  0.17200000000E+03 0.  1.
</event>
<event>
 4    1  0.1181383E+000  0.2048323E+03  0.7818608E-02  0.1145725E+00
         21   -1    0    0  501  502  0.00000000000E+00  0.00000000000E+00  0.14604434415E+04  0.14604434415E+04  0.00000000000E+00 0. -1.
         21   -1    0    0  502  503 -0.00000000000E+00 -0.00000000000E+00 -0.76147223010E+02  0.76147223010E+02  0.00000000000E+00 0.  1.
          6    1    1    2  501    0  0.92796224977E+01 -0.11084285864E+03  0.12984325129E+04  0.13144897265E+04  0.17200000000E+03 0. -1.
         -6    1    1    2    0  503 -0.92796224977E+01  0.11084285864E+03  0.85863705628E+02  0.22210093798E+03  0.17200000000E+03 0.  1.
</event>
<event>
 4    1  0.1181383E+000  0.2642007E+03  0.7818608E-02  0.1104645E+00
         21   -1    0    0  503  502  0.00000000000E+00  0.00000000000E+00  0.25983730721E+03  0.25983730721E+03  0.00000000000E+00 0. -1.
         21   -1    0    0  501  503 -0.00000000000E+00 -0.00000000000E+00 -0.38787514539E+03  0.38787514539E+03  0.00000000000E+00 0. -1.
          6    1    1    2  501    0 -0.14153635999E+03  0.14207556518E+03 -0.24358042198E+03  0.35935140099E+03  0.17200000000E+03 0.  1.
         -6    1    1    2    0  502  0.14153635999E+03 -0.14207556518E+03  0.11554258380E+03  0.28836105162E+03  0.17200000000E+03 0.  1.
</event>
<event>
 4    1  0.1181383E+000  0.1728198E+03  0.7818608E-02  0.1174939E+00
         21   -1    0    0  503  502  0.00000000000E+00  0.00000000000E+00  0.67073747837E+03  0.67073747837E+03  0.00000000000E+00 0. -1.
         21   -1    0    0  501  503 -0.00000000000E+00 -0.00000000000E+00 -0.99915336423E+02  0.99915336423E+02  0.00000000000E+00 0. -1.
          6    1    1    2  501    0 -0.85985231597E+01 -0.14448600911E+02 -0.14802180804E+01  0.17282617775E+03  0.17200000000E+03 0. -1.
         -6    1    1    2    0  502  0.85985231597E+01  0.14448600911E+02  0.57230236003E+03  0.59782663705E+03  0.17200000000E+03 0. -1.
</event>
<event>
 4    1  0.1181383E+000  0.1848017E+03  0.7818608E-02  0.1163235E+00
         21   -1    0    0  501  502  0.00000000000E+00  0.00000000000E+00  0.19548454481E+02  0.19548454481E+02  0.00000000000E+00 0.  1.
         21   -1    0    0  502  503 -0.00000000000E+00 -0.00000000000E+00 -0.27699516780E+04  0.27699516780E+04  0.00000000000E+00 0.  1.
          6    1    1    2  501    0 -0.67321695312E+02 -0.59535636995E+01 -0.52761836587E+03  0.55904632687E+03  0.17200000000E+03 0.  1.
         -6    1    1    2    0  503  0.67321695312E+02  0.59535636995E+01 -0.22227848577E+04  0.22304538056E+04  0.17200000000E+03 0.  1.
</event>
<event>
 4    1  0.1181383E+000  0.1842505E+03  0.7818608E-02  0.1163752E+00
         21   -1    0    0  503  502  0.00000000000E+00  0.00000000000E+00  0.86178663549E+02  0.86178663549E+02  0.00000000000E+00 0. -1.
         21   -1    0    0  501  503 -0.00000000000E+00 -0.00000000000E+00 -0.82049898932E+03  0.82049898932E+03  0.00000000000E+00 0. -1.
          6    1    1    2  501    0 -0.65687804210E+02 -0.70253384778E+01 -0.69403329719E+03  0.71807413309E+03  0.17200000000E+03 0. -1.
         -6    1    1    2    0  502  0.65687804210E+02  0.70253384778E+01 -0.40287028585E+02  0.18860351978E+03  0.17200000000E+03 0. -1.
</event>
<event>
 4    1  0.1181383E+000  0.1863166E+03  0.7818608E-02  0.1161826E+00
         21   -1    0    0  501  502  0.00000000000E+00  0.00000000000E+00  0.25823537193E+03  0.25823537193E+03  0.00000000000E+00 0. -1.
         21   -1    0    0  502  503 -0.00000000000E+00 -0.00000000000E+00 -0.16001003438E+03  0.16001003438E+03  0.00000000000E+00 0. -1.
          6    1    1    2  501    0 -0.60761345987E+02 -0.37919916022E+02  0.13273105832E+03  0.22876056268E+03  0.17200000000E+03 0. -1.
         -6    1    1    2    0  503  0.60761345987E+02  0.37919916022E+02 -0.34505720763E+02  0.18948484362E+03  0.17200000000E+03 0. -1.
</event>
<event>
 4    1  0.1181383E+000  0.2008014E+03  0.7818608E-02  0.1149065E+00
         21   -1    0    0  501  502  0.00000000000E+00  0.00000000000E+00  0.19863975103E+03  0.19863975103E+03  0.00000000000E+00 0. -1.
         21   -1    0    0  502  503 -0.00000000000E+00 -0.00000000000E+00 -0.24686855734E+03  0.24686855734E+03  0.00000000000E+00 0. -1.
          6    1    1    2  501    0  0.42701429113E+02  0.94412900632E+02  0.69800802469E+02  0.21258729943E+03  0.17200000000E+03 0. -1.
         -6    1    1    2    0  503 -0.42701429113E+02 -0.94412900632E+02 -0.11802960878E+03  0.23292100894E+03  0.17200000000E+03 0. -1.
</event>
<event>
 4    1  0.1181383E+000  0.2118485E+03  0.7818608E-02  0.1140110E+00
         21   -1    0    0  503  502  0.00000000000E+00  0.00000000000E+00  0.21389905932E+03  0.21389905932E+03  0.00000000000E+00 0. -1.
         21   -1    0    0  501  503 -0.00000000000E+00 -0.00000000000E+00 -0.33529444192E+03  0.33529444192E+03  0.00000000000E+00 0.  1.
          6    1    1    2  501    0  0.20586009091E+02  0.12195089708E+03 -0.22868012247E+03  0.31172809223E+03  0.17200000000E+03 0.  1.
         -6    1    1    2    0  502 -0.20586009091E+02 -0.12195089708E+03  0.10728473987E+03  0.23746540901E+03  0.17200000000E+03 0.  1.
</event>
<event>
 4    1  0.1181383E+000  0.1805513E+03  0.7818608E-02  0.1167271E+00
         21   -1    0    0  503  502  0.00000000000E+00  0.00000000000E+00  0.15312339830E+03  0.15312339830E+03  0.00000000000E+00 0.  1.
         21   -1    0    0  501  503 -0.00000000000E+00 -0.00000000000E+00 -0.35069219140E+03  0.35069219140E+03  0.00000000000E+00 0.  1.
          6    1    1    2  501    0  0.19714288093E+02  0.51245715978E+02 -0.25669204256E+03  0.31383049768E+03  0.17200000000E+03 0.  1.
         -6    1    1    2    0  502 -0.19714288093E+02 -0.51245715978E+02  0.59123249467E+02  0.18998509202E+03  0.17200000000E+03 0.  1.
</event>
<event>
 4    1  0.1181383E+000  0.2087076E+03  0.7818608E-02  0.1142594E+00
         21   -1    0    0  503  502  0.00000000000E+00  0.00000000000E+00  0.11997985917E+03  0.11997985917E+03  0.00000000000E+00 0.  1.
         21   -1    0    0  501  503 -0.00000000000E+00 -0.00000000000E+00 -0.53879986104E+03  0.53879986104E+03  0.00000000000E+00 0.  1.
          6    1    1    2  501    0 -0.37189619726E+02 -0.11221312569E+03 -0.39753316686E+03  0.44898938979E+03  0.17200000000E+03 0.  1.
         -6    1    1    2    0  502  0.37189619726E+02  0.11221312569E+03 -0.21286835017E+02  0.20979033042E+03  0.17200000000E+03 0.  1.
</event>
<event>
 4    1  0.1181383E+000  0.1940083E+03  0.7818608E-02  0.1154895E+00
         21   -1    0    0  501  502  0.00000000000E+00  0.00000000000E+00  0.30119355316E+04  0.30119355316E+04  0.00000000000E+00 0. -1.
         21   -1    0    0  502  503 -0.00000000000E+00 -0.00000000000E+00 -0.17791890014E+02  0.17791890014E+02  0.00000000000E+00 0. -1.
          6    1    1    2  501    0  0.87474731608E+02  0.20084697743E+02  0.23234973338E+04  0.23315829567E+04  0.17200000000E+03 0. -1.
         -6    1    1    2    0  503 -0.87474731608E+02 -0.20084697743E+02  0.67064630773E+03  0.69814446487E+03  0.17200000000E+03 0. -1.
</event>
<event>
 4    1  0.1181383E+000  0.1803504E+03  0.7818608E-02  0.1167464E+00
         21   -1    0    0  501  502  0.00000000000E+00  0.00000000000E+00  0.38658922693E+03  0.38658922693E+03  0.00000000000E+00 0. -1.
         21   -1    0    0  502  503 -0.00000000000E+00 -0.00000000000E+00 -0.92870298985E+02  0.92870298985E+02  0.00000000000E+00 0. -1.
          6    1    1    2  501    0 -0.46050505452E+02 -0.28664079066E+02  0.22037586369E+03  0.28476621952E+03  0.17200000000E+03 0. -1.
         -6    1    1    2    0  503  0.46050505452E+02  0.28664079066E+02  0.73343064253E+02  0.19469330640E+03  0.17200000000E+03 0. -1.
</event>
<event>
 4    1  0.1181383E+000  0.2140304E+03  0.7818608E-02  0.1138414E+00
         21   -1    0    0  503  502  0.00000000000E+00  0.00000000000E+00  0.11251738644E+03  0.11251738644E+03  0.00000000000E+00 0. -1.
         21   -1    0    0  501  503 -0.00000000000E+00 -0.00000000000E+00 -0.49864178968E+03  0.49864178968E+03  0.00000000000E+00 0.  1.
          6    1    1    2  501    0  0.34100003339E+02  0.12272812297E+03 -0.32397218603E+03  0.38828723867E+03  0.17200000000E+03 0.  1.
         -6    1    1    2    0  502 -0.34100003339E+02 -0.12272812297E+03 -0.62152217212E+02  0.22287193744E+03  0.17200000000E+03 0. -1.
</event>
<event>
 4    1  0.1181383E+000  0.1846926E+03  0.7818608E-02  0.1163337E+00
         21   -1    0    0  503  502  0.00000000000E+00  0.00000000000E+00  0.25797619747E+03  0.25797619747E+03  0.00000000000E+00 0. -1.
         21   -1    0    0  501  503 -0.00000000000E+00 -0.00000000000E+00 -0.15893330023E+03  0.15893330023E+03  0.00000000000E+00 0. -1.
          6    1    1    2  501    0  0.41341468109E+02 -0.53086931642E+02 -0.35928874139E+02  0.18815478547E+03  0.17200000000E+03 0. -1.
         -6    1    1    2    0  502 -0.41341468109E+02  0.53086931642E+02  0.13497177138E+03  0.22875471223E+03  0.17200000000E+03 0. -1.
</event>
<event>
 4    1  0.1181383E+000  0.1849437E+03  0.7818608E-02  0.1163103E+00
         21   -1    0    0  503  502  0.00000000000E+00  0.00000000000E+00  0.31372160266E+02  0.31372160266E+02  0.00000000000E+00 0. -1.
         21   -1    0    0  501  503 -0.00000000000E+00 -0.00000000000E+00 -0.12659813468E+04  0.12659813468E+04  0.00000000000E+00 0. -1.
          6    1    1    2  501    0  0.16670938705E+02  0.65895693238E+02 -0.85896923406E+03  0.87865369039E+03  0.17200000000E+03 0. -1.
         -6    1    1    2    0  502 -0.16670938705E+02 -0.65895693238E+02 -0.37563995246E+03  0.41869981666E+03  0.17200000000E+03 0. -1.
</event>
<event>
 4    1  0.1181383E+000  0.1936505E+03  0.7818608E-02  0.1155209E+00
         21   -1    0    0  501  502  0.00000000000E+00  0.00000000000E+00  0.43113906177E+02  0.43113906177E+02  0.00000000000E+00 0. -1.
         21   -1    0    0  502  503 -0.00000000000E+00 -0.00000000000E+00 -0.10362493375E+04  0.10362493375E+04  0.00000000000E+00 0.  1.
          6    1    1    2  501    0  0.86300682532E+02  0.21649349473E+02 -0.28027309013E+03  0.34066626952E+03  0.17200000000E+03 0. -1.
         -6    1    1    2    0  503 -0.86300682532E+02 -0.21649349473E+02 -0.71286234119E+03  0.73869697415E+03  0.17200000000E+03 0.  1.
</event>
<event>
 4    1  0.1181383E+000  0.1951239E+03  0.7818608E-02  0.1153919E+00
         21   -1    0    0  501  502  0.00000000000E+00  0.00000000000E+00  0.12568995042E+04  0.12568995042E+04  0.00000000000E+00 0. -1.
         21   -1    0    0  502  503 -0.00000000000E+00 -0.00000000000E+00 -0.40447675641E+02  0.40447675641E+02  0.00000000000E+00 0. -1.
          6    1    1    2  501    0 -0.16989512929E+02 -0.90557599420E+02  0.93327231849E+03  0.95345190902E+03  0.17200000000E+03 0. -1.
         -6    1    1    2    0  503  0.16989512929E+02  0.90557599420E+02  0.28317951003E+03  0.34389527078E+03  0.17200000000E+03 0. -1.
</event>
<event>
 4    1  0.1181383E+000  0.2604802E+03  0.7818608E-02  0.1106855E+00
         21   -1    0    0  503  502  0.00000000000E+00  0.00000000000E+00  0.40894083241E+03  0.40894083241E+03  0.00000000000E+00 0. -1.
         21   -1    0    0  501  503 -0.00000000000E+00 -0.00000000000E+00 -0.16899815267E+03  0.16899815267E+03  0.00000000000E+00 0.  1.
          6    1    1    2  501    0 -0.69169663356E+02 -0.18297941481E+03  0.80948033635E+02  0.27276820328E+03  0.17200000000E+03 0. -1.
         -6    1    1    2    0  502  0.69169663356E+02  0.18297941481E+03  0.15899464611E+03  0.30517078180E+03  0.17200000000E+03 0. -1.
</event>
<event>
 4    1  0.1181383E+000  0.2291370E+03  0.7818608E-02  0.1127249E+00
         21   -1    0    0  503  502  0.00000000000E+00  0.00000000000E+00  0.98936702416E+02  0.98936702416E+02  0.00000000000E+00 0.  1.
         21   -1    0    0  501  503 -0.00000000000E+00 -0.00000000000E+00 -0.61890719842E+03  0.61890719842E+03  0.00000000000E+00 0.  1.
          6    1    1    2  501    0  0.48856883574E+02 -0.14329254387E+03 -0.12447004352E+03  0.26076146175E+03  0.17200000000E+03 0.  1.
         -6    1    1    2    0  502 -0.48856883574E+02  0.14329254387E+03 -0.39550045249E+03  0.45708243908E+03  0.17200000000E+03 0.  1.
</event>
<event>
 4    1  0.1181383E+000  0.1902767E+03  0.7818608E-02  0.1158212E+00
         21   -1    0    0  501  502  0.00000000000E+00  0.00000000000E+00  0.14958818054E+03  0.14958818054E+03  0.00000000000E+00 0. -1.
         21   -1    0    0  502  503 -0.00000000000E+00 -0.00000000000E+00 -0.24358946297E+03  0.24358946297E+03  0.00000000000E+00 0. -1.
          6    1    1    2  501    0  0.68438961155E+02  0.44015289867E+02 -0.31284884570E+02  0.19283148381E+03  0.17200000000E+03 0.  1.
         -6    1    1    2    0  503 -0.68438961155E+02 -0.44015289867E+02 -0.62716397864E+02  0.20034615970E+03  0.17200000000E+03 0.  1.
</event>
<event>
 4    1  0.1181383E+000  0.1772385E+03  0.7818608E-02  0.1170503E+00
         21   -1    0    0  501  502  0.00000000000E+00  0.00000000000E+00  0.24912646145E+02  0.24912646145E+02  0.00000000000E+00 0.  1.
         21   -1    0    0  502  503 -0.00000000000E+00 -0.00000000000E+00 -0.23067061519E+04  0.23067061519E+04  0.00000000000E+00 0.  1.
          6    1    1    2  501    0  0.38958930587E+02  0.17654536495E+02 -0.35593656303E+03  0.39762333663E+03  0.17200000000E+03 0.  1.
         -6    1    1    2    0  503 -0.38958930587E+02 -0.17654536495E+02 -0.19258569427E+04  0.19339954614E+04  0.17200000000E+03 0.  1.
</event>
<event>
 4    1  0.1181383E+000  0.2108068E+03  0.7818608E-02  0.1140929E+00
         21   -1    0    0  501  502  0.00000000000E+00  0.00000000000E+00  0.13716396220E+04  0.13716396220E+04  0.00000000000E+00 0.  1.
         21   -1    0    0  502  503 -0.00000000000E+00 -0.00000000000E+00 -0.34419484460E+02  0.34419484460E+02  0.00000000000E+00 0.  1.
          6    1    1    2  501    0 -0.32584319412E+02  0.11744681548E+03  0.83895119404E+03  0.86503098113E+03  0.17200000000E+03 0.  1.
         -6    1    1    2    0  503  0.32584319412E+02 -0.11744681548E+03  0.49826894347E+03  0.54102812530E+03  0.17200000000E+03 0.  1.
</event>
<event>
 4    1  0.1181383E+000  0.1731353E+03  0.7818608E-02  0.1174617E+00
         21   -1    0    0  503  502  0.00000000000E+00  0.00000000000E+00  0.16451881881E+03  0.16451881881E+03  0.00000000000E+00 0.  1.
         21   -1    0    0  501  503 -0.00000000000E+00 -0.00000000000E+00 -0.72695105133E+03  0.72695105133E+03  0.00000000000E+00 0.  1.
          6    1    1    2  501    0 -0.19404050960E+02 -0.39115380470E+01 -0.66706917219E+03  0.68917131238E+03  0.17200000000E+03 0.  1.
         -6    1    1    2    0  502  0.19404050960E+02  0.39115380470E+01  0.10463693967E+03  0.20229855775E+03  0.17200000000E+03 0.  1.
</event>
<event>
 4    1  0.1181383E+000  0.2027312E+03  0.7818608E-02  0.1147455E+00
         21   -1    0    0  503  502  0.00000000000E+00  0.00000000000E+00  0.17484475491E+02  0.17484475491E+02  0.00000000000E+00 0.  1.
         21   -1    0    0  501  503 -0.00000000000E+00 -0.00000000000E+00 -0.23644618814E+04  0.23644618814E+04  0.00000000000E+00 0.  1.
          6    1    1    2  501    0 -0.85568661637E+01 -0.10697073175E+03 -0.10824775313E+04  0.11012981264E+04  0.17200000000E+03 0. -1.
         -6    1    1    2    0  502  0.85568661637E+01  0.10697073175E+03 -0.12644998746E+04  0.12806482305E+04  0.17200000000E+03 0. -1.
</event>
<event>
 4    1  0.1181383E+000  0.2436885E+03  0.7818608E-02  0.1117360E+00
         21   -1    0    0  503  502  0.00000000000E+00  0.00000000000E+00  0.12818906763E+03  0.12818906763E+03  0.00000000000E+00 0.  1.
         21   -1    0    0  501  503 -0.00000000000E+00 -0.00000000000E+00 -0.46827806703E+03  0.46827806703E+03  0.00000000000E+00 0.  1.
          6    1    1    2  501    0  0.16536028197E+03 -0.49558568952E+02 -0.20093609437E+03  0.31584709692E+03  0.17200000000E+03 0.  1.
         -6    1    1    2    0  502 -0.16536028197E+03  0.49558568952E+02 -0.13915290503E+03  0.28062003775E+03  0.17200000000E+03 0.  1.
</event>
<event>
 4    1  0.1181383E+000  0.1901975E+03  0.7818608E-02  0.1158283E+00
         21   -1    0    0  501  502  0.00000000000E+00  0.00000000000E+00  0.23698710704E+03  0.23698710704E+03  0.00000000000E+00 0. -1.
         21   -1    0    0  502  503 -0.00000000000E+00 -0.00000000000E+00 -0.56511959099E+03  0.56511959099E+03  0.00000000000E+00 0. -1.
          6    1    1    2  501    0  0.32214591041E+02  0.74520432118E+02  0.17856753302E+03  0.26088587261E+03  0.17200000000E+03 0. -1.
         -6    1    1    2    0  503 -0.32214591041E+02 -0.74520432118E+02 -0.50670001697E+03  0.54122082543E+03  0.17200000000E+03 0. -1.
</event>
<event>
 4    1  0.1181383E+000  0.2663546E+03  0.7818608E-02  0.1103384E+00
         21   -1    0    0  503  502  0.00000000000E+00  0.00000000000E+00  0.10407144501E+03  0.10407144501E+03  0.00000000000E+00 0.  1.
         21   -1    0    0  501  503 -0.00000000000E+00 -0.00000000000E+00 -0.98318546794E+03  0.98318546794E+03  0.00000000000E+00 0.  1.
          6    1    1    2  501    0  0.16649912563E+03 -0.11678524477E+03 -0.74059607304E+03  0.78703703574E+03  0.17200000000E+03 0.  1.
         -6    1    1    2    0  502 -0.16649912563E+03  0.11678524477E+03 -0.13851794989E+03  0.30021987721E+03  0.17200000000E+03 0.  1.
</event>
<event>
 4    1  0.1181383E+000  0.3396347E+03  0.7818608E-02  0.1066952E+00
         21   -1    0    0  501  502  0.00000000000E+00  0.00000000000E+00  0.15651942957E+03  0.15651942957E+03  0.00000000000E+00 0.  1.
         21   -1    0    0  502  503 -0.00000000000E+00 -0.00000000000E+00 -0.76587211325E+03  0.76587211325E+03  0.00000000000E+00 0. -1.
          6    1    1    2  501    0 -0.23620524537E+03  0.17313241812E+03 -0.21509989735E+03  0.40201954926E+03  0.17200000000E+03 0.  1.
         -6    1    1    2    0  503  0.23620524537E+03 -0.17313241812E+03 -0.39425278634E+03  0.52037199356E+03  0.17200000000E+03 0.  1.
</event>
<event>
 4    1  0.1181383E+000  0.2105418E+03  0.7818608E-02  0.1141138E+00
         21   -1    0    0  503  502  0.00000000000E+00  0.00000000000E+00  0.16388509834E+03  0.16388509834E+03  0.00000000000E+00 0.  1.
         21   -1    0    0  501  503 -0.00000000000E+00 -0.00000000000E+00 -0.84316014313E+03  0.84316014313E+03  0.00000000000E+00 0.  1.
          6    1    1    2  501    0 -0.36383953838E+02 -0.11584493395E+03 -0.75461024728E+03  0.78343121340E+03  0.17200000000E+03 0.  1.
         -6    1    1    2    0  502  0.36383953838E+02  0.11584493395E+03  0.75335202484E+02  0.22361402807E+03  0.17200000000E+03 0.  1.
</event>
<event>
 4    1  0.1181383E+000  0.1784803E+03  0.7818608E-02  0.1169282E+00
         21   -1    0    0  501  502  0.00000000000E+00  0.00000000000E+00  0.16757648802E+04  0.16757648802E+04  0.00000000000E+00 0. -1.
         21   -1    0    0  502  503 -0.00000000000E+00 -0.00000000000E+00 -0.26438041826E+02  0.26438041826E+02  0.00000000000E+00 0. -1.
          6    1    1    2  501    0  0.17297631160E+02 -0.44407261779E+02  0.12758151818E+04  0.12882389495E+04  0.17200000000E+03 0. -1.
         -6    1    1    2    0  503 -0.17297631160E+02  0.44407261779E+02  0.37351165663E+03  0.41396397256E+03  0.17200000000E+03 0. -1.
</event>
<event>
 4    1  0.1181383E+000  0.3640795E+03  0.7818608E-02  0.1056980E+00
         21   -1    0    0  503  502  0.00000000000E+00  0.00000000000E+00  0.76133314499E+02  0.76133314499E+02  0.00000000000E+00 0. -1.
         21   -1    0    0  501  503 -0.00000000000E+00 -0.00000000000E+00 -0.17972734723E+04  0.17972734723E+04  0.00000000000E+00 0.  1.
          6    1    1    2  501    0 -0.12735626177E+03  0.29453401841E+03 -0.69493494954E+03  0.78453074478E+03  0.17200000000E+03 0. -1.
         -6    1    1    2    0  502  0.12735626177E+03 -0.29453401841E+03 -0.10262052083E+04  0.10888760420E+04  0.17200000000E+03 0.  1.
</event>
<event>
 4    1  0.1181383E+000  0.3013501E+03  0.7818608E-02  0.1084568E+00
         21   -1    0    0  501  502  0.00000000000E+00  0.00000000000E+00  0.12522200326E+03  0.12522200326E+03  0.00000000000E+00 0.  1.
         21   -1    0    0  502  503 -0.00000000000E+00 -0.00000000000E+00 -0.82731699058E+03  0.82731699058E+03  0.00000000000E+00 0. -1.
          6    1    1    2  501    0 -0.16912333700E+03 -0.18062436420E+03 -0.18372625493E+03  0.35294078939E+03  0.17200000000E+03 0.  1.
         -6    1    1    2    0  503  0.16912333700E+03  0.18062436420E+03 -0.51836873239E+03  0.59959820445E+03  0.17200000000E+03 0.  1.
</event>
<event>
 4    1  0.1181383E+000  0.1942582E+03  0.7818608E-02  0.1154676E+00
         21   -1    0    0  501  502  0.00000000000E+00  0.00000000000E+00  0.40939480753E+03  0.40939480753E+03  0.00000000000E+00 0. -1.
         21   -1    0    0  502  503 -0.00000000000E+00 -0.00000000000E+00 -0.12152395458E+03  0.12152395458E+03  0.00000000000E+00 0.  1.
          6    1    1    2  501    0  0.80958090166E+02  0.39975638592E+02  0.27438962745E+03  0.33619329514E+03  0.17200000000E+03 0. -1.
         -6    1    1    2    0  503 -0.80958090166E+02 -0.39975638592E+02  0.13481225502E+02  0.19472546697E+03  0.17200000000E+03 0.  1.
</event>
<event>
 4    1  0.1181383E+000  0.1972056E+03  0.7818608E-02  0.1152118E+00
         21   -1    0    0  501  502  0.00000000000E+00  0.00000000000E+00  0.50282553334E+03  0.50282553334E+03  0.00000000000E+00 0. -1.
         21   -1    0    0  502  503 -0.00000000000E+00 -0.00000000000E+00 -0.14393646668E+03  0.14393646668E+03  0.00000000000E+00 0.  1.
          6    1    1    2  501    0  0.69163394551E+02 -0.67249453330E+02  0.39940503698E+03  0.44543736673E+03  0.17200000000E+03 0. -1.
         -6    1    1    2    0  503 -0.69163394551E+02  0.67249453330E+02 -0.40515970318E+02  0.20132463329E+03  0.17200000000E+03 0.  1.
</event>
<event>
 4    1  0.1181383E+000  0.1862674E+03  0.7818608E-02  0.1161872E+00
         21   -1    0    0  501  502  0.00000000000E+00  0.00000000000E+00  0.54621621881E+02  0.54621621881E+02  0.00000000000E+00 0.  1.
         21   -1    0    0  502  503 -0.00000000000E+00 -0.00000000000E+00 -0.78881630036E+03  0.78881630036E+03  0.00000000000E+00 0. -1.
          6    1    1    2  501    0  0.79735911949E+01 -0.71049062655E+02 -0.18099295543E+03  0.25971907396E+03  0.17200000000E+03 0.  1.
         -6    1    1    2    0  503 -0.79735911949E+01  0.71049062655E+02 -0.55320172304E+03  0.58371884828E+03  0.17200000000E+03 0. -1.
</event>
<event>
 4    1  0.1181383E+000  0.2471887E+03  0.7818608E-02  0.1115095E+00
         21   -1    0    0  503  502  0.00000000000E+00  0.00000000000E+00  0.73135248125E+02  0.73135248125E+02  0.00000000000E+00 0. -1.
         21   -1    0    0  501  503 -0.00000000000E+00 -0.00000000000E+00 -0.89396790461E+03  0.89396790461E+03  0.00000000000E+00 0.  1.
          6    1    1    2  501    0  0.12325896400E+03 -0.12777115569E+03 -0.28672042670E+03  0.37856418679E+03  0.17200000000E+03 0.  1.
         -6    1    1    2    0  502 -0.12325896400E+03  0.12777115569E+03 -0.53411222979E+03  0.58853896595E+03  0.17200000000E+03 0.  1.
</event>
<event>
 4    1  0.1181383E+000  0.1774641E+03  0.7818608E-02  0.1170280E+00
         21   -1    0    0  501  502  0.00000000000E+00  0.00000000000E+00  0.31535724307E+03  0.31535724307E+03  0.00000000000E+00 0.  1.
         21   -1    0    0  502  503 -0.00000000000E+00 -0.00000000000E+00 -0.13350209921E+03  0.13350209921E+03  0.00000000000E+00 0.  1.
          6    1    1    2  501    0  0.41348686937E+02  0.14135025595E+02  0.20357935956E+03  0.27007048802E+03  0.17200000000E+03 0.  1.
         -6    1    1    2    0  503 -0.41348686937E+02 -0.14135025595E+02 -0.21724215699E+02  0.17878885426E+03  0.17200000000E+03 0.  1.
</event>
<event>
 4    1  0.1181383E+000  0.1908587E+03  0.7818608E-02  0.1157689E+00
         21   -1    0    0  501  502  0.00000000000E+00  0.00000000000E+00  0.61150227869E+03  0.61150227869E+03  0.00000000000E+00 0.  1.
         21   -1    0    0  502  503 -0.00000000000E+00 -0.00000000000E+00 -0.59639406234E+02  0.59639406234E+02  0.00000000000E+00 0.  1.
          6    1    1    2  501    0  0.49001332580E+02  0.66647603401E+02  0.28740026672E+03  0.34500137238E+03  0.17200000000E+03 0.  1.
         -6    1    1    2    0  503 -0.49001332580E+02 -0.66647603401E+02  0.26446260575E+03  0.32614031255E+03  0.17200000000E+03 0.  1.
</event>
<event>
 4    1  0.1181383E+000  0.1820020E+03  0.7818608E-02  0.1165879E+00
         21   -1    0    0  503  502  0.00000000000E+00  0.00000000000E+00  0.48270722520E+02  0.48270722520E+02  0.00000000000E+00 0.  1.
         21   -1    0    0  501  503 -0.00000000000E+00 -0.00000000000E+00 -0.68748997157E+03  0.68748997157E+03  0.00000000000E+00 0.  1.
          6    1    1    2  501    0  0.58955545112E+02 -0.80615131729E+01 -0.33536818237E+03  0.38157117559E+03  0.17200000000E+03 0.  1.
         -6    1    1    2    0  502 -0.58955545112E+02  0.80615131729E+01 -0.30385106668E+03  0.35418951851E+03  0.17200000000E+03 0.  1.
</event>
<event>
 4    1  0.1181383E+000  0.2197355E+03  0.7818608E-02  0.1134080E+00
         21   -1    0    0  501  502  0.00000000000E+00  0.00000000000E+00  0.60430941090E+03  0.60430941090E+03  0.00000000000E+00 0. -1.
         21   -1    0    0  502  503 -0.00000000000E+00 -0.00000000000E+00 -0.14268703329E+03  0.14268703329E+03  0.00000000000E+00 0. -1.
          6    1    1    2  501    0  0.67568465000E+02  0.11888736926E+03  0.47857324830E+03  0.52660806870E+03  0.17200000000E+03 0. -1.
         -6    1    1    2    0  503 -0.67568465000E+02 -0.11888736926E+03 -0.16950870690E+02  0.22038837549E+03  0.17200000000E+03 0. -1.
</event>
<event>
 4    1  0.1181383E+000  0.2151680E+03  0.7818608E-02  0.1137538E+00
         21   -1    0    0  501  502  0.00000000000E+00  0.00000000000E+00  0.54392742027E+03  0.54392742027E+03  0.00000000000E+00 0. -1.
         21   -1    0    0  502  503 -0.00000000000E+00 -0.00000000000E+00 -0.14045489102E+03  0.14045489102E+03  0.00000000000E+00 0. -1.
          6    1    1    2  501    0  0.12927756343E+03 -0.76955798417E+00  0.41652574959E+03  0.46881870771E+03  0.17200000000E+03 0. -1.
         -6    1    1    2    0  503 -0.12927756343E+03  0.76955798417E+00 -0.13053220337E+02  0.21556360358E+03  0.17200000000E+03 0. -1.
</event>
<event>
 4    1  0.1181383E+000  0.1778717E+03  0.7818608E-02  0.1169879E+00
         21   -1    0    0  503  502  0.00000000000E+00  0.00000000000E+00  0.30366991375E+04  0.30366991375E+04  0.00000000000E+00 0. -1.
         21   -1    0    0  501  503 -0.00000000000E+00 -0.00000000000E+00 -0.11341076173E+02  0.11341076173E+02  0.00000000000E+00 0. -1.
          6    1    1    2  501    0 -0.13163384348E+02  0.43371195008E+02  0.19473164001E+04  0.19554230993E+04  0.17200000000E+03 0. -1.
         -6    1    1    2    0  502  0.13163384348E+02 -0.43371195008E+02  0.10780416612E+04  0.10926171143E+04  0.17200000000E+03 0. -1.
</event>
<event>
 4    1  0.1181383E+000  0.2405157E+03  0.7818608E-02  0.1119450E+00
         21   -1    0    0  501  502  0.00000000000E+00  0.00000000000E+00  0.60182626630E+03  0.60182626630E+03  0.00000000000E+00 0. -1.
         21   -1    0    0  502  503 -0.00000000000E+00 -0.00000000000E+00 -0.12144775407E+03  0.12144775407E+03  0.00000000000E+00 0. -1.
          6    1    1    2  501    0 -0.16097621200E+03  0.48481384730E+02  0.75041385121E+02  0.25195038197E+03  0.17200000000E+03 0. -1.
         -6    1    1    2    0  503  0.16097621200E+03 -0.48481384730E+02  0.40533712712E+03  0.47132363840E+03  0.17200000000E+03 0. -1.
</event>
<event>
 4    1  0.1181383E+000  0.2107184E+03  0.7818608E-02  0.1140998E+00
         21   -1    0    0  501  502  0.00000000000E+00  0.00000000000E+00  0.25496296683E+03  0.25496296683E+03  0.00000000000E+00 0. -1.
         21   -1    0    0  502  503 -0.00000000000E+00 -0.00000000000E+00 -0.18590148652E+03  0.18590148652E+03  0.00000000000E+00 0. -1.
          6    1    1    2  501    0 -0.68837055466E+02 -0.10039778519E+03  0.89948261317E+02  0.22911338937E+03  0.17200000000E+03 0. -1.
         -6    1    1    2    0  503  0.68837055466E+02  0.10039778519E+03 -0.20886781008E+02  0.21175106398E+03  0.17200000000E+03 0. -1.
</event>
<event>
 4    1  0.1181383E+000  0.2260393E+03  0.7818608E-02  0.1129459E+00
         21   -1    0    0  503  502  0.00000000000E+00  0.00000000000E+00  0.18247018031E+04  0.18247018031E+04  0.00000000000E+00 0. -1.
         21   -1    0    0  501  503 -0.00000000000E+00 -0.00000000000E+00 -0.28082095335E+02  0.28082095335E+02  0.00000000000E+00 0.  1.
          6    1    1    2  501    0 -0.86295223477E+02  0.11858716941E+03  0.94804080271E+03  0.97461538360E+03  0.17200000000E+03 0. -1.
         -6    1    1    2    0  502  0.86295223477E+02 -0.11858716941E+03  0.84857890505E+03  0.87816851483E+03  0.17200000000E+03 0. -1.
</event>
<event>
 4    1  0.1181383E+000  0.1922835E+03  0.7818608E-02  0.1156418E+00
         21   -1    0    0  501  502  0.00000000000E+00  0.00000000000E+00  0.10032927346E+04  0.10032927346E+04  0.00000000000E+00 0. -1.
         21   -1    0    0  502  503 -0.00000000000E+00 -0.00000000000E+00 -0.46507734100E+02  0.46507734100E+02  0.00000000000E+00 0.  1.
          6    1    1    2  501    0 -0.78207213164E+02  0.35673240689E+02  0.71756745001E+03  0.74288356666E+03  0.17200000000E+03 0. -1.
         -6    1    1    2    0  503  0.78207213164E+02 -0.35673240689E+02  0.23921755044E+03  0.30691690200E+03  0.17200000000E+03 0.  1.
</event>
<event>
 4    1  0.1181383E+000  0.1932113E+03  0.7818608E-02  0.1155596E+00
         21   -1    0    0  503  502  0.00000000000E+00  0.00000000000E+00  0.33682794653E+03  0.33682794653E+03  0.00000000000E+00 0. -1.
         21   -1    0    0  501  503 -0.00000000000E+00 -0.00000000000E+00 -0.13776418096E+03  0.13776418096E+03  0.00000000000E+00 0. -1.
          6    1    1    2  501    0 -0.80657611404E+02 -0.35227464591E+02  0.20445584087E+03  0.28130555523E+03  0.17200000000E+03 0. -1.
         -6    1    1    2    0  502  0.80657611404E+02  0.35227464591E+02 -0.53920753018E+01  0.19328657226E+03  0.17200000000E+03 0. -1.
</event>
<event>
 4    1  0.1181383E+000  0.1888336E+03  0.7818608E-02  0.1159518E+00
         21   -1    0    0  503  502  0.00000000000E+00  0.00000000000E+00  0.18558564296E+03  0.18558564296E+03  0.00000000000E+00 0. -1.
         21   -1    0    0  501  503 -0.00000000000E+00 -0.00000000000E+00 -0.19785980890E+03  0.19785980890E+03  0.00000000000E+00 0. -1.
          6    1    1    2  501    0 -0.39612317425E+02 -0.67119301418E+02 -0.38739117140E+02  0.19276632359E+03  0.17200000000E+03 0.  1.
         -6    1    1    2    0  502  0.39612317425E+02  0.67119301418E+02  0.26464951194E+02  0.19067912827E+03  0.17200000000E+03 0.  1.
</event>
<event>
 4    1  0.1181383E+000  0.1924248E+03  0.7818608E-02  0.1156292E+00
         21   -1    0    0  503  502  0.00000000000E+00  0.00000000000E+00  0.26645342686E+03  0.26645342686E+03  0.00000000000E+00 0. -1.
         21   -1    0    0  501  503 -0.00000000000E+00 -0.00000000000E+00 -0.23296526771E+03  0.23296526771E+03  0.00000000000E+00 0. -1.
          6    1    1    2  501    0 -0.85857075570E+02  0.84775387499E+01 -0.14187563895E+03  0.23907321685E+03  0.17200000000E+03 0. -1.
         -6    1    1    2    0  502  0.85857075570E+02 -0.84775387499E+01  0.17536379809E+03  0.26034547772E+03  0.17200000000E+03 0. -1.
</event>
<event>
 4    1  0.1181383E+000  0.1991436E+03  0.7818608E-02  0.1150464E+00
         21   -1    0    0  503  502  0.00000000000E+00  0.00000000000E+00  0.31924127267E+03  0.31924127267E+03  0.00000000000E+00 0. -1.
         21   -1    0    0  501  503 -0.00000000000E+00 -0.00000000000E+00 -0.12429974294E+03  0.12429974294E+03  0.00000000000E+00 0. -1.
          6    1    1    2  501    0 -0.53159138018E+02  0.85136791112E+02  0.92080663085E+02  0.21940149423E+03  0.17200000000E+03 0.  1.
         -6    1    1    2    0  502  0.53159138018E+02 -0.85136791112E+02  0.10286086665E+03  0.22413952138E+03  0.17200000000E+03 0.  1.
</event>
<event>
 4    1  0.1181383E+000  0.2289136E+03  0.7818608E-02  0.1127407E+00
         21   -1    0    0  501  502  0.00000000000E+00  0.00000000000E+00  0.26835143879E+03  0.26835143879E+03  0.00000000000E+00 0.  1.
         21   -1    0    0  502  503 -0.00000000000E+00 -0.00000000000E+00 -0.56776478129E+03  0.56776478129E+03  0.00000000000E+00 0.  1.
          6    1    1    2  501    0 -0.21668418331E+02 -0.14949218828E+03  0.18891250466E+03  0.29679853289E+03  0.17200000000E+03 0.  1.
         -6    1    1    2    0  503  0.21668418331E+02  0.14949218828E+03 -0.48832584716E+03  0.53931768719E+03  0.17200000000E+03 0.  1.
</event>
<event>
 4    1  0.1181383E+000  0.2440649E+03  0.7818608E-02  0.1117114E+00
         21   -1    0    0  501  502  0.00000000000E+00  0.00000000000E+00  0.14528069900E+03  0.14528069900E+03  0.00000000000E+00 0. -1.
         21   -1    0    0  502  503 -0.00000000000E+00 -0.00000000000E+00 -0.41310948836E+03  0.41310948836E+03  0.00000000000E+00 0. -1.
          6    1    1    2  501    0 -0.17290427181E+03  0.93695288559E+01 -0.10976135747E+03  0.26761022192E+03  0.17200000000E+03 0. -1.
         -6    1    1    2    0  503  0.17290427181E+03 -0.93695288559E+01 -0.15806743189E+03  0.29077996545E+03  0.17200000000E+03 0. -1.
</event>
<event>
 4    1  0.1181383E+000  0.1720349E+03  0.7818608E-02  0.1175742E+00
         21   -1    0    0  503  502  0.00000000000E+00  0.00000000000E+00  0.34647129864E+03  0.34647129864E+03  0.00000000000E+00 0. -1.
         21   -1    0    0  501  503 -0.00000000000E+00 -0.00000000000E+00 -0.32519716338E+03  0.32519716338E+03  0.00000000000E+00 0. -1.
          6    1    1    2  501    0  0.64329651286E+00  0.34043412787E+01 -0.27773579237E+03  0.32670043424E+03  0.17200000000E+03 0. -1.
         -6    1    1    2    0  502 -0.64329651286E+00 -0.34043412787E+01  0.29900992763E+03  0.34496802778E+03  0.17200000000E+03 0. -1.
</event>
<event>
 4    1  0.1181383E+000  0.1986139E+03  0.7818608E-02  0.1150914E+00
         21   -1    0    0  503  502  0.00000000000E+00  0.00000000000E+00  0.13267990413E+04  0.13267990413E+04  0.00000000000E+00 0.  1.
         21   -1    0    0  501  503 -0.00000000000E+00 -0.00000000000E+00 -0.31836811310E+02  0.31836811310E+02  0.00000000000E+00 0.  1.
          6    1    1    2  501    0  0.14845976594E+02  0.98199193696E+02  0.47278421767E+03  0.51280834738E+03  0.17200000000E+03 0.  1.
         -6    1    1    2    0  502 -0.14845976594E+02 -0.98199193696E+02  0.82217801233E+03  0.84582750524E+03  0.17200000000E+03 0.  1.
</event>
<event>
 4    1  0.1181383E+000  0.1827367E+03  0.7818608E-02  0.1165180E+00
         21   -1    0    0  501  502  0.00000000000E+00  0.00000000000E+00  0.38898427443E+03  0.38898427443E+03  0.00000000000E+00 0. -1.
         21   -1    0    0  502  503 -0.00000000000E+00 -0.00000000000E+00 -0.16688331279E+03  0.16688331279E+03  0.00000000000E+00 0. -1.
          6    1    1    2  501    0 -0.44929207904E+02 -0.42309333173E+02  0.30472729190E+03  0.35531878057E+03  0.17200000000E+03 0. -1.
         -6    1    1    2    0  503  0.44929207904E+02  0.42309333173E+02 -0.82626330256E+02  0.20054880665E+03  0.17200000000E+03 0. -1.
</event>
<event>
 4    1  0.1181383E+000  0.2619539E+03  0.7818608E-02  0.1105975E+00
         21   -1    0    0  501  502  0.00000000000E+00  0.00000000000E+00  0.74579258699E+02  0.74579258699E+02  0.00000000000E+00 0. -1.
         21   -1    0    0  502  503 -0.00000000000E+00 -0.00000000000E+00 -0.11933255655E+04  0.11933255655E+04  0.00000000000E+00 0. -1.
          6    1    1    2  501    0 -0.12409385104E+02 -0.19718481142E+03 -0.25602347753E+03  0.36628931699E+03  0.17200000000E+03 0. -1.
         -6    1    1    2    0  503  0.12409385104E+02  0.19718481142E+03 -0.86272282922E+03  0.90161550716E+03  0.17200000000E+03 0. -1.
</event>
<event>
 4    1  0.1181383E+000  0.1795414E+03  0.7818608E-02  0.1168248E+00
         21   -1    0    0  503  502  0.00000000000E+00  0.00000000000E+00  0.33545750622E+03  0.33545750622E+03  0.00000000000E+00 0.  1.
         21   -1    0    0  501  503 -0.00000000000E+00 -0.00000000000E+00 -0.13844022802E+03  0.13844022802E+03  0.00000000000E+00 0.  1.
          6    1    1    2  501    0 -0.51460436339E+02 -0.17153228037E+01 -0.32541041475E+02  0.18246654000E+03  0.17200000000E+03 0.  1.
         -6    1    1    2    0  502  0.51460436339E+02  0.17153228037E+01  0.22955831968E+03  0.29143119424E+03  0.17200000000E+03 0.  1.
</event>
<event>
 4    1  0.1181383E+000  0.1720715E+03  0.7818608E-02  0.1175705E+00
         21   -1    0    0  501  502  0.00000000000E+00  0.00000000000E+00  0.77879785964E+02  0.77879785964E+02  0.00000000000E+00 0.  1.
         21   -1    0    0  502  503 -0.00000000000E+00 -0.00000000000E+00 -0.49817401285E+03  0.49817401285E+03  0.00000000000E+00 0.  1.
          6    1    1    2  501    0 -0.48106696943E+01  0.12110541597E+01 -0.69973564523E+02  0.18575497013E+03  0.17200000000E+03 0.  1.
         -6    1    1    2    0  503  0.48106696943E+01 -0.12110541597E+01 -0.35032066236E+03  0.39029882869E+03  0.17200000000E+03 0.  1.
</event>
<event>
 4    1  0.1181383E+000  0.1902383E+03  0.7818608E-02  0.1158247E+00
         21   -1    0    0  501  502  0.00000000000E+00  0.00000000000E+00  0.33352462727E+03  0.33352462727E+03  0.00000000000E+00 0.  1.
         21   -1    0    0  502  503 -0.00000000000E+00 -0.00000000000E+00 -0.14591904912E+03  0.14591904912E+03  0.00000000000E+00 0.  1.
          6    1    1    2  501    0 -0.50258480578E+02  0.63880281487E+02  0.21518151794E+03  0.28721714937E+03  0.17200000000E+03 0.  1.
         -6    1    1    2    0  503  0.50258480578E+02 -0.63880281487E+02 -0.27575939788E+02  0.19222652701E+03  0.17200000000E+03 0.  1.
</event>
<event>
 4    1  0.1181383E+000  0.1853889E+03  0.7818608E-02  0.1162687E+00
         21   -1    0    0  501  502  0.00000000000E+00  0.00000000000E+00  0.13889705331E+04  0.13889705331E+04  0.00000000000E+00 0.  1.
         21   -1    0    0  502  503 -0.00000000000E+00 -0.00000000000E+00 -0.81989133663E+02  0.81989133663E+02  0.00000000000E+00 0.  1.
          6    1    1    2  501    0  0.58450432496E+02 -0.36994654705E+02  0.12680458956E+04  0.12815262194E+04  0.17200000000E+03 0.  1.
         -6    1    1    2    0  503 -0.58450432496E+02  0.36994654705E+02  0.38935503825E+02  0.18943344740E+03  0.17200000000E+03 0.  1.
</event>
<event>
 4    1  0.1181383E+000  0.1866670E+03  0.7818608E-02  0.1161502E+00
         21   -1    0    0  501  502  0.00000000000E+00  0.00000000000E+00  0.47910650686E+03  0.47910650686E+03  0.00000000000E+00 0. -1.
         21   -1    0    0  502  503 -0.00000000000E+00 -0.00000000000E+00 -0.89446767563E+02  0.89446767563E+02  0.00000000000E+00 0. -1.
          6    1    1    2  501    0  0.60148432661E+02  0.40530508016E+02  0.71928048768E+02  0.20004549540E+03  0.17200000000E+03 0. -1.
         -6    1    1    2    0  503 -0.60148432661E+02 -0.40530508016E+02  0.31773169053E+03  0.36850777902E+03  0.17200000000E+03 0. -1.
</event>
<event>
 4    1  0.1181383E+000  0.1818365E+03  0.7818608E-02  0.1166037E+00
         21   -1    0    0  503  502  0.00000000000E+00  0.00000000000E+00  0.81435634306E+02  0.81435634306E+02  0.00000000000E+00 0. -1.
         21   -1    0    0  501  503 -0.00000000000E+00 -0.00000000000E+00 -0.43491700323E+03  0.43491700323E+03  0.00000000000E+00 0. -1.
          6    1    1    2  501    0 -0.38155394718E+02  0.44996606289E+02 -0.24328893094E+03  0.30373348950E+03  0.17200000000E+03 0. -1.
         -6    1    1    2    0  502  0.38155394718E+02 -0.44996606289E+02 -0.11019243798E+03  0.21261914803E+03  0.17200000000E+03 0. -1.
</event>
<event>
 4    1  0.1181383E+000  0.2030333E+03  0.7818608E-02  0.1147205E+00
         21   -1    0    0  501  502  0.00000000000E+00  0.00000000000E+00  0.54132557072E+03  0.54132557072E+03  0.00000000000E+00 0.  1.
         21   -1    0    0  502  503 -0.00000000000E+00 -0.00000000000E+00 -0.76646460126E+02  0.76646460126E+02  0.00000000000E+00 0.  1.
          6    1    1    2  501    0 -0.79792428910E+02 -0.72606487551E+02  0.20749927617E+03  0.29030756683E+03  0.17200000000E+03 0.  1.
         -6    1    1    2    0  503  0.79792428910E+02  0.72606487551E+02  0.25717983443E+03  0.32766446402E+03  0.17200000000E+03 0.  1.
</event>
<event>
 4    1  0.1181383E+000  0.1878632E+03  0.7818608E-02  0.1160403E+00
         21   -1    0    0  501  502  0.00000000000E+00  0.00000000000E+00  0.10366641818E+04  0.10366641818E+04  0.00000000000E+00 0.  1.
         21   -1    0    0  502  503 -0.00000000000E+00 -0.00000000000E+00 -0.93174829616E+02  0.93174829616E+02  0.00000000000E+00 0.  1.
          6    1    1    2  501    0 -0.55261959040E+02 -0.51523765920E+02  0.92177614302E+03  0.94072516731E+03  0.17200000000E+03 0.  1.
         -6    1    1    2    0  503  0.55261959040E+02  0.51523765920E+02  0.21713209139E+02  0.18911384408E+03  0.17200000000E+03 0.  1.
</event>
<event>
 4    1  0.1181383E+000  0.2138299E+03  0.7818608E-02  0.1138569E+00
         21   -1    0    0  503  502  0.00000000000E+00  0.00000000000E+00  0.31538962642E+02  0.31538962642E+02  0.00000000000E+00 0. -1.
         21   -1    0    0  501  503 -0.00000000000E+00 -0.00000000000E+00 -0.23255868805E+04  0.23255868805E+04  0.00000000000E+00 0.  1.
          6    1    1    2  501    0  0.81948762522E+02 -0.97075358384E+02 -0.18702951049E+04  0.18824789519E+04  0.17200000000E+03 0.  1.
         -6    1    1    2    0  502 -0.81948762522E+02  0.97075358384E+02 -0.42375281292E+03  0.47464689122E+03  0.17200000000E+03 0. -1.
</event>
<event>
 4    1  0.1181383E+000  0.1837762E+03  0.7818608E-02  0.1164198E+00
         21   -1    0    0  501  502  0.00000000000E+00  0.00000000000E+00  0.17976084309E+03  0.17976084309E+03  0.00000000000E+00 0.  1.
         21   -1    0    0  502  503 -0.00000000000E+00 -0.00000000000E+00 -0.32815567792E+03  0.32815567792E+03  0.00000000000E+00 0.  1.
          6    1    1    2  501    0  0.44185877180E+02  0.47300211105E+02  0.91842133763E+02  0.20544750971E+03  0.17200000000E+03 0.  1.
         -6    1    1    2    0  503 -0.44185877180E+02 -0.47300211105E+02 -0.24023696860E+03  0.30246901130E+03  0.17200000000E+03 0.  1.
</event>
<event>
 4    1  0.1181383E+000  0.1896925E+03  0.7818608E-02  0.1158739E+00
         21   -1    0    0  501  502  0.00000000000E+00  0.00000000000E+00  0.56183959372E+03  0.56183959372E+03  0.00000000000E+00 0.  1.
         21   -1    0    0  502  503 -0.00000000000E+00 -0.00000000000E+00 -0.94142239038E+02  0.94142239038E+02  0.00000000000E+00 0.  1.
          6    1    1    2  501    0  0.55147073699E+02 -0.57948695339E+02  0.41929997445E+03  0.46021268952E+03  0.17200000000E+03 0.  1.
         -6    1    1    2    0  503 -0.55147073699E+02  0.57948695339E+02  0.48397380238E+02  0.19576914323E+03  0.17200000000E+03 0.  1.
</event>
<event>
 4    1  0.1181383E+000  0.2044420E+03  0.7818608E-02  0.1146045E+00
         21   -1    0    0  503  502  0.00000000000E+00  0.00000000000E+00  0.64688543926E+02  0.64688543926E+02  0.00000000000E+00 0.  1.
         21   -1    0    0  501  503 -0.00000000000E+00 -0.00000000000E+00 -0.64868673639E+03  0.64868673639E+03  0.00000000000E+00 0.  1.
          6    1    1    2  501    0 -0.95990618671E+02  0.54756948491E+02 -0.26955959877E+03  0.33831774942E+03  0.17200000000E+03 0. -1.
         -6    1    1    2    0  502  0.95990618671E+02 -0.54756948491E+02 -0.31443859369E+03  0.37505753090E+03  0.17200000000E+03 0. -1.
</event>
<event>
 4    1  0.1181383E+000  0.1779616E+03  0.7818608E-02  0.1169791E+00
         21   -1    0    0  503  502  0.00000000000E+00  0.00000000000E+00  0.17891435804E+03  0.17891435804E+03  0.00000000000E+00 0. -1.
         21   -1    0    0  501  503 -0.00000000000E+00 -0.00000000000E+00 -0.25671070970E+03  0.25671070970E+03  0.00000000000E+00 0. -1.
          6    1    1    2  501    0 -0.37467926435E+02  0.26124278943E+02 -0.16025980992E+03  0.23948597065E+03  0.17200000000E+03 0. -1.
         -6    1    1    2    0  502  0.37467926435E+02 -0.26124278943E+02  0.82463458260E+02  0.19613909710E+03  0.17200000000E+03 0. -1.
</event>
<event>
 4    1  0.1181383E+000  0.2203750E+03  0.7818608E-02  0.1133604E+00
         21   -1    0    0  501  502  0.00000000000E+00  0.00000000000E+00  0.52994991464E+03  0.52994991464E+03  0.00000000000E+00 0.  1.
         21   -1    0    0  502  503 -0.00000000000E+00 -0.00000000000E+00 -0.10985219468E+03  0.10985219468E+03  0.00000000000E+00 0.  1.
          6    1    1    2  501    0  0.11131850841E+03 -0.81174658079E+02  0.34029972830E+03  0.40542451888E+03  0.17200000000E+03 0.  1.
         -6    1    1    2    0  503 -0.11131850841E+03  0.81174658079E+02  0.79797991655E+02  0.23437759044E+03  0.17200000000E+03 0.  1.
</event>
<event>
 4    1  0.1181383E+000  0.2070958E+03  0.7818608E-02  0.1143887E+00
         21   -1    0    0  501  502  0.00000000000E+00  0.00000000000E+00  0.11208186548E+04  0.11208186548E+04  0.00000000000E+00 0.  1.
         21   -1    0    0  502  503 -0.00000000000E+00 -0.00000000000E+00 -0.12548438141E+03  0.12548438141E+03  0.00000000000E+00 0. -1.
          6    1    1    2  501    0  0.75647445138E+02  0.87075509824E+02 -0.21855038457E+02  0.20824582366E+03  0.17200000000E+03 0. -1.
         -6    1    1    2    0  503 -0.75647445138E+02 -0.87075509824E+02  0.10171893118E+04  0.10380572125E+04  0.17200000000E+03 0.  1.
</event>
<event>
 4    1  0.1181383E+000  0.1896936E+03  0.7818608E-02  0.1158738E+00
         21   -1    0    0  503  502  0.00000000000E+00  0.00000000000E+00  0.64324802277E+03  0.64324802277E+03  0.00000000000E+00 0. -1.
         21   -1    0    0  501  503 -0.00000000000E+00 -0.00000000000E+00 -0.59822969920E+02  0.59822969920E+02  0.00000000000E+00 0. -1.
          6    1    1    2  501    0  0.79538768687E+02  0.85591489058E+01  0.20215870098E+03  0.27722159933E+03  0.17200000000E+03 0. -1.
         -6    1    1    2    0  502 -0.79538768687E+02 -0.85591489058E+01  0.38126635187E+03  0.42584939336E+03  0.17200000000E+03 0. -1.
</event>
<event>
 4    1  0.1181383E+000  0.1978855E+03  0.7818608E-02  0.1151535E+00
         21   -1    0    0  503  502  0.00000000000E+00  0.00000000000E+00  0.11985079491E+03  0.11985079491E+03  0.00000000000E+00 0. -1.
         21   -1    0    0  501  503 -0.00000000000E+00 -0.00000000000E+00 -0.33812274061E+03  0.33812274061E+03  0.00000000000E+00 0. -1.
          6    1    1    2  501    0  0.97674288987E+02  0.58670161175E+01 -0.15117116161E+03  0.24902090015E+03  0.17200000000E+03 0. -1.
         -6    1    1    2    0  502 -0.97674288987E+02 -0.58670161175E+01 -0.67100784090E+02  0.20895263538E+03  0.17200000000E+03 0. -1.
</event>
<event>
 4    1  0.1181383E+000  0.1869694E+03  0.7818608E-02  0.1161224E+00
         21   -1    0    0  503  502  0.00000000000E+00  0.00000000000E+00  0.12878206094E+04  0.12878206094E+04  0.00000000000E+00 0. -1.
         21   -1    0    0  501  503 -0.00000000000E+00 -0.00000000000E+00 -0.35549820986E+02  0.35549820986E+02  0.00000000000E+00 0. -1.
          6    1    1    2  501    0 -0.63893373317E+02  0.35933014081E+02  0.30439625714E+03  0.35723189389E+03  0.17200000000E+03 0.  1.
         -6    1    1    2    0  502  0.63893373317E+02 -0.35933014081E+02  0.94787453123E+03  0.96613853645E+03  0.17200000000E+03 0.  1.
</event>
<event>
 4    1  0.1181383E+000  0.1862129E+03  0.7818608E-02  0.1161922E+00
         21   -1    0    0  503  502  0.00000000000E+00  0.00000000000E+00  0.27092498047E+02  0.27092498047E+02  0.00000000000E+00 0. -1.
         21   -1    0    0  501  503 -0.00000000000E+00 -0.00000000000E+00 -0.30562835066E+04  0.30562835066E+04  0.00000000000E+00 0. -1.
          6    1    1    2  501    0 -0.75854231332E+01 -0.70948694037E+02 -0.26899530260E+04  0.26963906501E+04  0.17200000000E+03 0. -1.
         -6    1    1    2    0  502  0.75854231332E+01  0.70948694037E+02 -0.33923798254E+03  0.38698535453E+03  0.17200000000E+03 0. -1.
</event>
<event>
 4    1  0.1181383E+000  0.1931375E+03  0.7818608E-02  0.1155662E+00
         21   -1    0    0  501  502  0.00000000000E+00  0.00000000000E+00  0.92384410854E+03  0.92384410854E+03  0.00000000000E+00 0. -1.
         21   -1    0    0  502  503 -0.00000000000E+00 -0.00000000000E+00 -0.40897982423E+02  0.40897982423E+02  0.00000000000E+00 0. -1.
          6    1    1    2  501    0 -0.77907726117E+02 -0.40601400722E+02  0.38703201172E+03  0.43254579598E+03  0.17200000000E+03 0. -1.
         -6    1    1    2    0  503  0.77907726117E+02  0.40601400722E+02  0.49591411440E+03  0.53219629498E+03  0.17200000000E+03 0. -1.
</event>
<event>
 4    1  0.1181383E+000  0.1976792E+03  0.7818608E-02  0.1151712E+00
         21   -1    0    0  501  502  0.00000000000E+00  0.00000000000E+00  0.76378299298E+02  0.76378299298E+02  0.00000000000E+00 0.  1.
         21   -1    0    0  502  503 -0.00000000000E+00 -0.00000000000E+00 -0.67937795476E+03  0.67937795476E+03  0.00000000000E+00 0. -1.
          6    1    1    2  501    0 -0.57154279178E+02  0.78907970842E+02 -0.11372793933E+03  0.22805947399E+03  0.17200000000E+03 0.  1.
         -6    1    1    2    0  503  0.57154279178E+02 -0.78907970842E+02 -0.48927171613E+03  0.52769678007E+03  0.17200000000E+03 0. -1.
</event>
<event>
 4    1  0.1181383E+000  0.1922578E+03  0.7818608E-02  0.1156441E+00
         21   -1    0    0  503  502  0.00000000000E+00  0.00000000000E+00  0.11632054271E+03  0.11632054271E+03  0.00000000000E+00 0. -1.
         21   -1    0    0  501  503 -0.00000000000E+00 -0.00000000000E+00 -0.32781821771E+03  0.32781821771E+03  0.00000000000E+00 0. -1.
          6    1    1    2  501    0 -0.37013622587E+02 -0.77518076078E+02 -0.66867726414E+02  0.20355430040E+03  0.17200000000E+03 0.  1.
         -6    1    1    2    0  502  0.37013622587E+02  0.77518076078E+02 -0.14462994859E+03  0.24058446002E+03  0.17200000000E+03 0.  1.
</event>
<event>
 4    1  0.1181383E+000  0.1942615E+03  0.7818608E-02  0.1154673E+00
         21   -1    0    0  501  502  0.00000000000E+00  0.00000000000E+00  0.35079844899E+03  0.35079844899E+03  0.00000000000E+00 0.  1.
         21   -1    0    0  502  503 -0.00000000000E+00 -0.00000000000E+00 -0.11366964612E+03  0.11366964612E+03  0.00000000000E+00 0.  1.
          6    1    1    2  501    0 -0.88686581046E+02 -0.16977105060E+02  0.64794602562E+02  0.20478249992E+03  0.17200000000E+03 0.  1.
         -6    1    1    2    0  503  0.88686581046E+02  0.16977105060E+02  0.17233420031E+03  0.25968559519E+03  0.17200000000E+03 0.  1.
</event>
<event>
 4    1  0.1181383E+000  0.2063404E+03  0.7818608E-02  0.1144497E+00
         21   -1    0    0  503  502  0.00000000000E+00  0.00000000000E+00  0.13294033415E+03  0.13294033415E+03  0.00000000000E+00 0. -1.
         21   -1    0    0  501  503 -0.00000000000E+00 -0.00000000000E+00 -0.46547768359E+03  0.46547768359E+03  0.00000000000E+00 0. -1.
          6    1    1    2  501    0  0.96587377067E+02 -0.60524764148E+02 -0.33338731570E+03  0.39207584821E+03  0.17200000000E+03 0. -1.
         -6    1    1    2    0  502 -0.96587377067E+02  0.60524764148E+02  0.84996625888E+00  0.20634216953E+03  0.17200000000E+03 0. -1.
</event>
<event>
 4    1  0.1181383E+000  0.2083629E+03  0.7818608E-02  0.1142869E+00
         21   -1    0    0  503  502  0.00000000000E+00  0.00000000000E+00  0.41171346344E+03  0.41171346344E+03  0.00000000000E+00 0. -1.
         21   -1    0    0  501  503 -0.00000000000E+00 -0.00000000000E+00 -0.31999658386E+03  0.31999658386E+03  0.00000000000E+00 0.  1.
          6    1    1    2  501    0  0.75386330808E+02 -0.90266250789E+02 -0.25371090843E+03  0.32830522378E+03  0.17200000000E+03 0.  1.
         -6    1    1    2    0  502 -0.75386330808E+02  0.90266250789E+02  0.34542778801E+03  0.40340482351E+03  0.17200000000E+03 0. -1.
</event>
<event>
 4    1  0.1181383E+000  0.2178721E+03  0.7818608E-02  0.1135479E+00
         21   -1    0    0  503  502  0.00000000000E+00  0.00000000000E+00  0.88788509151E+02  0.88788509151E+02  0.00000000000E+00 0.  1.
         21   -1    0    0  501  503 -0.00000000000E+00 -0.00000000000E+00 -0.75091393309E+03  0.75091393309E+03  0.00000000000E+00 0.  1.
          6    1    1    2  501    0 -0.11868064307E+03  0.61637332000E+02 -0.55639368478E+03  0.59753007305E+03  0.17200000000E+03 0.  1.
         -6    1    1    2    0  502  0.11868064307E+03 -0.61637332000E+02 -0.10573173916E+03  0.24217236919E+03  0.17200000000E+03 0.  1.
</event>
<event>
 4    1  0.1181383E+000  0.1976679E+03  0.7818608E-02  0.1151722E+00
         21   -1    0    0  501  502  0.00000000000E+00  0.00000000000E+00  0.32376179954E+03  0.32376179954E+03  0.00000000000E+00 0.  1.
         21   -1    0    0  502  503 -0.00000000000E+00 -0.00000000000E+00 -0.34709658101E+03  0.34709658101E+03  0.00000000000E+00 0.  1.
          6    1    1    2  501    0 -0.91198383415E+02  0.34226716883E+02  0.25924366033E+03  0.32600596422E+03  0.17200000000E+03 0.  1.
         -6    1    1    2    0  503  0.91198383415E+02 -0.34226716883E+02 -0.28257844179E+03  0.34485241634E+03  0.17200000000E+03 0.  1.
</event>
<event>
 4    1  0.1181383E+000  0.1947830E+03  0.7818608E-02  0.1154217E+00
         21   -1    0    0  503  502  0.00000000000E+00  0.00000000000E+00  0.43263203337E+03  0.43263203337E+03  0.00000000000E+00 0. -1.
         21   -1    0    0  501  503 -0.00000000000E+00 -0.00000000000E+00 -0.17393783553E+03  0.17393783553E+03  0.00000000000E+00 0. -1.
          6    1    1    2  501    0  0.77324093274E+02 -0.48758508671E+02 -0.84208521264E+02  0.21220622663E+03  0.17200000000E+03 0. -1.
         -6    1    1    2    0  502 -0.77324093274E+02  0.48758508671E+02  0.34290271911E+03  0.39436364226E+03  0.17200000000E+03 0. -1.
</event>
<event>
 4    1  0.1181383E+000  0.1805171E+03  0.7818608E-02  0.1167304E+00
         21   -1    0    0  501  502  0.00000000000E+00  0.00000000000E+00  0.28098373830E+02  0.28098373830E+02  0.00000000000E+00 0. -1.
         21   -1    0    0  502  503 -0.00000000000E+00 -0.00000000000E+00 -0.12433349730E+04  0.12433349730E+04  0.00000000000E+00 0.  1.
          6    1    1    2  501    0  0.42930558678E+02 -0.34049832550E+02 -0.77247063889E+03  0.79328261793E+03  0.17200000000E+03 0.  1.
         -6    1    1    2    0  503 -0.42930558678E+02  0.34049832550E+02 -0.44276596030E+03  0.47815072892E+03  0.17200000000E+03 0. -1.
</event>
<event>
 4    1  0.1181383E+000  0.2503242E+03  0.7818608E-02  0.1113100E+00
         21   -1    0    0  501  502  0.00000000000E+00  0.00000000000E+00  0.92117030014E+03  0.92117030014E+03  0.00000000000E+00 0. -1.
         21   -1    0    0  502  503 -0.00000000000E+00 -0.00000000000E+00 -0.75068096242E+02  0.75068096242E+02  0.00000000000E+00 0. -1.
          6    1    1    2  501    0 -0.70090417336E+02  0.16782593372E+03  0.57563220351E+03  0.62770585814E+03  0.17200000000E+03 0. -1.
         -6    1    1    2    0  503  0.70090417336E+02 -0.16782593372E+03  0.27047000038E+03  0.36853253824E+03  0.17200000000E+03 0. -1.
</event>
<event>
 4    1  0.1181383E+000  0.1915219E+03  0.7818608E-02  0.1157096E+00
         21   -1    0    0  503  502  0.00000000000E+00  0.00000000000E+00  0.11409493583E+04  0.11409493583E+04  0.00000000000E+00 0. -1.
         21   -1    0    0  501  503 -0.00000000000E+00 -0.00000000000E+00 -0.43714265693E+02  0.43714265693E+02  0.00000000000E+00 0.  1.
          6    1    1    2  501    0  0.30009219206E+02  0.78715168244E+02  0.24394932543E+03  0.31014819736E+03  0.17200000000E+03 0.  1.
         -6    1    1    2    0  502 -0.30009219206E+02 -0.78715168244E+02  0.85328576722E+03  0.87451542667E+03  0.17200000000E+03 0. -1.
</event>
<event>
 4    1  0.1181383E+000  0.2508063E+03  0.7818608E-02  0.1112796E+00
         21   -1    0    0  503  502  0.00000000000E+00  0.00000000000E+00  0.24821890649E+03  0.24821890649E+03  0.00000000000E+00 0.  1.
         21   -1    0    0  501  503 -0.00000000000E+00 -0.00000000000E+00 -0.91457660957E+03  0.91457660957E+03  0.00000000000E+00 0.  1.
          6    1    1    2  501    0  0.18003495579E+03  0.30119905788E+02 -0.82750691860E+03  0.86467999535E+03  0.17200000000E+03 0.  1.
         -6    1    1    2    0  502 -0.18003495579E+03 -0.30119905788E+02  0.16114921552E+03  0.29811552072E+03  0.17200000000E+03 0.  1.
</event>
<event>
 4    1  0.1181383E+000  0.2129026E+03  0.7818608E-02  0.1139288E+00
         21   -1    0    0  503  502  0.00000000000E+00  0.00000000000E+00  0.42796954163E+02  0.42796954163E+02  0.00000000000E+00 0.  1.
         21   -1    0    0  501  503 -0.00000000000E+00 -0.00000000000E+00 -0.13134653997E+04  0.13134653997E+04  0.00000000000E+00 0. -1.
          6    1    1    2  501    0  0.54415599323E+00 -0.12547205636E+03 -0.33692798361E+03  0.39855739759E+03  0.17200000000E+03 0.  1.
         -6    1    1    2    0  502 -0.54415599323E+00  0.12547205636E+03 -0.93374046193E+03  0.95770495628E+03  0.17200000000E+03 0. -1.
</event>
<event>
 4    1  0.1181383E+000  0.2034114E+03  0.7818608E-02  0.1146892E+00
         21   -1    0    0  503  502  0.00000000000E+00  0.00000000000E+00  0.38638872581E+03  0.38638872581E+03  0.00000000000E+00 0. -1.
         21   -1    0    0  501  503 -0.00000000000E+00 -0.00000000000E+00 -0.10713870916E+03  0.10713870916E+03  0.00000000000E+00 0.  1.
          6    1    1    2  501    0 -0.10413649349E+03 -0.30785879514E+02  0.13406589626E+03  0.24361823453E+03  0.17200000000E+03 0.  1.
         -6    1    1    2    0  502  0.10413649349E+03  0.30785879514E+02  0.14518412039E+03  0.24990920045E+03  0.17200000000E+03 0.  1.
</event>
<event>
 4    1  0.1181383E+000  0.1725141E+03  0.7818608E-02  0.1175251E+00
         21   -1    0    0  503  502  0.00000000000E+00  0.00000000000E+00  0.10764457403E+04  0.10764457403E+04  0.00000000000E+00 0.  1.
         21   -1    0    0  501  503 -0.00000000000E+00 -0.00000000000E+00 -0.59250544384E+02  0.59250544384E+02  0.00000000000E+00 0.  1.
          6    1    1    2  501    0 -0.49283957385E+01  0.12362903838E+02  0.92331272710E+03  0.93929096796E+03  0.17200000000E+03 0.  1.
         -6    1    1    2    0  502  0.49283957385E+01 -0.12362903838E+02  0.93882468774E+02  0.19640531668E+03  0.17200000000E+03 0.  1.
</event>
<event>
 4    1  0.1181383E+000  0.1944100E+03  0.7818608E-02  0.1154543E+00
         21   -1    0    0  503  502  0.00000000000E+00  0.00000000000E+00  0.35041185031E+03  0.35041185031E+03  0.00000000000E+00 0.  1.
         21   -1    0    0  501  503 -0.00000000000E+00 -0.00000000000E+00 -0.10875888229E+03  0.10875888229E+03  0.00000000000E+00 0.  1.
          6    1    1    2  501    0 -0.36126324770E+02 -0.83103238133E+02  0.14170383274E+03  0.24057272443E+03  0.17200000000E+03 0. -1.
         -6    1    1    2    0  502  0.36126324770E+02  0.83103238133E+02  0.99949135286E+02  0.21859800817E+03  0.17200000000E+03 0. -1.
</event>
<event>
 4    1  0.1181383E+000  0.1815778E+03  0.7818608E-02  0.1166285E+00
         21   -1    0    0  503  502  0.00000000000E+00  0.00000000000E+00  0.79984202767E+02  0.79984202767E+02  0.00000000000E+00 0. -1.
         21   -1    0    0  501  503 -0.00000000000E+00 -0.00000000000E+00 -0.60455765605E+03  0.60455765605E+03  0.00000000000E+00 0. -1.
          6    1    1    2  501    0 -0.43021116928E+02  0.39187605927E+02 -0.45534651412E+03  0.49021519038E+03  0.17200000000E+03 0. -1.
         -6    1    1    2    0  502  0.43021116928E+02 -0.39187605927E+02 -0.69226939168E+02  0.19432666844E+03  0.17200000000E+03 0. -1.
</event>
<event>
 4    1  0.1181383E+000  0.1883811E+03  0.7818608E-02  0.1159930E+00
         21   -1    0    0  501  502  0.00000000000E+00  0.00000000000E+00  0.39632615758E+03  0.39632615758E+03  0.00000000000E+00 0.  1.
         21   -1    0    0  502  503 -0.00000000000E+00 -0.00000000000E+00 -0.11752333554E+03  0.11752333554E+03  0.00000000000E+00 0.  1.
          6    1    1    2  501    0  0.27822631267E+02 -0.71619456046E+02  0.26476914264E+03  0.32494637125E+03  0.17200000000E+03 0.  1.
         -6    1    1    2    0  503 -0.27822631267E+02  0.71619456046E+02  0.14033679402E+02  0.18890312187E+03  0.17200000000E+03 0.  1.
</event>
<event>
 4    1  0.1181383E+000  0.2499152E+03  0.7818608E-02  0.1113358E+00
         21   -1    0    0  503  502  0.00000000000E+00  0.00000000000E+00  0.69630435031E+03  0.69630435031E+03  0.00000000000E+00 0.  1.
         21   -1    0    0  501  503 -0.00000000000E+00 -0.00000000000E+00 -0.90654620599E+02  0.90654620599E+02  0.00000000000E+00 0.  1.
          6    1    1    2  501    0 -0.25921343030E+02 -0.17944835045E+03  0.34322918123E+03  0.42457496082E+03  0.17200000000E+03 0.  1.
         -6    1    1    2    0  502  0.25921343030E+02  0.17944835045E+03  0.26242054848E+03  0.36238401009E+03  0.17200000000E+03 0.  1.
</event>
<event>
 4    1  0.1181383E+000  0.1954431E+03  0.7818608E-02  0.1153642E+00
         21   -1    0    0  501  502  0.00000000000E+00  0.00000000000E+00  0.34941284607E+03  0.34941284607E+03  0.00000000000E+00 0.  1.
         21   -1    0    0  502  503 -0.00000000000E+00 -0.00000000000E+00 -0.13816943962E+03  0.13816943962E+03  0.00000000000E+00 0.  1.
          6    1    1    2  501    0  0.57756628355E+02  0.72651063949E+02  0.21701946398E+03  0.29205385284E+03  0.17200000000E+03 0.  1.
         -6    1    1    2    0  503 -0.57756628355E+02 -0.72651063949E+02 -0.57760575264E+01  0.19552843285E+03  0.17200000000E+03 0.  1.
</event>
<event>
 4    1  0.1181383E+000  0.1794804E+03  0.7818608E-02  0.1168307E+00
         21   -1    0    0  503  502  0.00000000000E+00  0.00000000000E+00  0.39911003318E+03  0.39911003318E+03  0.00000000000E+00 0. -1.
         21   -1    0    0  501  503 -0.00000000000E+00 -0.00000000000E+00 -0.32901883598E+03  0.32901883598E+03  0.00000000000E+00 0. -1.
          6    1    1    2  501    0  0.37834036038E+02 -0.34609213577E+02 -0.28122708215E+03  0.33361936946E+03  0.17200000000E+03 0. -1.
         -6    1    1    2    0  502 -0.37834036038E+02  0.34609213577E+02  0.35131827935E+03  0.39450949970E+03  0.17200000000E+03 0. -1.
</event>
<event>
 4    1  0.1181383E+000  0.2496133E+03  0.7818608E-02  0.1113549E+00
         21   -1    0    0  501  502  0.00000000000E+00  0.00000000000E+00  0.55818124039E+02  0.55818124039E+02  0.00000000000E+00 0. -1.
         21   -1    0    0  502  503 -0.00000000000E+00 -0.00000000000E+00 -0.11251310707E+04  0.11251310707E+04  0.00000000000E+00 0. -1.
          6    1    1    2  501    0  0.18075124323E+03 -0.71950390914E+01 -0.58712756570E+03  0.63798554758E+03  0.17200000000E+03 0.  1.
         -6    1    1    2    0  503 -0.18075124323E+03  0.71950390914E+01 -0.48218538094E+03  0.54296364713E+03  0.17200000000E+03 0.  1.
</event>
<event>
 4    1  0.1181383E+000  0.1939938E+03  0.7818608E-02  0.1154908E+00
         21   -1    0    0  503  502  0.00000000000E+00  0.00000000000E+00  0.16928208528E+04  0.16928208528E+04  0.00000000000E+00 0.  1.
         21   -1    0    0  501  503 -0.00000000000E+00 -0.00000000000E+00 -0.27256324975E+02  0.27256324975E+02  0.00000000000E+00 0.  1.
          6    1    1    2  501    0  0.79391642257E+02 -0.41791869974E+02  0.46350396801E+03  0.50246345302E+03  0.17200000000E+03 0.  1.
         -6    1    1    2    0  502 -0.79391642257E+02  0.41791869974E+02  0.12020605598E+04  0.12176137247E+04  0.17200000000E+03 0.  1.
</event>
<event>
 4    1  0.1181383E+000  0.1772178E+03  0.7818608E-02  0.1170523E+00
         21   -1    0    0  501  502  0.00000000000E+00  0.00000000000E+00  0.17059161189E+03  0.17059161189E+03  0.00000000000E+00 0. -1.
         21   -1    0    0  502  503 -0.00000000000E+00 -0.00000000000E+00 -0.18468304300E+03  0.18468304300E+03  0.00000000000E+00 0. -1.
          6    1    1    2  501    0  0.40701826342E+02 -0.12864479842E+02 -0.17015713607E+02  0.17803277232E+03  0.17200000000E+03 0.  1.
         -6    1    1    2    0  503 -0.40701826342E+02  0.12864479842E+02  0.29242824953E+01  0.17724188257E+03  0.17200000000E+03 0.  1.
</event>
<event>
 4    1  0.1181383E+000  0.2356216E+03  0.7818608E-02  0.1122744E+00
         21   -1    0    0  503  502  0.00000000000E+00  0.00000000000E+00  0.41219676068E+03  0.41219676068E+03  0.00000000000E+00 0. -1.
         21   -1    0    0  501  503 -0.00000000000E+00 -0.00000000000E+00 -0.16730878785E+03  0.16730878785E+03  0.00000000000E+00 0. -1.
          6    1    1    2  501    0  0.98027230856E+02 -0.12776622845E+03 -0.55006467382E+01  0.23568581679E+03  0.17200000000E+03 0.  1.
         -6    1    1    2    0  502 -0.98027230856E+02  0.12776622845E+03  0.25038861957E+03  0.34381973174E+03  0.17200000000E+03 0.  1.
</event>
<event>
 4    1  0.1181383E+000  0.2126996E+03  0.7818608E-02  0.1139446E+00
         21   -1    0    0  501  502  0.00000000000E+00  0.00000000000E+00  0.13555830375E+04  0.13555830375E+04  0.00000000000E+00 0.  1.
         21   -1    0    0  502  503 -0.00000000000E+00 -0.00000000000E+00 -0.33646719544E+02  0.33646719544E+02  0.00000000000E+00 0. -1.
          6    1    1    2  501    0 -0.12512715638E+03  0.56929463554E+00  0.72351263417E+03  0.75412973762E+03  0.17200000000E+03 0.  1.
         -6    1    1    2    0  503  0.12512715638E+03 -0.56929463554E+00  0.59842368383E+03  0.63510001947E+03  0.17200000000E+03 0. -1.
</event>
<event>
 4    1  0.1181383E+000  0.2467069E+03  0.7818608E-02  0.1115404E+00
         21   -1    0    0  503  502  0.00000000000E+00  0.00000000000E+00  0.69134368241E+02  0.69134368241E+02  0.00000000000E+00 0.  1.
         21   -1    0    0  501  503 -0.00000000000E+00 -0.00000000000E+00 -0.88082399046E+03  0.88082399046E+03  0.00000000000E+00 0. -1.
          6    1    1    2  501    0 -0.16477300991E+03 -0.64266266662E+02 -0.41654640729E+03  0.48412313233E+03  0.17200000000E+03 0.  1.
         -6    1    1    2    0  502  0.16477300991E+03  0.64266266662E+02 -0.39514321493E+03  0.46583522637E+03  0.17200000000E+03 0. -1.
</event>
<event>
 4    1  0.1181383E+000  0.1724268E+03  0.7818608E-02  0.1175340E+00
         21   -1    0    0  501  502  0.00000000000E+00  0.00000000000E+00  0.16300257477E+04  0.16300257477E+04  0.00000000000E+00 0. -1.
         21   -1    0    0  502  503 -0.00000000000E+00 -0.00000000000E+00 -0.18642217618E+02  0.18642217618E+02  0.00000000000E+00 0. -1.
          6    1    1    2  501    0  0.12080443569E+02  0.10288373442E+01  0.92683748782E+03  0.94274000894E+03  0.17200000000E+03 0.  1.
         -6    1    1    2    0  503 -0.12080443569E+02 -0.10288373442E+01  0.68454604228E+03  0.70592795640E+03  0.17200000000E+03 0.  1.
</event>
<event>
 4    1  0.1181383E+000  0.2192082E+03  0.7818608E-02  0.1134475E+00
         21   -1    0    0  501  502  0.00000000000E+00  0.00000000000E+00  0.26931775075E+03  0.26931775075E+03  0.00000000000E+00 0.  1.
         21   -1    0    0  502  503 -0.00000000000E+00 -0.00000000000E+00 -0.32635490775E+03  0.32635490775E+03  0.00000000000E+00 0.  1.
          6    1    1    2  501    0 -0.13371976698E+03  0.24233447002E+02  0.17200472976E+03  0.27863571755E+03  0.17200000000E+03 0.  1.
         -6    1    1    2    0  503  0.13371976698E+03 -0.24233447002E+02 -0.22904188677E+03  0.31703694095E+03  0.17200000000E+03 0.  1.
</event>
<event>
 4    1  0.1181383E+000  0.1995925E+03  0.7818608E-02  0.1150083E+00
         21   -1    0    0  503  502  0.00000000000E+00  0.00000000000E+00  0.14647492599E+03  0.14647492599E+03  0.00000000000E+00 0. -1.
         21   -1    0    0  501  503 -0.00000000000E+00 -0.00000000000E+00 -0.27383013330E+03  0.27383013330E+03  0.00000000000E+00 0.  1.
          6    1    1    2  501    0  0.14370398794E+02  0.10023295367E+03 -0.80986634703E+02  0.21539728030E+03  0.17200000000E+03 0. -1.
         -6    1    1    2    0  502 -0.14370398794E+02 -0.10023295367E+03 -0.46368572604E+02  0.20490777898E+03  0.17200000000E+03 0. -1.
</event>
<event>
 4    1  0.1181383E+000  0.1842867E+03  0.7818608E-02  0.1163718E+00
         21   -1    0    0  501  502  0.00000000000E+00  0.00000000000E+00  0.21939348134E+03  0.21939348134E+03  0.00000000000E+00 0. -1.
         21   -1    0    0  502  503 -0.00000000000E+00 -0.00000000000E+00 -0.15480511434E+03  0.15480511434E+03  0.00000000000E+00 0. -1.
          6    1    1    2  501    0  0.66074227496E+02 -0.34346050687E+01  0.33591509641E+02  0.18732322219E+03  0.17200000000E+03 0.  1.
         -6    1    1    2    0  503 -0.66074227496E+02  0.34346050687E+01  0.30996857353E+02  0.18687537349E+03  0.17200000000E+03 0.  1.
</event>
<event>
 4    1  0.1181383E+000  0.2318063E+03  0.7818608E-02  0.1125375E+00
         21   -1    0    0  501  502  0.00000000000E+00  0.00000000000E+00  0.63100289668E+03  0.63100289668E+03  0.00000000000E+00 0.  1.
         21   -1    0    0  502  503 -0.00000000000E+00 -0.00000000000E+00 -0.85405977815E+02  0.85405977815E+02  0.00000000000E+00 0.  1.
          6    1    1    2  501    0  0.13953891217E+01 -0.15539691312E+03  0.25344777148E+03  0.34346749567E+03  0.17200000000E+03 0.  1.
         -6    1    1    2    0  503 -0.13953891217E+01  0.15539691312E+03  0.29214914739E+03  0.37294137882E+03  0.17200000000E+03 0.  1.
</event>
<event>
 4    1  0.1181383E+000  0.1822470E+03  0.7818608E-02  0.1165646E+00
         21   -1    0    0  503  502  0.00000000000E+00  0.00000000000E+00  0.28347053610E+03  0.28347053610E+03  0.00000000000E+00 0.  1.
         21   -1    0    0  501  503 -0.00000000000E+00 -0.00000000000E+00 -0.15872417653E+03  0.15872417653E+03  0.00000000000E+00 0.  1.
          6    1    1    2  501    0 -0.12189494415E+02  0.59003257016E+02  0.17550230026E+03  0.25301190784E+03  0.17200000000E+03 0.  1.
         -6    1    1    2    0  502  0.12189494415E+02 -0.59003257016E+02 -0.50755940695E+02  0.18918280479E+03  0.17200000000E+03 0.  1.
</event>
<event>
 4    1  0.1181383E+000  0.2102343E+03  0.7818608E-02  0.1141381E+00
         21   -1    0    0  501  502  0.00000000000E+00  0.00000000000E+00  0.25826361011E+04  0.25826361011E+04  0.00000000000E+00 0. -1.
         21   -1    0    0  502  503 -0.00000000000E+00 -0.00000000000E+00 -0.28657558065E+02  0.28657558065E+02  0.00000000000E+00 0.  1.
          6    1    1    2  501    0  0.12082666216E+03 -0.39239470410E+01  0.21056589919E+04  0.21161281317E+04  0.17200000000E+03 0. -1.
         -6    1    1    2    0  503 -0.12082666216E+03  0.39239470410E+01  0.44831955114E+03  0.49516552746E+03  0.17200000000E+03 0.  1.
</event>
<event>
 4    1  0.1181383E+000  0.2068497E+03  0.7818608E-02  0.1144085E+00
         21   -1    0    0  503  502  0.00000000000E+00  0.00000000000E+00  0.34988290798E+03  0.34988290798E+03  0.00000000000E+00 0. -1.
         21   -1    0    0  501  503 -0.00000000000E+00 -0.00000000000E+00 -0.16758006035E+03  0.16758006035E+03  0.00000000000E+00 0. -1.
          6    1    1    2  501    0  0.19490668010E+02 -0.11323837671E+03 -0.43355473859E+02  0.21134453674E+03  0.17200000000E+03 0. -1.
         -6    1    1    2    0  502 -0.19490668010E+02  0.11323837671E+03  0.22565832149E+03  0.30611843158E+03  0.17200000000E+03 0. -1.
</event>
<event>
 4    1  0.1181383E+000  0.1757453E+03  0.7818608E-02  0.1171985E+00
         21   -1    0    0  501  502  0.00000000000E+00  0.00000000000E+00  0.12453142118E+04  0.12453142118E+04  0.00000000000E+00 0. -1.
         21   -1    0    0  502  503 -0.00000000000E+00 -0.00000000000E+00 -0.32047453919E+02  0.32047453919E+02  0.00000000000E+00 0. -1.
          6    1    1    2  501    0  0.18072355002E+02 -0.31237569979E+02  0.91031408732E+03  0.92712358042E+03  0.17200000000E+03 0. -1.
         -6    1    1    2    0  503 -0.18072355002E+02  0.31237569979E+02  0.30295267054E+03  0.35023808528E+03  0.17200000000E+03 0. -1.
</event>
<event>
 4    1  0.1181383E+000  0.1721910E+03  0.7818608E-02  0.1175582E+00
         21   -1    0    0  503  502  0.00000000000E+00  0.00000000000E+00  0.26942530594E+03  0.26942530594E+03  0.00000000000E+00 0.  1.
         21   -1    0    0  501  503 -0.00000000000E+00 -0.00000000000E+00 -0.11904153403E+03  0.11904153403E+03  0.00000000000E+00 0.  1.
          6    1    1    2  501    0 -0.52846322901E+01  0.61480186060E+01  0.21804451885E+02  0.17356600933E+03  0.17200000000E+03 0.  1.
         -6    1    1    2    0  502  0.52846322901E+01 -0.61480186060E+01  0.12857932002E+03  0.21490083064E+03  0.17200000000E+03 0.  1.
</event>
<event>
 4    1  0.1181383E+000  0.2304159E+03  0.7818608E-02  0.1126347E+00
         21   -1    0    0  501  502  0.00000000000E+00  0.00000000000E+00  0.42899440808E+03  0.42899440808E+03  0.00000000000E+00 0.  1.
         21   -1    0    0  502  503 -0.00000000000E+00 -0.00000000000E+00 -0.13496608306E+03  0.13496608306E+03  0.00000000000E+00 0.  1.
          6    1    1    2  501    0 -0.14911973609E+03 -0.35648451972E+02  0.22827311620E+03  0.32434568503E+03  0.17200000000E+03 0.  1.
         -6    1    1    2    0  503  0.14911973609E+03  0.35648451972E+02  0.65755208822E+02  0.23961480611E+03  0.17200000000E+03 0.  1.
</event>
<event>
 4    1  0.1181383E+000  0.1816851E+03  0.7818608E-02  0.1166182E+00
         21   -1    0    0  503  502  0.00000000000E+00  0.00000000000E+00  0.19886405951E+03  0.19886405951E+03  0.00000000000E+00 0.  1.
         21   -1    0    0  501  503 -0.00000000000E+00 -0.00000000000E+00 -0.17851803528E+03  0.17851803528E+03  0.00000000000E+00 0.  1.
          6    1    1    2  501    0  0.16346101215E+02 -0.56198443586E+02 -0.39813223925E+02  0.18599610987E+03  0.17200000000E+03 0.  1.
         -6    1    1    2    0  502 -0.16346101215E+02  0.56198443586E+02  0.60159248162E+02  0.19138598493E+03  0.17200000000E+03 0.  1.
</event>
<event>
 4    1  0.1181383E+000  0.1759578E+03  0.7818608E-02  0.1171773E+00
         21   -1    0    0  501  502  0.00000000000E+00  0.00000000000E+00  0.93768928464E+02  0.93768928464E+02  0.00000000000E+00 0.  1.
         21   -1    0    0  502  503 -0.00000000000E+00 -0.00000000000E+00 -0.84307934213E+03  0.84307934213E+03  0.00000000000E+00 0.  1.
          6    1    1    2  501    0 -0.17865277736E+02 -0.32526343162E+02 -0.92970357655E+01  0.17620319527E+03  0.17200000000E+03 0.  1.
         -6    1    1    2    0  503  0.17865277736E+02  0.32526343162E+02 -0.74001337790E+03  0.76064507532E+03  0.17200000000E+03 0.  1.
</event>
<event>
 4    1  0.1181383E+000  0.1748051E+03  0.7818608E-02  0.1172928E+00
         21   -1    0    0  503  502  0.00000000000E+00  0.00000000000E+00  0.30897163011E+03  0.30897163011E+03  0.00000000000E+00 0.  1.
         21   -1    0    0  501  503 -0.00000000000E+00 -0.00000000000E+00 -0.10272741766E+03  0.10272741766E+03  0.00000000000E+00 0.  1.
          6    1    1    2  501    0  0.17385542925E+02 -0.25895409362E+02  0.14286367052E+03  0.22575840556E+03  0.17200000000E+03 0.  1.
         -6    1    1    2    0  502 -0.17385542925E+02  0.25895409362E+02  0.63380541936E+02  0.18594064221E+03  0.17200000000E+03 0.  1.
</event>
<event>
 4    1  0.1181383E+000  0.1820626E+03  0.7818608E-02  0.1165822E+00
         21   -1    0    0  503  502  0.00000000000E+00  0.00000000000E+00  0.71070133155E+02  0.71070133155E+02  0.00000000000E+00 0.  1.
         21   -1    0    0  501  503 -0.00000000000E+00 -0.00000000000E+00 -0.11653310774E+04  0.11653310774E+04  0.00000000000E+00 0.  1.
          6    1    1    2  501    0 -0.58348792811E+02 -0.12578466031E+02 -0.10258964661E+04  0.10419262731E+04  0.17200000000E+03 0.  1.
         -6    1    1    2    0  502  0.58348792811E+02  0.12578466031E+02 -0.68364478168E+02  0.19447493747E+03  0.17200000000E+03 0.  1.
</event>
<event>
 4    1  0.1181383E+000  0.1860050E+03  0.7818608E-02  0.1162115E+00
         21   -1    0    0  503  502  0.00000000000E+00  0.00000000000E+00  0.13897813826E+03  0.13897813826E+03  0.00000000000E+00 0.  1.
         21   -1    0    0  501  503 -0.00000000000E+00 -0.00000000000E+00 -0.10370750612E+04  0.10370750612E+04  0.00000000000E+00 0.  1.
          6    1    1    2  501    0 -0.61470364475E+02  0.35146293115E+02 -0.96166299181E+03  0.97948638451E+03  0.17200000000E+03 0.  1.
         -6    1    1    2    0  502  0.61470364475E+02 -0.35146293115E+02  0.63566068862E+02  0.19656681495E+03  0.17200000000E+03 0.  1.
</event>
<event>
 4    1  0.1181383E+000  0.2857839E+03  0.7818608E-02  0.1092571E+00
         21   -1    0    0  501  502  0.00000000000E+00  0.00000000000E+00  0.84423285344E+03  0.84423285344E+03  0.00000000000E+00 0. -1.
         21   -1    0    0  502  503 -0.00000000000E+00 -0.00000000000E+00 -0.97215739788E+02  0.97215739788E+02  0.00000000000E+00 0. -1.
          6    1    1    2  501    0 -0.15553174593E+03  0.16702795442E+03  0.34063564211E+03  0.44464041901E+03  0.17200000000E+03 0. -1.
         -6    1    1    2    0  503  0.15553174593E+03 -0.16702795442E+03  0.40638147154E+03  0.49680817421E+03  0.17200000000E+03 0. -1.
</event>
<event>
 4    1  0.1181383E+000  0.2171200E+03  0.7818608E-02  0.1136049E+00
         21   -1    0    0  501  502  0.00000000000E+00  0.00000000000E+00  0.30369417585E+03  0.30369417585E+03  0.00000000000E+00 0. -1.
         21   -1    0    0  502  503 -0.00000000000E+00 -0.00000000000E+00 -0.20662046282E+03  0.20662046282E+03  0.00000000000E+00 0. -1.
          6    1    1    2  501    0  0.13184762587E+03 -0.13164674696E+02  0.17579374455E+03  0.27936453914E+03  0.17200000000E+03 0. -1.
         -6    1    1    2    0  503 -0.13184762587E+03  0.13164674696E+02 -0.78720031522E+02  0.23095009953E+03  0.17200000000E+03 0. -1.
</event>
<event>
 4    1  0.1181383E+000  0.3097595E+03  0.7818608E-02  0.1080461E+00
         21   -1    0    0  501  502  0.00000000000E+00  0.00000000000E+00  0.47864514834E+03  0.47864514834E+03  0.00000000000E+00 0.  1.
         21   -1    0    0  502  503 -0.00000000000E+00 -0.00000000000E+00 -0.21557926492E+03  0.21557926492E+03  0.00000000000E+00 0. -1.
          6    1    1    2  501    0 -0.11333415262E+03  0.23134892861E+03  0.22344641966E+03  0.38194143449E+03  0.17200000000E+03 0.  1.
         -6    1    1    2    0  503  0.11333415262E+03 -0.23134892861E+03  0.39619463760E+02  0.31228297877E+03  0.17200000000E+03 0. -1.
</event>
<event>
 4    1  0.1181383E+000  0.2286828E+03  0.7818608E-02  0.1127570E+00
         21   -1    0    0  503  502  0.00000000000E+00  0.00000000000E+00  0.11775978556E+04  0.11775978556E+04  0.00000000000E+00 0. -1.
         21   -1    0    0  501  503 -0.00000000000E+00 -0.00000000000E+00 -0.47657955699E+02  0.47657955699E+02  0.00000000000E+00 0. -1.
          6    1    1    2  501    0 -0.11720586653E+03  0.94734422271E+02  0.72492855960E+03  0.76014290922E+03  0.17200000000E+03 0. -1.
         -6    1    1    2    0  502  0.11720586653E+03 -0.94734422271E+02  0.40501134032E+03  0.46511290210E+03  0.17200000000E+03 0. -1.
</event>
<event>
 4    1  0.1181383E+000  0.2584894E+03  0.7818608E-02  0.1108054E+00
         21   -1    0    0  501  502  0.00000000000E+00  0.00000000000E+00  0.27338899496E+03  0.27338899496E+03  0.00000000000E+00 0.  1.
         21   -1    0    0  502  503 -0.00000000000E+00 -0.00000000000E+00 -0.25008961518E+03  0.25008961518E+03  0.00000000000E+00 0. -1.
          6    1    1    2  501    0  0.18557713021E+03  0.52857449895E+02  0.51121880469E+02  0.26349616302E+03  0.17200000000E+03 0. -1.
         -6    1    1    2    0  503 -0.18557713021E+03 -0.52857449895E+02 -0.27822500684E+02  0.25998244712E+03  0.17200000000E+03 0.  1.
</event>
<event>
 4    1  0.1181383E+000  0.2946912E+03  0.7818608E-02  0.1087925E+00
         21   -1    0    0  501  502  0.00000000000E+00  0.00000000000E+00  0.66519822634E+03  0.66519822634E+03  0.00000000000E+00 0. -1.
         21   -1    0    0  502  503 -0.00000000000E+00 -0.00000000000E+00 -0.28527386647E+03  0.28527386647E+03  0.00000000000E+00 0. -1.
          6    1    1    2  501    0 -0.92861717627E+02  0.22053487738E+03  0.53995109319E+03  0.61513422420E+03  0.17200000000E+03 0. -1.
         -6    1    1    2    0  503  0.92861717627E+02 -0.22053487738E+03 -0.16002673332E+03  0.33533786861E+03  0.17200000000E+03 0. -1.
</event>
<event>
 4    1  0.1181383E+000  0.2345973E+03  0.7818608E-02  0.1123445E+00
         21   -1    0    0  501  502  0.00000000000E+00  0.00000000000E+00  0.40988948252E+03  0.40988948252E+03  0.00000000000E+00 0.  1.
         21   -1    0    0  502  503 -0.00000000000E+00 -0.00000000000E+00 -0.17248552531E+03  0.17248552531E+03  0.00000000000E+00 0.  1.
          6    1    1    2  501    0 -0.15120232431E+03 -0.50889550352E+02  0.25576362020E+03  0.34706039623E+03  0.17200000000E+03 0.  1.
         -6    1    1    2    0  503  0.15120232431E+03  0.50889550352E+02 -0.18359662982E+02  0.23531461161E+03  0.17200000000E+03 0.  1.
</event>
<event>
 4    1  0.1181383E+000  0.3475718E+03  0.7818608E-02  0.1063616E+00
         21   -1    0    0  501  502  0.00000000000E+00  0.00000000000E+00  0.36695034360E+03  0.36695034360E+03  0.00000000000E+00 0. -1.
         21   -1    0    0  502  503 -0.00000000000E+00 -0.00000000000E+00 -0.44150473301E+03  0.44150473301E+03  0.00000000000E+00 0.  1.
          6    1    1    2  501    0  0.27295288101E+03  0.12930140297E+03  0.16657961908E+03  0.38542820026E+03  0.17200000000E+03 0. -1.
         -6    1    1    2    0  503 -0.27295288101E+03 -0.12930140297E+03 -0.24113400849E+03  0.42302687635E+03  0.17200000000E+03 0.  1.
</event>
<event>
 4    1  0.1181383E+000  0.3331479E+03  0.7818608E-02  0.1069752E+00
         21   -1    0    0  501  502  0.00000000000E+00  0.00000000000E+00  0.40065577381E+03  0.40065577381E+03  0.00000000000E+00 0. -1.
         21   -1    0    0  502  503 -0.00000000000E+00 -0.00000000000E+00 -0.68321594097E+03  0.68321594097E+03  0.00000000000E+00 0.  1.
          6    1    1    2  501    0 -0.20760925746E+03  0.19570871469E+03  0.27658834541E+03  0.43299955844E+03  0.17200000000E+03 0. -1.
         -6    1    1    2    0  503  0.20760925746E+03 -0.19570871469E+03 -0.55914851258E+03  0.65087215634E+03  0.17200000000E+03 0.  1.
</event>
<event>
 4    1  0.1181383E+000  0.2011248E+03  0.7818608E-02  0.1148793E+00
         21   -1    0    0  503  502  0.00000000000E+00  0.00000000000E+00  0.77621535913E+03  0.77621535913E+03  0.00000000000E+00 0. -1.
         21   -1    0    0  501  503 -0.00000000000E+00 -0.00000000000E+00 -0.52216258002E+02  0.52216258002E+02  0.00000000000E+00 0. -1.
          6    1    1    2  501    0 -0.50554669149E+02 -0.91166901457E+02  0.38038862058E+03  0.43028674295E+03  0.17200000000E+03 0. -1.
         -6    1    1    2    0  502  0.50554669149E+02  0.91166901457E+02  0.34361048055E+03  0.39814487419E+03  0.17200000000E+03 0. -1.
</event>
<event>
 4    1  0.1181383E+000  0.1912141E+03  0.7818608E-02  0.1157371E+00
         21   -1    0    0  501  502  0.00000000000E+00  0.00000000000E+00  0.38652626283E+02  0.38652626283E+02  0.00000000000E+00 0.  1.
         21   -1    0    0  502  503 -0.00000000000E+00 -0.00000000000E+00 -0.95412910036E+03  0.95412910036E+03  0.00000000000E+00 0.  1.
          6    1    1    2  501    0 -0.42225279720E+02  0.72082338991E+02 -0.41173437470E+03  0.45396919846E+03  0.17200000000E+03 0.  1.
         -6    1    1    2    0  503  0.42225279720E+02 -0.72082338991E+02 -0.50374209938E+03  0.53881252818E+03  0.17200000000E+03 0.  1.
</event>
<event>
 4    1  0.1181383E+000  0.1886674E+03  0.7818608E-02  0.1159669E+00
         21   -1    0    0  503  502  0.00000000000E+00  0.00000000000E+00  0.67834945587E+03  0.67834945587E+03  0.00000000000E+00 0. -1.
         21   -1    0    0  501  503 -0.00000000000E+00 -0.00000000000E+00 -0.17938100804E+03  0.17938100804E+03  0.00000000000E+00 0.  1.
          6    1    1    2  501    0 -0.22227330381E+02 -0.74278874049E+02 -0.11124072355E+03  0.21902032764E+03  0.17200000000E+03 0.  1.
         -6    1    1    2    0  502  0.22227330381E+02  0.74278874049E+02  0.61020917138E+03  0.63871013627E+03  0.17200000000E+03 0. -1.
</event>
<event>
 4    1  0.1181383E+000  0.2638894E+03  0.7818608E-02  0.1104829E+00
         21   -1    0    0  501  502  0.00000000000E+00  0.00000000000E+00  0.35417884592E+03  0.35417884592E+03  0.00000000000E+00 0. -1.
         21   -1    0    0  502  503 -0.00000000000E+00 -0.00000000000E+00 -0.20437584366E+03  0.20437584366E+03  0.00000000000E+00 0. -1.
          6    1    1    2  501    0 -0.25884478622E+02  0.19845302407E+03  0.12931633461E+03  0.29387127010E+03  0.17200000000E+03 0.  1.
         -6    1    1    2    0  503  0.25884478622E+02 -0.19845302407E+03  0.20486667655E+02  0.26468341948E+03  0.17200000000E+03 0.  1.
</event>
<event>
 4    1  0.1181383E+000  0.2375779E+03  0.7818608E-02  0.1121417E+00
         21   -1    0    0  503  502  0.00000000000E+00  0.00000000000E+00  0.17454106163E+03  0.17454106163E+03  0.00000000000E+00 0. -1.
         21   -1    0    0  501  503 -0.00000000000E+00 -0.00000000000E+00 -0.43336446633E+03  0.43336446633E+03  0.00000000000E+00 0. -1.
          6    1    1    2  501    0 -0.15778113710E+03 -0.44321161359E+02 -0.28253570317E+03  0.36914722827E+03  0.17200000000E+03 0. -1.
         -6    1    1    2    0  502  0.15778113710E+03  0.44321161359E+02  0.23712298473E+02  0.23875829969E+03  0.17200000000E+03 0. -1.
</event>
<event>
 4    1  0.1181383E+000  0.1926695E+03  0.7818608E-02  0.1156075E+00
         21   -1    0    0  501  502  0.00000000000E+00  0.00000000000E+00  0.10307189147E+04  0.10307189147E+04  0.00000000000E+00 0. -1.
         21   -1    0    0  502  503 -0.00000000000E+00 -0.00000000000E+00 -0.15540409299E+03  0.15540409299E+03  0.00000000000E+00 0.  1.
          6    1    1    2  501    0 -0.54823946445E+02  0.67319130493E+02  0.95747443835E+03  0.97666720561E+03  0.17200000000E+03 0. -1.
         -6    1    1    2    0  503  0.54823946445E+02 -0.67319130493E+02 -0.82159616606E+02  0.20945580210E+03  0.17200000000E+03 0.  1.
</event>
<event>
 4    1  0.1181383E+000  0.1733786E+03  0.7818608E-02  0.1174370E+00
         21   -1    0    0  503  502  0.00000000000E+00  0.00000000000E+00  0.58546460687E+02  0.58546460687E+02  0.00000000000E+00 0. -1.
         21   -1    0    0  501  503 -0.00000000000E+00 -0.00000000000E+00 -0.51700185440E+03  0.51700185440E+03  0.00000000000E+00 0. -1.
          6    1    1    2  501    0  0.13441707319E+02  0.17189035169E+02 -0.25311098938E+03  0.30679849311E+03  0.17200000000E+03 0. -1.
         -6    1    1    2    0  502 -0.13441707319E+02 -0.17189035169E+02 -0.20534440433E+03  0.26874982198E+03  0.17200000000E+03 0. -1.
</event>
<event>
 4    1  0.1181383E+000  0.2156306E+03  0.7818608E-02  0.1137183E+00
         21   -1    0    0  501  502  0.00000000000E+00  0.00000000000E+00  0.10384913925E+04  0.10384913925E+04  0.00000000000E+00 0.  1.
         21   -1    0    0  502  503 -0.00000000000E+00 -0.00000000000E+00 -0.51164427073E+02  0.51164427073E+02  0.00000000000E+00 0.  1.
          6    1    1    2  501    0  0.95532321188E+02  0.88238944060E+02  0.30110220605E+03  0.37034993469E+03  0.17200000000E+03 0.  1.
         -6    1    1    2    0  503 -0.95532321188E+02 -0.88238944060E+02  0.68622475942E+03  0.71930588492E+03  0.17200000000E+03 0.  1.
</event>
<event>
 4    1  0.1181383E+000  0.1796054E+03  0.7818608E-02  0.1168185E+00
         21   -1    0    0  501  502  0.00000000000E+00  0.00000000000E+00  0.73982951434E+03  0.73982951434E+03  0.00000000000E+00 0.  1.
         21   -1    0    0  502  503 -0.00000000000E+00 -0.00000000000E+00 -0.71648142826E+02  0.71648142826E+02  0.00000000000E+00 0.  1.
          6    1    1    2  501    0  0.28528313553E+02  0.43130585412E+02  0.58794233335E+03  0.61476361263E+03  0.17200000000E+03 0.  1.
         -6    1    1    2    0  503 -0.28528313553E+02 -0.43130585412E+02  0.80239038167E+02  0.19671404454E+03  0.17200000000E+03 0.  1.
</event>
<event>
 4    1  0.1181383E+000  0.1813547E+03  0.7818608E-02  0.1166498E+00
         21   -1    0    0  501  502  0.00000000000E+00  0.00000000000E+00  0.27016871714E+03  0.27016871714E+03  0.00000000000E+00 0.  1.
         21   -1    0    0  502  503 -0.00000000000E+00 -0.00000000000E+00 -0.99632262602E+03  0.99632262602E+03  0.00000000000E+00 0.  1.
          6    1    1    2  501    0 -0.53921166583E+02 -0.19951092542E+02  0.23022173998E+03  0.29307266652E+03  0.17200000000E+03 0.  1.
         -6    1    1    2    0  503  0.53921166583E+02  0.19951092542E+02 -0.95637564886E+03  0.97341867664E+03  0.17200000000E+03 0.  1.
</event>
<event>
 4    1  0.1181383E+000  0.2774493E+03  0.7818608E-02  0.1097090E+00
         21   -1    0    0  501  502  0.00000000000E+00  0.00000000000E+00  0.58188543850E+03  0.58188543850E+03  0.00000000000E+00 0. -1.
         21   -1    0    0  502  503 -0.00000000000E+00 -0.00000000000E+00 -0.15765513993E+03  0.15765513993E+03  0.00000000000E+00 0.  1.
          6    1    1    2  501    0  0.57729260496E+02 -0.20990813440E+03  0.36043172679E+03  0.45485065910E+03  0.17200000000E+03 0. -1.
         -6    1    1    2    0  503 -0.57729260496E+02  0.20990813440E+03  0.63798571779E+02  0.28468991932E+03  0.17200000000E+03 0.  1.
</event>
<event>
 4    1  0.1181383E+000  0.1727669E+03  0.7818608E-02  0.1174993E+00
         21   -1    0    0  501  502  0.00000000000E+00  0.00000000000E+00  0.10625403177E+03  0.10625403177E+03  0.00000000000E+00 0. -1.
         21   -1    0    0  502  503 -0.00000000000E+00 -0.00000000000E+00 -0.30183926705E+03  0.30183926705E+03  0.00000000000E+00 0. -1.
          6    1    1    2  501    0 -0.14224438620E+02  0.78778372558E+01 -0.44069344587E+02  0.17829891224E+03  0.17200000000E+03 0.  1.
         -6    1    1    2    0  503  0.14224438620E+02 -0.78778372558E+01 -0.15151589069E+03  0.22979438658E+03  0.17200000000E+03 0.  1.
</event>
<event>
 4    1  0.1181383E+000  0.2627068E+03  0.7818608E-02  0.1105528E+00
         21   -1    0    0  501  502  0.00000000000E+00  0.00000000000E+00  0.25127690679E+03  0.25127690679E+03  0.00000000000E+00 0. -1.
         21   -1    0    0  502  503 -0.00000000000E+00 -0.00000000000E+00 -0.31067263118E+03  0.31067263118E+03  0.00000000000E+00 0. -1.
          6    1    1    2  501    0  0.19078730477E+03 -0.55055335444E+02  0.65969358715E+02  0.27086314240E+03  0.17200000000E+03 0.  1.
         -6    1    1    2    0  503 -0.19078730477E+03  0.55055335444E+02 -0.12536508311E+03  0.29108639557E+03  0.17200000000E+03 0.  1.
</event>
<event>
 4    1  0.1181383E+000  0.3823733E+03  0.7818608E-02  0.1050060E+00
         21   -1    0    0  501  502  0.00000000000E+00  0.00000000000E+00  0.32492785253E+03  0.32492785253E+03  0.00000000000E+00 0.  1.
         21   -1    0    0  502  503 -0.00000000000E+00 -0.00000000000E+00 -0.62594797001E+03  0.62594797001E+03  0.00000000000E+00 0. -1.
          6    1    1    2  501    0  0.16932894721E+03 -0.29656880638E+03  0.10157546457E+03  0.39563483705E+03  0.17200000000E+03 0. -1.
         -6    1    1    2    0  503 -0.16932894721E+03  0.29656880638E+03 -0.40259558205E+03  0.55524098549E+03  0.17200000000E+03 0. -1.
</event>
<event>
 4    1  0.1181383E+000  0.2047810E+03  0.7818608E-02  0.1145767E+00
         21   -1    0    0  503  502  0.00000000000E+00  0.00000000000E+00  0.15733155571E+03  0.15733155571E+03  0.00000000000E+00 0. -1.
         21   -1    0    0  501  503 -0.00000000000E+00 -0.00000000000E+00 -0.26708192778E+03  0.26708192778E+03  0.00000000000E+00 0. -1.
          6    1    1    2  501    0 -0.10385537694E+03  0.39564020354E+02 -0.45321796830E+02  0.20973630181E+03  0.17200000000E+03 0.  1.
         -6    1    1    2    0  502  0.10385537694E+03 -0.39564020354E+02 -0.64428575240E+02  0.21467718168E+03  0.17200000000E+03 0.  1.
</event>
<event>
 4    1  0.1181383E+000  0.2119694E+03  0.7818608E-02  0.1140016E+00
         21   -1    0    0  503  502  0.00000000000E+00  0.00000000000E+00  0.15693829319E+03  0.15693829319E+03  0.00000000000E+00 0.  1.
         21   -1    0    0  501  503 -0.00000000000E+00 -0.00000000000E+00 -0.35745489633E+03  0.35745489633E+03  0.00000000000E+00 0. -1.
          6    1    1    2  501    0 -0.32573461153E+02  0.11952412424E+03 -0.21501142191E+03  0.30192873033E+03  0.17200000000E+03 0. -1.
         -6    1    1    2    0  502  0.32573461153E+02 -0.11952412424E+03  0.14494818775E+02  0.21246445919E+03  0.17200000000E+03 0.  1.
</event>
<event>
 4    1  0.1181383E+000  0.2002286E+03  0.7818608E-02  0.1149546E+00
         21   -1    0    0  503  502  0.00000000000E+00  0.00000000000E+00  0.24298644649E+02  0.24298644649E+02  0.00000000000E+00 0.  1.
         21   -1    0    0  501  503 -0.00000000000E+00 -0.00000000000E+00 -0.23095836350E+04  0.23095836350E+04  0.00000000000E+00 0.  1.
          6    1    1    2  501    0  0.64557637367E+02 -0.79622882777E+02 -0.17662829347E+04  0.17775958195E+04  0.17200000000E+03 0.  1.
         -6    1    1    2    0  502 -0.64557637367E+02  0.79622882777E+02 -0.51900205567E+03  0.55628646020E+03  0.17200000000E+03 0.  1.
</event>
<event>
 4    1  0.1181383E+000  0.1958080E+03  0.7818608E-02  0.1153325E+00
         21   -1    0    0  503  502  0.00000000000E+00  0.00000000000E+00  0.28679119489E+03  0.28679119489E+03  0.00000000000E+00 0.  1.
         21   -1    0    0  501  503 -0.00000000000E+00 -0.00000000000E+00 -0.17296827448E+03  0.17296827448E+03  0.00000000000E+00 0.  1.
          6    1    1    2  501    0  0.63133920500E+02 -0.69071688589E+02 -0.52635396704E+02  0.20275915533E+03  0.17200000000E+03 0. -1.
         -6    1    1    2    0  502 -0.63133920500E+02  0.69071688589E+02  0.16645831711E+03  0.25700031404E+03  0.17200000000E+03 0. -1.
</event>
<event>
 4    1  0.1181383E+000  0.1911672E+03  0.7818608E-02  0.1157413E+00
         21   -1    0    0  503  502  0.00000000000E+00  0.00000000000E+00  0.77001613886E+02  0.77001613886E+02  0.00000000000E+00 0.  1.
         21   -1    0    0  501  503 -0.00000000000E+00 -0.00000000000E+00 -0.54905754202E+03  0.54905754202E+03  0.00000000000E+00 0.  1.
          6    1    1    2  501    0 -0.21853058805E+02 -0.80519314234E+02 -0.35130231325E+03  0.39994778589E+03  0.17200000000E+03 0.  1.
         -6    1    1    2    0  502  0.21853058805E+02  0.80519314234E+02 -0.12075361489E+03  0.22611137002E+03  0.17200000000E+03 0.  1.
</event>
<event>
 4    1  0.1181383E+000  0.2304058E+03  0.7818608E-02  0.1126354E+00
         21   -1    0    0  503  502  0.00000000000E+00  0.00000000000E+00  0.28352294314E+03  0.28352294314E+03  0.00000000000E+00 0.  1.
         21   -1    0    0  501  503 -0.00000000000E+00 -0.00000000000E+00 -0.20780347646E+03  0.20780347646E+03  0.00000000000E+00 0.  1.
          6    1    1    2  501    0 -0.12127294651E+03 -0.93785384476E+02 -0.39419420518E+02  0.23375353818E+03  0.17200000000E+03 0.  1.
         -6    1    1    2    0  502  0.12127294651E+03  0.93785384476E+02  0.11513888720E+03  0.25757288142E+03  0.17200000000E+03 0.  1.
</event>
<event>
 4    1  0.1181383E+000  0.1932040E+03  0.7818608E-02  0.1155603E+00
         21   -1    0    0  503  502  0.00000000000E+00  0.00000000000E+00  0.11998089857E+03  0.11998089857E+03  0.00000000000E+00 0. -1.
         21   -1    0    0  501  503 -0.00000000000E+00 -0.00000000000E+00 -0.31186127081E+03  0.31186127081E+03  0.00000000000E+00 0. -1.
          6    1    1    2  501    0  0.38251058113E+02 -0.79250405151E+02 -0.10650772069E+03  0.22061655588E+03  0.17200000000E+03 0. -1.
         -6    1    1    2    0  502 -0.38251058113E+02  0.79250405151E+02 -0.85372651558E+02  0.21122561350E+03  0.17200000000E+03 0. -1.
</event>
<event>
 4    1  0.1181383E+000  0.2089173E+03  0.7818608E-02  0.1142426E+00
         21   -1    0    0  501  502  0.00000000000E+00  0.00000000000E+00  0.12884932415E+04  0.12884932415E+04  0.00000000000E+00 0. -1.
         21   -1    0    0  502  503 -0.00000000000E+00 -0.00000000000E+00 -0.34347965038E+02  0.34347965038E+02  0.00000000000E+00 0.  1.
          6    1    1    2  501    0  0.90089587877E+02  0.77112193069E+02  0.70476868255E+03  0.73508184583E+03  0.17200000000E+03 0. -1.
         -6    1    1    2    0  503 -0.90089587877E+02 -0.77112193069E+02  0.54937659393E+03  0.58775936072E+03  0.17200000000E+03 0. -1.
</event>
<event>
 4    1  0.1181383E+000  0.2798510E+03  0.7818608E-02  0.1095770E+00
         21   -1    0    0  503  502  0.00000000000E+00  0.00000000000E+00  0.48012130609E+03  0.48012130609E+03  0.00000000000E+00 0.  1.
         21   -1    0    0  501  503 -0.00000000000E+00 -0.00000000000E+00 -0.16336834806E+03  0.16336834806E+03  0.00000000000E+00 0. -1.
          6    1    1    2  501    0  0.21888478794E+03 -0.28670842889E+02  0.14578879307E+03  0.31554863303E+03  0.17200000000E+03 0. -1.
         -6    1    1    2    0  502 -0.21888478794E+03  0.28670842889E+02  0.17096416496E+03  0.32794102111E+03  0.17200000000E+03 0. -1.
</event>
<event>
 4    1  0.1181383E+000  0.1784638E+03  0.7818608E-02  0.1169298E+00
         21   -1    0    0  503  502  0.00000000000E+00  0.00000000000E+00  0.10814008798E+03  0.10814008798E+03  0.00000000000E+00 0. -1.
         21   -1    0    0  501  503 -0.00000000000E+00 -0.00000000000E+00 -0.29614651806E+03  0.29614651806E+03  0.00000000000E+00 0. -1.
          6    1    1    2  501    0 -0.25721642642E+02  0.40046649626E+02 -0.79018921074E+02  0.19517511863E+03  0.17200000000E+03 0.  1.
         -6    1    1    2    0  502  0.25721642642E+02 -0.40046649626E+02 -0.10898750901E+03  0.20911148741E+03  0.17200000000E+03 0.  1.
</event>
<event>
 4    1  0.1181383E+000  0.2696647E+03  0.7818608E-02  0.1101472E+00
         21   -1    0    0  501  502  0.00000000000E+00  0.00000000000E+00  0.10865646063E+03  0.10865646063E+03  0.00000000000E+00 0. -1.
         21   -1    0    0  502  503 -0.00000000000E+00 -0.00000000000E+00 -0.68996020542E+03  0.68996020542E+03  0.00000000000E+00 0.  1.
          6    1    1    2  501    0 -0.78317955528E+02 -0.19235728150E+03 -0.22148119995E+03  0.34895980834E+03  0.17200000000E+03 0. -1.
         -6    1    1    2    0  503  0.78317955528E+02  0.19235728150E+03 -0.35982254484E+03  0.44965685770E+03  0.17200000000E+03 0.  1.
</event>
<event>
 4    1  0.1181383E+000  0.2637116E+03  0.7818608E-02  0.1104934E+00
         21   -1    0    0  501  502  0.00000000000E+00  0.00000000000E+00  0.76538204707E+02  0.76538204707E+02  0.00000000000E+00 0. -1.
         21   -1    0    0  502  503 -0.00000000000E+00 -0.00000000000E+00 -0.12036937059E+04  0.12036937059E+04  0.00000000000E+00 0.  1.
          6    1    1    2  501    0 -0.76186785098E+02 -0.18481173976E+03 -0.24664350767E+03  0.36107731201E+03  0.17200000000E+03 0. -1.
         -6    1    1    2    0  503  0.76186785098E+02  0.18481173976E+03 -0.88051199356E+03  0.91915459862E+03  0.17200000000E+03 0.  1.
</event>
<event>
 4    1  0.1181383E+000  0.1811920E+03  0.7818608E-02  0.1166654E+00
         21   -1    0    0  503  502  0.00000000000E+00  0.00000000000E+00  0.51933541566E+03  0.51933541566E+03  0.00000000000E+00 0.  1.
         21   -1    0    0  501  503 -0.00000000000E+00 -0.00000000000E+00 -0.18358816094E+03  0.18358816094E+03  0.00000000000E+00 0.  1.
          6    1    1    2  501    0 -0.56523936612E+02 -0.71814439799E+01 -0.11671532700E+03  0.21552957130E+03  0.17200000000E+03 0.  1.
         -6    1    1    2    0  502  0.56523936612E+02  0.71814439799E+01  0.45246258172E+03  0.48739400530E+03  0.17200000000E+03 0.  1.
</event>
<event>
 4    1  0.1181383E+000  0.1728157E+03  0.7818608E-02  0.1174943E+00
         21   -1    0    0  503  502  0.00000000000E+00  0.00000000000E+00  0.11705897646E+03  0.11705897646E+03  0.00000000000E+00 0. -1.
         21   -1    0    0  501  503 -0.00000000000E+00 -0.00000000000E+00 -0.43711891743E+03  0.43711891743E+03  0.00000000000E+00 0. -1.
          6    1    1    2  501    0 -0.21006904340E+01  0.16639161347E+02 -0.33881933847E+03  0.38034697148E+03  0.17200000000E+03 0. -1.
         -6    1    1    2    0  502  0.21006904340E+01 -0.16639161347E+02  0.18759397501E+02  0.17383092241E+03  0.17200000000E+03 0. -1.
</event>
<event>
 4    1  0.1181383E+000  0.2091600E+03  0.7818608E-02  0.1142233E+00
         21   -1    0    0  503  502  0.00000000000E+00  0.00000000000E+00  0.38471178010E+02  0.38471178010E+02  0.00000000000E+00 0. -1.
         21   -1    0    0  501  503 -0.00000000000E+00 -0.00000000000E+00 -0.19236865052E+04  0.19236865052E+04  0.00000000000E+00 0. -1.
          6    1    1    2  501    0  0.10682267869E+03  0.52467213915E+02 -0.15699337987E+04  0.15838055517E+04  0.17200000000E+03 0. -1.
         -6    1    1    2    0  502 -0.10682267869E+03 -0.52467213915E+02 -0.31528152840E+03  0.37835213144E+03  0.17200000000E+03 0. -1.
</event>
<event>
 4    1  0.1181383E+000  0.2099585E+03  0.7818608E-02  0.1141599E+00
         21   -1    0    0  501  502  0.00000000000E+00  0.00000000000E+00  0.32197908882E+03  0.32197908882E+03  0.00000000000E+00 0.  1.
         21   -1    0    0  502  503 -0.00000000000E+00 -0.00000000000E+00 -0.17063698107E+03  0.17063698107E+03  0.00000000000E+00 0.  1.
          6    1    1    2  501    0 -0.10217839157E+03 -0.63703610986E+02  0.18517314218E+03  0.27994939961E+03  0.17200000000E+03 0. -1.
         -6    1    1    2    0  503  0.10217839157E+03  0.63703610986E+02 -0.33831034430E+02  0.21266667028E+03  0.17200000000E+03 0. -1.
</event>
<event>
 4    1  0.1181383E+000  0.2102113E+03  0.7818608E-02  0.1141399E+00
         21   -1    0    0  503  502  0.00000000000E+00  0.00000000000E+00  0.12379585691E+04  0.12379585691E+04  0.00000000000E+00 0.  1.
         21   -1    0    0  501  503 -0.00000000000E+00 -0.00000000000E+00 -0.54249359304E+02  0.54249359304E+02  0.00000000000E+00 0.  1.
          6    1    1    2  501    0 -0.23712509107E+02 -0.11850115386E+03  0.21399605129E+03  0.29997185955E+03  0.17200000000E+03 0.  1.
         -6    1    1    2    0  502  0.23712509107E+02  0.11850115386E+03  0.96971315846E+03  0.99223606881E+03  0.17200000000E+03 0.  1.
</event>
<event>
 4    1  0.1181383E+000  0.1911620E+03  0.7818608E-02  0.1157417E+00
         21   -1    0    0  503  502  0.00000000000E+00  0.00000000000E+00  0.97861707557E+02  0.97861707557E+02  0.00000000000E+00 0. -1.
         21   -1    0    0  501  503 -0.00000000000E+00 -0.00000000000E+00 -0.40136546015E+03  0.40136546015E+03  0.00000000000E+00 0. -1.
          6    1    1    2  501    0 -0.15872208104E+02 -0.81896253506E+02 -0.21762391874E+03  0.28966030680E+03  0.17200000000E+03 0. -1.
         -6    1    1    2    0  502  0.15872208104E+02  0.81896253506E+02 -0.85879833858E+02  0.20956686091E+03  0.17200000000E+03 0. -1.
</event>
<event>
 4    1  0.1181383E+000  0.2247312E+03  0.7818608E-02  0.1130404E+00
         21   -1    0    0  501  502  0.00000000000E+00  0.00000000000E+00  0.27202164080E+03  0.27202164080E+03  0.00000000000E+00 0. -1.
         21   -1    0    0  502  503 -0.00000000000E+00 -0.00000000000E+00 -0.33800729198E+03  0.33800729198E+03  0.00000000000E+00 0. -1.
          6    1    1    2  501    0 -0.13970422122E+03 -0.37454751323E+02  0.17177969727E+03  0.28286461818E+03  0.17200000000E+03 0. -1.
         -6    1    1    2    0  503  0.13970422122E+03  0.37454751323E+02 -0.23776534846E+03  0.32716431460E+03  0.17200000000E+03 0. -1.
</event>
<event>
 4    1  0.1181383E+000  0.2667152E+03  0.7818608E-02  0.1103174E+00
         21   -1    0    0  501  502  0.00000000000E+00  0.00000000000E+00  0.25299574568E+02  0.25299574568E+02  0.00000000000E+00 0. -1.
         21   -1    0    0  502  503 -0.00000000000E+00 -0.00000000000E+00 -0.31525541121E+04  0.31525541121E+04  0.00000000000E+00 0. -1.
          6    1    1    2  501    0 -0.97569582319E+02  0.17897806558E+03 -0.10412280000E+04  0.10748454398E+04  0.17200000000E+03 0. -1.
         -6    1    1    2    0  503  0.97569582319E+02 -0.17897806558E+03 -0.20860265375E+04  0.21030082469E+04  0.17200000000E+03 0. -1.
</event>
<event>
 4    1  0.1181383E+000  0.1848578E+03  0.7818608E-02  0.1163183E+00
         21   -1    0    0  503  502  0.00000000000E+00  0.00000000000E+00  0.52338678106E+02  0.52338678106E+02  0.00000000000E+00 0. -1.
         21   -1    0    0  501  503 -0.00000000000E+00 -0.00000000000E+00 -0.74370338691E+03  0.74370338691E+03  0.00000000000E+00 0. -1.
          6    1    1    2  501    0  0.67725468003E+02 -0.12910460536E+01 -0.48475288185E+03  0.51880416563E+03  0.17200000000E+03 0. -1.
         -6    1    1    2    0  502 -0.67725468003E+02  0.12910460536E+01 -0.20661182695E+03  0.27723789938E+03  0.17200000000E+03 0. -1.
</event>
<event>
 4    1  0.1181383E+000  0.1991216E+03  0.7818608E-02  0.1150482E+00
         21   -1    0    0  501  502  0.00000000000E+00  0.00000000000E+00  0.84532798389E+02  0.84532798389E+02  0.00000000000E+00 0. -1.
         21   -1    0    0  502  503 -0.00000000000E+00 -0.00000000000E+00 -0.48581764261E+03  0.48581764261E+03  0.00000000000E+00 0. -1.
          6    1    1    2  501    0 -0.84540335102E+02  0.54021512356E+02 -0.14764912151E+03  0.24789040953E+03  0.17200000000E+03 0.  1.
         -6    1    1    2    0  503  0.84540335102E+02 -0.54021512356E+02 -0.25363572271E+03  0.32246003146E+03  0.17200000000E+03 0.  1.
</event>
<event>
 4    1  0.1181383E+000  0.3702406E+03  0.7818608E-02  0.1054601E+00
         21   -1    0    0  503  502  0.00000000000E+00  0.00000000000E+00  0.49341839279E+03  0.49341839279E+03  0.00000000000E+00 0. -1.
         21   -1    0    0  501  503 -0.00000000000E+00 -0.00000000000E+00 -0.10587223555E+04  0.10587223555E+04  0.00000000000E+00 0.  1.
          6    1    1    2  501    0  0.30434516477E+03 -0.12193480823E+03 -0.94916764109E+03  0.10188215190E+04  0.17200000000E+03 0.  1.
         -6    1    1    2    0  502 -0.30434516477E+03  0.12193480823E+03  0.38386367834E+03  0.53331922928E+03  0.17200000000E+03 0. -1.
</event>
<event>
 4    1  0.1181383E+000  0.2824342E+03  0.7818608E-02  0.1094367E+00
         21   -1    0    0  503  502  0.00000000000E+00  0.00000000000E+00  0.51526453710E+02  0.51526453710E+02  0.00000000000E+00 0. -1.
         21   -1    0    0  501  503 -0.00000000000E+00 -0.00000000000E+00 -0.16939137940E+04  0.16939137940E+04  0.00000000000E+00 0.  1.
          6    1    1    2  501    0 -0.20641388963E+03 -0.87053968703E+02 -0.10772291745E+04  0.11136389818E+04  0.17200000000E+03 0.  1.
         -6    1    1    2    0  502  0.20641388963E+03  0.87053968703E+02 -0.56515816580E+03  0.63180126596E+03  0.17200000000E+03 0. -1.
</event>
<event>
 4    1  0.1181383E+000  0.2853319E+03  0.7818608E-02  0.1092812E+00
         21   -1    0    0  501  502  0.00000000000E+00  0.00000000000E+00  0.10393287571E+04  0.10393287571E+04  0.00000000000E+00 0. -1.
         21   -1    0    0  502  503 -0.00000000000E+00 -0.00000000000E+00 -0.92591449559E+02  0.92591449559E+02  0.00000000000E+00 0. -1.
          6    1    1    2  501    0 -0.20269081619E+03 -0.10366644489E+03  0.69545831048E+03  0.75171574440E+03  0.17200000000E+03 0. -1.
         -6    1    1    2    0  503  0.20269081619E+03  0.10366644489E+03  0.25127899708E+03  0.38020446227E+03  0.17200000000E+03 0. -1.
</event>
<event>
 4    1  0.1181383E+000  0.1766259E+03  0.7818608E-02  0.1171109E+00
         21   -1    0    0  503  502  0.00000000000E+00  0.00000000000E+00  0.69401218569E+03  0.69401218569E+03  0.00000000000E+00 0.  1.
         21   -1    0    0  501  503 -0.00000000000E+00 -0.00000000000E+00 -0.52414239884E+02  0.52414239884E+02  0.00000000000E+00 0.  1.
          6    1    1    2  501    0  0.30487028683E+02 -0.26139299377E+02  0.46162681128E+03  0.49426312302E+03  0.17200000000E+03 0.  1.
         -6    1    1    2    0  502 -0.30487028683E+02  0.26139299377E+02  0.17997113452E+03  0.25216330255E+03  0.17200000000E+03 0.  1.
</event>
<event>
 4    1  0.1181383E+000  0.1778015E+03  0.7818608E-02  0.1169948E+00
         21   -1    0    0  503  502  0.00000000000E+00  0.00000000000E+00  0.23779696391E+03  0.23779696391E+03  0.00000000000E+00 0. -1.
         21   -1    0    0  501  503 -0.00000000000E+00 -0.00000000000E+00 -0.14929519421E+03  0.14929519421E+03  0.00000000000E+00 0. -1.
          6    1    1    2  501    0  0.22001074050E+02  0.39310803177E+02 -0.19804046221E+02  0.17890105297E+03  0.17200000000E+03 0. -1.
         -6    1    1    2    0  502 -0.22001074050E+02 -0.39310803177E+02  0.10830581592E+03  0.20819110516E+03  0.17200000000E+03 0. -1.
</event>
<event>
 4    1  0.1181383E+000  0.1931370E+03  0.7818608E-02  0.1155662E+00
         21   -1    0    0  503  502  0.00000000000E+00  0.00000000000E+00  0.98531238752E+02  0.98531238752E+02  0.00000000000E+00 0. -1.
         21   -1    0    0  501  503 -0.00000000000E+00 -0.00000000000E+00 -0.37946735777E+03  0.37946735777E+03  0.00000000000E+00 0. -1.
          6    1    1    2  501    0 -0.45629905220E+02 -0.75072020407E+02 -0.12890673931E+03  0.23220431507E+03  0.17200000000E+03 0.  1.
         -6    1    1    2    0  502  0.45629905220E+02  0.75072020407E+02 -0.15202937971E+03  0.24579428145E+03  0.17200000000E+03 0.  1.
</event>
<event>
 4    1  0.1181383E+000  0.2571917E+03  0.7818608E-02  0.1108842E+00
         21   -1    0    0  501  502  0.00000000000E+00  0.00000000000E+00  0.91683457369E+02  0.91683457369E+02  0.00000000000E+00 0. -1.
         21   -1    0    0  502  503 -0.00000000000E+00 -0.00000000000E+00 -0.94906290707E+03  0.94906290707E+03  0.00000000000E+00 0. -1.
          6    1    1    2  501    0 -0.29133859613E+02 -0.18898356558E+03 -0.17386625625E+03  0.31044652502E+03  0.17200000000E+03 0. -1.
         -6    1    1    2    0  503  0.29133859613E+02  0.18898356558E+03 -0.68351319346E+03  0.73029983942E+03  0.17200000000E+03 0. -1.
</event>
<event>
 4    1  0.1181383E+000  0.2346021E+03  0.7818608E-02  0.1123442E+00
         21   -1    0    0  503  502  0.00000000000E+00  0.00000000000E+00  0.73359451232E+03  0.73359451232E+03  0.00000000000E+00 0.  1.
         21   -1    0    0  501  503 -0.00000000000E+00 -0.00000000000E+00 -0.75335136540E+02  0.75335136540E+02  0.00000000000E+00 0.  1.
          6    1    1    2  501    0  0.13118591832E+03 -0.90798744155E+02  0.30319148197E+03  0.38335783785E+03  0.17200000000E+03 0.  1.
         -6    1    1    2    0  502 -0.13118591832E+03  0.90798744155E+02  0.35506789382E+03  0.42557181101E+03  0.17200000000E+03 0.  1.
</event>
<event>
 4    1  0.1181383E+000  0.1812259E+03  0.7818608E-02  0.1166622E+00
         21   -1    0    0  503  502  0.00000000000E+00  0.00000000000E+00  0.52639608217E+02  0.52639608217E+02  0.00000000000E+00 0. -1.
         21   -1    0    0  501  503 -0.00000000000E+00 -0.00000000000E+00 -0.72291031782E+03  0.72291031782E+03  0.00000000000E+00 0. -1.
          6    1    1    2  501    0  0.54393977756E+02 -0.17323912332E+02 -0.47863053481E+03  0.51179098429E+03  0.17200000000E+03 0. -1.
         -6    1    1    2    0  502 -0.54393977756E+02  0.17323912332E+02 -0.19164017480E+03  0.26375894175E+03  0.17200000000E+03 0. -1.
</event>
<event>
 4    1  0.1181383E+000  0.1757610E+03  0.7818608E-02  0.1171970E+00
         21   -1    0    0  503  502  0.00000000000E+00  0.00000000000E+00  0.45690261788E+03  0.45690261788E+03  0.00000000000E+00 0. -1.
         21   -1    0    0  501  503 -0.00000000000E+00 -0.00000000000E+00 -0.13717200762E+03  0.13717200762E+03  0.00000000000E+00 0. -1.
          6    1    1    2  501    0  0.19718515840E+02 -0.30317047983E+02 -0.51658446068E+02  0.18319535561E+03  0.17200000000E+03 0. -1.
         -6    1    1    2    0  502 -0.19718515840E+02  0.30317047983E+02  0.37138905633E+03  0.41087926989E+03  0.17200000000E+03 0. -1.
</event>
<event>
 4    1  0.1181383E+000  0.1997132E+03  0.7818608E-02  0.1149981E+00
         21   -1    0    0  503  502  0.00000000000E+00  0.00000000000E+00  0.12530805937E+04  0.12530805937E+04  0.00000000000E+00 0. -1.
         21   -1    0    0  501  503 -0.00000000000E+00 -0.00000000000E+00 -0.52165751523E+02  0.52165751523E+02  0.00000000000E+00 0. -1.
          6    1    1    2  501    0 -0.99319073710E+02 -0.20906080232E+02  0.19298175170E+03  0.27771802081E+03  0.17200000000E+03 0. -1.
         -6    1    1    2    0  502  0.99319073710E+02  0.20906080232E+02  0.10079330905E+04  0.10275283244E+04  0.17200000000E+03 0. -1.
</event>
<event>
 4    1  0.1181383E+000  0.1844982E+03  0.7818608E-02  0.1163519E+00
         21   -1    0    0  503  502  0.00000000000E+00  0.00000000000E+00  0.83557633863E+02  0.83557633863E+02  0.00000000000E+00 0. -1.
         21   -1    0    0  501  503 -0.00000000000E+00 -0.00000000000E+00 -0.51324972566E+03  0.51324972566E+03  0.00000000000E+00 0. -1.
          6    1    1    2  501    0 -0.30198940670E+02  0.59528247123E+02 -0.35037393280E+03  0.39598166752E+03  0.17200000000E+03 0.  1.
         -6    1    1    2    0  502  0.30198940670E+02 -0.59528247123E+02 -0.79318158994E+02  0.20082569201E+03  0.17200000000E+03 0.  1.
</event>
<event>
 4    1  0.1181383E+000  0.1770294E+03  0.7818608E-02  0.1170709E+00
         21   -1    0    0  501  502  0.00000000000E+00  0.00000000000E+00  0.38153644506E+03  0.38153644506E+03  0.00000000000E+00 0.  1.
         21   -1    0    0  502  503 -0.00000000000E+00 -0.00000000000E+00 -0.16284452430E+03  0.16284452430E+03  0.00000000000E+00 0. -1.
          6    1    1    2  501    0  0.35112617314E+02 -0.22858803884E+02  0.30096346431E+03  0.34916819394E+03  0.17200000000E+03 0.  1.
         -6    1    1    2    0  503 -0.35112617314E+02  0.22858803884E+02 -0.82271543555E+02  0.19521277542E+03  0.17200000000E+03 0. -1.
</event>
<event>
 4    1  0.1181383E+000  0.2374660E+03  0.7818608E-02  0.1121492E+00
         21   -1    0    0  501  502  0.00000000000E+00  0.00000000000E+00  0.83239611385E+02  0.83239611385E+02  0.00000000000E+00 0.  1.
         21   -1    0    0  502  503 -0.00000000000E+00 -0.00000000000E+00 -0.92175841775E+03  0.92175841775E+03  0.00000000000E+00 0.  1.
          6    1    1    2  501    0 -0.16054573422E+03 -0.32112107113E+02 -0.16055620664E+03  0.28665033698E+03  0.17200000000E+03 0.  1.
         -6    1    1    2    0  503  0.16054573422E+03  0.32112107113E+02 -0.67796259972E+03  0.71834769216E+03  0.17200000000E+03 0.  1.
</event>
<event>
 4    1  0.1181383E+000  0.2351356E+03  0.7818608E-02  0.1123076E+00
         21   -1    0    0  501  502  0.00000000000E+00  0.00000000000E+00  0.10974565877E+03  0.10974565877E+03  0.00000000000E+00 0.  1.
         21   -1    0    0  502  503 -0.00000000000E+00 -0.00000000000E+00 -0.50731629988E+03  0.50731629988E+03  0.00000000000E+00 0.  1.
          6    1    1    2  501    0 -0.73539037370E+02  0.14246677743E+03 -0.17306271725E+03  0.29195800518E+03  0.17200000000E+03 0.  1.
         -6    1    1    2    0  503  0.73539037370E+02 -0.14246677743E+03 -0.22450792385E+03  0.32510395347E+03  0.17200000000E+03 0.  1.
</event>
<event>
 4    1  0.1181383E+000  0.1769012E+03  0.7818608E-02  0.1170836E+00
         21   -1    0    0  503  502  0.00000000000E+00  0.00000000000E+00  0.14788672142E+03  0.14788672142E+03  0.00000000000E+00 0.  1.
         21   -1    0    0  501  503 -0.00000000000E+00 -0.00000000000E+00 -0.22786674675E+03  0.22786674675E+03  0.00000000000E+00 0.  1.
          6    1    1    2  501    0 -0.26665233118E+02  0.31607081770E+02  0.10194931677E+02  0.17719474853E+03  0.17200000000E+03 0. -1.
         -6    1    1    2    0  502  0.26665233118E+02 -0.31607081770E+02 -0.90174957001E+02  0.19855871964E+03  0.17200000000E+03 0. -1.
</event>
<event>
 4    1  0.1181383E+000  0.2516849E+03  0.7818608E-02  0.1112245E+00
         21   -1    0    0  503  502  0.00000000000E+00  0.00000000000E+00  0.10827494423E+04  0.10827494423E+04  0.00000000000E+00 0.  1.
         21   -1    0    0  501  503 -0.00000000000E+00 -0.00000000000E+00 -0.85393709335E+02  0.85393709335E+02  0.00000000000E+00 0. -1.
          6    1    1    2  501    0 -0.16714573991E+03 -0.76312495293E+02  0.17092592229E+03  0.30423833785E+03  0.17200000000E+03 0. -1.
         -6    1    1    2    0  502  0.16714573991E+03  0.76312495293E+02  0.82642981064E+03  0.86390481375E+03  0.17200000000E+03 0.  1.
</event>
<event>
 4    1  0.1181383E+000  0.1806086E+03  0.7818608E-02  0.1167215E+00
         21   -1    0    0  501  502  0.00000000000E+00  0.00000000000E+00  0.25834506403E+04  0.25834506403E+04  0.00000000000E+00 0.  1.
         21   -1    0    0  502  503 -0.00000000000E+00 -0.00000000000E+00 -0.12707787865E+02  0.12707787865E+02  0.00000000000E+00 0.  1.
          6    1    1    2  501    0 -0.45414585312E+02 -0.31192721898E+02  0.13893068381E+04  0.14009971309E+04  0.17200000000E+03 0.  1.
         -6    1    1    2    0  503  0.45414585312E+02  0.31192721898E+02  0.11814360143E+04  0.11951612972E+04  0.17200000000E+03 0.  1.
</event>
<event>
 4    1  0.1181383E+000  0.1724065E+03  0.7818608E-02  0.1175361E+00
         21   -1    0    0  501  502  0.00000000000E+00  0.00000000000E+00  0.21916851786E+03  0.21916851786E+03  0.00000000000E+00 0.  1.
         21   -1    0    0  502  503 -0.00000000000E+00 -0.00000000000E+00 -0.50727118936E+03  0.50727118936E+03  0.00000000000E+00 0.  1.
          6    1    1    2  501    0 -0.37892775246E+01 -0.11209477286E+02  0.16684545567E+03  0.23991960546E+03  0.17200000000E+03 0.  1.
         -6    1    1    2    0  503  0.37892775246E+01  0.11209477286E+02 -0.45494812716E+03  0.48652010176E+03  0.17200000000E+03 0.  1.
</event>
<event>
 4    1  0.1181383E+000  0.3019962E+03  0.7818608E-02  0.1084247E+00
         21   -1    0    0  501  502  0.00000000000E+00  0.00000000000E+00  0.18326329613E+03  0.18326329613E+03  0.00000000000E+00 0. -1.
         21   -1    0    0  502  503 -0.00000000000E+00 -0.00000000000E+00 -0.49938277260E+03  0.49938277260E+03  0.00000000000E+00 0. -1.
          6    1    1    2  501    0 -0.60548905390E+02  0.24073122441E+03 -0.17814287188E+03  0.35062312409E+03  0.17200000000E+03 0.  1.
         -6    1    1    2    0  503  0.60548905390E+02 -0.24073122441E+03 -0.13797660460E+03  0.33202294464E+03  0.17200000000E+03 0.  1.
</event>
<event>
 4    1  0.1181383E+000  0.1896350E+03  0.7818608E-02  0.1158791E+00
         21   -1    0    0  501  502  0.00000000000E+00  0.00000000000E+00  0.18991671875E+03  0.18991671875E+03  0.00000000000E+00 0.  1.
         21   -1    0    0  502  503 -0.00000000000E+00 -0.00000000000E+00 -0.33577851158E+03  0.33577851158E+03  0.00000000000E+00 0.  1.
          6    1    1    2  501    0  0.78674001485E+02  0.13705459905E+02 -0.24650498398E+03  0.31100827202E+03  0.17200000000E+03 0.  1.
         -6    1    1    2    0  503 -0.78674001485E+02 -0.13705459905E+02  0.10064319115E+03  0.21468695831E+03  0.17200000000E+03 0.  1.
</event>
<event>
 4    1  0.1181383E+000  0.1731799E+03  0.7818608E-02  0.1174572E+00
         21   -1    0    0  501  502  0.00000000000E+00  0.00000000000E+00  0.20870168323E+04  0.20870168323E+04  0.00000000000E+00 0. -1.
         21   -1    0    0  502  503 -0.00000000000E+00 -0.00000000000E+00 -0.28204711916E+02  0.28204711916E+02  0.00000000000E+00 0. -1.
          6    1    1    2  501    0 -0.19512135946E+02 -0.51518678270E+01  0.17701085840E+04  0.17785599974E+04  0.17200000000E+03 0. -1.
         -6    1    1    2    0  503  0.19512135946E+02  0.51518678270E+01  0.28870353644E+03  0.33666154688E+03  0.17200000000E+03 0. -1.
</event>
<event>
 4    1  0.1181383E+000  0.2654676E+03  0.7818608E-02  0.1103902E+00
         21   -1    0    0  501  502  0.00000000000E+00  0.00000000000E+00  0.81840632637E+02  0.81840632637E+02  0.00000000000E+00 0. -1.
         21   -1    0    0  502  503 -0.00000000000E+00 -0.00000000000E+00 -0.13735400650E+04  0.13735400650E+04  0.00000000000E+00 0. -1.
          6    1    1    2  501    0  0.26143326522E+02  0.20051328800E+03 -0.20137500551E+03  0.33320405914E+03  0.17200000000E+03 0. -1.
         -6    1    1    2    0  503 -0.26143326522E+02 -0.20051328800E+03 -0.10903244268E+04  0.11221766385E+04  0.17200000000E+03 0. -1.
</event>
<event>
 4    1  0.1181383E+000  0.2027161E+03  0.7818608E-02  0.1147467E+00
         21   -1    0    0  501  502  0.00000000000E+00  0.00000000000E+00  0.49898228288E+03  0.49898228288E+03  0.00000000000E+00 0.  1.
         21   -1    0    0  502  503 -0.00000000000E+00 -0.00000000000E+00 -0.12654058994E+03  0.12654058994E+03  0.00000000000E+00 0.  1.
          6    1    1    2  501    0 -0.19142347531E+02 -0.10556230442E+03  0.37103583320E+03  0.42280186743E+03  0.17200000000E+03 0.  1.
         -6    1    1    2    0  503  0.19142347531E+02  0.10556230442E+03  0.14058597280E+01  0.20272100539E+03  0.17200000000E+03 0.  1.
</event>
<event>
 4    1  0.1181383E+000  0.2482759E+03  0.7818608E-02  0.1114399E+00
         21   -1    0    0  503  502  0.00000000000E+00  0.00000000000E+00  0.67295784559E+03  0.67295784559E+03  0.00000000000E+00 0.  1.
         21   -1    0    0  501  503 -0.00000000000E+00 -0.00000000000E+00 -0.92064128974E+02  0.92064128974E+02  0.00000000000E+00 0.  1.
          6    1    1    2  501    0 -0.10237909666E+03 -0.14688583191E+03  0.31769344306E+03  0.40319976539E+03  0.17200000000E+03 0.  1.
         -6    1    1    2    0  502  0.10237909666E+03  0.14688583191E+03  0.26320027355E+03  0.36182220917E+03  0.17200000000E+03 0.  1.
</event>
<event>
 4    1  0.1181383E+000  0.2423541E+03  0.7818608E-02  0.1118234E+00
         21   -1    0    0  503  502  0.00000000000E+00  0.00000000000E+00  0.33201517002E+03  0.33201517002E+03  0.00000000000E+00 0. -1.
         21   -1    0    0  501  503 -0.00000000000E+00 -0.00000000000E+00 -0.18372380922E+03  0.18372380922E+03  0.00000000000E+00 0. -1.
          6    1    1    2  501    0 -0.12425999586E+03 -0.11709377411E+03  0.24470726650E+02  0.24358636039E+03  0.17200000000E+03 0.  1.
         -6    1    1    2    0  502  0.12425999586E+03  0.11709377411E+03  0.12382063415E+03  0.27215261885E+03  0.17200000000E+03 0.  1.
</event>
<event>
 4    1  0.1181383E+000  0.1833648E+03  0.7818608E-02  0.1164586E+00
         21   -1    0    0  503  502  0.00000000000E+00  0.00000000000E+00  0.37383538807E+03  0.37383538807E+03  0.00000000000E+00 0. -1.
         21   -1    0    0  501  503 -0.00000000000E+00 -0.00000000000E+00 -0.89952919120E+02  0.89952919120E+02  0.00000000000E+00 0. -1.
          6    1    1    2  501    0 -0.46686995914E+02 -0.43115958107E+02  0.14474703459E+03  0.23361156960E+03  0.17200000000E+03 0.  1.
         -6    1    1    2    0  502  0.46686995914E+02  0.43115958107E+02  0.13913543437E+03  0.23017673759E+03  0.17200000000E+03 0.  1.
</event>
<event>
 4    1  0.1181383E+000  0.1863355E+03  0.7818608E-02  0.1161809E+00
         21   -1    0    0  501  502  0.00000000000E+00  0.00000000000E+00  0.36580709597E+03  0.36580709597E+03  0.00000000000E+00 0. -1.
         21   -1    0    0  502  503 -0.00000000000E+00 -0.00000000000E+00 -0.99063108937E+02  0.99063108937E+02  0.00000000000E+00 0. -1.
          6    1    1    2  501    0  0.68616432912E+02 -0.20705398849E+02  0.18092971349E+03  0.25972387189E+03  0.17200000000E+03 0.  1.
         -6    1    1    2    0  503 -0.68616432912E+02  0.20705398849E+02  0.85814273552E+02  0.20514633302E+03  0.17200000000E+03 0.  1.
</event>
<event>
 4    1  0.1181383E+000  0.2379406E+03  0.7818608E-02  0.1121172E+00
         21   -1    0    0  503  502  0.00000000000E+00  0.00000000000E+00  0.90503138412E+03  0.90503138412E+03  0.00000000000E+00 0.  1.
         21   -1    0    0  501  503 -0.00000000000E+00 -0.00000000000E+00 -0.70437176473E+02  0.70437176473E+02  0.00000000000E+00 0. -1.
          6    1    1    2  501    0 -0.15043699548E+02  0.16372357451E+03  0.25415719102E+03  0.34815456265E+03  0.17200000000E+03 0. -1.
         -6    1    1    2    0  502  0.15043699548E+02 -0.16372357451E+03  0.58043701662E+03  0.62731399794E+03  0.17200000000E+03 0. -1.
</event>
<event>
 4    1  0.1181383E+000  0.1721634E+03  0.7818608E-02  0.1175610E+00
         21   -1    0    0  501  502  0.00000000000E+00  0.00000000000E+00  0.16725263522E+04  0.16725263522E+04  0.00000000000E+00 0. -1.
         21   -1    0    0  502  503 -0.00000000000E+00 -0.00000000000E+00 -0.35259517959E+02  0.35259517959E+02  0.00000000000E+00 0. -1.
          6    1    1    2  501    0  0.74726024778E+01 -0.62222757069E+00  0.14208481965E+04  0.14312406592E+04  0.17200000000E+03 0. -1.
         -6    1    1    2    0  503 -0.74726024778E+01  0.62222757069E+00  0.21641863768E+03  0.27654521094E+03  0.17200000000E+03 0. -1.
</event>
<event>
 4    1  0.1181383E+000  0.2200594E+03  0.7818608E-02  0.1133839E+00
         21   -1    0    0  501  502  0.00000000000E+00  0.00000000000E+00  0.70724566535E+03  0.70724566535E+03  0.00000000000E+00 0. -1.
         21   -1    0    0  502  503 -0.00000000000E+00 -0.00000000000E+00 -0.11705605456E+03  0.11705605456E+03  0.00000000000E+00 0. -1.
          6    1    1    2  501    0  0.40908838905E+02 -0.13102908347E+03  0.56062168652E+03  0.60226475010E+03  0.17200000000E+03 0. -1.
         -6    1    1    2    0  503 -0.40908838905E+02  0.13102908347E+03  0.29567924266E+02  0.22203696981E+03  0.17200000000E+03 0. -1.
</event>
<event>
 4    1  0.1181383E+000  0.1839892E+03  0.7818608E-02  0.1163997E+00
         21   -1    0    0  503  502  0.00000000000E+00  0.00000000000E+00  0.50597784504E+03  0.50597784504E+03  0.00000000000E+00 0. -1.
         21   -1    0    0  501  503 -0.00000000000E+00 -0.00000000000E+00 -0.77396956076E+02  0.77396956076E+02  0.00000000000E+00 0. -1.
          6    1    1    2  501    0  0.21164495357E+02 -0.61806942788E+02  0.10689128506E+03  0.21278576283E+03  0.17200000000E+03 0. -1.
         -6    1    1    2    0  502 -0.21164495357E+02  0.61806942788E+02  0.32168960390E+03  0.37058903828E+03  0.17200000000E+03 0. -1.
</event>
<event>
 4    1  0.1181383E+000  0.1731523E+03  0.7818608E-02  0.1174600E+00
         21   -1    0    0  501  502  0.00000000000E+00  0.00000000000E+00  0.30862839064E+02  0.30862839064E+02  0.00000000000E+00 0. -1.
         21   -1    0    0  502  503 -0.00000000000E+00 -0.00000000000E+00 -0.11090475001E+04  0.11090475001E+04  0.00000000000E+00 0. -1.
          6    1    1    2  501    0  0.93693939865E+00 -0.19921112951E+02 -0.33833579648E+03  0.38006951966E+03  0.17200000000E+03 0. -1.
         -6    1    1    2    0  503 -0.93693939865E+00  0.19921112951E+02 -0.73984886460E+03  0.75984081955E+03  0.17200000000E+03 0. -1.
</event>
<event>
 4    1  0.1181383E+000  0.1795436E+03  0.7818608E-02  0.1168245E+00
         21   -1    0    0  503  502  0.00000000000E+00  0.00000000000E+00  0.23418788675E+03  0.23418788675E+03  0.00000000000E+00 0. -1.
         21   -1    0    0  501  503 -0.00000000000E+00 -0.00000000000E+00 -0.13899374545E+03  0.13899374545E+03  0.00000000000E+00 0. -1.
          6    1    1    2  501    0  0.30027087549E+02  0.41836426748E+02  0.65944940565E+02  0.19127113681E+03  0.17200000000E+03 0. -1.
         -6    1    1    2    0  502 -0.30027087549E+02 -0.41836426748E+02  0.29249200734E+02  0.18191049539E+03  0.17200000000E+03 0. -1.
</event>
<event>
 4    1  0.1181383E+000  0.2266932E+03  0.7818608E-02  0.1128989E+00
         21   -1    0    0  501  502  0.00000000000E+00  0.00000000000E+00  0.19507162078E+03  0.19507162078E+03  0.00000000000E+00 0. -1.
         21   -1    0    0  502  503 -0.00000000000E+00 -0.00000000000E+00 -0.26956815345E+03  0.26956815345E+03  0.00000000000E+00 0.  1.
          6    1    1    2  501    0  0.76444248139E+02  0.12634111336E+03 -0.22220768223E+01  0.22670407500E+03  0.17200000000E+03 0.  1.
         -6    1    1    2    0  503 -0.76444248139E+02 -0.12634111336E+03 -0.72274455843E+02  0.23793569923E+03  0.17200000000E+03 0.  1.
</event>
<event>
 4    1  0.1181383E+000  0.2075555E+03  0.7818608E-02  0.1143517E+00
         21   -1    0    0  501  502  0.00000000000E+00  0.00000000000E+00  0.59666773103E+03  0.59666773103E+03  0.00000000000E+00 0.  1.
         21   -1    0    0  502  503 -0.00000000000E+00 -0.00000000000E+00 -0.20501282333E+03  0.20501282333E+03  0.00000000000E+00 0. -1.
          6    1    1    2  501    0 -0.11519210879E+03  0.15035345478E+02  0.51845481208E+03  0.55845740725E+03  0.17200000000E+03 0.  1.
         -6    1    1    2    0  503  0.11519210879E+03 -0.15035345478E+02 -0.12679990438E+03  0.24322314711E+03  0.17200000000E+03 0.  1.
</event>
<event>
 4    1  0.1181383E+000  0.2582226E+03  0.7818608E-02  0.1108216E+00
         21   -1    0    0  503  502  0.00000000000E+00  0.00000000000E+00  0.36621304691E+03  0.36621304691E+03  0.00000000000E+00 0.  1.
         21   -1    0    0  501  503 -0.00000000000E+00 -0.00000000000E+00 -0.29685785279E+03  0.29685785279E+03  0.00000000000E+00 0. -1.
          6    1    1    2  501    0  0.53597606769E+02 -0.18499246426E+03 -0.17147590803E+03  0.30997242187E+03  0.17200000000E+03 0.  1.
         -6    1    1    2    0  502 -0.53597606769E+02  0.18499246426E+03  0.24083110215E+03  0.35309847783E+03  0.17200000000E+03 0.  1.
</event>
<event>
 4    1  0.1181383E+000  0.2457083E+03  0.7818608E-02  0.1116048E+00
         21   -1    0    0  503  502  0.00000000000E+00  0.00000000000E+00  0.16443813815E+03  0.16443813815E+03  0.00000000000E+00 0.  1.
         21   -1    0    0  501  503 -0.00000000000E+00 -0.00000000000E+00 -0.37231713226E+03  0.37231713226E+03  0.00000000000E+00 0. -1.
          6    1    1    2  501    0  0.10638135637E+03  0.13954055867E+03 -0.72306162173E+02  0.25612641719E+03  0.17200000000E+03 0.  1.
         -6    1    1    2    0  502 -0.10638135637E+03 -0.13954055867E+03 -0.13557283194E+03  0.28062885321E+03  0.17200000000E+03 0. -1.
</event>
<event>
 4    1  0.1181383E+000  0.1720755E+03  0.7818608E-02  0.1175701E+00
         21   -1    0    0  503  502  0.00000000000E+00  0.00000000000E+00  0.37303853612E+03  0.37303853612E+03  0.00000000000E+00 0.  1.
         21   -1    0    0  501  503 -0.00000000000E+00 -0.00000000000E+00 -0.97821384983E+02  0.97821384983E+02  0.00000000000E+00 0.  1.
          6    1    1    2  501    0 -0.36253108273E+01 -0.35826511335E+01  0.35373703660E+02  0.17567378057E+03  0.17200000000E+03 0.  1.
         -6    1    1    2    0  502  0.36253108273E+01  0.35826511335E+01  0.23984344748E+03  0.29518614054E+03  0.17200000000E+03 0.  1.
</event>
<event>
 4    1  0.1181383E+000  0.2028077E+03  0.7818608E-02  0.1147392E+00
         21   -1    0    0  503  502  0.00000000000E+00  0.00000000000E+00  0.24969225540E+03  0.24969225540E+03  0.00000000000E+00 0. -1.
         21   -1    0    0  501  503 -0.00000000000E+00 -0.00000000000E+00 -0.17653655490E+03  0.17653655490E+03  0.00000000000E+00 0. -1.
          6    1    1    2  501    0 -0.67437407341E+01  0.10724498885E+03 -0.18543381052E+02  0.20365368313E+03  0.17200000000E+03 0. -1.
         -6    1    1    2    0  502  0.67437407341E+01 -0.10724498885E+03  0.91699081553E+02  0.22257512716E+03  0.17200000000E+03 0. -1.
</event>
<event>
 4    1  0.1181383E+000  0.2101240E+03  0.7818608E-02  0.1141468E+00
         21   -1    0    0  503  502  0.00000000000E+00  0.00000000000E+00  0.12800860455E+04  0.12800860455E+04  0.00000000000E+00 0.  1.
         21   -1    0    0  501  503 -0.00000000000E+00 -0.00000000000E+00 -0.63328575122E+02  0.63328575122E+02  0.00000000000E+00 0.  1.
          6    1    1    2  501    0  0.50079016328E+02 -0.10981888134E+03  0.15510998201E+03  0.26117274187E+03  0.17200000000E+03 0.  1.
         -6    1    1    2    0  502 -0.50079016328E+02  0.10981888134E+03  0.10616474883E+04  0.10822418787E+04  0.17200000000E+03 0.  1.
</event>
<event>
 4    1  0.1181383E+000  0.1954315E+03  0.7818608E-02  0.1153652E+00
         21   -1    0    0  501  502  0.00000000000E+00  0.00000000000E+00  0.81901131035E+03  0.81901131035E+03  0.00000000000E+00 0.  1.
         21   -1    0    0  502  503 -0.00000000000E+00 -0.00000000000E+00 -0.59512249328E+02  0.59512249328E+02  0.00000000000E+00 0.  1.
          6    1    1    2  501    0 -0.39746692117E+02  0.83843089289E+02  0.17540875517E+03  0.26260558743E+03  0.17200000000E+03 0.  1.
         -6    1    1    2    0  503  0.39746692117E+02 -0.83843089289E+02  0.58409030585E+03  0.61591797225E+03  0.17200000000E+03 0.  1.
</event>
<event>
 4    1  0.1181383E+000  0.1798572E+03  0.7818608E-02  0.1167941E+00
         21   -1    0    0  503  502  0.00000000000E+00  0.00000000000E+00  0.21384781110E+03  0.21384781110E+03  0.00000000000E+00 0. -1.
         21   -1    0    0  501  503 -0.00000000000E+00 -0.00000000000E+00 -0.24069148056E+03  0.24069148056E+03  0.00000000000E+00 0. -1.
          6    1    1    2  501    0 -0.48043223189E+02 -0.21364726641E+02 -0.15194862464E+03  0.23545060495E+03  0.17200000000E+03 0. -1.
         -6    1    1    2    0  502  0.48043223189E+02  0.21364726641E+02  0.12510495518E+03  0.21908868672E+03  0.17200000000E+03 0. -1.
</event>
<event>
 4    1  0.1181383E+000  0.1791086E+03  0.7818608E-02  0.1168669E+00
         21   -1    0    0  501  502  0.00000000000E+00  0.00000000000E+00  0.95500920360E+02  0.95500920360E+02  0.00000000000E+00 0.  1.
         21   -1    0    0  502  503 -0.00000000000E+00 -0.00000000000E+00 -0.42401129364E+03  0.42401129364E+03  0.00000000000E+00 0.  1.
          6    1    1    2  501    0 -0.15437596869E+02 -0.47513977747E+02 -0.28265839379E+03  0.33462765136E+03  0.17200000000E+03 0.  1.
         -6    1    1    2    0  503  0.15437596869E+02  0.47513977747E+02 -0.45851979494E+02  0.18488456264E+03  0.17200000000E+03 0.  1.
</event>
<event>
 4    1  0.1181383E+000  0.2388216E+03  0.7818608E-02  0.1120580E+00
         21   -1    0    0  503  502  0.00000000000E+00  0.00000000000E+00  0.41749185354E+02  0.41749185354E+02  0.00000000000E+00 0.  1.
         21   -1    0    0  501  503 -0.00000000000E+00 -0.00000000000E+00 -0.16283731372E+04  0.16283731372E+04  0.00000000000E+00 0.  1.
          6    1    1    2  501    0 -0.15798173939E+03  0.49935246351E+02 -0.11284121536E+04  0.11534078842E+04  0.17200000000E+03 0.  1.
         -6    1    1    2    0  502  0.15798173939E+03 -0.49935246351E+02 -0.45821179821E+03  0.51671443838E+03  0.17200000000E+03 0.  1.
</event>
<event>
 4    1  0.1181383E+000  0.2132485E+03  0.7818608E-02  0.1139019E+00
         21   -1    0    0  501  502  0.00000000000E+00  0.00000000000E+00  0.50280462373E+02  0.50280462373E+02  0.00000000000E+00 0.  1.
         21   -1    0    0  502  503 -0.00000000000E+00 -0.00000000000E+00 -0.95490226988E+03  0.95490226988E+03  0.00000000000E+00 0.  1.
          6    1    1    2  501    0 -0.87161478309E+02 -0.91070207441E+02 -0.33675727399E+03  0.39859800246E+03  0.17200000000E+03 0.  1.
         -6    1    1    2    0  503  0.87161478309E+02  0.91070207441E+02 -0.56786453352E+03  0.60658472979E+03  0.17200000000E+03 0.  1.
</event>
<event>
 4    1  0.1181383E+000  0.1820503E+03  0.7818608E-02  0.1165833E+00
         21   -1    0    0  501  502  0.00000000000E+00  0.00000000000E+00  0.64332476450E+03  0.64332476450E+03  0.00000000000E+00 0. -1.
         21   -1    0    0  502  503 -0.00000000000E+00 -0.00000000000E+00 -0.86170082468E+02  0.86170082468E+02  0.00000000000E+00 0. -1.
          6    1    1    2  501    0 -0.48180059641E+02 -0.35170953607E+02  0.47273187345E+02  0.18808792722E+03  0.17200000000E+03 0. -1.
         -6    1    1    2    0  503  0.48180059641E+02  0.35170953607E+02  0.50988149469E+03  0.54140691975E+03  0.17200000000E+03 0. -1.
</event>
<event>
 4    1  0.1181383E+000  0.2662352E+03  0.7818608E-02  0.1103454E+00
         21   -1    0    0  501  502  0.00000000000E+00  0.00000000000E+00  0.17494475689E+03  0.17494475689E+03  0.00000000000E+00 0. -1.
         21   -1    0    0  502  503 -0.00000000000E+00 -0.00000000000E+00 -0.58124862960E+03  0.58124862960E+03  0.00000000000E+00 0. -1.
          6    1    1    2  501    0 -0.52329462744E+02  0.19636397987E+03  0.49535664986E+01  0.26628128564E+03  0.17200000000E+03 0. -1.
         -6    1    1    2    0  503  0.52329462744E+02 -0.19636397987E+03 -0.41125743921E+03  0.48991210085E+03  0.17200000000E+03 0. -1.
</event>
<event>
 4    1  0.1181383E+000  0.1844971E+03  0.7818608E-02  0.1163520E+00
         21   -1    0    0  503  502  0.00000000000E+00  0.00000000000E+00  0.25793454789E+02  0.25793454789E+02  0.00000000000E+00 0. -1.
         21   -1    0    0  501  503 -0.00000000000E+00 -0.00000000000E+00 -0.18871257772E+04  0.18871257772E+04  0.00000000000E+00 0. -1.
          6    1    1    2  501    0  0.18227500360E+02  0.64210175404E+02 -0.40618827410E+03  0.44612565764E+03  0.17200000000E+03 0. -1.
         -6    1    1    2    0  502 -0.18227500360E+02 -0.64210175404E+02 -0.14551440483E+04  0.14667935743E+04  0.17200000000E+03 0. -1.
</event>
<event>
 4    1  0.1181383E+000  0.1988281E+03  0.7818608E-02  0.1150731E+00
         21   -1    0    0  501  502  0.00000000000E+00  0.00000000000E+00  0.25074082067E+03  0.25074082067E+03  0.00000000000E+00 0. -1.
         21   -1    0    0  502  503 -0.00000000000E+00 -0.00000000000E+00 -0.15808764298E+03  0.15808764298E+03  0.00000000000E+00 0. -1.
          6    1    1    2  501    0  0.93509220733E+02  0.34708093441E+02  0.56917147684E+02  0.20681438009E+03  0.17200000000E+03 0.  1.
         -6    1    1    2    0  503 -0.93509220733E+02 -0.34708093441E+02  0.35736030004E+02  0.20201408355E+03  0.17200000000E+03 0.  1.
</event>
<event>
 4    1  0.1181383E+000  0.2443284E+03  0.7818608E-02  0.1116943E+00
         21   -1    0    0  501  502  0.00000000000E+00  0.00000000000E+00  0.55910375832E+03  0.55910375832E+03  0.00000000000E+00 0.  1.
         21   -1    0    0  502  503 -0.00000000000E+00 -0.00000000000E+00 -0.12817453357E+03  0.12817453357E+03  0.00000000000E+00 0. -1.
          6    1    1    2  501    0 -0.90112216817E+02  0.14829752251E+03  0.35588787648E+03  0.43168570445E+03  0.17200000000E+03 0.  1.
         -6    1    1    2    0  503  0.90112216817E+02 -0.14829752251E+03  0.75041348272E+02  0.25559258744E+03  0.17200000000E+03 0. -1.
</event>
<event>
 4    1  0.1181383E+000  0.1794305E+03  0.7818608E-02  0.1168355E+00
         21   -1    0    0  501  502  0.00000000000E+00  0.00000000000E+00  0.11704014668E+03  0.11704014668E+03  0.00000000000E+00 0.  1.
         21   -1    0    0  502  503 -0.00000000000E+00 -0.00000000000E+00 -0.27553377194E+03  0.27553377194E+03  0.00000000000E+00 0. -1.
          6    1    1    2  501    0 -0.46159522751E+02  0.21922289553E+02 -0.87221129138E+02  0.19950642518E+03  0.17200000000E+03 0. -1.
         -6    1    1    2    0  503  0.46159522751E+02 -0.21922289553E+02 -0.71272496127E+02  0.19306749344E+03  0.17200000000E+03 0. -1.
</event>
<event>
 4    1  0.1181383E+000  0.2810821E+03  0.7818608E-02  0.1095099E+00
         21   -1    0    0  503  502  0.00000000000E+00  0.00000000000E+00  0.35189209689E+03  0.35189209689E+03  0.00000000000E+00 0. -1.
         21   -1    0    0  501  503 -0.00000000000E+00 -0.00000000000E+00 -0.22532088456E+03  0.22532088456E+03  0.00000000000E+00 0.  1.
          6    1    1    2  501    0  0.12698398579E+03 -0.18247800801E+03  0.46089651010E+02  0.28483576318E+03  0.17200000000E+03 0.  1.
         -6    1    1    2    0  502 -0.12698398579E+03  0.18247800801E+03  0.80481561314E+02  0.29237721828E+03  0.17200000000E+03 0.  1.
</event>
<event>
 4    1  0.1181383E+000  0.1811508E+03  0.7818608E-02  0.1166694E+00
         21   -1    0    0  501  502  0.00000000000E+00  0.00000000000E+00  0.34787894891E+03  0.34787894891E+03  0.00000000000E+00 0.  1.
         21   -1    0    0  502  503 -0.00000000000E+00 -0.00000000000E+00 -0.37810496537E+03  0.37810496537E+03  0.00000000000E+00 0.  1.
          6    1    1    2  501    0 -0.56809840958E+02 -0.20593050889E+01  0.29935571782E+03  0.34989919199E+03  0.17200000000E+03 0.  1.
         -6    1    1    2    0  503  0.56809840958E+02  0.20593050889E+01 -0.32958173428E+03  0.37608472229E+03  0.17200000000E+03 0.  1.
</event>
<event>
 4    1  0.1181383E+000  0.1947903E+03  0.7818608E-02  0.1154210E+00
         21   -1    0    0  503  502  0.00000000000E+00  0.00000000000E+00  0.25480820742E+03  0.25480820742E+03  0.00000000000E+00 0. -1.
         21   -1    0    0  501  503 -0.00000000000E+00 -0.00000000000E+00 -0.17791062439E+03  0.17791062439E+03  0.00000000000E+00 0. -1.
          6    1    1    2  501    0  0.58044669760E+02  0.70640488759E+02 -0.48905697439E+02  0.20083582744E+03  0.17200000000E+03 0. -1.
         -6    1    1    2    0  502 -0.58044669760E+02 -0.70640488759E+02  0.12580328047E+03  0.23188300437E+03  0.17200000000E+03 0. -1.
</event>
<event>
 4    1  0.1181383E+000  0.2658510E+03  0.7818608E-02  0.1103678E+00
         21   -1    0    0  503  502  0.00000000000E+00  0.00000000000E+00  0.56557389849E+03  0.56557389849E+03  0.00000000000E+00 0.  1.
         21   -1    0    0  501  503 -0.00000000000E+00 -0.00000000000E+00 -0.16289198570E+03  0.16289198570E+03  0.00000000000E+00 0.  1.
          6    1    1    2  501    0  0.20206998231E+03  0.16138864030E+02  0.37709509778E+03  0.46138644697E+03  0.17200000000E+03 0.  1.
         -6    1    1    2    0  502 -0.20206998231E+03 -0.16138864030E+02  0.25586815008E+02  0.26707943722E+03  0.17200000000E+03 0.  1.
</event>
<event>
 4    1  0.1181383E+000  0.1998368E+03  0.7818608E-02  0.1149877E+00
         21   -1    0    0  501  502  0.00000000000E+00  0.00000000000E+00  0.48866587311E+02  0.48866587311E+02  0.00000000000E+00 0. -1.
         21   -1    0    0  502  503 -0.00000000000E+00 -0.00000000000E+00 -0.81739965656E+03  0.81739965656E+03  0.00000000000E+00 0. -1.
          6    1    1    2  501    0  0.68799357264E+02  0.74949259510E+02 -0.37784174930E+03  0.42743318843E+03  0.17200000000E+03 0. -1.
         -6    1    1    2    0  503 -0.68799357264E+02 -0.74949259510E+02 -0.39069131996E+03  0.43883305544E+03  0.17200000000E+03 0. -1.
</event>
<event>
 4    1  0.1181383E+000  0.2833272E+03  0.7818608E-02  0.1093885E+00
         21   -1    0    0  503  502  0.00000000000E+00  0.00000000000E+00  0.11120143354E+03  0.11120143354E+03  0.00000000000E+00 0. -1.
         21   -1    0    0  501  503 -0.00000000000E+00 -0.00000000000E+00 -0.13233188534E+04  0.13233188534E+04  0.00000000000E+00 0. -1.
          6    1    1    2  501    0 -0.13120662421E+02  0.22476243656E+03 -0.10896066024E+04  0.11258405094E+04  0.17200000000E+03 0. -1.
         -6    1    1    2    0  502  0.13120662421E+02 -0.22476243656E+03 -0.12251081751E+03  0.30867977756E+03  0.17200000000E+03 0. -1.
</event>
<event>
 4    1  0.1181383E+000  0.1725480E+03  0.7818608E-02  0.1175216E+00
         21   -1    0    0  501  502  0.00000000000E+00  0.00000000000E+00  0.60845551390E+03  0.60845551390E+03  0.00000000000E+00 0.  1.
         21   -1    0    0  502  503 -0.00000000000E+00 -0.00000000000E+00 -0.28817147589E+03  0.28817147589E+03  0.00000000000E+00 0.  1.
          6    1    1    2  501    0 -0.11325781007E+02 -0.77801081848E+01  0.56862404292E+03  0.59422731811E+03  0.17200000000E+03 0.  1.
         -6    1    1    2    0  503  0.11325781007E+02  0.77801081848E+01 -0.24834000490E+03  0.30239967168E+03  0.17200000000E+03 0.  1.
</event>
<event>
 4    1  0.1181383E+000  0.2429849E+03  0.7818608E-02  0.1117820E+00
         21   -1    0    0  503  502  0.00000000000E+00  0.00000000000E+00  0.19133712747E+03  0.19133712747E+03  0.00000000000E+00 0. -1.
         21   -1    0    0  501  503 -0.00000000000E+00 -0.00000000000E+00 -0.31378370217E+03  0.31378370217E+03  0.00000000000E+00 0.  1.
          6    1    1    2  501    0  0.99245061129E+02 -0.14002881828E+03 -0.93766382942E+02  0.26044920172E+03  0.17200000000E+03 0. -1.
         -6    1    1    2    0  502 -0.99245061129E+02  0.14002881828E+03 -0.28680191765E+02  0.24467162792E+03  0.17200000000E+03 0. -1.
</event>
<event>
 4    1  0.1181383E+000  0.3843490E+03  0.7818608E-02  0.1049338E+00
         21   -1    0    0  501  502  0.00000000000E+00  0.00000000000E+00  0.20776307894E+03  0.20776307894E+03  0.00000000000E+00 0.  1.
         21   -1    0    0  502  503 -0.00000000000E+00 -0.00000000000E+00 -0.71971146234E+03  0.71971146234E+03  0.00000000000E+00 0. -1.
          6    1    1    2  501    0 -0.28247055685E+03 -0.19583285011E+03 -0.20501891627E+03  0.43561092353E+03  0.17200000000E+03 0. -1.
         -6    1    1    2    0  503  0.28247055685E+03  0.19583285011E+03 -0.30692946713E+03  0.49186361775E+03  0.17200000000E+03 0.  1.
</event>
<event>
 4    1  0.1181383E+000  0.1805082E+03  0.7818608E-02  0.1167312E+00
         21   -1    0    0  503  502  0.00000000000E+00  0.00000000000E+00  0.32507864746E+03  0.32507864746E+03  0.00000000000E+00 0.  1.
         21   -1    0    0  501  503 -0.00000000000E+00 -0.00000000000E+00 -0.16692105051E+03  0.16692105051E+03  0.00000000000E+00 0.  1.
          6    1    1    2  501    0 -0.46216979151E+02 -0.29380106112E+02 -0.76412964005E+02  0.19601566485E+03  0.17200000000E+03 0.  1.
         -6    1    1    2    0  502  0.46216979151E+02  0.29380106112E+02  0.23457056095E+03  0.29598403312E+03  0.17200000000E+03 0.  1.
</event>
<event>
 4    1  0.1181383E+000  0.2107813E+03  0.7818608E-02  0.1140949E+00
         21   -1    0    0  503  502  0.00000000000E+00  0.00000000000E+00  0.10140205671E+04  0.10140205671E+04  0.00000000000E+00 0.  1.
         21   -1    0    0  501  503 -0.00000000000E+00 -0.00000000000E+00 -0.45950372754E+02  0.45950372754E+02  0.00000000000E+00 0. -1.
          6    1    1    2  501    0 -0.11858615562E+03  0.27966069248E+02  0.59829920120E+03  0.63434273976E+03  0.17200000000E+03 0.  1.
         -6    1    1    2    0  502  0.11858615562E+03 -0.27966069248E+02  0.36977099311E+03  0.42562820005E+03  0.17200000000E+03 0.  1.
</event>
<event>
 4    1  0.1181383E+000  0.1722620E+03  0.7818608E-02  0.1175509E+00
         21   -1    0    0  501  502  0.00000000000E+00  0.00000000000E+00  0.26367944549E+03  0.26367944549E+03  0.00000000000E+00 0.  1.
         21   -1    0    0  502  503 -0.00000000000E+00 -0.00000000000E+00 -0.11896396440E+03  0.11896396440E+03  0.00000000000E+00 0.  1.
          6    1    1    2  501    0  0.76938113006E+01  0.55682628491E+01  0.11682031047E+03  0.20813741908E+03  0.17200000000E+03 0.  1.
         -6    1    1    2    0  503 -0.76938113006E+01 -0.55682628491E+01  0.27895170617E+02  0.17450599081E+03  0.17200000000E+03 0.  1.
</event>
<event>
 4    1  0.1181383E+000  0.2999874E+03  0.7818608E-02  0.1085247E+00
         21   -1    0    0  501  502  0.00000000000E+00  0.00000000000E+00  0.48682000768E+03  0.48682000768E+03  0.00000000000E+00 0.  1.
         21   -1    0    0  502  503 -0.00000000000E+00 -0.00000000000E+00 -0.18828271004E+03  0.18828271004E+03  0.00000000000E+00 0.  1.
          6    1    1    2  501    0  0.18065744137E+03  0.16664728269E+03  0.19479527134E+03  0.35768369502E+03  0.17200000000E+03 0.  1.
         -6    1    1    2    0  503 -0.18065744137E+03 -0.16664728269E+03  0.10374202629E+03  0.31741902269E+03  0.17200000000E+03 0.  1.
</event>
<event>
 4    1  0.1181383E+000  0.1852870E+03  0.7818608E-02  0.1162782E+00
         21   -1    0    0  503  502  0.00000000000E+00  0.00000000000E+00  0.23645040120E+03  0.23645040120E+03  0.00000000000E+00 0.  1.
         21   -1    0    0  501  503 -0.00000000000E+00 -0.00000000000E+00 -0.23685359095E+03  0.23685359095E+03  0.00000000000E+00 0. -1.
          6    1    1    2  501    0  0.58829282097E+02  0.35866203333E+02 -0.14741869089E+03  0.23677740474E+03  0.17200000000E+03 0. -1.
         -6    1    1    2    0  502 -0.58829282097E+02 -0.35866203333E+02  0.14701550114E+03  0.23652658741E+03  0.17200000000E+03 0.  1.
</event>
<event>
 4    1  0.1181383E+000  0.2019144E+03  0.7818608E-02  0.1148134E+00
         21   -1    0    0  501  502  0.00000000000E+00  0.00000000000E+00  0.59874939189E+03  0.59874939189E+03  0.00000000000E+00 0. -1.
         21   -1    0    0  502  503 -0.00000000000E+00 -0.00000000000E+00 -0.77430863589E+02  0.77430863589E+02  0.00000000000E+00 0. -1.
          6    1    1    2  501    0 -0.52955156760E+02 -0.91548793798E+02  0.37808039819E+03  0.42861896571E+03  0.17200000000E+03 0.  1.
         -6    1    1    2    0  503  0.52955156760E+02  0.91548793798E+02  0.14323813011E+03  0.24756128977E+03  0.17200000000E+03 0.  1.
</event>
<event>
 4    1  0.1181383E+000  0.1735469E+03  0.7818608E-02  0.1174199E+00
         21   -1    0    0  501  502  0.00000000000E+00  0.00000000000E+00  0.86061709301E+02  0.86061709301E+02  0.00000000000E+00 0. -1.
         21   -1    0    0  502  503 -0.00000000000E+00 -0.00000000000E+00 -0.50177918628E+03  0.50177918628E+03  0.00000000000E+00 0. -1.
          6    1    1    2  501    0  0.17103380344E+02  0.15556093788E+02 -0.46188233672E+02  0.17958805807E+03  0.17200000000E+03 0. -1.
         -6    1    1    2    0  503 -0.17103380344E+02 -0.15556093788E+02 -0.36952924331E+03  0.40825283751E+03  0.17200000000E+03 0. -1.
</event>
<event>
 4    1  0.1181383E+000  0.1952178E+03  0.7818608E-02  0.1153838E+00
         21   -1    0    0  501  502  0.00000000000E+00  0.00000000000E+00  0.48546882641E+03  0.48546882641E+03  0.00000000000E+00 0. -1.
         21   -1    0    0  502  503 -0.00000000000E+00 -0.00000000000E+00 -0.12122019546E+03  0.12122019546E+03  0.00000000000E+00 0. -1.
          6    1    1    2  501    0 -0.56144643959E+02  0.73305994972E+02  0.36220124308E+03  0.41146048466E+03  0.17200000000E+03 0. -1.
         -6    1    1    2    0  503  0.56144643959E+02 -0.73305994972E+02  0.20473878622E+01  0.19522853721E+03  0.17200000000E+03 0. -1.
</event>
<event>
 4    1  0.1181383E+000  0.2211243E+03  0.7818608E-02  0.1133048E+00
         21   -1    0    0  503  502  0.00000000000E+00  0.00000000000E+00  0.32660682429E+03  0.32660682429E+03  0.00000000000E+00 0. -1.
         21   -1    0    0  501  503 -0.00000000000E+00 -0.00000000000E+00 -0.20294465384E+03  0.20294465384E+03  0.00000000000E+00 0.  1.
          6    1    1    2  501    0 -0.13615530499E+03 -0.27814953447E+02 -0.73778755668E+02  0.23310779374E+03  0.17200000000E+03 0.  1.
         -6    1    1    2    0  502  0.13615530499E+03  0.27814953447E+02  0.19744092611E+03  0.29644368440E+03  0.17200000000E+03 0. -1.
</event>
<event>
 4    1  0.1181383E+000  0.2213609E+03  0.7818608E-02  0.1132873E+00
         21   -1    0    0  503  502  0.00000000000E+00  0.00000000000E+00  0.23351861230E+03  0.23351861230E+03  0.00000000000E+00 0.  1.
         21   -1    0    0  501  503 -0.00000000000E+00 -0.00000000000E+00 -0.52500949249E+03  0.52500949249E+03  0.00000000000E+00 0.  1.
          6    1    1    2  501    0  0.12931871148E+03  0.51897022068E+02 -0.43960030884E+03  0.49218803477E+03  0.17200000000E+03 0.  1.
         -6    1    1    2    0  502 -0.12931871148E+03 -0.51897022068E+02  0.14810942865E+03  0.26634007001E+03  0.17200000000E+03 0.  1.
</event>
<event>
 4    1  0.1181383E+000  0.1849882E+03  0.7818608E-02  0.1163061E+00
         21   -1    0    0  501  502  0.00000000000E+00  0.00000000000E+00  0.50773697329E+02  0.50773697329E+02  0.00000000000E+00 0.  1.
         21   -1    0    0  502  503 -0.00000000000E+00 -0.00000000000E+00 -0.69726344132E+03  0.69726344132E+03  0.00000000000E+00 0.  1.
          6    1    1    2  501    0 -0.65772259865E+02  0.17624737003E+02 -0.39158692061E+03  0.43308306122E+03  0.17200000000E+03 0.  1.
         -6    1    1    2    0  503  0.65772259865E+02 -0.17624737003E+02 -0.25490282338E+03  0.31495407743E+03  0.17200000000E+03 0.  1.
</event>
<event>
 4    1  0.1181383E+000  0.2169648E+03  0.7818608E-02  0.1136166E+00
         21   -1    0    0  503  502  0.00000000000E+00  0.00000000000E+00  0.93867934226E+03  0.93867934226E+03  0.00000000000E+00 0.  1.
         21   -1    0    0  501  503 -0.00000000000E+00 -0.00000000000E+00 -0.81591060714E+02  0.81591060714E+02  0.00000000000E+00 0.  1.
          6    1    1    2  501    0 -0.73057174779E+02  0.11023776392E+03  0.11186434959E+03  0.24410519882E+03  0.17200000000E+03 0.  1.
         -6    1    1    2    0  502  0.73057174779E+02 -0.11023776392E+03  0.74522393196E+03  0.77616520416E+03  0.17200000000E+03 0.  1.
</event>
<event>
 4    1  0.1181383E+000  0.1788015E+03  0.7818608E-02  0.1168968E+00
         21   -1    0    0  503  502  0.00000000000E+00  0.00000000000E+00  0.49967283806E+03  0.49967283806E+03  0.00000000000E+00 0.  1.
         21   -1    0    0  501  503 -0.00000000000E+00 -0.00000000000E+00 -0.98496288988E+02  0.98496288988E+02  0.00000000000E+00 0.  1.
          6    1    1    2  501    0 -0.29536273393E+01 -0.48757190388E+02  0.23542919368E+02  0.18034482688E+03  0.17200000000E+03 0.  1.
         -6    1    1    2    0  502  0.29536273393E+01  0.48757190388E+02  0.37763362970E+03  0.41782430017E+03  0.17200000000E+03 0.  1.
</event>
<event>
 4    1  0.1181383E+000  0.1783487E+03  0.7818608E-02  0.1169411E+00
         21   -1    0    0  503  502  0.00000000000E+00  0.00000000000E+00  0.34931581036E+02  0.34931581036E+02  0.00000000000E+00 0. -1.
         21   -1    0    0  501  503 -0.00000000000E+00 -0.00000000000E+00 -0.98443322601E+03  0.98443322601E+03  0.00000000000E+00 0. -1.
          6    1    1    2  501    0 -0.42109382382E+02 -0.21238342398E+02 -0.61434543792E+03  0.63970976572E+03  0.17200000000E+03 0. -1.
         -6    1    1    2    0  502  0.42109382382E+02  0.21238342398E+02 -0.33515620705E+03  0.37965504132E+03  0.17200000000E+03 0. -1.
</event>
<event>
 4    1  0.1181383E+000  0.2098090E+03  0.7818608E-02  0.1141717E+00
         21   -1    0    0  501  502  0.00000000000E+00  0.00000000000E+00  0.32927270756E+03  0.32927270756E+03  0.00000000000E+00 0.  1.
         21   -1    0    0  502  503 -0.00000000000E+00 -0.00000000000E+00 -0.14245448086E+03  0.14245448086E+03  0.00000000000E+00 0. -1.
          6    1    1    2  501    0  0.78305126030E+02  0.91126958627E+02  0.15191978409E+03  0.25903558857E+03  0.17200000000E+03 0.  1.
         -6    1    1    2    0  503 -0.78305126030E+02 -0.91126958627E+02  0.34898442611E+02  0.21269159985E+03  0.17200000000E+03 0. -1.
</event>
<event>
 4    1  0.1181383E+000  0.2142788E+03  0.7818608E-02  0.1138222E+00
         21   -1    0    0  501  502  0.00000000000E+00  0.00000000000E+00  0.65446614198E+03  0.65446614198E+03  0.00000000000E+00 0. -1.
         21   -1    0    0  502  503 -0.00000000000E+00 -0.00000000000E+00 -0.11612928019E+03  0.11612928019E+03  0.00000000000E+00 0. -1.
          6    1    1    2  501    0  0.12671286203E+03  0.16590456596E+02  0.51159125221E+03  0.55465394796E+03  0.17200000000E+03 0. -1.
         -6    1    1    2    0  503 -0.12671286203E+03 -0.16590456596E+02  0.26745609582E+02  0.21594147421E+03  0.17200000000E+03 0. -1.
</event>
<event>
 4    1  0.1181383E+000  0.1806433E+03  0.7818608E-02  0.1167182E+00
         21   -1    0    0  503  502  0.00000000000E+00  0.00000000000E+00  0.30085655486E+03  0.30085655486E+03  0.00000000000E+00 0.  1.
         21   -1    0    0  501  503 -0.00000000000E+00 -0.00000000000E+00 -0.14614678307E+03  0.14614678307E+03  0.00000000000E+00 0.  1.
          6    1    1    2  501    0  0.55208056048E+02 -0.25213285541E+00 -0.36135684113E+02  0.18422209610E+03  0.17200000000E+03 0. -1.
         -6    1    1    2    0  502 -0.55208056048E+02  0.25213285541E+00  0.19084545590E+03  0.26278124184E+03  0.17200000000E+03 0. -1.
</event>
<event>
 4    1  0.1181383E+000  0.1964355E+03  0.7818608E-02  0.1152782E+00
         21   -1    0    0  503  502  0.00000000000E+00  0.00000000000E+00  0.22481754507E+03  0.22481754507E+03  0.00000000000E+00 0. -1.
         21   -1    0    0  501  503 -0.00000000000E+00 -0.00000000000E+00 -0.17529684171E+03  0.17529684171E+03  0.00000000000E+00 0.  1.
          6    1    1    2  501    0 -0.93191480992E+02 -0.17839886269E+02 -0.41480066651E+01  0.19647931095E+03  0.17200000000E+03 0.  1.
         -6    1    1    2    0  502  0.93191480992E+02  0.17839886269E+02  0.53668710027E+02  0.20363507583E+03  0.17200000000E+03 0.  1.
</event>
<event>
 4    1  0.1181383E+000  0.2235108E+03  0.7818608E-02  0.1131292E+00
         21   -1    0    0  503  502  0.00000000000E+00  0.00000000000E+00  0.30846260684E+03  0.30846260684E+03  0.00000000000E+00 0.  1.
         21   -1    0    0  501  503 -0.00000000000E+00 -0.00000000000E+00 -0.20509139915E+03  0.20509139915E+03  0.00000000000E+00 0.  1.
          6    1    1    2  501    0 -0.64680286591E+01 -0.14258769686E+03 -0.66076060509E+02  0.23307323412E+03  0.17200000000E+03 0.  1.
         -6    1    1    2    0  502  0.64680286591E+01  0.14258769686E+03  0.16944726820E+03  0.28048077188E+03  0.17200000000E+03 0.  1.
</event>
<event>
 4    1  0.1181383E+000  0.1744934E+03  0.7818608E-02  0.1173241E+00
         21   -1    0    0  501  502  0.00000000000E+00  0.00000000000E+00  0.65826212577E+03  0.65826212577E+03  0.00000000000E+00 0. -1.
         21   -1    0    0  502  503 -0.00000000000E+00 -0.00000000000E+00 -0.94874957444E+02  0.94874957444E+02  0.00000000000E+00 0. -1.
          6    1    1    2  501    0 -0.28843602407E+02 -0.56576762892E+01  0.55126584462E+03  0.57822313526E+03  0.17200000000E+03 0. -1.
         -6    1    1    2    0  503  0.28843602407E+02  0.56576762892E+01  0.12121323702E+02  0.17491394795E+03  0.17200000000E+03 0. -1.
</event>
<event>
 4    1  0.1181383E+000  0.2834149E+03  0.7818608E-02  0.1093838E+00
         21   -1    0    0  503  502  0.00000000000E+00  0.00000000000E+00  0.39213724863E+03  0.39213724863E+03  0.00000000000E+00 0.  1.
         21   -1    0    0  501  503 -0.00000000000E+00 -0.00000000000E+00 -0.20598796051E+03  0.20598796051E+03  0.00000000000E+00 0. -1.
          6    1    1    2  501    0 -0.14349782513E+03  0.17363295907E+03  0.11543411395E+03  0.30602134722E+03  0.17200000000E+03 0. -1.
         -6    1    1    2    0  502  0.14349782513E+03 -0.17363295907E+03  0.70715174171E+02  0.29210386192E+03  0.17200000000E+03 0. -1.
</event>
<event>
 4    1  0.1181383E+000  0.2097624E+03  0.7818608E-02  0.1141754E+00
         21   -1    0    0  501  502  0.00000000000E+00  0.00000000000E+00  0.41980013422E+03  0.41980013422E+03  0.00000000000E+00 0.  1.
         21   -1    0    0  502  503 -0.00000000000E+00 -0.00000000000E+00 -0.49890887163E+03  0.49890887163E+03  0.00000000000E+00 0.  1.
          6    1    1    2  501    0 -0.79997128435E+02  0.89536262496E+02  0.36870730103E+03  0.42419966606E+03  0.17200000000E+03 0.  1.
         -6    1    1    2    0  503  0.79997128435E+02 -0.89536262496E+02 -0.44781603843E+03  0.49450933979E+03  0.17200000000E+03 0.  1.
</event>
<event>
 4    1  0.1181383E+000  0.1758054E+03  0.7818608E-02  0.1171925E+00
         21   -1    0    0  501  502  0.00000000000E+00  0.00000000000E+00  0.31670861017E+04  0.31670861017E+04  0.00000000000E+00 0. -1.
         21   -1    0    0  502  503 -0.00000000000E+00 -0.00000000000E+00 -0.12735497789E+02  0.12735497789E+02  0.00000000000E+00 0. -1.
          6    1    1    2  501    0 -0.34889056860E+02  0.10310318157E+02  0.23458075475E+04  0.23523861500E+04  0.17200000000E+03 0. -1.
         -6    1    1    2    0  503  0.34889056860E+02 -0.10310318157E+02  0.80854305639E+03  0.82743544943E+03  0.17200000000E+03 0. -1.
</event>
<event>
 4    1  0.1181383E+000  0.2799825E+03  0.7818608E-02  0.1095698E+00
         21   -1    0    0  503  502  0.00000000000E+00  0.00000000000E+00  0.57241901610E+02  0.57241901610E+02  0.00000000000E+00 0.  1.
         21   -1    0    0  501  503 -0.00000000000E+00 -0.00000000000E+00 -0.14081895431E+04  0.14081895431E+04  0.00000000000E+00 0.  1.
          6    1    1    2  501    0  0.19589030591E+03  0.10214302126E+03 -0.79699560440E+03  0.84474386779E+03  0.17200000000E+03 0.  1.
         -6    1    1    2    0  502 -0.19589030591E+03 -0.10214302126E+03 -0.55395203711E+03  0.62068757694E+03  0.17200000000E+03 0.  1.
</event>
<event>
 4    1  0.1181383E+000  0.2313841E+03  0.7818608E-02  0.1125669E+00
         21   -1    0    0  501  502  0.00000000000E+00  0.00000000000E+00  0.50167066072E+03  0.50167066072E+03  0.00000000000E+00 0.  1.
         21   -1    0    0  502  503 -0.00000000000E+00 -0.00000000000E+00 -0.12611753222E+03  0.12611753222E+03  0.00000000000E+00 0.  1.
          6    1    1    2  501    0 -0.10909996712E+03  0.10978060417E+03  0.31087772948E+03  0.38753521977E+03  0.17200000000E+03 0. -1.
         -6    1    1    2    0  503  0.10909996712E+03 -0.10978060417E+03  0.64675399019E+02  0.24025297317E+03  0.17200000000E+03 0. -1.
</event>
<event>
 4    1  0.1181383E+000  0.2109372E+03  0.7818608E-02  0.1140826E+00
         21   -1    0    0  503  502  0.00000000000E+00  0.00000000000E+00  0.11522702825E+03  0.11522702825E+03  0.00000000000E+00 0.  1.
         21   -1    0    0  501  503 -0.00000000000E+00 -0.00000000000E+00 -0.38745528223E+03  0.38745528223E+03  0.00000000000E+00 0. -1.
          6    1    1    2  501    0  0.63616761892E+02 -0.10422767472E+03 -0.12150563585E+03  0.24342990801E+03  0.17200000000E+03 0.  1.
         -6    1    1    2    0  502 -0.63616761892E+02  0.10422767472E+03 -0.15072261812E+03  0.25925240247E+03  0.17200000000E+03 0. -1.
</event>
<event>
 4    1  0.1181383E+000  0.2795017E+03  0.7818608E-02  0.1095961E+00
         21   -1    0    0  503  502  0.00000000000E+00  0.00000000000E+00  0.79939879103E+03  0.79939879103E+03  0.00000000000E+00 0.  1.
         21   -1    0    0  501  503 -0.00000000000E+00 -0.00000000000E+00 -0.10602184118E+03  0.10602184118E+03  0.00000000000E+00 0.  1.
          6    1    1    2  501    0 -0.18416336206E+03  0.12091762629E+03  0.47333115992E+03  0.54969409968E+03  0.17200000000E+03 0. -1.
         -6    1    1    2    0  502  0.18416336206E+03 -0.12091762629E+03  0.22004578993E+03  0.35572653252E+03  0.17200000000E+03 0. -1.
</event>
<event>
 4    1  0.1181383E+000  0.1867892E+03  0.7818608E-02  0.1161390E+00
         21   -1    0    0  503  502  0.00000000000E+00  0.00000000000E+00  0.20917658281E+03  0.20917658281E+03  0.00000000000E+00 0.  1.
         21   -1    0    0  501  503 -0.00000000000E+00 -0.00000000000E+00 -0.17238171623E+03  0.17238171623E+03  0.00000000000E+00 0.  1.
          6    1    1    2  501    0  0.31412681407E+02 -0.65722587462E+02  0.52733520884E+02  0.19409028641E+03  0.17200000000E+03 0. -1.
         -6    1    1    2    0  502 -0.31412681407E+02  0.65722587462E+02 -0.15938654302E+02  0.18746801262E+03  0.17200000000E+03 0. -1.
</event>
<event>
 4    1  0.1181383E+000  0.1743934E+03  0.7818608E-02  0.1173342E+00
         21   -1    0    0  501  502  0.00000000000E+00  0.00000000000E+00  0.40034432697E+03  0.40034432697E+03  0.00000000000E+00 0. -1.
         21   -1    0    0  502  503 -0.00000000000E+00 -0.00000000000E+00 -0.11857170311E+03  0.11857170311E+03  0.00000000000E+00 0. -1.
          6    1    1    2  501    0  0.62506247168E+01  0.28106544632E+02  0.29641273346E+03  0.34390922744E+03  0.17200000000E+03 0. -1.
         -6    1    1    2    0  503 -0.62506247168E+01 -0.28106544632E+02 -0.14640109611E+02  0.17500680264E+03  0.17200000000E+03 0. -1.
</event>
<event>
 4    1  0.1181383E+000  0.1730682E+03  0.7818608E-02  0.1174685E+00
         21   -1    0    0  503  502  0.00000000000E+00  0.00000000000E+00  0.10997310304E+03  0.10997310304E+03  0.00000000000E+00 0.  1.
         21   -1    0    0  501  503 -0.00000000000E+00 -0.00000000000E+00 -0.38715126276E+03  0.38715126276E+03  0.00000000000E+00 0.  1.
          6    1    1    2  501    0  0.10785162979E+02 -0.15883024755E+02 -0.27393454142E+03  0.32402580638E+03  0.17200000000E+03 0.  1.
         -6    1    1    2    0  502 -0.10785162979E+02  0.15883024755E+02 -0.32436183085E+01  0.17309855943E+03  0.17200000000E+03 0.  1.
</event>
<event>
 4    1  0.1181383E+000  0.2809231E+03  0.7818608E-02  0.1095186E+00
         21   -1    0    0  501  502  0.00000000000E+00  0.00000000000E+00  0.33393131834E+03  0.33393131834E+03  0.00000000000E+00 0. -1.
         21   -1    0    0  502  503 -0.00000000000E+00 -0.00000000000E+00 -0.24607086024E+03  0.24607086024E+03  0.00000000000E+00 0.  1.
          6    1    1    2  501    0 -0.63213318609E+02  0.21292691339E+03  0.10163094030E+03  0.29874176494E+03  0.17200000000E+03 0. -1.
         -6    1    1    2    0  503  0.63213318609E+02 -0.21292691339E+03 -0.13770482199E+02  0.28126041363E+03  0.17200000000E+03 0.  1.
</event>
<event>
 4    1  0.1181383E+000  0.3514086E+03  0.7818608E-02  0.1062038E+00
         21   -1    0    0  503  502  0.00000000000E+00  0.00000000000E+00  0.15978131951E+03  0.15978131951E+03  0.00000000000E+00 0. -1.
         21   -1    0    0  501  503 -0.00000000000E+00 -0.00000000000E+00 -0.81909094973E+03  0.81909094973E+03  0.00000000000E+00 0.  1.
          6    1    1    2  501    0 -0.29598095563E+03  0.79368012122E+02 -0.44593708898E+03  0.56775689760E+03  0.17200000000E+03 0.  1.
         -6    1    1    2    0  502  0.29598095563E+03 -0.79368012122E+02 -0.21337254124E+03  0.41111537164E+03  0.17200000000E+03 0. -1.
</event>
<event>
 4    1  0.1181383E+000  0.2760619E+03  0.7818608E-02  0.1097859E+00
         21   -1    0    0  501  502  0.00000000000E+00  0.00000000000E+00  0.24854083505E+03  0.24854083505E+03  0.00000000000E+00 0. -1.
         21   -1    0    0  502  503 -0.00000000000E+00 -0.00000000000E+00 -0.30759519318E+03  0.30759519318E+03  0.00000000000E+00 0. -1.
          6    1    1    2  501    0 -0.21071228916E+03  0.47185827528E+02 -0.45100545044E+02  0.27972170149E+03  0.17200000000E+03 0.  1.
         -6    1    1    2    0  503  0.21071228916E+03 -0.47185827528E+02 -0.13953813090E+02  0.27641432673E+03  0.17200000000E+03 0.  1.
</event>
<event>
 4    1  0.1181383E+000  0.1918687E+03  0.7818608E-02  0.1156787E+00
         21   -1    0    0  501  502  0.00000000000E+00  0.00000000000E+00  0.93624471810E+02  0.93624471810E+02  0.00000000000E+00 0. -1.
         21   -1    0    0  502  503 -0.00000000000E+00 -0.00000000000E+00 -0.39362474530E+03  0.39362474530E+03  0.00000000000E+00 0. -1.
          6    1    1    2  501    0 -0.82459107323E+02 -0.20738588690E+02 -0.14204281760E+03  0.23872527196E+03  0.17200000000E+03 0. -1.
         -6    1    1    2    0  503  0.82459107323E+02  0.20738588690E+02 -0.15795745589E+03  0.24852394515E+03  0.17200000000E+03 0. -1.
</event>
<event>
 4    1  0.1181383E+000  0.1854836E+03  0.7818608E-02  0.1162599E+00
         21   -1    0    0  503  502  0.00000000000E+00  0.00000000000E+00  0.43400296941E+03  0.43400296941E+03  0.00000000000E+00 0.  1.
         21   -1    0    0  501  503 -0.00000000000E+00 -0.00000000000E+00 -0.85002307445E+02  0.85002307445E+02  0.00000000000E+00 0. -1.
          6    1    1    2  501    0  0.57724369004E+02 -0.38575198929E+02  0.24187973075E+03  0.30481133984E+03  0.17200000000E+03 0.  1.
         -6    1    1    2    0  502 -0.57724369004E+02  0.38575198929E+02  0.10712093122E+03  0.21419393702E+03  0.17200000000E+03 0. -1.
</event>
<event>
 4    1  0.1181383E+000  0.2082276E+03  0.7818608E-02  0.1142977E+00
         21   -1    0    0  501  502  0.00000000000E+00  0.00000000000E+00  0.15351993961E+03  0.15351993961E+03  0.00000000000E+00 0.  1.
         21   -1    0    0  502  503 -0.00000000000E+00 -0.00000000000E+00 -0.42466225461E+03  0.42466225461E+03  0.00000000000E+00 0. -1.
          6    1    1    2  501    0 -0.35272915139E+02  0.11193997611E+03  0.31734619373E+02  0.21063196068E+03  0.17200000000E+03 0. -1.
         -6    1    1    2    0  503  0.35272915139E+02 -0.11193997611E+03 -0.30287693437E+03  0.36755023353E+03  0.17200000000E+03 0. -1.
</event>
<event>
 4    1  0.1181383E+000  0.2403681E+03  0.7818608E-02  0.1119548E+00
         21   -1    0    0  501  502  0.00000000000E+00  0.00000000000E+00  0.20574427183E+03  0.20574427183E+03  0.00000000000E+00 0. -1.
         21   -1    0    0  502  503 -0.00000000000E+00 -0.00000000000E+00 -0.34885861021E+03  0.34885861021E+03  0.00000000000E+00 0.  1.
          6    1    1    2  501    0  0.16768273679E+03  0.86799334094E+01  0.50907053481E+02  0.24569975490E+03  0.17200000000E+03 0.  1.
         -6    1    1    2    0  503 -0.16768273679E+03 -0.86799334094E+01 -0.19402139186E+03  0.30890312715E+03  0.17200000000E+03 0. -1.
</event>
<event>
 4    1  0.1181383E+000  0.1863429E+03  0.7818608E-02  0.1161802E+00
         21   -1    0    0  503  502  0.00000000000E+00  0.00000000000E+00  0.68155029074E+02  0.68155029074E+02  0.00000000000E+00 0.  1.
         21   -1    0    0  501  503 -0.00000000000E+00 -0.00000000000E+00 -0.51162056988E+03  0.51162056988E+03  0.00000000000E+00 0.  1.
          6    1    1    2  501    0 -0.40550463407E+02 -0.59121387390E+02 -0.24048011586E+03  0.30422748833E+03  0.17200000000E+03 0.  1.
         -6    1    1    2    0  502  0.40550463407E+02  0.59121387390E+02 -0.20298542495E+03  0.27554811063E+03  0.17200000000E+03 0.  1.
</event>
<event>
 4    1  0.1181383E+000  0.1791320E+03  0.7818608E-02  0.1168646E+00
         21   -1    0    0  501  502  0.00000000000E+00  0.00000000000E+00  0.29596745305E+03  0.29596745305E+03  0.00000000000E+00 0. -1.
         21   -1    0    0  502  503 -0.00000000000E+00 -0.00000000000E+00 -0.11459485925E+03  0.11459485925E+03  0.00000000000E+00 0. -1.
          6    1    1    2  501    0 -0.75058769588E+01 -0.49476721612E+02  0.13834478838E+03  0.22633507162E+03  0.17200000000E+03 0. -1.
         -6    1    1    2    0  503  0.75058769588E+01  0.49476721612E+02  0.43027805416E+02  0.18422724068E+03  0.17200000000E+03 0. -1.
</event>
<event>
 4    1  0.1181383E+000  0.2110241E+03  0.7818608E-02  0.1140758E+00
         21   -1    0    0  503  502  0.00000000000E+00  0.00000000000E+00  0.42921375214E+03  0.42921375214E+03  0.00000000000E+00 0. -1.
         21   -1    0    0  501  503 -0.00000000000E+00 -0.00000000000E+00 -0.11895789377E+03  0.11895789377E+03  0.00000000000E+00 0. -1.
          6    1    1    2  501    0  0.66386283840E+02  0.10266470065E+03  0.57130187170E+02  0.21862076234E+03  0.17200000000E+03 0. -1.
         -6    1    1    2    0  502 -0.66386283840E+02 -0.10266470065E+03  0.25312567120E+03  0.32955088357E+03  0.17200000000E+03 0. -1.
</event>
<event>
 4    1  0.1181383E+000  0.2519552E+03  0.7818608E-02  0.1112075E+00
         21   -1    0    0  501  502  0.00000000000E+00  0.00000000000E+00  0.33186828908E+03  0.33186828908E+03  0.00000000000E+00 0.  1.
         21   -1    0    0  502  503 -0.00000000000E+00 -0.00000000000E+00 -0.19150924453E+03  0.19150924453E+03  0.00000000000E+00 0.  1.
          6    1    1    2  501    0 -0.17339497496E+03  0.61900016735E+02  0.79133999560E+02  0.26409017267E+03  0.17200000000E+03 0. -1.
         -6    1    1    2    0  503  0.17339497496E+03 -0.61900016735E+02  0.61225044985E+02  0.25928736095E+03  0.17200000000E+03 0. -1.
</event>
<event>
 4    1  0.1181383E+000  0.1948847E+03  0.7818608E-02  0.1154128E+00
         21   -1    0    0  503  502  0.00000000000E+00  0.00000000000E+00  0.28952763847E+03  0.28952763847E+03  0.00000000000E+00 0.  1.
         21   -1    0    0  501  503 -0.00000000000E+00 -0.00000000000E+00 -0.13480526136E+03  0.13480526136E+03  0.00000000000E+00 0.  1.
          6    1    1    2  501    0  0.38404459123E+02  0.83193481554E+02  0.42565156554E+02  0.19947894728E+03  0.17200000000E+03 0.  1.
         -6    1    1    2    0  502 -0.38404459123E+02 -0.83193481554E+02  0.11215722056E+03  0.22485395255E+03  0.17200000000E+03 0.  1.
</event>
<event>
 4    1  0.1181383E+000  0.2210781E+03  0.7818608E-02  0.1133082E+00
         21   -1    0    0  501  502  0.00000000000E+00  0.00000000000E+00  0.11788302458E+03  0.11788302458E+03  0.00000000000E+00 0.  1.
         21   -1    0    0  502  503 -0.00000000000E+00 -0.00000000000E+00 -0.45873267803E+03  0.45873267803E+03  0.00000000000E+00 0. -1.
          6    1    1    2  501    0  0.24470741646E+02 -0.13672134702E+03 -0.81010949460E+02  0.23545343034E+03  0.17200000000E+03 0.  1.
         -6    1    1    2    0  503 -0.24470741646E+02  0.13672134702E+03 -0.25983870399E+03  0.34116227227E+03  0.17200000000E+03 0. -1.
</event>
<event>
 4    1  0.1181383E+000  0.2008577E+03  0.7818608E-02  0.1149017E+00
         21   -1    0    0  501  502  0.00000000000E+00  0.00000000000E+00  0.18030951289E+04  0.18030951289E+04  0.00000000000E+00 0. -1.
         21   -1    0    0  502  503 -0.00000000000E+00 -0.00000000000E+00 -0.47969420684E+02  0.47969420684E+02  0.00000000000E+00 0. -1.
          6    1    1    2  501    0  0.10244902631E+03  0.16248192923E+02  0.15536210547E+04  0.15665510487E+04  0.17200000000E+03 0. -1.
         -6    1    1    2    0  503 -0.10244902631E+03 -0.16248192923E+02  0.20150465354E+03  0.28451350084E+03  0.17200000000E+03 0. -1.
</event>
<event>
 4    1  0.1181383E+000  0.1964929E+03  0.7818608E-02  0.1152732E+00
         21   -1    0    0  501  502  0.00000000000E+00  0.00000000000E+00  0.35836600037E+03  0.35836600037E+03  0.00000000000E+00 0.  1.
         21   -1    0    0  502  503 -0.00000000000E+00 -0.00000000000E+00 -0.13683576638E+03  0.13683576638E+03  0.00000000000E+00 0.  1.
          6    1    1    2  501    0  0.69049089321E+02  0.65250963645E+02  0.22494399364E+03  0.29867920126E+03  0.17200000000E+03 0.  1.
         -6    1    1    2    0  503 -0.69049089321E+02 -0.65250963645E+02 -0.34137596458E+01  0.19652256549E+03  0.17200000000E+03 0.  1.
</event>
<event>
 4    1  0.1181383E+000  0.2706173E+03  0.7818608E-02  0.1100927E+00
         21   -1    0    0  501  502  0.00000000000E+00  0.00000000000E+00  0.15397656780E+03  0.15397656780E+03  0.00000000000E+00 0. -1.
         21   -1    0    0  502  503 -0.00000000000E+00 -0.00000000000E+00 -0.47869874263E+03  0.47869874263E+03  0.00000000000E+00 0.  1.
          6    1    1    2  501    0  0.20083573093E+03 -0.57573888504E+02 -0.18774609615E+03  0.32936657401E+03  0.17200000000E+03 0.  1.
         -6    1    1    2    0  503 -0.20083573093E+03  0.57573888504E+02 -0.13697607869E+03  0.30330873642E+03  0.17200000000E+03 0. -1.
</event>
<event>
 4    1  0.1181383E+000  0.2416917E+03  0.7818608E-02  0.1118671E+00
         21   -1    0    0  501  502  0.00000000000E+00  0.00000000000E+00  0.81075659620E+02  0.81075659620E+02  0.00000000000E+00 0.  1.
         21   -1    0    0  502  503 -0.00000000000E+00 -0.00000000000E+00 -0.10777384830E+04  0.10777384830E+04  0.00000000000E+00 0.  1.
          6    1    1    2  501    0  0.59155016667E+02  0.15915895531E+03 -0.16474592954E+03  0.29249976129E+03  0.17200000000E+03 0.  1.
         -6    1    1    2    0  503 -0.59155016667E+02 -0.15915895531E+03 -0.83191689388E+03  0.86631438138E+03  0.17200000000E+03 0.  1.
</event>
<event>
 4    1  0.1181383E+000  0.1741944E+03  0.7818608E-02  0.1173543E+00
         21   -1    0    0  503  502  0.00000000000E+00  0.00000000000E+00  0.17148779364E+02  0.17148779364E+02  0.00000000000E+00 0.  1.
         21   -1    0    0  501  503 -0.00000000000E+00 -0.00000000000E+00 -0.22481797573E+04  0.22481797573E+04  0.00000000000E+00 0.  1.
          6    1    1    2  501    0 -0.27215178497E+02 -0.43612966706E+01 -0.16381965157E+04  0.16474317925E+04  0.17200000000E+03 0.  1.
         -6    1    1    2    0  502  0.27215178497E+02  0.43612966706E+01 -0.59283446225E+03  0.61789674419E+03  0.17200000000E+03 0.  1.
</event>
<event>
 4    1  0.1181383E+000  0.2457766E+03  0.7818608E-02  0.1116003E+00
         21   -1    0    0  501  502  0.00000000000E+00  0.00000000000E+00  0.14545595754E+04  0.14545595754E+04  0.00000000000E+00 0.  1.
         21   -1    0    0  502  503 -0.00000000000E+00 -0.00000000000E+00 -0.14013898130E+03  0.14013898130E+03  0.00000000000E+00 0. -1.
          6    1    1    2  501    0  0.15936287459E+03 -0.73658812459E+02  0.13260621837E+04  0.13486463812E+04  0.17200000000E+03 0.  1.
         -6    1    1    2    0  503 -0.15936287459E+03  0.73658812459E+02 -0.11641589634E+02  0.24605217548E+03  0.17200000000E+03 0.  1.
</event>
<event>
 4    1  0.1181383E+000  0.2614894E+03  0.7818608E-02  0.1106252E+00
         21   -1    0    0  501  502  0.00000000000E+00  0.00000000000E+00  0.53871885408E+02  0.53871885408E+02  0.00000000000E+00 0. -1.
         21   -1    0    0  502  503 -0.00000000000E+00 -0.00000000000E+00 -0.12726860187E+04  0.12726860187E+04  0.00000000000E+00 0.  1.
          6    1    1    2  501    0 -0.19695621230E+03  0.97476715234E+00 -0.64388864014E+03  0.69495991297E+03  0.17200000000E+03 0. -1.
         -6    1    1    2    0  503  0.19695621230E+03 -0.97476715234E+00 -0.57492549315E+03  0.63159799114E+03  0.17200000000E+03 0. -1.
</event>
<event>
 4    1  0.1181383E+000  0.2049607E+03  0.7818608E-02  0.1145620E+00
         21   -1    0    0  503  502  0.00000000000E+00  0.00000000000E+00  0.34460201040E+03  0.34460201040E+03  0.00000000000E+00 0. -1.
         21   -1    0    0  501  503 -0.00000000000E+00 -0.00000000000E+00 -0.12230499113E+03  0.12230499113E+03  0.00000000000E+00 0. -1.
          6    1    1    2  501    0 -0.62644880213E+02  0.92198091309E+02  0.97805625075E+02  0.22710087925E+03  0.17200000000E+03 0.  1.
         -6    1    1    2    0  502  0.62644880213E+02 -0.92198091309E+02  0.12449139419E+03  0.23980612228E+03  0.17200000000E+03 0.  1.
</event>
<event>
 4    1  0.1181383E+000  0.3529855E+03  0.7818608E-02  0.1061396E+00
         21   -1    0    0  503  502  0.00000000000E+00  0.00000000000E+00  0.59921176914E+03  0.59921176914E+03  0.00000000000E+00 0. -1.
         21   -1    0    0  501  503 -0.00000000000E+00 -0.00000000000E+00 -0.25835878882E+03  0.25835878882E+03  0.00000000000E+00 0.  1.
          6    1    1    2  501    0 -0.13698859884E+03  0.27613197546E+03 -0.18997143243E+02  0.35349630201E+03  0.17200000000E+03 0.  1.
         -6    1    1    2    0  502  0.13698859884E+03 -0.27613197546E+03  0.35985012357E+03  0.50407425595E+03  0.17200000000E+03 0. -1.
</event>
<event>
 4    1  0.1181383E+000  0.1944042E+03  0.7818608E-02  0.1154548E+00
         21   -1    0    0  503  502  0.00000000000E+00  0.00000000000E+00  0.22308057767E+02  0.22308057767E+02  0.00000000000E+00 0. -1.
         21   -1    0    0  501  503 -0.00000000000E+00 -0.00000000000E+00 -0.24306921815E+04  0.24306921815E+04  0.00000000000E+00 0. -1.
          6    1    1    2  501    0 -0.27280811129E+02 -0.86398831619E+02 -0.52903625718E+03  0.56362430942E+03  0.17200000000E+03 0. -1.
         -6    1    1    2    0  502  0.27280811129E+02  0.86398831619E+02 -0.18793478666E+04  0.18893759298E+04  0.17200000000E+03 0. -1.
</event>
<event>
 4    1  0.1181383E+000  0.1992805E+03  0.7818608E-02  0.1150347E+00
         21   -1    0    0  501  502  0.00000000000E+00  0.00000000000E+00  0.99370010023E+02  0.99370010023E+02  0.00000000000E+00 0. -1.
         21   -1    0    0  502  503 -0.00000000000E+00 -0.00000000000E+00 -0.47341311805E+03  0.47341311805E+03  0.00000000000E+00 0. -1.
          6    1    1    2  501    0 -0.86170893591E+02 -0.51993232712E+02 -0.73970482951E+02  0.21256611089E+03  0.17200000000E+03 0. -1.
         -6    1    1    2    0  503  0.86170893591E+02  0.51993232712E+02 -0.30007262508E+03  0.36021701719E+03  0.17200000000E+03 0. -1.
</event>
<event>
 4    1  0.1181383E+000  0.2114259E+03  0.7818608E-02  0.1140442E+00
         21   -1    0    0  501  502  0.00000000000E+00  0.00000000000E+00  0.12975791224E+04  0.12975791224E+04  0.00000000000E+00 0.  1.
         21   -1    0    0  502  503 -0.00000000000E+00 -0.00000000000E+00 -0.35841419112E+02  0.35841419112E+02  0.00000000000E+00 0.  1.
          6    1    1    2  501    0 -0.10779647790E+03  0.59133948556E+02  0.49948038273E+03  0.54238506363E+03  0.17200000000E+03 0.  1.
         -6    1    1    2    0  503  0.10779647790E+03 -0.59133948556E+02  0.76225732058E+03  0.79103547790E+03  0.17200000000E+03 0.  1.
</event>
<event>
 4    1  0.1181383E+000  0.1742936E+03  0.7818608E-02  0.1173443E+00
         21   -1    0    0  503  502  0.00000000000E+00  0.00000000000E+00  0.40996920922E+03  0.40996920922E+03  0.00000000000E+00 0.  1.
         21   -1    0    0  501  503 -0.00000000000E+00 -0.00000000000E+00 -0.31542053801E+03  0.31542053801E+03  0.00000000000E+00 0.  1.
          6    1    1    2  501    0 -0.27654264043E+02 -0.54302722482E+01 -0.26997053731E+03  0.32134457704E+03  0.17200000000E+03 0.  1.
         -6    1    1    2    0  502  0.27654264043E+02  0.54302722482E+01  0.36451920852E+03  0.40404517019E+03  0.17200000000E+03 0.  1.
</event>
<event>
 4    1  0.1181383E+000  0.1777731E+03  0.7818608E-02  0.1169976E+00
         21   -1    0    0  503  502  0.00000000000E+00  0.00000000000E+00  0.11953295406E+03  0.11953295406E+03  0.00000000000E+00 0.  1.
         21   -1    0    0  501  503 -0.00000000000E+00 -0.00000000000E+00 -0.26510043370E+03  0.26510043370E+03  0.00000000000E+00 0.  1.
          6    1    1    2  501    0 -0.86204311261E+01  0.44101860718E+02 -0.82741341997E+02  0.19608522542E+03  0.17200000000E+03 0.  1.
         -6    1    1    2    0  502  0.86204311261E+01 -0.44101860718E+02 -0.62826137637E+02  0.18854816234E+03  0.17200000000E+03 0.  1.
</event>
<event>
 4    1  0.1181383E+000  0.2335366E+03  0.7818608E-02  0.1124175E+00
         21   -1    0    0  503  502  0.00000000000E+00  0.00000000000E+00  0.73966285818E+03  0.73966285818E+03  0.00000000000E+00 0.  1.
         21   -1    0    0  501  503 -0.00000000000E+00 -0.00000000000E+00 -0.77473175495E+02  0.77473175495E+02  0.00000000000E+00 0.  1.
          6    1    1    2  501    0  0.20330931082E+02 -0.15665888494E+03  0.24135319847E+03  0.33584329590E+03  0.17200000000E+03 0.  1.
         -6    1    1    2    0  502 -0.20330931082E+02  0.15665888494E+03  0.42083648422E+03  0.48129273778E+03  0.17200000000E+03 0.  1.
</event>
<event>
 4    1  0.1181383E+000  0.1751335E+03  0.7818608E-02  0.1172598E+00
         21   -1    0    0  501  502  0.00000000000E+00  0.00000000000E+00  0.52662518201E+02  0.52662518201E+02  0.00000000000E+00 0. -1.
         21   -1    0    0  502  503 -0.00000000000E+00 -0.00000000000E+00 -0.67526090916E+03  0.67526090916E+03  0.00000000000E+00 0. -1.
          6    1    1    2  501    0 -0.14889845456E+02 -0.29428756601E+02 -0.17634477017E+03  0.24853417709E+03  0.17200000000E+03 0.  1.
         -6    1    1    2    0  503  0.14889845456E+02  0.29428756601E+02 -0.44625362078E+03  0.47938925027E+03  0.17200000000E+03 0.  1.
</event>
<event>
 4    1  0.1181383E+000  0.2568205E+03  0.7818608E-02  0.1109069E+00
         21   -1    0    0  503  502  0.00000000000E+00  0.00000000000E+00  0.13832048824E+03  0.13832048824E+03  0.00000000000E+00 0.  1.
         21   -1    0    0  501  503 -0.00000000000E+00 -0.00000000000E+00 -0.48078969009E+03  0.48078969009E+03  0.00000000000E+00 0.  1.
          6    1    1    2  501    0  0.11343912708E+03 -0.15331123582E+03 -0.14317830265E+03  0.29403536680E+03  0.17200000000E+03 0.  1.
         -6    1    1    2    0  502 -0.11343912708E+03  0.15331123582E+03 -0.19929089920E+03  0.32507481152E+03  0.17200000000E+03 0.  1.
</event>
<event>
 4    1  0.1181383E+000  0.1878474E+03  0.7818608E-02  0.1160417E+00
         21   -1    0    0  501  502  0.00000000000E+00  0.00000000000E+00  0.79129945929E+02  0.79129945929E+02  0.00000000000E+00 0.  1.
         21   -1    0    0  502  503 -0.00000000000E+00 -0.00000000000E+00 -0.54942383324E+03  0.54942383324E+03  0.00000000000E+00 0.  1.
          6    1    1    2  501    0  0.75465278604E+02 -0.27654609765E+01 -0.98748444652E+02  0.21222137350E+03  0.17200000000E+03 0.  1.
         -6    1    1    2    0  503 -0.75465278604E+02  0.27654609765E+01 -0.37154544266E+03  0.41633240567E+03  0.17200000000E+03 0.  1.
</event>
<event>
 4    1  0.1181383E+000  0.2527388E+03  0.7818608E-02  0.1111586E+00
         21   -1    0    0  501  502  0.00000000000E+00  0.00000000000E+00  0.24047433452E+03  0.24047433452E+03  0.00000000000E+00 0. -1.
         21   -1    0    0  502  503 -0.00000000000E+00 -0.00000000000E+00 -0.46717290747E+03  0.46717290747E+03  0.00000000000E+00 0. -1.
          6    1    1    2  501    0 -0.14956659495E+03  0.10919125135E+03  0.11904910084E+03  0.27937355657E+03  0.17200000000E+03 0.  1.
         -6    1    1    2    0  503  0.14956659495E+03 -0.10919125135E+03 -0.34574767379E+03  0.42827368543E+03  0.17200000000E+03 0.  1.
</event>
<event>
 4    1  0.1181383E+000  0.1726723E+03  0.7818608E-02  0.1175089E+00
         21   -1    0    0  503  502  0.00000000000E+00  0.00000000000E+00  0.24681762577E+03  0.24681762577E+03  0.00000000000E+00 0.  1.
         21   -1    0    0  501  503 -0.00000000000E+00 -0.00000000000E+00 -0.15666755657E+03  0.15666755657E+03  0.00000000000E+00 0.  1.
          6    1    1    2  501    0 -0.13732530470E+02  0.65675777331E+01 -0.51453423147E+02  0.18017538740E+03  0.17200000000E+03 0.  1.
         -6    1    1    2    0  502  0.13732530470E+02 -0.65675777331E+01  0.14160349235E+03  0.22330979494E+03  0.17200000000E+03 0.  1.
</event>
<event>
 4    1  0.1181383E+000  0.1802759E+03  0.7818608E-02  0.1167536E+00
         21   -1    0    0  501  502  0.00000000000E+00  0.00000000000E+00  0.68383401845E+03  0.68383401845E+03  0.00000000000E+00 0.  1.
         21   -1    0    0  502  503 -0.00000000000E+00 -0.00000000000E+00 -0.31044191546E+03  0.31044191546E+03  0.00000000000E+00 0.  1.
          6    1    1    2  501    0  0.41212527936E+02  0.34884572314E+02  0.64420098804E+03  0.66895016170E+03  0.17200000000E+03 0.  1.
         -6    1    1    2    0  503 -0.41212527936E+02 -0.34884572314E+02 -0.27080888505E+03  0.32532577222E+03  0.17200000000E+03 0.  1.
</event>
<event>
 4    1  0.1181383E+000  0.2119031E+03  0.7818608E-02  0.1140068E+00
         21   -1    0    0  501  502  0.00000000000E+00  0.00000000000E+00  0.70363079019E+02  0.70363079019E+02  0.00000000000E+00 0. -1.
         21   -1    0    0  502  503 -0.00000000000E+00 -0.00000000000E+00 -0.67084464205E+03  0.67084464205E+03  0.00000000000E+00 0. -1.
          6    1    1    2  501    0  0.55491141310E+02  0.11063306220E+03 -0.21843816919E+03  0.30433234296E+03  0.17200000000E+03 0.  1.
         -6    1    1    2    0  503 -0.55491141310E+02 -0.11063306220E+03 -0.38204339385E+03  0.43687537811E+03  0.17200000000E+03 0.  1.
</event>
<event>
 4    1  0.1181383E+000  0.2953199E+03  0.7818608E-02  0.1087604E+00
         21   -1    0    0  503  502  0.00000000000E+00  0.00000000000E+00  0.27874053505E+03  0.27874053505E+03  0.00000000000E+00 0.  1.
         21   -1    0    0  501  503 -0.00000000000E+00 -0.00000000000E+00 -0.35806636073E+03  0.35806636073E+03  0.00000000000E+00 0.  1.
          6    1    1    2  501    0  0.17154251054E+03  0.16793752075E+03 -0.15276581055E+03  0.33249246107E+03  0.17200000000E+03 0.  1.
         -6    1    1    2    0  502 -0.17154251054E+03 -0.16793752075E+03  0.73439984869E+02  0.30431443471E+03  0.17200000000E+03 0.  1.
</event>
<event>
 4    1  0.1181383E+000  0.1829255E+03  0.7818608E-02  0.1165001E+00
         21   -1    0    0  503  502  0.00000000000E+00  0.00000000000E+00  0.98162673755E+02  0.98162673755E+02  0.00000000000E+00 0.  1.
         21   -1    0    0  501  503 -0.00000000000E+00 -0.00000000000E+00 -0.36058360234E+03  0.36058360234E+03  0.00000000000E+00 0.  1.
          6    1    1    2  501    0 -0.21218302581E+02 -0.58544955081E+02 -0.18482818598E+03  0.26004458553E+03  0.17200000000E+03 0.  1.
         -6    1    1    2    0  502  0.21218302581E+02  0.58544955081E+02 -0.77592742607E+02  0.19870169057E+03  0.17200000000E+03 0.  1.
</event>
<event>
 4    1  0.1181383E+000  0.1720827E+03  0.7818608E-02  0.1175693E+00
         21   -1    0    0  503  502  0.00000000000E+00  0.00000000000E+00  0.25971608513E+02  0.25971608513E+02  0.00000000000E+00 0. -1.
         21   -1    0    0  501  503 -0.00000000000E+00 -0.00000000000E+00 -0.14025707493E+04  0.14025707493E+04  0.00000000000E+00 0. -1.
          6    1    1    2  501    0  0.60780966457E+00 -0.53001595080E+01 -0.99723672149E+03  0.10119750688E+04  0.17200000000E+03 0. -1.
         -6    1    1    2    0  502 -0.60780966457E+00  0.53001595080E+01 -0.37936241927E+03  0.41656728902E+03  0.17200000000E+03 0. -1.
</event>
<event>
 4    1  0.1181383E+000  0.2177843E+03  0.7818608E-02  0.1135546E+00
         21   -1    0    0  501  502  0.00000000000E+00  0.00000000000E+00  0.68748388925E+02  0.68748388925E+02  0.00000000000E+00 0. -1.
         21   -1    0    0  502  503 -0.00000000000E+00 -0.00000000000E+00 -0.70266085157E+03  0.70266085157E+03  0.00000000000E+00 0. -1.
          6    1    1    2  501    0 -0.29625848584E+02 -0.13026252804E+03 -0.36891957686E+03  0.42840596554E+03  0.17200000000E+03 0.  1.
         -6    1    1    2    0  503  0.29625848584E+02  0.13026252804E+03 -0.26499288578E+03  0.34300327496E+03  0.17200000000E+03 0.  1.
</event>
<event>
 4    1  0.1181383E+000  0.1788559E+03  0.7818608E-02  0.1168915E+00
         21   -1    0    0  503  502  0.00000000000E+00  0.00000000000E+00  0.80546795583E+02  0.80546795583E+02  0.00000000000E+00 0.  1.
         21   -1    0    0  501  503 -0.00000000000E+00 -0.00000000000E+00 -0.54968864760E+03  0.54968864760E+03  0.00000000000E+00 0.  1.
          6    1    1    2  501    0  0.25262776486E+02  0.42038458673E+02 -0.40056762075E+03  0.43868423573E+03  0.17200000000E+03 0.  1.
         -6    1    1    2    0  502 -0.25262776486E+02 -0.42038458673E+02 -0.68574231267E+02  0.19155120745E+03  0.17200000000E+03 0.  1.
</event>
<event>
 4    1  0.1181383E+000  0.1912949E+03  0.7818608E-02  0.1157299E+00
         21   -1    0    0  503  502  0.00000000000E+00  0.00000000000E+00  0.24023843892E+03  0.24023843892E+03  0.00000000000E+00 0. -1.
         21   -1    0    0  501  503 -0.00000000000E+00 -0.00000000000E+00 -0.21782233100E+03  0.21782233100E+03  0.00000000000E+00 0. -1.
          6    1    1    2  501    0 -0.12087835297E+02  0.82846975872E+02  0.13679998842E+03  0.23517647417E+03  0.17200000000E+03 0. -1.
         -6    1    1    2    0  502  0.12087835297E+02 -0.82846975872E+02 -0.11438388050E+03  0.22288429575E+03  0.17200000000E+03 0. -1.
</event>
<event>
 4    1  0.1181383E+000  0.1879770E+03  0.7818608E-02  0.1160299E+00
         21   -1    0    0  503  502  0.00000000000E+00  0.00000000000E+00  0.12658611279E+03  0.12658611279E+03  0.00000000000E+00 0. -1.
         21   -1    0    0  501  503 -0.00000000000E+00 -0.00000000000E+00 -0.70028941148E+03  0.70028941148E+03  0.00000000000E+00 0.  1.
          6    1    1    2  501    0 -0.38985993595E+02 -0.65049564381E+02 -0.60747048208E+03  0.63588972324E+03  0.17200000000E+03 0.  1.
         -6    1    1    2    0  502  0.38985993595E+02  0.65049564381E+02  0.33767183384E+02  0.19098580103E+03  0.17200000000E+03 0. -1.
</event>
<event>
 4    1  0.1181383E+000  0.2161303E+03  0.7818608E-02  0.1136801E+00
         21   -1    0    0  501  502  0.00000000000E+00  0.00000000000E+00  0.10116168708E+04  0.10116168708E+04  0.00000000000E+00 0.  1.
         21   -1    0    0  502  503 -0.00000000000E+00 -0.00000000000E+00 -0.15876378968E+03  0.15876378968E+03  0.00000000000E+00 0.  1.
          6    1    1    2  501    0  0.61106953977E+02  0.11573359378E+03  0.91922261822E+03  0.94428943995E+03  0.17200000000E+03 0.  1.
         -6    1    1    2    0  503 -0.61106953977E+02 -0.11573359378E+03 -0.66369537078E+02  0.22609122054E+03  0.17200000000E+03 0.  1.
</event>
<event>
 4    1  0.1181383E+000  0.1761289E+03  0.7818608E-02  0.1171603E+00
         21   -1    0    0  501  502  0.00000000000E+00  0.00000000000E+00  0.50263332228E+03  0.50263332228E+03  0.00000000000E+00 0. -1.
         21   -1    0    0  502  503 -0.00000000000E+00 -0.00000000000E+00 -0.15670309100E+03  0.15670309100E+03  0.00000000000E+00 0. -1.
          6    1    1    2  501    0 -0.37859347189E+02  0.20180791489E+01  0.42963005870E+03  0.46433112124E+03  0.17200000000E+03 0. -1.
         -6    1    1    2    0  503  0.37859347189E+02 -0.20180791489E+01 -0.83699827421E+02  0.19500529204E+03  0.17200000000E+03 0. -1.
</event>
<event>
 4    1  0.1181383E+000  0.1930216E+03  0.7818608E-02  0.1155764E+00
         21   -1    0    0  501  502  0.00000000000E+00  0.00000000000E+00  0.94344894494E+02  0.94344894494E+02  0.00000000000E+00 0.  1.
         21   -1    0    0  502  503 -0.00000000000E+00 -0.00000000000E+00 -0.39833417593E+03  0.39833417593E+03  0.00000000000E+00 0.  1.
          6    1    1    2  501    0  0.44810123906E+02 -0.75268747923E+02 -0.12914053506E+03  0.23223826001E+03  0.17200000000E+03 0.  1.
         -6    1    1    2    0  503 -0.44810123906E+02  0.75268747923E+02 -0.17484874638E+03  0.26044081041E+03  0.17200000000E+03 0.  1.
</event>
<event>
 4    1  0.1181383E+000  0.1978424E+03  0.7818608E-02  0.1151572E+00
         21   -1    0    0  503  502  0.00000000000E+00  0.00000000000E+00  0.11568432924E+03  0.11568432924E+03  0.00000000000E+00 0. -1.
         21   -1    0    0  501  503 -0.00000000000E+00 -0.00000000000E+00 -0.34192754672E+03  0.34192754672E+03  0.00000000000E+00 0. -1.
          6    1    1    2  501    0 -0.80884000162E+02 -0.54912456086E+02 -0.89711987082E+02  0.21723222584E+03  0.17200000000E+03 0. -1.
         -6    1    1    2    0  502  0.80884000162E+02  0.54912456086E+02 -0.13653123040E+03  0.24037965012E+03  0.17200000000E+03 0. -1.
</event>
<event>
 4    1  0.1181383E+000  0.1782162E+03  0.7818608E-02  0.1169541E+00
         21   -1    0    0  501  502  0.00000000000E+00  0.00000000000E+00  0.11805087499E+03  0.11805087499E+03  0.00000000000E+00 0. -1.
         21   -1    0    0  502  503 -0.00000000000E+00 -0.00000000000E+00 -0.28475789657E+03  0.28475789657E+03  0.00000000000E+00 0. -1.
          6    1    1    2  501    0 -0.91707970268E+01 -0.45748417969E+02 -0.13066388664E+03  0.22098432645E+03  0.17200000000E+03 0.  1.
         -6    1    1    2    0  503  0.91707970268E+01  0.45748417969E+02 -0.36043134936E+02  0.18182444511E+03  0.17200000000E+03 0.  1.
</event>
<event>
 4    1  0.1181383E+000  0.1878871E+03  0.7818608E-02  0.1160381E+00
         21   -1    0    0  503  502  0.00000000000E+00  0.00000000000E+00  0.21102162577E+03  0.21102162577E+03  0.00000000000E+00 0.  1.
         21   -1    0    0  501  503 -0.00000000000E+00 -0.00000000000E+00 -0.19619920942E+03  0.19619920942E+03  0.00000000000E+00 0.  1.
          6    1    1    2  501    0 -0.41747153461E+02  0.63045432631E+02 -0.70747721110E+02  0.20076551357E+03  0.17200000000E+03 0.  1.
         -6    1    1    2    0  502  0.41747153461E+02 -0.63045432631E+02  0.85570137463E+02  0.20645532161E+03  0.17200000000E+03 0.  1.
</event>
<event>
 4    1  0.1181383E+000  0.1739354E+03  0.7818608E-02  0.1173805E+00
         21   -1    0    0  501  502  0.00000000000E+00  0.00000000000E+00  0.77356611857E+02  0.77356611857E+02  0.00000000000E+00 0. -1.
         21   -1    0    0  502  503 -0.00000000000E+00 -0.00000000000E+00 -0.46410266170E+03  0.46410266170E+03  0.00000000000E+00 0. -1.
          6    1    1    2  501    0  0.21204189662E+02  0.14828741191E+02 -0.85992985372E+02  0.19403170555E+03  0.17200000000E+03 0. -1.
         -6    1    1    2    0  503 -0.21204189662E+02 -0.14828741191E+02 -0.30075306448E+03  0.34742756801E+03  0.17200000000E+03 0. -1.
</event>
<event>
 4    1  0.1181383E+000  0.2130119E+03  0.7818608E-02  0.1139203E+00
         21   -1    0    0  503  502  0.00000000000E+00  0.00000000000E+00  0.79313018032E+02  0.79313018032E+02  0.00000000000E+00 0.  1.
         21   -1    0    0  501  503 -0.00000000000E+00 -0.00000000000E+00 -0.78302405848E+03  0.78302405848E+03  0.00000000000E+00 0.  1.
          6    1    1    2  501    0 -0.12383407463E+03 -0.21335480198E+02 -0.57564218887E+03  0.61378987476E+03  0.17200000000E+03 0.  1.
         -6    1    1    2    0  502  0.12383407463E+03  0.21335480198E+02 -0.12806885158E+03  0.24854720175E+03  0.17200000000E+03 0.  1.
</event>
<event>
 4    1  0.1181383E+000  0.1741089E+03  0.7818608E-02  0.1173629E+00
         21   -1    0    0  503  502  0.00000000000E+00  0.00000000000E+00  0.48151970873E+03  0.48151970873E+03  0.00000000000E+00 0. -1.
         21   -1    0    0  501  503 -0.00000000000E+00 -0.00000000000E+00 -0.19603832858E+03  0.19603832858E+03  0.00000000000E+00 0. -1.
          6    1    1    2  501    0 -0.26988250615E+02 -0.12487674350E+01 -0.13639048220E+03  0.22117027089E+03  0.17200000000E+03 0. -1.
         -6    1    1    2    0  502  0.26988250615E+02  0.12487674350E+01  0.42187186235E+03  0.45638776642E+03  0.17200000000E+03 0. -1.
</event>
<event>
 4    1  0.1181383E+000  0.2256200E+03  0.7818608E-02  0.1129761E+00
         21   -1    0    0  501  502  0.00000000000E+00  0.00000000000E+00  0.26029742379E+03  0.26029742379E+03  0.00000000000E+00 0. -1.
         21   -1    0    0  502  503 -0.00000000000E+00 -0.00000000000E+00 -0.19557017540E+03  0.19557017540E+03  0.00000000000E+00 0.  1.
          6    1    1    2  501    0 -0.96531357351E+02 -0.10955402841E+03  0.33801119426E+02  0.22813790515E+03  0.17200000000E+03 0.  1.
         -6    1    1    2    0  503  0.96531357351E+02  0.10955402841E+03  0.30926128968E+02  0.22772969403E+03  0.17200000000E+03 0. -1.
</event>
<event>
 4    1  0.1181383E+000  0.2153831E+03  0.7818608E-02  0.1137373E+00
         21   -1    0    0  501  502  0.00000000000E+00  0.00000000000E+00  0.86079270363E+03  0.86079270363E+03  0.00000000000E+00 0. -1.
         21   -1    0    0  502  503 -0.00000000000E+00 -0.00000000000E+00 -0.10552327327E+03  0.10552327327E+03  0.00000000000E+00 0. -1.
          6    1    1    2  501    0  0.71548627100E+02  0.10810486669E+03  0.71559939783E+03  0.74731008719E+03  0.17200000000E+03 0. -1.
         -6    1    1    2    0  503 -0.71548627100E+02 -0.10810486669E+03  0.39670032528E+02  0.21900588970E+03  0.17200000000E+03 0. -1.
</event>
<event>
 4    1  0.1181383E+000  0.1722154E+03  0.7818608E-02  0.1175557E+00
         21   -1    0    0  501  502  0.00000000000E+00  0.00000000000E+00  0.53444245259E+03  0.53444245259E+03  0.00000000000E+00 0.  1.
         21   -1    0    0  502  503 -0.00000000000E+00 -0.00000000000E+00 -0.18377414595E+03  0.18377414595E+03  0.00000000000E+00 0.  1.
          6    1    1    2  501    0  0.52609598229E+01  0.68166286322E+01  0.47536341178E+03  0.50559718886E+03  0.17200000000E+03 0.  1.
         -6    1    1    2    0  503 -0.52609598229E+01 -0.68166286322E+01 -0.12469510514E+03  0.21261940967E+03  0.17200000000E+03 0.  1.
</event>
<event>
 4    1  0.1181383E+000  0.2062467E+03  0.7818608E-02  0.1144573E+00
         21   -1    0    0  503  502  0.00000000000E+00  0.00000000000E+00  0.20762510144E+03  0.20762510144E+03  0.00000000000E+00 0.  1.
         21   -1    0    0  501  503 -0.00000000000E+00 -0.00000000000E+00 -0.28857576135E+03  0.28857576135E+03  0.00000000000E+00 0. -1.
          6    1    1    2  501    0 -0.10541918107E+02 -0.11332512371E+03 -0.17409049821E+03  0.26989853143E+03  0.17200000000E+03 0. -1.
         -6    1    1    2    0  502  0.10541918107E+02  0.11332512371E+03  0.93139838300E+02  0.22630233136E+03  0.17200000000E+03 0.  1.
</event>
<event>
 4    1  0.1181383E+000  0.2025365E+03  0.7818608E-02  0.1147616E+00
         21   -1    0    0  503  502  0.00000000000E+00  0.00000000000E+00  0.98193829896E+02  0.98193829896E+02  0.00000000000E+00 0.  1.
         21   -1    0    0  501  503 -0.00000000000E+00 -0.00000000000E+00 -0.44542346613E+03  0.44542346613E+03  0.00000000000E+00 0.  1.
          6    1    1    2  501    0 -0.10633570398E+03  0.11390613919E+02 -0.24135776749E+03  0.31507872025E+03  0.17200000000E+03 0.  1.
         -6    1    1    2    0  502  0.10633570398E+03 -0.11390613919E+02 -0.10587186874E+03  0.22853857577E+03  0.17200000000E+03 0.  1.
</event>
<event>
 4    1  0.1181383E+000  0.1789886E+03  0.7818608E-02  0.1168786E+00
         21   -1    0    0  501  502  0.00000000000E+00  0.00000000000E+00  0.20039011632E+03  0.20039011632E+03  0.00000000000E+00 0. -1.
         21   -1    0    0  502  503 -0.00000000000E+00 -0.00000000000E+00 -0.27086525756E+03  0.27086525756E+03  0.00000000000E+00 0. -1.
          6    1    1    2  501    0  0.28957731988E+02 -0.40179079768E+02  0.11559550955E+03  0.21307095185E+03  0.17200000000E+03 0. -1.
         -6    1    1    2    0  503 -0.28957731988E+02  0.40179079768E+02 -0.18607065079E+03  0.25818442203E+03  0.17200000000E+03 0. -1.
</event>
<event>
 4    1  0.1181383E+000  0.1848896E+03  0.7818608E-02  0.1163153E+00
         21   -1    0    0  501  502  0.00000000000E+00  0.00000000000E+00  0.13375843309E+03  0.13375843309E+03  0.00000000000E+00 0. -1.
         21   -1    0    0  502  503 -0.00000000000E+00 -0.00000000000E+00 -0.43441751001E+03  0.43441751001E+03  0.00000000000E+00 0. -1.
          6    1    1    2  501    0 -0.66216022649E+02 -0.14682862074E+02  0.31953023484E+02  0.18763033818E+03  0.17200000000E+03 0. -1.
         -6    1    1    2    0  503  0.66216022649E+02  0.14682862074E+02 -0.33261210040E+03  0.38054560492E+03  0.17200000000E+03 0. -1.
</event>
<event>
 4    1  0.1181383E+000  0.1932740E+03  0.7818608E-02  0.1155541E+00
         21   -1    0    0  503  502  0.00000000000E+00  0.00000000000E+00  0.68605989819E+03  0.68605989819E+03  0.00000000000E+00 0. -1.
         21   -1    0    0  501  503 -0.00000000000E+00 -0.00000000000E+00 -0.55372722997E+02  0.55372722997E+02  0.00000000000E+00 0.  1.
          6    1    1    2  501    0  0.62550819877E+02 -0.62114529271E+02  0.26744522347E+03  0.32997237365E+03  0.17200000000E+03 0.  1.
         -6    1    1    2    0  502 -0.62550819877E+02  0.62114529271E+02  0.36324195172E+03  0.41146024754E+03  0.17200000000E+03 0.  1.
</event>
<event>
 4    1  0.1181383E+000  0.1836395E+03  0.7818608E-02  0.1164326E+00
         21   -1    0    0  503  502  0.00000000000E+00  0.00000000000E+00  0.14638449467E+03  0.14638449467E+03  0.00000000000E+00 0. -1.
         21   -1    0    0  501  503 -0.00000000000E+00 -0.00000000000E+00 -0.26643375283E+03  0.26643375283E+03  0.00000000000E+00 0. -1.
          6    1    1    2  501    0  0.42457005775E+02  0.48341357180E+02 -0.13595808993E+03  0.22849088903E+03  0.17200000000E+03 0.  1.
         -6    1    1    2    0  502 -0.42457005775E+02 -0.48341357180E+02  0.15908831763E+02  0.18432735847E+03  0.17200000000E+03 0.  1.
</event>
<event>
 4    1  0.1181383E+000  0.1808653E+03  0.7818608E-02  0.1166968E+00
         21   -1    0    0  501  502  0.00000000000E+00  0.00000000000E+00  0.47260113621E+02  0.47260113621E+02  0.00000000000E+00 0.  1.
         21   -1    0    0  502  503 -0.00000000000E+00 -0.00000000000E+00 -0.71409288819E+03  0.71409288819E+03  0.00000000000E+00 0.  1.
          6    1    1    2  501    0 -0.54813647153E+02 -0.11123763380E+02 -0.26672387994E+03  0.32226371523E+03  0.17200000000E+03 0.  1.
         -6    1    1    2    0  503  0.54813647153E+02  0.11123763380E+02 -0.40010889463E+03  0.43908928658E+03  0.17200000000E+03 0.  1.
</event>
<event>
 4    1  0.1181383E+000  0.1722439E+03  0.7818608E-02  0.1175528E+00
         21   -1    0    0  501  502  0.00000000000E+00  0.00000000000E+00  0.19293619742E+03  0.19293619742E+03  0.00000000000E+00 0.  1.
         21   -1    0    0  502  503 -0.00000000000E+00 -0.00000000000E+00 -0.22531219880E+03  0.22531219880E+03  0.00000000000E+00 0.  1.
          6    1    1    2  501    0 -0.87754567482E+01  0.26361323479E+01 -0.13402741629E+03  0.21824597626E+03  0.17200000000E+03 0.  1.
         -6    1    1    2    0  503  0.87754567482E+01 -0.26361323479E+01  0.10165141491E+03  0.20000241996E+03  0.17200000000E+03 0.  1.
</event>
<event>
 4    1  0.1181383E+000  0.2157942E+03  0.7818608E-02  0.1137058E+00
         21   -1    0    0  503  502  0.00000000000E+00  0.00000000000E+00  0.29327528442E+02  0.29327528442E+02  0.00000000000E+00 0.  1.
         21   -1    0    0  501  503 -0.00000000000E+00 -0.00000000000E+00 -0.15890994359E+04  0.15890994359E+04  0.00000000000E+00 0.  1.
          6    1    1    2  501    0 -0.62362520650E+02 -0.11442917153E+03 -0.75701140770E+03  0.78716795582E+03  0.17200000000E+03 0. -1.
         -6    1    1    2    0  502  0.62362520650E+02  0.11442917153E+03 -0.80276049972E+03  0.83125900848E+03  0.17200000000E+03 0. -1.
</event>
<event>
 4    1  0.1181383E+000  0.1923970E+03  0.7818608E-02  0.1156317E+00
         21   -1    0    0  501  502  0.00000000000E+00  0.00000000000E+00  0.16177470487E+04  0.16177470487E+04  0.00000000000E+00 0. -1.
         21   -1    0    0  502  503 -0.00000000000E+00 -0.00000000000E+00 -0.44351790896E+02  0.44351790896E+02  0.00000000000E+00 0.  1.
          6    1    1    2  501    0  0.79237471935E+02  0.33971186165E+02  0.13649126413E+04  0.13784060131E+04  0.17200000000E+03 0. -1.
         -6    1    1    2    0  503 -0.79237471935E+02 -0.33971186165E+02  0.20848261652E+03  0.28369282656E+03  0.17200000000E+03 0.  1.
</event>
<event>
 4    1  0.1181383E+000  0.2076253E+03  0.7818608E-02  0.1143460E+00
         21   -1    0    0  501  502  0.00000000000E+00  0.00000000000E+00  0.41962097822E+03  0.41962097822E+03  0.00000000000E+00 0. -1.
         21   -1    0    0  502  503 -0.00000000000E+00 -0.00000000000E+00 -0.11198687017E+03  0.11198687017E+03  0.00000000000E+00 0. -1.
          6    1    1    2  501    0 -0.90280666265E+02  0.73305391176E+02  0.77402605513E+02  0.22158393989E+03  0.17200000000E+03 0.  1.
         -6    1    1    2    0  503  0.90280666265E+02 -0.73305391176E+02  0.23023150255E+03  0.31002390850E+03  0.17200000000E+03 0.  1.
</event>
<event>
 4    1  0.1181383E+000  0.1835528E+03  0.7818608E-02  0.1164408E+00
         21   -1    0    0  503  502  0.00000000000E+00  0.00000000000E+00  0.32725325354E+03  0.32725325354E+03  0.00000000000E+00 0.  1.
         21   -1    0    0  501  503 -0.00000000000E+00 -0.00000000000E+00 -0.10456000476E+03  0.10456000476E+03  0.00000000000E+00 0.  1.
          6    1    1    2  501    0  0.58292332639E+02  0.26639282625E+02  0.13811458036E+03  0.22971130737E+03  0.17200000000E+03 0.  1.
         -6    1    1    2    0  502 -0.58292332639E+02 -0.26639282625E+02  0.84578668416E+02  0.20210195094E+03  0.17200000000E+03 0.  1.
</event>
<event>
 4    1  0.1181383E+000  0.1749365E+03  0.7818608E-02  0.1172795E+00
         21   -1    0    0  503  502  0.00000000000E+00  0.00000000000E+00  0.31937561700E+03  0.31937561700E+03  0.00000000000E+00 0.  1.
         21   -1    0    0  501  503 -0.00000000000E+00 -0.00000000000E+00 -0.99507443087E+02  0.99507443087E+02  0.00000000000E+00 0.  1.
          6    1    1    2  501    0  0.23554379415E+02  0.21540140309E+02  0.15024828912E+03  0.23060211364E+03  0.17200000000E+03 0.  1.
         -6    1    1    2    0  502 -0.23554379415E+02 -0.21540140309E+02  0.69619884794E+02  0.18828094644E+03  0.17200000000E+03 0.  1.
</event>
<event>
 4    1  0.1181383E+000  0.1750353E+03  0.7818608E-02  0.1172696E+00
         21   -1    0    0  503  502  0.00000000000E+00  0.00000000000E+00  0.84454973387E+02  0.84454973387E+02  0.00000000000E+00 0. -1.
         21   -1    0    0  501  503 -0.00000000000E+00 -0.00000000000E+00 -0.39862368599E+03  0.39862368599E+03  0.00000000000E+00 0. -1.
          6    1    1    2  501    0 -0.31379047022E+02  0.82899749711E+01 -0.22952781889E+03  0.28865271161E+03  0.17200000000E+03 0. -1.
         -6    1    1    2    0  502  0.31379047022E+02 -0.82899749711E+01 -0.84640893721E+02  0.19442594777E+03  0.17200000000E+03 0. -1.
</event>
<event>
 4    1  0.1181383E+000  0.1898241E+03  0.7818608E-02  0.1158620E+00
         21   -1    0    0  503  502  0.00000000000E+00  0.00000000000E+00  0.62830271798E+02  0.62830271798E+02  0.00000000000E+00 0. -1.
         21   -1    0    0  501  503 -0.00000000000E+00 -0.00000000000E+00 -0.78002033071E+03  0.78002033071E+03  0.00000000000E+00 0. -1.
          6    1    1    2  501    0 -0.80191440761E+02 -0.43036717656E+01 -0.57543961569E+03  0.60594054169E+03  0.17200000000E+03 0. -1.
         -6    1    1    2    0  502  0.80191440761E+02  0.43036717656E+01 -0.14175044322E+03  0.23691006082E+03  0.17200000000E+03 0. -1.
</event>
<event>
 4    1  0.1181383E+000  0.2390351E+03  0.7818608E-02  0.1120437E+00
         21   -1    0    0  503  502  0.00000000000E+00  0.00000000000E+00  0.17943118655E+03  0.17943118655E+03  0.00000000000E+00 0. -1.
         21   -1    0    0  501  503 -0.00000000000E+00 -0.00000000000E+00 -0.32955213066E+03  0.32955213066E+03  0.00000000000E+00 0. -1.
          6    1    1    2  501    0 -0.15038356942E+03 -0.70274794618E+02 -0.12179556215E+03  0.26827583505E+03  0.17200000000E+03 0.  1.
         -6    1    1    2    0  502  0.15038356942E+03  0.70274794618E+02 -0.28325381957E+02  0.24070748217E+03  0.17200000000E+03 0.  1.
</event>
<event>
 4    1  0.1181383E+000  0.3447930E+03  0.7818608E-02  0.1064773E+00
         21   -1    0    0  503  502  0.00000000000E+00  0.00000000000E+00  0.50151274973E+03  0.50151274973E+03  0.00000000000E+00 0.  1.
         21   -1    0    0  501  503 -0.00000000000E+00 -0.00000000000E+00 -0.34563860029E+03  0.34563860029E+03  0.00000000000E+00 0. -1.
          6    1    1    2  501    0  0.22207417207E+03  0.19995316434E+03 -0.15948306631E+03  0.37989084520E+03  0.17200000000E+03 0. -1.
         -6    1    1    2    0  502 -0.22207417207E+03 -0.19995316434E+03  0.31535721575E+03  0.46726050481E+03  0.17200000000E+03 0.  1.
</event>
<event>
 4    1  0.1181383E+000  0.3137441E+03  0.7818608E-02  0.1078565E+00
         21   -1    0    0  503  502  0.00000000000E+00  0.00000000000E+00  0.17714880700E+03  0.17714880700E+03  0.00000000000E+00 0. -1.
         21   -1    0    0  501  503 -0.00000000000E+00 -0.00000000000E+00 -0.10243296272E+04  0.10243296272E+04  0.00000000000E+00 0.  1.
          6    1    1    2  501    0  0.23412087518E+03 -0.11848524627E+03 -0.82993768025E+03  0.88726089223E+03  0.17200000000E+03 0.  1.
         -6    1    1    2    0  502 -0.23412087518E+03  0.11848524627E+03 -0.17243139895E+02  0.31421754193E+03  0.17200000000E+03 0. -1.
</event>
<event>
 4    1  0.1181383E+000  0.1780930E+03  0.7818608E-02  0.1169661E+00
         21   -1    0    0  501  502  0.00000000000E+00  0.00000000000E+00  0.65408178254E+02  0.65408178254E+02  0.00000000000E+00 0. -1.
         21   -1    0    0  502  503 -0.00000000000E+00 -0.00000000000E+00 -0.59159156282E+03  0.59159156282E+03  0.00000000000E+00 0. -1.
          6    1    1    2  501    0  0.16991000963E+02  0.42946885450E+02 -0.12359389008E+03  0.21677771737E+03  0.17200000000E+03 0. -1.
         -6    1    1    2    0  503 -0.16991000963E+02 -0.42946885450E+02 -0.40258949449E+03  0.44022202370E+03  0.17200000000E+03 0. -1.
</event>
<event>
 4    1  0.1181383E+000  0.1778911E+03  0.7818608E-02  0.1169860E+00
         21   -1    0    0  501  502  0.00000000000E+00  0.00000000000E+00  0.26686337225E+04  0.26686337225E+04  0.00000000000E+00 0. -1.
         21   -1    0    0  502  503 -0.00000000000E+00 -0.00000000000E+00 -0.20471833943E+02  0.20471833943E+02  0.00000000000E+00 0. -1.
          6    1    1    2  501    0  0.95450183780E+01  0.44386296037E+02  0.21962328515E+04  0.22034255124E+04  0.17200000000E+03 0. -1.
         -6    1    1    2    0  503 -0.95450183780E+01 -0.44386296037E+02  0.45192903700E+03  0.48568004400E+03  0.17200000000E+03 0. -1.
</event>
<event>
 4    1  0.1181383E+000  0.2144356E+03  0.7818608E-02  0.1138101E+00
         21   -1    0    0  503  502  0.00000000000E+00  0.00000000000E+00  0.30686505604E+03  0.30686505604E+03  0.00000000000E+00 0.  1.
         21   -1    0    0  501  503 -0.00000000000E+00 -0.00000000000E+00 -0.30421184031E+03  0.30421184031E+03  0.00000000000E+00 0.  1.
          6    1    1    2  501    0  0.81969355445E+02  0.98385312571E+02 -0.21632042630E+03  0.30459345330E+03  0.17200000000E+03 0.  1.
         -6    1    1    2    0  502 -0.81969355445E+02 -0.98385312571E+02  0.21897364202E+03  0.30648344305E+03  0.17200000000E+03 0.  1.
</event>
<event>
 4    1  0.1181383E+000  0.2107845E+03  0.7818608E-02  0.1140946E+00
         21   -1    0    0  503  502  0.00000000000E+00  0.00000000000E+00  0.51870212278E+03  0.51870212278E+03  0.00000000000E+00 0. -1.
         21   -1    0    0  501  503 -0.00000000000E+00 -0.00000000000E+00 -0.18927499429E+03  0.18927499429E+03  0.00000000000E+00 0. -1.
          6    1    1    2  501    0 -0.89024726960E+02 -0.83190771877E+02 -0.97202209469E+02  0.23211716020E+03  0.17200000000E+03 0.  1.
         -6    1    1    2    0  502  0.89024726960E+02  0.83190771877E+02  0.42662933797E+03  0.47585995687E+03  0.17200000000E+03 0.  1.
</event>
<event>
 4    1  0.1181383E+000  0.5105250E+03  0.7818608E-02  0.1011068E+00
         21   -1    0    0  501  502  0.00000000000E+00  0.00000000000E+00  0.20952589345E+03  0.20952589345E+03  0.00000000000E+00 0.  1.
         21   -1    0    0  502  503 -0.00000000000E+00 -0.00000000000E+00 -0.12977461629E+04  0.12977461629E+04  0.00000000000E+00 0. -1.
          6    1    1    2  501    0  0.35250585258E+03  0.32678945960E+03 -0.39064150061E+03  0.64283474471E+03  0.17200000000E+03 0.  1.
         -6    1    1    2    0  503 -0.35250585258E+03 -0.32678945960E+03 -0.69757876881E+03  0.86443731161E+03  0.17200000000E+03 0. -1.
</event>
<event>
 4    1  0.1181383E+000  0.2915329E+03  0.7818608E-02  0.1089552E+00
         21   -1    0    0  501  502  0.00000000000E+00  0.00000000000E+00  0.77874686322E+03  0.77874686322E+03  0.00000000000E+00 0. -1.
         21   -1    0    0  502  503 -0.00000000000E+00 -0.00000000000E+00 -0.20770929869E+03  0.20770929869E+03  0.00000000000E+00 0.  1.
          6    1    1    2  501    0 -0.21470243154E+03 -0.96489888468E+02  0.62529539829E+03  0.68991721808E+03  0.17200000000E+03 0. -1.
         -6    1    1    2    0  503  0.21470243154E+03  0.96489888468E+02 -0.54257833760E+02  0.29653894383E+03  0.17200000000E+03 0.  1.
</event>
<event>
 4    1  0.1181383E+000  0.1985009E+03  0.7818608E-02  0.1151010E+00
         21   -1    0    0  503  502  0.00000000000E+00  0.00000000000E+00  0.57269057508E+02  0.57269057508E+02  0.00000000000E+00 0. -1.
         21   -1    0    0  501  503 -0.00000000000E+00 -0.00000000000E+00 -0.19727902138E+04  0.19727902138E+04  0.00000000000E+00 0. -1.
          6    1    1    2  501    0  0.56556713589E+02 -0.81363037005E+02 -0.17768851813E+04  0.17879383527E+04  0.17200000000E+03 0. -1.
         -6    1    1    2    0  502 -0.56556713589E+02  0.81363037005E+02 -0.13863597495E+03  0.24212091854E+03  0.17200000000E+03 0. -1.
</event>
<event>
 4    1  0.1181383E+000  0.1877594E+03  0.7818608E-02  0.1160498E+00
         21   -1    0    0  501  502  0.00000000000E+00  0.00000000000E+00  0.13131120510E+04  0.13131120510E+04  0.00000000000E+00 0.  1.
         21   -1    0    0  502  503 -0.00000000000E+00 -0.00000000000E+00 -0.27367089515E+02  0.27367089515E+02  0.00000000000E+00 0.  1.
          6    1    1    2  501    0 -0.43635229419E+02 -0.61364278697E+02  0.73523576347E+03  0.75883149370E+03  0.17200000000E+03 0.  1.
         -6    1    1    2    0  503  0.43635229419E+02  0.61364278697E+02  0.55050919801E+03  0.58164764681E+03  0.17200000000E+03 0.  1.
</event>
<event>
 4    1  0.1181383E+000  0.2280461E+03  0.7818608E-02  0.1128023E+00
         21   -1    0    0  501  502  0.00000000000E+00  0.00000000000E+00  0.12752442913E+04  0.12752442913E+04  0.00000000000E+00 0.  1.
         21   -1    0    0  502  503 -0.00000000000E+00 -0.00000000000E+00 -0.14925762791E+03  0.14925762791E+03  0.00000000000E+00 0. -1.
          6    1    1    2  501    0  0.13298061313E+03 -0.68827310723E+02  0.11701963965E+04  0.11922099851E+04  0.17200000000E+03 0.  1.
         -6    1    1    2    0  503 -0.13298061313E+03  0.68827310723E+02 -0.44209733088E+02  0.23229193414E+03  0.17200000000E+03 0. -1.
</event>
<event>
 4    1  0.1181383E+000  0.1796643E+03  0.7818608E-02  0.1168128E+00
         21   -1    0    0  501  502  0.00000000000E+00  0.00000000000E+00  0.16017501108E+03  0.16017501108E+03  0.00000000000E+00 0.  1.
         21   -1    0    0  502  503 -0.00000000000E+00 -0.00000000000E+00 -0.26495362792E+03  0.26495362792E+03  0.00000000000E+00 0.  1.
          6    1    1    2  501    0 -0.14588972152E+02 -0.49823967503E+02  0.51614240644E+02  0.18693125925E+03  0.17200000000E+03 0. -1.
         -6    1    1    2    0  503  0.14588972152E+02  0.49823967503E+02 -0.15639285749E+03  0.23819737975E+03  0.17200000000E+03 0. -1.
</event>
<event>
 4    1  0.1181383E+000  0.2425969E+03  0.7818608E-02  0.1118075E+00
         21   -1    0    0  503  502  0.00000000000E+00  0.00000000000E+00  0.17388789026E+04  0.17388789026E+04  0.00000000000E+00 0.  1.
         21   -1    0    0  501  503 -0.00000000000E+00 -0.00000000000E+00 -0.38254516439E+02  0.38254516439E+02  0.00000000000E+00 0. -1.
          6    1    1    2  501    0  0.72068927044E+02 -0.15516218063E+03  0.54865106502E+03  0.59989267681E+03  0.17200000000E+03 0. -1.
         -6    1    1    2    0  502 -0.72068927044E+02  0.15516218063E+03  0.11519733212E+04  0.11772407423E+04  0.17200000000E+03 0. -1.
</event>
<event>
 4    1  0.1181383E+000  0.1859875E+03  0.7818608E-02  0.1162131E+00
         21   -1    0    0  503  502  0.00000000000E+00  0.00000000000E+00  0.74259860987E+03  0.74259860987E+03  0.00000000000E+00 0.  1.
         21   -1    0    0  501  503 -0.00000000000E+00 -0.00000000000E+00 -0.52212554083E+02  0.52212554083E+02  0.00000000000E+00 0.  1.
          6    1    1    2  501    0  0.48700704238E+02  0.51337916362E+02  0.47570255634E+03  0.51076830595E+03  0.17200000000E+03 0.  1.
         -6    1    1    2    0  502 -0.48700704238E+02 -0.51337916362E+02  0.21468349944E+03  0.28404285800E+03  0.17200000000E+03 0.  1.
</event>
<event>
 4    1  0.1181383E+000  0.2209355E+03  0.7818608E-02  0.1133188E+00
         21   -1    0    0  503  502  0.00000000000E+00  0.00000000000E+00  0.36643658618E+03  0.36643658618E+03  0.00000000000E+00 0.  1.
         21   -1    0    0  501  503 -0.00000000000E+00 -0.00000000000E+00 -0.13908750019E+03  0.13908750019E+03  0.00000000000E+00 0.  1.
          6    1    1    2  501    0 -0.51586238970E+02 -0.12871421503E+03  0.61708768381E+02  0.22939150223E+03  0.17200000000E+03 0. -1.
         -6    1    1    2    0  502  0.51586238970E+02  0.12871421503E+03  0.16564031761E+03  0.27613258413E+03  0.17200000000E+03 0. -1.
</event>
<event>
 4    1  0.1181383E+000  0.2712991E+03  0.7818608E-02  0.1100538E+00
         21   -1    0    0  501  502  0.00000000000E+00  0.00000000000E+00  0.41154375900E+03  0.41154375900E+03  0.00000000000E+00 0.  1.
         21   -1    0    0  502  503 -0.00000000000E+00 -0.00000000000E+00 -0.30675939000E+03  0.30675939000E+03  0.00000000000E+00 0. -1.
          6    1    1    2  501    0 -0.17612974338E+03 -0.11400671998E+03  0.28431087979E+03  0.39298332671E+03  0.17200000000E+03 0.  1.
         -6    1    1    2    0  503  0.17612974338E+03  0.11400671998E+03 -0.17952651078E+03  0.32531982229E+03  0.17200000000E+03 0. -1.
</event>
<event>
 4    1  0.1181383E+000  0.2280058E+03  0.7818608E-02  0.1128051E+00
         21   -1    0    0  501  502  0.00000000000E+00  0.00000000000E+00  0.21737204458E+03  0.21737204458E+03  0.00000000000E+00 0. -1.
         21   -1    0    0  502  503 -0.00000000000E+00 -0.00000000000E+00 -0.43998570879E+03  0.43998570879E+03  0.00000000000E+00 0. -1.
          6    1    1    2  501    0 -0.31124772783E+02 -0.14640314935E+03  0.11074915348E+03  0.25347979923E+03  0.17200000000E+03 0. -1.
         -6    1    1    2    0  503  0.31124772783E+02  0.14640314935E+03 -0.33336281769E+03  0.40387795414E+03  0.17200000000E+03 0. -1.
</event>
<event>
 4    1  0.1181383E+000  0.1797628E+03  0.7818608E-02  0.1168033E+00
         21   -1    0    0  503  502  0.00000000000E+00  0.00000000000E+00  0.95524319539E+02  0.95524319539E+02  0.00000000000E+00 0.  1.
         21   -1    0    0  501  503 -0.00000000000E+00 -0.00000000000E+00 -0.33860306971E+03  0.33860306971E+03  0.00000000000E+00 0.  1.
          6    1    1    2  501    0  0.39857987509E+02  0.33793624487E+02 -0.11491114486E+03  0.21335238325E+03  0.17200000000E+03 0. -1.
         -6    1    1    2    0  502 -0.39857987509E+02 -0.33793624487E+02 -0.12816760531E+03  0.22077500600E+03  0.17200000000E+03 0. -1.
</event>
<event>
 4    1  0.1181383E+000  0.1814985E+03  0.7818608E-02  0.1166361E+00
         21   -1    0    0  501  502  0.00000000000E+00  0.00000000000E+00  0.68595612602E+03  0.68595612602E+03  0.00000000000E+00 0. -1.
         21   -1    0    0  502  503 -0.00000000000E+00 -0.00000000000E+00 -0.49892374934E+02  0.49892374934E+02  0.00000000000E+00 0. -1.
          6    1    1    2  501    0  0.23955454205E+02  0.52762125938E+02  0.38924887304E+03  0.42948386568E+03  0.17200000000E+03 0.  1.
         -6    1    1    2    0  503 -0.23955454205E+02 -0.52762125938E+02  0.24681487805E+03  0.30636463527E+03  0.17200000000E+03 0.  1.
</event>
<event>
 4    1  0.1181383E+000  0.2097432E+03  0.7818608E-02  0.1141770E+00
         21   -1    0    0  501  502  0.00000000000E+00  0.00000000000E+00  0.44492644321E+03  0.44492644321E+03  0.00000000000E+00 0. -1.
         21   -1    0    0  502  503 -0.00000000000E+00 -0.00000000000E+00 -0.37829503073E+03  0.37829503073E+03  0.00000000000E+00 0.  1.
          6    1    1    2  501    0 -0.40027924058E+02  0.11316346695E+03  0.38706857057E+03  0.44024343639E+03  0.17200000000E+03 0. -1.
         -6    1    1    2    0  503  0.40027924058E+02 -0.11316346695E+03 -0.32043715809E+03  0.38297803755E+03  0.17200000000E+03 0.  1.
</event>
<event>
 4    1  0.1181383E+000  0.1904239E+03  0.7818608E-02  0.1158080E+00
         21   -1    0    0  501  502  0.00000000000E+00  0.00000000000E+00  0.24024118095E+03  0.24024118095E+03  0.00000000000E+00 0.  1.
         21   -1    0    0  502  503 -0.00000000000E+00 -0.00000000000E+00 -0.16936906666E+03  0.16936906666E+03  0.00000000000E+00 0.  1.
          6    1    1    2  501    0  0.47729335116E+02  0.66326306398E+02  0.10299945945E+03  0.21649516623E+03  0.17200000000E+03 0.  1.
         -6    1    1    2    0  503 -0.47729335116E+02 -0.66326306398E+02 -0.32127345169E+02  0.19311508139E+03  0.17200000000E+03 0.  1.
</event>
<event>
 4    1  0.1181383E+000  0.1780739E+03  0.7818608E-02  0.1169680E+00
         21   -1    0    0  503  502  0.00000000000E+00  0.00000000000E+00  0.36026059444E+03  0.36026059444E+03  0.00000000000E+00 0.  1.
         21   -1    0    0  501  503 -0.00000000000E+00 -0.00000000000E+00 -0.19962381391E+03  0.19962381391E+03  0.00000000000E+00 0.  1.
          6    1    1    2  501    0  0.44282181435E+02  0.12860638240E+02 -0.12899682708E+03  0.21988744622E+03  0.17200000000E+03 0.  1.
         -6    1    1    2    0  502 -0.44282181435E+02 -0.12860638240E+02  0.28963360761E+03  0.33999696214E+03  0.17200000000E+03 0.  1.
</event>
<event>
 4    1  0.1181383E+000  0.2718033E+03  0.7818608E-02  0.1100252E+00
         21   -1    0    0  501  502  0.00000000000E+00  0.00000000000E+00  0.92512576373E+03  0.92512576373E+03  0.00000000000E+00 0. -1.
         21   -1    0    0  502  503 -0.00000000000E+00 -0.00000000000E+00 -0.14121639643E+03  0.14121639643E+03  0.00000000000E+00 0. -1.
          6    1    1    2  501    0  0.13027723319E+03  0.16529032378E+03  0.74340773153E+03  0.79153780953E+03  0.17200000000E+03 0. -1.
         -6    1    1    2    0  503 -0.13027723319E+03 -0.16529032378E+03  0.40501635775E+02  0.27480435063E+03  0.17200000000E+03 0. -1.
</event>
<event>
 4    1  0.1181383E+000  0.2075573E+03  0.7818608E-02  0.1143515E+00
         21   -1    0    0  501  502  0.00000000000E+00  0.00000000000E+00  0.26522090943E+03  0.26522090943E+03  0.00000000000E+00 0. -1.
         21   -1    0    0  502  503 -0.00000000000E+00 -0.00000000000E+00 -0.17126131325E+03  0.17126131325E+03  0.00000000000E+00 0. -1.
          6    1    1    2  501    0  0.18662160534E+02  0.11466366509E+03 -0.25767481212E+01  0.20757329298E+03  0.17200000000E+03 0. -1.
         -6    1    1    2    0  503 -0.18662160534E+02 -0.11466366509E+03  0.96536344304E+02  0.22890892971E+03  0.17200000000E+03 0. -1.
</event>
<event>
 4    1  0.1181383E+000  0.1734108E+03  0.7818608E-02  0.1174337E+00
         21   -1    0    0  501  502  0.00000000000E+00  0.00000000000E+00  0.16231441066E+04  0.16231441066E+04  0.00000000000E+00 0. -1.
         21   -1    0    0  502  503 -0.00000000000E+00 -0.00000000000E+00 -0.71660777899E+02  0.71660777899E+02  0.00000000000E+00 0. -1.
          6    1    1    2  501    0 -0.19453503674E+00  0.22073997177E+02  0.15054277112E+04  0.15153824246E+04  0.17200000000E+03 0. -1.
         -6    1    1    2    0  503  0.19453503674E+00 -0.22073997177E+02  0.46055617460E+02  0.17942245984E+03  0.17200000000E+03 0. -1.
</event>
<event>
 4    1  0.1181383E+000  0.2393721E+03  0.7818608E-02  0.1120212E+00
         21   -1    0    0  501  502  0.00000000000E+00  0.00000000000E+00  0.93293154438E+02  0.93293154438E+02  0.00000000000E+00 0.  1.
         21   -1    0    0  502  503 -0.00000000000E+00 -0.00000000000E+00 -0.70297216074E+03  0.70297216074E+03  0.00000000000E+00 0.  1.
          6    1    1    2  501    0 -0.16629114593E+03 -0.78888729045E+01 -0.44633449646E+03  0.50647158090E+03  0.17200000000E+03 0.  1.
         -6    1    1    2    0  503  0.16629114593E+03  0.78888729045E+01 -0.16334450984E+03  0.28979373428E+03  0.17200000000E+03 0.  1.
</event>
<event>
 4    1  0.1181383E+000  0.4112468E+03  0.7818608E-02  0.1039953E+00
         21   -1    0    0  503  502  0.00000000000E+00  0.00000000000E+00  0.41526845338E+03  0.41526845338E+03  0.00000000000E+00 0.  1.
         21   -1    0    0  501  503 -0.00000000000E+00 -0.00000000000E+00 -0.44219236665E+03  0.44219236665E+03  0.00000000000E+00 0. -1.
          6    1    1    2  501    0  0.37121075667E+03 -0.41743064255E+02 -0.13395654423E+03  0.43251388997E+03  0.17200000000E+03 0. -1.
         -6    1    1    2    0  502 -0.37121075667E+03  0.41743064255E+02  0.10703263096E+03  0.42494693006E+03  0.17200000000E+03 0.  1.
</event>
<event>
 4    1  0.1181383E+000  0.1995699E+03  0.7818608E-02  0.1150102E+00
         21   -1    0    0  501  502  0.00000000000E+00  0.00000000000E+00  0.80236152076E+02  0.80236152076E+02  0.00000000000E+00 0. -1.
         21   -1    0    0  502  503 -0.00000000000E+00 -0.00000000000E+00 -0.71854281399E+03  0.71854281399E+03  0.00000000000E+00 0. -1.
          6    1    1    2  501    0 -0.87301412475E+02  0.51211301844E+02 -0.54122836388E+03  0.57685030634E+03  0.17200000000E+03 0. -1.
         -6    1    1    2    0  503  0.87301412475E+02 -0.51211301844E+02 -0.97078298028E+02  0.22192865972E+03  0.17200000000E+03 0. -1.
</event>
<event>
 4    1  0.1181383E+000  0.1847591E+03  0.7818608E-02  0.1163275E+00
         21   -1    0    0  501  502  0.00000000000E+00  0.00000000000E+00  0.30581052240E+03  0.30581052240E+03  0.00000000000E+00 0.  1.
         21   -1    0    0  502  503 -0.00000000000E+00 -0.00000000000E+00 -0.33051186558E+03  0.33051186558E+03  0.00000000000E+00 0.  1.
          6    1    1    2  501    0 -0.33827570897E+02 -0.58374782738E+02  0.24656844364E+03  0.30811023548E+03  0.17200000000E+03 0.  1.
         -6    1    1    2    0  503  0.33827570897E+02  0.58374782738E+02 -0.27126978681E+03  0.32821215250E+03  0.17200000000E+03 0.  1.
</event>
<event>
 4    1  0.1181383E+000  0.2244396E+03  0.7818608E-02  0.1130616E+00
         21   -1    0    0  501  502  0.00000000000E+00  0.00000000000E+00  0.46805352862E+03  0.46805352862E+03  0.00000000000E+00 0. -1.
         21   -1    0    0  502  503 -0.00000000000E+00 -0.00000000000E+00 -0.12601316409E+03  0.12601316409E+03  0.00000000000E+00 0. -1.
          6    1    1    2  501    0 -0.12253669619E+03 -0.75986054428E+02  0.28449386795E+03  0.36236705601E+03  0.17200000000E+03 0. -1.
         -6    1    1    2    0  503  0.12253669619E+03  0.75986054428E+02  0.57546496577E+02  0.23169963670E+03  0.17200000000E+03 0. -1.
</event>
<event>
 4    1  0.1181383E+000  0.2118862E+03  0.7818608E-02  0.1140081E+00
         21   -1    0    0  503  502  0.00000000000E+00  0.00000000000E+00  0.15697142423E+03  0.15697142423E+03  0.00000000000E+00 0.  1.
         21   -1    0    0  501  503 -0.00000000000E+00 -0.00000000000E+00 -0.28605160845E+03  0.28605160845E+03  0.00000000000E+00 0. -1.
          6    1    1    2  501    0  0.46125746626E+02 -0.11482245577E+03 -0.61948216706E+02  0.22075634171E+03  0.17200000000E+03 0.  1.
         -6    1    1    2    0  502 -0.46125746626E+02  0.11482245577E+03 -0.67131967510E+02  0.22226669097E+03  0.17200000000E+03 0. -1.
</event>
<event>
 4    1  0.1181383E+000  0.1895723E+03  0.7818608E-02  0.1158848E+00
         21   -1    0    0  503  502  0.00000000000E+00  0.00000000000E+00  0.16107690774E+03  0.16107690774E+03  0.00000000000E+00 0.  1.
         21   -1    0    0  501  503 -0.00000000000E+00 -0.00000000000E+00 -0.54727231364E+03  0.54727231364E+03  0.00000000000E+00 0.  1.
          6    1    1    2  501    0  0.88769063383E+01  0.79214000568E+02 -0.46568011339E+03  0.50278785324E+03  0.17200000000E+03 0.  1.
         -6    1    1    2    0  502 -0.88769063383E+01 -0.79214000568E+02  0.79484707490E+02  0.20556136815E+03  0.17200000000E+03 0.  1.
</event>
<event>
 4    1  0.1181383E+000  0.1918606E+03  0.7818608E-02  0.1156794E+00
         21   -1    0    0  501  502  0.00000000000E+00  0.00000000000E+00  0.54844447999E+02  0.54844447999E+02  0.00000000000E+00 0. -1.
         21   -1    0    0  502  503 -0.00000000000E+00 -0.00000000000E+00 -0.68846005988E+03  0.68846005988E+03  0.00000000000E+00 0. -1.
          6    1    1    2  501    0 -0.60154879135E+02  0.60065726683E+02 -0.25792764211E+03  0.32146099230E+03  0.17200000000E+03 0. -1.
         -6    1    1    2    0  503  0.60154879135E+02 -0.60065726683E+02 -0.37568796977E+03  0.42184351558E+03  0.17200000000E+03 0. -1.
</event>
<event>
 4    1  0.1181383E+000  0.2070069E+03  0.7818608E-02  0.1143958E+00
         21   -1    0    0  503  502  0.00000000000E+00  0.00000000000E+00  0.91833216937E+03  0.91833216937E+03  0.00000000000E+00 0. -1.
         21   -1    0    0  501  503 -0.00000000000E+00 -0.00000000000E+00 -0.73447056443E+02  0.73447056443E+02  0.00000000000E+00 0. -1.
          6    1    1    2  501    0 -0.68211042172E+02 -0.92817612907E+02  0.12298281303E+03  0.24078336288E+03  0.17200000000E+03 0. -1.
         -6    1    1    2    0  502  0.68211042172E+02  0.92817612907E+02  0.72190229990E+03  0.75099586293E+03  0.17200000000E+03 0. -1.
</event>
<event>
 4    1  0.1181383E+000  0.1823946E+03  0.7818608E-02  0.1165505E+00
         21   -1    0    0  501  502  0.00000000000E+00  0.00000000000E+00  0.68970213737E+03  0.68970213737E+03  0.00000000000E+00 0. -1.
         21   -1    0    0  502  503 -0.00000000000E+00 -0.00000000000E+00 -0.44457104614E+03  0.44457104614E+03  0.00000000000E+00 0. -1.
          6    1    1    2  501    0 -0.52931432261E+01 -0.60462874489E+02  0.65805247251E+03  0.68286223584E+03  0.17200000000E+03 0. -1.
         -6    1    1    2    0  503  0.52931432261E+01  0.60462874489E+02 -0.41292138128E+03  0.45141094767E+03  0.17200000000E+03 0. -1.
</event>
<event>
 4    1  0.1181383E+000  0.2120934E+03  0.7818608E-02  0.1139919E+00
         21   -1    0    0  501  502  0.00000000000E+00  0.00000000000E+00  0.18248411969E+03  0.18248411969E+03  0.00000000000E+00 0.  1.
         21   -1    0    0  502  503 -0.00000000000E+00 -0.00000000000E+00 -0.57571125689E+03  0.57571125689E+03  0.00000000000E+00 0.  1.
          6    1    1    2  501    0 -0.85778175128E+02  0.89675608975E+02  0.90055942987E+02  0.23042066539E+03  0.17200000000E+03 0.  1.
         -6    1    1    2    0  503  0.85778175128E+02 -0.89675608975E+02 -0.48328308018E+03  0.52777471118E+03  0.17200000000E+03 0.  1.
</event>
<event>
 4    1  0.1181383E+000  0.1774092E+03  0.7818608E-02  0.1170334E+00
         21   -1    0    0  503  502  0.00000000000E+00  0.00000000000E+00  0.10741179942E+04  0.10741179942E+04  0.00000000000E+00 0.  1.
         21   -1    0    0  501  503 -0.00000000000E+00 -0.00000000000E+00 -0.43545630482E+02  0.43545630482E+02  0.00000000000E+00 0.  1.
          6    1    1    2  501    0  0.42874236770E+02 -0.71977246110E+01  0.19567915997E+03  0.26412940212E+03  0.17200000000E+03 0.  1.
         -6    1    1    2    0  502 -0.42874236770E+02  0.71977246110E+01  0.83489320373E+03  0.85353422254E+03  0.17200000000E+03 0.  1.
</event>
<event>
 4    1  0.1181383E+000  0.2489864E+03  0.7818608E-02  0.1113947E+00
         21   -1    0    0  503  502  0.00000000000E+00  0.00000000000E+00  0.23672955842E+03  0.23672955842E+03  0.00000000000E+00 0. -1.
         21   -1    0    0  501  503 -0.00000000000E+00 -0.00000000000E+00 -0.41439891529E+03  0.41439891529E+03  0.00000000000E+00 0. -1.
          6    1    1    2  501    0 -0.17543114329E+03  0.40424769343E+02 -0.28634608422E+03  0.37945793964E+03  0.17200000000E+03 0. -1.
         -6    1    1    2    0  502  0.17543114329E+03 -0.40424769343E+02  0.10867672734E+03  0.27167053406E+03  0.17200000000E+03 0. -1.
</event>
<event>
 4    1  0.1181383E+000  0.2225341E+03  0.7818608E-02  0.1132008E+00
         21   -1    0    0  501  502  0.00000000000E+00  0.00000000000E+00  0.38791097405E+02  0.38791097405E+02  0.00000000000E+00 0. -1.
         21   -1    0    0  502  503 -0.00000000000E+00 -0.00000000000E+00 -0.13150621398E+04  0.13150621398E+04  0.00000000000E+00 0. -1.
          6    1    1    2  501    0 -0.14090735103E+03 -0.90856908843E+01 -0.75387482969E+03  0.78603351722E+03  0.17200000000E+03 0. -1.
         -6    1    1    2    0  503  0.14090735103E+03  0.90856908843E+01 -0.52239621267E+03  0.56781971995E+03  0.17200000000E+03 0. -1.
</event>
<event>
 4    1  0.1181383E+000  0.2426347E+03  0.7818608E-02  0.1118050E+00
         21   -1    0    0  501  502  0.00000000000E+00  0.00000000000E+00  0.37684068269E+03  0.37684068269E+03  0.00000000000E+00 0.  1.
         21   -1    0    0  502  503 -0.00000000000E+00 -0.00000000000E+00 -0.24781455728E+03  0.24781455728E+03  0.00000000000E+00 0.  1.
          6    1    1    2  501    0  0.13341550202E+03  0.10718153105E+03  0.25439000191E+03  0.35154779170E+03  0.17200000000E+03 0.  1.
         -6    1    1    2    0  503 -0.13341550202E+03 -0.10718153105E+03 -0.12536387650E+03  0.27310744828E+03  0.17200000000E+03 0.  1.
</event>
<event>
 4    1  0.1181383E+000  0.2234550E+03  0.7818608E-02  0.1131333E+00
         21   -1    0    0  503  502  0.00000000000E+00  0.00000000000E+00  0.55483789683E+03  0.55483789683E+03  0.00000000000E+00 0. -1.
         21   -1    0    0  501  503 -0.00000000000E+00 -0.00000000000E+00 -0.94735755658E+02  0.94735755658E+02  0.00000000000E+00 0. -1.
          6    1    1    2  501    0  0.97833248180E+02  0.10381126979E+03  0.15738904147E+03  0.27331929050E+03  0.17200000000E+03 0. -1.
         -6    1    1    2    0  502 -0.97833248180E+02 -0.10381126979E+03  0.30271309971E+03  0.37625436199E+03  0.17200000000E+03 0. -1.
</event>
<event>
 4    1  0.1181383E+000  0.1992879E+03  0.7818608E-02  0.1150341E+00
         21   -1    0    0  501  502  0.00000000000E+00  0.00000000000E+00  0.55422952689E+03  0.55422952689E+03  0.00000000000E+00 0.  1.
         21   -1    0    0  502  503 -0.00000000000E+00 -0.00000000000E+00 -0.25890178032E+03  0.25890178032E+03  0.00000000000E+00 0. -1.
          6    1    1    2  501    0 -0.86138186254E+02 -0.52075844967E+02  0.49341643088E+03  0.53214232591E+03  0.17200000000E+03 0.  1.
         -6    1    1    2    0  503  0.86138186254E+02  0.52075844967E+02 -0.19808868431E+03  0.28098898130E+03  0.17200000000E+03 0. -1.
</event>
<event>
 4    1  0.1181383E+000  0.2316500E+03  0.7818608E-02  0.1125484E+00
         21   -1    0    0  501  502  0.00000000000E+00  0.00000000000E+00  0.15652635720E+04  0.15652635720E+04  0.00000000000E+00 0.  1.
         21   -1    0    0  502  503 -0.00000000000E+00 -0.00000000000E+00 -0.73249993776E+02  0.73249993776E+02  0.00000000000E+00 0.  1.
          6    1    1    2  501    0 -0.47923466801E+02  0.14758405565E+03  0.13435447216E+04  0.13633686702E+04  0.17200000000E+03 0.  1.
         -6    1    1    2    0  503  0.47923466801E+02 -0.14758405565E+03  0.14846885671E+03  0.27514489558E+03  0.17200000000E+03 0.  1.
</event>
<event>
 4    1  0.1181383E+000  0.1931533E+03  0.7818608E-02  0.1155648E+00
         21   -1    0    0  503  502  0.00000000000E+00  0.00000000000E+00  0.28148219844E+02  0.28148219844E+02  0.00000000000E+00 0. -1.
         21   -1    0    0  501  503 -0.00000000000E+00 -0.00000000000E+00 -0.14147789615E+04  0.14147789615E+04  0.00000000000E+00 0. -1.
          6    1    1    2  501    0 -0.47097641611E+02  0.74202413686E+02 -0.51199710640E+03  0.54721953822E+03  0.17200000000E+03 0. -1.
         -6    1    1    2    0  502  0.47097641611E+02 -0.74202413686E+02 -0.87463363530E+03  0.89570764318E+03  0.17200000000E+03 0. -1.
</event>
<event>
 4    1  0.1181383E+000  0.2990826E+03  0.7818608E-02  0.1085700E+00
         21   -1    0    0  503  502  0.00000000000E+00  0.00000000000E+00  0.14932996096E+03  0.14932996096E+03  0.00000000000E+00 0. -1.
         21   -1    0    0  501  503 -0.00000000000E+00 -0.00000000000E+00 -0.11224815857E+04  0.11224815857E+04  0.00000000000E+00 0.  1.
          6    1    1    2  501    0  0.23764256074E+03  0.58244394366E+02 -0.92083498442E+03  0.96818772182E+03  0.17200000000E+03 0.  1.
         -6    1    1    2    0  502 -0.23764256074E+03 -0.58244394366E+02 -0.52316640311E+02  0.30362382483E+03  0.17200000000E+03 0. -1.
</event>
<event>
 4    1  0.1181383E+000  0.2195690E+03  0.7818608E-02  0.1134205E+00
         21   -1    0    0  503  502  0.00000000000E+00  0.00000000000E+00  0.35394789629E+03  0.35394789629E+03  0.00000000000E+00 0. -1.
         21   -1    0    0  501  503 -0.00000000000E+00 -0.00000000000E+00 -0.14144958608E+03  0.14144958608E+03  0.00000000000E+00 0. -1.
          6    1    1    2  501    0  0.10319980493E+02 -0.13608832566E+03  0.58567162098E+02  0.22724578512E+03  0.17200000000E+03 0.  1.
         -6    1    1    2    0  502 -0.10319980493E+02  0.13608832566E+03  0.15393114811E+03  0.26815169725E+03  0.17200000000E+03 0.  1.
</event>
<event>
 4    1  0.1181383E+000  0.1763285E+03  0.7818608E-02  0.1171404E+00
         21   -1    0    0  503  502  0.00000000000E+00  0.00000000000E+00  0.17956703618E+04  0.17956703618E+04  0.00000000000E+00 0.  1.
         21   -1    0    0  501  503 -0.00000000000E+00 -0.00000000000E+00 -0.28615196361E+02  0.28615196361E+02  0.00000000000E+00 0. -1.
          6    1    1    2  501    0 -0.65069565744E+01  0.38280614305E+02  0.14567333075E+04  0.14673662375E+04  0.17200000000E+03 0.  1.
         -6    1    1    2    0  502  0.65069565744E+01 -0.38280614305E+02  0.31032185798E+03  0.35691932065E+03  0.17200000000E+03 0. -1.
</event>
<event>
 4    1  0.1181383E+000  0.1925631E+03  0.7818608E-02  0.1156170E+00
         21   -1    0    0  503  502  0.00000000000E+00  0.00000000000E+00  0.34315140533E+03  0.34315140533E+03  0.00000000000E+00 0. -1.
         21   -1    0    0  501  503 -0.00000000000E+00 -0.00000000000E+00 -0.13383399258E+03  0.13383399258E+03  0.00000000000E+00 0. -1.
          6    1    1    2  501    0 -0.78148188629E+02 -0.37274751929E+02 -0.41065339289E-02  0.19256309754E+03  0.17200000000E+03 0.  1.
         -6    1    1    2    0  502  0.78148188629E+02  0.37274751929E+02  0.20932151928E+03  0.28442230038E+03  0.17200000000E+03 0.  1.
</event>
<event>
 4    1  0.1181383E+000  0.2310336E+03  0.7818608E-02  0.1125914E+00
         21   -1    0    0  501  502  0.00000000000E+00  0.00000000000E+00  0.72766318055E+03  0.72766318055E+03  0.00000000000E+00 0.  1.
         21   -1    0    0  502  503 -0.00000000000E+00 -0.00000000000E+00 -0.11830572488E+03  0.11830572488E+03  0.00000000000E+00 0. -1.
          6    1    1    2  501    0  0.10000881000E+03 -0.11743415480E+03  0.56541279115E+03  0.61079306413E+03  0.17200000000E+03 0.  1.
         -6    1    1    2    0  503 -0.10000881000E+03  0.11743415480E+03  0.43944664516E+02  0.23517584130E+03  0.17200000000E+03 0. -1.
</event>
<event>
 4    1  0.1181383E+000  0.1835916E+03  0.7818608E-02  0.1164372E+00
         21   -1    0    0  503  502  0.00000000000E+00  0.00000000000E+00  0.55204700988E+03  0.55204700988E+03  0.00000000000E+00 0.  1.
         21   -1    0    0  501  503 -0.00000000000E+00 -0.00000000000E+00 -0.16419564673E+03  0.16419564673E+03  0.00000000000E+00 0. -1.
          6    1    1    2  501    0 -0.55497954704E+02  0.32277565932E+02 -0.89906656269E+02  0.20442375371E+03  0.17200000000E+03 0. -1.
         -6    1    1    2    0  502  0.55497954704E+02 -0.32277565932E+02  0.47775801943E+03  0.51181890290E+03  0.17200000000E+03 0.  1.
</event>
<event>
 4    1  0.1181383E+000  0.1914111E+03  0.7818608E-02  0.1157195E+00
         21   -1    0    0  503  502  0.00000000000E+00  0.00000000000E+00  0.18129063572E+03  0.18129063572E+03  0.00000000000E+00 0. -1.
         21   -1    0    0  501  503 -0.00000000000E+00 -0.00000000000E+00 -0.97090787057E+03  0.97090787057E+03  0.00000000000E+00 0. -1.
          6    1    1    2  501    0  0.82951978252E+02 -0.13159905350E+02 -0.90745533786E+03  0.92742299088E+03  0.17200000000E+03 0. -1.
         -6    1    1    2    0  502 -0.82951978252E+02  0.13159905350E+02  0.11783810301E+03  0.22477551541E+03  0.17200000000E+03 0. -1.
</event>
<event>
 4    1  0.1181383E+000  0.1972371E+03  0.7818608E-02  0.1152091E+00
         21   -1    0    0  501  502  0.00000000000E+00  0.00000000000E+00  0.13646839848E+04  0.13646839848E+04  0.00000000000E+00 0.  1.
         21   -1    0    0  502  503 -0.00000000000E+00 -0.00000000000E+00 -0.68590431703E+02  0.68590431703E+02  0.00000000000E+00 0.  1.
          6    1    1    2  501    0 -0.12916399887E+02  0.95664194291E+02  0.11958849811E+04  0.12120409892E+04  0.17200000000E+03 0.  1.
         -6    1    1    2    0  503  0.12916399887E+02 -0.95664194291E+02  0.10020857198E+03  0.22123342730E+03  0.17200000000E+03 0.  1.
</event>
<event>
 4    1  0.1181383E+000  0.1857668E+03  0.7818608E-02  0.1162336E+00
         21   -1    0    0  503  502  0.00000000000E+00  0.00000000000E+00  0.20271988308E+03  0.20271988308E+03  0.00000000000E+00 0. -1.
         21   -1    0    0  501  503 -0.00000000000E+00 -0.00000000000E+00 -0.17797199608E+03  0.17797199608E+03  0.00000000000E+00 0.  1.
          6    1    1    2  501    0  0.65626590798E+02 -0.24868519646E+02  0.52070656143E+02  0.19292652985E+03  0.17200000000E+03 0. -1.
         -6    1    1    2    0  502 -0.65626590798E+02  0.24868519646E+02 -0.27322769142E+02  0.18776534931E+03  0.17200000000E+03 0. -1.
</event>
<event>
 4    1  0.1181383E+000  0.1844134E+03  0.7818608E-02  0.1163599E+00
         21   -1    0    0  503  502  0.00000000000E+00  0.00000000000E+00  0.34911022423E+03  0.34911022423E+03  0.00000000000E+00 0. -1.
         21   -1    0    0  501  503 -0.00000000000E+00 -0.00000000000E+00 -0.25696280032E+03  0.25696280032E+03  0.00000000000E+00 0. -1.
          6    1    1    2  501    0 -0.40481411112E+02  0.52778330013E+02 -0.19271088905E+03  0.26673166952E+03  0.17200000000E+03 0. -1.
         -6    1    1    2    0  502  0.40481411112E+02 -0.52778330013E+02  0.28485831297E+03  0.33934135503E+03  0.17200000000E+03 0. -1.
</event>
<event>
 4    1  0.1181383E+000  0.2017999E+03  0.7818608E-02  0.1148229E+00
         21   -1    0    0  501  502  0.00000000000E+00  0.00000000000E+00  0.52289830353E+02  0.52289830353E+02  0.00000000000E+00 0.  1.
         21   -1    0    0  502  503 -0.00000000000E+00 -0.00000000000E+00 -0.14842903878E+04  0.14842903878E+04  0.00000000000E+00 0. -1.
          6    1    1    2  501    0 -0.77550682607E+02 -0.71589766345E+02 -0.18632214705E+03  0.27466187486E+03  0.17200000000E+03 0.  1.
         -6    1    1    2    0  503  0.77550682607E+02  0.71589766345E+02 -0.12456784104E+04  0.12619183433E+04  0.17200000000E+03 0. -1.
</event>
<event>
 4    1  0.1181383E+000  0.2131373E+03  0.7818608E-02  0.1139105E+00
         21   -1    0    0  501  502  0.00000000000E+00  0.00000000000E+00  0.11206644551E+03  0.11206644551E+03  0.00000000000E+00 0. -1.
         21   -1    0    0  502  503 -0.00000000000E+00 -0.00000000000E+00 -0.49447019627E+03  0.49447019627E+03  0.00000000000E+00 0. -1.
          6    1    1    2  501    0  0.12534024398E+03 -0.11546040009E+02 -0.62461251160E+02  0.22210109342E+03  0.17200000000E+03 0.  1.
         -6    1    1    2    0  503 -0.12534024398E+03  0.11546040009E+02 -0.31994249960E+03  0.38443554837E+03  0.17200000000E+03 0.  1.
</event>
<event>
 4    1  0.1181383E+000  0.1868499E+03  0.7818608E-02  0.1161334E+00
         21   -1    0    0  503  502  0.00000000000E+00  0.00000000000E+00  0.23544691224E+03  0.23544691224E+03  0.00000000000E+00 0.  1.
         21   -1    0    0  501  503 -0.00000000000E+00 -0.00000000000E+00 -0.89215397423E+03  0.89215397423E+03  0.00000000000E+00 0.  1.
          6    1    1    2  501    0 -0.54029431978E+02  0.49088725110E+02 -0.84317207064E+03  0.86362724781E+03  0.17200000000E+03 0.  1.
         -6    1    1    2    0  502  0.54029431978E+02 -0.49088725110E+02  0.18646500866E+03  0.26397363866E+03  0.17200000000E+03 0.  1.
</event>
<event>
 4    1  0.1181383E+000  0.2245965E+03  0.7818608E-02  0.1130502E+00
         21   -1    0    0  503  502  0.00000000000E+00  0.00000000000E+00  0.49920989996E+03  0.49920989996E+03  0.00000000000E+00 0.  1.
         21   -1    0    0  501  503 -0.00000000000E+00 -0.00000000000E+00 -0.14740847360E+03  0.14740847360E+03  0.00000000000E+00 0.  1.
          6    1    1    2  501    0 -0.13577906276E+03  0.49230296692E+02  0.35721676366E+03  0.42195662364E+03  0.17200000000E+03 0.  1.
         -6    1    1    2    0  502  0.13577906276E+03 -0.49230296692E+02 -0.54153372988E+01  0.22466174992E+03  0.17200000000E+03 0.  1.
</event>
<event>
 4    1  0.1181383E+000  0.2057587E+03  0.7818608E-02  0.1144969E+00
         21   -1    0    0  501  502  0.00000000000E+00  0.00000000000E+00  0.16206604881E+04  0.16206604881E+04  0.00000000000E+00 0.  1.
         21   -1    0    0  502  503 -0.00000000000E+00 -0.00000000000E+00 -0.15707645042E+03  0.15707645042E+03  0.00000000000E+00 0. -1.
          6    1    1    2  501    0  0.69028660354E+02  0.89373884129E+02  0.15433887668E+04  0.15570438441E+04  0.17200000000E+03 0.  1.
         -6    1    1    2    0  503 -0.69028660354E+02 -0.89373884129E+02 -0.79804729123E+02  0.22069309438E+03  0.17200000000E+03 0. -1.
</event>
<event>
 4    1  0.1181383E+000  0.1931878E+03  0.7818608E-02  0.1155617E+00
         21   -1    0    0  501  502  0.00000000000E+00  0.00000000000E+00  0.66853187575E+03  0.66853187575E+03  0.00000000000E+00 0.  1.
         21   -1    0    0  502  503 -0.00000000000E+00 -0.00000000000E+00 -0.55830090812E+02  0.55830090812E+02  0.00000000000E+00 0.  1.
          6    1    1    2  501    0  0.62689973645E+02 -0.61704987461E+02  0.30940673626E+03  0.36476576966E+03  0.17200000000E+03 0. -1.
         -6    1    1    2    0  503 -0.62689973645E+02  0.61704987461E+02  0.30329504868E+03  0.35959619690E+03  0.17200000000E+03 0. -1.
</event>
<event>
 4    1  0.1181383E+000  0.1728398E+03  0.7818608E-02  0.1174918E+00
         21   -1    0    0  501  502  0.00000000000E+00  0.00000000000E+00  0.26587738928E+03  0.26587738928E+03  0.00000000000E+00 0.  1.
         21   -1    0    0  502  503 -0.00000000000E+00 -0.00000000000E+00 -0.11296066583E+03  0.11296066583E+03  0.00000000000E+00 0.  1.
          6    1    1    2  501    0  0.15302388543E+02  0.74456288384E+01  0.90287545507E+02  0.19500113168E+03  0.17200000000E+03 0. -1.
         -6    1    1    2    0  503 -0.15302388543E+02 -0.74456288384E+01  0.62629177950E+02  0.18383692343E+03  0.17200000000E+03 0. -1.
</event>
<event>
 4    1  0.1181383E+000  0.1935576E+03  0.7818608E-02  0.1155291E+00
         21   -1    0    0  503  502  0.00000000000E+00  0.00000000000E+00  0.14617625308E+04  0.14617625308E+04  0.00000000000E+00 0. -1.
         21   -1    0    0  501  503 -0.00000000000E+00 -0.00000000000E+00 -0.25642341536E+02  0.25642341536E+02  0.00000000000E+00 0.  1.
          6    1    1    2  501    0 -0.88599788416E+02  0.55336612331E+01  0.73456895545E+03  0.75964208297E+03  0.17200000000E+03 0. -1.
         -6    1    1    2    0  502  0.88599788416E+02 -0.55336612331E+01  0.70155123383E+03  0.72776278938E+03  0.17200000000E+03 0. -1.
</event>
<event>
 4    1  0.1181383E+000  0.3265395E+03  0.7818608E-02  0.1072678E+00
         21   -1    0    0  501  502  0.00000000000E+00  0.00000000000E+00  0.37567377241E+03  0.37567377241E+03  0.00000000000E+00 0. -1.
         21   -1    0    0  502  503 -0.00000000000E+00 -0.00000000000E+00 -0.29377558320E+03  0.29377558320E+03  0.00000000000E+00 0.  1.
          6    1    1    2  501    0  0.20770570345E+03 -0.18412599097E+03  0.10253238236E+03  0.34225857072E+03  0.17200000000E+03 0. -1.
         -6    1    1    2    0  503 -0.20770570345E+03  0.18412599097E+03 -0.20634193154E+02  0.32719078490E+03  0.17200000000E+03 0. -1.
</event>
<event>
 4    1  0.1181383E+000  0.1789202E+03  0.7818608E-02  0.1168852E+00
         21   -1    0    0  503  502  0.00000000000E+00  0.00000000000E+00  0.17778318410E+03  0.17778318410E+03  0.00000000000E+00 0. -1.
         21   -1    0    0  501  503 -0.00000000000E+00 -0.00000000000E+00 -0.31008090422E+03  0.31008090422E+03  0.00000000000E+00 0. -1.
          6    1    1    2  501    0  0.45064232629E+00 -0.49277103904E+02 -0.22410279820E+03  0.28676558408E+03  0.17200000000E+03 0. -1.
         -6    1    1    2    0  502 -0.45064232629E+00  0.49277103904E+02  0.91805078078E+02  0.20109850424E+03  0.17200000000E+03 0. -1.
</event>
<event>
 4    1  0.1181383E+000  0.1891599E+03  0.7818608E-02  0.1159221E+00
         21   -1    0    0  501  502  0.00000000000E+00  0.00000000000E+00  0.16359713170E+03  0.16359713170E+03  0.00000000000E+00 0. -1.
         21   -1    0    0  502  503 -0.00000000000E+00 -0.00000000000E+00 -0.21901178166E+03  0.21901178166E+03  0.00000000000E+00 0. -1.
          6    1    1    2  501    0 -0.55255122394E+02  0.56074301127E+02 -0.20687555224E+02  0.19028775772E+03  0.17200000000E+03 0.  1.
         -6    1    1    2    0  503  0.55255122394E+02 -0.56074301127E+02 -0.34727094738E+02  0.19232115564E+03  0.17200000000E+03 0.  1.
</event>
<event>
 4    1  0.1181383E+000  0.2294674E+03  0.7818608E-02  0.1127015E+00
         21   -1    0    0  503  502  0.00000000000E+00  0.00000000000E+00  0.58299559530E+03  0.58299559530E+03  0.00000000000E+00 0. -1.
         21   -1    0    0  501  503 -0.00000000000E+00 -0.00000000000E+00 -0.90327499716E+02  0.90327499716E+02  0.00000000000E+00 0.  1.
          6    1    1    2  501    0  0.52606504451E+01 -0.15180116691E+03  0.24970056702E+03  0.33912481756E+03  0.17200000000E+03 0.  1.
         -6    1    1    2    0  502 -0.52606504451E+01  0.15180116691E+03  0.24296752857E+03  0.33419827746E+03  0.17200000000E+03 0. -1.
</event>
<event>
 4    1  0.1181383E+000  0.1880251E+03  0.7818608E-02  0.1160255E+00
         21   -1    0    0  501  502  0.00000000000E+00  0.00000000000E+00  0.52160607438E+03  0.52160607438E+03  0.00000000000E+00 0.  1.
         21   -1    0    0  502  503 -0.00000000000E+00 -0.00000000000E+00 -0.15060830414E+03  0.15060830414E+03  0.00000000000E+00 0.  1.
          6    1    1    2  501    0 -0.42759088098E+02  0.62778218596E+02  0.43475615333E+03  0.47367325996E+03  0.17200000000E+03 0.  1.
         -6    1    1    2    0  503  0.42759088098E+02 -0.62778218596E+02 -0.63758383093E+02  0.19854111856E+03  0.17200000000E+03 0.  1.
</event>
<event>
 4    1  0.1181383E+000  0.1821392E+03  0.7818608E-02  0.1165749E+00
         21   -1    0    0  501  502  0.00000000000E+00  0.00000000000E+00  0.40087174861E+02  0.40087174861E+02  0.00000000000E+00 0.  1.
         21   -1    0    0  502  503 -0.00000000000E+00 -0.00000000000E+00 -0.13832066402E+04  0.13832066402E+04  0.00000000000E+00 0.  1.
          6    1    1    2  501    0  0.21831522655E+02  0.55803718329E+02 -0.22051550104E+03  0.28601006374E+03  0.17200000000E+03 0.  1.
         -6    1    1    2    0  503 -0.21831522655E+02 -0.55803718329E+02 -0.11226039643E+04  0.11372837513E+04  0.17200000000E+03 0.  1.
</event>
<event>
 4    1  0.1181383E+000  0.2167886E+03  0.7818608E-02  0.1136300E+00
         21   -1    0    0  503  502  0.00000000000E+00  0.00000000000E+00  0.14426966200E+03  0.14426966200E+03  0.00000000000E+00 0.  1.
         21   -1    0    0  501  503 -0.00000000000E+00 -0.00000000000E+00 -0.39152909723E+03  0.39152909723E+03  0.00000000000E+00 0. -1.
          6    1    1    2  501    0 -0.62366803825E+02  0.11629141955E+03 -0.23342912596E+03  0.31856941054E+03  0.17200000000E+03 0. -1.
         -6    1    1    2    0  502  0.62366803825E+02 -0.11629141955E+03 -0.13830309265E+02  0.21722934870E+03  0.17200000000E+03 0.  1.
</event>
<event>
 4    1  0.1181383E+000  0.4034617E+03  0.7818608E-02  0.1042588E+00
         21   -1    0    0  501  502  0.00000000000E+00  0.00000000000E+00  0.71278646569E+03  0.71278646569E+03  0.00000000000E+00 0.  1.
         21   -1    0    0  502  503 -0.00000000000E+00 -0.00000000000E+00 -0.22845688647E+03  0.22845688647E+03  0.00000000000E+00 0. -1.
          6    1    1    2  501    0 -0.13226412706E+03 -0.34015220930E+03  0.23315733440E+03  0.46598676739E+03  0.17200000000E+03 0. -1.
         -6    1    1    2    0  503  0.13226412706E+03  0.34015220930E+03  0.25117224482E+03  0.47525658477E+03  0.17200000000E+03 0. -1.
</event>
<event>
 4    1  0.1181383E+000  0.1780738E+03  0.7818608E-02  0.1169680E+00
         21   -1    0    0  503  502  0.00000000000E+00  0.00000000000E+00  0.37181148714E+03  0.37181148714E+03  0.00000000000E+00 0. -1.
         21   -1    0    0  501  503 -0.00000000000E+00 -0.00000000000E+00 -0.16617868476E+03  0.16617868476E+03  0.00000000000E+00 0. -1.
          6    1    1    2  501    0 -0.24271562597E+02  0.39206932444E+02 -0.84860780274E+02  0.19726034658E+03  0.17200000000E+03 0. -1.
         -6    1    1    2    0  502  0.24271562597E+02 -0.39206932444E+02  0.29049358265E+03  0.34072982532E+03  0.17200000000E+03 0. -1.
</event>
<event>
 4    1  0.1181383E+000  0.1831518E+03  0.7818608E-02  0.1164787E+00
         21   -1    0    0  501  502  0.00000000000E+00  0.00000000000E+00  0.94337363614E+02  0.94337363614E+02  0.00000000000E+00 0.  1.
         21   -1    0    0  502  503 -0.00000000000E+00 -0.00000000000E+00 -0.37537902109E+03  0.37537902109E+03  0.00000000000E+00 0.  1.
          6    1    1    2  501    0  0.62860716163E+02  0.30190555891E+01 -0.86584620035E+02  0.20258697085E+03  0.17200000000E+03 0.  1.
         -6    1    1    2    0  503 -0.62860716163E+02 -0.30190555891E+01 -0.19445703744E+03  0.26712941385E+03  0.17200000000E+03 0.  1.
</event>
<event>
 4    1  0.1181383E+000  0.1853577E+03  0.7818608E-02  0.1162716E+00
         21   -1    0    0  503  502  0.00000000000E+00  0.00000000000E+00  0.17591238845E+04  0.17591238845E+04  0.00000000000E+00 0.  1.
         21   -1    0    0  501  503 -0.00000000000E+00 -0.00000000000E+00 -0.47124617094E+02  0.47124617094E+02  0.00000000000E+00 0.  1.
          6    1    1    2  501    0 -0.63696534903E+02  0.26762789492E+02  0.16492063712E+03  0.24810544534E+03  0.17200000000E+03 0.  1.
         -6    1    1    2    0  502  0.63696534903E+02 -0.26762789492E+02  0.15470786303E+04  0.15581430563E+04  0.17200000000E+03 0.  1.
</event>
<event>
 4    1  0.1181383E+000  0.5398402E+03  0.7818608E-02  0.1003873E+00
         21   -1    0    0  503  502  0.00000000000E+00  0.00000000000E+00  0.80324582763E+03  0.80324582763E+03  0.00000000000E+00 0.  1.
         21   -1    0    0  501  503 -0.00000000000E+00 -0.00000000000E+00 -0.36376788269E+03  0.36376788269E+03  0.00000000000E+00 0. -1.
          6    1    1    2  501    0  0.12805089745E+03  0.49542551558E+03  0.24964548442E+03  0.59476914994E+03  0.17200000000E+03 0. -1.
         -6    1    1    2    0  502 -0.12805089745E+03 -0.49542551558E+03  0.18983246052E+03  0.57224456039E+03  0.17200000000E+03 0. -1.
</event>
<event>
 4    1  0.1181383E+000  0.1770717E+03  0.7818608E-02  0.1170667E+00
         21   -1    0    0  501  502  0.00000000000E+00  0.00000000000E+00  0.50327138055E+03  0.50327138055E+03  0.00000000000E+00 0.  1.
         21   -1    0    0  502  503 -0.00000000000E+00 -0.00000000000E+00 -0.70638733701E+02  0.70638733701E+02  0.00000000000E+00 0.  1.
          6    1    1    2  501    0  0.78449830338E+01  0.41338349903E+02  0.31490150611E+03  0.36127186644E+03  0.17200000000E+03 0.  1.
         -6    1    1    2    0  503 -0.78449830338E+01 -0.41338349903E+02  0.11773114074E+03  0.21263824781E+03  0.17200000000E+03 0.  1.
</event>
<event>
 4    1  0.1181383E+000  0.2104244E+03  0.7818608E-02  0.1141230E+00
         21   -1    0    0  501  502  0.00000000000E+00  0.00000000000E+00  0.24406885379E+03  0.24406885379E+03  0.00000000000E+00 0.  1.
         21   -1    0    0  502  503 -0.00000000000E+00 -0.00000000000E+00 -0.23374239966E+03  0.23374239966E+03  0.00000000000E+00 0.  1.
          6    1    1    2  501    0 -0.62616066743E+02 -0.10379632325E+03  0.11819755274E+03  0.24134852394E+03  0.17200000000E+03 0.  1.
         -6    1    1    2    0  503  0.62616066743E+02  0.10379632325E+03 -0.10787109861E+03  0.23646272952E+03  0.17200000000E+03 0.  1.
</event>
<event>
 4    1  0.1181383E+000  0.1958590E+03  0.7818608E-02  0.1153281E+00
         21   -1    0    0  503  502  0.00000000000E+00  0.00000000000E+00  0.69956689114E+02  0.69956689114E+02  0.00000000000E+00 0. -1.
         21   -1    0    0  501  503 -0.00000000000E+00 -0.00000000000E+00 -0.90670860099E+03  0.90670860099E+03  0.00000000000E+00 0.  1.
          6    1    1    2  501    0  0.92178784276E+02  0.16727975916E+02 -0.72537765612E+03  0.75135444195E+03  0.17200000000E+03 0.  1.
         -6    1    1    2    0  502 -0.92178784276E+02 -0.16727975916E+02 -0.11137425576E+03  0.22531084815E+03  0.17200000000E+03 0. -1.
</event>
<event>
 4    1  0.1181383E+000  0.2698549E+03  0.7818608E-02  0.1101363E+00
         21   -1    0    0  503  502  0.00000000000E+00  0.00000000000E+00  0.43625060681E+03  0.43625060681E+03  0.00000000000E+00 0. -1.
         21   -1    0    0  501  503 -0.00000000000E+00 -0.00000000000E+00 -0.25325109352E+03  0.25325109352E+03  0.00000000000E+00 0. -1.
          6    1    1    2  501    0  0.18187597232E+03  0.10079077537E+03 -0.10977890840E+03  0.29132981041E+03  0.17200000000E+03 0. -1.
         -6    1    1    2    0  502 -0.18187597232E+03 -0.10079077537E+03  0.29277842170E+03  0.39817188991E+03  0.17200000000E+03 0. -1.
</event>
<event>
 4    1  0.1181383E+000  0.1847591E+03  0.7818608E-02  0.1163275E+00
         21   -1    0    0  503  502  0.00000000000E+00  0.00000000000E+00  0.30472242626E+03  0.30472242626E+03  0.00000000000E+00 0.  1.
         21   -1    0    0  501  503 -0.00000000000E+00 -0.00000000000E+00 -0.17096926351E+03  0.17096926351E+03  0.00000000000E+00 0. -1.
          6    1    1    2  501    0 -0.49970097786E+02  0.45331245395E+02 -0.72781008305E+02  0.19857746008E+03  0.17200000000E+03 0. -1.
         -6    1    1    2    0  502  0.49970097786E+02 -0.45331245395E+02  0.20653417105E+03  0.27711422969E+03  0.17200000000E+03 0.  1.
</event>
<event>
 4    1  0.1181383E+000  0.2433835E+03  0.7818608E-02  0.1117559E+00
         21   -1    0    0  501  502  0.00000000000E+00  0.00000000000E+00  0.35522394018E+03  0.35522394018E+03  0.00000000000E+00 0. -1.
         21   -1    0    0  502  503 -0.00000000000E+00 -0.00000000000E+00 -0.51942044060E+03  0.51942044060E+03  0.00000000000E+00 0. -1.
          6    1    1    2  501    0 -0.12616148904E+03  0.11719552400E+03  0.27825064794E+03  0.36967409328E+03  0.17200000000E+03 0. -1.
         -6    1    1    2    0  503  0.12616148904E+03 -0.11719552400E+03 -0.44244714836E+03  0.50497028750E+03  0.17200000000E+03 0. -1.
</event>
<event>
 4    1  0.1181383E+000  0.2882498E+03  0.7818608E-02  0.1091266E+00
         21   -1    0    0  503  502  0.00000000000E+00  0.00000000000E+00  0.99221161610E+03  0.99221161610E+03  0.00000000000E+00 0.  1.
         21   -1    0    0  501  503 -0.00000000000E+00 -0.00000000000E+00 -0.11352860323E+03  0.11352860323E+03  0.00000000000E+00 0.  1.
          6    1    1    2  501    0 -0.41069878066E+02  0.22763399673E+03  0.15614083411E+03  0.32782301845E+03  0.17200000000E+03 0.  1.
         -6    1    1    2    0  502  0.41069878066E+02 -0.22763399673E+03  0.72254217875E+03  0.77791720088E+03  0.17200000000E+03 0.  1.
</event>
<event>
 4    1  0.1181383E+000  0.1735307E+03  0.7818608E-02  0.1174215E+00
         21   -1    0    0  503  502  0.00000000000E+00  0.00000000000E+00  0.59314671769E+02  0.59314671769E+02  0.00000000000E+00 0. -1.
         21   -1    0    0  501  503 -0.00000000000E+00 -0.00000000000E+00 -0.55164299949E+03  0.55164299949E+03  0.00000000000E+00 0. -1.
          6    1    1    2  501    0 -0.56326818967E+01  0.22297564208E+02 -0.33240098483E+03  0.37497109647E+03  0.17200000000E+03 0. -1.
         -6    1    1    2    0  502  0.56326818967E+01 -0.22297564208E+02 -0.15992734289E+03  0.23598657479E+03  0.17200000000E+03 0. -1.
</event>
<event>
 4    1  0.1181383E+000  0.1802863E+03  0.7818608E-02  0.1167526E+00
         21   -1    0    0  503  502  0.00000000000E+00  0.00000000000E+00  0.52573102970E+03  0.52573102970E+03  0.00000000000E+00 0.  1.
         21   -1    0    0  501  503 -0.00000000000E+00 -0.00000000000E+00 -0.77215405458E+02  0.77215405458E+02  0.00000000000E+00 0.  1.
          6    1    1    2  501    0 -0.39179889556E+02 -0.37203091784E+02  0.35885215629E+03  0.40159432747E+03  0.17200000000E+03 0.  1.
         -6    1    1    2    0  502  0.39179889556E+02  0.37203091784E+02  0.89663467949E+02  0.20135210768E+03  0.17200000000E+03 0.  1.
</event>
<event>
 4    1  0.1181383E+000  0.1818758E+03  0.7818608E-02  0.1166000E+00
         21   -1    0    0  503  502  0.00000000000E+00  0.00000000000E+00  0.19484386967E+03  0.19484386967E+03  0.00000000000E+00 0. -1.
         21   -1    0    0  501  503 -0.00000000000E+00 -0.00000000000E+00 -0.20468534003E+03  0.20468534003E+03  0.00000000000E+00 0. -1.
          6    1    1    2  501    0 -0.57106463516E+02 -0.15286437312E+02 -0.87425223797E+02  0.20179691052E+03  0.17200000000E+03 0. -1.
         -6    1    1    2    0  502  0.57106463516E+02  0.15286437312E+02  0.77583753433E+02  0.19773229918E+03  0.17200000000E+03 0. -1.
</event>
<event>
 4    1  0.1181383E+000  0.2381676E+03  0.7818608E-02  0.1121020E+00
         21   -1    0    0  503  502  0.00000000000E+00  0.00000000000E+00  0.15648134052E+03  0.15648134052E+03  0.00000000000E+00 0. -1.
         21   -1    0    0  501  503 -0.00000000000E+00 -0.00000000000E+00 -0.40563971697E+03  0.40563971697E+03  0.00000000000E+00 0.  1.
          6    1    1    2  501    0 -0.14118961748E+03 -0.84883922421E+02 -0.21624147904E+03  0.32168954852E+03  0.17200000000E+03 0.  1.
         -6    1    1    2    0  502  0.14118961748E+03  0.84883922421E+02 -0.32916897411E+02  0.24043150897E+03  0.17200000000E+03 0.  1.
</event>
<event>
 4    1  0.1181383E+000  0.2606616E+03  0.7818608E-02  0.1106746E+00
         21   -1    0    0  501  502  0.00000000000E+00  0.00000000000E+00  0.80765012149E+02  0.80765012149E+02  0.00000000000E+00 0.  1.
         21   -1    0    0  502  503 -0.00000000000E+00 -0.00000000000E+00 -0.84419324592E+03  0.84419324592E+03  0.00000000000E+00 0. -1.
          6    1    1    2  501    0  0.97924527134E+02 -0.16962084744E+03 -0.35445696006E+03  0.43998202399E+03  0.17200000000E+03 0. -1.
         -6    1    1    2    0  503 -0.97924527134E+02  0.16962084744E+03 -0.40897127370E+03  0.48497623407E+03  0.17200000000E+03 0. -1.
</event>
<event>
 4    1  0.1181383E+000  0.2031452E+03  0.7818608E-02  0.1147112E+00
         21   -1    0    0  503  502  0.00000000000E+00  0.00000000000E+00  0.11360085915E+03  0.11360085915E+03  0.00000000000E+00 0. -1.
         21   -1    0    0  501  503 -0.00000000000E+00 -0.00000000000E+00 -0.57842246194E+03  0.57842246194E+03  0.00000000000E+00 0. -1.
          6    1    1    2  501    0 -0.83892525663E+02 -0.68161782326E+02 -0.44343853760E+03  0.48775580064E+03  0.17200000000E+03 0. -1.
         -6    1    1    2    0  502  0.83892525663E+02  0.68161782326E+02 -0.21383065188E+02  0.20426752045E+03  0.17200000000E+03 0. -1.
</event>
<event>
 4    1  0.1181383E+000  0.2519383E+03  0.7818608E-02  0.1112086E+00
         21   -1    0    0  501  502  0.00000000000E+00  0.00000000000E+00  0.72528936372E+02  0.72528936372E+02  0.00000000000E+00 0.  1.
         21   -1    0    0  502  503 -0.00000000000E+00 -0.00000000000E+00 -0.10529126344E+04  0.10529126344E+04  0.00000000000E+00 0.  1.
          6    1    1    2  501    0 -0.17469406776E+03 -0.58059303193E+02 -0.25896914349E+03  0.36130031453E+03  0.17200000000E+03 0. -1.
         -6    1    1    2    0  503  0.17469406776E+03  0.58059303193E+02 -0.72141455456E+03  0.76414125626E+03  0.17200000000E+03 0. -1.
</event>
<event>
 4    1  0.1181383E+000  0.1765101E+03  0.7818608E-02  0.1171224E+00
         21   -1    0    0  503  502  0.00000000000E+00  0.00000000000E+00  0.14717825924E+03  0.14717825924E+03  0.00000000000E+00 0.  1.
         21   -1    0    0  501  503 -0.00000000000E+00 -0.00000000000E+00 -0.23900375238E+03  0.23900375238E+03  0.00000000000E+00 0.  1.
          6    1    1    2  501    0 -0.12832092660E+02 -0.37512011781E+02 -0.11119112924E+03  0.20861275333E+03  0.17200000000E+03 0.  1.
         -6    1    1    2    0  502  0.12832092660E+02  0.37512011781E+02  0.19365636104E+02  0.17756925830E+03  0.17200000000E+03 0.  1.
</event>
<event>
 4    1  0.1181383E+000  0.2107114E+03  0.7818608E-02  0.1141004E+00
         21   -1    0    0  503  502  0.00000000000E+00  0.00000000000E+00  0.70654447133E+02  0.70654447133E+02  0.00000000000E+00 0.  1.
         21   -1    0    0  501  503 -0.00000000000E+00 -0.00000000000E+00 -0.64520071405E+03  0.64520071405E+03  0.00000000000E+00 0.  1.
          6    1    1    2  501    0  0.10545102476E+03  0.60789427938E+02 -0.22951565647E+03  0.31157135577E+03  0.17200000000E+03 0. -1.
         -6    1    1    2    0  502 -0.10545102476E+03 -0.60789427938E+02 -0.34503061045E+03  0.40428380541E+03  0.17200000000E+03 0. -1.
</event>
<event>
 4    1  0.1181383E+000  0.2259165E+03  0.7818608E-02  0.1129547E+00
         21   -1    0    0  503  502  0.00000000000E+00  0.00000000000E+00  0.21969051473E+03  0.21969051473E+03  0.00000000000E+00 0.  1.
         21   -1    0    0  501  503 -0.00000000000E+00 -0.00000000000E+00 -0.29662565090E+03  0.29662565090E+03  0.00000000000E+00 0. -1.
          6    1    1    2  501    0  0.13000267572E+03  0.67480258636E+02  0.81733773893E+02  0.24024714524E+03  0.17200000000E+03 0.  1.
         -6    1    1    2    0  502 -0.13000267572E+03 -0.67480258636E+02 -0.15866891007E+03  0.27606902040E+03  0.17200000000E+03 0. -1.
</event>
<event>
 4    1  0.1181383E+000  0.2019451E+03  0.7818608E-02  0.1148108E+00
         21   -1    0    0  501  502  0.00000000000E+00  0.00000000000E+00  0.41786983534E+03  0.41786983534E+03  0.00000000000E+00 0. -1.
         21   -1    0    0  502  503 -0.00000000000E+00 -0.00000000000E+00 -0.32428053182E+03  0.32428053182E+03  0.00000000000E+00 0.  1.
          6    1    1    2  501    0  0.79485702709E+02  0.69855866125E+02  0.35704609030E+03  0.41019962161E+03  0.17200000000E+03 0. -1.
         -6    1    1    2    0  503 -0.79485702709E+02 -0.69855866125E+02 -0.26345678678E+03  0.33195074554E+03  0.17200000000E+03 0.  1.
</event>
<event>
 4    1  0.1181383E+000  0.2204139E+03  0.7818608E-02  0.1133575E+00
         21   -1    0    0  501  502  0.00000000000E+00  0.00000000000E+00  0.11601917843E+04  0.11601917843E+04  0.00000000000E+00 0. -1.
         21   -1    0    0  502  503 -0.00000000000E+00 -0.00000000000E+00 -0.58533695339E+02  0.58533695339E+02  0.00000000000E+00 0.  1.
          6    1    1    2  501    0 -0.10579846641E+03 -0.88345710745E+02  0.87591772872E+03  0.90322430636E+03  0.17200000000E+03 0. -1.
         -6    1    1    2    0  503  0.10579846641E+03  0.88345710745E+02  0.22574036023E+03  0.31550117328E+03  0.17200000000E+03 0. -1.
</event>
<event>
 4    1  0.1181383E+000  0.2650931E+03  0.7818608E-02  0.1104121E+00
         21   -1    0    0  501  502  0.00000000000E+00  0.00000000000E+00  0.26698169696E+03  0.26698169696E+03  0.00000000000E+00 0. -1.
         21   -1    0    0  502  503 -0.00000000000E+00 -0.00000000000E+00 -0.33074056999E+03  0.33074056999E+03  0.00000000000E+00 0. -1.
          6    1    1    2  501    0 -0.37024493361E+02 -0.19829159256E+03  0.10315682967E+03  0.28445685138E+03  0.17200000000E+03 0. -1.
         -6    1    1    2    0  503  0.37024493361E+02  0.19829159256E+03 -0.16691570270E+03  0.31326541557E+03  0.17200000000E+03 0. -1.
</event>
<event>
 4    1  0.1181383E+000  0.1751681E+03  0.7818608E-02  0.1172563E+00
         21   -1    0    0  501  502  0.00000000000E+00  0.00000000000E+00  0.90286992408E+02  0.90286992408E+02  0.00000000000E+00 0.  1.
         21   -1    0    0  502  503 -0.00000000000E+00 -0.00000000000E+00 -0.38687206513E+03  0.38687206513E+03  0.00000000000E+00 0.  1.
          6    1    1    2  501    0 -0.41361368223E+01  0.32905029487E+02 -0.23147079841E+03  0.29028017347E+03  0.17200000000E+03 0.  1.
         -6    1    1    2    0  503  0.41361368223E+01 -0.32905029487E+02 -0.65114274322E+02  0.18687888408E+03  0.17200000000E+03 0.  1.
</event>
<event>
 4    1  0.1181383E+000  0.1849605E+03  0.7818608E-02  0.1163087E+00
         21   -1    0    0  503  502  0.00000000000E+00  0.00000000000E+00  0.66411245460E+02  0.66411245460E+02  0.00000000000E+00 0.  1.
         21   -1    0    0  501  503 -0.00000000000E+00 -0.00000000000E+00 -0.54750278519E+03  0.54750278519E+03  0.00000000000E+00 0.  1.
          6    1    1    2  501    0  0.51792479354E+02  0.44089983658E+02 -0.31518689835E+03  0.36544926935E+03  0.17200000000E+03 0. -1.
         -6    1    1    2    0  502 -0.51792479354E+02 -0.44089983658E+02 -0.16590464138E+03  0.24846476130E+03  0.17200000000E+03 0. -1.
</event>
<event>
 4    1  0.1181383E+000  0.1864137E+03  0.7818608E-02  0.1161736E+00
         21   -1    0    0  503  502  0.00000000000E+00  0.00000000000E+00  0.95827375742E+03  0.95827375742E+03  0.00000000000E+00 0. -1.
         21   -1    0    0  501  503 -0.00000000000E+00 -0.00000000000E+00 -0.42548116547E+02  0.42548116547E+02  0.00000000000E+00 0. -1.
          6    1    1    2  501    0 -0.63086708247E+02 -0.34440568862E+02  0.26553773872E+03  0.32443855540E+03  0.17200000000E+03 0. -1.
         -6    1    1    2    0  502  0.63086708247E+02  0.34440568862E+02  0.65018790215E+03  0.67638331858E+03  0.17200000000E+03 0. -1.
</event>
<event>
 4    1  0.1181383E+000  0.2033097E+03  0.7818608E-02  0.1146976E+00
         21   -1    0    0  503  502  0.00000000000E+00  0.00000000000E+00  0.11375717777E+03  0.11375717777E+03  0.00000000000E+00 0.  1.
         21   -1    0    0  501  503 -0.00000000000E+00 -0.00000000000E+00 -0.44971755289E+03  0.44971755289E+03  0.00000000000E+00 0. -1.
          6    1    1    2  501    0 -0.99451902004E+02  0.43129497263E+02 -0.29143957373E+03  0.35534751931E+03  0.17200000000E+03 0. -1.
         -6    1    1    2    0  502  0.99451902004E+02 -0.43129497263E+02 -0.44520801396E+02  0.20812721135E+03  0.17200000000E+03 0.  1.
</event>
<event>
 4    1  0.1181383E+000  0.1796298E+03  0.7818608E-02  0.1168162E+00
         21   -1    0    0  503  502  0.00000000000E+00  0.00000000000E+00  0.17656900611E+03  0.17656900611E+03  0.00000000000E+00 0.  1.
         21   -1    0    0  501  503 -0.00000000000E+00 -0.00000000000E+00 -0.18702216444E+03  0.18702216444E+03  0.00000000000E+00 0.  1.
          6    1    1    2  501    0 -0.43912226689E+02  0.27469796910E+02  0.22270133894E+02  0.18100506142E+03  0.17200000000E+03 0.  1.
         -6    1    1    2    0  502  0.43912226689E+02 -0.27469796910E+02 -0.32723292215E+02  0.18258610913E+03  0.17200000000E+03 0.  1.
</event>
<event>
 4    1  0.1181383E+000  0.1821342E+03  0.7818608E-02  0.1165753E+00
         21   -1    0    0  503  502  0.00000000000E+00  0.00000000000E+00  0.81107762792E+03  0.81107762792E+03  0.00000000000E+00 0.  1.
         21   -1    0    0  501  503 -0.00000000000E+00 -0.00000000000E+00 -0.19984290402E+03  0.19984290402E+03  0.00000000000E+00 0.  1.
          6    1    1    2  501    0 -0.51680492792E+02  0.30298618094E+02 -0.14516151422E+03  0.23290501241E+03  0.17200000000E+03 0.  1.
         -6    1    1    2    0  502  0.51680492792E+02 -0.30298618094E+02  0.75639623811E+03  0.77801551953E+03  0.17200000000E+03 0.  1.
</event>
<event>
 4    1  0.1181383E+000  0.1919965E+03  0.7818608E-02  0.1156673E+00
         21   -1    0    0  501  502  0.00000000000E+00  0.00000000000E+00  0.30537239437E+03  0.30537239437E+03  0.00000000000E+00 0.  1.
         21   -1    0    0  502  503 -0.00000000000E+00 -0.00000000000E+00 -0.12193326428E+03  0.12193326428E+03  0.00000000000E+00 0.  1.
          6    1    1    2  501    0 -0.36893597463E+02 -0.76925411723E+02  0.11308616298E+03  0.22282535035E+03  0.17200000000E+03 0. -1.
         -6    1    1    2    0  503  0.36893597463E+02  0.76925411723E+02  0.70352967107E+02  0.20448030830E+03  0.17200000000E+03 0. -1.
</event>
<event>
 4    1  0.1181383E+000  0.2571018E+03  0.7818608E-02  0.1108897E+00
         21   -1    0    0  501  502  0.00000000000E+00  0.00000000000E+00  0.53063309232E+02  0.53063309232E+02  0.00000000000E+00 0. -1.
         21   -1    0    0  502  503 -0.00000000000E+00 -0.00000000000E+00 -0.18280566771E+04  0.18280566771E+04  0.00000000000E+00 0.  1.
          6    1    1    2  501    0  0.43129884025E+02  0.18616435303E+03 -0.35663244515E+03  0.43964537319E+03  0.17200000000E+03 0. -1.
         -6    1    1    2    0  503 -0.43129884025E+02 -0.18616435303E+03 -0.14183609227E+04  0.14414746131E+04  0.17200000000E+03 0.  1.
</event>
<event>
 4    1  0.1181383E+000  0.2103825E+03  0.7818608E-02  0.1141263E+00
         21   -1    0    0  503  502  0.00000000000E+00  0.00000000000E+00  0.30695890451E+02  0.30695890451E+02  0.00000000000E+00 0.  1.
         21   -1    0    0  501  503 -0.00000000000E+00 -0.00000000000E+00 -0.15351030170E+04  0.15351030170E+04  0.00000000000E+00 0.  1.
          6    1    1    2  501    0  0.88838920833E+02 -0.82367724276E+02 -0.94509924364E+03  0.96823208797E+03  0.17200000000E+03 0. -1.
         -6    1    1    2    0  502 -0.88838920833E+02  0.82367724276E+02 -0.55930788295E+03  0.59756681951E+03  0.17200000000E+03 0. -1.
</event>
<event>
 4    1  0.1181383E+000  0.2148035E+03  0.7818608E-02  0.1137818E+00
         21   -1    0    0  503  502  0.00000000000E+00  0.00000000000E+00  0.24530418220E+03  0.24530418220E+03  0.00000000000E+00 0. -1.
         21   -1    0    0  501  503 -0.00000000000E+00 -0.00000000000E+00 -0.39148287046E+03  0.39148287046E+03  0.00000000000E+00 0. -1.
          6    1    1    2  501    0 -0.12739391413E+03  0.18092061846E+02  0.15640405001E+03  0.26571179673E+03  0.17200000000E+03 0. -1.
         -6    1    1    2    0  502  0.12739391413E+03 -0.18092061846E+02 -0.30258273828E+03  0.37107525593E+03  0.17200000000E+03 0. -1.
</event>
<event>
 4    1  0.1181383E+000  0.2385116E+03  0.7818608E-02  0.1120788E+00
         21   -1    0    0  501  502  0.00000000000E+00  0.00000000000E+00  0.60300651488E+02  0.60300651488E+02  0.00000000000E+00 0. -1.
         21   -1    0    0  502  503 -0.00000000000E+00 -0.00000000000E+00 -0.12611086790E+04  0.12611086790E+04  0.00000000000E+00 0.  1.
          6    1    1    2  501    0  0.13217996608E+03 -0.99157534850E+02 -0.26878132774E+03  0.35934824654E+03  0.17200000000E+03 0. -1.
         -6    1    1    2    0  503 -0.13217996608E+03  0.99157534850E+02 -0.93202669972E+03  0.96206108390E+03  0.17200000000E+03 0.  1.
</event>
<event>
 4    1  0.1181383E+000  0.1931445E+03  0.7818608E-02  0.1155655E+00
         21   -1    0    0  501  502  0.00000000000E+00  0.00000000000E+00  0.64030038154E+03  0.64030038154E+03  0.00000000000E+00 0. -1.
         21   -1    0    0  502  503 -0.00000000000E+00 -0.00000000000E+00 -0.95828488885E+02  0.95828488885E+02  0.00000000000E+00 0. -1.
          6    1    1    2  501    0 -0.84582455861E+02  0.23803275101E+02  0.50268789604E+03  0.53851639582E+03  0.17200000000E+03 0.  1.
         -6    1    1    2    0  503  0.84582455861E+02 -0.23803275101E+02  0.41783996616E+02  0.19761247460E+03  0.17200000000E+03 0.  1.
</event>
<event>
 4    1  0.1181383E+000  0.2007366E+03  0.7818608E-02  0.1149119E+00
         21   -1    0    0  503  502  0.00000000000E+00  0.00000000000E+00  0.75795096006E+02  0.75795096006E+02  0.00000000000E+00 0. -1.
         21   -1    0    0  501  503 -0.00000000000E+00 -0.00000000000E+00 -0.53207702190E+03  0.53207702190E+03  0.00000000000E+00 0. -1.
          6    1    1    2  501    0 -0.10338825979E+03  0.46965189450E+01 -0.23691902355E+03  0.31052506062E+03  0.17200000000E+03 0.  1.
         -6    1    1    2    0  502  0.10338825979E+03 -0.46965189450E+01 -0.21936290235E+03  0.29734705729E+03  0.17200000000E+03 0.  1.
</event>
<event>
 4    1  0.1181383E+000  0.2543496E+03  0.7818608E-02  0.1110586E+00
         21   -1    0    0  503  502  0.00000000000E+00  0.00000000000E+00  0.18502782059E+04  0.18502782059E+04  0.00000000000E+00 0. -1.
         21   -1    0    0  501  503 -0.00000000000E+00 -0.00000000000E+00 -0.67296148715E+02  0.67296148715E+02  0.00000000000E+00 0. -1.
          6    1    1    2  501    0 -0.79779863666E+02  0.16954319074E+03  0.22691871671E+03  0.34086041742E+03  0.17200000000E+03 0.  1.
         -6    1    1    2    0  502  0.79779863666E+02 -0.16954319074E+03  0.15560633405E+04  0.15767139372E+04  0.17200000000E+03 0.  1.
</event>
<event>
 4    1  0.1181383E+000  0.1727614E+03  0.7818608E-02  0.1174998E+00
         21   -1    0    0  501  502  0.00000000000E+00  0.00000000000E+00  0.88419671091E+02  0.88419671091E+02  0.00000000000E+00 0.  1.
         21   -1    0    0  502  503 -0.00000000000E+00 -0.00000000000E+00 -0.34156517090E+03  0.34156517090E+03  0.00000000000E+00 0.  1.
          6    1    1    2  501    0  0.15430005877E+02  0.49428472512E+01 -0.14986753835E+03  0.22870679017E+03  0.17200000000E+03 0.  1.
         -6    1    1    2    0  503 -0.15430005877E+02 -0.49428472512E+01 -0.10327796146E+03  0.20127805182E+03  0.17200000000E+03 0.  1.
</event>
<event>
 4    1  0.1181383E+000  0.1904775E+03  0.7818608E-02  0.1158031E+00
         21   -1    0    0  501  502  0.00000000000E+00  0.00000000000E+00  0.41135881216E+02  0.41135881216E+02  0.00000000000E+00 0.  1.
         21   -1    0    0  502  503 -0.00000000000E+00 -0.00000000000E+00 -0.99453994259E+03  0.99453994259E+03  0.00000000000E+00 0. -1.
          6    1    1    2  501    0  0.69578500043E+02  0.43087312776E+02 -0.30250380788E+03  0.35747760485E+03  0.17200000000E+03 0.  1.
         -6    1    1    2    0  503 -0.69578500043E+02 -0.43087312776E+02 -0.65090025350E+03  0.67819821895E+03  0.17200000000E+03 0. -1.
</event>
<event>
 4    1  0.1181383E+000  0.1824101E+03  0.7818608E-02  0.1165491E+00
         21   -1    0    0  503  502  0.00000000000E+00  0.00000000000E+00  0.35300048646E+03  0.35300048646E+03  0.00000000000E+00 0.  1.
         21   -1    0    0  501  503 -0.00000000000E+00 -0.00000000000E+00 -0.24556776369E+03  0.24556776369E+03  0.00000000000E+00 0.  1.
          6    1    1    2  501    0 -0.45521316123E+02  0.40215095780E+02 -0.18120913957E+03  0.25711903161E+03  0.17200000000E+03 0.  1.
         -6    1    1    2    0  502  0.45521316123E+02 -0.40215095780E+02  0.28864186233E+03  0.34144921854E+03  0.17200000000E+03 0.  1.
</event>
<event>
 4    1  0.1181383E+000  0.1799260E+03  0.7818608E-02  0.1167875E+00
         21   -1    0    0  503  502  0.00000000000E+00  0.00000000000E+00  0.20760526580E+03  0.20760526580E+03  0.00000000000E+00 0.  1.
         21   -1    0    0  501  503 -0.00000000000E+00 -0.00000000000E+00 -0.17823696774E+03  0.17823696774E+03  0.00000000000E+00 0. -1.
          6    1    1    2  501    0 -0.35953893378E+02 -0.38687210225E+02 -0.53554606727E+02  0.18772713865E+03  0.17200000000E+03 0. -1.
         -6    1    1    2    0  502  0.35953893378E+02  0.38687210225E+02  0.82922904785E+02  0.19811509489E+03  0.17200000000E+03 0.  1.
</event>
<event>
 4    1  0.1181383E+000  0.1919683E+03  0.7818608E-02  0.1156698E+00
         21   -1    0    0  503  502  0.00000000000E+00  0.00000000000E+00  0.11410217211E+03  0.11410217211E+03  0.00000000000E+00 0. -1.
         21   -1    0    0  501  503 -0.00000000000E+00 -0.00000000000E+00 -0.39691719728E+03  0.39691719728E+03  0.00000000000E+00 0. -1.
          6    1    1    2  501    0 -0.81105892540E+01  0.84864846823E+02 -0.25169137113E+03  0.31654442056E+03  0.17200000000E+03 0.  1.
         -6    1    1    2    0  502  0.81105892540E+01 -0.84864846823E+02 -0.31123654039E+02  0.19447494884E+03  0.17200000000E+03 0.  1.
</event>
<event>
 4    1  0.1181383E+000  0.1772526E+03  0.7818608E-02  0.1170489E+00
         21   -1    0    0  503  502  0.00000000000E+00  0.00000000000E+00  0.20046867843E+02  0.20046867843E+02  0.00000000000E+00 0.  1.
         21   -1    0    0  501  503 -0.00000000000E+00 -0.00000000000E+00 -0.15732615934E+04  0.15732615934E+04  0.00000000000E+00 0.  1.
          6    1    1    2  501    0  0.16131586511E+02  0.39676780548E+02 -0.82584822879E+03  0.84465600808E+03  0.17200000000E+03 0.  1.
         -6    1    1    2    0  502 -0.16131586511E+02 -0.39676780548E+02 -0.72736649673E+03  0.74865245312E+03  0.17200000000E+03 0.  1.
</event>
<event>
 4    1  0.1181383E+000  0.3201789E+03  0.7818608E-02  0.1075567E+00
         21   -1    0    0  501  502  0.00000000000E+00  0.00000000000E+00  0.23957421194E+03  0.23957421194E+03  0.00000000000E+00 0.  1.
         21   -1    0    0  502  503 -0.00000000000E+00 -0.00000000000E+00 -0.42912291326E+03  0.42912291326E+03  0.00000000000E+00 0. -1.
          6    1    1    2  501    0  0.23907749155E+03 -0.12558851640E+03 -0.11260118653E+03  0.33940175254E+03  0.17200000000E+03 0.  1.
         -6    1    1    2    0  503 -0.23907749155E+03  0.12558851640E+03 -0.76947514796E+02  0.32929537266E+03  0.17200000000E+03 0.  1.
</event>
<event>
 4    1  0.1181383E+000  0.2222538E+03  0.7818608E-02  0.1132214E+00
         21   -1    0    0  501  502  0.00000000000E+00  0.00000000000E+00  0.15396685156E+03  0.15396685156E+03  0.00000000000E+00 0. -1.
         21   -1    0    0  502  503 -0.00000000000E+00 -0.00000000000E+00 -0.32539850651E+03  0.32539850651E+03  0.00000000000E+00 0. -1.
          6    1    1    2  501    0 -0.12720650786E+03  0.60260074129E+02 -0.11412400669E+03  0.24984207227E+03  0.17200000000E+03 0. -1.
         -6    1    1    2    0  503  0.12720650786E+03 -0.60260074129E+02 -0.57307648259E+02  0.22952328580E+03  0.17200000000E+03 0. -1.
</event>
<event>
 4    1  0.1181383E+000  0.1844369E+03  0.7818608E-02  0.1163577E+00
         21   -1    0    0  503  502  0.00000000000E+00  0.00000000000E+00  0.36581919145E+03  0.36581919145E+03  0.00000000000E+00 0. -1.
         21   -1    0    0  501  503 -0.00000000000E+00 -0.00000000000E+00 -0.93612772714E+02  0.93612772714E+02  0.00000000000E+00 0. -1.
          6    1    1    2  501    0 -0.36180095840E+02  0.55892416358E+02  0.15486293028E+03  0.24083083008E+03  0.17200000000E+03 0.  1.
         -6    1    1    2    0  502  0.36180095840E+02 -0.55892416358E+02  0.11734348846E+03  0.21860113409E+03  0.17200000000E+03 0.  1.
</event>
<event>
 4    1  0.1181383E+000  0.3172318E+03  0.7818608E-02  0.1076930E+00
         21   -1    0    0  501  502  0.00000000000E+00  0.00000000000E+00  0.53010665051E+02  0.53010665051E+02  0.00000000000E+00 0. -1.
         21   -1    0    0  502  503 -0.00000000000E+00 -0.00000000000E+00 -0.18996188020E+04  0.18996188020E+04  0.00000000000E+00 0.  1.
          6    1    1    2  501    0  0.22950648510E+03 -0.13556834005E+03 -0.94792757256E+03  0.99960126268E+03  0.17200000000E+03 0.  1.
         -6    1    1    2    0  503 -0.22950648510E+03  0.13556834005E+03 -0.89868056441E+03  0.95302820439E+03  0.17200000000E+03 0. -1.
</event>
<event>
 4    1  0.1181383E+000  0.1994509E+03  0.7818608E-02  0.1150203E+00
         21   -1    0    0  501  502  0.00000000000E+00  0.00000000000E+00  0.14108409203E+04  0.14108409203E+04  0.00000000000E+00 0. -1.
         21   -1    0    0  502  503 -0.00000000000E+00 -0.00000000000E+00 -0.85625571392E+02  0.85625571392E+02  0.00000000000E+00 0. -1.
          6    1    1    2  501    0  0.82109048912E+02 -0.58777175745E+02  0.12753833088E+04  0.12908846721E+04  0.17200000000E+03 0. -1.
         -6    1    1    2    0  503 -0.82109048912E+02  0.58777175745E+02  0.49832040033E+02  0.20558181952E+03  0.17200000000E+03 0. -1.
</event>
<event>
 4    1  0.1181383E+000  0.1946919E+03  0.7818608E-02  0.1154296E+00
         21   -1    0    0  503  502  0.00000000000E+00  0.00000000000E+00  0.57359275320E+03  0.57359275320E+03  0.00000000000E+00 0.  1.
         21   -1    0    0  501  503 -0.00000000000E+00 -0.00000000000E+00 -0.94773793394E+02  0.94773793394E+02  0.00000000000E+00 0.  1.
          6    1    1    2  501    0 -0.81330875659E+02  0.41306522756E+02  0.55540239718E+02  0.20245902891E+03  0.17200000000E+03 0.  1.
         -6    1    1    2    0  502  0.81330875659E+02 -0.41306522756E+02  0.42327872008E+03  0.46590751768E+03  0.17200000000E+03 0.  1.
</event>
<event>
 4    1  0.1181383E+000  0.1801351E+03  0.7818608E-02  0.1167672E+00
         21   -1    0    0  503  502  0.00000000000E+00  0.00000000000E+00  0.41450274189E+03  0.41450274189E+03  0.00000000000E+00 0.  1.
         21   -1    0    0  501  503 -0.00000000000E+00 -0.00000000000E+00 -0.10420998760E+03  0.10420998760E+03  0.00000000000E+00 0.  1.
          6    1    1    2  501    0 -0.24160420813E+02 -0.47759048754E+02  0.25781747392E+02  0.18197074262E+03  0.17200000000E+03 0.  1.
         -6    1    1    2    0  502  0.24160420813E+02  0.47759048754E+02  0.28451100690E+03  0.33674198687E+03  0.17200000000E+03 0.  1.
</event>
<event>
 4    1  0.1181383E+000  0.2271429E+03  0.7818608E-02  0.1128667E+00
         21   -1    0    0  501  502  0.00000000000E+00  0.00000000000E+00  0.13132104872E+03  0.13132104872E+03  0.00000000000E+00 0. -1.
         21   -1    0    0  502  503 -0.00000000000E+00 -0.00000000000E+00 -0.68103177822E+03  0.68103177822E+03  0.00000000000E+00 0.  1.
          6    1    1    2  501    0 -0.10855576322E+03 -0.10112153136E+03 -0.10651740794E+02  0.22739256236E+03  0.17200000000E+03 0. -1.
         -6    1    1    2    0  503  0.10855576322E+03  0.10112153136E+03 -0.53905898871E+03  0.58496026458E+03  0.17200000000E+03 0.  1.
</event>
<event>
 4    1  0.1181383E+000  0.2118274E+03  0.7818608E-02  0.1140127E+00
         21   -1    0    0  501  502  0.00000000000E+00  0.00000000000E+00  0.11151289815E+04  0.11151289815E+04  0.00000000000E+00 0. -1.
         21   -1    0    0  502  503 -0.00000000000E+00 -0.00000000000E+00 -0.75627001154E+03  0.75627001154E+03  0.00000000000E+00 0. -1.
          6    1    1    2  501    0 -0.12161551984E+03 -0.22282489740E+02  0.10898962517E+04  0.11102903600E+04  0.17200000000E+03 0. -1.
         -6    1    1    2    0  503  0.12161551984E+03  0.22282489740E+02 -0.73103728173E+03  0.76110863305E+03  0.17200000000E+03 0. -1.
</event>
<event>
 4    1  0.1181383E+000  0.1894336E+03  0.7818608E-02  0.1158973E+00
         21   -1    0    0  501  502  0.00000000000E+00  0.00000000000E+00  0.33962692376E+02  0.33962692376E+02  0.00000000000E+00 0. -1.
         21   -1    0    0  502  503 -0.00000000000E+00 -0.00000000000E+00 -0.11235409717E+04  0.11235409717E+04  0.00000000000E+00 0.  1.
          6    1    1    2  501    0  0.23472273036E+02 -0.75829779360E+02 -0.40352489597E+03  0.44577734881E+03  0.17200000000E+03 0.  1.
         -6    1    1    2    0  503 -0.23472273036E+02  0.75829779360E+02 -0.68605338337E+03  0.71172631529E+03  0.17200000000E+03 0.  1.
</event>
<event>
 4    1  0.1181383E+000  0.1721626E+03  0.7818608E-02  0.1175611E+00
         21   -1    0    0  503  502  0.00000000000E+00  0.00000000000E+00  0.14751656111E+03  0.14751656111E+03  0.00000000000E+00 0.  1.
         21   -1    0    0  501  503 -0.00000000000E+00 -0.00000000000E+00 -0.29639613821E+03  0.29639613821E+03  0.00000000000E+00 0.  1.
          6    1    1    2  501    0  0.70417870143E+01  0.25240039242E+01 -0.20040899344E+03  0.26420394019E+03  0.17200000000E+03 0.  1.
         -6    1    1    2    0  502 -0.70417870143E+01 -0.25240039242E+01  0.51529416333E+02  0.17970875913E+03  0.17200000000E+03 0.  1.
</event>
<event>
 4    1  0.1181383E+000  0.1923654E+03  0.7818608E-02  0.1156345E+00
         21   -1    0    0  503  502  0.00000000000E+00  0.00000000000E+00  0.86528667524E+02  0.86528667524E+02  0.00000000000E+00 0.  1.
         21   -1    0    0  501  503 -0.00000000000E+00 -0.00000000000E+00 -0.59374551450E+03  0.59374551450E+03  0.00000000000E+00 0.  1.
          6    1    1    2  501    0  0.22804442669E+02  0.83068623795E+02 -0.43350624813E+03  0.47427007710E+03  0.17200000000E+03 0.  1.
         -6    1    1    2    0  502 -0.22804442669E+02 -0.83068623795E+02 -0.73710598851E+02  0.20600410493E+03  0.17200000000E+03 0.  1.
</event>
<event>
 4    1  0.1181383E+000  0.1823896E+03  0.7818608E-02  0.1165510E+00
         21   -1    0    0  503  502  0.00000000000E+00  0.00000000000E+00  0.16240503129E+04  0.16240503129E+04  0.00000000000E+00 0. -1.
         21   -1    0    0  501  503 -0.00000000000E+00 -0.00000000000E+00 -0.25342959596E+02  0.25342959596E+02  0.00000000000E+00 0. -1.
          6    1    1    2  501    0  0.40994028132E+02  0.44737546353E+02  0.43822070258E+03  0.47466129247E+03  0.17200000000E+03 0. -1.
         -6    1    1    2    0  502 -0.40994028132E+02 -0.44737546353E+02  0.11604866507E+04  0.11747319800E+04  0.17200000000E+03 0. -1.
</event>
<event>
 4    1  0.1181383E+000  0.2172397E+03  0.7818608E-02  0.1135958E+00
         21   -1    0    0  501  502  0.00000000000E+00  0.00000000000E+00  0.45709438901E+03  0.45709438901E+03  0.00000000000E+00 0.  1.
         21   -1    0    0  502  503 -0.00000000000E+00 -0.00000000000E+00 -0.15223424509E+03  0.15223424509E+03  0.00000000000E+00 0. -1.
          6    1    1    2  501    0  0.82233282687E+01  0.13244420305E+03  0.32525727545E+03  0.39113346223E+03  0.17200000000E+03 0.  1.
         -6    1    1    2    0  503 -0.82233282687E+01 -0.13244420305E+03 -0.20397131529E+02  0.21819517186E+03  0.17200000000E+03 0. -1.
</event>
<event>
 4    1  0.1181383E+000  0.1969208E+03  0.7818608E-02  0.1152363E+00
         21   -1    0    0  503  502  0.00000000000E+00  0.00000000000E+00  0.26672831583E+03  0.26672831583E+03  0.00000000000E+00 0. -1.
         21   -1    0    0  501  503 -0.00000000000E+00 -0.00000000000E+00 -0.23208191636E+03  0.23208191636E+03  0.00000000000E+00 0. -1.
          6    1    1    2  501    0  0.95884167776E+02  0.17841118830E+00 -0.13511406260E+03  0.23881711700E+03  0.17200000000E+03 0. -1.
         -6    1    1    2    0  502 -0.95884167776E+02 -0.17841118830E+00  0.16976046207E+03  0.25999311519E+03  0.17200000000E+03 0. -1.
</event>
<event>
 4    1  0.1181383E+000  0.2079410E+03  0.7818608E-02  0.1143207E+00
         21   -1    0    0  501  502  0.00000000000E+00  0.00000000000E+00  0.76104109242E+02  0.76104109242E+02  0.00000000000E+00 0. -1.
         21   -1    0    0  502  503 -0.00000000000E+00 -0.00000000000E+00 -0.56821006769E+03  0.56821006769E+03  0.00000000000E+00 0. -1.
          6    1    1    2  501    0  0.11487960568E+03  0.21403645181E+02 -0.24902537057E+03  0.32442730313E+03  0.17200000000E+03 0.  1.
         -6    1    1    2    0  503 -0.11487960568E+03 -0.21403645181E+02 -0.24308058789E+03  0.31988687381E+03  0.17200000000E+03 0.  1.
</event>
<event>
 4    1  0.1181383E+000  0.1845331E+03  0.7818608E-02  0.1163487E+00
         21   -1    0    0  501  502  0.00000000000E+00  0.00000000000E+00  0.47555333373E+02  0.47555333373E+02  0.00000000000E+00 0. -1.
         21   -1    0    0  502  503 -0.00000000000E+00 -0.00000000000E+00 -0.13546823616E+04  0.13546823616E+04  0.00000000000E+00 0. -1.
          6    1    1    2  501    0 -0.91396069347E+01 -0.66218913305E+02 -0.17217588023E+03  0.25238266705E+03  0.17200000000E+03 0. -1.
         -6    1    1    2    0  503  0.91396069347E+01  0.66218913305E+02 -0.11349511480E+04  0.11498550279E+04  0.17200000000E+03 0. -1.
</event>
<event>
 4    1  0.1181383E+000  0.1760291E+03  0.7818608E-02  0.1171702E+00
         21   -1    0    0  501  502  0.00000000000E+00  0.00000000000E+00  0.50299415595E+03  0.50299415595E+03  0.00000000000E+00 0. -1.
         21   -1    0    0  502  503 -0.00000000000E+00 -0.00000000000E+00 -0.78703816999E+02  0.78703816999E+02  0.00000000000E+00 0. -1.
          6    1    1    2  501    0  0.25471656978E+02 -0.27448531432E+02  0.34771750057E+03  0.38973540689E+03  0.17200000000E+03 0. -1.
         -6    1    1    2    0  503 -0.25471656978E+02  0.27448531432E+02  0.76572838381E+02  0.19196256605E+03  0.17200000000E+03 0. -1.
</event>
<event>
 4    1  0.1181383E+000  0.1906009E+03  0.7818608E-02  0.1157921E+00
         21   -1    0    0  501  502  0.00000000000E+00  0.00000000000E+00  0.16387344698E+03  0.16387344698E+03  0.00000000000E+00 0. -1.
         21   -1    0    0  502  503 -0.00000000000E+00 -0.00000000000E+00 -0.29150328533E+03  0.29150328533E+03  0.00000000000E+00 0. -1.
          6    1    1    2  501    0  0.43288146344E+02  0.69791269685E+02  0.47613537220E+02  0.19645796972E+03  0.17200000000E+03 0. -1.
         -6    1    1    2    0  503 -0.43288146344E+02 -0.69791269685E+02 -0.17524337557E+03  0.25891876259E+03  0.17200000000E+03 0. -1.
</event>
<event>
 4    1  0.1181383E+000  0.3457522E+03  0.7818608E-02  0.1064372E+00
         21   -1    0    0  501  502  0.00000000000E+00  0.00000000000E+00  0.22066465926E+03  0.22066465926E+03  0.00000000000E+00 0.  1.
         21   -1    0    0  502  503 -0.00000000000E+00 -0.00000000000E+00 -0.55097243456E+03  0.55097243456E+03  0.00000000000E+00 0.  1.
          6    1    1    2  501    0  0.29545758662E+03 -0.51627374553E+02 -0.11523152397E+03  0.36444872809E+03  0.17200000000E+03 0.  1.
         -6    1    1    2    0  503 -0.29545758662E+03  0.51627374553E+02 -0.21507625133E+03  0.40718836572E+03  0.17200000000E+03 0.  1.
</event>
<event>
 4    1  0.1181383E+000  0.1758087E+03  0.7818608E-02  0.1171922E+00
         21   -1    0    0  501  502  0.00000000000E+00  0.00000000000E+00  0.19166164253E+03  0.19166164253E+03  0.00000000000E+00 0.  1.
         21   -1    0    0  502  503 -0.00000000000E+00 -0.00000000000E+00 -0.18934578680E+03  0.18934578680E+03  0.00000000000E+00 0.  1.
          6    1    1    2  501    0 -0.25551882006E+01 -0.36306512937E+02  0.74518894792E+02  0.19094962045E+03  0.17200000000E+03 0.  1.
         -6    1    1    2    0  503  0.25551882006E+01  0.36306512937E+02 -0.72203039060E+02  0.19005780888E+03  0.17200000000E+03 0.  1.
</event>
<event>
 4    1  0.1181383E+000  0.1737114E+03  0.7818608E-02  0.1174032E+00
         21   -1    0    0  501  502  0.00000000000E+00  0.00000000000E+00  0.86171486298E+03  0.86171486298E+03  0.00000000000E+00 0.  1.
         21   -1    0    0  502  503 -0.00000000000E+00 -0.00000000000E+00 -0.51117782552E+02  0.51117782552E+02  0.00000000000E+00 0.  1.
          6    1    1    2  501    0 -0.70471529548E+01 -0.23280362855E+02  0.66144213569E+03  0.68387231010E+03  0.17200000000E+03 0. -1.
         -6    1    1    2    0  503  0.70471529548E+01  0.23280362855E+02  0.14915494474E+03  0.22896033543E+03  0.17200000000E+03 0. -1.
</event>
<event>
 4    1  0.1181383E+000  0.1893945E+03  0.7818608E-02  0.1159009E+00
         21   -1    0    0  501  502  0.00000000000E+00  0.00000000000E+00  0.25088828352E+03  0.25088828352E+03  0.00000000000E+00 0.  1.
         21   -1    0    0  502  503 -0.00000000000E+00 -0.00000000000E+00 -0.14828301368E+03  0.14828301368E+03  0.00000000000E+00 0.  1.
          6    1    1    2  501    0  0.78224488475E+02 -0.12930876274E+02  0.13534379089E+02  0.18987748043E+03  0.17200000000E+03 0.  1.
         -6    1    1    2    0  503 -0.78224488475E+02  0.12930876274E+02  0.89070890750E+02  0.20929381677E+03  0.17200000000E+03 0.  1.
</event>
<event>
 4    1  0.1181383E+000  0.2034210E+03  0.7818608E-02  0.1146884E+00
         21   -1    0    0  503  502  0.00000000000E+00  0.00000000000E+00  0.37414987473E+03  0.37414987473E+03  0.00000000000E+00 0.  1.
         21   -1    0    0  501  503 -0.00000000000E+00 -0.00000000000E+00 -0.11677012080E+03  0.11677012080E+03  0.00000000000E+00 0.  1.
          6    1    1    2  501    0  0.85747944995E+02 -0.66658741895E+02  0.72255428552E+02  0.21587252001E+03  0.17200000000E+03 0. -1.
         -6    1    1    2    0  502 -0.85747944995E+02  0.66658741895E+02  0.18512432538E+03  0.27504747552E+03  0.17200000000E+03 0. -1.
</event>
<event>
 4    1  0.1181383E+000  0.2128989E+03  0.7818608E-02  0.1139291E+00
         21   -1    0    0  501  502  0.00000000000E+00  0.00000000000E+00  0.83080856096E+02  0.83080856096E+02  0.00000000000E+00 0. -1.
         21   -1    0    0  502  503 -0.00000000000E+00 -0.00000000000E+00 -0.58034915260E+03  0.58034915260E+03  0.00000000000E+00 0.  1.
          6    1    1    2  501    0 -0.12053807491E+03 -0.34821345532E+02 -0.16742308737E+03  0.27084394731E+03  0.17200000000E+03 0. -1.
         -6    1    1    2    0  503  0.12053807491E+03  0.34821345532E+02 -0.32984520913E+03  0.39258606139E+03  0.17200000000E+03 0.  1.
</event>
<event>
 4    1  0.1181383E+000  0.2453316E+03  0.7818608E-02  0.1116291E+00
         21   -1    0    0  501  502  0.00000000000E+00  0.00000000000E+00  0.26075136737E+03  0.26075136737E+03  0.00000000000E+00 0.  1.
         21   -1    0    0  502  503 -0.00000000000E+00 -0.00000000000E+00 -0.68902086605E+03  0.68902086605E+03  0.00000000000E+00 0.  1.
          6    1    1    2  501    0  0.17485583276E+03  0.53877677972E+01  0.17312244507E+03  0.30026483524E+03  0.17200000000E+03 0.  1.
         -6    1    1    2    0  503 -0.17485583276E+03 -0.53877677972E+01 -0.60139194375E+03  0.64950739819E+03  0.17200000000E+03 0.  1.
</event>
<event>
 4    1  0.1181383E+000  0.1763487E+03  0.7818608E-02  0.1171384E+00
         21   -1    0    0  503  502  0.00000000000E+00  0.00000000000E+00  0.35092305172E+04  0.35092305172E+04  0.00000000000E+00 0. -1.
         21   -1    0    0  501  503 -0.00000000000E+00 -0.00000000000E+00 -0.88631260477E+01  0.88631260477E+01  0.00000000000E+00 0. -1.
          6    1    1    2  501    0  0.37129397274E+02  0.11672900622E+02  0.17304770084E+04  0.17394394284E+04  0.17200000000E+03 0.  1.
         -6    1    1    2    0  502 -0.37129397274E+02 -0.11672900622E+02  0.17698903828E+04  0.17786542148E+04  0.17200000000E+03 0.  1.
</event>
<event>
 4    1  0.1181383E+000  0.1961368E+03  0.7818608E-02  0.1153040E+00
         21   -1    0    0  501  502  0.00000000000E+00  0.00000000000E+00  0.31749585175E+03  0.31749585175E+03  0.00000000000E+00 0.  1.
         21   -1    0    0  502  503 -0.00000000000E+00 -0.00000000000E+00 -0.16652103937E+03  0.16652103937E+03  0.00000000000E+00 0.  1.
          6    1    1    2  501    0  0.73659625871E+02  0.58820920187E+02  0.20178924204E+03  0.28140458301E+03  0.17200000000E+03 0.  1.
         -6    1    1    2    0  503 -0.73659625871E+02 -0.58820920187E+02 -0.50814429661E+02  0.20261230811E+03  0.17200000000E+03 0.  1.
</event>
<event>
 4    1  0.1181383E+000  0.1785537E+03  0.7818608E-02  0.1169210E+00
         21   -1    0    0  503  502  0.00000000000E+00  0.00000000000E+00  0.29003059390E+03  0.29003059390E+03  0.00000000000E+00 0.  1.
         21   -1    0    0  501  503 -0.00000000000E+00 -0.00000000000E+00 -0.18362998885E+03  0.18362998885E+03  0.00000000000E+00 0. -1.
          6    1    1    2  501    0  0.85317286440E+01 -0.47166005154E+02 -0.96842726817E+02  0.20312541981E+03  0.17200000000E+03 0. -1.
         -6    1    1    2    0  502 -0.85317286440E+01  0.47166005154E+02  0.20324333187E+03  0.27053516294E+03  0.17200000000E+03 0.  1.
</event>
<event>
 4    1  0.1181383E+000  0.1783145E+03  0.7818608E-02  0.1169444E+00
         21   -1    0    0  501  502  0.00000000000E+00  0.00000000000E+00  0.34630565176E+03  0.34630565176E+03  0.00000000000E+00 0. -1.
         21   -1    0    0  502  503 -0.00000000000E+00 -0.00000000000E+00 -0.12591384132E+03  0.12591384132E+03  0.00000000000E+00 0. -1.
          6    1    1    2  501    0 -0.79599354500E+01 -0.46354205617E+02  0.23306612357E+03  0.29345509180E+03  0.17200000000E+03 0. -1.
         -6    1    1    2    0  503  0.79599354500E+01  0.46354205617E+02 -0.12674313126E+02  0.17876440128E+03  0.17200000000E+03 0. -1.
</event>
<event>
 4    1  0.1181383E+000  0.2184587E+03  0.7818608E-02  0.1135037E+00
         21   -1    0    0  501  502  0.00000000000E+00  0.00000000000E+00  0.16243526359E+04  0.16243526359E+04  0.00000000000E+00 0. -1.
         21   -1    0    0  502  503 -0.00000000000E+00 -0.00000000000E+00 -0.53705443662E+02  0.53705443662E+02  0.00000000000E+00 0. -1.
          6    1    1    2  501    0 -0.13263637191E+03  0.23404913269E+02  0.13499930365E+04  0.13675545312E+04  0.17200000000E+03 0. -1.
         -6    1    1    2    0  503  0.13263637191E+03 -0.23404913269E+02  0.22065415571E+03  0.31050354837E+03  0.17200000000E+03 0. -1.
</event>
<event>
 4    1  0.1181383E+000  0.1863172E+03  0.7818608E-02  0.1161826E+00
         21   -1    0    0  501  502  0.00000000000E+00  0.00000000000E+00  0.95992188192E+02  0.95992188192E+02  0.00000000000E+00 0. -1.
         21   -1    0    0  502  503 -0.00000000000E+00 -0.00000000000E+00 -0.53500570818E+03  0.53500570818E+03  0.00000000000E+00 0. -1.
          6    1    1    2  501    0  0.48765949862E+02  0.52459187131E+02 -0.39906387833E+02  0.19054291897E+03  0.17200000000E+03 0. -1.
         -6    1    1    2    0  503 -0.48765949862E+02 -0.52459187131E+02 -0.39910713215E+03  0.44045497740E+03  0.17200000000E+03 0. -1.
</event>
<event>
 4    1  0.1181383E+000  0.1741885E+03  0.7818608E-02  0.1173549E+00
         21   -1    0    0  503  502  0.00000000000E+00  0.00000000000E+00  0.47063030118E+03  0.47063030118E+03  0.00000000000E+00 0.  1.
         21   -1    0    0  501  503 -0.00000000000E+00 -0.00000000000E+00 -0.14746841850E+03  0.14746841850E+03  0.00000000000E+00 0.  1.
          6    1    1    2  501    0 -0.27431892712E+02  0.22633903215E+01 -0.70272054008E+02  0.18782915974E+03  0.17200000000E+03 0.  1.
         -6    1    1    2    0  502  0.27431892712E+02 -0.22633903215E+01  0.39343393669E+03  0.43026955994E+03  0.17200000000E+03 0.  1.
</event>
<event>
 4    1  0.1181383E+000  0.1722406E+03  0.7818608E-02  0.1175531E+00
         21   -1    0    0  503  502  0.00000000000E+00  0.00000000000E+00  0.97947482183E+02  0.97947482183E+02  0.00000000000E+00 0.  1.
         21   -1    0    0  501  503 -0.00000000000E+00 -0.00000000000E+00 -0.42957285404E+03  0.42957285404E+03  0.00000000000E+00 0.  1.
          6    1    1    2  501    0 -0.96098101520E+00 -0.90500269256E+01 -0.30905067916E+03  0.35380665449E+03  0.17200000000E+03 0.  1.
         -6    1    1    2    0  502  0.96098101520E+00  0.90500269256E+01 -0.22574692702E+02  0.17371368174E+03  0.17200000000E+03 0.  1.
</event>
<event>
 4    1  0.1181383E+000  0.1915918E+03  0.7818608E-02  0.1157033E+00
         21   -1    0    0  501  502  0.00000000000E+00  0.00000000000E+00  0.44369395509E+03  0.44369395509E+03  0.00000000000E+00 0. -1.
         21   -1    0    0  502  503 -0.00000000000E+00 -0.00000000000E+00 -0.12810839277E+03  0.12810839277E+03  0.00000000000E+00 0. -1.
          6    1    1    2  501    0  0.10287387159E+02 -0.83771060898E+02  0.32794789840E+03  0.37981211808E+03  0.17200000000E+03 0. -1.
         -6    1    1    2    0  503 -0.10287387159E+02  0.83771060898E+02 -0.12362336077E+02  0.19199022978E+03  0.17200000000E+03 0. -1.
</event>
<event>
 4    1  0.1181383E+000  0.2917615E+03  0.7818608E-02  0.1089433E+00
         21   -1    0    0  501  502  0.00000000000E+00  0.00000000000E+00  0.24332799203E+03  0.24332799203E+03  0.00000000000E+00 0. -1.
         21   -1    0    0  502  503 -0.00000000000E+00 -0.00000000000E+00 -0.43547574048E+03  0.43547574048E+03  0.00000000000E+00 0.  1.
          6    1    1    2  501    0  0.18707332973E+03 -0.14333294279E+03  0.54438168659E+02  0.29679669370E+03  0.17200000000E+03 0. -1.
         -6    1    1    2    0  503 -0.18707332973E+03  0.14333294279E+03 -0.24658591712E+03  0.38200703881E+03  0.17200000000E+03 0.  1.
</event>
<event>
 4    1  0.1181383E+000  0.2438798E+03  0.7818608E-02  0.1117235E+00
         21   -1    0    0  503  502  0.00000000000E+00  0.00000000000E+00  0.10753009427E+04  0.10753009427E+04  0.00000000000E+00 0. -1.
         21   -1    0    0  501  503 -0.00000000000E+00 -0.00000000000E+00 -0.85655955867E+02  0.85655955867E+02  0.00000000000E+00 0. -1.
          6    1    1    2  501    0 -0.37579043924E+02 -0.16876368679E+03  0.14932787888E+03  0.28596535093E+03  0.17200000000E+03 0. -1.
         -6    1    1    2    0  502  0.37579043924E+02  0.16876368679E+03  0.84031710794E+03  0.87499154763E+03  0.17200000000E+03 0. -1.
</event>
<event>
 4    1  0.1181383E+000  0.1835717E+03  0.7818608E-02  0.1164390E+00
         21   -1    0    0  501  502  0.00000000000E+00  0.00000000000E+00  0.19443918022E+03  0.19443918022E+03  0.00000000000E+00 0. -1.
         21   -1    0    0  502  503 -0.00000000000E+00 -0.00000000000E+00 -0.18255940164E+03  0.18255940164E+03  0.00000000000E+00 0. -1.
          6    1    1    2  501    0 -0.59271658513E+02  0.24524435847E+02  0.48365237865E+02  0.18983617593E+03  0.17200000000E+03 0. -1.
         -6    1    1    2    0  503  0.59271658513E+02 -0.24524435847E+02 -0.36485459283E+02  0.18716240594E+03  0.17200000000E+03 0. -1.
</event>
<event>
 4    1  0.1181383E+000  0.1871788E+03  0.7818608E-02  0.1161031E+00
         21   -1    0    0  503  502  0.00000000000E+00  0.00000000000E+00  0.13824884419E+03  0.13824884419E+03  0.00000000000E+00 0.  1.
         21   -1    0    0  501  503 -0.00000000000E+00 -0.00000000000E+00 -0.35136990309E+03  0.35136990309E+03  0.00000000000E+00 0.  1.
          6    1    1    2  501    0  0.70316954600E+02  0.22525798922E+02 -0.23581153167E+03  0.30106969988E+03  0.17200000000E+03 0.  1.
         -6    1    1    2    0  502 -0.70316954600E+02 -0.22525798922E+02  0.22690472770E+02  0.18854904740E+03  0.17200000000E+03 0.  1.
</event>
<event>
 4    1  0.1181383E+000  0.2131984E+03  0.7818608E-02  0.1139058E+00
         21   -1    0    0  501  502  0.00000000000E+00  0.00000000000E+00  0.31244645027E+03  0.31244645027E+03  0.00000000000E+00 0. -1.
         21   -1    0    0  502  503 -0.00000000000E+00 -0.00000000000E+00 -0.16651174777E+03  0.16651174777E+03  0.00000000000E+00 0.  1.
          6    1    1    2  501    0 -0.90929623884E+02  0.87185874180E+02  0.15808515477E+03  0.26541380770E+03  0.17200000000E+03 0.  1.
         -6    1    1    2    0  503  0.90929623884E+02 -0.87185874180E+02 -0.12150452273E+02  0.21354439034E+03  0.17200000000E+03 0.  1.
</event>
<event>
 4    1  0.1181383E+000  0.1760401E+03  0.7818608E-02  0.1171691E+00
         21   -1    0    0  501  502  0.00000000000E+00  0.00000000000E+00  0.99040063938E+02  0.99040063938E+02  0.00000000000E+00 0. -1.
         21   -1    0    0  502  503 -0.00000000000E+00 -0.00000000000E+00 -0.52462917648E+03  0.52462917648E+03  0.00000000000E+00 0.  1.
          6    1    1    2  501    0  0.34453723095E+02  0.14800675776E+02 -0.14695018707E+02  0.17665237789E+03  0.17200000000E+03 0. -1.
         -6    1    1    2    0  503 -0.34453723095E+02 -0.14800675776E+02 -0.41089409384E+03  0.44701686253E+03  0.17200000000E+03 0.  1.
</event>
<event>
 4    1  0.1181383E+000  0.2135257E+03  0.7818608E-02  0.1138804E+00
         21   -1    0    0  503  502  0.00000000000E+00  0.00000000000E+00  0.53643630860E+03  0.53643630860E+03  0.00000000000E+00 0.  1.
         21   -1    0    0  501  503 -0.00000000000E+00 -0.00000000000E+00 -0.16591321113E+03  0.16591321113E+03  0.00000000000E+00 0. -1.
          6    1    1    2  501    0 -0.10698032881E+03  0.67560638610E+02 -0.59990032554E+02  0.22179277411E+03  0.17200000000E+03 0. -1.
         -6    1    1    2    0  502  0.10698032881E+03 -0.67560638610E+02  0.43051313002E+03  0.48055674562E+03  0.17200000000E+03 0.  1.
</event>
<event>
 4    1  0.1181383E+000  0.1770931E+03  0.7818608E-02  0.1170646E+00
         21   -1    0    0  501  502  0.00000000000E+00  0.00000000000E+00  0.16427664957E+03  0.16427664957E+03  0.00000000000E+00 0. -1.
         21   -1    0    0  502  503 -0.00000000000E+00 -0.00000000000E+00 -0.43889446640E+03  0.43889446640E+03  0.00000000000E+00 0. -1.
          6    1    1    2  501    0  0.20156124257E+02  0.37036207620E+02  0.89386794162E+02  0.19837325674E+03  0.17200000000E+03 0. -1.
         -6    1    1    2    0  503 -0.20156124257E+02 -0.37036207620E+02 -0.36400461099E+03  0.40479785923E+03  0.17200000000E+03 0. -1.
</event>
<event>
 4    1  0.1181383E+000  0.1964315E+03  0.7818608E-02  0.1152785E+00
         21   -1    0    0  503  502  0.00000000000E+00  0.00000000000E+00  0.78778703325E+02  0.78778703325E+02  0.00000000000E+00 0. -1.
         21   -1    0    0  501  503 -0.00000000000E+00 -0.00000000000E+00 -0.66403696695E+03  0.66403696695E+03  0.00000000000E+00 0. -1.
          6    1    1    2  501    0  0.45624686707E+02 -0.83184757273E+02 -0.48288273174E+03  0.52130705778E+03  0.17200000000E+03 0.  1.
         -6    1    1    2    0  502 -0.45624686707E+02  0.83184757273E+02 -0.10237553188E+03  0.22150861249E+03  0.17200000000E+03 0.  1.
</event>
<event>
 4    1  0.1181383E+000  0.2333441E+03  0.7818608E-02  0.1124308E+00
         21   -1    0    0  503  502  0.00000000000E+00  0.00000000000E+00  0.13128887590E+03  0.13128887590E+03  0.00000000000E+00 0.  1.
         21   -1    0    0  501  503 -0.00000000000E+00 -0.00000000000E+00 -0.43623370053E+03  0.43623370053E+03  0.00000000000E+00 0.  1.
          6    1    1    2  501    0 -0.81805083712E+02 -0.13480882035E+03 -0.21547319839E+03  0.31761326954E+03  0.17200000000E+03 0.  1.
         -6    1    1    2    0  502  0.81805083712E+02  0.13480882035E+03 -0.89471626243E+02  0.24990930689E+03  0.17200000000E+03 0.  1.
</event>
<event>
 4    1  0.1181383E+000  0.1866527E+03  0.7818608E-02  0.1161516E+00
         21   -1    0    0  501  502  0.00000000000E+00  0.00000000000E+00  0.15166721799E+04  0.15166721799E+04  0.00000000000E+00 0.  1.
         21   -1    0    0  502  503 -0.00000000000E+00 -0.00000000000E+00 -0.23336487246E+02  0.23336487246E+02  0.00000000000E+00 0.  1.
          6    1    1    2  501    0 -0.71642829044E+02  0.11069046666E+02  0.65028216000E+03  0.67653980397E+03  0.17200000000E+03 0.  1.
         -6    1    1    2    0  503  0.71642829044E+02 -0.11069046666E+02  0.84305353267E+03  0.86346886319E+03  0.17200000000E+03 0.  1.
</event>
<event>
 4    1  0.1181383E+000  0.1809355E+03  0.7818608E-02  0.1166901E+00
         21   -1    0    0  501  502  0.00000000000E+00  0.00000000000E+00  0.22643506876E+04  0.22643506876E+04  0.00000000000E+00 0.  1.
         21   -1    0    0  502  503 -0.00000000000E+00 -0.00000000000E+00 -0.21683075383E+02  0.21683075383E+02  0.00000000000E+00 0.  1.
          6    1    1    2  501    0 -0.47854922651E+02  0.29386207519E+02  0.46152531333E+03  0.49572498187E+03  0.17200000000E+03 0.  1.
         -6    1    1    2    0  503  0.47854922651E+02 -0.29386207519E+02  0.17811422989E+04  0.17903087811E+04  0.17200000000E+03 0.  1.
</event>
<event>
 4    1  0.1181383E+000  0.1809317E+03  0.7818608E-02  0.1166904E+00
         21   -1    0    0  503  502  0.00000000000E+00  0.00000000000E+00  0.35920999814E+02  0.35920999814E+02  0.00000000000E+00 0. -1.
         21   -1    0    0  501  503 -0.00000000000E+00 -0.00000000000E+00 -0.95172909224E+03  0.95172909224E+03  0.00000000000E+00 0. -1.
          6    1    1    2  501    0  0.27558954060E+02  0.48916083551E+02 -0.55963268114E+03  0.58815390586E+03  0.17200000000E+03 0. -1.
         -6    1    1    2    0  502 -0.27558954060E+02 -0.48916083551E+02 -0.35617541128E+03  0.39949618619E+03  0.17200000000E+03 0. -1.
</event>
<event>
 4    1  0.1181383E+000  0.1801507E+03  0.7818608E-02  0.1167657E+00
         21   -1    0    0  501  502  0.00000000000E+00  0.00000000000E+00  0.10968957000E+02  0.10968957000E+02  0.00000000000E+00 0. -1.
         21   -1    0    0  502  503 -0.00000000000E+00 -0.00000000000E+00 -0.41744507153E+04  0.41744507153E+04  0.00000000000E+00 0. -1.
          6    1    1    2  501    0  0.91863497139E+01  0.52781554715E+02 -0.95240107191E+03  0.96928947344E+03  0.17200000000E+03 0. -1.
         -6    1    1    2    0  503 -0.91863497139E+01 -0.52781554715E+02 -0.32110806864E+04  0.32161301989E+04  0.17200000000E+03 0. -1.
</event>
<event>
 4    1  0.1181383E+000  0.1877707E+03  0.7818608E-02  0.1160488E+00
         21   -1    0    0  503  502  0.00000000000E+00  0.00000000000E+00  0.35415946219E+03  0.35415946219E+03  0.00000000000E+00 0. -1.
         21   -1    0    0  501  503 -0.00000000000E+00 -0.00000000000E+00 -0.99947754334E+02  0.99947754334E+02  0.00000000000E+00 0.  1.
          6    1    1    2  501    0 -0.17903637251E+02  0.73166249273E+02  0.14136486195E+03  0.23503587908E+03  0.17200000000E+03 0.  1.
         -6    1    1    2    0  502  0.17903637251E+02 -0.73166249273E+02  0.11284684591E+03  0.21907133745E+03  0.17200000000E+03 0. -1.
</event>
<event>
 4    1  0.1181383E+000  0.1851260E+03  0.7818608E-02  0.1162932E+00
         21   -1    0    0  503  502  0.00000000000E+00  0.00000000000E+00  0.13921788725E+04  0.13921788725E+04  0.00000000000E+00 0.  1.
         21   -1    0    0  501  503 -0.00000000000E+00 -0.00000000000E+00 -0.26014652092E+02  0.26014652092E+02  0.00000000000E+00 0.  1.
          6    1    1    2  501    0 -0.64572058042E+02 -0.22761448736E+02  0.51873764648E+03  0.55078160836E+03  0.17200000000E+03 0.  1.
         -6    1    1    2    0  502  0.64572058042E+02  0.22761448736E+02  0.84742657390E+03  0.86741191621E+03  0.17200000000E+03 0.  1.
</event>
<event>
 4    1  0.1181383E+000  0.1721194E+03  0.7818608E-02  0.1175656E+00
         21   -1    0    0  503  502  0.00000000000E+00  0.00000000000E+00  0.41391787358E+03  0.41391787358E+03  0.00000000000E+00 0. -1.
         21   -1    0    0  501  503 -0.00000000000E+00 -0.00000000000E+00 -0.81276865898E+02  0.81276865898E+02  0.00000000000E+00 0. -1.
          6    1    1    2  501    0 -0.57587808378E+01 -0.28123833840E+01  0.25187633035E+03  0.30506844944E+03  0.17200000000E+03 0. -1.
         -6    1    1    2    0  502  0.57587808378E+01  0.28123833840E+01  0.80764677336E+02  0.19012629003E+03  0.17200000000E+03 0. -1.
</event>
<event>
 4    1  0.1181383E+000  0.2106989E+03  0.7818608E-02  0.1141014E+00
         21   -1    0    0  501  502  0.00000000000E+00  0.00000000000E+00  0.29822134033E+03  0.29822134033E+03  0.00000000000E+00 0.  1.
         21   -1    0    0  502  503 -0.00000000000E+00 -0.00000000000E+00 -0.16527237880E+03  0.16527237880E+03  0.00000000000E+00 0. -1.
          6    1    1    2  501    0  0.12016648823E+03 -0.19236102174E+02  0.13949832773E+03  0.25269308649E+03  0.17200000000E+03 0.  1.
         -6    1    1    2    0  503 -0.12016648823E+03  0.19236102174E+02 -0.65493662096E+01  0.21080063263E+03  0.17200000000E+03 0.  1.
</event>
<event>
 4    1  0.1181383E+000  0.1752049E+03  0.7818608E-02  0.1172526E+00
         21   -1    0    0  503  502  0.00000000000E+00  0.00000000000E+00  0.45764863796E+03  0.45764863796E+03  0.00000000000E+00 0.  1.
         21   -1    0    0  501  503 -0.00000000000E+00 -0.00000000000E+00 -0.69223622961E+02  0.69223622961E+02  0.00000000000E+00 0.  1.
          6    1    1    2  501    0  0.25551011813E+02 -0.21445190901E+02  0.14779996683E+03  0.22921950313E+03  0.17200000000E+03 0. -1.
         -6    1    1    2    0  502 -0.25551011813E+02  0.21445190901E+02  0.24062504816E+03  0.29765275779E+03  0.17200000000E+03 0. -1.
</event>
<event>
 4    1  0.1181383E+000  0.1748498E+03  0.7818608E-02  0.1172883E+00
         21   -1    0    0  503  502  0.00000000000E+00  0.00000000000E+00  0.12742794909E+03  0.12742794909E+03  0.00000000000E+00 0. -1.
         21   -1    0    0  501  503 -0.00000000000E+00 -0.00000000000E+00 -0.26270644148E+03  0.26270644148E+03  0.00000000000E+00 0. -1.
          6    1    1    2  501    0 -0.30878636781E+02  0.59136869609E+01 -0.12508937339E+03  0.21498793742E+03  0.17200000000E+03 0. -1.
         -6    1    1    2    0  502  0.30878636781E+02 -0.59136869609E+01 -0.10189119004E+02  0.17514645314E+03  0.17200000000E+03 0. -1.
</event>
<event>
 4    1  0.1181383E+000  0.1858968E+03  0.7818608E-02  0.1162215E+00
         21   -1    0    0  503  502  0.00000000000E+00  0.00000000000E+00  0.67784413131E+02  0.67784413131E+02  0.00000000000E+00 0.  1.
         21   -1    0    0  501  503 -0.00000000000E+00 -0.00000000000E+00 -0.51768964690E+03  0.51768964690E+03  0.00000000000E+00 0. -1.
          6    1    1    2  501    0 -0.41008893575E+02  0.57375087352E+02 -0.26105283949E+03  0.32047810379E+03  0.17200000000E+03 0. -1.
         -6    1    1    2    0  502  0.41008893575E+02 -0.57375087352E+02 -0.18885239428E+03  0.26499595624E+03  0.17200000000E+03 0.  1.
</event>
<event>
 4    1  0.1181383E+000  0.4288174E+03  0.7818608E-02  0.1034234E+00
         21   -1    0    0  503  502  0.00000000000E+00  0.00000000000E+00  0.12797635864E+04  0.12797635864E+04  0.00000000000E+00 0. -1.
         21   -1    0    0  501  503 -0.00000000000E+00 -0.00000000000E+00 -0.14889481418E+03  0.14889481418E+03  0.00000000000E+00 0.  1.
          6    1    1    2  501    0  0.23855273725E+03 -0.31207842613E+03  0.43183016730E+03  0.60857345152E+03  0.17200000000E+03 0.  1.
         -6    1    1    2    0  502 -0.23855273725E+03  0.31207842613E+03  0.69903860489E+03  0.82008494903E+03  0.17200000000E+03 0.  1.
</event>
<event>
 4    1  0.1181383E+000  0.1782558E+03  0.7818608E-02  0.1169502E+00
         21   -1    0    0  503  502  0.00000000000E+00  0.00000000000E+00  0.78672672255E+03  0.78672672255E+03  0.00000000000E+00 0.  1.
         21   -1    0    0  501  503 -0.00000000000E+00 -0.00000000000E+00 -0.71730515165E+02  0.71730515165E+02  0.00000000000E+00 0.  1.
          6    1    1    2  501    0 -0.30899353604E+02 -0.35161704498E+02  0.64122244902E+03  0.66553838706E+03  0.17200000000E+03 0.  1.
         -6    1    1    2    0  502  0.30899353604E+02  0.35161704498E+02  0.73773758363E+02  0.19291885066E+03  0.17200000000E+03 0.  1.
</event>
<event>
 4    1  0.1181383E+000  0.1831380E+03  0.7818608E-02  0.1164800E+00
         21   -1    0    0  501  502  0.00000000000E+00  0.00000000000E+00  0.83244666305E+02  0.83244666305E+02  0.00000000000E+00 0.  1.
         21   -1    0    0  502  503 -0.00000000000E+00 -0.00000000000E+00 -0.41238674494E+03  0.41238674494E+03  0.00000000000E+00 0.  1.
          6    1    1    2  501    0  0.30623764062E+02  0.54933541541E+02 -0.12698980390E+03  0.22285851836E+03  0.17200000000E+03 0.  1.
         -6    1    1    2    0  503 -0.30623764062E+02 -0.54933541541E+02 -0.20215227473E+03  0.27277289288E+03  0.17200000000E+03 0.  1.
</event>
<event>
 4    1  0.1181383E+000  0.1722754E+03  0.7818608E-02  0.1175495E+00
         21   -1    0    0  501  502  0.00000000000E+00  0.00000000000E+00  0.62745616483E+03  0.62745616483E+03  0.00000000000E+00 0.  1.
         21   -1    0    0  502  503 -0.00000000000E+00 -0.00000000000E+00 -0.19291018109E+03  0.19291018109E+03  0.00000000000E+00 0.  1.
          6    1    1    2  501    0  0.95533190558E+01  0.18876340558E+01  0.57363859153E+03  0.59894913203E+03  0.17200000000E+03 0.  1.
         -6    1    1    2    0  503 -0.95533190558E+01 -0.18876340558E+01 -0.13909260779E+03  0.22141721390E+03  0.17200000000E+03 0.  1.
</event>
<event>
 4    1  0.1181383E+000  0.2009610E+03  0.7818608E-02  0.1148931E+00
         21   -1    0    0  503  502  0.00000000000E+00  0.00000000000E+00  0.10767974565E+04  0.10767974565E+04  0.00000000000E+00 0.  1.
         21   -1    0    0  501  503 -0.00000000000E+00 -0.00000000000E+00 -0.56145850159E+02  0.56145850159E+02  0.00000000000E+00 0. -1.
          6    1    1    2  501    0  0.80383140768E+02  0.65877671715E+02  0.18392448628E+03  0.27242161002E+03  0.17200000000E+03 0. -1.
         -6    1    1    2    0  502 -0.80383140768E+02 -0.65877671715E+02  0.83672712004E+03  0.86052169662E+03  0.17200000000E+03 0.  1.
</event>
<event>
 4    1  0.1181383E+000  0.1733002E+03  0.7818608E-02  0.1174449E+00
         21   -1    0    0  501  502  0.00000000000E+00  0.00000000000E+00  0.22091437438E+03  0.22091437438E+03  0.00000000000E+00 0.  1.
         21   -1    0    0  502  503 -0.00000000000E+00 -0.00000000000E+00 -0.19801769783E+03  0.19801769783E+03  0.00000000000E+00 0.  1.
          6    1    1    2  501    0  0.49658846755E+01  0.20598906786E+02  0.12872179386E+03  0.21587560118E+03  0.17200000000E+03 0.  1.
         -6    1    1    2    0  503 -0.49658846755E+01 -0.20598906786E+02 -0.10582511731E+03  0.20305647103E+03  0.17200000000E+03 0.  1.
</event>
<event>
 4    1  0.1181383E+000  0.1782892E+03  0.7818608E-02  0.1169469E+00
         21   -1    0    0  503  502  0.00000000000E+00  0.00000000000E+00  0.84458072200E+02  0.84458072200E+02  0.00000000000E+00 0.  1.
         21   -1    0    0  501  503 -0.00000000000E+00 -0.00000000000E+00 -0.40326463573E+03  0.40326463573E+03  0.00000000000E+00 0.  1.
          6    1    1    2  501    0 -0.14544638493E+01  0.46914011596E+02 -0.22238626850E+03  0.28503103755E+03  0.17200000000E+03 0. -1.
         -6    1    1    2    0  502  0.14544638493E+01 -0.46914011596E+02 -0.96420295036E+02  0.20269167039E+03  0.17200000000E+03 0. -1.
</event>
<event>
 4    1  0.1181383E+000  0.1914678E+03  0.7818608E-02  0.1157144E+00
         21   -1    0    0  501  502  0.00000000000E+00  0.00000000000E+00  0.60526368842E+03  0.60526368842E+03  0.00000000000E+00 0.  1.
         21   -1    0    0  502  503 -0.00000000000E+00 -0.00000000000E+00 -0.63076614886E+02  0.63076614886E+02  0.00000000000E+00 0.  1.
          6    1    1    2  501    0  0.82592432975E+01 -0.83711999262E+02  0.33772926524E+03  0.38822798781E+03  0.17200000000E+03 0. -1.
         -6    1    1    2    0  503 -0.82592432975E+01  0.83711999262E+02  0.20445780830E+03  0.28011231550E+03  0.17200000000E+03 0. -1.
</event>
<event>
 4    1  0.1181383E+000  0.2125323E+03  0.7818608E-02  0.1139576E+00
         21   -1    0    0  501  502  0.00000000000E+00  0.00000000000E+00  0.47828500766E+03  0.47828500766E+03  0.00000000000E+00 0. -1.
         21   -1    0    0  502  503 -0.00000000000E+00 -0.00000000000E+00 -0.10605094187E+03  0.10605094187E+03  0.00000000000E+00 0.  1.
          6    1    1    2  501    0 -0.12460700067E+03 -0.76868509333E+01  0.89449752450E+02  0.23058892104E+03  0.17200000000E+03 0. -1.
         -6    1    1    2    0  503  0.12460700067E+03  0.76868509333E+01  0.28278431334E+03  0.35374702849E+03  0.17200000000E+03 0.  1.
</event>
<event>
 4    1  0.1181383E+000  0.1963333E+03  0.7818608E-02  0.1152870E+00
         21   -1    0    0  503  502  0.00000000000E+00  0.00000000000E+00  0.26284116750E+03  0.26284116750E+03  0.00000000000E+00 0. -1.
         21   -1    0    0  501  503 -0.00000000000E+00 -0.00000000000E+00 -0.14882889797E+03  0.14882889797E+03  0.00000000000E+00 0. -1.
          6    1    1    2  501    0 -0.69313132346E+02  0.64486004042E+02  0.81887686227E+02  0.21272599321E+03  0.17200000000E+03 0. -1.
         -6    1    1    2    0  502  0.69313132346E+02 -0.64486004042E+02  0.32124583299E+02  0.19894407225E+03  0.17200000000E+03 0. -1.
</event>
<event>
 4    1  0.1181383E+000  0.2979432E+03  0.7818608E-02  0.1086273E+00
         21   -1    0    0  503  502  0.00000000000E+00  0.00000000000E+00  0.60373350849E+03  0.60373350849E+03  0.00000000000E+00 0.  1.
         21   -1    0    0  501  503 -0.00000000000E+00 -0.00000000000E+00 -0.21071871299E+03  0.21071871299E+03  0.00000000000E+00 0. -1.
          6    1    1    2  501    0 -0.24256382067E+03 -0.18679648517E+02 -0.27363291258E+02  0.29919706896E+03  0.17200000000E+03 0. -1.
         -6    1    1    2    0  502  0.24256382067E+03  0.18679648517E+02  0.42037808675E+03  0.51525515251E+03  0.17200000000E+03 0.  1.
</event>
<event>
 4    1  0.1181383E+000  0.1793316E+03  0.7818608E-02  0.1168452E+00
         21   -1    0    0  503  502  0.00000000000E+00  0.00000000000E+00  0.86857557101E+03  0.86857557101E+03  0.00000000000E+00 0. -1.
         21   -1    0    0  501  503 -0.00000000000E+00 -0.00000000000E+00 -0.61898189142E+02  0.61898189142E+02  0.00000000000E+00 0. -1.
          6    1    1    2  501    0  0.32661973277E+02  0.38845954779E+02  0.10842642505E+03  0.20956169104E+03  0.17200000000E+03 0. -1.
         -6    1    1    2    0  502 -0.32661973277E+02 -0.38845954779E+02  0.69825095681E+03  0.72091206911E+03  0.17200000000E+03 0. -1.
</event>
<event>
 4    1  0.1181383E+000  0.1839741E+03  0.7818608E-02  0.1164011E+00
         21   -1    0    0  501  502  0.00000000000E+00  0.00000000000E+00  0.61599612826E+03  0.61599612826E+03  0.00000000000E+00 0.  1.
         21   -1    0    0  502  503 -0.00000000000E+00 -0.00000000000E+00 -0.76882566482E+02  0.76882566482E+02  0.00000000000E+00 0.  1.
          6    1    1    2  501    0 -0.64757788303E+02 -0.82994270271E+01  0.45461089849E+03  0.49042585644E+03  0.17200000000E+03 0.  1.
         -6    1    1    2    0  503  0.64757788303E+02  0.82994270271E+01  0.84502663284E+02  0.20245283830E+03  0.17200000000E+03 0.  1.
</event>
<event>
 4    1  0.1181383E+000  0.2487104E+03  0.7818608E-02  0.1114123E+00
         21   -1    0    0  501  502  0.00000000000E+00  0.00000000000E+00  0.10634939031E+04  0.10634939031E+04  0.00000000000E+00 0.  1.
         21   -1    0    0  502  503 -0.00000000000E+00 -0.00000000000E+00 -0.79894037255E+02  0.79894037255E+02  0.00000000000E+00 0.  1.
          6    1    1    2  501    0  0.26203760680E+02 -0.17772514865E+03  0.78995245308E+03  0.82817977738E+03  0.17200000000E+03 0.  1.
         -6    1    1    2    0  503 -0.26203760680E+02  0.17772514865E+03  0.19364741277E+03  0.31520816298E+03  0.17200000000E+03 0.  1.
</event>
<event>
 4    1  0.1181383E+000  0.3768158E+03  0.7818608E-02  0.1052117E+00
         21   -1    0    0  503  502  0.00000000000E+00  0.00000000000E+00  0.18646483826E+03  0.18646483826E+03  0.00000000000E+00 0. -1.
         21   -1    0    0  501  503 -0.00000000000E+00 -0.00000000000E+00 -0.76297020518E+03  0.76297020518E+03  0.00000000000E+00 0.  1.
          6    1    1    2  501    0  0.31432682385E+03 -0.11663966117E+03 -0.30919796287E+03  0.48743568088E+03  0.17200000000E+03 0.  1.
         -6    1    1    2    0  502 -0.31432682385E+03  0.11663966117E+03 -0.26730740404E+03  0.46199936256E+03  0.17200000000E+03 0. -1.
</event>
<event>
 4    1  0.1181383E+000  0.1807484E+03  0.7818608E-02  0.1167081E+00
         21   -1    0    0  503  502  0.00000000000E+00  0.00000000000E+00  0.11995445454E+03  0.11995445454E+03  0.00000000000E+00 0.  1.
         21   -1    0    0  501  503 -0.00000000000E+00 -0.00000000000E+00 -0.46643718337E+03  0.46643718337E+03  0.00000000000E+00 0.  1.
          6    1    1    2  501    0  0.55550437651E+02  0.38267011971E+00 -0.36236938242E+03  0.40494637530E+03  0.17200000000E+03 0.  1.
         -6    1    1    2    0  502 -0.55550437651E+02 -0.38267011971E+00  0.15886653595E+02  0.18144526261E+03  0.17200000000E+03 0.  1.
</event>
<event>
 4    1  0.1181383E+000  0.2237200E+03  0.7818608E-02  0.1131140E+00
         21   -1    0    0  501  502  0.00000000000E+00  0.00000000000E+00  0.16786471965E+03  0.16786471965E+03  0.00000000000E+00 0. -1.
         21   -1    0    0  502  503 -0.00000000000E+00 -0.00000000000E+00 -0.44148039300E+03  0.44148039300E+03  0.00000000000E+00 0. -1.
          6    1    1    2  501    0 -0.30028225377E+02 -0.13987475230E+03 -0.31040025621E+03  0.38262116997E+03  0.17200000000E+03 0. -1.
         -6    1    1    2    0  503  0.30028225377E+02  0.13987475230E+03  0.36784582859E+02  0.22672394269E+03  0.17200000000E+03 0. -1.
</event>
<event>
 4    1  0.1181383E+000  0.2048021E+03  0.7818608E-02  0.1145750E+00
         21   -1    0    0  501  502  0.00000000000E+00  0.00000000000E+00  0.24615369352E+03  0.24615369352E+03  0.00000000000E+00 0. -1.
         21   -1    0    0  502  503 -0.00000000000E+00 -0.00000000000E+00 -0.26003611136E+03  0.26003611136E+03  0.00000000000E+00 0. -1.
          6    1    1    2  501    0 -0.64805779326E+02 -0.90333307644E+02 -0.15553987097E+03  0.25717026843E+03  0.17200000000E+03 0. -1.
         -6    1    1    2    0  503  0.64805779326E+02  0.90333307644E+02  0.14165745313E+03  0.24901953645E+03  0.17200000000E+03 0. -1.
</event>
<event>
 4    1  0.1181383E+000  0.1726908E+03  0.7818608E-02  0.1175070E+00
         21   -1    0    0  503  502  0.00000000000E+00  0.00000000000E+00  0.12488921374E+02  0.12488921374E+02  0.00000000000E+00 0.  1.
         21   -1    0    0  501  503 -0.00000000000E+00 -0.00000000000E+00 -0.25485245560E+04  0.25485245560E+04  0.00000000000E+00 0.  1.
          6    1    1    2  501    0 -0.94243895013E+01  0.12219163652E+02 -0.15895035036E+04  0.15988569401E+04  0.17200000000E+03 0.  1.
         -6    1    1    2    0  502  0.94243895013E+01 -0.12219163652E+02 -0.94653213108E+03  0.96215653729E+03  0.17200000000E+03 0.  1.
</event>
<event>
 4    1  0.1181383E+000  0.2259327E+03  0.7818608E-02  0.1129536E+00
         21   -1    0    0  501  502  0.00000000000E+00  0.00000000000E+00  0.11318134994E+03  0.11318134994E+03  0.00000000000E+00 0. -1.
         21   -1    0    0  502  503 -0.00000000000E+00 -0.00000000000E+00 -0.48602984619E+03  0.48602984619E+03  0.00000000000E+00 0.  1.
          6    1    1    2  501    0  0.62043718641E+02 -0.13271077924E+03 -0.10599860105E+03  0.24956217136E+03  0.17200000000E+03 0. -1.
         -6    1    1    2    0  503 -0.62043718641E+02  0.13271077924E+03 -0.26684989520E+03  0.34964902476E+03  0.17200000000E+03 0.  1.
</event>
<event>
 4    1  0.1181383E+000  0.1931638E+03  0.7818608E-02  0.1155638E+00
         21   -1    0    0  501  502  0.00000000000E+00  0.00000000000E+00  0.15307609709E+03  0.15307609709E+03  0.00000000000E+00 0. -1.
         21   -1    0    0  502  503 -0.00000000000E+00 -0.00000000000E+00 -0.25076928881E+03  0.25076928881E+03  0.00000000000E+00 0.  1.
          6    1    1    2  501    0 -0.60478480205E+02  0.63801166501E+02 -0.15062889487E+02  0.19375016401E+03  0.17200000000E+03 0. -1.
         -6    1    1    2    0  503  0.60478480205E+02 -0.63801166501E+02 -0.82630302230E+02  0.21009522189E+03  0.17200000000E+03 0.  1.
</event>
<event>
 4    1  0.1181383E+000  0.1976508E+03  0.7818608E-02  0.1151736E+00
         21   -1    0    0  503  502  0.00000000000E+00  0.00000000000E+00  0.42747772381E+03  0.42747772381E+03  0.00000000000E+00 0. -1.
         21   -1    0    0  501  503 -0.00000000000E+00 -0.00000000000E+00 -0.92638009075E+02  0.92638009075E+02  0.00000000000E+00 0.  1.
          6    1    1    2  501    0  0.95398152877E+02 -0.19520416221E+02  0.13719759683E+03  0.24060140232E+03  0.17200000000E+03 0. -1.
         -6    1    1    2    0  502 -0.95398152877E+02  0.19520416221E+02  0.19764211790E+03  0.27951433056E+03  0.17200000000E+03 0. -1.
</event>
<event>
 4    1  0.1181383E+000  0.1762798E+03  0.7818608E-02  0.1171453E+00
         21   -1    0    0  501  502  0.00000000000E+00  0.00000000000E+00  0.20775459504E+04  0.20775459504E+04  0.00000000000E+00 0. -1.
         21   -1    0    0  502  503 -0.00000000000E+00 -0.00000000000E+00 -0.86698016464E+02  0.86698016464E+02  0.00000000000E+00 0. -1.
          6    1    1    2  501    0  0.11611122331E+02 -0.36820337459E+02  0.19797849271E+04  0.19876173960E+04  0.17200000000E+03 0. -1.
         -6    1    1    2    0  503 -0.11611122331E+02  0.36820337459E+02  0.11063006856E+02  0.17662657086E+03  0.17200000000E+03 0. -1.
</event>
<event>
 4    1  0.1181383E+000  0.1739110E+03  0.7818608E-02  0.1173830E+00
         21   -1    0    0  501  502  0.00000000000E+00  0.00000000000E+00  0.89582379532E+03  0.89582379532E+03  0.00000000000E+00 0.  1.
         21   -1    0    0  502  503 -0.00000000000E+00 -0.00000000000E+00 -0.34009087239E+02  0.34009087239E+02  0.00000000000E+00 0.  1.
          6    1    1    2  501    0  0.22490544735E+02 -0.12457929327E+02  0.39129915986E+03  0.42820562480E+03  0.17200000000E+03 0.  1.
         -6    1    1    2    0  503 -0.22490544735E+02  0.12457929327E+02  0.47051554822E+03  0.50162725776E+03  0.17200000000E+03 0.  1.
</event>
<event>
 4    1  0.1181383E+000  0.2344427E+03  0.7818608E-02  0.1123551E+00
         21   -1    0    0  501  502  0.00000000000E+00  0.00000000000E+00  0.88802262182E+02  0.88802262182E+02  0.00000000000E+00 0. -1.
         21   -1    0    0  502  503 -0.00000000000E+00 -0.00000000000E+00 -0.62051472973E+03  0.62051472973E+03  0.00000000000E+00 0.  1.
          6    1    1    2  501    0  0.10286622922E+03  0.12164664075E+03 -0.24799583856E+03  0.34127013092E+03  0.17200000000E+03 0. -1.
         -6    1    1    2    0  503 -0.10286622922E+03 -0.12164664075E+03 -0.28371662899E+03  0.36804686099E+03  0.17200000000E+03 0. -1.
</event>
<event>
 4    1  0.1181383E+000  0.2181597E+03  0.7818608E-02  0.1135263E+00
         21   -1    0    0  503  502  0.00000000000E+00  0.00000000000E+00  0.80562772693E+02  0.80562772693E+02  0.00000000000E+00 0. -1.
         21   -1    0    0  501  503 -0.00000000000E+00 -0.00000000000E+00 -0.68580226787E+03  0.68580226787E+03  0.00000000000E+00 0. -1.
          6    1    1    2  501    0  0.64365481204E+02 -0.11775703980E+03 -0.44526393405E+03  0.49583626991E+03  0.17200000000E+03 0. -1.
         -6    1    1    2    0  502 -0.64365481204E+02  0.11775703980E+03 -0.15997556113E+03  0.27052877066E+03  0.17200000000E+03 0. -1.
</event>
<event>
 4    1  0.1181383E+000  0.2007343E+03  0.7818608E-02  0.1149121E+00
         21   -1    0    0  501  502  0.00000000000E+00  0.00000000000E+00  0.15480370892E+03  0.15480370892E+03  0.00000000000E+00 0. -1.
         21   -1    0    0  502  503 -0.00000000000E+00 -0.00000000000E+00 -0.26132164075E+03  0.26132164075E+03  0.00000000000E+00 0. -1.
          6    1    1    2  501    0 -0.12971550241E+02  0.10267416251E+03 -0.66315965355E+02  0.21140494797E+03  0.17200000000E+03 0.  1.
         -6    1    1    2    0  503  0.12971550241E+02 -0.10267416251E+03 -0.40201966478E+02  0.20472040170E+03  0.17200000000E+03 0.  1.
</event>
<event>
 4    1  0.1181383E+000  0.1825785E+03  0.7818608E-02  0.1165331E+00
         21   -1    0    0  503  502  0.00000000000E+00  0.00000000000E+00  0.64390487337E+03  0.64390487337E+03  0.00000000000E+00 0.  1.
         21   -1    0    0  501  503 -0.00000000000E+00 -0.00000000000E+00 -0.52327497739E+02  0.52327497739E+02  0.00000000000E+00 0.  1.
          6    1    1    2  501    0 -0.49711540913E+02  0.35772429419E+02  0.25985417098E+03  0.31758320828E+03  0.17200000000E+03 0.  1.
         -6    1    1    2    0  502  0.49711540913E+02 -0.35772429419E+02  0.33172320464E+03  0.37864916282E+03  0.17200000000E+03 0.  1.
</event>
<event>
 4    1  0.1181383E+000  0.1742156E+03  0.7818608E-02  0.1173522E+00
         21   -1    0    0  503  502  0.00000000000E+00  0.00000000000E+00  0.13412036875E+03  0.13412036875E+03  0.00000000000E+00 0.  1.
         21   -1    0    0  501  503 -0.00000000000E+00 -0.00000000000E+00 -0.25619470892E+03  0.25619470892E+03  0.00000000000E+00 0.  1.
          6    1    1    2  501    0  0.74492648667E+01  0.26675355031E+02  0.56308622366E+01  0.17430654813E+03  0.17200000000E+03 0.  1.
         -6    1    1    2    0  502 -0.74492648667E+01 -0.26675355031E+02 -0.12770520240E+03  0.21600852954E+03  0.17200000000E+03 0.  1.
</event>
<event>
 4    1  0.1181383E+000  0.1793917E+03  0.7818608E-02  0.1168393E+00
         21   -1    0    0  501  502  0.00000000000E+00  0.00000000000E+00  0.55806491481E+03  0.55806491481E+03  0.00000000000E+00 0. -1.
         21   -1    0    0  502  503 -0.00000000000E+00 -0.00000000000E+00 -0.16612477465E+03  0.16612477465E+03  0.00000000000E+00 0.  1.
          6    1    1    2  501    0 -0.34284876716E+02 -0.37708311656E+02  0.48854525797E+03  0.52044004325E+03  0.17200000000E+03 0. -1.
         -6    1    1    2    0  503  0.34284876716E+02  0.37708311656E+02 -0.96605117808E+02  0.20374964620E+03  0.17200000000E+03 0.  1.
</event>
<event>
 4    1  0.1181383E+000  0.2376683E+03  0.7818608E-02  0.1121356E+00
         21   -1    0    0  503  502  0.00000000000E+00  0.00000000000E+00  0.33236875565E+03  0.33236875565E+03  0.00000000000E+00 0. -1.
         21   -1    0    0  501  503 -0.00000000000E+00 -0.00000000000E+00 -0.44605683444E+03  0.44605683444E+03  0.00000000000E+00 0.  1.
          6    1    1    2  501    0  0.10540215059E+03 -0.12566859465E+03 -0.36306171769E+03  0.43393550198E+03  0.17200000000E+03 0.  1.
         -6    1    1    2    0  502 -0.10540215059E+03  0.12566859465E+03  0.24937363890E+03  0.34449008811E+03  0.17200000000E+03 0. -1.
</event>
<event>
 4    1  0.1181383E+000  0.2879666E+03  0.7818608E-02  0.1091416E+00
         21   -1    0    0  501  502  0.00000000000E+00  0.00000000000E+00  0.16198544780E+04  0.16198544780E+04  0.00000000000E+00 0.  1.
         21   -1    0    0  502  503 -0.00000000000E+00 -0.00000000000E+00 -0.69891602394E+02  0.69891602394E+02  0.00000000000E+00 0. -1.
          6    1    1    2  501    0  0.20017428432E+03 -0.11519981730E+03  0.12119869187E+04  0.12457275116E+04  0.17200000000E+03 0.  1.
         -6    1    1    2    0  503 -0.20017428432E+03  0.11519981730E+03  0.33797595691E+03  0.44401856882E+03  0.17200000000E+03 0. -1.
</event>
<event>
 4    1  0.1181383E+000  0.2195854E+03  0.7818608E-02  0.1134193E+00
         21   -1    0    0  503  502  0.00000000000E+00  0.00000000000E+00  0.30994489930E+03  0.30994489930E+03  0.00000000000E+00 0. -1.
         21   -1    0    0  501  503 -0.00000000000E+00 -0.00000000000E+00 -0.17008228727E+03  0.17008228727E+03  0.00000000000E+00 0. -1.
          6    1    1    2  501    0  0.14490922348E+02  0.13573415273E+03 -0.18073625674E+00  0.21958547246E+03  0.17200000000E+03 0. -1.
         -6    1    1    2    0  502 -0.14490922348E+02 -0.13573415273E+03  0.14004334829E+03  0.26044171411E+03  0.17200000000E+03 0. -1.
</event>
<event>
 4    1  0.1181383E+000  0.2087134E+03  0.7818608E-02  0.1142589E+00
         21   -1    0    0  501  502  0.00000000000E+00  0.00000000000E+00  0.30024550802E+03  0.30024550802E+03  0.00000000000E+00 0.  1.
         21   -1    0    0  502  503 -0.00000000000E+00 -0.00000000000E+00 -0.37992614684E+03  0.37992614684E+03  0.00000000000E+00 0.  1.
          6    1    1    2  501    0 -0.10544622279E+03 -0.53463717698E+02  0.22753761239E+03  0.30876308079E+03  0.17200000000E+03 0.  1.
         -6    1    1    2    0  503  0.10544622279E+03  0.53463717698E+02 -0.30721825121E+03  0.37140857406E+03  0.17200000000E+03 0.  1.
</event>
<event>
 4    1  0.1181383E+000  0.2502122E+03  0.7818608E-02  0.1113171E+00
         21   -1    0    0  501  502  0.00000000000E+00  0.00000000000E+00  0.40441574163E+03  0.40441574163E+03  0.00000000000E+00 0. -1.
         21   -1    0    0  502  503 -0.00000000000E+00 -0.00000000000E+00 -0.16311482558E+03  0.16311482558E+03  0.00000000000E+00 0. -1.
          6    1    1    2  501    0 -0.12154586877E+03  0.13508791521E+03  0.18469351310E+03  0.31099491448E+03  0.17200000000E+03 0. -1.
         -6    1    1    2    0  503  0.12154586877E+03 -0.13508791521E+03  0.56607402940E+02  0.25653565273E+03  0.17200000000E+03 0. -1.
</event>
<event>
 4    1  0.1181383E+000  0.2105743E+03  0.7818608E-02  0.1141112E+00
         21   -1    0    0  501  502  0.00000000000E+00  0.00000000000E+00  0.12950783530E+03  0.12950783530E+03  0.00000000000E+00 0.  1.
         21   -1    0    0  502  503 -0.00000000000E+00 -0.00000000000E+00 -0.51471262992E+03  0.51471262992E+03  0.00000000000E+00 0.  1.
          6    1    1    2  501    0 -0.92778959272E+02  0.78419374924E+02 -0.62222588125E+01  0.21066620553E+03  0.17200000000E+03 0.  1.
         -6    1    1    2    0  503  0.92778959272E+02 -0.78419374924E+02 -0.37898253581E+03  0.43355425969E+03  0.17200000000E+03 0.  1.
</event>
<event>
 4    1  0.1181383E+000  0.1955002E+03  0.7818608E-02  0.1153592E+00
         21   -1    0    0  503  502  0.00000000000E+00  0.00000000000E+00  0.22094376103E+04  0.22094376103E+04  0.00000000000E+00 0. -1.
         21   -1    0    0  501  503 -0.00000000000E+00 -0.00000000000E+00 -0.18310315548E+02  0.18310315548E+02  0.00000000000E+00 0. -1.
          6    1    1    2  501    0 -0.79570301799E+02 -0.48009194628E+02  0.83374298371E+03  0.85635721436E+03  0.17200000000E+03 0. -1.
         -6    1    1    2    0  502  0.79570301799E+02  0.48009194628E+02  0.13573843110E+04  0.13713907115E+04  0.17200000000E+03 0. -1.
</event>
<event>
 4    1  0.1181383E+000  0.2180671E+03  0.7818608E-02  0.1135332E+00
         21   -1    0    0  503  502  0.00000000000E+00  0.00000000000E+00  0.19847605290E+03  0.19847605290E+03  0.00000000000E+00 0.  1.
         21   -1    0    0  501  503 -0.00000000000E+00 -0.00000000000E+00 -0.31632068688E+03  0.31632068688E+03  0.00000000000E+00 0.  1.
          6    1    1    2  501    0 -0.16331016175E+02 -0.13305101747E+03 -0.18569359399E+03  0.28641820157E+03  0.17200000000E+03 0.  1.
         -6    1    1    2    0  502  0.16331016175E+02  0.13305101747E+03  0.67848960011E+02  0.22837853821E+03  0.17200000000E+03 0.  1.
</event>
<event>
 4    1  0.1181383E+000  0.2527900E+03  0.7818608E-02  0.1111554E+00
         21   -1    0    0  501  502  0.00000000000E+00  0.00000000000E+00  0.90696988281E+02  0.90696988281E+02  0.00000000000E+00 0.  1.
         21   -1    0    0  502  503 -0.00000000000E+00 -0.00000000000E+00 -0.71016150255E+03  0.71016150255E+03  0.00000000000E+00 0. -1.
          6    1    1    2  501    0 -0.93729084629E+02  0.15979243109E+03 -0.34525008881E+03  0.42790230914E+03  0.17200000000E+03 0.  1.
         -6    1    1    2    0  503  0.93729084629E+02 -0.15979243109E+03 -0.27421442545E+03  0.37295618169E+03  0.17200000000E+03 0.  1.
</event>
<event>
 4    1  0.1181383E+000  0.2519471E+03  0.7818608E-02  0.1112080E+00
         21   -1    0    0  501  502  0.00000000000E+00  0.00000000000E+00  0.68478310818E+03  0.68478310818E+03  0.00000000000E+00 0.  1.
         21   -1    0    0  502  503 -0.00000000000E+00 -0.00000000000E+00 -0.10528509821E+03  0.10528509821E+03  0.00000000000E+00 0. -1.
          6    1    1    2  501    0  0.31630656730E+02 -0.18136382675E+03  0.42634290038E+03  0.49522278300E+03  0.17200000000E+03 0.  1.
         -6    1    1    2    0  503 -0.31630656730E+02  0.18136382675E+03  0.15315510959E+03  0.29484542339E+03  0.17200000000E+03 0. -1.
</event>
<event>
 4    1  0.1181383E+000  0.2249909E+03  0.7818608E-02  0.1130216E+00
         21   -1    0    0  503  502  0.00000000000E+00  0.00000000000E+00  0.14379895656E+03  0.14379895656E+03  0.00000000000E+00 0.  1.
         21   -1    0    0  501  503 -0.00000000000E+00 -0.00000000000E+00 -0.36935491881E+03  0.36935491881E+03  0.00000000000E+00 0.  1.
          6    1    1    2  501    0  0.14137891390E+03  0.32386919817E+02 -0.16835391592E+03  0.28100525062E+03  0.17200000000E+03 0.  1.
         -6    1    1    2    0  502 -0.14137891390E+03 -0.32386919817E+02 -0.57202046330E+02  0.23214862475E+03  0.17200000000E+03 0.  1.
</event>
<event>
 4    1  0.1181383E+000  0.1797752E+03  0.7818608E-02  0.1168021E+00
         21   -1    0    0  501  502  0.00000000000E+00  0.00000000000E+00  0.34041384021E+03  0.34041384021E+03  0.00000000000E+00 0. -1.
         21   -1    0    0  502  503 -0.00000000000E+00 -0.00000000000E+00 -0.15346039346E+03  0.15346039346E+03  0.00000000000E+00 0. -1.
          6    1    1    2  501    0 -0.44763829260E+02  0.27043299690E+02  0.24596593106E+03  0.30466108991E+03  0.17200000000E+03 0. -1.
         -6    1    1    2    0  503  0.44763829260E+02 -0.27043299690E+02 -0.59012484301E+02  0.18921314376E+03  0.17200000000E+03 0. -1.
</event>
<event>
 4    1  0.1181383E+000  0.2431021E+03  0.7818608E-02  0.1117743E+00
         21   -1    0    0  501  502  0.00000000000E+00  0.00000000000E+00  0.84371715170E+02  0.84371715170E+02  0.00000000000E+00 0.  1.
         21   -1    0    0  502  503 -0.00000000000E+00 -0.00000000000E+00 -0.13003872016E+04  0.13003872016E+04  0.00000000000E+00 0. -1.
          6    1    1    2  501    0 -0.53869098949E+02 -0.16313409177E+03 -0.13772523705E+03  0.27940446066E+03  0.17200000000E+03 0. -1.
         -6    1    1    2    0  503  0.53869098949E+02  0.16313409177E+03 -0.10782902494E+04  0.11053544561E+04  0.17200000000E+03 0.  1.
</event>
<event>
 4    1  0.1181383E+000  0.1950425E+03  0.7818608E-02  0.1153990E+00
         21   -1    0    0  501  502  0.00000000000E+00  0.00000000000E+00  0.10417341004E+04  0.10417341004E+04  0.00000000000E+00 0.  1.
         21   -1    0    0  502  503 -0.00000000000E+00 -0.00000000000E+00 -0.43555683033E+02  0.43555683033E+02  0.00000000000E+00 0.  1.
          6    1    1    2  501    0 -0.27202325402E+02 -0.87849937906E+02  0.28095588795E+03  0.34202015887E+03  0.17200000000E+03 0.  1.
         -6    1    1    2    0  503  0.27202325402E+02  0.87849937906E+02  0.71722252940E+03  0.74326962455E+03  0.17200000000E+03 0.  1.
</event>
<event>
 4    1  0.1181383E+000  0.1773675E+03  0.7818608E-02  0.1170375E+00
         21   -1    0    0  503  502  0.00000000000E+00  0.00000000000E+00  0.20031085981E+03  0.20031085981E+03  0.00000000000E+00 0.  1.
         21   -1    0    0  501  503 -0.00000000000E+00 -0.00000000000E+00 -0.15778655785E+03  0.15778655785E+03  0.00000000000E+00 0.  1.
          6    1    1    2  501    0  0.43298022295E+02  0.71236355798E+00  0.90457928942E+01  0.17759800834E+03  0.17200000000E+03 0.  1.
         -6    1    1    2    0  502 -0.43298022295E+02 -0.71236355798E+00  0.33478509064E+02  0.18049940932E+03  0.17200000000E+03 0.  1.
</event>
<event>
 4    1  0.1181383E+000  0.3155352E+03  0.7818608E-02  0.1077723E+00
         21   -1    0    0  501  502  0.00000000000E+00  0.00000000000E+00  0.10878515340E+04  0.10878515340E+04  0.00000000000E+00 0.  1.
         21   -1    0    0  502  503 -0.00000000000E+00 -0.00000000000E+00 -0.98520368430E+02  0.98520368430E+02  0.00000000000E+00 0. -1.
          6    1    1    2  501    0 -0.18044926511E+03 -0.19343357805E+03  0.65276209881E+03  0.72502471960E+03  0.17200000000E+03 0.  1.
         -6    1    1    2    0  503  0.18044926511E+03  0.19343357805E+03  0.33656906675E+03  0.46134718281E+03  0.17200000000E+03 0. -1.
</event>
<event>
 4    1  0.1181383E+000  0.1973584E+03  0.7818608E-02  0.1151987E+00
         21   -1    0    0  503  502  0.00000000000E+00  0.00000000000E+00  0.18398282177E+03  0.18398282177E+03  0.00000000000E+00 0.  1.
         21   -1    0    0  501  503 -0.00000000000E+00 -0.00000000000E+00 -0.22213422971E+03  0.22213422971E+03  0.00000000000E+00 0.  1.
          6    1    1    2  501    0  0.82168409546E+02  0.51133899028E+02  0.24920221162E+02  0.19892546489E+03  0.17200000000E+03 0.  1.
         -6    1    1    2    0  502 -0.82168409546E+02 -0.51133899028E+02 -0.63071629100E+02  0.20719158659E+03  0.17200000000E+03 0.  1.
</event>
<event>
 4    1  0.1181383E+000  0.1878819E+03  0.7818608E-02  0.1160386E+00
         21   -1    0    0  503  502  0.00000000000E+00  0.00000000000E+00  0.67679458287E+03  0.67679458287E+03  0.00000000000E+00 0.  1.
         21   -1    0    0  501  503 -0.00000000000E+00 -0.00000000000E+00 -0.52169243260E+02  0.52169243260E+02  0.00000000000E+00 0.  1.
          6    1    1    2  501    0 -0.75600150115E+02 -0.46728979621E+00  0.30673779841E+03  0.35970498750E+03  0.17200000000E+03 0. -1.
         -6    1    1    2    0  502  0.75600150115E+02  0.46728979621E+00  0.31788754120E+03  0.36925883863E+03  0.17200000000E+03 0. -1.
</event>
<event>
 4    1  0.1181383E+000  0.2098143E+03  0.7818608E-02  0.1141713E+00
         21   -1    0    0  503  502  0.00000000000E+00  0.00000000000E+00  0.56575620382E+03  0.56575620382E+03  0.00000000000E+00 0. -1.
         21   -1    0    0  501  503 -0.00000000000E+00 -0.00000000000E+00 -0.78012773295E+02  0.78012773295E+02  0.00000000000E+00 0. -1.
          6    1    1    2  501    0 -0.11031195523E+03  0.47637454531E+02  0.22750159913E+03  0.30948187693E+03  0.17200000000E+03 0. -1.
         -6    1    1    2    0  502  0.11031195523E+03 -0.47637454531E+02  0.26024183140E+03  0.33428710019E+03  0.17200000000E+03 0. -1.
</event>
<event>
 4    1  0.1181383E+000  0.2099337E+03  0.7818608E-02  0.1141619E+00
         21   -1    0    0  503  502  0.00000000000E+00  0.00000000000E+00  0.17323811922E+03  0.17323811922E+03  0.00000000000E+00 0.  1.
         21   -1    0    0  501  503 -0.00000000000E+00 -0.00000000000E+00 -0.51675385912E+03  0.51675385912E+03  0.00000000000E+00 0.  1.
          6    1    1    2  501    0 -0.58914645691E+02  0.10496286563E+03 -0.41757615526E+03  0.46737777448E+03  0.17200000000E+03 0.  1.
         -6    1    1    2    0  502  0.58914645691E+02 -0.10496286563E+03  0.74060415351E+02  0.22261420386E+03  0.17200000000E+03 0.  1.
</event>
<event>
 4    1  0.1181383E+000  0.2553329E+03  0.7818608E-02  0.1109980E+00
         21   -1    0    0  501  502  0.00000000000E+00  0.00000000000E+00  0.33296685819E+03  0.33296685819E+03  0.00000000000E+00 0.  1.
         21   -1    0    0  502  503 -0.00000000000E+00 -0.00000000000E+00 -0.20328158969E+03  0.20328158969E+03  0.00000000000E+00 0.  1.
          6    1    1    2  501    0  0.17365429446E+03 -0.73858570225E+02  0.13404559136E+02  0.25568454116E+03  0.17200000000E+03 0.  1.
         -6    1    1    2    0  503 -0.17365429446E+03  0.73858570225E+02  0.11628070937E+03  0.28056390672E+03  0.17200000000E+03 0.  1.
</event>
<event>
 4    1  0.1181383E+000  0.1867289E+03  0.7818608E-02  0.1161445E+00
         21   -1    0    0  503  502  0.00000000000E+00  0.00000000000E+00  0.10341694235E+03  0.10341694235E+03  0.00000000000E+00 0. -1.
         21   -1    0    0  501  503 -0.00000000000E+00 -0.00000000000E+00 -0.33742647970E+03  0.33742647970E+03  0.00000000000E+00 0. -1.
          6    1    1    2  501    0 -0.15987069563E+02  0.70909101509E+02 -0.11076904646E+03  0.21711165036E+03  0.17200000000E+03 0. -1.
         -6    1    1    2    0  502  0.15987069563E+02 -0.70909101509E+02 -0.12324049088E+03  0.22373177169E+03  0.17200000000E+03 0. -1.
</event>
<event>
 4    1  0.1181383E+000  0.2793904E+03  0.7818608E-02  0.1096022E+00
         21   -1    0    0  501  502  0.00000000000E+00  0.00000000000E+00  0.13528331276E+04  0.13528331276E+04  0.00000000000E+00 0. -1.
         21   -1    0    0  502  503 -0.00000000000E+00 -0.00000000000E+00 -0.13773927694E+03  0.13773927694E+03  0.00000000000E+00 0. -1.
          6    1    1    2  501    0 -0.21839529871E+03 -0.27901826180E+02  0.39420927775E+02  0.28215780682E+03  0.17200000000E+03 0. -1.
         -6    1    1    2    0  503  0.21839529871E+03  0.27901826180E+02  0.11756729229E+04  0.12084145977E+04  0.17200000000E+03 0. -1.
</event>
<event>
 4    1  0.1181383E+000  0.2188491E+03  0.7818608E-02  0.1134744E+00
         21   -1    0    0  501  502  0.00000000000E+00  0.00000000000E+00  0.72188415898E+03  0.72188415898E+03  0.00000000000E+00 0. -1.
         21   -1    0    0  502  503 -0.00000000000E+00 -0.00000000000E+00 -0.83152738553E+02  0.83152738553E+02  0.00000000000E+00 0.  1.
          6    1    1    2  501    0 -0.49768682999E+02  0.12583325319E+03  0.50032249094E+03  0.54609296311E+03  0.17200000000E+03 0. -1.
         -6    1    1    2    0  503  0.49768682999E+02 -0.12583325319E+03  0.13840892949E+03  0.25894393443E+03  0.17200000000E+03 0.  1.
</event>
<event>
 4    1  0.1181383E+000  0.1801195E+03  0.7818608E-02  0.1167687E+00
         21   -1    0    0  503  502  0.00000000000E+00  0.00000000000E+00  0.37592167297E+03  0.37592167297E+03  0.00000000000E+00 0.  1.
         21   -1    0    0  501  503 -0.00000000000E+00 -0.00000000000E+00 -0.10976557741E+03  0.10976557741E+03  0.00000000000E+00 0.  1.
          6    1    1    2  501    0  0.16514997247E+02  0.50855632914E+02  0.20802644102E+02  0.18131682364E+03  0.17200000000E+03 0.  1.
         -6    1    1    2    0  502 -0.16514997247E+02 -0.50855632914E+02  0.24535345146E+03  0.30437042674E+03  0.17200000000E+03 0.  1.
</event>
<event>
 4    1  0.1181383E+000  0.1828436E+03  0.7818608E-02  0.1165079E+00
         21   -1    0    0  501  502  0.00000000000E+00  0.00000000000E+00  0.26698740717E+03  0.26698740717E+03  0.00000000000E+00 0. -1.
         21   -1    0    0  502  503 -0.00000000000E+00 -0.00000000000E+00 -0.13856715943E+03  0.13856715943E+03  0.00000000000E+00 0. -1.
          6    1    1    2  501    0  0.46064366119E+02 -0.41543425006E+02  0.12714723306E+03  0.22270653529E+03  0.17200000000E+03 0. -1.
         -6    1    1    2    0  503 -0.46064366119E+02  0.41543425006E+02  0.12730146923E+01  0.18284803131E+03  0.17200000000E+03 0. -1.
</event>
<event>
 4    1  0.1181383E+000  0.2084085E+03  0.7818608E-02  0.1142833E+00
         21   -1    0    0  503  502  0.00000000000E+00  0.00000000000E+00  0.79098210879E+02  0.79098210879E+02  0.00000000000E+00 0. -1.
         21   -1    0    0  501  503 -0.00000000000E+00 -0.00000000000E+00 -0.69601273459E+03  0.69601273459E+03  0.00000000000E+00 0. -1.
          6    1    1    2  501    0 -0.11708202006E+03 -0.11911486415E+02 -0.13041153977E+03  0.24584802752E+03  0.17200000000E+03 0.  1.
         -6    1    1    2    0  502  0.11708202006E+03  0.11911486415E+02 -0.48650298394E+03  0.52926291795E+03  0.17200000000E+03 0.  1.
</event>
<event>
 4    1  0.1181383E+000  0.1722722E+03  0.7818608E-02  0.1175499E+00
         21   -1    0    0  503  502  0.00000000000E+00  0.00000000000E+00  0.79123500926E+02  0.79123500926E+02  0.00000000000E+00 0.  1.
         21   -1    0    0  501  503 -0.00000000000E+00 -0.00000000000E+00 -0.39838537942E+03  0.39838537942E+03  0.00000000000E+00 0.  1.
          6    1    1    2  501    0  0.81447705538E+01 -0.52306528271E+01 -0.21737687947E+03  0.27736330822E+03  0.17200000000E+03 0.  1.
         -6    1    1    2    0  502 -0.81447705538E+01  0.52306528271E+01 -0.10188499902E+03  0.20014557212E+03  0.17200000000E+03 0.  1.
</event>
<event>
 4    1  0.1181383E+000  0.1884824E+03  0.7818608E-02  0.1159837E+00
         21   -1    0    0  501  502  0.00000000000E+00  0.00000000000E+00  0.50063046742E+03  0.50063046742E+03  0.00000000000E+00 0.  1.
         21   -1    0    0  502  503 -0.00000000000E+00 -0.00000000000E+00 -0.12522000101E+03  0.12522000101E+03  0.00000000000E+00 0.  1.
          6    1    1    2  501    0  0.17243433852E+02 -0.75128459506E+02  0.39369069562E+03  0.43648365978E+03  0.17200000000E+03 0.  1.
         -6    1    1    2    0  503 -0.17243433852E+02  0.75128459506E+02 -0.18280229199E+02  0.18936680865E+03  0.17200000000E+03 0.  1.
</event>
<event>
 4    1  0.1181383E+000  0.2320836E+03  0.7818608E-02  0.1125182E+00
         21   -1    0    0  503  502  0.00000000000E+00  0.00000000000E+00  0.45829724569E+02  0.45829724569E+02  0.00000000000E+00 0. -1.
         21   -1    0    0  501  503 -0.00000000000E+00 -0.00000000000E+00 -0.15938380865E+04  0.15938380865E+04  0.00000000000E+00 0.  1.
          6    1    1    2  501    0  0.13511459045E+03  0.77607138196E+02 -0.11941315209E+04  0.12164756100E+04  0.17200000000E+03 0.  1.
         -6    1    1    2    0  502 -0.13511459045E+03 -0.77607138196E+02 -0.35387684104E+03  0.42319220110E+03  0.17200000000E+03 0.  1.
</event>
<event>
 4    1  0.1181383E+000  0.2344333E+03  0.7818608E-02  0.1123558E+00
         21   -1    0    0  503  502  0.00000000000E+00  0.00000000000E+00  0.18094548300E+04  0.18094548300E+04  0.00000000000E+00 0. -1.
         21   -1    0    0  501  503 -0.00000000000E+00 -0.00000000000E+00 -0.30601836126E+02  0.30601836126E+02  0.00000000000E+00 0. -1.
          6    1    1    2  501    0  0.13076367069E+03 -0.90971633673E+02  0.80990625336E+03  0.84315307919E+03  0.17200000000E+03 0. -1.
         -6    1    1    2    0  502 -0.13076367069E+03  0.90971633673E+02  0.96894674050E+03  0.99690358693E+03  0.17200000000E+03 0. -1.
</event>
<event>
 4    1  0.1181383E+000  0.1865076E+03  0.7818608E-02  0.1161649E+00
         21   -1    0    0  501  502  0.00000000000E+00  0.00000000000E+00  0.25034385503E+03  0.25034385503E+03  0.00000000000E+00 0. -1.
         21   -1    0    0  502  503 -0.00000000000E+00 -0.00000000000E+00 -0.22246388145E+03  0.22246388145E+03  0.00000000000E+00 0. -1.
          6    1    1    2  501    0 -0.49822161291E+02 -0.52142552226E+02  0.15878584482E+03  0.24494496938E+03  0.17200000000E+03 0. -1.
         -6    1    1    2    0  503  0.49822161291E+02  0.52142552226E+02 -0.13090587123E+03  0.22786276710E+03  0.17200000000E+03 0. -1.
</event>
<event>
 4    1  0.1181383E+000  0.1754193E+03  0.7818608E-02  0.1172311E+00
         21   -1    0    0  503  502  0.00000000000E+00  0.00000000000E+00  0.10792302634E+03  0.10792302634E+03  0.00000000000E+00 0.  1.
         21   -1    0    0  501  503 -0.00000000000E+00 -0.00000000000E+00 -0.30467186780E+03  0.30467186780E+03  0.00000000000E+00 0.  1.
          6    1    1    2  501    0  0.16945738739E+02  0.30012952650E+02 -0.15062328895E+03  0.23121269550E+03  0.17200000000E+03 0. -1.
         -6    1    1    2    0  502 -0.16945738739E+02 -0.30012952650E+02 -0.46125552505E+02  0.18138219864E+03  0.17200000000E+03 0. -1.
</event>
<event>
 4    1  0.1181383E+000  0.1810094E+03  0.7818608E-02  0.1166830E+00
         21   -1    0    0  501  502  0.00000000000E+00  0.00000000000E+00  0.35055086017E+03  0.35055086017E+03  0.00000000000E+00 0. -1.
         21   -1    0    0  502  503 -0.00000000000E+00 -0.00000000000E+00 -0.12334338715E+03  0.12334338715E+03  0.00000000000E+00 0. -1.
          6    1    1    2  501    0  0.14467830479E+02  0.54507728828E+02  0.23022250844E+03  0.29285971729E+03  0.17200000000E+03 0. -1.
         -6    1    1    2    0  503 -0.14467830479E+02 -0.54507728828E+02 -0.30150354184E+01  0.18103453002E+03  0.17200000000E+03 0. -1.
</event>
<event>
 4    1  0.1181383E+000  0.2252173E+03  0.7818608E-02  0.1130052E+00
         21   -1    0    0  503  502  0.00000000000E+00  0.00000000000E+00  0.33117523214E+03  0.33117523214E+03  0.00000000000E+00 0.  1.
         21   -1    0    0  501  503 -0.00000000000E+00 -0.00000000000E+00 -0.19593972974E+03  0.19593972974E+03  0.00000000000E+00 0.  1.
          6    1    1    2  501    0  0.12217065764E+03 -0.78823574209E+02 -0.55531762671E+02  0.23196250150E+03  0.17200000000E+03 0.  1.
         -6    1    1    2    0  502 -0.12217065764E+03  0.78823574209E+02  0.19076726508E+03  0.29515246037E+03  0.17200000000E+03 0.  1.
</event>
<event>
 4    1  0.1181383E+000  0.2001671E+03  0.7818608E-02  0.1149598E+00
         21   -1    0    0  501  502  0.00000000000E+00  0.00000000000E+00  0.19661533412E+03  0.19661533412E+03  0.00000000000E+00 0.  1.
         21   -1    0    0  502  503 -0.00000000000E+00 -0.00000000000E+00 -0.64880258147E+03  0.64880258147E+03  0.00000000000E+00 0.  1.
          6    1    1    2  501    0  0.10234656185E+03 -0.28362072697E+01  0.12399236271E+03  0.23545905972E+03  0.17200000000E+03 0.  1.
         -6    1    1    2    0  503 -0.10234656185E+03  0.28362072697E+01 -0.57617961006E+03  0.60995885586E+03  0.17200000000E+03 0.  1.
</event>
<event>
 4    1  0.1181383E+000  0.2050214E+03  0.7818608E-02  0.1145570E+00
         21   -1    0    0  501  502  0.00000000000E+00  0.00000000000E+00  0.43329345339E+03  0.43329345339E+03  0.00000000000E+00 0.  1.
         21   -1    0    0  502  503 -0.00000000000E+00 -0.00000000000E+00 -0.16895359478E+03  0.16895359478E+03  0.00000000000E+00 0.  1.
          6    1    1    2  501    0 -0.10986631279E+03 -0.19471739345E+02  0.32866756533E+03  0.38737078338E+03  0.17200000000E+03 0.  1.
         -6    1    1    2    0  503  0.10986631279E+03  0.19471739345E+02 -0.64327706713E+02  0.21487626479E+03  0.17200000000E+03 0.  1.
</event>
<event>
 4    1  0.1181383E+000  0.1813114E+03  0.7818608E-02  0.1166540E+00
         21   -1    0    0  503  502  0.00000000000E+00  0.00000000000E+00  0.27677871686E+02  0.27677871686E+02  0.00000000000E+00 0. -1.
         21   -1    0    0  501  503 -0.00000000000E+00 -0.00000000000E+00 -0.14254463193E+04  0.14254463193E+04  0.00000000000E+00 0. -1.
          6    1    1    2  501    0 -0.30419872850E+02  0.48625684831E+02 -0.99559083256E+03  0.10119658748E+04  0.17200000000E+03 0.  1.
         -6    1    1    2    0  502  0.30419872850E+02 -0.48625684831E+02 -0.40217761510E+03  0.44115831623E+03  0.17200000000E+03 0.  1.
</event>
<event>
 4    1  0.1181383E+000  0.1943905E+03  0.7818608E-02  0.1154560E+00
         21   -1    0    0  503  502  0.00000000000E+00  0.00000000000E+00  0.16568408482E+03  0.16568408482E+03  0.00000000000E+00 0.  1.
         21   -1    0    0  501  503 -0.00000000000E+00 -0.00000000000E+00 -0.23289724401E+03  0.23289724401E+03  0.00000000000E+00 0.  1.
          6    1    1    2  501    0  0.89247168542E+02 -0.15447305120E+02 -0.62296234607E+02  0.20412862899E+03  0.17200000000E+03 0. -1.
         -6    1    1    2    0  502 -0.89247168542E+02  0.15447305120E+02 -0.49169245873E+01  0.19445269984E+03  0.17200000000E+03 0. -1.
</event>
<event>
 4    1  0.1181383E+000  0.2429622E+03  0.7818608E-02  0.1117835E+00
         21   -1    0    0  501  502  0.00000000000E+00  0.00000000000E+00  0.15094778974E+03  0.15094778974E+03  0.00000000000E+00 0.  1.
         21   -1    0    0  502  503 -0.00000000000E+00 -0.00000000000E+00 -0.54269903471E+03  0.54269903471E+03  0.00000000000E+00 0. -1.
          6    1    1    2  501    0 -0.13036147191E+03  0.11159092424E+03 -0.12549289008E+02  0.24328611219E+03  0.17200000000E+03 0.  1.
         -6    1    1    2    0  503  0.13036147191E+03 -0.11159092424E+03 -0.37920195597E+03  0.45036071225E+03  0.17200000000E+03 0. -1.
</event>
<event>
 4    1  0.1181383E+000  0.1775309E+03  0.7818608E-02  0.1170214E+00
         21   -1    0    0  501  502  0.00000000000E+00  0.00000000000E+00  0.24716481093E+02  0.24716481093E+02  0.00000000000E+00 0. -1.
         21   -1    0    0  502  503 -0.00000000000E+00 -0.00000000000E+00 -0.17455159949E+04  0.17455159949E+04  0.00000000000E+00 0. -1.
          6    1    1    2  501    0  0.36722010297E+02  0.24181149984E+02 -0.40093087466E+03  0.43847782191E+03  0.17200000000E+03 0. -1.
         -6    1    1    2    0  503 -0.36722010297E+02 -0.24181149984E+02 -0.13198686392E+04  0.13317546541E+04  0.17200000000E+03 0. -1.
</event>
<event>
 4    1  0.1181383E+000  0.2470189E+03  0.7818608E-02  0.1115203E+00
         21   -1    0    0  503  502  0.00000000000E+00  0.00000000000E+00  0.35198406725E+03  0.35198406725E+03  0.00000000000E+00 0. -1.
         21   -1    0    0  501  503 -0.00000000000E+00 -0.00000000000E+00 -0.19840326986E+03  0.19840326986E+03  0.00000000000E+00 0.  1.
          6    1    1    2  501    0 -0.11253782109E+03 -0.13700206609E+03  0.17457032531E+03  0.30247830627E+03  0.17200000000E+03 0.  1.
         -6    1    1    2    0  502  0.11253782109E+03  0.13700206609E+03 -0.20989527919E+02  0.24790903084E+03  0.17200000000E+03 0.  1.
</event>
<event>
 4    1  0.1181383E+000  0.1816298E+03  0.7818608E-02  0.1166235E+00
         21   -1    0    0  501  502  0.00000000000E+00  0.00000000000E+00  0.65232158051E+03  0.65232158051E+03  0.00000000000E+00 0. -1.
         21   -1    0    0  502  503 -0.00000000000E+00 -0.00000000000E+00 -0.51291404319E+02  0.51291404319E+02  0.00000000000E+00 0. -1.
          6    1    1    2  501    0  0.28930066570E+02  0.50679559261E+02  0.25885748721E+03  0.31622233502E+03  0.17200000000E+03 0. -1.
         -6    1    1    2    0  503 -0.28930066570E+02 -0.50679559261E+02  0.34217268899E+03  0.38739064982E+03  0.17200000000E+03 0. -1.
</event>
<event>
 4    1  0.1181383E+000  0.1898319E+03  0.7818608E-02  0.1158613E+00
         21   -1    0    0  503  502  0.00000000000E+00  0.00000000000E+00  0.24826212279E+03  0.24826212279E+03  0.00000000000E+00 0. -1.
         21   -1    0    0  501  503 -0.00000000000E+00 -0.00000000000E+00 -0.28524767305E+03  0.28524767305E+03  0.00000000000E+00 0. -1.
          6    1    1    2  501    0  0.88152231936E+01 -0.79840042094E+02 -0.20543664583E+03  0.27971477603E+03  0.17200000000E+03 0. -1.
         -6    1    1    2    0  502 -0.88152231936E+01  0.79840042094E+02  0.16845109557E+03  0.25379501981E+03  0.17200000000E+03 0. -1.
</event>
<event>
 4    1  0.1181383E+000  0.1801839E+03  0.7818608E-02  0.1167625E+00
         21   -1    0    0  503  502  0.00000000000E+00  0.00000000000E+00  0.15751150381E+03  0.15751150381E+03  0.00000000000E+00 0.  1.
         21   -1    0    0  501  503 -0.00000000000E+00 -0.00000000000E+00 -0.41920249324E+03  0.41920249324E+03  0.00000000000E+00 0.  1.
          6    1    1    2  501    0 -0.27759619456E+02  0.45952771146E+02 -0.33643103522E+03  0.38164393760E+03  0.17200000000E+03 0.  1.
         -6    1    1    2    0  502  0.27759619456E+02 -0.45952771146E+02  0.74740045786E+02  0.19507005945E+03  0.17200000000E+03 0.  1.
</event>
<event>
 4    1  0.1181383E+000  0.1739808E+03  0.7818608E-02  0.1173759E+00
         21   -1    0    0  501  502  0.00000000000E+00  0.00000000000E+00  0.60449178976E+02  0.60449178976E+02  0.00000000000E+00 0. -1.
         21   -1    0    0  502  503 -0.00000000000E+00 -0.00000000000E+00 -0.56262445278E+03  0.56262445278E+03  0.00000000000E+00 0. -1.
          6    1    1    2  501    0  0.14036460365E+02  0.22097293507E+02 -0.14776597306E+03  0.22826321516E+03  0.17200000000E+03 0.  1.
         -6    1    1    2    0  503 -0.14036460365E+02 -0.22097293507E+02 -0.35440930075E+03  0.39481041660E+03  0.17200000000E+03 0.  1.
</event>
<event>
 4    1  0.1181383E+000  0.1792450E+03  0.7818608E-02  0.1168536E+00
         21   -1    0    0  503  502  0.00000000000E+00  0.00000000000E+00  0.33994065478E+02  0.33994065478E+02  0.00000000000E+00 0. -1.
         21   -1    0    0  501  503 -0.00000000000E+00 -0.00000000000E+00 -0.11753610445E+04  0.11753610445E+04  0.00000000000E+00 0. -1.
          6    1    1    2  501    0 -0.50391636575E+02 -0.23368386531E+01 -0.83830503021E+03  0.85725381395E+03  0.17200000000E+03 0. -1.
         -6    1    1    2    0  502  0.50391636575E+02  0.23368386531E+01 -0.30306194885E+03  0.35210129606E+03  0.17200000000E+03 0. -1.
</event>
<event>
 4    1  0.1181383E+000  0.2035412E+03  0.7818608E-02  0.1146785E+00
         21   -1    0    0  501  502  0.00000000000E+00  0.00000000000E+00  0.49017343546E+02  0.49017343546E+02  0.00000000000E+00 0.  1.
         21   -1    0    0  502  503 -0.00000000000E+00 -0.00000000000E+00 -0.10286716099E+04  0.10286716099E+04  0.00000000000E+00 0. -1.
          6    1    1    2  501    0 -0.10641435466E+03 -0.22825575595E+02 -0.26225449432E+03  0.33197355553E+03  0.17200000000E+03 0. -1.
         -6    1    1    2    0  503  0.10641435466E+03  0.22825575595E+02 -0.71739977203E+03  0.74571539791E+03  0.17200000000E+03 0. -1.
</event>
<event>
 4    1  0.1181383E+000  0.2313169E+03  0.7818608E-02  0.1125716E+00
         21   -1    0    0  501  502  0.00000000000E+00  0.00000000000E+00  0.16876187726E+03  0.16876187726E+03  0.00000000000E+00 0.  1.
         21   -1    0    0  502  503 -0.00000000000E+00 -0.00000000000E+00 -0.53894697784E+03  0.53894697784E+03  0.00000000000E+00 0.  1.
          6    1    1    2  501    0 -0.92843504141E+02  0.12370762568E+03  0.41955814615E+02  0.23509101066E+03  0.17200000000E+03 0. -1.
         -6    1    1    2    0  503  0.92843504141E+02 -0.12370762568E+03 -0.41214091519E+03  0.47261784445E+03  0.17200000000E+03 0. -1.
</event>
<event>
 4    1  0.1181383E+000  0.2207451E+03  0.7818608E-02  0.1133329E+00
         21   -1    0    0  501  502  0.00000000000E+00  0.00000000000E+00  0.43221884186E+02  0.43221884186E+02  0.00000000000E+00 0. -1.
         21   -1    0    0  502  503 -0.00000000000E+00 -0.00000000000E+00 -0.14888850938E+04  0.14888850938E+04  0.00000000000E+00 0. -1.
          6    1    1    2  501    0  0.89116911674E+02 -0.10584226976E+03 -0.11002933101E+04  0.11222182400E+04  0.17200000000E+03 0. -1.
         -6    1    1    2    0  503 -0.89116911674E+02  0.10584226976E+03 -0.34536989955E+03  0.40988873798E+03  0.17200000000E+03 0. -1.
</event>
<event>
 4    1  0.1181383E+000  0.1993680E+03  0.7818608E-02  0.1150273E+00
         21   -1    0    0  503  502  0.00000000000E+00  0.00000000000E+00  0.39614698809E+03  0.39614698809E+03  0.00000000000E+00 0. -1.
         21   -1    0    0  501  503 -0.00000000000E+00 -0.00000000000E+00 -0.14209751626E+03  0.14209751626E+03  0.00000000000E+00 0. -1.
          6    1    1    2  501    0  0.47701408297E+02 -0.88815497476E+02 -0.18872462393E+02  0.20025929887E+03  0.17200000000E+03 0. -1.
         -6    1    1    2    0  502 -0.47701408297E+02  0.88815497476E+02  0.27292193423E+03  0.33798520549E+03  0.17200000000E+03 0. -1.
</event>
<event>
 4    1  0.1181383E+000  0.2244679E+03  0.7818608E-02  0.1130595E+00
         21   -1    0    0  501  502  0.00000000000E+00  0.00000000000E+00  0.74206493638E+02  0.74206493638E+02  0.00000000000E+00 0. -1.
         21   -1    0    0  502  503 -0.00000000000E+00 -0.00000000000E+00 -0.68509746212E+03  0.68509746212E+03  0.00000000000E+00 0. -1.
          6    1    1    2  501    0  0.57100328588E+02 -0.13244385141E+03 -0.34127740687E+03  0.40848021952E+03  0.17200000000E+03 0.  1.
         -6    1    1    2    0  503 -0.57100328588E+02  0.13244385141E+03 -0.26961356161E+03  0.35082373623E+03  0.17200000000E+03 0.  1.
</event>
<event>
 4    1  0.1181383E+000  0.1837324E+03  0.7818608E-02  0.1164239E+00
         21   -1    0    0  501  502  0.00000000000E+00  0.00000000000E+00  0.28610727727E+03  0.28610727727E+03  0.00000000000E+00 0. -1.
         21   -1    0    0  502  503 -0.00000000000E+00 -0.00000000000E+00 -0.46551144665E+03  0.46551144665E+03  0.00000000000E+00 0. -1.
          6    1    1    2  501    0  0.53084376548E+02 -0.36818948572E+02  0.23500643255E+03  0.29830455804E+03  0.17200000000E+03 0. -1.
         -6    1    1    2    0  503 -0.53084376548E+02  0.36818948572E+02 -0.41441060192E+03  0.45331416589E+03  0.17200000000E+03 0. -1.
</event>
<event>
 4    1  0.1181383E+000  0.1932667E+03  0.7818608E-02  0.1155548E+00
         21   -1    0    0  503  502  0.00000000000E+00  0.00000000000E+00  0.67310708035E+02  0.67310708035E+02  0.00000000000E+00 0.  1.
         21   -1    0    0  501  503 -0.00000000000E+00 -0.00000000000E+00 -0.80078167360E+03  0.80078167360E+03  0.00000000000E+00 0.  1.
          6    1    1    2  501    0 -0.58576840841E+02  0.65854280244E+02 -0.60724077599E+03  0.63725457436E+03  0.17200000000E+03 0.  1.
         -6    1    1    2    0  502  0.58576840841E+02 -0.65854280244E+02 -0.12623018957E+03  0.23083780728E+03  0.17200000000E+03 0.  1.
</event>
<event>
 4    1  0.1181383E+000  0.1983373E+03  0.7818608E-02  0.1151149E+00
         21   -1    0    0  501  502  0.00000000000E+00  0.00000000000E+00  0.11428910132E+03  0.11428910132E+03  0.00000000000E+00 0. -1.
         21   -1    0    0  502  503 -0.00000000000E+00 -0.00000000000E+00 -0.34927682029E+03  0.34927682029E+03  0.00000000000E+00 0.  1.
          6    1    1    2  501    0 -0.98760765717E+02  0.11774847495E+00 -0.89535017445E+02  0.21761025265E+03  0.17200000000E+03 0.  1.
         -6    1    1    2    0  503  0.98760765717E+02 -0.11774847495E+00 -0.14545270153E+03  0.24595566895E+03  0.17200000000E+03 0.  1.
</event>
<event>
 4    1  0.1181383E+000  0.1824200E+03  0.7818608E-02  0.1165481E+00
         21   -1    0    0  503  502  0.00000000000E+00  0.00000000000E+00  0.16816917900E+03  0.16816917900E+03  0.00000000000E+00 0. -1.
         21   -1    0    0  501  503 -0.00000000000E+00 -0.00000000000E+00 -0.21356777508E+03  0.21356777508E+03  0.00000000000E+00 0. -1.
          6    1    1    2  501    0 -0.44888549497E+02 -0.40964094610E+02  0.29033970972E+02  0.18471602636E+03  0.17200000000E+03 0. -1.
         -6    1    1    2    0  502  0.44888549497E+02  0.40964094610E+02 -0.74432567052E+02  0.19702092772E+03  0.17200000000E+03 0. -1.
</event>
<event>
 4    1  0.1181383E+000  0.2635352E+03  0.7818608E-02  0.1105038E+00
         21   -1    0    0  503  502  0.00000000000E+00  0.00000000000E+00  0.19947840488E+03  0.19947840488E+03  0.00000000000E+00 0.  1.
         21   -1    0    0  501  503 -0.00000000000E+00 -0.00000000000E+00 -0.42348716569E+03  0.42348716569E+03  0.00000000000E+00 0.  1.
          6    1    1    2  501    0  0.27628336617E+02  0.19774595172E+03 -0.24337074245E+03  0.35872009239E+03  0.17200000000E+03 0.  1.
         -6    1    1    2    0  502 -0.27628336617E+02 -0.19774595172E+03  0.19361981637E+02  0.26424547818E+03  0.17200000000E+03 0.  1.
</event>
<event>
 4    1  0.1181383E+000  0.2299726E+03  0.7818608E-02  0.1126659E+00
         21   -1    0    0  501  502  0.00000000000E+00  0.00000000000E+00  0.19806514793E+03  0.19806514793E+03  0.00000000000E+00 0.  1.
         21   -1    0    0  502  503 -0.00000000000E+00 -0.00000000000E+00 -0.26812361692E+03  0.26812361692E+03  0.00000000000E+00 0. -1.
          6    1    1    2  501    0 -0.86288142348E+01  0.15241045899E+03 -0.20076345145E+02  0.23084727436E+03  0.17200000000E+03 0. -1.
         -6    1    1    2    0  503  0.86288142348E+01 -0.15241045899E+03 -0.49982123847E+02  0.23534149049E+03  0.17200000000E+03 0.  1.
</event>
<event>
 4    1  0.1181383E+000  0.1725124E+03  0.7818608E-02  0.1175253E+00
         21   -1    0    0  501  502  0.00000000000E+00  0.00000000000E+00  0.72042894175E+02  0.72042894175E+02  0.00000000000E+00 0. -1.
         21   -1    0    0  502  503 -0.00000000000E+00 -0.00000000000E+00 -0.60754090369E+03  0.60754090369E+03  0.00000000000E+00 0. -1.
          6    1    1    2  501    0 -0.10413770725E+02 -0.82512907575E+01 -0.75517260295E+02  0.18831725100E+03  0.17200000000E+03 0. -1.
         -6    1    1    2    0  503  0.10413770725E+02  0.82512907575E+01 -0.45998074922E+03  0.49126654687E+03  0.17200000000E+03 0. -1.
</event>
<event>
 4    1  0.1181383E+000  0.1909827E+03  0.7818608E-02  0.1157578E+00
         21   -1    0    0  503  502  0.00000000000E+00  0.00000000000E+00  0.29647911718E+03  0.29647911718E+03  0.00000000000E+00 0.  1.
         21   -1    0    0  501  503 -0.00000000000E+00 -0.00000000000E+00 -0.12497324011E+03  0.12497324011E+03  0.00000000000E+00 0.  1.
          6    1    1    2  501    0 -0.10308994473E+02 -0.82365744935E+02  0.59443401703E+02  0.20001977230E+03  0.17200000000E+03 0. -1.
         -6    1    1    2    0  502  0.10308994473E+02  0.82365744935E+02  0.11206247537E+03  0.22143258498E+03  0.17200000000E+03 0. -1.
</event>
<event>
 4    1  0.1181383E+000  0.2973522E+03  0.7818608E-02  0.1086572E+00
         21   -1    0    0  501  502  0.00000000000E+00  0.00000000000E+00  0.31116808452E+03  0.31116808452E+03  0.00000000000E+00 0.  1.
         21   -1    0    0  502  503 -0.00000000000E+00 -0.00000000000E+00 -0.34412601135E+03  0.34412601135E+03  0.00000000000E+00 0. -1.
          6    1    1    2  501    0 -0.11431328568E+03  0.21393173141E+03  0.12030571130E+03  0.32076748145E+03  0.17200000000E+03 0.  1.
         -6    1    1    2    0  503  0.11431328568E+03 -0.21393173141E+03 -0.15326363812E+03  0.33452661442E+03  0.17200000000E+03 0. -1.
</event>
<event>
 4    1  0.1181383E+000  0.3281515E+03  0.7818608E-02  0.1071958E+00
         21   -1    0    0  501  502  0.00000000000E+00  0.00000000000E+00  0.24322074030E+03  0.24322074030E+03  0.00000000000E+00 0.  1.
         21   -1    0    0  502  503 -0.00000000000E+00 -0.00000000000E+00 -0.45024987858E+03  0.45024987858E+03  0.00000000000E+00 0.  1.
          6    1    1    2  501    0 -0.26279064925E+02  0.27822443409E+03 -0.14829648342E+03  0.36010452923E+03  0.17200000000E+03 0. -1.
         -6    1    1    2    0  503  0.26279064925E+02 -0.27822443409E+03 -0.58732654850E+02  0.33336608965E+03  0.17200000000E+03 0. -1.
</event>
