<event>
 4    1  0.6365520E-002  0.1916331E+03  0.7818608E-02  0.1156997E+00
          1   -1    0    0  502    0  0.00000000000E+00  0.00000000000E+00  0.98274337771E+03  0.98274337771E+03  0.00000000000E+00 0. -1.
         -1   -1    0    0    0  501 -0.00000000000E+00 -0.00000000000E+00 -0.57114737155E+02  0.57114737155E+02  0.00000000000E+00 0.  1.
          6    1    1    2  502    0  0.42366324969E+02  0.73104997603E+02  0.76852924832E+03  0.79206088888E+03  0.17200000000E+03 0. -1.
         -6    1    1    2    0  501 -0.42366324969E+02 -0.73104997603E+02  0.15709939223E+03  0.24779722599E+03  0.17200000000E+03 0.  1.
</event>
<event>
 4    1  0.6365520E-002  0.1894969E+03  0.7818608E-02  0.1158916E+00
         -3   -1    0    0    0  501 -0.00000000000E+00  0.00000000000E+00  0.29477412161E+03  0.29477412161E+03  0.00000000000E+00 0.  1.
          3   -1    0    0  502    0  0.00000000000E+00 -0.00000000000E+00 -0.18503350257E+03  0.18503350257E+03  0.00000000000E+00 0. -1.
          6    1    1    2  502    0  0.39459497156E+02  0.69050793897E+02 -0.85353129453E+02  0.20783219376E+03  0.17200000000E+03 0. -1.
         -6    1    1    2    0  501 -0.39459497156E+02 -0.69050793897E+02  0.19509374850E+03  0.27197543043E+03  0.17200000000E+03 0.  1.
</event>
<event>
 4    1  0.6365520E-002  0.2609408E+03  0.7818608E-02  0.1106579E+00
         -2   -1    0    0    0  501 -0.00000000000E+00  0.00000000000E+00  0.11564794311E+03  0.11564794311E+03  0.00000000000E+00 0.  1.
          2   -1    0    0  502    0  0.00000000000E+00 -0.00000000000E+00 -0.65125382751E+03  0.65125382751E+03  0.00000000000E+00 0. -1.
          6    1    1    2  502    0 -0.19616636354E+03 -0.49882068561E+01 -0.14903045235E+03  0.30049991701E+03  0.17200000000E+03 0. -1.
         -6    1    1    2    0  501  0.19616636354E+03  0.49882068561E+01 -0.38657543204E+03  0.46640185361E+03  0.17200000000E+03 0. -1.
</event>
<event>
 4    1  0.6365520E-002  0.2031230E+03  0.7818608E-02  0.1147131E+00
          2   -1    0    0  502    0  0.00000000000E+00  0.00000000000E+00  0.18963483675E+03  0.18963483675E+03  0.00000000000E+00 0. -1.
         -2   -1    0    0    0  501 -0.00000000000E+00 -0.00000000000E+00 -0.32357091743E+03  0.32357091743E+03  0.00000000000E+00 0.  1.
          6    1    1    2  502    0  0.48809080853E+02 -0.96398171427E+02  0.79901150865E+02  0.21827305775E+03  0.17200000000E+03 0.  1.
         -6    1    1    2    0  501 -0.48809080853E+02  0.96398171427E+02 -0.21383723155E+03  0.29493269644E+03  0.17200000000E+03 0.  1.
</event>
<event>
 4    1  0.6365520E-002  0.2543534E+03  0.7818608E-02  0.1110584E+00
          1   -1    0    0  502    0  0.00000000000E+00  0.00000000000E+00  0.34330863311E+03  0.34330863311E+03  0.00000000000E+00 0. -1.
         -1   -1    0    0    0  501 -0.00000000000E+00 -0.00000000000E+00 -0.19148930921E+03  0.19148930921E+03  0.00000000000E+00 0.  1.
          6    1    1    2  502    0  0.97533790361E+02 -0.15999623647E+03  0.10961177490E+03  0.27696638269E+03  0.17200000000E+03 0.  1.
         -6    1    1    2    0  501 -0.97533790361E+02  0.15999623647E+03  0.42207548996E+02  0.25783155962E+03  0.17200000000E+03 0.  1.
</event>
<event>
 4    1  0.6365520E-002  0.8222440E+03  0.7818608E-02  0.9528366E-01
         -2   -1    0    0    0  501 -0.00000000000E+00  0.00000000000E+00  0.23855883098E+03  0.23855883098E+03  0.00000000000E+00 0.  1.
          2   -1    0    0  502    0  0.00000000000E+00 -0.00000000000E+00 -0.45792591600E+04  0.45792591600E+04  0.00000000000E+00 0. -1.
          6    1    1    2  502    0 -0.78794240640E+03  0.16015000364E+03 -0.36574761873E+04  0.37487621050E+04  0.17200000000E+03 0. -1.
         -6    1    1    2    0  501  0.78794240640E+03 -0.16015000364E+03 -0.68322414172E+03  0.10690558860E+04  0.17200000000E+03 0.  1.
</event>
<event>
 4    1  0.6365520E-002  0.3913646E+03  0.7818608E-02  0.1046812E+00
         -1   -1    0    0    0  501 -0.00000000000E+00  0.00000000000E+00  0.38499614280E+03  0.38499614280E+03  0.00000000000E+00 0.  1.
          1   -1    0    0  502    0  0.00000000000E+00 -0.00000000000E+00 -0.44218372935E+03  0.44218372935E+03  0.00000000000E+00 0. -1.
          6    1    1    2  502    0  0.34693612560E+03 -0.56723466605E+02  0.10238253534E+03  0.40453480747E+03  0.17200000000E+03 0. -1.
         -6    1    1    2    0  501 -0.34693612560E+03  0.56723466605E+02 -0.15957012188E+03  0.42264506469E+03  0.17200000000E+03 0.  1.
</event>
<event>
 4    1  0.6365520E-002  0.3201339E+03  0.7818608E-02  0.1075588E+00
         -2   -1    0    0    0  501 -0.00000000000E+00  0.00000000000E+00  0.66255603167E+02  0.66255603167E+02  0.00000000000E+00 0.  1.
          2   -1    0    0  502    0  0.00000000000E+00 -0.00000000000E+00 -0.35430517846E+04  0.35430517846E+04  0.00000000000E+00 0. -1.
          6    1    1    2  502    0 -0.26457404724E+03 -0.53872922996E+02 -0.30929954872E+04  0.31095187413E+04  0.17200000000E+03 0. -1.
         -6    1    1    2    0  501  0.26457404724E+03  0.53872922996E+02 -0.38380069425E+03  0.49978864654E+03  0.17200000000E+03 0. -1.
</event>
<event>
 4    1  0.6365520E-002  0.3529159E+03  0.7818608E-02  0.1061425E+00
         -1   -1    0    0    0  501 -0.00000000000E+00  0.00000000000E+00  0.26057758279E+03  0.26057758279E+03  0.00000000000E+00 0.  1.
          1   -1    0    0  502    0  0.00000000000E+00 -0.00000000000E+00 -0.60043610520E+03  0.60043610520E+03  0.00000000000E+00 0. -1.
          6    1    1    2  502    0  0.22681345350E+03  0.20861761410E+03 -0.36435116586E+03  0.50724887744E+03  0.17200000000E+03 0. -1.
         -6    1    1    2    0  501 -0.22681345350E+03 -0.20861761410E+03  0.24492643453E+02  0.35376481055E+03  0.17200000000E+03 0.  1.
</event>
<event>
 4    1  0.6365520E-002  0.2183102E+03  0.7818608E-02  0.1135149E+00
         -2   -1    0    0    0  501 -0.00000000000E+00  0.00000000000E+00  0.24083595809E+03  0.24083595809E+03  0.00000000000E+00 0.  1.
          2   -1    0    0  502    0  0.00000000000E+00 -0.00000000000E+00 -0.38449049125E+03  0.38449049125E+03  0.00000000000E+00 0. -1.
          6    1    1    2  502    0  0.12674777255E+03  0.44836952506E+02 -0.28964279309E+03  0.36270138923E+03  0.17200000000E+03 0. -1.
         -6    1    1    2    0  501 -0.12674777255E+03 -0.44836952506E+02  0.14598825994E+03  0.26262506011E+03  0.17200000000E+03 0.  1.
</event>
<event>
 4    1  0.6365520E-002  0.2178312E+03  0.7818608E-02  0.1135510E+00
          1   -1    0    0  502    0  0.00000000000E+00  0.00000000000E+00  0.88320457888E+03  0.88320457888E+03  0.00000000000E+00 0. -1.
         -1   -1    0    0    0  501 -0.00000000000E+00 -0.00000000000E+00 -0.77431991890E+02  0.77431991890E+02  0.00000000000E+00 0.  1.
          6    1    1    2  502    0  0.13333045238E+03 -0.94565804693E+01  0.66865529535E+03  0.70324273223E+03  0.17200000000E+03 0. -1.
         -6    1    1    2    0  501 -0.13333045238E+03  0.94565804693E+01  0.13711729164E+03  0.25739383853E+03  0.17200000000E+03 0.  1.
</event>
<event>
 4    1  0.6365520E-002  0.2948691E+03  0.7818608E-02  0.1087834E+00
          2   -1    0    0  502    0  0.00000000000E+00  0.00000000000E+00  0.16443588263E+04  0.16443588263E+04  0.00000000000E+00 0. -1.
         -2   -1    0    0    0  501 -0.00000000000E+00 -0.00000000000E+00 -0.53788249361E+02  0.53788249361E+02  0.00000000000E+00 0.  1.
          6    1    1    2  502    0 -0.10427480879E+03  0.21561665988E+03  0.90583623539E+03  0.95262115509E+03  0.17200000000E+03 0. -1.
         -6    1    1    2    0  501  0.10427480879E+03 -0.21561665988E+03  0.68473434159E+03  0.74552592062E+03  0.17200000000E+03 0.  1.
</event>
<event>
 4    1  0.6365520E-002  0.3441392E+03  0.7818608E-02  0.1065047E+00
         -2   -1    0    0    0  501 -0.00000000000E+00  0.00000000000E+00  0.58572037095E+02  0.58572037095E+02  0.00000000000E+00 0.  1.
          2   -1    0    0  502    0  0.00000000000E+00 -0.00000000000E+00 -0.20231933912E+04  0.20231933912E+04  0.00000000000E+00 0. -1.
          6    1    1    2  502    0  0.18692792362E+03 -0.23217613267E+03 -0.95687690230E+03  0.10168801362E+04  0.17200000000E+03 0.  1.
         -6    1    1    2    0  501 -0.18692792362E+03  0.23217613267E+03 -0.10077444518E+04  0.10648852921E+04  0.17200000000E+03 0.  1.
</event>
<event>
 4    1  0.6365520E-002  0.1771542E+03  0.7818608E-02  0.1170586E+00
         -2   -1    0    0    0  501 -0.00000000000E+00  0.00000000000E+00  0.32384447880E+02  0.32384447880E+02  0.00000000000E+00 0.  1.
          2   -1    0    0  502    0  0.00000000000E+00 -0.00000000000E+00 -0.28022373953E+04  0.28022373953E+04  0.00000000000E+00 0. -1.
          6    1    1    2  502    0 -0.13254483303E+01 -0.42401187077E+02 -0.23859363889E+03  0.29717089696E+03  0.17200000000E+03 0.  1.
         -6    1    1    2    0  501  0.13254483303E+01  0.42401187077E+02 -0.25312593085E+04  0.25374509462E+04  0.17200000000E+03 0. -1.
</event>
<event>
 4    1  0.6365520E-002  0.2893121E+03  0.7818608E-02  0.1090709E+00
          2   -1    0    0  502    0  0.00000000000E+00  0.00000000000E+00  0.36984864953E+03  0.36984864953E+03  0.00000000000E+00 0. -1.
         -2   -1    0    0    0  501 -0.00000000000E+00 -0.00000000000E+00 -0.25104813367E+03  0.25104813367E+03  0.00000000000E+00 0.  1.
          6    1    1    2  502    0  0.22621636967E+03 -0.54255217483E+02 -0.38047087707E+02  0.29180311070E+03  0.17200000000E+03 0.  1.
         -6    1    1    2    0  501 -0.22621636967E+03  0.54255217483E+02  0.15684760356E+03  0.32909367249E+03  0.17200000000E+03 0. -1.
</event>
<event>
 4    1  0.6365520E-002  0.2577092E+03  0.7818608E-02  0.1108527E+00
          1   -1    0    0  502    0  0.00000000000E+00  0.00000000000E+00  0.14540775761E+04  0.14540775761E+04  0.00000000000E+00 0. -1.
         -1   -1    0    0    0  501 -0.00000000000E+00 -0.00000000000E+00 -0.47139649491E+02  0.47139649491E+02  0.00000000000E+00 0.  1.
          6    1    1    2  502    0 -0.15986664745E+03 -0.10617285929E+03  0.83580750129E+03  0.87463603872E+03  0.17200000000E+03 0. -1.
         -6    1    1    2    0  501  0.15986664745E+03  0.10617285929E+03  0.57113042532E+03  0.62658118687E+03  0.17200000000E+03 0.  1.
</event>
<event>
 4    1  0.6365520E-002  0.2613347E+03  0.7818608E-02  0.1106344E+00
          2   -1    0    0  502    0  0.00000000000E+00  0.00000000000E+00  0.58664926192E+03  0.58664926192E+03  0.00000000000E+00 0. -1.
         -2   -1    0    0    0  501 -0.00000000000E+00 -0.00000000000E+00 -0.11748843325E+03  0.11748843325E+03  0.00000000000E+00 0.  1.
          6    1    1    2  502    0 -0.18305732960E+03  0.72123920785E+02  0.26820427522E+03  0.37447213397E+03  0.17200000000E+03 0. -1.
         -6    1    1    2    0  501  0.18305732960E+03 -0.72123920785E+02  0.20095655345E+03  0.32966556120E+03  0.17200000000E+03 0.  1.
</event>
<event>
 4    1  0.6365520E-002  0.4037882E+03  0.7818608E-02  0.1042476E+00
         -2   -1    0    0    0  501 -0.00000000000E+00  0.00000000000E+00  0.16278179871E+03  0.16278179871E+03  0.00000000000E+00 0.  1.
          2   -1    0    0  502    0  0.00000000000E+00 -0.00000000000E+00 -0.11546083330E+04  0.11546083330E+04  0.00000000000E+00 0. -1.
          6    1    1    2  502    0 -0.17137855965E+03  0.32263024570E+03 -0.73568700895E+03  0.83921407357E+03  0.17200000000E+03 0. -1.
         -6    1    1    2    0  501  0.17137855965E+03 -0.32263024570E+03 -0.25613952536E+03  0.47817605816E+03  0.17200000000E+03 0.  1.
</event>
<event>
 4    1  0.6365520E-002  0.1784953E+03  0.7818608E-02  0.1169267E+00
         -1   -1    0    0    0  501 -0.00000000000E+00  0.00000000000E+00  0.77043315361E+02  0.77043315361E+02  0.00000000000E+00 0.  1.
          1   -1    0    0  502    0  0.00000000000E+00 -0.00000000000E+00 -0.46453684091E+03  0.46453684091E+03  0.00000000000E+00 0. -1.
          6    1    1    2  502    0 -0.44476133343E+02 -0.17275748966E+02 -0.10402669589E+03  0.20659654256E+03  0.17200000000E+03 0. -1.
         -6    1    1    2    0  501  0.44476133343E+02  0.17275748966E+02 -0.28346682966E+03  0.33498361372E+03  0.17200000000E+03 0. -1.
</event>
<event>
 4    1  0.6365520E-002  0.4099524E+03  0.7818608E-02  0.1040387E+00
         -2   -1    0    0    0  501 -0.00000000000E+00  0.00000000000E+00  0.34000587980E+03  0.34000587980E+03  0.00000000000E+00 0.  1.
          2   -1    0    0  502    0  0.00000000000E+00 -0.00000000000E+00 -0.50054847417E+03  0.50054847417E+03  0.00000000000E+00 0. -1.
          6    1    1    2  502    0  0.33379926390E+03 -0.16448404228E+03 -0.33270647665E+02  0.41130023674E+03  0.17200000000E+03 0.  1.
         -6    1    1    2    0  501 -0.33379926390E+03  0.16448404228E+03 -0.12727194671E+03  0.42925411723E+03  0.17200000000E+03 0.  1.
</event>
<event>
 4    1  0.6365520E-002  0.3474637E+03  0.7818608E-02  0.1063661E+00
          2   -1    0    0  502    0  0.00000000000E+00  0.00000000000E+00  0.49450926346E+03  0.49450926346E+03  0.00000000000E+00 0. -1.
         -2   -1    0    0    0  501 -0.00000000000E+00 -0.00000000000E+00 -0.26261359938E+03  0.26261359938E+03  0.00000000000E+00 0.  1.
          6    1    1    2  502    0 -0.30110590120E+03 -0.21961025340E+02  0.15551819525E+02  0.34781160053E+03  0.17200000000E+03 0.  1.
         -6    1    1    2    0  501  0.30110590120E+03  0.21961025340E+02  0.21634384456E+03  0.40931126230E+03  0.17200000000E+03 0. -1.
</event>
<event>
 4    1  0.6365520E-002  0.1816681E+03  0.7818608E-02  0.1166198E+00
          1   -1    0    0  502    0  0.00000000000E+00  0.00000000000E+00  0.29464617660E+03  0.29464617660E+03  0.00000000000E+00 0. -1.
         -1   -1    0    0    0  501 -0.00000000000E+00 -0.00000000000E+00 -0.11932366976E+03  0.11932366976E+03  0.00000000000E+00 0.  1.
          6    1    1    2  502    0 -0.43138876034E+02 -0.39475919801E+02  0.36417158411E+02  0.18528227194E+03  0.17200000000E+03 0. -1.
         -6    1    1    2    0  501  0.43138876034E+02  0.39475919801E+02  0.13890534843E+03  0.22868757442E+03  0.17200000000E+03 0.  1.
</event>
<event>
 4    1  0.6365520E-002  0.2950360E+03  0.7818608E-02  0.1087749E+00
          1   -1    0    0  502    0  0.00000000000E+00  0.00000000000E+00  0.39970130896E+03  0.39970130896E+03  0.00000000000E+00 0. -1.
         -1   -1    0    0    0  501 -0.00000000000E+00 -0.00000000000E+00 -0.29004028122E+03  0.29004028122E+03  0.00000000000E+00 0.  1.
          6    1    1    2  502    0  0.13875647785E+03 -0.19547097701E+03  0.22697069525E+03  0.37223911603E+03  0.17200000000E+03 0. -1.
         -6    1    1    2    0  501 -0.13875647785E+03  0.19547097701E+03 -0.11730966752E+03  0.31750247415E+03  0.17200000000E+03 0.  1.
</event>
<event>
 4    1  0.6365520E-002  0.1886401E+03  0.7818608E-02  0.1159694E+00
          2   -1    0    0  502    0  0.00000000000E+00  0.00000000000E+00  0.20913743812E+03  0.20913743812E+03  0.00000000000E+00 0. -1.
         -2   -1    0    0    0  501 -0.00000000000E+00 -0.00000000000E+00 -0.17561920135E+03  0.17561920135E+03  0.00000000000E+00 0.  1.
          6    1    1    2  502    0  0.51855025218E+02 -0.57551091316E+02  0.50703520450E+02  0.19533540063E+03  0.17200000000E+03 0. -1.
         -6    1    1    2    0  501 -0.51855025218E+02  0.57551091316E+02 -0.17185283677E+02  0.18942123885E+03  0.17200000000E+03 0. -1.
</event>
<event>
 4    1  0.6365520E-002  0.2256852E+03  0.7818608E-02  0.1129714E+00
          1   -1    0    0  502    0  0.00000000000E+00  0.00000000000E+00  0.16668101796E+04  0.16668101796E+04  0.00000000000E+00 0. -1.
         -1   -1    0    0    0  501 -0.00000000000E+00 -0.00000000000E+00 -0.30808552072E+02  0.30808552072E+02  0.00000000000E+00 0.  1.
          6    1    1    2  502    0  0.13063031483E+03  0.65463969384E+02  0.89459967348E+03  0.92262797824E+03  0.17200000000E+03 0. -1.
         -6    1    1    2    0  501 -0.13063031483E+03 -0.65463969384E+02  0.74140195407E+03  0.77499075346E+03  0.17200000000E+03 0.  1.
</event>
<event>
 4    1  0.6365520E-002  0.2700592E+03  0.7818608E-02  0.1101246E+00
         -1   -1    0    0    0  501 -0.00000000000E+00  0.00000000000E+00  0.17530415400E+04  0.17530415400E+04  0.00000000000E+00 0.  1.
          1   -1    0    0  502    0  0.00000000000E+00 -0.00000000000E+00 -0.53476425520E+02  0.53476425520E+02  0.00000000000E+00 0. -1.
          6    1    1    2  502    0 -0.76736073896E+02  0.19354465714E+03  0.12753979481E+04  0.13036762962E+04  0.17200000000E+03 0. -1.
         -6    1    1    2    0  501  0.76736073896E+02 -0.19354465714E+03  0.42416716643E+03  0.50284166934E+03  0.17200000000E+03 0.  1.
</event>
<event>
 4    1  0.6365520E-002  0.1727588E+03  0.7818608E-02  0.1175001E+00
         -3   -1    0    0    0  501 -0.00000000000E+00  0.00000000000E+00  0.52326157852E+02  0.52326157852E+02  0.00000000000E+00 0.  1.
          3   -1    0    0  502    0  0.00000000000E+00 -0.00000000000E+00 -0.57224832630E+03  0.57224832630E+03  0.00000000000E+00 0. -1.
          6    1    1    2  502    0  0.94399840174E+01  0.13133696580E+02 -0.24210021928E+03  0.29741910406E+03  0.17200000000E+03 0.  1.
         -6    1    1    2    0  501 -0.94399840174E+01 -0.13133696580E+02 -0.27782194917E+03  0.32715538009E+03  0.17200000000E+03 0.  1.
</event>
<event>
 4    1  0.6365520E-002  0.2246059E+03  0.7818608E-02  0.1130495E+00
          2   -1    0    0  502    0  0.00000000000E+00  0.00000000000E+00  0.40180214848E+03  0.40180214848E+03  0.00000000000E+00 0. -1.
         -2   -1    0    0    0  501 -0.00000000000E+00 -0.00000000000E+00 -0.22854958306E+03  0.22854958306E+03  0.00000000000E+00 0.  1.
          6    1    1    2  502    0 -0.13778493933E+03  0.43348841328E+02  0.29820516998E+03  0.37332845452E+03  0.17200000000E+03 0. -1.
         -6    1    1    2    0  501  0.13778493933E+03 -0.43348841328E+02 -0.12495260456E+03  0.25702327703E+03  0.17200000000E+03 0.  1.
</event>
<event>
 4    1  0.6365520E-002  0.1823531E+03  0.7818608E-02  0.1165545E+00
         -2   -1    0    0    0  501 -0.00000000000E+00  0.00000000000E+00  0.10248457411E+03  0.10248457411E+03  0.00000000000E+00 0.  1.
          2   -1    0    0  502    0  0.00000000000E+00 -0.00000000000E+00 -0.35703430486E+03  0.35703430486E+03  0.00000000000E+00 0. -1.
          6    1    1    2  502    0 -0.30852924978E+02  0.52122482552E+02 -0.19666899146E+03  0.26820020203E+03  0.17200000000E+03 0. -1.
         -6    1    1    2    0  501  0.30852924978E+02 -0.52122482552E+02 -0.57880739295E+02  0.19131867695E+03  0.17200000000E+03 0.  1.
</event>
<event>
 4    1  0.6365520E-002  0.1803292E+03  0.7818608E-02  0.1167485E+00
         -2   -1    0    0    0  501 -0.00000000000E+00  0.00000000000E+00  0.35708266182E+02  0.35708266182E+02  0.00000000000E+00 0.  1.
          2   -1    0    0  502    0  0.00000000000E+00 -0.00000000000E+00 -0.14024593417E+04  0.14024593417E+04  0.00000000000E+00 0. -1.
          6    1    1    2  502    0  0.25743629165E+02  0.47664486967E+02 -0.25755994391E+03  0.31441336242E+03  0.17200000000E+03 0.  1.
         -6    1    1    2    0  501 -0.25743629165E+02 -0.47664486967E+02 -0.11091911316E+04  0.11237542455E+04  0.17200000000E+03 0. -1.
</event>
<event>
 4    1  0.6365520E-002  0.1965789E+03  0.7818608E-02  0.1152658E+00
          1   -1    0    0  502    0  0.00000000000E+00  0.00000000000E+00  0.36548097643E+03  0.36548097643E+03  0.00000000000E+00 0. -1.
         -1   -1    0    0    0  501 -0.00000000000E+00 -0.00000000000E+00 -0.18521684346E+03  0.18521684346E+03  0.00000000000E+00 0.  1.
          6    1    1    2  502    0 -0.85845213382E+02  0.41108086771E+02  0.27051003171E+03  0.33439341009E+03  0.17200000000E+03 0. -1.
         -6    1    1    2    0  501  0.85845213382E+02 -0.41108086771E+02 -0.90245898739E+02  0.21630440980E+03  0.17200000000E+03 0.  1.
</event>
<event>
 4    1  0.6365520E-002  0.2768030E+03  0.7818608E-02  0.1097448E+00
         -2   -1    0    0    0  501 -0.00000000000E+00  0.00000000000E+00  0.12839301132E+03  0.12839301132E+03  0.00000000000E+00 0.  1.
          2   -1    0    0  502    0  0.00000000000E+00 -0.00000000000E+00 -0.62219930737E+03  0.62219930737E+03  0.00000000000E+00 0. -1.
          6    1    1    2  502    0  0.21629881823E+03  0.15834189747E+02 -0.32278819765E+03  0.42522008522E+03  0.17200000000E+03 0.  1.
         -6    1    1    2    0  501 -0.21629881823E+03 -0.15834189747E+02 -0.17101809840E+03  0.32537223347E+03  0.17200000000E+03 0.  1.
</event>
<event>
 4    1  0.6365520E-002  0.2549371E+03  0.7818608E-02  0.1110224E+00
         -1   -1    0    0    0  501 -0.00000000000E+00  0.00000000000E+00  0.35338096488E+03  0.35338096488E+03  0.00000000000E+00 0.  1.
          1   -1    0    0  502    0  0.00000000000E+00 -0.00000000000E+00 -0.39750567123E+03  0.39750567123E+03  0.00000000000E+00 0. -1.
          6    1    1    2  502    0 -0.15114626466E+03  0.11208800798E+03 -0.29727056988E+03  0.39161550859E+03  0.17200000000E+03 0. -1.
         -6    1    1    2    0  501  0.15114626466E+03 -0.11208800798E+03  0.25314586352E+03  0.35927112752E+03  0.17200000000E+03 0.  1.
</event>
<event>
 4    1  0.6365520E-002  0.2496661E+03  0.7818608E-02  0.1113516E+00
         -2   -1    0    0    0  501 -0.00000000000E+00  0.00000000000E+00  0.35111020400E+03  0.35111020400E+03  0.00000000000E+00 0.  1.
          2   -1    0    0  502    0  0.00000000000E+00 -0.00000000000E+00 -0.20537807380E+03  0.20537807380E+03  0.00000000000E+00 0. -1.
          6    1    1    2  502    0  0.10635203839E+03 -0.14641861438E+03  0.17532123069E+03  0.30507490987E+03  0.17200000000E+03 0.  1.
         -6    1    1    2    0  501 -0.10635203839E+03  0.14641861438E+03 -0.29589100487E+02  0.25141336793E+03  0.17200000000E+03 0.  1.
</event>
<event>
 4    1  0.6365520E-002  0.2052333E+03  0.7818608E-02  0.1145397E+00
          2   -1    0    0  502    0  0.00000000000E+00  0.00000000000E+00  0.51801543474E+03  0.51801543474E+03  0.00000000000E+00 0. -1.
         -2   -1    0    0    0  501 -0.00000000000E+00 -0.00000000000E+00 -0.82185711946E+02  0.82185711946E+02  0.00000000000E+00 0.  1.
          6    1    1    2  502    0  0.74519312463E+01  0.11171925860E+03  0.18696752173E+03  0.27762848954E+03  0.17200000000E+03 0.  1.
         -6    1    1    2    0  501 -0.74519312463E+01 -0.11171925860E+03  0.24886220106E+03  0.32257265715E+03  0.17200000000E+03 0. -1.
</event>
<event>
 4    1  0.6365520E-002  0.1918763E+03  0.7818608E-02  0.1156780E+00
          2   -1    0    0  502    0  0.00000000000E+00  0.00000000000E+00  0.42887870795E+03  0.42887870795E+03  0.00000000000E+00 0. -1.
         -2   -1    0    0    0  501 -0.00000000000E+00 -0.00000000000E+00 -0.13677988883E+03  0.13677988883E+03  0.00000000000E+00 0.  1.
          6    1    1    2  502    0 -0.23195616033E+02  0.81819699076E+02 -0.26545049107E+02  0.19370374130E+03  0.17200000000E+03 0.  1.
         -6    1    1    2    0  501  0.23195616033E+02 -0.81819699076E+02  0.31864386823E+03  0.37195485549E+03  0.17200000000E+03 0.  1.
</event>
<event>
 4    1  0.6365520E-002  0.2196573E+03  0.7818608E-02  0.1134139E+00
          2   -1    0    0  502    0  0.00000000000E+00  0.00000000000E+00  0.19860309021E+04  0.19860309021E+04  0.00000000000E+00 0. -1.
         -2   -1    0    0    0  501 -0.00000000000E+00 -0.00000000000E+00 -0.25267667615E+02  0.25267667615E+02  0.00000000000E+00 0.  1.
          6    1    1    2  502    0  0.98335448145E+01 -0.13626680642E+03  0.11777556410E+04  0.11980641432E+04  0.17200000000E+03 0. -1.
         -6    1    1    2    0  501 -0.98335448145E+01  0.13626680642E+03  0.78300759345E+03  0.81323442656E+03  0.17200000000E+03 0.  1.
</event>
<event>
 4    1  0.6365520E-002  0.1787057E+03  0.7818608E-02  0.1169062E+00
         -1   -1    0    0    0  501 -0.00000000000E+00  0.00000000000E+00  0.73915270720E+02  0.73915270720E+02  0.00000000000E+00 0.  1.
          1   -1    0    0  502    0  0.00000000000E+00 -0.00000000000E+00 -0.53903232389E+03  0.53903232389E+03  0.00000000000E+00 0. -1.
          6    1    1    2  502    0 -0.15947428933E+02  0.45797639942E+02 -0.36908726106E+03  0.41007456711E+03  0.17200000000E+03 0. -1.
         -6    1    1    2    0  501  0.15947428933E+02 -0.45797639942E+02 -0.96029792108E+02  0.20287302750E+03  0.17200000000E+03 0.  1.
</event>
<event>
 4    1  0.6365520E-002  0.2091639E+03  0.7818608E-02  0.1142230E+00
         -1   -1    0    0    0  501 -0.00000000000E+00  0.00000000000E+00  0.45889835091E+02  0.45889835091E+02  0.00000000000E+00 0.  1.
          1   -1    0    0  502    0  0.00000000000E+00 -0.00000000000E+00 -0.96269495286E+03  0.96269495286E+03  0.00000000000E+00 0. -1.
          6    1    1    2  502    0  0.11018174851E+03 -0.45005808040E+02 -0.50806069850E+03  0.54943171898E+03  0.17200000000E+03 0. -1.
         -6    1    1    2    0  501 -0.11018174851E+03  0.45005808040E+02 -0.40874441927E+03  0.45915306897E+03  0.17200000000E+03 0.  1.
</event>
<event>
 4    1  0.6365520E-002  0.1854560E+03  0.7818608E-02  0.1162625E+00
          1   -1    0    0  502    0  0.00000000000E+00  0.00000000000E+00  0.11142464738E+04  0.11142464738E+04  0.00000000000E+00 0. -1.
         -1   -1    0    0    0  501 -0.00000000000E+00 -0.00000000000E+00 -0.60679364225E+02  0.60679364225E+02  0.00000000000E+00 0.  1.
          6    1    1    2  502    0  0.12280032137E+02 -0.68257779094E+02  0.93855386980E+03  0.95670125437E+03  0.17200000000E+03 0. -1.
         -6    1    1    2    0  501 -0.12280032137E+02  0.68257779094E+02  0.11501323982E+03  0.21822458370E+03  0.17200000000E+03 0.  1.
</event>
<event>
 4    1  0.6365520E-002  0.2197832E+03  0.7818608E-02  0.1134045E+00
          1   -1    0    0  502    0  0.00000000000E+00  0.00000000000E+00  0.26934560326E+04  0.26934560326E+04  0.00000000000E+00 0. -1.
         -1   -1    0    0    0  501 -0.00000000000E+00 -0.00000000000E+00 -0.20702928760E+02  0.20702928760E+02  0.00000000000E+00 0.  1.
          6    1    1    2  502    0 -0.97937675854E+02  0.95545186874E+02  0.18326700288E+04  0.18458017515E+04  0.17200000000E+03 0. -1.
         -6    1    1    2    0  501  0.97937675854E+02 -0.95545186874E+02  0.84008307504E+03  0.86835720994E+03  0.17200000000E+03 0.  1.
</event>
<event>
 4    1  0.6365520E-002  0.1786592E+03  0.7818608E-02  0.1169107E+00
         -1   -1    0    0    0  501 -0.00000000000E+00  0.00000000000E+00  0.10259359730E+02  0.10259359730E+02  0.00000000000E+00 0.  1.
          1   -1    0    0  502    0  0.00000000000E+00 -0.00000000000E+00 -0.34367772310E+04  0.34367772310E+04  0.00000000000E+00 0. -1.
          6    1    1    2  502    0 -0.41179407181E+02  0.25285339623E+02 -0.22437230852E+04  0.22508248210E+04  0.17200000000E+03 0. -1.
         -6    1    1    2    0  501  0.41179407181E+02 -0.25285339623E+02 -0.11827947861E+04  0.11962117697E+04  0.17200000000E+03 0.  1.
</event>
<event>
 4    1  0.6365520E-002  0.3311923E+03  0.7818608E-02  0.1070611E+00
          1   -1    0    0  502    0  0.00000000000E+00  0.00000000000E+00  0.14759081581E+03  0.14759081581E+03  0.00000000000E+00 0. -1.
         -1   -1    0    0    0  501 -0.00000000000E+00 -0.00000000000E+00 -0.74795678197E+03  0.74795678197E+03  0.00000000000E+00 0.  1.
          6    1    1    2  502    0  0.23185139108E+03 -0.16232453440E+03 -0.26444423483E+03  0.42381490695E+03  0.17200000000E+03 0. -1.
         -6    1    1    2    0  501 -0.23185139108E+03  0.16232453440E+03 -0.33592173133E+03  0.47173269082E+03  0.17200000000E+03 0.  1.
</event>
<event>
 4    1  0.6365520E-002  0.1740727E+03  0.7818608E-02  0.1173666E+00
          1   -1    0    0  502    0  0.00000000000E+00  0.00000000000E+00  0.13011156490E+03  0.13011156490E+03  0.00000000000E+00 0. -1.
         -1   -1    0    0    0  501 -0.00000000000E+00 -0.00000000000E+00 -0.31677012154E+03  0.31677012154E+03  0.00000000000E+00 0.  1.
          6    1    1    2  502    0 -0.20111447389E+02 -0.17687402295E+02  0.21652044318E+02  0.17541415433E+03  0.17200000000E+03 0. -1.
         -6    1    1    2    0  501  0.20111447389E+02  0.17687402295E+02 -0.20831060096E+03  0.27146753211E+03  0.17200000000E+03 0.  1.
</event>
<event>
 4    1  0.6365520E-002  0.2044673E+03  0.7818608E-02  0.1146024E+00
         -1   -1    0    0    0  501 -0.00000000000E+00  0.00000000000E+00  0.29423625638E+02  0.29423625638E+02  0.00000000000E+00 0.  1.
          1   -1    0    0  502    0  0.00000000000E+00 -0.00000000000E+00 -0.15804976595E+04  0.15804976595E+04  0.00000000000E+00 0. -1.
          6    1    1    2  502    0  0.16452988349E+02  0.10932593581E+03 -0.10313632101E+04  0.10514356530E+04  0.17200000000E+03 0. -1.
         -6    1    1    2    0  501 -0.16452988349E+02 -0.10932593581E+03 -0.51971082374E+03  0.55848563221E+03  0.17200000000E+03 0.  1.
</event>
<event>
 4    1  0.6365520E-002  0.2550521E+03  0.7818608E-02  0.1110153E+00
         -2   -1    0    0    0  501 -0.00000000000E+00  0.00000000000E+00  0.95322480381E+03  0.95322480381E+03  0.00000000000E+00 0.  1.
          2   -1    0    0  502    0  0.00000000000E+00 -0.00000000000E+00 -0.81606055337E+02  0.81606055337E+02  0.00000000000E+00 0. -1.
          6    1    1    2  502    0  0.20343757102E+02  0.18722635600E+03  0.22643676104E+03  0.34106477916E+03  0.17200000000E+03 0. -1.
         -6    1    1    2    0  501 -0.20343757102E+02 -0.18722635600E+03  0.64518198744E+03  0.69376607999E+03  0.17200000000E+03 0.  1.
</event>
<event>
 4    1  0.6365520E-002  0.3677255E+03  0.7818608E-02  0.1055566E+00
          1   -1    0    0  502    0  0.00000000000E+00  0.00000000000E+00  0.83120820825E+03  0.83120820825E+03  0.00000000000E+00 0. -1.
         -1   -1    0    0    0  501 -0.00000000000E+00 -0.00000000000E+00 -0.26739995077E+03  0.26739995077E+03  0.00000000000E+00 0.  1.
          6    1    1    2  502    0  0.14288651145E+03 -0.29192714061E+03  0.62565533836E+03  0.72571799826E+03  0.17200000000E+03 0. -1.
         -6    1    1    2    0  501 -0.14288651145E+03  0.29192714061E+03 -0.61847080881E+02  0.37289016076E+03  0.17200000000E+03 0.  1.
</event>
<event>
 4    1  0.6365520E-002  0.3954232E+03  0.7818608E-02  0.1045376E+00
         -2   -1    0    0    0  501 -0.00000000000E+00  0.00000000000E+00  0.12337091606E+03  0.12337091606E+03  0.00000000000E+00 0.  1.
          2   -1    0    0  502    0  0.00000000000E+00 -0.00000000000E+00 -0.14501076263E+04  0.14501076263E+04  0.00000000000E+00 0. -1.
          6    1    1    2  502    0  0.35114139516E+03 -0.58951141353E+02 -0.94263340508E+03  0.10222119413E+04  0.17200000000E+03 0. -1.
         -6    1    1    2    0  501 -0.35114139516E+03  0.58951141353E+02 -0.38410330516E+03  0.55126660111E+03  0.17200000000E+03 0.  1.
</event>
<event>
 4    1  0.6365520E-002  0.2404248E+03  0.7818608E-02  0.1119510E+00
          1   -1    0    0  502    0  0.00000000000E+00  0.00000000000E+00  0.17262636658E+04  0.17262636658E+04  0.00000000000E+00 0. -1.
         -1   -1    0    0    0  501 -0.00000000000E+00 -0.00000000000E+00 -0.33496798688E+02  0.33496798688E+02  0.00000000000E+00 0.  1.
          6    1    1    2  502    0 -0.82923153178E+02  0.14609524634E+03  0.86284353060E+03  0.89571369792E+03  0.17200000000E+03 0. -1.
         -6    1    1    2    0  501  0.82923153178E+02 -0.14609524634E+03  0.82992333648E+03  0.86404676655E+03  0.17200000000E+03 0.  1.
</event>
<event>
 4    1  0.6365520E-002  0.2564698E+03  0.7818608E-02  0.1109283E+00
         -1   -1    0    0    0  501 -0.00000000000E+00  0.00000000000E+00  0.35239633442E+03  0.35239633442E+03  0.00000000000E+00 0.  1.
          1   -1    0    0  502    0  0.00000000000E+00 -0.00000000000E+00 -0.19450902560E+03  0.19450902560E+03  0.00000000000E+00 0. -1.
          6    1    1    2  502    0 -0.12919425154E+03 -0.13964820562E+03  0.23997187158E+02  0.25759006378E+03  0.17200000000E+03 0. -1.
         -6    1    1    2    0  501  0.12919425154E+03  0.13964820562E+03  0.13389012166E+03  0.28931529625E+03  0.17200000000E+03 0.  1.
</event>
<event>
 4    1  0.6365520E-002  0.2466516E+03  0.7818608E-02  0.1115439E+00
         -2   -1    0    0    0  501 -0.00000000000E+00  0.00000000000E+00  0.29471739054E+02  0.29471739054E+02  0.00000000000E+00 0.  1.
          2   -1    0    0  502    0  0.00000000000E+00 -0.00000000000E+00 -0.21187708983E+04  0.21187708983E+04  0.00000000000E+00 0. -1.
          6    1    1    2  502    0  0.75468843143E+02 -0.15986708161E+03 -0.12169529692E+04  0.12416970481E+04  0.17200000000E+03 0. -1.
         -6    1    1    2    0  501 -0.75468843143E+02  0.15986708161E+03 -0.87234618999E+03  0.90654558918E+03  0.17200000000E+03 0.  1.
</event>
<event>
 4    1  0.6365520E-002  0.3291925E+03  0.7818608E-02  0.1071495E+00
         -1   -1    0    0    0  501 -0.00000000000E+00  0.00000000000E+00  0.10401559791E+03  0.10401559791E+03  0.00000000000E+00 0.  1.
          1   -1    0    0  502    0  0.00000000000E+00 -0.00000000000E+00 -0.11623970402E+04  0.11623970402E+04  0.00000000000E+00 0. -1.
          6    1    1    2  502    0 -0.86846755739E+02  0.26691078530E+03 -0.73311187342E+03  0.80362973143E+03  0.17200000000E+03 0. -1.
         -6    1    1    2    0  501  0.86846755739E+02 -0.26691078530E+03 -0.32526956889E+03  0.46278290671E+03  0.17200000000E+03 0.  1.
</event>
<event>
 4    1  0.6365520E-002  0.2047507E+03  0.7818608E-02  0.1145792E+00
         -2   -1    0    0    0  501 -0.00000000000E+00  0.00000000000E+00  0.19509041822E+02  0.19509041822E+02  0.00000000000E+00 0.  1.
          2   -1    0    0  502    0  0.00000000000E+00 -0.00000000000E+00 -0.24236026178E+04  0.24236026178E+04  0.00000000000E+00 0. -1.
          6    1    1    2  502    0  0.44462771167E+02  0.10179339672E+03 -0.16133100753E+04  0.16262509747E+04  0.17200000000E+03 0. -1.
         -6    1    1    2    0  501 -0.44462771167E+02 -0.10179339672E+03 -0.79078350068E+03  0.81686068493E+03  0.17200000000E+03 0.  1.
</event>
<event>
 4    1  0.6365520E-002  0.2161836E+03  0.7818608E-02  0.1136761E+00
         -2   -1    0    0    0  501 -0.00000000000E+00  0.00000000000E+00  0.35080059294E+02  0.35080059294E+02  0.00000000000E+00 0.  1.
          2   -1    0    0  502    0  0.00000000000E+00 -0.00000000000E+00 -0.25181617480E+04  0.25181617480E+04  0.00000000000E+00 0. -1.
          6    1    1    2  502    0  0.63210501957E+02  0.11469871942E+03 -0.36545520460E+03  0.42460907947E+03  0.17200000000E+03 0.  1.
         -6    1    1    2    0  501 -0.63210501957E+02 -0.11469871942E+03 -0.21176264841E+04  0.21286327278E+04  0.17200000000E+03 0.  1.
</event>
<event>
 4    1  0.6365520E-002  0.2243089E+03  0.7818608E-02  0.1130711E+00
          1   -1    0    0  502    0  0.00000000000E+00  0.00000000000E+00  0.16494956131E+03  0.16494956131E+03  0.00000000000E+00 0. -1.
         -1   -1    0    0    0  501 -0.00000000000E+00 -0.00000000000E+00 -0.42270543513E+03  0.42270543513E+03  0.00000000000E+00 0.  1.
          6    1    1    2  502    0  0.12279547889E+03  0.75178194841E+02  0.26152601894E+02  0.22582836226E+03  0.17200000000E+03 0. -1.
         -6    1    1    2    0  501 -0.12279547889E+03 -0.75178194841E+02 -0.28390847571E+03  0.36182663417E+03  0.17200000000E+03 0.  1.
</event>
<event>
 4    1  0.6365520E-002  0.2677141E+03  0.7818608E-02  0.1102595E+00
          1   -1    0    0  502    0  0.00000000000E+00  0.00000000000E+00  0.36250901410E+03  0.36250901410E+03  0.00000000000E+00 0. -1.
         -1   -1    0    0    0  501 -0.00000000000E+00 -0.00000000000E+00 -0.25081129892E+03  0.25081129892E+03  0.00000000000E+00 0.  1.
          6    1    1    2  502    0  0.10175499711E+03  0.17813691676E+03 -0.85257177339E+02  0.28096196689E+03  0.17200000000E+03 0. -1.
         -6    1    1    2    0  501 -0.10175499711E+03 -0.17813691676E+03  0.19695489252E+03  0.33235834613E+03  0.17200000000E+03 0.  1.
</event>
<event>
 4    1  0.6365520E-002  0.2019934E+03  0.7818608E-02  0.1148068E+00
          2   -1    0    0  502    0  0.00000000000E+00  0.00000000000E+00  0.14039679471E+04  0.14039679471E+04  0.00000000000E+00 0. -1.
         -2   -1    0    0    0  501 -0.00000000000E+00 -0.00000000000E+00 -0.29607644843E+02  0.29607644843E+02  0.00000000000E+00 0.  1.
          6    1    1    2  502    0  0.58095763983E+02  0.88556184867E+02  0.58982239078E+03  0.62345149638E+03  0.17200000000E+03 0.  1.
         -6    1    1    2    0  501 -0.58095763983E+02 -0.88556184867E+02  0.78453791153E+03  0.81012409561E+03  0.17200000000E+03 0.  1.
</event>
<event>
 4    1  0.6365520E-002  0.2406677E+03  0.7818608E-02  0.1119349E+00
         -1   -1    0    0    0  501 -0.00000000000E+00  0.00000000000E+00  0.84842724657E+02  0.84842724657E+02  0.00000000000E+00 0.  1.
          1   -1    0    0  502    0  0.00000000000E+00 -0.00000000000E+00 -0.71282555621E+03  0.71282555621E+03  0.00000000000E+00 0. -1.
          6    1    1    2  502    0 -0.10405041005E+03 -0.13232701477E+03 -0.23198076039E+03  0.33426935226E+03  0.17200000000E+03 0.  1.
         -6    1    1    2    0  501  0.10405041005E+03  0.13232701477E+03 -0.39600207117E+03  0.46339892861E+03  0.17200000000E+03 0.  1.
</event>
<event>
 4    1  0.6365520E-002  0.1783010E+03  0.7818608E-02  0.1169458E+00
         -2   -1    0    0    0  501 -0.00000000000E+00  0.00000000000E+00  0.11133468836E+03  0.11133468836E+03  0.00000000000E+00 0.  1.
          2   -1    0    0  502    0  0.00000000000E+00 -0.00000000000E+00 -0.63022894570E+03  0.63022894570E+03  0.00000000000E+00 0. -1.
          6    1    1    2  502    0  0.46019664171E+02 -0.94566768024E+01 -0.53365429143E+03  0.56265277124E+03  0.17200000000E+03 0. -1.
         -6    1    1    2    0  501 -0.46019664171E+02  0.94566768024E+01  0.14760034091E+02  0.17891086281E+03  0.17200000000E+03 0.  1.
</event>
<event>
 4    1  0.6365520E-002  0.1780742E+03  0.7818608E-02  0.1169680E+00
         -1   -1    0    0    0  501 -0.00000000000E+00  0.00000000000E+00  0.18207543088E+03  0.18207543088E+03  0.00000000000E+00 0.  1.
          1   -1    0    0  502    0  0.00000000000E+00 -0.00000000000E+00 -0.20348989565E+03  0.20348989565E+03  0.00000000000E+00 0. -1.
          6    1    1    2  502    0 -0.12084471904E+01 -0.46097204148E+02  0.62481712396E+02  0.18871771766E+03  0.17200000000E+03 0.  1.
         -6    1    1    2    0  501  0.12084471904E+01  0.46097204148E+02 -0.83896177162E+02  0.19684760887E+03  0.17200000000E+03 0. -1.
</event>
<event>
 4    1  0.6365520E-002  0.2842680E+03  0.7818608E-02  0.1093380E+00
         -2   -1    0    0    0  501 -0.00000000000E+00  0.00000000000E+00  0.22275523259E+03  0.22275523259E+03  0.00000000000E+00 0.  1.
          2   -1    0    0  502    0  0.00000000000E+00 -0.00000000000E+00 -0.36294495107E+03  0.36294495107E+03  0.00000000000E+00 0. -1.
          6    1    1    2  502    0  0.51415026116E+02 -0.22041046709E+03 -0.63612950324E+02  0.29129862060E+03  0.17200000000E+03 0. -1.
         -6    1    1    2    0  501 -0.51415026116E+02  0.22041046709E+03 -0.76576768154E+02  0.29440156306E+03  0.17200000000E+03 0.  1.
</event>
<event>
 4    1  0.6365520E-002  0.3142523E+03  0.7818608E-02  0.1078325E+00
         -1   -1    0    0    0  501 -0.00000000000E+00  0.00000000000E+00  0.39547948805E+02  0.39547948805E+02  0.00000000000E+00 0.  1.
          1   -1    0    0  502    0  0.00000000000E+00 -0.00000000000E+00 -0.24971590920E+04  0.24971590920E+04  0.00000000000E+00 0. -1.
          6    1    1    2  502    0  0.54582854963E+01 -0.26294617422E+03 -0.12217725428E+04  0.12615397852E+04  0.17200000000E+03 0. -1.
         -6    1    1    2    0  501 -0.54582854963E+01  0.26294617422E+03 -0.12358386004E+04  0.12751672555E+04  0.17200000000E+03 0.  1.
</event>
<event>
 4    1  0.6365520E-002  0.2552393E+03  0.7818608E-02  0.1110038E+00
          1   -1    0    0  502    0  0.00000000000E+00  0.00000000000E+00  0.23608884326E+03  0.23608884326E+03  0.00000000000E+00 0. -1.
         -1   -1    0    0    0  501 -0.00000000000E+00 -0.00000000000E+00 -0.27840374061E+03  0.27840374061E+03  0.00000000000E+00 0.  1.
          6    1    1    2  502    0 -0.94424564016E+02  0.16323937956E+03  0.30268459309E+01  0.25525723324E+03  0.17200000000E+03 0. -1.
         -6    1    1    2    0  501  0.94424564016E+02 -0.16323937956E+03 -0.45341743281E+02  0.25923535062E+03  0.17200000000E+03 0.  1.
</event>
<event>
 4    1  0.6365520E-002  0.1863646E+03  0.7818608E-02  0.1161782E+00
          1   -1    0    0  502    0  0.00000000000E+00  0.00000000000E+00  0.80060343652E+03  0.80060343652E+03  0.00000000000E+00 0. -1.
         -1   -1    0    0    0  501 -0.00000000000E+00 -0.00000000000E+00 -0.84407134204E+02  0.84407134204E+02  0.00000000000E+00 0.  1.
          6    1    1    2  502    0  0.42755592225E+02  0.57617016935E+02  0.49598979588E+02  0.19285180861E+03  0.17200000000E+03 0.  1.
         -6    1    1    2    0  501 -0.42755592225E+02 -0.57617016935E+02  0.66659732272E+03  0.69215876211E+03  0.17200000000E+03 0. -1.
</event>
<event>
 4    1  0.6365520E-002  0.8412772E+03  0.7818608E-02  0.9502120E-01
          1   -1    0    0  502    0  0.00000000000E+00  0.00000000000E+00  0.14585201108E+04  0.14585201108E+04  0.00000000000E+00 0. -1.
         -1   -1    0    0    0  501 -0.00000000000E+00 -0.00000000000E+00 -0.57508488779E+03  0.57508488779E+03  0.00000000000E+00 0.  1.
          6    1    1    2  502    0 -0.49505838428E+03  0.65808855089E+03  0.39841326990E+02  0.84222008762E+03  0.17200000000E+03 0. -1.
         -6    1    1    2    0  501  0.49505838428E+03 -0.65808855089E+03  0.84359389600E+03  0.11913849109E+04  0.17200000000E+03 0.  1.
</event>
<event>
 4    1  0.6365520E-002  0.2681003E+03  0.7818608E-02  0.1102372E+00
          3   -1    0    0  502    0  0.00000000000E+00  0.00000000000E+00  0.36206218853E+03  0.36206218853E+03  0.00000000000E+00 0. -1.
         -3   -1    0    0    0  501 -0.00000000000E+00 -0.00000000000E+00 -0.23302693341E+03  0.23302693341E+03  0.00000000000E+00 0.  1.
          6    1    1    2  502    0  0.14277313496E+03  0.14801887049E+03  0.17901139075E+03  0.32237064399E+03  0.17200000000E+03 0. -1.
         -6    1    1    2    0  501 -0.14277313496E+03 -0.14801887049E+03 -0.49976135633E+02  0.27271847796E+03  0.17200000000E+03 0.  1.
</event>
<event>
 4    1  0.6365520E-002  0.1726174E+03  0.7818608E-02  0.1175146E+00
         -1   -1    0    0    0  501 -0.00000000000E+00  0.00000000000E+00  0.40667323208E+03  0.40667323208E+03  0.00000000000E+00 0.  1.
          1   -1    0    0  502    0  0.00000000000E+00 -0.00000000000E+00 -0.73343413747E+02  0.73343413747E+02  0.00000000000E+00 0. -1.
          6    1    1    2  502    0 -0.90833844602E+01 -0.11412428247E+02  0.17428320226E+03  0.24529856498E+03  0.17200000000E+03 0.  1.
         -6    1    1    2    0  501  0.90833844602E+01  0.11412428247E+02  0.15904661607E+03  0.23471808085E+03  0.17200000000E+03 0. -1.
</event>
<event>
 4    1  0.6365520E-002  0.7210083E+03  0.7818608E-02  0.9681965E-01
         -1   -1    0    0    0  501 -0.00000000000E+00  0.00000000000E+00  0.24170689830E+03  0.24170689830E+03  0.00000000000E+00 0.  1.
          1   -1    0    0  502    0  0.00000000000E+00 -0.00000000000E+00 -0.22841554144E+04  0.22841554144E+04  0.00000000000E+00 0. -1.
          6    1    1    2  502    0 -0.38437521225E+03 -0.58525612508E+03 -0.71601997643E+03  0.10161385941E+04  0.17200000000E+03 0. -1.
         -6    1    1    2    0  501  0.38437521225E+03  0.58525612508E+03 -0.13264285397E+04  0.15097237186E+04  0.17200000000E+03 0.  1.
</event>
<event>
 4    1  0.6365520E-002  0.2757789E+03  0.7818608E-02  0.1098017E+00
          1   -1    0    0  502    0  0.00000000000E+00  0.00000000000E+00  0.13030228218E+04  0.13030228218E+04  0.00000000000E+00 0. -1.
         -1   -1    0    0    0  501 -0.00000000000E+00 -0.00000000000E+00 -0.64011063008E+02  0.64011063008E+02  0.00000000000E+00 0.  1.
          6    1    1    2  502    0  0.57619206119E+02 -0.20772591187E+03  0.82246243998E+03  0.86746670976E+03  0.17200000000E+03 0. -1.
         -6    1    1    2    0  501 -0.57619206119E+02  0.20772591187E+03  0.41654931883E+03  0.49956717506E+03  0.17200000000E+03 0.  1.
</event>
<event>
 4    1  0.6365520E-002  0.3294509E+03  0.7818608E-02  0.1071380E+00
          2   -1    0    0  502    0  0.00000000000E+00  0.00000000000E+00  0.24151258370E+04  0.24151258370E+04  0.00000000000E+00 0. -1.
         -2   -1    0    0    0  501 -0.00000000000E+00 -0.00000000000E+00 -0.17979655235E+03  0.17979655235E+03  0.00000000000E+00 0.  1.
          6    1    1    2  502    0 -0.21518598205E+03 -0.18068997854E+03  0.22413334116E+04  0.22654168131E+04  0.17200000000E+03 0. -1.
         -6    1    1    2    0  501  0.21518598205E+03  0.18068997854E+03 -0.60041269613E+01  0.32950557621E+03  0.17200000000E+03 0.  1.
</event>
<event>
 4    1  0.6365520E-002  0.2904099E+03  0.7818608E-02  0.1090135E+00
         -2   -1    0    0    0  501 -0.00000000000E+00  0.00000000000E+00  0.12781513789E+03  0.12781513789E+03  0.00000000000E+00 0.  1.
          2   -1    0    0  502    0  0.00000000000E+00 -0.00000000000E+00 -0.85440390659E+03  0.85440390659E+03  0.00000000000E+00 0. -1.
          6    1    1    2  502    0  0.23369143325E+03 -0.11926636827E+02 -0.59764951999E+03  0.66447188005E+03  0.17200000000E+03 0. -1.
         -6    1    1    2    0  501 -0.23369143325E+03  0.11926636827E+02 -0.12893924872E+03  0.31774716442E+03  0.17200000000E+03 0.  1.
</event>
<event>
 4    1  0.6365520E-002  0.2677924E+03  0.7818608E-02  0.1102550E+00
          2   -1    0    0  502    0  0.00000000000E+00  0.00000000000E+00  0.10452280089E+04  0.10452280089E+04  0.00000000000E+00 0. -1.
         -2   -1    0    0    0  501 -0.00000000000E+00 -0.00000000000E+00 -0.92340155593E+02  0.92340155593E+02  0.00000000000E+00 0.  1.
          6    1    1    2  502    0  0.36552942818E+02  0.20197191955E+03  0.76478414660E+03  0.81031325103E+03  0.17200000000E+03 0.  1.
         -6    1    1    2    0  501 -0.36552942818E+02 -0.20197191955E+03  0.18810370675E+03  0.32725491350E+03  0.17200000000E+03 0.  1.
</event>
<event>
 4    1  0.6365520E-002  0.1756465E+03  0.7818608E-02  0.1172084E+00
         -2   -1    0    0    0  501 -0.00000000000E+00  0.00000000000E+00  0.71914655123E+02  0.71914655123E+02  0.00000000000E+00 0.  1.
          2   -1    0    0  502    0  0.00000000000E+00 -0.00000000000E+00 -0.50136269218E+03  0.50136269218E+03  0.00000000000E+00 0. -1.
          6    1    1    2  502    0  0.20126611936E+02 -0.29370129365E+02 -0.32361795640E+03  0.36821225769E+03  0.17200000000E+03 0. -1.
         -6    1    1    2    0  501 -0.20126611936E+02  0.29370129365E+02 -0.10583008066E+03  0.20506508961E+03  0.17200000000E+03 0.  1.
</event>
<event>
 4    1  0.6365520E-002  0.1996304E+03  0.7818608E-02  0.1150051E+00
         -2   -1    0    0    0  501 -0.00000000000E+00  0.00000000000E+00  0.97523150044E+02  0.97523150044E+02  0.00000000000E+00 0.  1.
          2   -1    0    0  502    0  0.00000000000E+00 -0.00000000000E+00 -0.40876955340E+03  0.40876955340E+03  0.00000000000E+00 0. -1.
          6    1    1    2  502    0 -0.77440060751E+02  0.65355358325E+02 -0.16005328411E+03  0.25586977083E+03  0.17200000000E+03 0. -1.
         -6    1    1    2    0  501  0.77440060751E+02 -0.65355358325E+02 -0.15119311924E+03  0.25042293261E+03  0.17200000000E+03 0. -1.
</event>
<event>
 4    1  0.6365520E-002  0.2764660E+03  0.7818608E-02  0.1097635E+00
         -2   -1    0    0    0  501 -0.00000000000E+00  0.00000000000E+00  0.43211282133E+03  0.43211282133E+03  0.00000000000E+00 0.  1.
          2   -1    0    0  502    0  0.00000000000E+00 -0.00000000000E+00 -0.43824911720E+03  0.43824911720E+03  0.00000000000E+00 0. -1.
          6    1    1    2  502    0  0.88556590274E+02 -0.19750239966E+03 -0.33914136768E+03  0.43755037976E+03  0.17200000000E+03 0. -1.
         -6    1    1    2    0  501 -0.88556590274E+02  0.19750239966E+03  0.33300507181E+03  0.43281155877E+03  0.17200000000E+03 0.  1.
</event>
<event>
 4    1  0.6365520E-002  0.2490638E+03  0.7818608E-02  0.1113898E+00
         -1   -1    0    0    0  501 -0.00000000000E+00  0.00000000000E+00  0.31944274985E+03  0.31944274985E+03  0.00000000000E+00 0.  1.
          1   -1    0    0  502    0  0.00000000000E+00 -0.00000000000E+00 -0.26504739540E+03  0.26504739540E+03  0.00000000000E+00 0. -1.
          6    1    1    2  502    0  0.43873888636E+02  0.17471077677E+03 -0.12390641795E+03  0.27818262712E+03  0.17200000000E+03 0. -1.
         -6    1    1    2    0  501 -0.43873888636E+02 -0.17471077677E+03  0.17830177239E+03  0.30630751813E+03  0.17200000000E+03 0.  1.
</event>
<event>
 4    1  0.6365520E-002  0.5433978E+03  0.7818608E-02  0.1003034E+00
         -1   -1    0    0    0  501 -0.00000000000E+00  0.00000000000E+00  0.71235691553E+03  0.71235691553E+03  0.00000000000E+00 0.  1.
          1   -1    0    0  502    0  0.00000000000E+00 -0.00000000000E+00 -0.55953240414E+03  0.55953240414E+03  0.00000000000E+00 0. -1.
          6    1    1    2  502    0  0.19216977060E+03 -0.47829687476E+03 -0.24734531434E+03  0.59704340350E+03  0.17200000000E+03 0. -1.
         -6    1    1    2    0  501 -0.19216977060E+03  0.47829687476E+03  0.40016982573E+03  0.67484591617E+03  0.17200000000E+03 0.  1.
</event>
<event>
 4    1  0.6365520E-002  0.2228739E+03  0.7818608E-02  0.1131758E+00
          1   -1    0    0  502    0  0.00000000000E+00  0.00000000000E+00  0.69170157491E+02  0.69170157491E+02  0.00000000000E+00 0. -1.
         -1   -1    0    0    0  501 -0.00000000000E+00 -0.00000000000E+00 -0.73615030432E+03  0.73615030432E+03  0.00000000000E+00 0.  1.
          6    1    1    2  502    0 -0.84323044161E+02 -0.11392286015E+03 -0.27048126957E+03  0.35047526451E+03  0.17200000000E+03 0. -1.
         -6    1    1    2    0  501  0.84323044161E+02  0.11392286015E+03 -0.39649887726E+03  0.45484519730E+03  0.17200000000E+03 0.  1.
</event>
<event>
 4    1  0.6365520E-002  0.4380823E+03  0.7818608E-02  0.1031337E+00
          1   -1    0    0  502    0  0.00000000000E+00  0.00000000000E+00  0.30245204372E+03  0.30245204372E+03  0.00000000000E+00 0. -1.
         -1   -1    0    0    0  501 -0.00000000000E+00 -0.00000000000E+00 -0.82878155764E+03  0.82878155764E+03  0.00000000000E+00 0.  1.
          6    1    1    2  502    0 -0.30110748170E+03 -0.26770586109E+03  0.10664534688E+02  0.43821213572E+03  0.17200000000E+03 0. -1.
         -6    1    1    2    0  501  0.30110748170E+03  0.26770586109E+03 -0.53699404861E+03  0.69302146564E+03  0.17200000000E+03 0.  1.
</event>
<event>
 4    1  0.6365520E-002  0.2261656E+03  0.7818608E-02  0.1129368E+00
          2   -1    0    0  502    0  0.00000000000E+00  0.00000000000E+00  0.14572971686E+03  0.14572971686E+03  0.00000000000E+00 0. -1.
         -2   -1    0    0    0  501 -0.00000000000E+00 -0.00000000000E+00 -0.35100220373E+03  0.35100220373E+03  0.00000000000E+00 0.  1.
          6    1    1    2  502    0  0.14326945344E+03  0.32260270684E+02 -0.10179244027E+03  0.24801726200E+03  0.17200000000E+03 0. -1.
         -6    1    1    2    0  501 -0.14326945344E+03 -0.32260270684E+02 -0.10348004660E+03  0.24871465859E+03  0.17200000000E+03 0.  1.
</event>
<event>
 4    1  0.6365520E-002  0.1875084E+03  0.7818608E-02  0.1160728E+00
          1   -1    0    0  502    0  0.00000000000E+00  0.00000000000E+00  0.14712841842E+04  0.14712841842E+04  0.00000000000E+00 0. -1.
         -1   -1    0    0    0  501 -0.00000000000E+00 -0.00000000000E+00 -0.24479660672E+02  0.24479660672E+02  0.00000000000E+00 0.  1.
          6    1    1    2  502    0 -0.74436976672E+02 -0.58761274651E+01  0.60802791437E+03  0.63628400658E+03  0.17200000000E+03 0. -1.
         -6    1    1    2    0  501  0.74436976672E+02  0.58761274651E+01  0.83877660916E+03  0.85947983830E+03  0.17200000000E+03 0.  1.
</event>
<event>
 4    1  0.6365520E-002  0.6221259E+03  0.7818608E-02  0.9860536E-01
          2   -1    0    0  502    0  0.00000000000E+00  0.00000000000E+00  0.11502970606E+04  0.11502970606E+04  0.00000000000E+00 0. -1.
         -2   -1    0    0    0  501 -0.00000000000E+00 -0.00000000000E+00 -0.38383880957E+03  0.38383880957E+03  0.00000000000E+00 0.  1.
          6    1    1    2  502    0 -0.42019079956E+03 -0.42531904658E+03  0.65269578260E+03  0.90169417434E+03  0.17200000000E+03 0. -1.
         -6    1    1    2    0  501  0.42019079956E+03  0.42531904658E+03  0.11376246846E+03  0.63244169585E+03  0.17200000000E+03 0.  1.
</event>
<event>
 4    1  0.6365520E-002  0.2147621E+03  0.7818608E-02  0.1137849E+00
         -1   -1    0    0    0  501 -0.00000000000E+00  0.00000000000E+00  0.27484118824E+02  0.27484118824E+02  0.00000000000E+00 0.  1.
          1   -1    0    0  502    0  0.00000000000E+00 -0.00000000000E+00 -0.17788321810E+04  0.17788321810E+04  0.00000000000E+00 0. -1.
          6    1    1    2  502    0  0.52954642703E+02 -0.11719456033E+03 -0.66081666574E+03  0.69483913597E+03  0.17200000000E+03 0.  1.
         -6    1    1    2    0  501 -0.52954642703E+02  0.11719456033E+03 -0.10905313964E+04  0.11114771638E+04  0.17200000000E+03 0. -1.
</event>
<event>
 4    1  0.6365520E-002  0.1730447E+03  0.7818608E-02  0.1174709E+00
          2   -1    0    0  502    0  0.00000000000E+00  0.00000000000E+00  0.97864557322E+03  0.97864557322E+03  0.00000000000E+00 0. -1.
         -2   -1    0    0    0  501 -0.00000000000E+00 -0.00000000000E+00 -0.31931825070E+02  0.31931825070E+02  0.00000000000E+00 0.  1.
          6    1    1    2  502    0  0.88867896221E+01  0.16777852751E+02  0.37008118735E+03  0.40853954105E+03  0.17200000000E+03 0.  1.
         -6    1    1    2    0  501 -0.88867896221E+01 -0.16777852751E+02  0.57663256079E+03  0.60203785723E+03  0.17200000000E+03 0. -1.
</event>
<event>
 4    1  0.6365520E-002  0.2161787E+03  0.7818608E-02  0.1136764E+00
          2   -1    0    0  502    0  0.00000000000E+00  0.00000000000E+00  0.72650831521E+03  0.72650831521E+03  0.00000000000E+00 0. -1.
         -2   -1    0    0    0  501 -0.00000000000E+00 -0.00000000000E+00 -0.66278401447E+02  0.66278401447E+02  0.00000000000E+00 0.  1.
          6    1    1    2  502    0  0.71429646437E+02 -0.10975902901E+03  0.39815202489E+03  0.45305438279E+03  0.17200000000E+03 0. -1.
         -6    1    1    2    0  501 -0.71429646437E+02  0.10975902901E+03  0.26207788886E+03  0.33973233386E+03  0.17200000000E+03 0.  1.
</event>
<event>
 4    1  0.6365520E-002  0.1768195E+03  0.7818608E-02  0.1170917E+00
          2   -1    0    0  502    0  0.00000000000E+00  0.00000000000E+00  0.19995148916E+04  0.19995148916E+04  0.00000000000E+00 0. -1.
         -2   -1    0    0    0  501 -0.00000000000E+00 -0.00000000000E+00 -0.44535397361E+02  0.44535397361E+02  0.00000000000E+00 0.  1.
          6    1    1    2  502    0  0.40636026239E+02 -0.54634748650E+01  0.18007754953E+04  0.18094356912E+04  0.17200000000E+03 0. -1.
         -6    1    1    2    0  501 -0.40636026239E+02  0.54634748650E+01  0.15420399895E+03  0.23461459775E+03  0.17200000000E+03 0.  1.
</event>
<event>
 4    1  0.6365520E-002  0.4131656E+03  0.7818608E-02  0.1039314E+00
         -2   -1    0    0    0  501 -0.00000000000E+00  0.00000000000E+00  0.58495484077E+02  0.58495484077E+02  0.00000000000E+00 0.  1.
          2   -1    0    0  502    0  0.00000000000E+00 -0.00000000000E+00 -0.29715394436E+04  0.29715394436E+04  0.00000000000E+00 0. -1.
          6    1    1    2  502    0  0.20323390308E+02 -0.37511167269E+03 -0.12536824158E+04  0.13200096238E+04  0.17200000000E+03 0. -1.
         -6    1    1    2    0  501 -0.20323390308E+02  0.37511167269E+03 -0.16593615437E+04  0.17100253039E+04  0.17200000000E+03 0.  1.
</event>
<event>
 4    1  0.6365520E-002  0.1903625E+03  0.7818608E-02  0.1158135E+00
          2   -1    0    0  502    0  0.00000000000E+00  0.00000000000E+00  0.12923328926E+03  0.12923328926E+03  0.00000000000E+00 0. -1.
         -2   -1    0    0    0  501 -0.00000000000E+00 -0.00000000000E+00 -0.36516612895E+03  0.36516612895E+03  0.00000000000E+00 0.  1.
          6    1    1    2  502    0  0.58349095428E+02  0.57002298460E+02  0.11294625387E+01  0.19036584424E+03  0.17200000000E+03 0. -1.
         -6    1    1    2    0  501 -0.58349095428E+02 -0.57002298460E+02 -0.23706230222E+03  0.30403357397E+03  0.17200000000E+03 0.  1.
</event>
<event>
 4    1  0.6365520E-002  0.3380754E+03  0.7818608E-02  0.1067619E+00
          1   -1    0    0  502    0  0.00000000000E+00  0.00000000000E+00  0.64932454486E+03  0.64932454486E+03  0.00000000000E+00 0. -1.
         -1   -1    0    0    0  501 -0.00000000000E+00 -0.00000000000E+00 -0.27117708823E+03  0.27117708823E+03  0.00000000000E+00 0.  1.
          6    1    1    2  502    0  0.37892419736E+02 -0.28857433828E+03  0.46171120792E+03  0.57225188834E+03  0.17200000000E+03 0. -1.
         -6    1    1    2    0  501 -0.37892419736E+02  0.28857433828E+03 -0.83563751293E+02  0.34824974475E+03  0.17200000000E+03 0.  1.
</event>
<event>
 4    1  0.6365520E-002  0.2408729E+03  0.7818608E-02  0.1119213E+00
          2   -1    0    0  502    0  0.00000000000E+00  0.00000000000E+00  0.23789961764E+03  0.23789961764E+03  0.00000000000E+00 0. -1.
         -2   -1    0    0    0  501 -0.00000000000E+00 -0.00000000000E+00 -0.25347463453E+03  0.25347463453E+03  0.00000000000E+00 0.  1.
          6    1    1    2  502    0 -0.96451370697E+02  0.13832166494E+03  0.40004368586E+02  0.24417227404E+03  0.17200000000E+03 0.  1.
         -6    1    1    2    0  501  0.96451370697E+02 -0.13832166494E+03 -0.55579385473E+02  0.24720197813E+03  0.17200000000E+03 0.  1.
</event>
<event>
 4    1  0.6365520E-002  0.2345141E+03  0.7818608E-02  0.1123502E+00
         -1   -1    0    0    0  501 -0.00000000000E+00  0.00000000000E+00  0.22600248469E+03  0.22600248469E+03  0.00000000000E+00 0.  1.
          1   -1    0    0  502    0  0.00000000000E+00 -0.00000000000E+00 -0.43822761487E+03  0.43822761487E+03  0.00000000000E+00 0. -1.
          6    1    1    2  502    0 -0.14843953025E+03 -0.58125538032E+02 -0.32758708402E+03  0.40287736339E+03  0.17200000000E+03 0. -1.
         -6    1    1    2    0  501  0.14843953025E+03  0.58125538032E+02  0.11536195385E+03  0.26135273618E+03  0.17200000000E+03 0.  1.
</event>
<event>
 4    1  0.6365520E-002  0.1985163E+03  0.7818608E-02  0.1150997E+00
          2   -1    0    0  502    0  0.00000000000E+00  0.00000000000E+00  0.11214231705E+04  0.11214231705E+04  0.00000000000E+00 0. -1.
         -2   -1    0    0    0  501 -0.00000000000E+00 -0.00000000000E+00 -0.92941770897E+02  0.92941770897E+02  0.00000000000E+00 0.  1.
          6    1    1    2  502    0 -0.56203403343E+02 -0.81644964750E+02  0.99306691362E+03  0.10127144799E+04  0.17200000000E+03 0. -1.
         -6    1    1    2    0  501  0.56203403343E+02  0.81644964750E+02  0.35414485985E+02  0.20165046153E+03  0.17200000000E+03 0.  1.
</event>
<event>
 4    1  0.6365520E-002  0.1817512E+03  0.7818608E-02  0.1166119E+00
         -2   -1    0    0    0  501 -0.00000000000E+00  0.00000000000E+00  0.29061432252E+03  0.29061432252E+03  0.00000000000E+00 0.  1.
          2   -1    0    0  502    0  0.00000000000E+00 -0.00000000000E+00 -0.87637894904E+03  0.87637894904E+03  0.00000000000E+00 0. -1.
          6    1    1    2  502    0 -0.25788485858E+02 -0.52767768997E+02 -0.83722506245E+03  0.85672591220E+03  0.17200000000E+03 0. -1.
         -6    1    1    2    0  501  0.25788485858E+02  0.52767768997E+02  0.25146043593E+03  0.31026735936E+03  0.17200000000E+03 0.  1.
</event>
<event>
 4    1  0.6365520E-002  0.2345183E+03  0.7818608E-02  0.1123499E+00
          2   -1    0    0  502    0  0.00000000000E+00  0.00000000000E+00  0.11556231346E+04  0.11556231346E+04  0.00000000000E+00 0. -1.
         -2   -1    0    0    0  501 -0.00000000000E+00 -0.00000000000E+00 -0.38759402116E+03  0.38759402116E+03  0.00000000000E+00 0.  1.
          6    1    1    2  502    0 -0.86580019278E+02 -0.13386079482E+03  0.11066995606E+04  0.11312748250E+04  0.17200000000E+03 0. -1.
         -6    1    1    2    0  501  0.86580019278E+02  0.13386079482E+03 -0.33867044717E+03  0.41194233081E+03  0.17200000000E+03 0.  1.
</event>
<event>
 4    1  0.6365520E-002  0.2464158E+03  0.7818608E-02  0.1115591E+00
         -2   -1    0    0    0  501 -0.00000000000E+00  0.00000000000E+00  0.87568885616E+03  0.87568885616E+03  0.00000000000E+00 0.  1.
          2   -1    0    0  502    0  0.00000000000E+00 -0.00000000000E+00 -0.11076070516E+03  0.11076070516E+03  0.00000000000E+00 0. -1.
          6    1    1    2  502    0  0.11654289153E+03  0.13249345312E+03  0.80845690229E+02  0.25933913379E+03  0.17200000000E+03 0. -1.
         -6    1    1    2    0  501 -0.11654289153E+03 -0.13249345312E+03  0.68408246077E+03  0.72711042753E+03  0.17200000000E+03 0.  1.
</event>
<event>
 4    1  0.6365520E-002  0.2135778E+03  0.7818608E-02  0.1138764E+00
         -1   -1    0    0    0  501 -0.00000000000E+00  0.00000000000E+00  0.15156392360E+03  0.15156392360E+03  0.00000000000E+00 0.  1.
          1   -1    0    0  502    0  0.00000000000E+00 -0.00000000000E+00 -0.69640175181E+03  0.69640175181E+03  0.00000000000E+00 0. -1.
          6    1    1    2  502    0 -0.12509160372E+03 -0.19585042151E+02 -0.59190849145E+03  0.62926238204E+03  0.17200000000E+03 0. -1.
         -6    1    1    2    0  501  0.12509160372E+03  0.19585042151E+02  0.47070663240E+02  0.21870329338E+03  0.17200000000E+03 0.  1.
</event>
<event>
 4    1  0.6365520E-002  0.2111189E+03  0.7818608E-02  0.1140683E+00
         -2   -1    0    0    0  501 -0.00000000000E+00  0.00000000000E+00  0.28640298366E+02  0.28640298366E+02  0.00000000000E+00 0.  1.
          2   -1    0    0  502    0  0.00000000000E+00 -0.00000000000E+00 -0.21984039663E+04  0.21984039663E+04  0.00000000000E+00 0. -1.
          6    1    1    2  502    0 -0.85717088290E+02 -0.87405850285E+02 -0.16867034566E+04  0.16998646277E+04  0.17200000000E+03 0. -1.
         -6    1    1    2    0  501  0.85717088290E+02  0.87405850285E+02 -0.48306021130E+03  0.52717963696E+03  0.17200000000E+03 0.  1.
</event>
<event>
 4    1  0.6365520E-002  0.3036414E+03  0.7818608E-02  0.1083434E+00
          1   -1    0    0  502    0  0.00000000000E+00  0.00000000000E+00  0.17601123890E+04  0.17601123890E+04  0.00000000000E+00 0. -1.
         -1   -1    0    0    0  501 -0.00000000000E+00 -0.00000000000E+00 -0.54360219349E+02  0.54360219349E+02  0.00000000000E+00 0.  1.
          6    1    1    2  502    0 -0.22733680805E+03  0.10455647806E+03  0.67980485250E+03  0.74453523683E+03  0.17200000000E+03 0. -1.
         -6    1    1    2    0  501  0.22733680805E+03 -0.10455647806E+03  0.10259473172E+04  0.10699373715E+04  0.17200000000E+03 0.  1.
</event>
<event>
 4    1  0.6365520E-002  0.2574944E+03  0.7818608E-02  0.1108658E+00
         -1   -1    0    0    0  501 -0.00000000000E+00  0.00000000000E+00  0.28438767620E+03  0.28438767620E+03  0.00000000000E+00 0.  1.
          1   -1    0    0  502    0  0.00000000000E+00 -0.00000000000E+00 -0.11661127411E+04  0.11661127411E+04  0.00000000000E+00 0. -1.
          6    1    1    2  502    0 -0.19581758556E+02 -0.19061987294E+03 -0.10895732247E+04  0.11195861705E+04  0.17200000000E+03 0. -1.
         -6    1    1    2    0  501  0.19581758556E+02  0.19061987294E+03  0.20784815976E+03  0.33091424682E+03  0.17200000000E+03 0.  1.
</event>
<event>
 4    1  0.6365520E-002  0.2689553E+03  0.7818608E-02  0.1101879E+00
         -2   -1    0    0    0  501 -0.00000000000E+00  0.00000000000E+00  0.37521057746E+03  0.37521057746E+03  0.00000000000E+00 0.  1.
          2   -1    0    0  502    0  0.00000000000E+00 -0.00000000000E+00 -0.25624534321E+03  0.25624534321E+03  0.00000000000E+00 0. -1.
          6    1    1    2  502    0 -0.15608013056E+03  0.13561693112E+03 -0.97632556975E+02  0.28612772558E+03  0.17200000000E+03 0.  1.
         -6    1    1    2    0  501  0.15608013056E+03 -0.13561693112E+03  0.21659779122E+03  0.34532819509E+03  0.17200000000E+03 0.  1.
</event>
<event>
 4    1  0.6365520E-002  0.2370046E+03  0.7818608E-02  0.1121805E+00
         -2   -1    0    0    0  501 -0.00000000000E+00  0.00000000000E+00  0.13851110966E+03  0.13851110966E+03  0.00000000000E+00 0.  1.
          2   -1    0    0  502    0  0.00000000000E+00 -0.00000000000E+00 -0.79369181565E+03  0.79369181565E+03  0.00000000000E+00 0. -1.
          6    1    1    2  502    0 -0.16264143567E+03  0.11616320974E+02 -0.65354548975E+03  0.69519269464E+03  0.17200000000E+03 0. -1.
         -6    1    1    2    0  501  0.16264143567E+03 -0.11616320974E+02 -0.16352162378E+01  0.23701023067E+03  0.17200000000E+03 0.  1.
</event>
<event>
 4    1  0.6365520E-002  0.2004853E+03  0.7818608E-02  0.1149330E+00
         -1   -1    0    0    0  501 -0.00000000000E+00  0.00000000000E+00  0.56731562882E+03  0.56731562882E+03  0.00000000000E+00 0.  1.
          1   -1    0    0  502    0  0.00000000000E+00 -0.00000000000E+00 -0.35433793508E+03  0.35433793508E+03  0.00000000000E+00 0. -1.
          6    1    1    2  502    0  0.19304194768E+02 -0.10118150559E+03 -0.30569989609E+03  0.36557731806E+03  0.17200000000E+03 0. -1.
         -6    1    1    2    0  501 -0.19304194768E+02  0.10118150559E+03  0.51867758982E+03  0.55607624584E+03  0.17200000000E+03 0.  1.
</event>
<event>
 4    1  0.6365520E-002  0.4274592E+03  0.7818608E-02  0.1034666E+00
         -2   -1    0    0    0  501 -0.00000000000E+00  0.00000000000E+00  0.17950611140E+03  0.17950611140E+03  0.00000000000E+00 0.  1.
          2   -1    0    0  502    0  0.00000000000E+00 -0.00000000000E+00 -0.10834250861E+04  0.10834250861E+04  0.00000000000E+00 0. -1.
          6    1    1    2  502    0 -0.23323486104E+03 -0.31422734728E+03 -0.60723969520E+03  0.74260445300E+03  0.17200000000E+03 0. -1.
         -6    1    1    2    0  501  0.23323486104E+03  0.31422734728E+03 -0.29667927954E+03  0.52032674455E+03  0.17200000000E+03 0. -1.
</event>
<event>
 4    1  0.6365520E-002  0.1977872E+03  0.7818608E-02  0.1151619E+00
         -2   -1    0    0    0  501 -0.00000000000E+00  0.00000000000E+00  0.41368376689E+02  0.41368376689E+02  0.00000000000E+00 0.  1.
          2   -1    0    0  502    0  0.00000000000E+00 -0.00000000000E+00 -0.11143018821E+04  0.11143018821E+04  0.00000000000E+00 0. -1.
          6    1    1    2  502    0 -0.79622969953E+02  0.56532931190E+02 -0.76127115957E+03  0.78654533757E+03  0.17200000000E+03 0. -1.
         -6    1    1    2    0  501  0.79622969953E+02 -0.56532931190E+02 -0.31166234584E+03  0.36912492122E+03  0.17200000000E+03 0. -1.
</event>
<event>
 4    1  0.6365520E-002  0.1836123E+03  0.7818608E-02  0.1164352E+00
          2   -1    0    0  502    0  0.00000000000E+00  0.00000000000E+00  0.62560127583E+02  0.62560127583E+02  0.00000000000E+00 0. -1.
         -2   -1    0    0    0  501 -0.00000000000E+00 -0.00000000000E+00 -0.61552114821E+03  0.61552114821E+03  0.00000000000E+00 0.  1.
          6    1    1    2  502    0 -0.13067206030E+02  0.62918459590E+02 -0.15685819061E+03  0.24149115179E+03  0.17200000000E+03 0. -1.
         -6    1    1    2    0  501  0.13067206030E+02 -0.62918459590E+02 -0.39610283001E+03  0.43659012400E+03  0.17200000000E+03 0.  1.
</event>
<event>
 4    1  0.6365520E-002  0.2818577E+03  0.7818608E-02  0.1094679E+00
         -2   -1    0    0    0  501 -0.00000000000E+00  0.00000000000E+00  0.10482236968E+03  0.10482236968E+03  0.00000000000E+00 0.  1.
          2   -1    0    0  502    0  0.00000000000E+00 -0.00000000000E+00 -0.11668649328E+04  0.11668649328E+04  0.00000000000E+00 0. -1.
          6    1    1    2  502    0 -0.20561848846E+03 -0.87067698929E+02 -0.90745523510E+03  0.95022036955E+03  0.17200000000E+03 0. -1.
         -6    1    1    2    0  501  0.20561848846E+03  0.87067698929E+02 -0.15458732805E+03  0.32146693296E+03  0.17200000000E+03 0.  1.
</event>
<event>
 4    1  0.6365520E-002  0.3755202E+03  0.7818608E-02  0.1052602E+00
          2   -1    0    0  502    0  0.00000000000E+00  0.00000000000E+00  0.96002698199E+03  0.96002698199E+03  0.00000000000E+00 0. -1.
         -2   -1    0    0    0  501 -0.00000000000E+00 -0.00000000000E+00 -0.22902892614E+03  0.22902892614E+03  0.00000000000E+00 0.  1.
          6    1    1    2  502    0  0.28266258553E+03 -0.17757610650E+03  0.72154801271E+03  0.81341683379E+03  0.17200000000E+03 0. -1.
         -6    1    1    2    0  501 -0.28266258553E+03  0.17757610650E+03  0.94500431390E+01  0.37563907434E+03  0.17200000000E+03 0.  1.
</event>
<event>
 4    1  0.6365520E-002  0.2301479E+03  0.7818608E-02  0.1126536E+00
          2   -1    0    0  502    0  0.00000000000E+00  0.00000000000E+00  0.98275589265E+03  0.98275589265E+03  0.00000000000E+00 0. -1.
         -2   -1    0    0    0  501 -0.00000000000E+00 -0.00000000000E+00 -0.58019863806E+02  0.58019863806E+02  0.00000000000E+00 0.  1.
          6    1    1    2  502    0 -0.19269785421E+02 -0.15169941579E+03  0.60108018528E+03  0.64363454423E+03  0.17200000000E+03 0. -1.
         -6    1    1    2    0  501  0.19269785421E+02  0.15169941579E+03  0.32365584356E+03  0.39714121223E+03  0.17200000000E+03 0.  1.
</event>
<event>
 4    1  0.6365520E-002  0.3005883E+03  0.7818608E-02  0.1084947E+00
         -2   -1    0    0    0  501 -0.00000000000E+00  0.00000000000E+00  0.10402901750E+03  0.10402901750E+03  0.00000000000E+00 0.  1.
          2   -1    0    0  502    0  0.00000000000E+00 -0.00000000000E+00 -0.86918087909E+03  0.86918087909E+03  0.00000000000E+00 0. -1.
          6    1    1    2  502    0  0.17583280299E+03  0.17277772953E+03 -0.36935828339E+03  0.47621304049E+03  0.17200000000E+03 0. -1.
         -6    1    1    2    0  501 -0.17583280299E+03 -0.17277772953E+03 -0.39579357820E+03  0.49699685610E+03  0.17200000000E+03 0.  1.
</event>
<event>
 4    1  0.6365520E-002  0.1203834E+04  0.7818608E-02  0.9109507E-01
         -1   -1    0    0    0  501 -0.00000000000E+00  0.00000000000E+00  0.90935960683E+03  0.90935960683E+03  0.00000000000E+00 0.  1.
          1   -1    0    0  502    0  0.00000000000E+00 -0.00000000000E+00 -0.18330292842E+04  0.18330292842E+04  0.00000000000E+00 0. -1.
          6    1    1    2  502    0 -0.93595300277E+03  0.73730859092E+03  0.33663973693E+02  0.12043044651E+04  0.17200000000E+03 0. -1.
         -6    1    1    2    0  501  0.93595300277E+03 -0.73730859092E+03 -0.95733365103E+03  0.15380844258E+04  0.17200000000E+03 0.  1.
</event>
<event>
 4    1  0.6365520E-002  0.1891630E+03  0.7818608E-02  0.1159218E+00
          4   -1    0    0  502    0  0.00000000000E+00  0.00000000000E+00  0.52713428691E+02  0.52713428691E+02  0.00000000000E+00 0. -1.
         -4   -1    0    0    0  501 -0.00000000000E+00 -0.00000000000E+00 -0.77436117806E+03  0.77436117806E+03  0.00000000000E+00 0.  1.
          6    1    1    2  502    0  0.14127467032E+02 -0.77453574148E+02 -0.21556234042E+03  0.28679219669E+03  0.17200000000E+03 0. -1.
         -6    1    1    2    0  501 -0.14127467032E+02  0.77453574148E+02 -0.50608540895E+03  0.54028241006E+03  0.17200000000E+03 0.  1.
</event>
<event>
 4    1  0.6365520E-002  0.2681157E+03  0.7818608E-02  0.1102363E+00
         -1   -1    0    0    0  501 -0.00000000000E+00  0.00000000000E+00  0.52289749154E+02  0.52289749154E+02  0.00000000000E+00 0.  1.
          1   -1    0    0  502    0  0.00000000000E+00 -0.00000000000E+00 -0.19137860032E+04  0.19137860032E+04  0.00000000000E+00 0. -1.
          6    1    1    2  502    0 -0.17256747414E+03  0.11190392377E+03 -0.14524557059E+04  0.14769947863E+04  0.17200000000E+03 0. -1.
         -6    1    1    2    0  501  0.17256747414E+03 -0.11190392377E+03 -0.40904054815E+03  0.48908096602E+03  0.17200000000E+03 0.  1.
</event>
<event>
 4    1  0.6365520E-002  0.2069232E+03  0.7818608E-02  0.1144026E+00
          2   -1    0    0  502    0  0.00000000000E+00  0.00000000000E+00  0.40508112158E+03  0.40508112158E+03  0.00000000000E+00 0. -1.
         -2   -1    0    0    0  501 -0.00000000000E+00 -0.00000000000E+00 -0.10578195760E+03  0.10578195760E+03  0.00000000000E+00 0.  1.
          6    1    1    2  502    0 -0.76736346641E+02  0.85701505259E+02  0.15674443502E+03  0.25958819852E+03  0.17200000000E+03 0. -1.
         -6    1    1    2    0  501  0.76736346641E+02 -0.85701505259E+02  0.14255472896E+03  0.25127488066E+03  0.17200000000E+03 0.  1.
</event>
<event>
 4    1  0.6365520E-002  0.1751941E+03  0.7818608E-02  0.1172537E+00
          2   -1    0    0  502    0  0.00000000000E+00  0.00000000000E+00  0.71869118479E+03  0.71869118479E+03  0.00000000000E+00 0. -1.
         -2   -1    0    0    0  501 -0.00000000000E+00 -0.00000000000E+00 -0.45934025154E+02  0.45934025154E+02  0.00000000000E+00 0.  1.
          6    1    1    2  502    0 -0.24359307941E+02 -0.22706420766E+02  0.23504111190E+03  0.29315061267E+03  0.17200000000E+03 0. -1.
         -6    1    1    2    0  501  0.24359307941E+02  0.22706420766E+02  0.43771604774E+03  0.47147459728E+03  0.17200000000E+03 0. -1.
</event>
<event>
 4    1  0.6365520E-002  0.2679962E+03  0.7818608E-02  0.1102432E+00
          2   -1    0    0  502    0  0.00000000000E+00  0.00000000000E+00  0.14451403731E+03  0.14451403731E+03  0.00000000000E+00 0. -1.
         -2   -1    0    0    0  501 -0.00000000000E+00 -0.00000000000E+00 -0.49847669866E+03  0.49847669866E+03  0.00000000000E+00 0.  1.
          6    1    1    2  502    0 -0.16477041647E+03  0.12283605479E+03 -0.15942195198E+03  0.31182903212E+03  0.17200000000E+03 0.  1.
         -6    1    1    2    0  501  0.16477041647E+03 -0.12283605479E+03 -0.19454070937E+03  0.33116170386E+03  0.17200000000E+03 0.  1.
</event>
<event>
 4    1  0.6365520E-002  0.3019083E+03  0.7818608E-02  0.1084291E+00
         -1   -1    0    0    0  501 -0.00000000000E+00  0.00000000000E+00  0.24112008530E+03  0.24112008530E+03  0.00000000000E+00 0.  1.
          1   -1    0    0  502    0  0.00000000000E+00 -0.00000000000E+00 -0.37802938190E+03  0.37802938190E+03  0.00000000000E+00 0. -1.
          6    1    1    2  502    0 -0.17039830128E+03  0.18035814806E+03 -0.67065960165E+02  0.30926766023E+03  0.17200000000E+03 0. -1.
         -6    1    1    2    0  501  0.17039830128E+03 -0.18035814806E+03 -0.69843336436E+02  0.30988180698E+03  0.17200000000E+03 0.  1.
</event>
<event>
 4    1  0.6365520E-002  0.1788399E+03  0.7818608E-02  0.1168931E+00
         -2   -1    0    0    0  501 -0.00000000000E+00  0.00000000000E+00  0.88801788687E+02  0.88801788687E+02  0.00000000000E+00 0.  1.
          2   -1    0    0  502    0  0.00000000000E+00 -0.00000000000E+00 -0.80713038922E+03  0.80713038922E+03  0.00000000000E+00 0. -1.
          6    1    1    2  502    0 -0.44572688478E+02 -0.20322197905E+02 -0.69252004121E+03  0.71523962681E+03  0.17200000000E+03 0. -1.
         -6    1    1    2    0  501  0.44572688478E+02  0.20322197905E+02 -0.25808559321E+02  0.18069255109E+03  0.17200000000E+03 0.  1.
</event>
<event>
 4    1  0.6365520E-002  0.2693966E+03  0.7818608E-02  0.1101625E+00
          1   -1    0    0  502    0  0.00000000000E+00  0.00000000000E+00  0.77967008754E+03  0.77967008754E+03  0.00000000000E+00 0. -1.
         -1   -1    0    0    0  501 -0.00000000000E+00 -0.00000000000E+00 -0.10719592222E+03  0.10719592222E+03  0.00000000000E+00 0.  1.
          6    1    1    2  502    0  0.17840900028E+03 -0.10564445873E+03  0.17534390057E+03  0.32143429579E+03  0.17200000000E+03 0. -1.
         -6    1    1    2    0  501 -0.17840900028E+03  0.10564445873E+03  0.49713026475E+03  0.56543171398E+03  0.17200000000E+03 0.  1.
</event>
<event>
 4    1  0.6365520E-002  0.2146343E+03  0.7818608E-02  0.1137948E+00
         -2   -1    0    0    0  501 -0.00000000000E+00  0.00000000000E+00  0.46881613390E+02  0.46881613390E+02  0.00000000000E+00 0.  1.
          2   -1    0    0  502    0  0.00000000000E+00 -0.00000000000E+00 -0.13138669524E+04  0.13138669524E+04  0.00000000000E+00 0. -1.
          6    1    1    2  502    0  0.12831468742E+03 -0.43851806540E+01 -0.97510463055E+03  0.99844725916E+03  0.17200000000E+03 0. -1.
         -6    1    1    2    0  501 -0.12831468742E+03  0.43851806540E+01 -0.29188070851E+03  0.36230130667E+03  0.17200000000E+03 0. -1.
</event>
<event>
 4    1  0.6365520E-002  0.1989991E+03  0.7818608E-02  0.1150586E+00
          2   -1    0    0  502    0  0.00000000000E+00  0.00000000000E+00  0.15820574181E+04  0.15820574181E+04  0.00000000000E+00 0. -1.
         -2   -1    0    0    0  501 -0.00000000000E+00 -0.00000000000E+00 -0.26968515245E+02  0.26968515245E+02  0.00000000000E+00 0.  1.
          6    1    1    2  502    0  0.11718731402E+02 -0.99394719890E+02  0.99317772450E+03  0.10129178799E+04  0.17200000000E+03 0. -1.
         -6    1    1    2    0  501 -0.11718731402E+02  0.99394719890E+02  0.56191117839E+03  0.59610805347E+03  0.17200000000E+03 0.  1.
</event>
<event>
 4    1  0.6365520E-002  0.2282158E+03  0.7818608E-02  0.1127902E+00
         -2   -1    0    0    0  501 -0.00000000000E+00  0.00000000000E+00  0.83928612811E+02  0.83928612811E+02  0.00000000000E+00 0.  1.
          2   -1    0    0  502    0  0.00000000000E+00 -0.00000000000E+00 -0.66949158621E+03  0.66949158621E+03  0.00000000000E+00 0. -1.
          6    1    1    2  502    0  0.19743955345E+01  0.14998186309E+03 -0.39462755887E+03  0.45586551495E+03  0.17200000000E+03 0. -1.
         -6    1    1    2    0  501 -0.19743955345E+01 -0.14998186309E+03 -0.19093541453E+03  0.29755468407E+03  0.17200000000E+03 0.  1.
</event>
<event>
 4    1  0.6365520E-002  0.7846181E+03  0.7818608E-02  0.9582553E-01
         -2   -1    0    0    0  501 -0.00000000000E+00  0.00000000000E+00  0.99231127248E+03  0.99231127248E+03  0.00000000000E+00 0.  1.
          2   -1    0    0  502    0  0.00000000000E+00 -0.00000000000E+00 -0.65909701025E+03  0.65909701025E+03  0.00000000000E+00 0. -1.
          6    1    1    2  502    0  0.25591614115E+03  0.72149046652E+03 -0.33477204498E+02  0.78533196026E+03  0.17200000000E+03 0. -1.
         -6    1    1    2    0  501 -0.25591614115E+03 -0.72149046652E+03  0.36669146672E+03  0.86607632248E+03  0.17200000000E+03 0.  1.
</event>
<event>
 4    1  0.6365520E-002  0.2474738E+03  0.7818608E-02  0.1114912E+00
          1   -1    0    0  502    0  0.00000000000E+00  0.00000000000E+00  0.44157285334E+03  0.44157285334E+03  0.00000000000E+00 0. -1.
         -1   -1    0    0    0  501 -0.00000000000E+00 -0.00000000000E+00 -0.24857774277E+03  0.24857774277E+03  0.00000000000E+00 0.  1.
          6    1    1    2  502    0 -0.16114268690E+03 -0.75447393779E+02  0.32592771387E+03  0.40923361230E+03  0.17200000000E+03 0. -1.
         -6    1    1    2    0  501  0.16114268690E+03  0.75447393779E+02 -0.13293260331E+03  0.28091698381E+03  0.17200000000E+03 0.  1.
</event>
<event>
 4    1  0.6365520E-002  0.2721949E+03  0.7818608E-02  0.1100030E+00
          3   -1    0    0  502    0  0.00000000000E+00  0.00000000000E+00  0.64155862773E+03  0.64155862773E+03  0.00000000000E+00 0. -1.
         -3   -1    0    0    0  501 -0.00000000000E+00 -0.00000000000E+00 -0.11651434742E+03  0.11651434742E+03  0.00000000000E+00 0.  1.
          6    1    1    2  502    0  0.19397714335E+03  0.82939233398E+02  0.29815799754E+03  0.40371802049E+03  0.17200000000E+03 0. -1.
         -6    1    1    2    0  501 -0.19397714335E+03 -0.82939233398E+02  0.22688628277E+03  0.35435495465E+03  0.17200000000E+03 0.  1.
</event>
<event>
 4    1  0.6365520E-002  0.1773411E+03  0.7818608E-02  0.1170401E+00
         -2   -1    0    0    0  501 -0.00000000000E+00  0.00000000000E+00  0.19146817423E+03  0.19146817423E+03  0.00000000000E+00 0.  1.
          2   -1    0    0  502    0  0.00000000000E+00 -0.00000000000E+00 -0.57195584290E+03  0.57195584290E+03  0.00000000000E+00 0. -1.
          6    1    1    2  502    0 -0.11537231536E+02  0.41626523799E+02 -0.51251735640E+03  0.54233192402E+03  0.17200000000E+03 0. -1.
         -6    1    1    2    0  501  0.11537231536E+02 -0.41626523799E+02  0.13202968773E+03  0.22109209312E+03  0.17200000000E+03 0.  1.
</event>
<event>
 4    1  0.6365520E-002  0.3791007E+03  0.7818608E-02  0.1051267E+00
          1   -1    0    0  502    0  0.00000000000E+00  0.00000000000E+00  0.18793692731E+03  0.18793692731E+03  0.00000000000E+00 0. -1.
         -1   -1    0    0    0  501 -0.00000000000E+00 -0.00000000000E+00 -0.82023233912E+03  0.82023233912E+03  0.00000000000E+00 0.  1.
          6    1    1    2  502    0 -0.33533569888E+03  0.41028594222E+02 -0.44729707664E+03  0.58633783031E+03  0.17200000000E+03 0.  1.
         -6    1    1    2    0  501  0.33533569888E+03 -0.41028594222E+02 -0.18499833516E+03  0.42183143612E+03  0.17200000000E+03 0.  1.
</event>
<event>
 4    1  0.6365520E-002  0.3713263E+03  0.7818608E-02  0.1054187E+00
          1   -1    0    0  502    0  0.00000000000E+00  0.00000000000E+00  0.11670833680E+03  0.11670833680E+03  0.00000000000E+00 0. -1.
         -1   -1    0    0    0  501 -0.00000000000E+00 -0.00000000000E+00 -0.11817805153E+04  0.11817805153E+04  0.00000000000E+00 0.  1.
          6    1    1    2  502    0 -0.28362159033E+03 -0.16690712708E+03 -0.54365365412E+03  0.65836349475E+03  0.17200000000E+03 0. -1.
         -6    1    1    2    0  501  0.28362159033E+03  0.16690712708E+03 -0.52141852440E+03  0.64012535738E+03  0.17200000000E+03 0.  1.
</event>
<event>
 4    1  0.6365520E-002  0.2425160E+03  0.7818608E-02  0.1118128E+00
         -2   -1    0    0    0  501 -0.00000000000E+00  0.00000000000E+00  0.53027026118E+02  0.53027026118E+02  0.00000000000E+00 0.  1.
          2   -1    0    0  502    0  0.00000000000E+00 -0.00000000000E+00 -0.11616437806E+04  0.11616437806E+04  0.00000000000E+00 0. -1.
          6    1    1    2  502    0 -0.16766658202E+03  0.33435374544E+02 -0.42518118164E+03  0.48948242483E+03  0.17200000000E+03 0. -1.
         -6    1    1    2    0  501  0.16766658202E+03 -0.33435374544E+02 -0.68343557283E+03  0.72518838187E+03  0.17200000000E+03 0.  1.
</event>
<event>
 4    1  0.6365520E-002  0.3500924E+03  0.7818608E-02  0.1062577E+00
          2   -1    0    0  502    0  0.00000000000E+00  0.00000000000E+00  0.27171371944E+04  0.27171371944E+04  0.00000000000E+00 0. -1.
         -2   -1    0    0    0  501 -0.00000000000E+00 -0.00000000000E+00 -0.47482856918E+02  0.47482856918E+02  0.00000000000E+00 0.  1.
          6    1    1    2  502    0  0.25485926966E+03 -0.16741407429E+03  0.10256890473E+04  0.10837909122E+04  0.17200000000E+03 0. -1.
         -6    1    1    2    0  501 -0.25485926966E+03  0.16741407429E+03  0.16439652902E+04  0.16808291391E+04  0.17200000000E+03 0.  1.
</event>
<event>
 4    1  0.6365520E-002  0.2279233E+03  0.7818608E-02  0.1128110E+00
         -1   -1    0    0    0  501 -0.00000000000E+00  0.00000000000E+00  0.43283640727E+02  0.43283640727E+02  0.00000000000E+00 0.  1.
          1   -1    0    0  502    0  0.00000000000E+00 -0.00000000000E+00 -0.13816493230E+04  0.13816493230E+04  0.00000000000E+00 0. -1.
          6    1    1    2  502    0  0.10100285058E+03 -0.11028795124E+03 -0.41099030365E+03  0.46995961285E+03  0.17200000000E+03 0.  1.
         -6    1    1    2    0  501 -0.10100285058E+03  0.11028795124E+03 -0.92737537862E+03  0.95497335087E+03  0.17200000000E+03 0. -1.
</event>
<event>
 4    1  0.6365520E-002  0.4946597E+03  0.7818608E-02  0.1015182E+00
         -2   -1    0    0    0  501 -0.00000000000E+00  0.00000000000E+00  0.16895321747E+03  0.16895321747E+03  0.00000000000E+00 0.  1.
          2   -1    0    0  502    0  0.00000000000E+00 -0.00000000000E+00 -0.14500861162E+04  0.14500861162E+04  0.00000000000E+00 0. -1.
          6    1    1    2  502    0  0.42943227188E+03 -0.17519166764E+03 -0.61183961203E+03  0.78678834981E+03  0.17200000000E+03 0.  1.
         -6    1    1    2    0  501 -0.42943227188E+03  0.17519166764E+03 -0.66929328671E+03  0.83225098388E+03  0.17200000000E+03 0.  1.
</event>
<event>
 4    1  0.6365520E-002  0.3104042E+03  0.7818608E-02  0.1080152E+00
         -2   -1    0    0    0  501 -0.00000000000E+00  0.00000000000E+00  0.91231778647E+02  0.91231778647E+02  0.00000000000E+00 0.  1.
          2   -1    0    0  502    0  0.00000000000E+00 -0.00000000000E+00 -0.10660067798E+04  0.10660067798E+04  0.00000000000E+00 0. -1.
          6    1    1    2  502    0 -0.10288410354E+03 -0.23702664061E+03 -0.54314024799E+03  0.62558140646E+03  0.17200000000E+03 0. -1.
         -6    1    1    2    0  501  0.10288410354E+03  0.23702664061E+03 -0.43163475316E+03  0.53165715198E+03  0.17200000000E+03 0.  1.
</event>
<event>
 4    1  0.6365520E-002  0.4886341E+03  0.7818608E-02  0.1016789E+00
          2   -1    0    0  502    0  0.00000000000E+00  0.00000000000E+00  0.16100845284E+04  0.16100845284E+04  0.00000000000E+00 0. -1.
         -2   -1    0    0    0  501 -0.00000000000E+00 -0.00000000000E+00 -0.14833696279E+03  0.14833696279E+03  0.00000000000E+00 0.  1.
          6    1    1    2  502    0 -0.45229026108E+03  0.67917523177E+02  0.74611575940E+03  0.89188115613E+03  0.17200000000E+03 0. -1.
         -6    1    1    2    0  501  0.45229026108E+03 -0.67917523177E+02  0.71563180624E+03  0.86654033508E+03  0.17200000000E+03 0.  1.
</event>
<event>
 4    1  0.6365520E-002  0.5370113E+03  0.7818608E-02  0.1004546E+00
         -1   -1    0    0    0  501 -0.00000000000E+00  0.00000000000E+00  0.21280010070E+03  0.21280010070E+03  0.00000000000E+00 0.  1.
          1   -1    0    0  502    0  0.00000000000E+00 -0.00000000000E+00 -0.13680153176E+04  0.13680153176E+04  0.00000000000E+00 0. -1.
          6    1    1    2  502    0 -0.21808030394E+03 -0.45960652538E+03 -0.50102865800E+03  0.73444597710E+03  0.17200000000E+03 0. -1.
         -6    1    1    2    0  501  0.21808030394E+03  0.45960652538E+03 -0.65418655887E+03  0.84636944117E+03  0.17200000000E+03 0.  1.
</event>
<event>
 4    1  0.6365520E-002  0.1996581E+03  0.7818608E-02  0.1150028E+00
         -2   -1    0    0    0  501 -0.00000000000E+00  0.00000000000E+00  0.46910124155E+02  0.46910124155E+02  0.00000000000E+00 0.  1.
          2   -1    0    0  502    0  0.00000000000E+00 -0.00000000000E+00 -0.84978811974E+03  0.84978811974E+03  0.00000000000E+00 0. -1.
          6    1    1    2  502    0  0.73509227388E+02 -0.69826630918E+02 -0.40267162482E+03  0.44945278098E+03  0.17200000000E+03 0.  1.
         -6    1    1    2    0  501 -0.73509227388E+02  0.69826630918E+02 -0.40020637077E+03  0.44724546292E+03  0.17200000000E+03 0. -1.
</event>
<event>
 4    1  0.6365520E-002  0.2142734E+03  0.7818608E-02  0.1138226E+00
         -1   -1    0    0    0  501 -0.00000000000E+00  0.00000000000E+00  0.93753072317E+02  0.93753072317E+02  0.00000000000E+00 0.  1.
          1   -1    0    0  502    0  0.00000000000E+00 -0.00000000000E+00 -0.55632348174E+03  0.55632348174E+03  0.00000000000E+00 0. -1.
          6    1    1    2  502    0 -0.75543330346E+02  0.10306454086E+03 -0.11882277501E+03  0.24501417552E+03  0.17200000000E+03 0.  1.
         -6    1    1    2    0  501  0.75543330346E+02 -0.10306454086E+03 -0.34374763441E+03  0.40506237853E+03  0.17200000000E+03 0. -1.
</event>
<event>
 4    1  0.6365520E-002  0.1793949E+03  0.7818608E-02  0.1168390E+00
         -1   -1    0    0    0  501 -0.00000000000E+00  0.00000000000E+00  0.63632612424E+02  0.63632612424E+02  0.00000000000E+00 0.  1.
          1   -1    0    0  502    0  0.00000000000E+00 -0.00000000000E+00 -0.70656752204E+03  0.70656752204E+03  0.00000000000E+00 0. -1.
          6    1    1    2  502    0 -0.42809289570E+02 -0.27674860221E+02 -0.52676879902E+03  0.55647812246E+03  0.17200000000E+03 0. -1.
         -6    1    1    2    0  501  0.42809289570E+02  0.27674860221E+02 -0.11616611059E+03  0.21372201200E+03  0.17200000000E+03 0.  1.
</event>
<event>
 4    1  0.6365520E-002  0.2096867E+03  0.7818608E-02  0.1141814E+00
         -1   -1    0    0    0  501 -0.00000000000E+00  0.00000000000E+00  0.72022433976E+03  0.72022433976E+03  0.00000000000E+00 0.  1.
          1   -1    0    0  502    0  0.00000000000E+00 -0.00000000000E+00 -0.87163875231E+02  0.87163875231E+02  0.00000000000E+00 0. -1.
          6    1    1    2  502    0 -0.76771114053E+02  0.92145084047E+02  0.95560200250E+02  0.23043496336E+03  0.17200000000E+03 0. -1.
         -6    1    1    2    0  501  0.76771114053E+02 -0.92145084047E+02  0.53750026428E+03  0.57695325163E+03  0.17200000000E+03 0.  1.
</event>
<event>
 4    1  0.6365520E-002  0.2498055E+03  0.7818608E-02  0.1113428E+00
          4   -1    0    0  502    0  0.00000000000E+00  0.00000000000E+00  0.94236858121E+02  0.94236858121E+02  0.00000000000E+00 0. -1.
         -4   -1    0    0    0  501 -0.00000000000E+00 -0.00000000000E+00 -0.66303762526E+03  0.66303762526E+03  0.00000000000E+00 0.  1.
          6    1    1    2  502    0  0.85063481101E+02  0.15994691894E+03 -0.27087145397E+03  0.36847545002E+03  0.17200000000E+03 0. -1.
         -6    1    1    2    0  501 -0.85063481101E+02 -0.15994691894E+03 -0.29792931317E+03  0.38879903335E+03  0.17200000000E+03 0.  1.
</event>
<event>
 4    1  0.6365520E-002  0.1755304E+03  0.7818608E-02  0.1172200E+00
         -1   -1    0    0    0  501 -0.00000000000E+00  0.00000000000E+00  0.20621212483E+03  0.20621212483E+03  0.00000000000E+00 0.  1.
          1   -1    0    0  502    0  0.00000000000E+00 -0.00000000000E+00 -0.14965341144E+03  0.14965341144E+03  0.00000000000E+00 0. -1.
          6    1    1    2  502    0 -0.15357385214E+02  0.31481052890E+02  0.21157331648E+02  0.17680084461E+03  0.17200000000E+03 0. -1.
         -6    1    1    2    0  501  0.15357385214E+02 -0.31481052890E+02  0.35401381741E+02  0.17906469166E+03  0.17200000000E+03 0.  1.
</event>
<event>
 4    1  0.6365520E-002  0.2427956E+03  0.7818608E-02  0.1117944E+00
          2   -1    0    0  502    0  0.00000000000E+00  0.00000000000E+00  0.22686339156E+03  0.22686339156E+03  0.00000000000E+00 0. -1.
         -2   -1    0    0    0  501 -0.00000000000E+00 -0.00000000000E+00 -0.27036969505E+03  0.27036969505E+03  0.00000000000E+00 0.  1.
          6    1    1    2  502    0  0.17059536192E+03  0.16215071222E+02 -0.70801059161E+02  0.25290807821E+03  0.17200000000E+03 0. -1.
         -6    1    1    2    0  501 -0.17059536192E+03 -0.16215071222E+02  0.27294755669E+02  0.24432500840E+03  0.17200000000E+03 0.  1.
</event>
<event>
 4    1  0.6365520E-002  0.2055894E+03  0.7818608E-02  0.1145107E+00
         -2   -1    0    0    0  501 -0.00000000000E+00  0.00000000000E+00  0.20878560081E+02  0.20878560081E+02  0.00000000000E+00 0.  1.
          2   -1    0    0  502    0  0.00000000000E+00 -0.00000000000E+00 -0.35128201279E+04  0.35128201279E+04  0.00000000000E+00 0. -1.
          6    1    1    2  502    0 -0.17313473554E+02  0.11128002048E+03 -0.28960592283E+04  0.29033473876E+04  0.17200000000E+03 0. -1.
         -6    1    1    2    0  501  0.17313473554E+02 -0.11128002048E+03 -0.59588233945E+03  0.63035130030E+03  0.17200000000E+03 0.  1.
</event>
<event>
 4    1  0.6365520E-002  0.1745105E+03  0.7818608E-02  0.1173224E+00
          1   -1    0    0  502    0  0.00000000000E+00  0.00000000000E+00  0.15923555796E+04  0.15923555796E+04  0.00000000000E+00 0. -1.
         -1   -1    0    0    0  501 -0.00000000000E+00 -0.00000000000E+00 -0.21274717484E+02  0.21274717484E+02  0.00000000000E+00 0.  1.
          6    1    1    2  502    0  0.43499008122E+01  0.29171635004E+02  0.10420042748E+04  0.10565163579E+04  0.17200000000E+03 0. -1.
         -6    1    1    2    0  501 -0.43499008122E+01 -0.29171635004E+02  0.52907658733E+03  0.55711393914E+03  0.17200000000E+03 0.  1.
</event>
<event>
 4    1  0.6365520E-002  0.1840135E+03  0.7818608E-02  0.1163974E+00
         -2   -1    0    0    0  501 -0.00000000000E+00  0.00000000000E+00  0.15725096626E+03  0.15725096626E+03  0.00000000000E+00 0.  1.
          2   -1    0    0  502    0  0.00000000000E+00 -0.00000000000E+00 -0.35726154705E+03  0.35726154705E+03  0.00000000000E+00 0. -1.
          6    1    1    2  502    0 -0.44208737806E+02 -0.48192967984E+02  0.62142512958E+02  0.19422323903E+03  0.17200000000E+03 0.  1.
         -6    1    1    2    0  501  0.44208737806E+02  0.48192967984E+02 -0.26215309374E+03  0.32028927428E+03  0.17200000000E+03 0. -1.
</event>
<event>
 4    1  0.6365520E-002  0.1959943E+03  0.7818608E-02  0.1153163E+00
          2   -1    0    0  502    0  0.00000000000E+00  0.00000000000E+00  0.19023769768E+03  0.19023769768E+03  0.00000000000E+00 0. -1.
         -2   -1    0    0    0  501 -0.00000000000E+00 -0.00000000000E+00 -0.23392511833E+03  0.23392511833E+03  0.00000000000E+00 0.  1.
          6    1    1    2  502    0  0.65231612053E+02 -0.67635749193E+02  0.56596650083E+02  0.20400230043E+03  0.17200000000E+03 0. -1.
         -6    1    1    2    0  501 -0.65231612053E+02  0.67635749193E+02 -0.10028407073E+03  0.22016051558E+03  0.17200000000E+03 0.  1.
</event>
<event>
 4    1  0.6365520E-002  0.3314616E+03  0.7818608E-02  0.1070492E+00
         -2   -1    0    0    0  501 -0.00000000000E+00  0.00000000000E+00  0.10172488632E+03  0.10172488632E+03  0.00000000000E+00 0.  1.
          2   -1    0    0  502    0  0.00000000000E+00 -0.00000000000E+00 -0.10862461374E+04  0.10862461374E+04  0.00000000000E+00 0. -1.
          6    1    1    2  502    0  0.27268342425E+03 -0.76984008977E+02 -0.53716379613E+03  0.63119864652E+03  0.17200000000E+03 0. -1.
         -6    1    1    2    0  501 -0.27268342425E+03  0.76984008977E+02 -0.44735745490E+03  0.55677237715E+03  0.17200000000E+03 0.  1.
</event>
<event>
 4    1  0.6365520E-002  0.2961726E+03  0.7818608E-02  0.1087170E+00
          1   -1    0    0  502    0  0.00000000000E+00  0.00000000000E+00  0.44509980267E+03  0.44509980267E+03  0.00000000000E+00 0. -1.
         -1   -1    0    0    0  501 -0.00000000000E+00 -0.00000000000E+00 -0.35179685549E+03  0.35179685549E+03  0.00000000000E+00 0.  1.
          6    1    1    2  502    0 -0.19462439498E+03  0.14232206374E+03  0.31089313666E+03  0.42938650115E+03  0.17200000000E+03 0. -1.
         -6    1    1    2    0  501  0.19462439498E+03 -0.14232206374E+03 -0.21759018947E+03  0.36751015701E+03  0.17200000000E+03 0.  1.
</event>
<event>
 4    1  0.6365520E-002  0.1779367E+03  0.7818608E-02  0.1169815E+00
         -2   -1    0    0    0  501 -0.00000000000E+00  0.00000000000E+00  0.29334556969E+02  0.29334556969E+02  0.00000000000E+00 0.  1.
          2   -1    0    0  502    0  0.00000000000E+00 -0.00000000000E+00 -0.11765838919E+04  0.11765838919E+04  0.00000000000E+00 0. -1.
          6    1    1    2  502    0  0.32935307897E+02 -0.31507466936E+02 -0.74698357241E+03  0.76788404882E+03  0.17200000000E+03 0. -1.
         -6    1    1    2    0  501 -0.32935307897E+02  0.31507466936E+02 -0.40026576249E+03  0.43803440002E+03  0.17200000000E+03 0.  1.
</event>
<event>
 4    1  0.6365520E-002  0.2101163E+03  0.7818608E-02  0.1141474E+00
          2   -1    0    0  502    0  0.00000000000E+00  0.00000000000E+00  0.23496458023E+03  0.23496458023E+03  0.00000000000E+00 0. -1.
         -2   -1    0    0    0  501 -0.00000000000E+00 -0.00000000000E+00 -0.19921582564E+03  0.19921582564E+03  0.00000000000E+00 0.  1.
          6    1    1    2  502    0  0.28260939263E+02  0.11732929438E+03  0.69623517192E+02  0.22135102926E+03  0.17200000000E+03 0. -1.
         -6    1    1    2    0  501 -0.28260939263E+02 -0.11732929438E+03 -0.33874762608E+02  0.21282937661E+03  0.17200000000E+03 0.  1.
</event>
<event>
 4    1  0.6365520E-002  0.2058275E+03  0.7818608E-02  0.1144913E+00
         -2   -1    0    0    0  501 -0.00000000000E+00  0.00000000000E+00  0.43420092761E+03  0.43420092761E+03  0.00000000000E+00 0.  1.
          2   -1    0    0  502    0  0.00000000000E+00 -0.00000000000E+00 -0.10439613722E+03  0.10439613722E+03  0.00000000000E+00 0. -1.
          6    1    1    2  502    0 -0.32115282291E+02  0.10839548053E+03  0.96040300708E+02  0.22713148376E+03  0.17200000000E+03 0. -1.
         -6    1    1    2    0  501  0.32115282291E+02 -0.10839548053E+03  0.23376448968E+03  0.31146558107E+03  0.17200000000E+03 0.  1.
</event>
<event>
 4    1  0.6365520E-002  0.2443035E+03  0.7818608E-02  0.1116959E+00
         -3   -1    0    0    0  501 -0.00000000000E+00  0.00000000000E+00  0.12287269292E+04  0.12287269292E+04  0.00000000000E+00 0.  1.
          3   -1    0    0  502    0  0.00000000000E+00 -0.00000000000E+00 -0.68890050277E+02  0.68890050277E+02  0.00000000000E+00 0. -1.
          6    1    1    2  502    0  0.14863415760E+03  0.89487839457E+02  0.22758174568E+03  0.33388266978E+03  0.17200000000E+03 0. -1.
         -6    1    1    2    0  501 -0.14863415760E+03 -0.89487839457E+02  0.93225513320E+03  0.96373430965E+03  0.17200000000E+03 0.  1.
</event>
<event>
 4    1  0.6365520E-002  0.3056566E+03  0.7818608E-02  0.1082447E+00
          2   -1    0    0  502    0  0.00000000000E+00  0.00000000000E+00  0.30340683278E+03  0.30340683278E+03  0.00000000000E+00 0. -1.
         -2   -1    0    0    0  501 -0.00000000000E+00 -0.00000000000E+00 -0.38528223624E+03  0.38528223624E+03  0.00000000000E+00 0.  1.
          6    1    1    2  502    0 -0.19435032358E+03 -0.16146169996E+03  0.11336016131E+03  0.32600069785E+03  0.17200000000E+03 0. -1.
         -6    1    1    2    0  501  0.19435032358E+03  0.16146169996E+03 -0.19523556477E+03  0.36268837117E+03  0.17200000000E+03 0.  1.
</event>
<event>
 4    1  0.6365520E-002  0.1736849E+03  0.7818608E-02  0.1174059E+00
          1   -1    0    0  502    0  0.00000000000E+00  0.00000000000E+00  0.20514071550E+04  0.20514071550E+04  0.00000000000E+00 0. -1.
         -1   -1    0    0    0  501 -0.00000000000E+00 -0.00000000000E+00 -0.53612076457E+02  0.53612076457E+02  0.00000000000E+00 0.  1.
          6    1    1    2  502    0  0.88148654836E+01  0.22466424961E+02  0.18955160431E+04  0.19034567270E+04  0.17200000000E+03 0. -1.
         -6    1    1    2    0  501 -0.88148654836E+01 -0.22466424961E+02  0.10227903551E+03  0.20156250447E+03  0.17200000000E+03 0.  1.
</event>
<event>
 4    1  0.6365520E-002  0.8026529E+03  0.7818608E-02  0.9556185E-01
          2   -1    0    0  502    0  0.00000000000E+00  0.00000000000E+00  0.74438738414E+03  0.74438738414E+03  0.00000000000E+00 0. -1.
         -2   -1    0    0    0  501 -0.00000000000E+00 -0.00000000000E+00 -0.88699525305E+03  0.88699525305E+03  0.00000000000E+00 0.  1.
          6    1    1    2  502    0 -0.18960798122E+03 -0.76073415744E+03  0.55738430074E+02  0.80458586703E+03  0.17200000000E+03 0. -1.
         -6    1    1    2    0  501  0.18960798122E+03  0.76073415744E+03 -0.19834629899E+03  0.82679677017E+03  0.17200000000E+03 0.  1.
</event>
<event>
 4    1  0.6365520E-002  0.4334578E+03  0.7818608E-02  0.1032773E+00
          2   -1    0    0  502    0  0.00000000000E+00  0.00000000000E+00  0.28086051458E+04  0.28086051458E+04  0.00000000000E+00 0. -1.
         -2   -1    0    0    0  501 -0.00000000000E+00 -0.00000000000E+00 -0.85794042617E+03  0.85794042617E+03  0.00000000000E+00 0.  1.
          6    1    1    2  502    0  0.26254591539E+03  0.29895030541E+03  0.27356816369E+04  0.27698085965E+04  0.17200000000E+03 0. -1.
         -6    1    1    2    0  501 -0.26254591539E+03 -0.29895030541E+03 -0.78501691727E+03  0.89673697547E+03  0.17200000000E+03 0.  1.
</event>
<event>
 4    1  0.6365520E-002  0.4948816E+03  0.7818608E-02  0.1015124E+00
         -1   -1    0    0    0  501 -0.00000000000E+00  0.00000000000E+00  0.49319473534E+03  0.49319473534E+03  0.00000000000E+00 0.  1.
          1   -1    0    0  502    0  0.00000000000E+00 -0.00000000000E+00 -0.50425607643E+03  0.50425607643E+03  0.00000000000E+00 0. -1.
          6    1    1    2  502    0 -0.53038113560E+02  0.46098890393E+03 -0.67086312841E+02  0.49940803399E+03  0.17200000000E+03 0. -1.
         -6    1    1    2    0  501  0.53038113560E+02 -0.46098890393E+03  0.56024971754E+02  0.49804277778E+03  0.17200000000E+03 0.  1.
</event>
<event>
 4    1  0.6365520E-002  0.2482694E+03  0.7818608E-02  0.1114403E+00
          1   -1    0    0  502    0  0.00000000000E+00  0.00000000000E+00  0.19671027350E+04  0.19671027350E+04  0.00000000000E+00 0. -1.
         -1   -1    0    0    0  501 -0.00000000000E+00 -0.00000000000E+00 -0.72648069798E+02  0.72648069798E+02  0.00000000000E+00 0.  1.
          6    1    1    2  502    0  0.31355419292E+02  0.17626841526E+03  0.17163270983E+04  0.17341904235E+04  0.17200000000E+03 0. -1.
         -6    1    1    2    0  501 -0.31355419292E+02 -0.17626841526E+03  0.17812756689E+03  0.30556038131E+03  0.17200000000E+03 0.  1.
</event>
<event>
 4    1  0.6365520E-002  0.2125943E+03  0.7818608E-02  0.1139528E+00
         -4   -1    0    0    0  501 -0.00000000000E+00  0.00000000000E+00  0.11898653604E+03  0.11898653604E+03  0.00000000000E+00 0.  1.
          4   -1    0    0  502    0  0.00000000000E+00 -0.00000000000E+00 -0.48576228011E+03  0.48576228011E+03  0.00000000000E+00 0. -1.
          6    1    1    2  502    0 -0.75212448153E+02  0.99776800862E+02 -0.32458263465E+03  0.38800800129E+03  0.17200000000E+03 0. -1.
         -6    1    1    2    0  501  0.75212448153E+02 -0.99776800862E+02 -0.42193109417E+02  0.21674081487E+03  0.17200000000E+03 0.  1.
</event>
<event>
 4    1  0.6365520E-002  0.2294016E+03  0.7818608E-02  0.1127062E+00
         -2   -1    0    0    0  501 -0.00000000000E+00  0.00000000000E+00  0.32400009490E+02  0.32400009490E+02  0.00000000000E+00 0.  1.
          2   -1    0    0  502    0  0.00000000000E+00 -0.00000000000E+00 -0.21780301476E+04  0.21780301476E+04  0.00000000000E+00 0. -1.
          6    1    1    2  502    0 -0.95095201960E+02 -0.11831321586E+03 -0.16301173518E+04  0.16461797274E+04  0.17200000000E+03 0. -1.
         -6    1    1    2    0  501  0.95095201960E+02  0.11831321586E+03 -0.51551278633E+03  0.56425042964E+03  0.17200000000E+03 0.  1.
</event>
<event>
 4    1  0.6365520E-002  0.3122078E+03  0.7818608E-02  0.1079292E+00
         -2   -1    0    0    0  501 -0.00000000000E+00  0.00000000000E+00  0.51545063174E+02  0.51545063174E+02  0.00000000000E+00 0.  1.
          2   -1    0    0  502    0  0.00000000000E+00 -0.00000000000E+00 -0.20234550177E+04  0.20234550177E+04  0.00000000000E+00 0. -1.
          6    1    1    2  502    0  0.18696330272E+03 -0.18147845323E+03 -0.12513618815E+04  0.12897210024E+04  0.17200000000E+03 0. -1.
         -6    1    1    2    0  501 -0.18696330272E+03  0.18147845323E+03 -0.72054807299E+03  0.78527907845E+03  0.17200000000E+03 0.  1.
</event>
<event>
 4    1  0.6365520E-002  0.3573513E+03  0.7818608E-02  0.1059638E+00
         -1   -1    0    0    0  501 -0.00000000000E+00  0.00000000000E+00  0.34291374416E+03  0.34291374416E+03  0.00000000000E+00 0.  1.
          1   -1    0    0  502    0  0.00000000000E+00 -0.00000000000E+00 -0.37967095200E+03  0.37967095200E+03  0.00000000000E+00 0. -1.
          6    1    1    2  502    0  0.62973074047E+02 -0.30683928366E+03  0.31630446672E+02  0.35874843444E+03  0.17200000000E+03 0. -1.
         -6    1    1    2    0  501 -0.62973074047E+02  0.30683928366E+03 -0.68387654521E+02  0.36383626172E+03  0.17200000000E+03 0.  1.
</event>
<event>
 4    1  0.6365520E-002  0.3190117E+03  0.7818608E-02  0.1076105E+00
          2   -1    0    0  502    0  0.00000000000E+00  0.00000000000E+00  0.31021333196E+03  0.31021333196E+03  0.00000000000E+00 0. -1.
         -2   -1    0    0    0  501 -0.00000000000E+00 -0.00000000000E+00 -0.43482025011E+03  0.43482025011E+03  0.00000000000E+00 0.  1.
          6    1    1    2  502    0 -0.24132539194E+03  0.11809544572E+03 -0.24688848316E+03  0.40338864909E+03  0.17200000000E+03 0. -1.
         -6    1    1    2    0  501  0.24132539194E+03 -0.11809544572E+03  0.12228156501E+03  0.34164493298E+03  0.17200000000E+03 0.  1.
</event>
<event>
 4    1  0.6365520E-002  0.1971490E+03  0.7818608E-02  0.1152167E+00
          2   -1    0    0  502    0  0.00000000000E+00  0.00000000000E+00  0.43706964526E+03  0.43706964526E+03  0.00000000000E+00 0. -1.
         -2   -1    0    0    0  501 -0.00000000000E+00 -0.00000000000E+00 -0.10402927562E+03  0.10402927562E+03  0.00000000000E+00 0.  1.
          6    1    1    2  502    0  0.10573968185E+02 -0.95770154598E+02  0.26960047667E+03  0.33399423399E+03  0.17200000000E+03 0. -1.
         -6    1    1    2    0  501 -0.10573968185E+02  0.95770154598E+02  0.63439892971E+02  0.20710468690E+03  0.17200000000E+03 0.  1.
</event>
<event>
 4    1  0.6365520E-002  0.3042747E+03  0.7818608E-02  0.1083123E+00
          1   -1    0    0  502    0  0.00000000000E+00  0.00000000000E+00  0.15817430631E+04  0.15817430631E+04  0.00000000000E+00 0. -1.
         -1   -1    0    0    0  501 -0.00000000000E+00 -0.00000000000E+00 -0.79232435506E+02  0.79232435506E+02  0.00000000000E+00 0.  1.
          6    1    1    2  502    0 -0.24020227256E+03 -0.72814563174E+02  0.11757459394E+04  0.12144799736E+04  0.17200000000E+03 0. -1.
         -6    1    1    2    0  501  0.24020227256E+03  0.72814563174E+02  0.32676468816E+03  0.44649552493E+03  0.17200000000E+03 0.  1.
</event>
<event>
 4    1  0.6365520E-002  0.1845078E+03  0.7818608E-02  0.1163510E+00
         -4   -1    0    0    0  501 -0.00000000000E+00  0.00000000000E+00  0.12084596164E+03  0.12084596164E+03  0.00000000000E+00 0.  1.
          4   -1    0    0  502    0  0.00000000000E+00 -0.00000000000E+00 -0.51180528062E+03  0.51180528062E+03  0.00000000000E+00 0. -1.
          6    1    1    2  502    0 -0.38623284877E+02  0.54473563091E+02  0.16619466481E+02  0.18525478098E+03  0.17200000000E+03 0.  1.
         -6    1    1    2    0  501  0.38623284877E+02 -0.54473563091E+02 -0.40757878546E+03  0.44739646128E+03  0.17200000000E+03 0. -1.
</event>
<event>
 4    1  0.6365520E-002  0.2220214E+03  0.7818608E-02  0.1132385E+00
         -2   -1    0    0    0  501 -0.00000000000E+00  0.00000000000E+00  0.13507105584E+02  0.13507105584E+02  0.00000000000E+00 0.  1.
          2   -1    0    0  502    0  0.00000000000E+00 -0.00000000000E+00 -0.37118940792E+04  0.37118940792E+04  0.00000000000E+00 0. -1.
          6    1    1    2  502    0 -0.41998489007E+02  0.13396125552E+03 -0.20907923391E+04  0.21025475254E+04  0.17200000000E+03 0.  1.
         -6    1    1    2    0  501  0.41998489007E+02 -0.13396125552E+03 -0.16075946345E+04  0.16228536595E+04  0.17200000000E+03 0. -1.
</event>
<event>
 4    1  0.6365520E-002  0.3664797E+03  0.7818608E-02  0.1056047E+00
          2   -1    0    0  502    0  0.00000000000E+00  0.00000000000E+00  0.12153662736E+04  0.12153662736E+04  0.00000000000E+00 0. -1.
         -2   -1    0    0    0  501 -0.00000000000E+00 -0.00000000000E+00 -0.14864792014E+03  0.14864792014E+03  0.00000000000E+00 0.  1.
          6    1    1    2  502    0  0.35189941643E+02  0.32169086448E+03  0.18789659563E+03  0.41184035127E+03  0.17200000000E+03 0. -1.
         -6    1    1    2    0  501 -0.35189941643E+02 -0.32169086448E+03  0.87882175786E+03  0.95217384251E+03  0.17200000000E+03 0.  1.
</event>
<event>
 4    1  0.6365520E-002  0.3153348E+03  0.7818608E-02  0.1077817E+00
         -2   -1    0    0    0  501 -0.00000000000E+00  0.00000000000E+00  0.94201487631E+02  0.94201487631E+02  0.00000000000E+00 0.  1.
          2   -1    0    0  502    0  0.00000000000E+00 -0.00000000000E+00 -0.10558392516E+04  0.10558392516E+04  0.00000000000E+00 0. -1.
          6    1    1    2  502    0 -0.19726954243E+03  0.17588845320E+03 -0.47159227351E+03  0.56730529063E+03  0.17200000000E+03 0. -1.
         -6    1    1    2    0  501  0.19726954243E+03 -0.17588845320E+03 -0.49004549047E+03  0.58273544861E+03  0.17200000000E+03 0.  1.
</event>
<event>
 4    1  0.6365520E-002  0.4304361E+03  0.7818608E-02  0.1033722E+00
          2   -1    0    0  502    0  0.00000000000E+00  0.00000000000E+00  0.19708634845E+03  0.19708634845E+03  0.00000000000E+00 0. -1.
         -2   -1    0    0    0  501 -0.00000000000E+00 -0.00000000000E+00 -0.94687404176E+03  0.94687404176E+03  0.00000000000E+00 0.  1.
          6    1    1    2  502    0 -0.14509330966E+03  0.36693210420E+03 -0.42337511751E+03  0.60375634799E+03  0.17200000000E+03 0. -1.
         -6    1    1    2    0  501  0.14509330966E+03 -0.36693210420E+03 -0.32641257579E+03  0.54020404223E+03  0.17200000000E+03 0.  1.
</event>
<event>
 4    1  0.6365520E-002  0.3962209E+03  0.7818608E-02  0.1045096E+00
          2   -1    0    0  502    0  0.00000000000E+00  0.00000000000E+00  0.10711811113E+04  0.10711811113E+04  0.00000000000E+00 0. -1.
         -2   -1    0    0    0  501 -0.00000000000E+00 -0.00000000000E+00 -0.19747812334E+03  0.19747812334E+03  0.00000000000E+00 0.  1.
          6    1    1    2  502    0 -0.98016294426E+02  0.34321973646E+03  0.75895611252E+03  0.85615732328E+03  0.17200000000E+03 0. -1.
         -6    1    1    2    0  501  0.98016294426E+02 -0.34321973646E+03  0.11474687545E+03  0.41250191138E+03  0.17200000000E+03 0.  1.
</event>
<event>
 4    1  0.6365520E-002  0.2018497E+03  0.7818608E-02  0.1148188E+00
         -2   -1    0    0    0  501 -0.00000000000E+00  0.00000000000E+00  0.59966292097E+02  0.59966292097E+02  0.00000000000E+00 0.  1.
          2   -1    0    0  502    0  0.00000000000E+00 -0.00000000000E+00 -0.68097317700E+03  0.68097317700E+03  0.00000000000E+00 0. -1.
          6    1    1    2  502    0 -0.50595306796E+01 -0.10551627711E+03 -0.32810246437E+03  0.38522008088E+03  0.17200000000E+03 0.  1.
         -6    1    1    2    0  501  0.50595306796E+01  0.10551627711E+03 -0.29290442054E+03  0.35571938822E+03  0.17200000000E+03 0.  1.
</event>
<event>
 4    1  0.6365520E-002  0.2663313E+03  0.7818608E-02  0.1103398E+00
         -3   -1    0    0    0  501 -0.00000000000E+00  0.00000000000E+00  0.67520401101E+02  0.67520401101E+02  0.00000000000E+00 0.  1.
          3   -1    0    0  502    0  0.00000000000E+00 -0.00000000000E+00 -0.10640659663E+04  0.10640659663E+04  0.00000000000E+00 0. -1.
          6    1    1    2  502    0 -0.15968424376E+03 -0.12589400644E+03 -0.56208179839E+03  0.62198738463E+03  0.17200000000E+03 0. -1.
         -6    1    1    2    0  501  0.15968424376E+03  0.12589400644E+03 -0.43446376677E+03  0.50959898273E+03  0.17200000000E+03 0.  1.
</event>
<event>
 4    1  0.6365520E-002  0.3381829E+03  0.7818608E-02  0.1067572E+00
         -2   -1    0    0    0  501 -0.00000000000E+00  0.00000000000E+00  0.81851467745E+02  0.81851467745E+02  0.00000000000E+00 0.  1.
          2   -1    0    0  502    0  0.00000000000E+00 -0.00000000000E+00 -0.15264017871E+04  0.15264017871E+04  0.00000000000E+00 0. -1.
          6    1    1    2  502    0 -0.26720749292E+03 -0.11568854240E+03 -0.95617258113E+03  0.10142157995E+04  0.17200000000E+03 0. -1.
         -6    1    1    2    0  501  0.26720749292E+03  0.11568854240E+03 -0.48837773821E+03  0.59403745529E+03  0.17200000000E+03 0.  1.
</event>
<event>
 4    1  0.6365520E-002  0.3060501E+03  0.7818608E-02  0.1082255E+00
          3   -1    0    0  502    0  0.00000000000E+00  0.00000000000E+00  0.27573731097E+03  0.27573731097E+03  0.00000000000E+00 0. -1.
         -3   -1    0    0    0  501 -0.00000000000E+00 -0.00000000000E+00 -0.34701163699E+03  0.34701163699E+03  0.00000000000E+00 0.  1.
          6    1    1    2  502    0 -0.14121828961E+03 -0.21009541979E+03 -0.80849343416E+02  0.31654905950E+03  0.17200000000E+03 0. -1.
         -6    1    1    2    0  501  0.14121828961E+03  0.21009541979E+03  0.95750173976E+01  0.30619988846E+03  0.17200000000E+03 0.  1.
</event>
<event>
 4    1  0.6365520E-002  0.5023389E+03  0.7818608E-02  0.1013170E+00
         -1   -1    0    0    0  501 -0.00000000000E+00  0.00000000000E+00  0.34190421505E+03  0.34190421505E+03  0.00000000000E+00 0.  1.
          1   -1    0    0  502    0  0.00000000000E+00 -0.00000000000E+00 -0.91522936514E+03  0.91522936514E+03  0.00000000000E+00 0. -1.
          6    1    1    2  502    0  0.38546483052E+03 -0.27235502504E+03 -0.56322036647E+03  0.75469303458E+03  0.17200000000E+03 0. -1.
         -6    1    1    2    0  501 -0.38546483052E+03  0.27235502504E+03 -0.10104783620E+02  0.50244054562E+03  0.17200000000E+03 0.  1.
</event>
<event>
 4    1  0.6365520E-002  0.3226864E+03  0.7818608E-02  0.1074420E+00
         -3   -1    0    0    0  501 -0.00000000000E+00  0.00000000000E+00  0.22654772928E+03  0.22654772928E+03  0.00000000000E+00 0.  1.
          3   -1    0    0  502    0  0.00000000000E+00 -0.00000000000E+00 -0.45965190405E+03  0.45965190405E+03  0.00000000000E+00 0. -1.
          6    1    1    2  502    0 -0.23598038554E+03  0.13731624199E+03 -0.11382010063E+03  0.34217175217E+03  0.17200000000E+03 0. -1.
         -6    1    1    2    0  501  0.23598038554E+03 -0.13731624199E+03 -0.11928407414E+03  0.34402788116E+03  0.17200000000E+03 0.  1.
</event>
<event>
 4    1  0.6365520E-002  0.2486580E+03  0.7818608E-02  0.1114156E+00
          2   -1    0    0  502    0  0.00000000000E+00  0.00000000000E+00  0.71391593839E+02  0.71391593839E+02  0.00000000000E+00 0. -1.
         -2   -1    0    0    0  501 -0.00000000000E+00 -0.00000000000E+00 -0.14538135511E+04  0.14538135511E+04  0.00000000000E+00 0.  1.
          6    1    1    2  502    0  0.86674521168E+02  0.15727156780E+03 -0.20633103753E+03  0.32311501931E+03  0.17200000000E+03 0. -1.
         -6    1    1    2    0  501 -0.86674521168E+02 -0.15727156780E+03 -0.11760909197E+04  0.12020901256E+04  0.17200000000E+03 0.  1.
</event>
<event>
 4    1  0.6365520E-002  0.1944174E+03  0.7818608E-02  0.1154536E+00
         -1   -1    0    0    0  501 -0.00000000000E+00  0.00000000000E+00  0.29189435346E+03  0.29189435346E+03  0.00000000000E+00 0.  1.
          1   -1    0    0  502    0  0.00000000000E+00 -0.00000000000E+00 -0.40308159821E+03  0.40308159821E+03  0.00000000000E+00 0. -1.
          6    1    1    2  502    0  0.24385130133E+02  0.87289783809E+02 -0.34187470992E+03  0.39328928058E+03  0.17200000000E+03 0. -1.
         -6    1    1    2    0  501 -0.24385130133E+02 -0.87289783809E+02  0.23068746517E+03  0.30168667110E+03  0.17200000000E+03 0.  1.
</event>
<event>
 4    1  0.6365520E-002  0.2366310E+03  0.7818608E-02  0.1122058E+00
         -2   -1    0    0    0  501 -0.00000000000E+00  0.00000000000E+00  0.31195615004E+03  0.31195615004E+03  0.00000000000E+00 0.  1.
          2   -1    0    0  502    0  0.00000000000E+00 -0.00000000000E+00 -0.34513170144E+03  0.34513170144E+03  0.00000000000E+00 0. -1.
          6    1    1    2  502    0 -0.63721403715E+02 -0.14949853647E+03 -0.24419221531E+03  0.34003539186E+03  0.17200000000E+03 0. -1.
         -6    1    1    2    0  501  0.63721403715E+02  0.14949853647E+03  0.21101666391E+03  0.31705245961E+03  0.17200000000E+03 0.  1.
</event>
<event>
 4    1  0.6365520E-002  0.6548056E+03  0.7818608E-02  0.9797803E-01
         -1   -1    0    0    0  501 -0.00000000000E+00  0.00000000000E+00  0.23038321052E+03  0.23038321052E+03  0.00000000000E+00 0.  1.
          1   -1    0    0  502    0  0.00000000000E+00 -0.00000000000E+00 -0.28732515166E+04  0.28732515166E+04  0.00000000000E+00 0. -1.
          6    1    1    2  502    0  0.23354593715E+03 -0.58706276659E+03 -0.22424617329E+04  0.23361089487E+04  0.17200000000E+03 0. -1.
         -6    1    1    2    0  501 -0.23354593715E+03  0.58706276659E+03 -0.40040657318E+03  0.76752577841E+03  0.17200000000E+03 0.  1.
</event>
<event>
 4    1  0.6365520E-002  0.2159436E+03  0.7818608E-02  0.1136944E+00
          2   -1    0    0  502    0  0.00000000000E+00  0.00000000000E+00  0.68769818192E+03  0.68769818192E+03  0.00000000000E+00 0. -1.
         -2   -1    0    0    0  501 -0.00000000000E+00 -0.00000000000E+00 -0.76406400894E+02  0.76406400894E+02  0.00000000000E+00 0.  1.
          6    1    1    2  502    0 -0.13052630851E+03  0.32424417426E+01  0.43380802137E+03  0.48458335717E+03  0.17200000000E+03 0.  1.
         -6    1    1    2    0  501  0.13052630851E+03 -0.32424417426E+01  0.17748375966E+03  0.27952122564E+03  0.17200000000E+03 0.  1.
</event>
<event>
 4    1  0.6365520E-002  0.2342599E+03  0.7818608E-02  0.1123677E+00
         -2   -1    0    0    0  501 -0.00000000000E+00  0.00000000000E+00  0.40381583752E+02  0.40381583752E+02  0.00000000000E+00 0.  1.
          2   -1    0    0  502    0  0.00000000000E+00 -0.00000000000E+00 -0.29130072546E+04  0.29130072546E+04  0.00000000000E+00 0. -1.
          6    1    1    2  502    0  0.15484789158E+03 -0.36274667830E+02 -0.25148852710E+04  0.25257722873E+04  0.17200000000E+03 0. -1.
         -6    1    1    2    0  501 -0.15484789158E+03  0.36274667830E+02 -0.35774039994E+03  0.42761655113E+03  0.17200000000E+03 0.  1.
</event>
<event>
 4    1  0.6365520E-002  0.2201316E+03  0.7818608E-02  0.1133785E+00
         -2   -1    0    0    0  501 -0.00000000000E+00  0.00000000000E+00  0.45657519477E+03  0.45657519477E+03  0.00000000000E+00 0.  1.
          2   -1    0    0  502    0  0.00000000000E+00 -0.00000000000E+00 -0.13760861318E+03  0.13760861318E+03  0.00000000000E+00 0. -1.
          6    1    1    2  502    0 -0.20007415942E+02 -0.13591772737E+03  0.17397178968E+02  0.22081799551E+03  0.17200000000E+03 0. -1.
         -6    1    1    2    0  501  0.20007415942E+02  0.13591772737E+03  0.30156940262E+03  0.37336581245E+03  0.17200000000E+03 0.  1.
</event>
<event>
 4    1  0.6365520E-002  0.1929576E+03  0.7818608E-02  0.1155820E+00
          2   -1    0    0  502    0  0.00000000000E+00  0.00000000000E+00  0.37186791392E+04  0.37186791392E+04  0.00000000000E+00 0. -1.
         -2   -1    0    0    0  501 -0.00000000000E+00 -0.00000000000E+00 -0.10341355441E+02  0.10341355441E+02  0.00000000000E+00 0.  1.
          6    1    1    2  502    0  0.79497750009E+02 -0.36452151613E+02  0.21867435866E+04  0.21952403433E+04  0.17200000000E+03 0. -1.
         -6    1    1    2    0  501 -0.79497750009E+02  0.36452151613E+02  0.15215941972E+04  0.15337801513E+04  0.17200000000E+03 0. -1.
</event>
<event>
 4    1  0.6365520E-002  0.2159061E+03  0.7818608E-02  0.1136972E+00
          2   -1    0    0  502    0  0.00000000000E+00  0.00000000000E+00  0.18717686016E+03  0.18717686016E+03  0.00000000000E+00 0. -1.
         -2   -1    0    0    0  501 -0.00000000000E+00 -0.00000000000E+00 -0.39232876542E+03  0.39232876542E+03  0.00000000000E+00 0.  1.
          6    1    1    2  502    0  0.48917737673E+02 -0.12098974680E+03  0.72530058690E+02  0.22776319568E+03  0.17200000000E+03 0. -1.
         -6    1    1    2    0  501 -0.48917737673E+02  0.12098974680E+03 -0.27768196396E+03  0.35174242991E+03  0.17200000000E+03 0.  1.
</event>
<event>
 4    1  0.6365520E-002  0.2361383E+03  0.7818608E-02  0.1122392E+00
         -2   -1    0    0    0  501 -0.00000000000E+00  0.00000000000E+00  0.42273595855E+02  0.42273595855E+02  0.00000000000E+00 0.  1.
          2   -1    0    0  502    0  0.00000000000E+00 -0.00000000000E+00 -0.20723014329E+04  0.20723014329E+04  0.00000000000E+00 0. -1.
          6    1    1    2  502    0 -0.16166343231E+03 -0.64999525888E+01 -0.37758114980E+03  0.44534126175E+03  0.17200000000E+03 0. -1.
         -6    1    1    2    0  501  0.16166343231E+03  0.64999525888E+01 -0.16524466873E+04  0.16692337670E+04  0.17200000000E+03 0.  1.
</event>
<event>
 4    1  0.6365520E-002  0.2423712E+03  0.7818608E-02  0.1118223E+00
         -1   -1    0    0    0  501 -0.00000000000E+00  0.00000000000E+00  0.12226468461E+03  0.12226468461E+03  0.00000000000E+00 0.  1.
          1   -1    0    0  502    0  0.00000000000E+00 -0.00000000000E+00 -0.55573473805E+03  0.55573473805E+03  0.00000000000E+00 0. -1.
          6    1    1    2  502    0  0.10959811317E+02 -0.17041032039E+03 -0.34149586422E+03  0.41876391922E+03  0.17200000000E+03 0. -1.
         -6    1    1    2    0  501 -0.10959811317E+02  0.17041032039E+03 -0.91974189214E+02  0.25923550344E+03  0.17200000000E+03 0.  1.
</event>
<event>
 4    1  0.6365520E-002  0.1966949E+03  0.7818608E-02  0.1152558E+00
         -1   -1    0    0    0  501 -0.00000000000E+00  0.00000000000E+00  0.12142172134E+03  0.12142172134E+03  0.00000000000E+00 0.  1.
          1   -1    0    0  502    0  0.00000000000E+00 -0.00000000000E+00 -0.32197007864E+03  0.32197007864E+03  0.00000000000E+00 0. -1.
          6    1    1    2  502    0 -0.50873341093E+02 -0.80726597223E+02 -0.77701674319E+02  0.21148624193E+03  0.17200000000E+03 0.  1.
         -6    1    1    2    0  501  0.50873341093E+02  0.80726597223E+02 -0.12284668299E+03  0.23190555805E+03  0.17200000000E+03 0. -1.
</event>
<event>
 4    1  0.6365520E-002  0.3953859E+03  0.7818608E-02  0.1045389E+00
          2   -1    0    0  502    0  0.00000000000E+00  0.00000000000E+00  0.51848102481E+03  0.51848102481E+03  0.00000000000E+00 0. -1.
         -2   -1    0    0    0  501 -0.00000000000E+00 -0.00000000000E+00 -0.37372139919E+03  0.37372139919E+03  0.00000000000E+00 0.  1.
          6    1    1    2  502    0 -0.25667478419E+02  0.35508753301E+03  0.26846567486E+03  0.47791609528E+03  0.17200000000E+03 0. -1.
         -6    1    1    2    0  501  0.25667478419E+02 -0.35508753301E+03 -0.12370604924E+03  0.41428632873E+03  0.17200000000E+03 0.  1.
</event>
<event>
 4    1  0.6365520E-002  0.1940724E+03  0.7818608E-02  0.1154839E+00
         -2   -1    0    0    0  501 -0.00000000000E+00  0.00000000000E+00  0.75604260635E+02  0.75604260635E+02  0.00000000000E+00 0.  1.
          2   -1    0    0  502    0  0.00000000000E+00 -0.00000000000E+00 -0.17408990056E+04  0.17408990056E+04  0.00000000000E+00 0. -1.
          6    1    1    2  502    0 -0.68850750948E+02  0.57789884396E+02 -0.16000210039E+04  0.16117479051E+04  0.17200000000E+03 0. -1.
         -6    1    1    2    0  501  0.68850750948E+02 -0.57789884396E+02 -0.65273741065E+02  0.20475536114E+03  0.17200000000E+03 0.  1.
</event>
<event>
 4    1  0.6365520E-002  0.1922756E+03  0.7818608E-02  0.1156425E+00
         -2   -1    0    0    0  501 -0.00000000000E+00  0.00000000000E+00  0.16163577911E+02  0.16163577911E+02  0.00000000000E+00 0.  1.
          2   -1    0    0  502    0  0.00000000000E+00 -0.00000000000E+00 -0.22894320802E+04  0.22894320802E+04  0.00000000000E+00 0. -1.
          6    1    1    2  502    0 -0.32846035019E+02 -0.79416961442E+02 -0.11723387205E+04  0.11880016799E+04  0.17200000000E+03 0.  1.
         -6    1    1    2    0  501  0.32846035019E+02  0.79416961442E+02 -0.11009297817E+04  0.11175939782E+04  0.17200000000E+03 0. -1.
</event>
<event>
 4    1  0.6365520E-002  0.3290914E+03  0.7818608E-02  0.1071540E+00
         -2   -1    0    0    0  501 -0.00000000000E+00  0.00000000000E+00  0.60305183269E+03  0.60305183269E+03  0.00000000000E+00 0.  1.
          2   -1    0    0  502    0  0.00000000000E+00 -0.00000000000E+00 -0.25283566240E+03  0.25283566240E+03  0.00000000000E+00 0. -1.
          6    1    1    2  502    0  0.27041260563E+03  0.74794369375E+02 -0.55228496779E+02  0.33369351482E+03  0.17200000000E+03 0. -1.
         -6    1    1    2    0  501 -0.27041260563E+03 -0.74794369375E+02  0.40544466707E+03  0.52219398027E+03  0.17200000000E+03 0.  1.
</event>
<event>
 4    1  0.6365520E-002  0.3180230E+03  0.7818608E-02  0.1076563E+00
          3   -1    0    0  502    0  0.00000000000E+00  0.00000000000E+00  0.44978509744E+03  0.44978509744E+03  0.00000000000E+00 0. -1.
         -3   -1    0    0    0  501 -0.00000000000E+00 -0.00000000000E+00 -0.57645896729E+03  0.57645896729E+03  0.00000000000E+00 0.  1.
          6    1    1    2  502    0 -0.26743667091E+03  0.56784706527E+01  0.33740089264E+03  0.46365717975E+03  0.17200000000E+03 0. -1.
         -6    1    1    2    0  501  0.26743667091E+03 -0.56784706527E+01 -0.46407476249E+03  0.56258688499E+03  0.17200000000E+03 0.  1.
</event>
<event>
 4    1  0.6365520E-002  0.2050086E+03  0.7818608E-02  0.1145581E+00
          2   -1    0    0  502    0  0.00000000000E+00  0.00000000000E+00  0.13243862631E+04  0.13243862631E+04  0.00000000000E+00 0. -1.
         -2   -1    0    0    0  501 -0.00000000000E+00 -0.00000000000E+00 -0.12017934920E+03  0.12017934920E+03  0.00000000000E+00 0.  1.
          6    1    1    2  502    0  0.17315200067E+02 -0.11020300422E+03  0.12217285954E+04  0.12388096218E+04  0.17200000000E+03 0. -1.
         -6    1    1    2    0  501 -0.17315200067E+02  0.11020300422E+03 -0.17521681513E+02  0.20575599047E+03  0.17200000000E+03 0.  1.
</event>
<event>
 4    1  0.6365520E-002  0.1830537E+03  0.7818608E-02  0.1164880E+00
         -2   -1    0    0    0  501 -0.00000000000E+00  0.00000000000E+00  0.15514517394E+02  0.15514517394E+02  0.00000000000E+00 0.  1.
          2   -1    0    0  502    0  0.00000000000E+00 -0.00000000000E+00 -0.46239079723E+04  0.46239079723E+04  0.00000000000E+00 0. -1.
          6    1    1    2  502    0 -0.33395845184E+02  0.53003700898E+02 -0.39975860513E+04  0.40017749702E+04  0.17200000000E+03 0. -1.
         -6    1    1    2    0  501  0.33395845184E+02 -0.53003700898E+02 -0.61080740364E+03  0.63764751950E+03  0.17200000000E+03 0.  1.
</event>
<event>
 4    1  0.6365520E-002  0.1847416E+03  0.7818608E-02  0.1163291E+00
          1   -1    0    0  502    0  0.00000000000E+00  0.00000000000E+00  0.23977714468E+04  0.23977714468E+04  0.00000000000E+00 0. -1.
         -1   -1    0    0    0  501 -0.00000000000E+00 -0.00000000000E+00 -0.17312306916E+02  0.17312306916E+02  0.00000000000E+00 0.  1.
          6    1    1    2  502    0 -0.66029997114E+02  0.13619280301E+02  0.16994354854E+04  0.17094474003E+04  0.17200000000E+03 0. -1.
         -6    1    1    2    0  501  0.66029997114E+02 -0.13619280301E+02  0.68102365451E+03  0.70563635346E+03  0.17200000000E+03 0.  1.
</event>
<event>
 4    1  0.6365520E-002  0.3272676E+03  0.7818608E-02  0.1072352E+00
          1   -1    0    0  502    0  0.00000000000E+00  0.00000000000E+00  0.84327781713E+03  0.84327781713E+03  0.00000000000E+00 0. -1.
         -1   -1    0    0    0  501 -0.00000000000E+00 -0.00000000000E+00 -0.13009629658E+03  0.13009629658E+03  0.00000000000E+00 0.  1.
          6    1    1    2  502    0  0.18931388910E+03 -0.20415761637E+03  0.43156103487E+03  0.54161703052E+03  0.17200000000E+03 0. -1.
         -6    1    1    2    0  501 -0.18931388910E+03  0.20415761637E+03  0.28162048567E+03  0.43175708319E+03  0.17200000000E+03 0.  1.
</event>
<event>
 4    1  0.6365520E-002  0.3273495E+03  0.7818608E-02  0.1072316E+00
          1   -1    0    0  502    0  0.00000000000E+00  0.00000000000E+00  0.48184049422E+03  0.48184049422E+03  0.00000000000E+00 0. -1.
         -1   -1    0    0    0  501 -0.00000000000E+00 -0.00000000000E+00 -0.92116324837E+03  0.92116324837E+03  0.00000000000E+00 0.  1.
          6    1    1    2  502    0 -0.13840451425E+03 -0.24169787872E+03  0.39131991880E+03  0.51018521440E+03  0.17200000000E+03 0. -1.
         -6    1    1    2    0  501  0.13840451425E+03  0.24169787872E+03 -0.83064267295E+03  0.89281852819E+03  0.17200000000E+03 0.  1.
</event>
<event>
 4    1  0.6365520E-002  0.2002900E+03  0.7818608E-02  0.1149495E+00
          2   -1    0    0  502    0  0.00000000000E+00  0.00000000000E+00  0.32965599607E+04  0.32965599607E+04  0.00000000000E+00 0. -1.
         -2   -1    0    0    0  501 -0.00000000000E+00 -0.00000000000E+00 -0.16231010560E+02  0.16231010560E+02  0.00000000000E+00 0.  1.
          6    1    1    2  502    0 -0.39974084097E+02  0.94520762232E+02  0.24687884702E+04  0.24768997986E+04  0.17200000000E+03 0. -1.
         -6    1    1    2    0  501  0.39974084097E+02 -0.94520762232E+02  0.81154048002E+03  0.83589117271E+03  0.17200000000E+03 0.  1.
</event>
<event>
 4    1  0.6365520E-002  0.2618079E+03  0.7818608E-02  0.1106062E+00
         -2   -1    0    0    0  501 -0.00000000000E+00  0.00000000000E+00  0.19320706094E+03  0.19320706094E+03  0.00000000000E+00 0.  1.
          2   -1    0    0  502    0  0.00000000000E+00 -0.00000000000E+00 -0.39683378990E+03  0.39683378990E+03  0.00000000000E+00 0. -1.
          6    1    1    2  502    0 -0.47410270082E+02 -0.19160281106E+03 -0.57582234348E+01  0.26187120508E+03  0.17200000000E+03 0.  1.
         -6    1    1    2    0  501  0.47410270082E+02  0.19160281106E+03 -0.19786850552E+03  0.32816964575E+03  0.17200000000E+03 0. -1.
</event>
<event>
 4    1  0.6365520E-002  0.4279697E+03  0.7818608E-02  0.1034503E+00
         -4   -1    0    0    0  501 -0.00000000000E+00  0.00000000000E+00  0.10600083851E+04  0.10600083851E+04  0.00000000000E+00 0.  1.
          4   -1    0    0  502    0  0.00000000000E+00 -0.00000000000E+00 -0.39103125377E+03  0.39103125377E+03  0.00000000000E+00 0. -1.
          6    1    1    2  502    0 -0.15414398010E+02 -0.39158205079E+03 -0.20752813305E+03  0.47563224467E+03  0.17200000000E+03 0. -1.
         -6    1    1    2    0  501  0.15414398010E+02  0.39158205079E+03  0.87650526435E+03  0.97540739417E+03  0.17200000000E+03 0.  1.
</event>
<event>
 4    1  0.6365520E-002  0.3679266E+03  0.7818608E-02  0.1055489E+00
          1   -1    0    0  502    0  0.00000000000E+00  0.00000000000E+00  0.26080983125E+03  0.26080983125E+03  0.00000000000E+00 0. -1.
         -1   -1    0    0    0  501 -0.00000000000E+00 -0.00000000000E+00 -0.62164705468E+03  0.62164705468E+03  0.00000000000E+00 0.  1.
          6    1    1    2  502    0 -0.29006400115E+03  0.14713545984E+03 -0.11573739649E+01  0.36792840040E+03  0.17200000000E+03 0. -1.
         -6    1    1    2    0  501  0.29006400115E+03 -0.14713545984E+03 -0.35967984947E+03  0.51452848553E+03  0.17200000000E+03 0. -1.
</event>
<event>
 4    1  0.6365520E-002  0.2579698E+03  0.7818608E-02  0.1108369E+00
          1   -1    0    0  502    0  0.00000000000E+00  0.00000000000E+00  0.60862327806E+03  0.60862327806E+03  0.00000000000E+00 0. -1.
         -1   -1    0    0    0  501 -0.00000000000E+00 -0.00000000000E+00 -0.17754879264E+03  0.17754879264E+03  0.00000000000E+00 0.  1.
          6    1    1    2  502    0 -0.18808550073E+03  0.39853144560E+02  0.45917285939E+03  0.52667650747E+03  0.17200000000E+03 0. -1.
         -6    1    1    2    0  501  0.18808550073E+03 -0.39853144560E+02 -0.28098373966E+02  0.25949556323E+03  0.17200000000E+03 0.  1.
</event>
<event>
 4    1  0.6365520E-002  0.1912558E+03  0.7818608E-02  0.1157334E+00
          2   -1    0    0  502    0  0.00000000000E+00  0.00000000000E+00  0.25768926496E+03  0.25768926496E+03  0.00000000000E+00 0. -1.
         -2   -1    0    0    0  501 -0.00000000000E+00 -0.00000000000E+00 -0.18142449421E+03  0.18142449421E+03  0.00000000000E+00 0.  1.
          6    1    1    2  502    0 -0.60924387460E+02 -0.57297475430E+02  0.14054697950E+03  0.23734412806E+03  0.17200000000E+03 0. -1.
         -6    1    1    2    0  501  0.60924387460E+02  0.57297475430E+02 -0.64282208743E+02  0.20176963111E+03  0.17200000000E+03 0.  1.
</event>
<event>
 4    1  0.6365520E-002  0.2087844E+03  0.7818608E-02  0.1142532E+00
         -1   -1    0    0    0  501 -0.00000000000E+00  0.00000000000E+00  0.36191710735E+02  0.36191710735E+02  0.00000000000E+00 0.  1.
          1   -1    0    0  502    0  0.00000000000E+00 -0.00000000000E+00 -0.12602503354E+04  0.12602503354E+04  0.00000000000E+00 0. -1.
          6    1    1    2  502    0 -0.98191062986E+02  0.66071406438E+02 -0.47562327991E+03  0.51943086161E+03  0.17200000000E+03 0.  1.
         -6    1    1    2    0  501  0.98191062986E+02 -0.66071406438E+02 -0.74843534471E+03  0.77701118448E+03  0.17200000000E+03 0. -1.
</event>
<event>
 4    1  0.6365520E-002  0.2248665E+03  0.7818608E-02  0.1130306E+00
         -3   -1    0    0    0  501 -0.00000000000E+00  0.00000000000E+00  0.25646048625E+04  0.25646048625E+04  0.00000000000E+00 0.  1.
          3   -1    0    0  502    0  0.00000000000E+00 -0.00000000000E+00 -0.31446401667E+02  0.31446401667E+02  0.00000000000E+00 0. -1.
          6    1    1    2  502    0 -0.14448227021E+03  0.10287641947E+02  0.47381238457E+03  0.52446462012E+03  0.17200000000E+03 0. -1.
         -6    1    1    2    0  501  0.14448227021E+03 -0.10287641947E+02  0.20593460763E+04  0.20715866441E+04  0.17200000000E+03 0.  1.
</event>
<event>
 4    1  0.6365520E-002  0.8781007E+03  0.7818608E-02  0.9453378E-01
          1   -1    0    0  502    0  0.00000000000E+00  0.00000000000E+00  0.92064406339E+03  0.92064406339E+03  0.00000000000E+00 0. -1.
         -1   -1    0    0    0  501 -0.00000000000E+00 -0.00000000000E+00 -0.90220092669E+03  0.90220092669E+03  0.00000000000E+00 0.  1.
          6    1    1    2  502    0 -0.19545001601E+02 -0.86086866085E+03  0.25325264228E+03  0.91389154670E+03  0.17200000000E+03 0. -1.
         -6    1    1    2    0  501  0.19545001601E+02  0.86086866085E+03 -0.23480950557E+03  0.90895344337E+03  0.17200000000E+03 0.  1.
</event>
<event>
 4    1  0.6365520E-002  0.3845397E+03  0.7818608E-02  0.1049269E+00
          2   -1    0    0  502    0  0.00000000000E+00  0.00000000000E+00  0.12389469488E+03  0.12389469488E+03  0.00000000000E+00 0. -1.
         -2   -1    0    0    0  501 -0.00000000000E+00 -0.00000000000E+00 -0.11935350350E+04  0.11935350350E+04  0.00000000000E+00 0.  1.
          6    1    1    2  502    0  0.32836154512E+03 -0.10230085163E+03 -0.53717541043E+03  0.66062711883E+03  0.17200000000E+03 0. -1.
         -6    1    1    2    0  501 -0.32836154512E+03  0.10230085163E+03 -0.53246492971E+03  0.65680261109E+03  0.17200000000E+03 0.  1.
</event>
<event>
 4    1  0.6365520E-002  0.2448335E+03  0.7818608E-02  0.1116614E+00
         -2   -1    0    0    0  501 -0.00000000000E+00  0.00000000000E+00  0.22449484018E+04  0.22449484018E+04  0.00000000000E+00 0.  1.
          2   -1    0    0  502    0  0.00000000000E+00 -0.00000000000E+00 -0.26734175613E+02  0.26734175613E+02  0.00000000000E+00 0. -1.
          6    1    1    2  502    0 -0.10918131097E+03 -0.13578991137E+03  0.11488251746E+04  0.11746245104E+04  0.17200000000E+03 0. -1.
         -6    1    1    2    0  501  0.10918131097E+03  0.13578991137E+03  0.10693890517E+04  0.10970580671E+04  0.17200000000E+03 0.  1.
</event>
<event>
 4    1  0.6365520E-002  0.1764366E+03  0.7818608E-02  0.1171297E+00
         -1   -1    0    0    0  501 -0.00000000000E+00  0.00000000000E+00  0.41826481394E+02  0.41826481394E+02  0.00000000000E+00 0.  1.
          1   -1    0    0  502    0  0.00000000000E+00 -0.00000000000E+00 -0.88035958233E+03  0.88035958233E+03  0.00000000000E+00 0. -1.
          6    1    1    2  502    0 -0.11425387082E+02  0.37620805964E+02 -0.60056060879E+03  0.62594161815E+03  0.17200000000E+03 0. -1.
         -6    1    1    2    0  501  0.11425387082E+02 -0.37620805964E+02 -0.23797249215E+03  0.29624444557E+03  0.17200000000E+03 0.  1.
</event>
<event>
 4    1  0.6365520E-002  0.2715420E+03  0.7818608E-02  0.1100400E+00
         -1   -1    0    0    0  501 -0.00000000000E+00  0.00000000000E+00  0.79660666564E+02  0.79660666564E+02  0.00000000000E+00 0.  1.
          1   -1    0    0  502    0  0.00000000000E+00 -0.00000000000E+00 -0.93261030876E+03  0.93261030876E+03  0.00000000000E+00 0. -1.
          6    1    1    2  502    0  0.20931828608E+03 -0.18355822405E+02 -0.38263885712E+03  0.46919886624E+03  0.17200000000E+03 0. -1.
         -6    1    1    2    0  501 -0.20931828608E+03  0.18355822405E+02 -0.47031078508E+03  0.54307210909E+03  0.17200000000E+03 0.  1.
</event>
<event>
 4    1  0.6365520E-002  0.4218598E+03  0.7818608E-02  0.1036463E+00
          2   -1    0    0  502    0  0.00000000000E+00  0.00000000000E+00  0.10069263650E+04  0.10069263650E+04  0.00000000000E+00 0. -1.
         -2   -1    0    0    0  501 -0.00000000000E+00 -0.00000000000E+00 -0.38808473305E+03  0.38808473305E+03  0.00000000000E+00 0.  1.
          6    1    1    2  502    0 -0.33156941150E+03  0.19606997397E+03  0.82414968579E+03  0.92584470292E+03  0.17200000000E+03 0. -1.
         -6    1    1    2    0  501  0.33156941150E+03 -0.19606997397E+03 -0.20530805386E+03  0.46916639512E+03  0.17200000000E+03 0.  1.
</event>
<event>
 4    1  0.6365520E-002  0.2616861E+03  0.7818608E-02  0.1106134E+00
          2   -1    0    0  502    0  0.00000000000E+00  0.00000000000E+00  0.70019534517E+03  0.70019534517E+03  0.00000000000E+00 0. -1.
         -2   -1    0    0    0  501 -0.00000000000E+00 -0.00000000000E+00 -0.98241690212E+02  0.98241690212E+02  0.00000000000E+00 0.  1.
          6    1    1    2  502    0 -0.12943799435E+03 -0.14879988177E+03  0.27422988058E+03  0.37905359331E+03  0.17200000000E+03 0. -1.
         -6    1    1    2    0  501  0.12943799435E+03  0.14879988177E+03  0.32772377437E+03  0.41938344207E+03  0.17200000000E+03 0.  1.
</event>
<event>
 4    1  0.6365520E-002  0.3594101E+03  0.7818608E-02  0.1058818E+00
         -2   -1    0    0    0  501 -0.00000000000E+00  0.00000000000E+00  0.11764536607E+03  0.11764536607E+03  0.00000000000E+00 0.  1.
          2   -1    0    0  502    0  0.00000000000E+00 -0.00000000000E+00 -0.25235647375E+04  0.25235647375E+04  0.00000000000E+00 0. -1.
          6    1    1    2  502    0 -0.20874575079E+03 -0.23667877666E+03 -0.21955222261E+04  0.22247457106E+04  0.17200000000E+03 0. -1.
         -6    1    1    2    0  501  0.20874575079E+03  0.23667877666E+03 -0.21039714533E+03  0.41646439290E+03  0.17200000000E+03 0.  1.
</event>
<event>
 4    1  0.6365520E-002  0.2439635E+03  0.7818608E-02  0.1117180E+00
          1   -1    0    0  502    0  0.00000000000E+00  0.00000000000E+00  0.74507169030E+03  0.74507169030E+03  0.00000000000E+00 0. -1.
         -1   -1    0    0    0  501 -0.00000000000E+00 -0.00000000000E+00 -0.80585604052E+02  0.80585604052E+02  0.00000000000E+00 0.  1.
          6    1    1    2  502    0  0.74607972523E+02 -0.15610199221E+03  0.29368152601E+03  0.38179447384E+03  0.17200000000E+03 0.  1.
         -6    1    1    2    0  501 -0.74607972523E+02  0.15610199221E+03  0.37080456024E+03  0.44386282051E+03  0.17200000000E+03 0. -1.
</event>
<event>
 4    1  0.6365520E-002  0.1802454E+03  0.7818608E-02  0.1167566E+00
          2   -1    0    0  502    0  0.00000000000E+00  0.00000000000E+00  0.13623694392E+03  0.13623694392E+03  0.00000000000E+00 0. -1.
         -2   -1    0    0    0  501 -0.00000000000E+00 -0.00000000000E+00 -0.30718020827E+03  0.30718020827E+03  0.00000000000E+00 0.  1.
          6    1    1    2  502    0  0.34372863388E+02  0.41508071341E+02  0.19385203761E+02  0.18128485830E+03  0.17200000000E+03 0. -1.
         -6    1    1    2    0  501 -0.34372863388E+02 -0.41508071341E+02 -0.19032846811E+03  0.26213229389E+03  0.17200000000E+03 0.  1.
</event>
<event>
 4    1  0.6365520E-002  0.2214426E+03  0.7818608E-02  0.1132812E+00
         -1   -1    0    0    0  501 -0.00000000000E+00  0.00000000000E+00  0.12025749740E+03  0.12025749740E+03  0.00000000000E+00 0.  1.
          1   -1    0    0  502    0  0.00000000000E+00 -0.00000000000E+00 -0.53131093025E+03  0.53131093025E+03  0.00000000000E+00 0. -1.
          6    1    1    2  502    0  0.63852869389E+01 -0.13932719697E+03 -0.48429214309E+02  0.22667648423E+03  0.17200000000E+03 0. -1.
         -6    1    1    2    0  501 -0.63852869389E+01  0.13932719697E+03 -0.36262421854E+03  0.42489194341E+03  0.17200000000E+03 0.  1.
</event>
<event>
 4    1  0.6365520E-002  0.1979157E+03  0.7818608E-02  0.1151510E+00
          2   -1    0    0  502    0  0.00000000000E+00  0.00000000000E+00  0.70620168245E+03  0.70620168245E+03  0.00000000000E+00 0. -1.
         -2   -1    0    0    0  501 -0.00000000000E+00 -0.00000000000E+00 -0.58739565793E+02  0.58739565793E+02  0.00000000000E+00 0.  1.
          6    1    1    2  502    0  0.12249007052E+02 -0.97142180371E+02  0.41401284608E+03  0.45888699927E+03  0.17200000000E+03 0. -1.
         -6    1    1    2    0  501 -0.12249007052E+02  0.97142180371E+02  0.23344927058E+03  0.30605424897E+03  0.17200000000E+03 0.  1.
</event>
<event>
 4    1  0.6365520E-002  0.2160186E+03  0.7818608E-02  0.1136887E+00
         -2   -1    0    0    0  501 -0.00000000000E+00  0.00000000000E+00  0.28681538639E+03  0.28681538639E+03  0.00000000000E+00 0.  1.
          2   -1    0    0  502    0  0.00000000000E+00 -0.00000000000E+00 -0.17691008739E+03  0.17691008739E+03  0.00000000000E+00 0. -1.
          6    1    1    2  502    0  0.12104653089E+03  0.49272399659E+02  0.12067261442E+03  0.24743870328E+03  0.17200000000E+03 0.  1.
         -6    1    1    2    0  501 -0.12104653089E+03 -0.49272399659E+02 -0.10767315423E+02  0.21628677049E+03  0.17200000000E+03 0.  1.
</event>
<event>
 4    1  0.6365520E-002  0.2097582E+03  0.7818608E-02  0.1141758E+00
         -2   -1    0    0    0  501 -0.00000000000E+00  0.00000000000E+00  0.26322356069E+02  0.26322356069E+02  0.00000000000E+00 0.  1.
          2   -1    0    0  502    0  0.00000000000E+00 -0.00000000000E+00 -0.25872769880E+04  0.25872769880E+04  0.00000000000E+00 0. -1.
          6    1    1    2  502    0  0.97173644024E+02 -0.70510925346E+02 -0.20579340070E+04  0.20685963562E+04  0.17200000000E+03 0. -1.
         -6    1    1    2    0  501 -0.97173644024E+02  0.70510925346E+02 -0.50302062490E+03  0.54500298785E+03  0.17200000000E+03 0.  1.
</event>
<event>
 4    1  0.6365520E-002  0.3157750E+03  0.7818608E-02  0.1077610E+00
         -2   -1    0    0    0  501 -0.00000000000E+00  0.00000000000E+00  0.36067407618E+03  0.36067407618E+03  0.00000000000E+00 0.  1.
          2   -1    0    0  502    0  0.00000000000E+00 -0.00000000000E+00 -0.16560403005E+04  0.16560403005E+04  0.00000000000E+00 0. -1.
          6    1    1    2  502    0  0.96708877651E+02 -0.24653042703E+03 -0.15680301300E+04  0.15995100335E+04  0.17200000000E+03 0. -1.
         -6    1    1    2    0  501 -0.96708877651E+02  0.24653042703E+03  0.27266390575E+03  0.41720434318E+03  0.17200000000E+03 0.  1.
</event>
<event>
 4    1  0.6365520E-002  0.2690455E+03  0.7818608E-02  0.1101827E+00
         -2   -1    0    0    0  501 -0.00000000000E+00  0.00000000000E+00  0.46699309255E+02  0.46699309255E+02  0.00000000000E+00 0.  1.
          2   -1    0    0  502    0  0.00000000000E+00 -0.00000000000E+00 -0.32775246162E+04  0.32775246162E+04  0.00000000000E+00 0. -1.
          6    1    1    2  502    0  0.26905809624E+02  0.20512821191E+03 -0.28221011506E+04  0.28348968958E+04  0.17200000000E+03 0. -1.
         -6    1    1    2    0  501 -0.26905809624E+02 -0.20512821191E+03 -0.40872415632E+03  0.48932702957E+03  0.17200000000E+03 0.  1.
</event>
<event>
 4    1  0.6365520E-002  0.2337162E+03  0.7818608E-02  0.1124051E+00
          2   -1    0    0  502    0  0.00000000000E+00  0.00000000000E+00  0.28096463139E+03  0.28096463139E+03  0.00000000000E+00 0. -1.
         -2   -1    0    0    0  501 -0.00000000000E+00 -0.00000000000E+00 -0.98361082566E+03  0.98361082566E+03  0.00000000000E+00 0.  1.
          6    1    1    2  502    0 -0.24355240889E+02 -0.15635241818E+03  0.21504132655E+03  0.31759412550E+03  0.17200000000E+03 0. -1.
         -6    1    1    2    0  501  0.24355240889E+02  0.15635241818E+03 -0.91768752082E+03  0.94698133155E+03  0.17200000000E+03 0.  1.
</event>
<event>
 4    1  0.6365520E-002  0.2965266E+03  0.7818608E-02  0.1086990E+00
          2   -1    0    0  502    0  0.00000000000E+00  0.00000000000E+00  0.15069308121E+03  0.15069308121E+03  0.00000000000E+00 0. -1.
         -2   -1    0    0    0  501 -0.00000000000E+00 -0.00000000000E+00 -0.66647882098E+03  0.66647882098E+03  0.00000000000E+00 0.  1.
          6    1    1    2  502    0  0.21167860604E+03 -0.11634510883E+03 -0.11371515793E+03  0.31758330206E+03  0.17200000000E+03 0. -1.
         -6    1    1    2    0  501 -0.21167860604E+03  0.11634510883E+03 -0.40207058184E+03  0.49958860013E+03  0.17200000000E+03 0.  1.
</event>
<event>
 4    1  0.6365520E-002  0.3501647E+03  0.7818608E-02  0.1062547E+00
         -1   -1    0    0    0  501 -0.00000000000E+00  0.00000000000E+00  0.24269494579E+03  0.24269494579E+03  0.00000000000E+00 0.  1.
          1   -1    0    0  502    0  0.00000000000E+00 -0.00000000000E+00 -0.15469209449E+04  0.15469209449E+04  0.00000000000E+00 0. -1.
          6    1    1    2  502    0 -0.10008119833E+03 -0.28812334419E+03 -0.13864010659E+04  0.14299381886E+04  0.17200000000E+03 0. -1.
         -6    1    1    2    0  501  0.10008119833E+03  0.28812334419E+03  0.82175066834E+02  0.35967770202E+03  0.17200000000E+03 0.  1.
</event>
<event>
 4    1  0.6365520E-002  0.2119951E+03  0.7818608E-02  0.1139996E+00
         -2   -1    0    0    0  501 -0.00000000000E+00  0.00000000000E+00  0.32249847693E+02  0.32249847693E+02  0.00000000000E+00 0.  1.
          2   -1    0    0  502    0  0.00000000000E+00 -0.00000000000E+00 -0.15163781877E+04  0.15163781877E+04  0.00000000000E+00 0. -1.
          6    1    1    2  502    0 -0.72428823335E+02  0.10055833337E+03 -0.96243536956E+03  0.98550685104E+03  0.17200000000E+03 0. -1.
         -6    1    1    2    0  501  0.72428823335E+02 -0.10055833337E+03 -0.52169297048E+03  0.56312118439E+03  0.17200000000E+03 0.  1.
</event>
<event>
 4    1  0.6365520E-002  0.1786217E+03  0.7818608E-02  0.1169144E+00
          1   -1    0    0  502    0  0.00000000000E+00  0.00000000000E+00  0.59294894706E+03  0.59294894706E+03  0.00000000000E+00 0. -1.
         -1   -1    0    0    0  501 -0.00000000000E+00 -0.00000000000E+00 -0.55531704113E+02  0.55531704113E+02  0.00000000000E+00 0.  1.
          6    1    1    2  502    0 -0.79101768454E+01 -0.47530241533E+02  0.21159172481E+03  0.27690567485E+03  0.17200000000E+03 0. -1.
         -6    1    1    2    0  501  0.79101768454E+01  0.47530241533E+02  0.32582551814E+03  0.37157497632E+03  0.17200000000E+03 0. -1.
</event>
<event>
 4    1  0.6365520E-002  0.1854521E+03  0.7818608E-02  0.1162628E+00
         -2   -1    0    0    0  501 -0.00000000000E+00  0.00000000000E+00  0.18371779099E+03  0.18371779099E+03  0.00000000000E+00 0.  1.
          2   -1    0    0  502    0  0.00000000000E+00 -0.00000000000E+00 -0.63848906810E+03  0.63848906810E+03  0.00000000000E+00 0. -1.
          6    1    1    2  502    0 -0.35063068248E+02 -0.59825354616E+02 -0.57300686594E+03  0.60227017212E+03  0.17200000000E+03 0. -1.
         -6    1    1    2    0  501  0.35063068248E+02  0.59825354616E+02  0.11823558883E+03  0.21993668697E+03  0.17200000000E+03 0.  1.
</event>
<event>
 4    1  0.6365520E-002  0.1760685E+03  0.7818608E-02  0.1171663E+00
          1   -1    0    0  502    0  0.00000000000E+00  0.00000000000E+00  0.21393888847E+03  0.21393888847E+03  0.00000000000E+00 0. -1.
         -1   -1    0    0    0  501 -0.00000000000E+00 -0.00000000000E+00 -0.14492159386E+03  0.14492159386E+03  0.00000000000E+00 0.  1.
          6    1    1    2  502    0  0.14040490542E+02  0.34913672001E+02  0.32404212352E+02  0.17902550892E+03  0.17200000000E+03 0. -1.
         -6    1    1    2    0  501 -0.14040490542E+02 -0.34913672001E+02  0.36613082265E+02  0.17983497341E+03  0.17200000000E+03 0. -1.
</event>
<event>
 4    1  0.6365520E-002  0.3139301E+03  0.7818608E-02  0.1078477E+00
          1   -1    0    0  502    0  0.00000000000E+00  0.00000000000E+00  0.82526618580E+03  0.82526618580E+03  0.00000000000E+00 0. -1.
         -1   -1    0    0    0  501 -0.00000000000E+00 -0.00000000000E+00 -0.12524920061E+03  0.12524920061E+03  0.00000000000E+00 0.  1.
          6    1    1    2  502    0 -0.12379288314E+03 -0.23161053513E+03  0.45254983102E+03  0.55077533301E+03  0.17200000000E+03 0. -1.
         -6    1    1    2    0  501  0.12379288314E+03  0.23161053513E+03  0.24746715416E+03  0.39974005339E+03  0.17200000000E+03 0.  1.
</event>
<event>
 4    1  0.6365520E-002  0.2961775E+03  0.7818608E-02  0.1087167E+00
         -2   -1    0    0    0  501 -0.00000000000E+00  0.00000000000E+00  0.40585928626E+03  0.40585928626E+03  0.00000000000E+00 0.  1.
          2   -1    0    0  502    0  0.00000000000E+00 -0.00000000000E+00 -0.30461599425E+03  0.30461599425E+03  0.00000000000E+00 0. -1.
          6    1    1    2  502    0 -0.47245772782E+02  0.23644222145E+03  0.24207520676E+03  0.38251992479E+03  0.17200000000E+03 0. -1.
         -6    1    1    2    0  501  0.47245772782E+02 -0.23644222145E+03 -0.14083191476E+03  0.32795535572E+03  0.17200000000E+03 0.  1.
</event>
<event>
 4    1  0.6365520E-002  0.5368475E+03  0.7818608E-02  0.1004585E+00
          2   -1    0    0  502    0  0.00000000000E+00  0.00000000000E+00  0.30433300505E+03  0.30433300505E+03  0.00000000000E+00 0. -1.
         -2   -1    0    0    0  501 -0.00000000000E+00 -0.00000000000E+00 -0.10324971983E+04  0.10324971983E+04  0.00000000000E+00 0.  1.
          6    1    1    2  502    0 -0.25822164046E+03  0.43811285266E+03 -0.17174562962E+03  0.56365046666E+03  0.17200000000E+03 0. -1.
         -6    1    1    2    0  501  0.25822164046E+03 -0.43811285266E+03 -0.55641856361E+03  0.77317973667E+03  0.17200000000E+03 0.  1.
</event>
<event>
 4    1  0.6365520E-002  0.4327618E+03  0.7818608E-02  0.1032991E+00
         -1   -1    0    0    0  501 -0.00000000000E+00  0.00000000000E+00  0.10725133975E+04  0.10725133975E+04  0.00000000000E+00 0.  1.
          1   -1    0    0  502    0  0.00000000000E+00 -0.00000000000E+00 -0.19823015404E+03  0.19823015404E+03  0.00000000000E+00 0. -1.
          6    1    1    2  502    0 -0.61383171890E+00  0.39711260788E+03  0.21786714122E+03  0.48450891772E+03  0.17200000000E+03 0. -1.
         -6    1    1    2    0  501  0.61383171890E+00 -0.39711260788E+03  0.65641610221E+03  0.78623463379E+03  0.17200000000E+03 0.  1.
</event>
<event>
 4    1  0.6365520E-002  0.2812807E+03  0.7818608E-02  0.1094991E+00
          1   -1    0    0  502    0  0.00000000000E+00  0.00000000000E+00  0.93929514665E+03  0.93929514665E+03  0.00000000000E+00 0. -1.
         -1   -1    0    0    0  501 -0.00000000000E+00 -0.00000000000E+00 -0.85377676478E+02  0.85377676478E+02  0.00000000000E+00 0.  1.
          6    1    1    2  502    0 -0.18237014110E+03 -0.12757738433E+03  0.36761374331E+03  0.46288089357E+03  0.17200000000E+03 0. -1.
         -6    1    1    2    0  501  0.18237014110E+03  0.12757738433E+03  0.48630372686E+03  0.56179192956E+03  0.17200000000E+03 0.  1.
</event>
<event>
 4    1  0.6365520E-002  0.3547527E+03  0.7818608E-02  0.1060681E+00
         -1   -1    0    0    0  501 -0.00000000000E+00  0.00000000000E+00  0.95373784420E+02  0.95373784420E+02  0.00000000000E+00 0.  1.
          1   -1    0    0  502    0  0.00000000000E+00 -0.00000000000E+00 -0.13476421401E+04  0.13476421401E+04  0.00000000000E+00 0. -1.
          6    1    1    2  502    0  0.26399889540E+03  0.16300329223E+03 -0.52194412854E+03  0.63109045577E+03  0.17200000000E+03 0. -1.
         -6    1    1    2    0  501 -0.26399889540E+03 -0.16300329223E+03 -0.73032422713E+03  0.81192546874E+03  0.17200000000E+03 0.  1.
</event>
<event>
 4    1  0.6365520E-002  0.2575730E+03  0.7818608E-02  0.1108610E+00
          1   -1    0    0  502    0  0.00000000000E+00  0.00000000000E+00  0.17233105769E+04  0.17233105769E+04  0.00000000000E+00 0. -1.
         -1   -1    0    0    0  501 -0.00000000000E+00 -0.00000000000E+00 -0.56446629567E+02  0.56446629567E+02  0.00000000000E+00 0.  1.
          6    1    1    2  502    0 -0.19167089145E+03  0.47036014730E+01  0.13352294813E+04  0.13598461760E+04  0.17200000000E+03 0. -1.
         -6    1    1    2    0  501  0.19167089145E+03 -0.47036014730E+01  0.33163446605E+03  0.41991103054E+03  0.17200000000E+03 0.  1.
</event>
<event>
 4    1  0.6365520E-002  0.2137923E+03  0.7818608E-02  0.1138598E+00
          2   -1    0    0  502    0  0.00000000000E+00  0.00000000000E+00  0.92730477600E+03  0.92730477600E+03  0.00000000000E+00 0. -1.
         -2   -1    0    0    0  501 -0.00000000000E+00 -0.00000000000E+00 -0.81064679847E+02  0.81064679847E+02  0.00000000000E+00 0.  1.
          6    1    1    2  502    0  0.96555136427E+02  0.82463670397E+02  0.73877473300E+03  0.76908728856E+03  0.17200000000E+03 0. -1.
         -6    1    1    2    0  501 -0.96555136427E+02 -0.82463670397E+02  0.10746536316E+03  0.23928216729E+03  0.17200000000E+03 0.  1.
</event>
<event>
 4    1  0.6365520E-002  0.1848978E+03  0.7818608E-02  0.1163145E+00
         -2   -1    0    0    0  501 -0.00000000000E+00  0.00000000000E+00  0.70546995015E+02  0.70546995015E+02  0.00000000000E+00 0.  1.
          2   -1    0    0  502    0  0.00000000000E+00 -0.00000000000E+00 -0.48526319267E+03  0.48526319267E+03  0.00000000000E+00 0. -1.
          6    1    1    2  502    0 -0.59737426917E+02  0.32165947215E+02 -0.21761703445E+03  0.28555976960E+03  0.17200000000E+03 0.  1.
         -6    1    1    2    0  501  0.59737426917E+02 -0.32165947215E+02 -0.19709916321E+03  0.27025041808E+03  0.17200000000E+03 0.  1.
</event>
<event>
 4    1  0.6365520E-002  0.2416412E+03  0.7818608E-02  0.1118704E+00
         -1   -1    0    0    0  501 -0.00000000000E+00  0.00000000000E+00  0.15230499490E+03  0.15230499490E+03  0.00000000000E+00 0.  1.
          1   -1    0    0  502    0  0.00000000000E+00 -0.00000000000E+00 -0.67431625578E+03  0.67431625578E+03  0.00000000000E+00 0. -1.
          6    1    1    2  502    0 -0.67282457655E+02  0.15581893484E+03 -0.53248995169E+03  0.58475295486E+03  0.17200000000E+03 0. -1.
         -6    1    1    2    0  501  0.67282457655E+02 -0.15581893484E+03  0.10478690802E+02  0.24186829582E+03  0.17200000000E+03 0.  1.
</event>
<event>
 4    1  0.6365520E-002  0.1776444E+03  0.7818608E-02  0.1170102E+00
          1   -1    0    0  502    0  0.00000000000E+00  0.00000000000E+00  0.99088046611E+03  0.99088046611E+03  0.00000000000E+00 0. -1.
         -1   -1    0    0    0  501 -0.00000000000E+00 -0.00000000000E+00 -0.32368672865E+02  0.32368672865E+02  0.00000000000E+00 0.  1.
          6    1    1    2  502    0  0.36233389898E+02 -0.25703539368E+02  0.54414687151E+03  0.57241012242E+03  0.17200000000E+03 0. -1.
         -6    1    1    2    0  501 -0.36233389898E+02  0.25703539368E+02  0.41436492174E+03  0.45083901656E+03  0.17200000000E+03 0.  1.
</event>
<event>
 4    1  0.6365520E-002  0.2009860E+03  0.7818608E-02  0.1148910E+00
         -2   -1    0    0    0  501 -0.00000000000E+00  0.00000000000E+00  0.18246678123E+02  0.18246678123E+02  0.00000000000E+00 0.  1.
          2   -1    0    0  502    0  0.00000000000E+00 -0.00000000000E+00 -0.22306762250E+04  0.22306762250E+04  0.00000000000E+00 0. -1.
          6    1    1    2  502    0  0.77997184924E+02  0.68759111040E+02 -0.10085490011E+04  0.10283805053E+04  0.17200000000E+03 0. -1.
         -6    1    1    2    0  501 -0.77997184924E+02 -0.68759111040E+02 -0.12038805458E+04  0.12205423978E+04  0.17200000000E+03 0.  1.
</event>
<event>
 4    1  0.6365520E-002  0.2286457E+03  0.7818608E-02  0.1127597E+00
         -2   -1    0    0    0  501 -0.00000000000E+00  0.00000000000E+00  0.73669334162E+03  0.73669334162E+03  0.00000000000E+00 0.  1.
          2   -1    0    0  502    0  0.00000000000E+00 -0.00000000000E+00 -0.90267149918E+02  0.90267149918E+02  0.00000000000E+00 0. -1.
          6    1    1    2  502    0 -0.14981110244E+03 -0.15857830564E+02  0.13200688576E+03  0.26401639172E+03  0.17200000000E+03 0. -1.
         -6    1    1    2    0  501  0.14981110244E+03  0.15857830564E+02  0.51441930593E+03  0.56294409982E+03  0.17200000000E+03 0.  1.
</event>
<event>
 4    1  0.6365520E-002  0.2580373E+03  0.7818608E-02  0.1108328E+00
         -4   -1    0    0    0  501 -0.00000000000E+00  0.00000000000E+00  0.30106757475E+03  0.30106757475E+03  0.00000000000E+00 0.  1.
          4   -1    0    0  502    0  0.00000000000E+00 -0.00000000000E+00 -0.29764190028E+03  0.29764190028E+03  0.00000000000E+00 0. -1.
          6    1    1    2  502    0  0.17120622706E+03  0.87679379472E+02 -0.15003640721E+03  0.29848646411E+03  0.17200000000E+03 0. -1.
         -6    1    1    2    0  501 -0.17120622706E+03 -0.87679379472E+02  0.15346208168E+03  0.30022301092E+03  0.17200000000E+03 0.  1.
</event>
<event>
 4    1  0.6365520E-002  0.2060705E+03  0.7818608E-02  0.1144716E+00
         -1   -1    0    0    0  501 -0.00000000000E+00  0.00000000000E+00  0.25551014203E+02  0.25551014203E+02  0.00000000000E+00 0.  1.
          1   -1    0    0  502    0  0.00000000000E+00 -0.00000000000E+00 -0.19749159062E+04  0.19749159062E+04  0.00000000000E+00 0. -1.
          6    1    1    2  502    0  0.11186250312E+03  0.19178571843E+02 -0.13728457388E+04  0.13882256516E+04  0.17200000000E+03 0.  1.
         -6    1    1    2    0  501 -0.11186250312E+03 -0.19178571843E+02 -0.57651915320E+03  0.61224126881E+03  0.17200000000E+03 0.  1.
</event>
<event>
 4    1  0.6365520E-002  0.1721635E+03  0.7818608E-02  0.1175610E+00
          2   -1    0    0  502    0  0.00000000000E+00  0.00000000000E+00  0.23062847709E+04  0.23062847709E+04  0.00000000000E+00 0. -1.
         -2   -1    0    0    0  501 -0.00000000000E+00 -0.00000000000E+00 -0.21340976145E+02  0.21340976145E+02  0.00000000000E+00 0.  1.
          6    1    1    2  502    0 -0.60531123536E+01 -0.44309874722E+01  0.40845719185E+03  0.44325788362E+03  0.17200000000E+03 0.  1.
         -6    1    1    2    0  501  0.60531123536E+01  0.44309874722E+01  0.18764866029E+04  0.18843678635E+04  0.17200000000E+03 0. -1.
</event>
<event>
 4    1  0.6365520E-002  0.1913528E+03  0.7818608E-02  0.1157247E+00
         -2   -1    0    0    0  501 -0.00000000000E+00  0.00000000000E+00  0.33253151293E+03  0.33253151293E+03  0.00000000000E+00 0.  1.
          2   -1    0    0  502    0  0.00000000000E+00 -0.00000000000E+00 -0.11522575285E+03  0.11522575285E+03  0.00000000000E+00 0. -1.
          6    1    1    2  502    0 -0.32811761114E+02 -0.77170352926E+02  0.15581427629E+03  0.24676702319E+03  0.17200000000E+03 0.  1.
         -6    1    1    2    0  501  0.32811761114E+02  0.77170352926E+02  0.61491483787E+02  0.20099024259E+03  0.17200000000E+03 0. -1.
</event>
<event>
 4    1  0.6365520E-002  0.1833344E+03  0.7818608E-02  0.1164614E+00
         -1   -1    0    0    0  501 -0.00000000000E+00  0.00000000000E+00  0.40456043211E+03  0.40456043211E+03  0.00000000000E+00 0.  1.
          1   -1    0    0  502    0  0.00000000000E+00 -0.00000000000E+00 -0.12277157508E+03  0.12277157508E+03  0.00000000000E+00 0. -1.
          6    1    1    2  502    0 -0.61456459559E+02 -0.15830327037E+02  0.29080976815E+03  0.34377582365E+03  0.17200000000E+03 0.  1.
         -6    1    1    2    0  501  0.61456459559E+02  0.15830327037E+02 -0.90209111173E+01  0.18355618353E+03  0.17200000000E+03 0. -1.
</event>
<event>
 4    1  0.6365520E-002  0.3042172E+03  0.7818608E-02  0.1083151E+00
          2   -1    0    0  502    0  0.00000000000E+00  0.00000000000E+00  0.10213893516E+04  0.10213893516E+04  0.00000000000E+00 0. -1.
         -2   -1    0    0    0  501 -0.00000000000E+00 -0.00000000000E+00 -0.19438834807E+03  0.19438834807E+03  0.00000000000E+00 0.  1.
          6    1    1    2  502    0  0.21760471382E+03 -0.12494924973E+03  0.85766348676E+03  0.91001911135E+03  0.17200000000E+03 0. -1.
         -6    1    1    2    0  501 -0.21760471382E+03  0.12494924973E+03 -0.30662483191E+02  0.30575858837E+03  0.17200000000E+03 0.  1.
</event>
<event>
 4    1  0.6365520E-002  0.2105300E+03  0.7818608E-02  0.1141147E+00
         -4   -1    0    0    0  501 -0.00000000000E+00  0.00000000000E+00  0.64631719348E+03  0.64631719348E+03  0.00000000000E+00 0.  1.
          4   -1    0    0  502    0  0.00000000000E+00 -0.00000000000E+00 -0.95613319160E+02  0.95613319160E+02  0.00000000000E+00 0. -1.
          6    1    1    2  502    0 -0.22875937799E+02 -0.11922909623E+03  0.78090154584E+02  0.22454611589E+03  0.17200000000E+03 0. -1.
         -6    1    1    2    0  501  0.22875937799E+02  0.11922909623E+03  0.47261371973E+03  0.51738439675E+03  0.17200000000E+03 0.  1.
</event>
<event>
 4    1  0.6365520E-002  0.2799078E+03  0.7818608E-02  0.1095739E+00
         -1   -1    0    0    0  501 -0.00000000000E+00  0.00000000000E+00  0.27641578877E+03  0.27641578877E+03  0.00000000000E+00 0.  1.
          1   -1    0    0  502    0  0.00000000000E+00 -0.00000000000E+00 -0.30829390986E+03  0.30829390986E+03  0.00000000000E+00 0. -1.
          6    1    1    2  502    0 -0.17001362285E+03  0.14092468762E+03 -0.98941365459E+02  0.29688009925E+03  0.17200000000E+03 0.  1.
         -6    1    1    2    0  501  0.17001362285E+03 -0.14092468762E+03  0.67063244367E+02  0.28782959938E+03  0.17200000000E+03 0.  1.
</event>
<event>
 4    1  0.6365520E-002  0.2273933E+03  0.7818608E-02  0.1128488E+00
         -2   -1    0    0    0  501 -0.00000000000E+00  0.00000000000E+00  0.20453652652E+02  0.20453652652E+02  0.00000000000E+00 0.  1.
          2   -1    0    0  502    0  0.00000000000E+00 -0.00000000000E+00 -0.25972854579E+04  0.25972854579E+04  0.00000000000E+00 0. -1.
          6    1    1    2  502    0 -0.12531294477E+03 -0.80127279553E+02 -0.10747070513E+04  0.10985003237E+04  0.17200000000E+03 0. -1.
         -6    1    1    2    0  501  0.12531294477E+03  0.80127279553E+02 -0.15021247540E+04  0.15192387869E+04  0.17200000000E+03 0. -1.
</event>
<event>
 4    1  0.6365520E-002  0.2298915E+03  0.7818608E-02  0.1126716E+00
         -3   -1    0    0    0  501 -0.00000000000E+00  0.00000000000E+00  0.66908956039E+02  0.66908956039E+02  0.00000000000E+00 0.  1.
          3   -1    0    0  502    0  0.00000000000E+00 -0.00000000000E+00 -0.79658018666E+03  0.79658018666E+03  0.00000000000E+00 0. -1.
          6    1    1    2  502    0 -0.10803005740E+03  0.10768290758E+03 -0.40442954519E+03  0.46520249238E+03  0.17200000000E+03 0. -1.
         -6    1    1    2    0  501  0.10803005740E+03 -0.10768290758E+03 -0.32524168542E+03  0.39828665032E+03  0.17200000000E+03 0.  1.
</event>
<event>
 4    1  0.6365520E-002  0.1727575E+03  0.7818608E-02  0.1175002E+00
         -1   -1    0    0    0  501 -0.00000000000E+00  0.00000000000E+00  0.14045541675E+03  0.14045541675E+03  0.00000000000E+00 0.  1.
          1   -1    0    0  502    0  0.00000000000E+00 -0.00000000000E+00 -0.21715280883E+03  0.21715280883E+03  0.00000000000E+00 0. -1.
          6    1    1    2  502    0  0.15111718269E+02  0.57273120361E+01 -0.12143544978E+02  0.17318380934E+03  0.17200000000E+03 0.  1.
         -6    1    1    2    0  501 -0.15111718269E+02 -0.57273120361E+01 -0.64553847102E+02  0.18442441625E+03  0.17200000000E+03 0. -1.
</event>
<event>
 4    1  0.6365520E-002  0.2559792E+03  0.7818608E-02  0.1109583E+00
          1   -1    0    0  502    0  0.00000000000E+00  0.00000000000E+00  0.56107043766E+03  0.56107043766E+03  0.00000000000E+00 0. -1.
         -1   -1    0    0    0  501 -0.00000000000E+00 -0.00000000000E+00 -0.11686374155E+03  0.11686374155E+03  0.00000000000E+00 0.  1.
          6    1    1    2  502    0 -0.87190196457E+02 -0.16834251232E+03  0.23083000385E+03  0.34468510628E+03  0.17200000000E+03 0. -1.
         -6    1    1    2    0  501  0.87190196457E+02  0.16834251232E+03  0.21337669226E+03  0.33324907293E+03  0.17200000000E+03 0.  1.
</event>
<event>
 4    1  0.6365520E-002  0.4227081E+03  0.7818608E-02  0.1036189E+00
         -2   -1    0    0    0  501 -0.00000000000E+00  0.00000000000E+00  0.39300662792E+03  0.39300662792E+03  0.00000000000E+00 0.  1.
          2   -1    0    0  502    0  0.00000000000E+00 -0.00000000000E+00 -0.45496025882E+03  0.45496025882E+03  0.00000000000E+00 0. -1.
          6    1    1    2  502    0 -0.18731577018E+03  0.33765503343E+03 -0.41973327553E+02  0.42478686372E+03  0.17200000000E+03 0. -1.
         -6    1    1    2    0  501  0.18731577018E+03 -0.33765503343E+03 -0.19980303355E+02  0.42318002302E+03  0.17200000000E+03 0.  1.
</event>
<event>
 4    1  0.6365520E-002  0.2007724E+03  0.7818608E-02  0.1149089E+00
         -2   -1    0    0    0  501 -0.00000000000E+00  0.00000000000E+00  0.20512923903E+02  0.20512923903E+02  0.00000000000E+00 0.  1.
          2   -1    0    0  502    0  0.00000000000E+00 -0.00000000000E+00 -0.34092244626E+04  0.34092244626E+04  0.00000000000E+00 0. -1.
          6    1    1    2  502    0 -0.10353896759E+03 -0.22866440057E+01 -0.28104691633E+04  0.28176313570E+04  0.17200000000E+03 0. -1.
         -6    1    1    2    0  501  0.10353896759E+03  0.22866440057E+01 -0.57824237541E+03  0.61210602944E+03  0.17200000000E+03 0.  1.
</event>
<event>
 4    1  0.6365520E-002  0.2748217E+03  0.7818608E-02  0.1098551E+00
          3   -1    0    0  502    0  0.00000000000E+00  0.00000000000E+00  0.15493154267E+03  0.15493154267E+03  0.00000000000E+00 0. -1.
         -3   -1    0    0    0  501 -0.00000000000E+00 -0.00000000000E+00 -0.50293955417E+03  0.50293955417E+03  0.00000000000E+00 0.  1.
          6    1    1    2  502    0  0.13915745677E+03  0.16302814830E+03 -0.11634520962E+03  0.29843455349E+03  0.17200000000E+03 0. -1.
         -6    1    1    2    0  501 -0.13915745677E+03 -0.16302814830E+03 -0.23166280188E+03  0.35943654334E+03  0.17200000000E+03 0.  1.
</event>
<event>
 4    1  0.6365520E-002  0.1989902E+03  0.7818608E-02  0.1150594E+00
         -1   -1    0    0    0  501 -0.00000000000E+00  0.00000000000E+00  0.45985263616E+02  0.45985263616E+02  0.00000000000E+00 0.  1.
          1   -1    0    0  502    0  0.00000000000E+00 -0.00000000000E+00 -0.93668845137E+03  0.93668845137E+03  0.00000000000E+00 0. -1.
          6    1    1    2  502    0  0.42612932680E+02  0.90538545173E+02 -0.30575953130E+03  0.36480951355E+03  0.17200000000E+03 0.  1.
         -6    1    1    2    0  501 -0.42612932680E+02 -0.90538545173E+02 -0.58494365645E+03  0.61786420143E+03  0.17200000000E+03 0.  1.
</event>
<event>
 4    1  0.6365520E-002  0.2485271E+03  0.7818608E-02  0.1114239E+00
          2   -1    0    0  502    0  0.00000000000E+00  0.00000000000E+00  0.50388053399E+03  0.50388053399E+03  0.00000000000E+00 0. -1.
         -2   -1    0    0    0  501 -0.00000000000E+00 -0.00000000000E+00 -0.13840541273E+03  0.13840541273E+03  0.00000000000E+00 0.  1.
          6    1    1    2  502    0 -0.13496028995E+03 -0.11818386789E+03  0.74145374818E+02  0.25935158203E+03  0.17200000000E+03 0.  1.
         -6    1    1    2    0  501  0.13496028995E+03  0.11818386789E+03  0.29132974644E+03  0.38293436468E+03  0.17200000000E+03 0. -1.
</event>
<event>
 4    1  0.6365520E-002  0.2148066E+03  0.7818608E-02  0.1137815E+00
         -1   -1    0    0    0  501 -0.00000000000E+00  0.00000000000E+00  0.45207773798E+02  0.45207773798E+02  0.00000000000E+00 0.  1.
          1   -1    0    0  502    0  0.00000000000E+00 -0.00000000000E+00 -0.10279063050E+04  0.10279063050E+04  0.00000000000E+00 0. -1.
          6    1    1    2  502    0 -0.29139980617E+02 -0.12533453950E+03 -0.53639136633E+03  0.57780410447E+03  0.17200000000E+03 0. -1.
         -6    1    1    2    0  501  0.29139980617E+02  0.12533453950E+03 -0.44630716492E+03  0.49530997438E+03  0.17200000000E+03 0. -1.
</event>
<event>
 4    1  0.6365520E-002  0.2085732E+03  0.7818608E-02  0.1142701E+00
         -2   -1    0    0    0  501 -0.00000000000E+00  0.00000000000E+00  0.12774588539E+03  0.12774588539E+03  0.00000000000E+00 0.  1.
          2   -1    0    0  502    0  0.00000000000E+00 -0.00000000000E+00 -0.34279721726E+03  0.34279721726E+03  0.00000000000E+00 0. -1.
          6    1    1    2  502    0 -0.15359971304E+02  0.11697376331E+03 -0.88441107955E+02  0.22654937563E+03  0.17200000000E+03 0. -1.
         -6    1    1    2    0  501  0.15359971304E+02 -0.11697376331E+03 -0.12661022392E+03  0.24399372701E+03  0.17200000000E+03 0.  1.
</event>
<event>
 4    1  0.6365520E-002  0.5975533E+03  0.7818608E-02  0.9910495E-01
          2   -1    0    0  502    0  0.00000000000E+00  0.00000000000E+00  0.21673158567E+04  0.21673158567E+04  0.00000000000E+00 0. -1.
         -2   -1    0    0    0  501 -0.00000000000E+00 -0.00000000000E+00 -0.17627592692E+03  0.17627592692E+03  0.00000000000E+00 0.  1.
          6    1    1    2  502    0  0.20370526092E+03  0.53478048464E+03  0.12951272906E+04  0.14263326046E+04  0.17200000000E+03 0. -1.
         -6    1    1    2    0  501 -0.20370526092E+03 -0.53478048464E+03  0.69591263909E+03  0.91725917893E+03  0.17200000000E+03 0.  1.
</event>
<event>
 4    1  0.6365520E-002  0.2858253E+03  0.7818608E-02  0.1092549E+00
         -1   -1    0    0    0  501 -0.00000000000E+00  0.00000000000E+00  0.14023488536E+03  0.14023488536E+03  0.00000000000E+00 0.  1.
          1   -1    0    0  502    0  0.00000000000E+00 -0.00000000000E+00 -0.85408900598E+03  0.85408900598E+03  0.00000000000E+00 0. -1.
          6    1    1    2  502    0 -0.32269746064E+02 -0.22598842378E+03 -0.63724408197E+03  0.69840971084E+03  0.17200000000E+03 0. -1.
         -6    1    1    2    0  501  0.32269746064E+02  0.22598842378E+03 -0.76610038650E+02  0.29591418049E+03  0.17200000000E+03 0.  1.
</event>
<event>
 4    1  0.6365520E-002  0.2323278E+03  0.7818608E-02  0.1125012E+00
         -2   -1    0    0    0  501 -0.00000000000E+00  0.00000000000E+00  0.10044796010E+03  0.10044796010E+03  0.00000000000E+00 0.  1.
          2   -1    0    0  502    0  0.00000000000E+00 -0.00000000000E+00 -0.82347762362E+03  0.82347762362E+03  0.00000000000E+00 0. -1.
          6    1    1    2  502    0 -0.61988597547E+01 -0.15605703510E+03 -0.63382077256E+03  0.67505925355E+03  0.17200000000E+03 0. -1.
         -6    1    1    2    0  501  0.61988597547E+01  0.15605703510E+03 -0.89208890951E+02  0.24886633017E+03  0.17200000000E+03 0. -1.
</event>
<event>
 4    1  0.6365520E-002  0.2767575E+03  0.7818608E-02  0.1097473E+00
          2   -1    0    0  502    0  0.00000000000E+00  0.00000000000E+00  0.88499868887E+02  0.88499868887E+02  0.00000000000E+00 0. -1.
         -2   -1    0    0    0  501 -0.00000000000E+00 -0.00000000000E+00 -0.15844964051E+04  0.15844964051E+04  0.00000000000E+00 0.  1.
          6    1    1    2  502    0  0.15656299279E+03  0.14999578296E+03 -0.18450426598E+03  0.33262069957E+03  0.17200000000E+03 0. -1.
         -6    1    1    2    0  501 -0.15656299279E+03 -0.14999578296E+03 -0.13114922702E+04  0.13403755744E+04  0.17200000000E+03 0.  1.
</event>
<event>
 4    1  0.6365520E-002  0.1737673E+03  0.7818608E-02  0.1173975E+00
         -2   -1    0    0    0  501 -0.00000000000E+00  0.00000000000E+00  0.20366496435E+02  0.20366496435E+02  0.00000000000E+00 0.  1.
          2   -1    0    0  502    0  0.00000000000E+00 -0.00000000000E+00 -0.16621037402E+04  0.16621037402E+04  0.00000000000E+00 0. -1.
          6    1    1    2  502    0  0.21484172799E+02  0.12226542374E+02 -0.10973357304E+04  0.11110088943E+04  0.17200000000E+03 0. -1.
         -6    1    1    2    0  501 -0.21484172799E+02 -0.12226542374E+02 -0.54440151337E+03  0.57146134233E+03  0.17200000000E+03 0.  1.
</event>
<event>
 4    1  0.6365520E-002  0.1793528E+03  0.7818608E-02  0.1168431E+00
          1   -1    0    0  502    0  0.00000000000E+00  0.00000000000E+00  0.96391409135E+03  0.96391409135E+03  0.00000000000E+00 0. -1.
         -1   -1    0    0    0  501 -0.00000000000E+00 -0.00000000000E+00 -0.37836975424E+02  0.37836975424E+02  0.00000000000E+00 0.  1.
          6    1    1    2  502    0 -0.50662513371E+02 -0.40917011662E+01  0.63510521707E+03  0.65994398931E+03  0.17200000000E+03 0. -1.
         -6    1    1    2    0  501  0.50662513371E+02  0.40917011662E+01  0.29097189886E+03  0.34180707747E+03  0.17200000000E+03 0.  1.
</event>
<event>
 4    1  0.6365520E-002  0.2651281E+03  0.7818608E-02  0.1104101E+00
          2   -1    0    0  502    0  0.00000000000E+00  0.00000000000E+00  0.53305277601E+03  0.53305277601E+03  0.00000000000E+00 0. -1.
         -2   -1    0    0    0  501 -0.00000000000E+00 -0.00000000000E+00 -0.18358232193E+03  0.18358232193E+03  0.00000000000E+00 0.  1.
          6    1    1    2  502    0  0.21367967101E+02 -0.20062977749E+03  0.36491124499E+03  0.45105777274E+03  0.17200000000E+03 0. -1.
         -6    1    1    2    0  501 -0.21367967101E+02  0.20062977749E+03 -0.15440790908E+02  0.26557732519E+03  0.17200000000E+03 0.  1.
</event>
<event>
 4    1  0.6365520E-002  0.2975997E+03  0.7818608E-02  0.1086447E+00
         -2   -1    0    0    0  501 -0.00000000000E+00  0.00000000000E+00  0.99513762393E+02  0.99513762393E+02  0.00000000000E+00 0.  1.
          2   -1    0    0  502    0  0.00000000000E+00 -0.00000000000E+00 -0.11349591817E+04  0.11349591817E+04  0.00000000000E+00 0. -1.
          6    1    1    2  502    0 -0.23716540092E+03 -0.52289059069E+02 -0.80448579508E+03  0.85776626629E+03  0.17200000000E+03 0. -1.
         -6    1    1    2    0  501  0.23716540092E+03  0.52289059069E+02 -0.23095962426E+03  0.37670667784E+03  0.17200000000E+03 0.  1.
</event>
<event>
 4    1  0.6365520E-002  0.1839679E+03  0.7818608E-02  0.1164017E+00
         -2   -1    0    0    0  501 -0.00000000000E+00  0.00000000000E+00  0.29489193702E+03  0.29489193702E+03  0.00000000000E+00 0.  1.
          2   -1    0    0  502    0  0.00000000000E+00 -0.00000000000E+00 -0.20158960680E+03  0.20158960680E+03  0.00000000000E+00 0. -1.
          6    1    1    2  502    0 -0.89200599166E+00  0.65263918744E+02 -0.11626073535E+03  0.21762521303E+03  0.17200000000E+03 0. -1.
         -6    1    1    2    0  501  0.89200599166E+00 -0.65263918744E+02  0.20956306557E+03  0.27885633078E+03  0.17200000000E+03 0.  1.
</event>
<event>
 4    1  0.6365520E-002  0.2704440E+03  0.7818608E-02  0.1101026E+00
         -1   -1    0    0    0  501 -0.00000000000E+00  0.00000000000E+00  0.11888406952E+04  0.11888406952E+04  0.00000000000E+00 0.  1.
          1   -1    0    0  502    0  0.00000000000E+00 -0.00000000000E+00 -0.62260426876E+02  0.62260426876E+02  0.00000000000E+00 0. -1.
          6    1    1    2  502    0 -0.17314243026E+03  0.11652325247E+03  0.49516892535E+03  0.56420938858E+03  0.17200000000E+03 0. -1.
         -6    1    1    2    0  501  0.17314243026E+03 -0.11652325247E+03  0.63141134302E+03  0.68689173355E+03  0.17200000000E+03 0.  1.
</event>
<event>
 4    1  0.6365520E-002  0.2334100E+03  0.7818608E-02  0.1124262E+00
          2   -1    0    0  502    0  0.00000000000E+00  0.00000000000E+00  0.73851005518E+02  0.73851005518E+02  0.00000000000E+00 0. -1.
         -2   -1    0    0    0  501 -0.00000000000E+00 -0.00000000000E+00 -0.93321801492E+03  0.93321801492E+03  0.00000000000E+00 0.  1.
          6    1    1    2  502    0  0.10262419271E+03  0.11985206312E+03 -0.19920749215E+03  0.30686131541E+03  0.17200000000E+03 0. -1.
         -6    1    1    2    0  501 -0.10262419271E+03 -0.11985206312E+03 -0.66015951726E+03  0.70020770504E+03  0.17200000000E+03 0.  1.
</event>
<event>
 4    1  0.6365520E-002  0.1931501E+03  0.7818608E-02  0.1155650E+00
         -2   -1    0    0    0  501 -0.00000000000E+00  0.00000000000E+00  0.27347416183E+03  0.27347416183E+03  0.00000000000E+00 0.  1.
          2   -1    0    0  502    0  0.00000000000E+00 -0.00000000000E+00 -0.15272634442E+03  0.15272634442E+03  0.00000000000E+00 0. -1.
          6    1    1    2  502    0 -0.48787687727E+02 -0.73094017903E+02 -0.92604160906E+01  0.19337199702E+03  0.17200000000E+03 0. -1.
         -6    1    1    2    0  501  0.48787687727E+02  0.73094017903E+02  0.13000823350E+03  0.23282850922E+03  0.17200000000E+03 0.  1.
</event>
<event>
 4    1  0.6365520E-002  0.1967248E+03  0.7818608E-02  0.1152532E+00
          1   -1    0    0  502    0  0.00000000000E+00  0.00000000000E+00  0.14027516427E+04  0.14027516427E+04  0.00000000000E+00 0. -1.
         -1   -1    0    0    0  501 -0.00000000000E+00 -0.00000000000E+00 -0.29655770260E+02  0.29655770260E+02  0.00000000000E+00 0.  1.
          6    1    1    2  502    0 -0.91650528166E+02 -0.26773335125E+02  0.49747934233E+03  0.53496385563E+03  0.17200000000E+03 0. -1.
         -6    1    1    2    0  501  0.91650528166E+02  0.26773335125E+02  0.87561653007E+03  0.89744355729E+03  0.17200000000E+03 0. -1.
</event>
<event>
 4    1  0.6365520E-002  0.2068432E+03  0.7818608E-02  0.1144090E+00
          2   -1    0    0  502    0  0.00000000000E+00  0.00000000000E+00  0.94438234312E+02  0.94438234312E+02  0.00000000000E+00 0. -1.
         -2   -1    0    0    0  501 -0.00000000000E+00 -0.00000000000E+00 -0.47669327293E+03  0.47669327293E+03  0.00000000000E+00 0.  1.
          6    1    1    2  502    0 -0.64535043110E+02 -0.95054392541E+02 -0.12751383612E+03  0.24298948071E+03  0.17200000000E+03 0. -1.
         -6    1    1    2    0  501  0.64535043110E+02  0.95054392541E+02 -0.25474120249E+03  0.32814202653E+03  0.17200000000E+03 0.  1.
</event>
<event>
 4    1  0.6365520E-002  0.1809027E+03  0.7818608E-02  0.1166932E+00
         -2   -1    0    0    0  501 -0.00000000000E+00  0.00000000000E+00  0.12893934134E+03  0.12893934134E+03  0.00000000000E+00 0.  1.
          2   -1    0    0  502    0  0.00000000000E+00 -0.00000000000E+00 -0.27395302914E+03  0.27395302914E+03  0.00000000000E+00 0. -1.
          6    1    1    2  502    0  0.43079307632E+02  0.35860252216E+02 -0.12713408707E+03  0.22110825523E+03  0.17200000000E+03 0. -1.
         -6    1    1    2    0  501 -0.43079307632E+02 -0.35860252216E+02 -0.17879600721E+02  0.18178411525E+03  0.17200000000E+03 0.  1.
</event>
<event>
 4    1  0.6365520E-002  0.3739045E+03  0.7818608E-02  0.1053210E+00
         -1   -1    0    0    0  501 -0.00000000000E+00  0.00000000000E+00  0.28512108871E+03  0.28512108871E+03  0.00000000000E+00 0.  1.
          1   -1    0    0  502    0  0.00000000000E+00 -0.00000000000E+00 -0.50628103497E+03  0.50628103497E+03  0.00000000000E+00 0. -1.
          6    1    1    2  502    0  0.25760988143E+03  0.20942232954E+03 -0.40351795772E+02  0.37607556493E+03  0.17200000000E+03 0. -1.
         -6    1    1    2    0  501 -0.25760988143E+03 -0.20942232954E+03 -0.18080815049E+03  0.41532655875E+03  0.17200000000E+03 0.  1.
</event>
<event>
 4    1  0.6365520E-002  0.1891568E+03  0.7818608E-02  0.1159224E+00
         -1   -1    0    0    0  501 -0.00000000000E+00  0.00000000000E+00  0.35524866813E+03  0.35524866813E+03  0.00000000000E+00 0.  1.
          1   -1    0    0  502    0  0.00000000000E+00 -0.00000000000E+00 -0.16567248802E+03  0.16567248802E+03  0.00000000000E+00 0. -1.
          6    1    1    2  502    0 -0.67205890006E+02  0.40983470960E+02 -0.68298470664E+02  0.20110931763E+03  0.17200000000E+03 0. -1.
         -6    1    1    2    0  501  0.67205890006E+02 -0.40983470960E+02  0.25787465077E+03  0.31981183851E+03  0.17200000000E+03 0.  1.
</event>
<event>
 4    1  0.6365520E-002  0.2055683E+03  0.7818608E-02  0.1145124E+00
         -1   -1    0    0    0  501 -0.00000000000E+00  0.00000000000E+00  0.74782598106E+02  0.74782598106E+02  0.00000000000E+00 0.  1.
          1   -1    0    0  502    0  0.00000000000E+00 -0.00000000000E+00 -0.59901191634E+03  0.59901191634E+03  0.00000000000E+00 0. -1.
          6    1    1    2  502    0  0.17995912229E+02  0.11113270220E+03 -0.34229512026E+03  0.39927970110E+03  0.17200000000E+03 0. -1.
         -6    1    1    2    0  501 -0.17995912229E+02 -0.11113270220E+03 -0.18193419797E+03  0.27451481335E+03  0.17200000000E+03 0.  1.
</event>
<event>
 4    1  0.6365520E-002  0.2044193E+03  0.7818608E-02  0.1146063E+00
          2   -1    0    0  502    0  0.00000000000E+00  0.00000000000E+00  0.10785505239E+04  0.10785505239E+04  0.00000000000E+00 0. -1.
         -2   -1    0    0    0  501 -0.00000000000E+00 -0.00000000000E+00 -0.42464157338E+02  0.42464157338E+02  0.00000000000E+00 0.  1.
          6    1    1    2  502    0 -0.45106372536E+02  0.10083977537E+03  0.35213912845E+03  0.40717221286E+03  0.17200000000E+03 0.  1.
         -6    1    1    2    0  501  0.45106372536E+02 -0.10083977537E+03  0.68394723813E+03  0.71384246839E+03  0.17200000000E+03 0. -1.
</event>
<event>
 4    1  0.6365520E-002  0.1878236E+03  0.7818608E-02  0.1160439E+00
         -1   -1    0    0    0  501 -0.00000000000E+00  0.00000000000E+00  0.21830253467E+02  0.21830253467E+02  0.00000000000E+00 0.  1.
          1   -1    0    0  502    0  0.00000000000E+00 -0.00000000000E+00 -0.16598603454E+04  0.16598603454E+04  0.00000000000E+00 0. -1.
          6    1    1    2  502    0  0.47987134510E+02 -0.58231692642E+02 -0.95569823440E+03  0.97397988190E+03  0.17200000000E+03 0. -1.
         -6    1    1    2    0  501 -0.47987134510E+02  0.58231692642E+02 -0.68233185749E+03  0.70771071693E+03  0.17200000000E+03 0.  1.
</event>
<event>
 4    1  0.6365520E-002  0.3306989E+03  0.7818608E-02  0.1070828E+00
         -3   -1    0    0    0  501 -0.00000000000E+00  0.00000000000E+00  0.21581420168E+03  0.21581420168E+03  0.00000000000E+00 0.  1.
          3   -1    0    0  502    0  0.00000000000E+00 -0.00000000000E+00 -0.54311618898E+03  0.54311618898E+03  0.00000000000E+00 0. -1.
          6    1    1    2  502    0  0.47135713908E+01  0.28241024011E+03 -0.26185566715E+03  0.42181767613E+03  0.17200000000E+03 0.  1.
         -6    1    1    2    0  501 -0.47135713908E+01 -0.28241024011E+03 -0.65446320152E+02  0.33711271453E+03  0.17200000000E+03 0.  1.
</event>
<event>
 4    1  0.6365520E-002  0.1752387E+03  0.7818608E-02  0.1172492E+00
         -2   -1    0    0    0  501 -0.00000000000E+00  0.00000000000E+00  0.30700855885E+02  0.30700855885E+02  0.00000000000E+00 0.  1.
          2   -1    0    0  502    0  0.00000000000E+00 -0.00000000000E+00 -0.18796542798E+04  0.18796542798E+04  0.00000000000E+00 0. -1.
          6    1    1    2  502    0 -0.15364213104E+02 -0.29808639325E+02 -0.15778159567E+04  0.15875174982E+04  0.17200000000E+03 0. -1.
         -6    1    1    2    0  501  0.15364213104E+02  0.29808639325E+02 -0.27113746725E+03  0.32283763747E+03  0.17200000000E+03 0.  1.
</event>
<event>
 4    1  0.6365520E-002  0.2268742E+03  0.7818608E-02  0.1128859E+00
         -1   -1    0    0    0  501 -0.00000000000E+00  0.00000000000E+00  0.40906428447E+03  0.40906428447E+03  0.00000000000E+00 0.  1.
          1   -1    0    0  502    0  0.00000000000E+00 -0.00000000000E+00 -0.12882553227E+03  0.12882553227E+03  0.00000000000E+00 0. -1.
          6    1    1    2  502    0 -0.86293392081E+02 -0.12017217160E+03  0.99097451732E+02  0.24757262628E+03  0.17200000000E+03 0.  1.
         -6    1    1    2    0  501  0.86293392081E+02  0.12017217160E+03  0.18114130047E+03  0.29031719047E+03  0.17200000000E+03 0.  1.
</event>
<event>
 4    1  0.6365520E-002  0.2035794E+03  0.7818608E-02  0.1146754E+00
          2   -1    0    0  502    0  0.00000000000E+00  0.00000000000E+00  0.20596801997E+04  0.20596801997E+04  0.00000000000E+00 0. -1.
         -2   -1    0    0    0  501 -0.00000000000E+00 -0.00000000000E+00 -0.23535469893E+02  0.23535469893E+02  0.00000000000E+00 0.  1.
          6    1    1    2  502    0  0.17797682839E+02  0.10744209814E+03  0.62138276401E+03  0.65388156526E+03  0.17200000000E+03 0. -1.
         -6    1    1    2    0  501 -0.17797682839E+02 -0.10744209814E+03  0.14147619658E+04  0.14293341043E+04  0.17200000000E+03 0.  1.
</event>
<event>
 4    1  0.6365520E-002  0.2324440E+03  0.7818608E-02  0.1124931E+00
         -1   -1    0    0    0  501 -0.00000000000E+00  0.00000000000E+00  0.14708870713E+03  0.14708870713E+03  0.00000000000E+00 0.  1.
          1   -1    0    0  502    0  0.00000000000E+00 -0.00000000000E+00 -0.37487851750E+03  0.37487851750E+03  0.00000000000E+00 0. -1.
          6    1    1    2  502    0  0.15559610798E+03 -0.15364133055E+02 -0.15092690452E+03  0.27714461191E+03  0.17200000000E+03 0. -1.
         -6    1    1    2    0  501 -0.15559610798E+03  0.15364133055E+02 -0.76862905842E+02  0.24482261272E+03  0.17200000000E+03 0.  1.
</event>
<event>
 4    1  0.6365520E-002  0.2083383E+03  0.7818608E-02  0.1142889E+00
          2   -1    0    0  502    0  0.00000000000E+00  0.00000000000E+00  0.43853620596E+03  0.43853620596E+03  0.00000000000E+00 0. -1.
         -2   -1    0    0    0  501 -0.00000000000E+00 -0.00000000000E+00 -0.11402974276E+03  0.11402974276E+03  0.00000000000E+00 0.  1.
          6    1    1    2  502    0  0.11744193526E+03 -0.53123412069E+01  0.61870634548E+02  0.21733109429E+03  0.17200000000E+03 0. -1.
         -6    1    1    2    0  501 -0.11744193526E+03  0.53123412069E+01  0.26263582865E+03  0.33523485442E+03  0.17200000000E+03 0. -1.
</event>
<event>
 4    1  0.6365520E-002  0.1874245E+03  0.7818608E-02  0.1160805E+00
          2   -1    0    0  502    0  0.00000000000E+00  0.00000000000E+00  0.19121518114E+03  0.19121518114E+03  0.00000000000E+00 0. -1.
         -2   -1    0    0    0  501 -0.00000000000E+00 -0.00000000000E+00 -0.18371053889E+03  0.18371053889E+03  0.00000000000E+00 0.  1.
          6    1    1    2  502    0  0.66423442347E+02 -0.33643401303E+02  0.32120043191E+01  0.18745204484E+03  0.17200000000E+03 0. -1.
         -6    1    1    2    0  501 -0.66423442347E+02  0.33643401303E+02  0.42926379290E+01  0.18747367518E+03  0.17200000000E+03 0.  1.
</event>
<event>
 4    1  0.6365520E-002  0.2522855E+03  0.7818608E-02  0.1111869E+00
         -1   -1    0    0    0  501 -0.00000000000E+00  0.00000000000E+00  0.90663447858E+03  0.90663447858E+03  0.00000000000E+00 0.  1.
          1   -1    0    0  502    0  0.00000000000E+00 -0.00000000000E+00 -0.29251276635E+03  0.29251276635E+03  0.00000000000E+00 0. -1.
          6    1    1    2  502    0  0.80592307430E+02 -0.16603875014E+03 -0.21563599922E+03  0.33188382113E+03  0.17200000000E+03 0. -1.
         -6    1    1    2    0  501 -0.80592307430E+02  0.16603875014E+03  0.82975771145E+03  0.86726342381E+03  0.17200000000E+03 0.  1.
</event>
<event>
 4    1  0.6365520E-002  0.1775700E+03  0.7818608E-02  0.1170176E+00
          2   -1    0    0  502    0  0.00000000000E+00  0.00000000000E+00  0.19408066479E+04  0.19408066479E+04  0.00000000000E+00 0. -1.
         -2   -1    0    0    0  501 -0.00000000000E+00 -0.00000000000E+00 -0.16460894298E+02  0.16460894298E+02  0.00000000000E+00 0.  1.
          6    1    1    2  502    0 -0.42764450918E+02  0.10876642853E+02  0.85045759707E+03  0.86879757368E+03  0.17200000000E+03 0. -1.
         -6    1    1    2    0  501  0.42764450918E+02 -0.10876642853E+02  0.10738881566E+04  0.10884699685E+04  0.17200000000E+03 0.  1.
</event>
<event>
 4    1  0.6365520E-002  0.3467434E+03  0.7818608E-02  0.1063960E+00
         -2   -1    0    0    0  501 -0.00000000000E+00  0.00000000000E+00  0.38340371572E+03  0.38340371572E+03  0.00000000000E+00 0.  1.
          2   -1    0    0  502    0  0.00000000000E+00 -0.00000000000E+00 -0.30447994218E+04  0.30447994218E+04  0.00000000000E+00 0. -1.
          6    1    1    2  502    0 -0.28457635370E+03  0.98302004012E+02 -0.29541325760E+04  0.29744125910E+04  0.17200000000E+03 0. -1.
         -6    1    1    2    0  501  0.28457635370E+03 -0.98302004012E+02  0.29273686992E+03  0.45379054649E+03  0.17200000000E+03 0.  1.
</event>
<event>
 4    1  0.6365520E-002  0.2332966E+03  0.7818608E-02  0.1124341E+00
          2   -1    0    0  502    0  0.00000000000E+00  0.00000000000E+00  0.16144787364E+04  0.16144787364E+04  0.00000000000E+00 0. -1.
         -2   -1    0    0    0  501 -0.00000000000E+00 -0.00000000000E+00 -0.34016038940E+02  0.34016038940E+02  0.00000000000E+00 0.  1.
          6    1    1    2  502    0 -0.15746451695E+03 -0.69445965445E+01  0.71230527215E+03  0.74953725875E+03  0.17200000000E+03 0. -1.
         -6    1    1    2    0  501  0.15746451695E+03  0.69445965445E+01  0.86815742531E+03  0.89895751660E+03  0.17200000000E+03 0.  1.
</event>
<event>
 4    1  0.6365520E-002  0.3646865E+03  0.7818608E-02  0.1056743E+00
          2   -1    0    0  502    0  0.00000000000E+00  0.00000000000E+00  0.77643001831E+03  0.77643001831E+03  0.00000000000E+00 0. -1.
         -2   -1    0    0    0  501 -0.00000000000E+00 -0.00000000000E+00 -0.22477847867E+03  0.22477847867E+03  0.00000000000E+00 0.  1.
          6    1    1    2  502    0 -0.32092238901E+03  0.20519889520E+02  0.52002213603E+03  0.63515294819E+03  0.17200000000E+03 0. -1.
         -6    1    1    2    0  501  0.32092238901E+03 -0.20519889520E+02  0.31629403618E+02  0.36605554880E+03  0.17200000000E+03 0.  1.
</event>
<event>
 4    1  0.6365520E-002  0.2118023E+03  0.7818608E-02  0.1140147E+00
         -1   -1    0    0    0  501 -0.00000000000E+00  0.00000000000E+00  0.68518755524E+03  0.68518755524E+03  0.00000000000E+00 0.  1.
          1   -1    0    0  502    0  0.00000000000E+00 -0.00000000000E+00 -0.65647735771E+02  0.65647735771E+02  0.00000000000E+00 0. -1.
          6    1    1    2  502    0  0.11385249899E+03  0.48102167582E+02  0.32922513599E+03  0.39147081656E+03  0.17200000000E+03 0.  1.
         -6    1    1    2    0  501 -0.11385249899E+03 -0.48102167582E+02  0.29031468348E+03  0.35936447445E+03  0.17200000000E+03 0. -1.
</event>
<event>
 4    1  0.6365520E-002  0.3494639E+03  0.7818608E-02  0.1062835E+00
         -1   -1    0    0    0  501 -0.00000000000E+00  0.00000000000E+00  0.23694441697E+03  0.23694441697E+03  0.00000000000E+00 0.  1.
          1   -1    0    0  502    0  0.00000000000E+00 -0.00000000000E+00 -0.63774786475E+03  0.63774786475E+03  0.00000000000E+00 0. -1.
          6    1    1    2  502    0 -0.31639567962E+02  0.30255573224E+03 -0.39194632594E+03  0.52511613553E+03  0.17200000000E+03 0. -1.
         -6    1    1    2    0  501  0.31639567962E+02 -0.30255573224E+03 -0.88571218439E+01  0.34957614619E+03  0.17200000000E+03 0.  1.
</event>
<event>
 4    1  0.6365520E-002  0.1973480E+03  0.7818608E-02  0.1151996E+00
          1   -1    0    0  502    0  0.00000000000E+00  0.00000000000E+00  0.34527613760E+03  0.34527613760E+03  0.00000000000E+00 0. -1.
         -1   -1    0    0    0  501 -0.00000000000E+00 -0.00000000000E+00 -0.19519221214E+03  0.19519221214E+03  0.00000000000E+00 0.  1.
          6    1    1    2  502    0 -0.71990105927E+02 -0.64650212816E+02  0.25061553855E+03  0.31898961352E+03  0.17200000000E+03 0. -1.
         -6    1    1    2    0  501  0.71990105927E+02  0.64650212816E+02 -0.10053161309E+03  0.22147873622E+03  0.17200000000E+03 0.  1.
</event>
<event>
 4    1  0.6365520E-002  0.3791575E+03  0.7818608E-02  0.1051246E+00
         -2   -1    0    0    0  501 -0.00000000000E+00  0.00000000000E+00  0.10651442781E+03  0.10651442781E+03  0.00000000000E+00 0.  1.
          2   -1    0    0  502    0  0.00000000000E+00 -0.00000000000E+00 -0.16089845402E+04  0.16089845402E+04  0.00000000000E+00 0. -1.
          6    1    1    2  502    0 -0.14502069568E+03 -0.30519738138E+03 -0.10955764163E+04  0.11593308966E+04  0.17200000000E+03 0. -1.
         -6    1    1    2    0  501  0.14502069568E+03  0.30519738138E+03 -0.40689369610E+03  0.55616807145E+03  0.17200000000E+03 0.  1.
</event>
<event>
 4    1  0.6365520E-002  0.3279434E+03  0.7818608E-02  0.1072050E+00
          1   -1    0    0  502    0  0.00000000000E+00  0.00000000000E+00  0.79355669614E+03  0.79355669614E+03  0.00000000000E+00 0. -1.
         -1   -1    0    0    0  501 -0.00000000000E+00 -0.00000000000E+00 -0.26179607465E+03  0.26179607465E+03  0.00000000000E+00 0.  1.
          6    1    1    2  502    0 -0.27902299344E+03  0.10443101068E+02  0.63234976078E+03  0.71232935443E+03  0.17200000000E+03 0. -1.
         -6    1    1    2    0  501  0.27902299344E+03 -0.10443101068E+02 -0.10058913930E+03  0.34302341636E+03  0.17200000000E+03 0.  1.
</event>
<event>
 4    1  0.6365520E-002  0.4441876E+03  0.7818608E-02  0.1029470E+00
          2   -1    0    0  502    0  0.00000000000E+00  0.00000000000E+00  0.23915954193E+04  0.23915954193E+04  0.00000000000E+00 0. -1.
         -2   -1    0    0    0  501 -0.00000000000E+00 -0.00000000000E+00 -0.11395557549E+03  0.11395557549E+03  0.00000000000E+00 0.  1.
          6    1    1    2  502    0 -0.35723993096E+03  0.20024544042E+03  0.17970320416E+04  0.18511150054E+04  0.17200000000E+03 0. -1.
         -6    1    1    2    0  501  0.35723993096E+03 -0.20024544042E+03  0.48060780228E+03  0.65443598945E+03  0.17200000000E+03 0.  1.
</event>
<event>
 4    1  0.6365520E-002  0.4104214E+03  0.7818608E-02  0.1040230E+00
          2   -1    0    0  502    0  0.00000000000E+00  0.00000000000E+00  0.11009258255E+04  0.11009258255E+04  0.00000000000E+00 0. -1.
         -2   -1    0    0    0  501 -0.00000000000E+00 -0.00000000000E+00 -0.16749437979E+03  0.16749437979E+03  0.00000000000E+00 0.  1.
          6    1    1    2  502    0 -0.28174158723E+02  0.37157493794E+03  0.65325810194E+03  0.77148678892E+03  0.17200000000E+03 0. -1.
         -6    1    1    2    0  501  0.28174158723E+02 -0.37157493794E+03  0.28017334373E+03  0.49693341633E+03  0.17200000000E+03 0.  1.
</event>
<event>
 4    1  0.6365520E-002  0.2153520E+03  0.7818608E-02  0.1137397E+00
          2   -1    0    0  502    0  0.00000000000E+00  0.00000000000E+00  0.58057448365E+03  0.58057448365E+03  0.00000000000E+00 0. -1.
         -2   -1    0    0    0  501 -0.00000000000E+00 -0.00000000000E+00 -0.10918638532E+03  0.10918638532E+03  0.00000000000E+00 0.  1.
          6    1    1    2  502    0 -0.35853790081E+02 -0.12452701579E+03  0.57019327022E+02  0.22277269936E+03  0.17200000000E+03 0.  1.
         -6    1    1    2    0  501  0.35853790081E+02  0.12452701579E+03  0.41436877131E+03  0.46698816961E+03  0.17200000000E+03 0. -1.
</event>
<event>
 4    1  0.6365520E-002  0.3124266E+03  0.7818608E-02  0.1079189E+00
          3   -1    0    0  502    0  0.00000000000E+00  0.00000000000E+00  0.12150123719E+04  0.12150123719E+04  0.00000000000E+00 0. -1.
         -3   -1    0    0    0  501 -0.00000000000E+00 -0.00000000000E+00 -0.15843162719E+03  0.15843162719E+03  0.00000000000E+00 0.  1.
          6    1    1    2  502    0  0.90420364582E+02 -0.24464368479E+03  0.10104277115E+04  0.10576268411E+04  0.17200000000E+03 0. -1.
         -6    1    1    2    0  501 -0.90420364582E+02  0.24464368479E+03  0.46153033284E+02  0.31581715806E+03  0.17200000000E+03 0.  1.
</event>
<event>
 4    1  0.6365520E-002  0.1842693E+03  0.7818608E-02  0.1163734E+00
         -2   -1    0    0    0  501 -0.00000000000E+00  0.00000000000E+00  0.12233255069E+04  0.12233255069E+04  0.00000000000E+00 0.  1.
          2   -1    0    0  502    0  0.00000000000E+00 -0.00000000000E+00 -0.29649757639E+02  0.29649757639E+02  0.00000000000E+00 0. -1.
          6    1    1    2  502    0  0.71559881965E+01 -0.65726450152E+02  0.75514935625E+03  0.77730671209E+03  0.17200000000E+03 0.  1.
         -6    1    1    2    0  501 -0.71559881965E+01  0.65726450152E+02  0.43852639296E+03  0.47566855240E+03  0.17200000000E+03 0. -1.
</event>
<event>
 4    1  0.6365520E-002  0.3744946E+03  0.7818608E-02  0.1052988E+00
          1   -1    0    0  502    0  0.00000000000E+00  0.00000000000E+00  0.54737445245E+03  0.54737445245E+03  0.00000000000E+00 0. -1.
         -1   -1    0    0    0  501 -0.00000000000E+00 -0.00000000000E+00 -0.28339196963E+03  0.28339196963E+03  0.00000000000E+00 0.  1.
          6    1    1    2  502    0 -0.32429576533E+03 -0.74124606998E+02  0.26062238068E+03  0.45625675457E+03  0.17200000000E+03 0. -1.
         -6    1    1    2    0  501  0.32429576533E+03  0.74124606998E+02  0.33601021351E+01  0.37450966751E+03  0.17200000000E+03 0.  1.
</event>
<event>
 4    1  0.6365520E-002  0.1940886E+03  0.7818608E-02  0.1154825E+00
         -2   -1    0    0    0  501 -0.00000000000E+00  0.00000000000E+00  0.41431623107E+02  0.41431623107E+02  0.00000000000E+00 0.  1.
          2   -1    0    0  502    0  0.00000000000E+00 -0.00000000000E+00 -0.98180172018E+03  0.98180172018E+03  0.00000000000E+00 0. -1.
          6    1    1    2  502    0 -0.89342845964E+02  0.10209038255E+02 -0.33107674671E+03  0.38377360618E+03  0.17200000000E+03 0.  1.
         -6    1    1    2    0  501  0.89342845964E+02 -0.10209038255E+02 -0.60929335037E+03  0.63945973711E+03  0.17200000000E+03 0. -1.
</event>
<event>
 4    1  0.6365520E-002  0.2107200E+03  0.7818608E-02  0.1140997E+00
          1   -1    0    0  502    0  0.00000000000E+00  0.00000000000E+00  0.22400281216E+03  0.22400281216E+03  0.00000000000E+00 0. -1.
         -1   -1    0    0    0  501 -0.00000000000E+00 -0.00000000000E+00 -0.19847151643E+03  0.19847151643E+03  0.00000000000E+00 0.  1.
          6    1    1    2  502    0 -0.11541675770E+03 -0.38702773786E+02  0.53193292562E+01  0.21078716261E+03  0.17200000000E+03 0.  1.
         -6    1    1    2    0  501  0.11541675770E+03  0.38702773786E+02  0.20211966475E+02  0.21168716599E+03  0.17200000000E+03 0. -1.
</event>
<event>
 4    1  0.6365520E-002  0.1885713E+03  0.7818608E-02  0.1159756E+00
         -2   -1    0    0    0  501 -0.00000000000E+00  0.00000000000E+00  0.67695234957E+02  0.67695234957E+02  0.00000000000E+00 0.  1.
          2   -1    0    0  502    0  0.00000000000E+00 -0.00000000000E+00 -0.54123876818E+03  0.54123876818E+03  0.00000000000E+00 0. -1.
          6    1    1    2  502    0  0.90451357415E+01  0.76768067302E+02 -0.28904817469E+03  0.34512026589E+03  0.17200000000E+03 0. -1.
         -6    1    1    2    0  501 -0.90451357415E+01 -0.76768067302E+02 -0.18449535853E+03  0.26381373724E+03  0.17200000000E+03 0.  1.
</event>
<event>
 4    1  0.6365520E-002  0.1751311E+03  0.7818608E-02  0.1172600E+00
          2   -1    0    0  502    0  0.00000000000E+00  0.00000000000E+00  0.92523322774E+03  0.92523322774E+03  0.00000000000E+00 0. -1.
         -2   -1    0    0    0  501 -0.00000000000E+00 -0.00000000000E+00 -0.33642592092E+02  0.33642592092E+02  0.00000000000E+00 0.  1.
          6    1    1    2  502    0 -0.24821003826E+02  0.21698347700E+02  0.38774454673E+03  0.42546061397E+03  0.17200000000E+03 0.  1.
         -6    1    1    2    0  501  0.24821003826E+02 -0.21698347700E+02  0.50384608892E+03  0.53341520586E+03  0.17200000000E+03 0. -1.
</event>
<event>
 4    1  0.6365520E-002  0.1945018E+03  0.7818608E-02  0.1154463E+00
          2   -1    0    0  502    0  0.00000000000E+00  0.00000000000E+00  0.26346953650E+04  0.26346953650E+04  0.00000000000E+00 0. -1.
         -2   -1    0    0    0  501 -0.00000000000E+00 -0.00000000000E+00 -0.21749336895E+02  0.21749336895E+02  0.00000000000E+00 0.  1.
          6    1    1    2  502    0  0.18784027788E+02  0.88848876855E+02  0.20807331457E+04  0.20898041502E+04  0.17200000000E+03 0. -1.
         -6    1    1    2    0  501 -0.18784027788E+02 -0.88848876855E+02  0.53221288242E+03  0.56664055170E+03  0.17200000000E+03 0.  1.
</event>
<event>
 4    1  0.6365520E-002  0.2452091E+03  0.7818608E-02  0.1116371E+00
         -4   -1    0    0    0  501 -0.00000000000E+00  0.00000000000E+00  0.28540436804E+03  0.28540436804E+03  0.00000000000E+00 0.  1.
          4   -1    0    0  502    0  0.00000000000E+00 -0.00000000000E+00 -0.30828307072E+03  0.30828307072E+03  0.00000000000E+00 0. -1.
          6    1    1    2  502    0 -0.15659295903E+03  0.77602501492E+02 -0.17847007994E+03  0.30328051782E+03  0.17200000000E+03 0. -1.
         -6    1    1    2    0  501  0.15659295903E+03 -0.77602501492E+02  0.15559137726E+03  0.29040692094E+03  0.17200000000E+03 0.  1.
</event>
<event>
 4    1  0.6365520E-002  0.3042783E+03  0.7818608E-02  0.1083121E+00
         -1   -1    0    0    0  501 -0.00000000000E+00  0.00000000000E+00  0.19812159569E+03  0.19812159569E+03  0.00000000000E+00 0.  1.
          1   -1    0    0  502    0  0.00000000000E+00 -0.00000000000E+00 -0.46737541920E+03  0.46737541920E+03  0.00000000000E+00 0. -1.
          6    1    1    2  502    0 -0.12559926217E+03  0.21731569078E+03 -0.13085796138E+03  0.33122362563E+03  0.17200000000E+03 0. -1.
         -6    1    1    2    0  501  0.12559926217E+03 -0.21731569078E+03 -0.13839586213E+03  0.33427338926E+03  0.17200000000E+03 0.  1.
</event>
<event>
 4    1  0.6365520E-002  0.1110091E+04  0.7818608E-02  0.9195412E-01
          2   -1    0    0  502    0  0.00000000000E+00  0.00000000000E+00  0.47064762838E+04  0.47064762838E+04  0.00000000000E+00 0. -1.
         -2   -1    0    0    0  501 -0.00000000000E+00 -0.00000000000E+00 -0.30054547569E+03  0.30054547569E+03  0.00000000000E+00 0.  1.
          6    1    1    2  502    0  0.10340135013E+04 -0.36542284077E+03  0.31014913492E+04  0.32941691461E+04  0.17200000000E+03 0. -1.
         -6    1    1    2    0  501 -0.10340135013E+04  0.36542284077E+03  0.13044394589E+04  0.17128526134E+04  0.17200000000E+03 0.  1.
</event>
<event>
 4    1  0.6365520E-002  0.3444469E+03  0.7818608E-02  0.1064918E+00
          1   -1    0    0  502    0  0.00000000000E+00  0.00000000000E+00  0.70205974370E+03  0.70205974370E+03  0.00000000000E+00 0. -1.
         -1   -1    0    0    0  501 -0.00000000000E+00 -0.00000000000E+00 -0.28701025732E+03  0.28701025732E+03  0.00000000000E+00 0.  1.
          6    1    1    2  502    0 -0.12916051048E+03 -0.26903014798E+03  0.52464197154E+03  0.62760884019E+03  0.17200000000E+03 0. -1.
         -6    1    1    2    0  501  0.12916051048E+03  0.26903014798E+03 -0.10959248516E+03  0.36146116083E+03  0.17200000000E+03 0.  1.
</event>
<event>
 4    1  0.6365520E-002  0.2764203E+03  0.7818608E-02  0.1097660E+00
          2   -1    0    0  502    0  0.00000000000E+00  0.00000000000E+00  0.75311427915E+03  0.75311427915E+03  0.00000000000E+00 0. -1.
         -2   -1    0    0    0  501 -0.00000000000E+00 -0.00000000000E+00 -0.21466244088E+03  0.21466244088E+03  0.00000000000E+00 0.  1.
          6    1    1    2  502    0 -0.50807481100E+02  0.21033972269E+03 -0.82174365462E+02  0.28837618733E+03  0.17200000000E+03 0.  1.
         -6    1    1    2    0  501  0.50807481100E+02 -0.21033972269E+03  0.62062620373E+03  0.67940053270E+03  0.17200000000E+03 0. -1.
</event>
<event>
 4    1  0.6365520E-002  0.2910494E+03  0.7818608E-02  0.1089803E+00
          2   -1    0    0  502    0  0.00000000000E+00  0.00000000000E+00  0.71030642687E+03  0.71030642687E+03  0.00000000000E+00 0. -1.
         -2   -1    0    0    0  501 -0.00000000000E+00 -0.00000000000E+00 -0.12078350748E+03  0.12078350748E+03  0.00000000000E+00 0.  1.
          6    1    1    2  502    0 -0.18179797896E+03 -0.14857741288E+03  0.24806159906E+03  0.38241902372E+03  0.17200000000E+03 0. -1.
         -6    1    1    2    0  501  0.18179797896E+03  0.14857741288E+03  0.34146132033E+03  0.44867091064E+03  0.17200000000E+03 0.  1.
</event>
<event>
 4    1  0.6365520E-002  0.1819245E+03  0.7818608E-02  0.1165953E+00
         -1   -1    0    0    0  501 -0.00000000000E+00  0.00000000000E+00  0.47347694903E+03  0.47347694903E+03  0.00000000000E+00 0.  1.
          1   -1    0    0  502    0  0.00000000000E+00 -0.00000000000E+00 -0.75817167436E+02  0.75817167436E+02  0.00000000000E+00 0. -1.
          6    1    1    2  502    0 -0.57469859125E+02 -0.14482280791E+02  0.27555026433E+03  0.33018853605E+03  0.17200000000E+03 0.  1.
         -6    1    1    2    0  501  0.57469859125E+02  0.14482280791E+02  0.12210951727E+03  0.21910558042E+03  0.17200000000E+03 0. -1.
</event>
<event>
 4    1  0.6365520E-002  0.1724907E+03  0.7818608E-02  0.1175275E+00
         -2   -1    0    0    0  501 -0.00000000000E+00  0.00000000000E+00  0.94250857213E+01  0.94250857213E+01  0.00000000000E+00 0.  1.
          2   -1    0    0  502    0  0.00000000000E+00 -0.00000000000E+00 -0.35694614762E+04  0.35694614762E+04  0.00000000000E+00 0. -1.
          6    1    1    2  502    0 -0.12538505235E+02 -0.34377796122E+01 -0.23884584161E+04  0.23946788173E+04  0.17200000000E+03 0. -1.
         -6    1    1    2    0  501  0.12538505235E+02  0.34377796122E+01 -0.11715779744E+04  0.11842077446E+04  0.17200000000E+03 0.  1.
</event>
<event>
 4    1  0.6365520E-002  0.2828427E+03  0.7818608E-02  0.1094146E+00
          4   -1    0    0  502    0  0.00000000000E+00  0.00000000000E+00  0.18130447654E+03  0.18130447654E+03  0.00000000000E+00 0. -1.
         -4   -1    0    0    0  501 -0.00000000000E+00 -0.00000000000E+00 -0.48381208415E+03  0.48381208415E+03  0.00000000000E+00 0.  1.
          6    1    1    2  502    0  0.77032250655E+02  0.21090767568E+03 -0.52612838538E+02  0.28769450131E+03  0.17200000000E+03 0. -1.
         -6    1    1    2    0  501 -0.77032250655E+02 -0.21090767568E+03 -0.24989476907E+03  0.37742205939E+03  0.17200000000E+03 0.  1.
</event>
<event>
 4    1  0.6365520E-002  0.2047361E+03  0.7818608E-02  0.1145804E+00
         -2   -1    0    0    0  501 -0.00000000000E+00  0.00000000000E+00  0.52390498883E+02  0.52390498883E+02  0.00000000000E+00 0.  1.
          2   -1    0    0  502    0  0.00000000000E+00 -0.00000000000E+00 -0.80808188261E+03  0.80808188261E+03  0.00000000000E+00 0. -1.
          6    1    1    2  502    0  0.11099280201E+03 -0.36682002823E+01 -0.33504638179E+03  0.39264861612E+03  0.17200000000E+03 0. -1.
         -6    1    1    2    0  501 -0.11099280201E+03  0.36682002823E+01 -0.42064500194E+03  0.46782376537E+03  0.17200000000E+03 0.  1.
</event>
<event>
 4    1  0.6365520E-002  0.2523554E+03  0.7818608E-02  0.1111825E+00
         -2   -1    0    0    0  501 -0.00000000000E+00  0.00000000000E+00  0.58156559777E+02  0.58156559777E+02  0.00000000000E+00 0.  1.
          2   -1    0    0  502    0  0.00000000000E+00 -0.00000000000E+00 -0.20373157707E+04  0.20373157707E+04  0.00000000000E+00 0. -1.
          6    1    1    2  502    0  0.13759466771E+03  0.12315410833E+03 -0.17021272068E+04  0.17207324763E+04  0.17200000000E+03 0. -1.
         -6    1    1    2    0  501 -0.13759466771E+03 -0.12315410833E+03 -0.27703200416E+03  0.37473985418E+03  0.17200000000E+03 0.  1.
</event>
<event>
 4    1  0.6365520E-002  0.2736947E+03  0.7818608E-02  0.1099183E+00
         -2   -1    0    0    0  501 -0.00000000000E+00  0.00000000000E+00  0.13376281261E+03  0.13376281261E+03  0.00000000000E+00 0.  1.
          2   -1    0    0  502    0  0.00000000000E+00 -0.00000000000E+00 -0.13691486642E+04  0.13691486642E+04  0.00000000000E+00 0. -1.
          6    1    1    2  502    0 -0.21262701366E+03  0.10702059197E+02 -0.11953751984E+04  0.12263077289E+04  0.17200000000E+03 0. -1.
         -6    1    1    2    0  501  0.21262701366E+03 -0.10702059197E+02 -0.40010653243E+02  0.27660374796E+03  0.17200000000E+03 0.  1.
</event>
<event>
 4    1  0.6365520E-002  0.1923830E+03  0.7818608E-02  0.1156329E+00
         -1   -1    0    0    0  501 -0.00000000000E+00  0.00000000000E+00  0.90207091831E+03  0.90207091831E+03  0.00000000000E+00 0.  1.
          1   -1    0    0  502    0  0.00000000000E+00 -0.00000000000E+00 -0.94810642944E+02  0.94810642944E+02  0.00000000000E+00 0. -1.
          6    1    1    2  502    0  0.55520800666E+02  0.65913951680E+02  0.28223951615E+02  0.19444227878E+03  0.17200000000E+03 0. -1.
         -6    1    1    2    0  501 -0.55520800666E+02 -0.65913951680E+02  0.77903632375E+03  0.80243928248E+03  0.17200000000E+03 0.  1.
</event>
<event>
 4    1  0.6365520E-002  0.5353775E+03  0.7818608E-02  0.1004936E+00
         -2   -1    0    0    0  501 -0.00000000000E+00  0.00000000000E+00  0.26546556525E+03  0.26546556525E+03  0.00000000000E+00 0.  1.
          2   -1    0    0  502    0  0.00000000000E+00 -0.00000000000E+00 -0.20200478798E+04  0.20200478798E+04  0.00000000000E+00 0. -1.
          6    1    1    2  502    0  0.50556415461E+03 -0.38077724139E+02 -0.16569635081E+04  0.17413090176E+04  0.17200000000E+03 0. -1.
         -6    1    1    2    0  501 -0.50556415461E+03  0.38077724139E+02 -0.97618806437E+02  0.54420442746E+03  0.17200000000E+03 0.  1.
</event>
<event>
 4    1  0.6365520E-002  0.2328202E+03  0.7818608E-02  0.1124670E+00
         -2   -1    0    0    0  501 -0.00000000000E+00  0.00000000000E+00  0.56902314024E+02  0.56902314024E+02  0.00000000000E+00 0.  1.
          2   -1    0    0  502    0  0.00000000000E+00 -0.00000000000E+00 -0.95544483219E+03  0.95544483219E+03  0.00000000000E+00 0. -1.
          6    1    1    2  502    0 -0.10741547139E+03  0.11438161768E+03 -0.47688335458E+03  0.53068161060E+03  0.17200000000E+03 0. -1.
         -6    1    1    2    0  501  0.10741547139E+03 -0.11438161768E+03 -0.42165916359E+03  0.48166553562E+03  0.17200000000E+03 0. -1.
</event>
<event>
 4    1  0.6365520E-002  0.2369043E+03  0.7818608E-02  0.1121872E+00
          1   -1    0    0  502    0  0.00000000000E+00  0.00000000000E+00  0.34677056926E+03  0.34677056926E+03  0.00000000000E+00 0. -1.
         -1   -1    0    0    0  501 -0.00000000000E+00 -0.00000000000E+00 -0.48120378041E+03  0.48120378041E+03  0.00000000000E+00 0.  1.
          6    1    1    2  502    0 -0.14601906912E+03  0.72236267309E+02  0.27004017991E+03  0.35922882070E+03  0.17200000000E+03 0. -1.
         -6    1    1    2    0  501  0.14601906912E+03 -0.72236267309E+02 -0.40447339106E+03  0.46874552897E+03  0.17200000000E+03 0.  1.
</event>
<event>
 4    1  0.6365520E-002  0.6005417E+03  0.7818608E-02  0.9904283E-01
          2   -1    0    0  502    0  0.00000000000E+00  0.00000000000E+00  0.15805124931E+04  0.15805124931E+04  0.00000000000E+00 0. -1.
         -2   -1    0    0    0  501 -0.00000000000E+00 -0.00000000000E+00 -0.23461788469E+03  0.23461788469E+03  0.00000000000E+00 0.  1.
          6    1    1    2  502    0 -0.54456009055E+03  0.18579739186E+03  0.52267593690E+03  0.79614100388E+03  0.17200000000E+03 0. -1.
         -6    1    1    2    0  501  0.54456009055E+03 -0.18579739186E+03  0.82321867153E+03  0.10189893739E+04  0.17200000000E+03 0.  1.
</event>
<event>
 4    1  0.6365520E-002  0.1966733E+03  0.7818608E-02  0.1152577E+00
         -1   -1    0    0    0  501 -0.00000000000E+00  0.00000000000E+00  0.18401876039E+03  0.18401876039E+03  0.00000000000E+00 0.  1.
          1   -1    0    0  502    0  0.00000000000E+00 -0.00000000000E+00 -0.60049233104E+03  0.60049233104E+03  0.00000000000E+00 0. -1.
          6    1    1    2  502    0 -0.30724912532E+02 -0.90290400160E+02 -0.52447290881E+03  0.56013588412E+03  0.17200000000E+03 0. -1.
         -6    1    1    2    0  501  0.30724912532E+02  0.90290400160E+02  0.10799933815E+03  0.22437520730E+03  0.17200000000E+03 0.  1.
</event>
<event>
 4    1  0.6365520E-002  0.2373605E+03  0.7818608E-02  0.1121564E+00
          2   -1    0    0  502    0  0.00000000000E+00  0.00000000000E+00  0.60209604459E+02  0.60209604459E+02  0.00000000000E+00 0. -1.
         -2   -1    0    0    0  501 -0.00000000000E+00 -0.00000000000E+00 -0.10271934741E+04  0.10271934741E+04  0.00000000000E+00 0.  1.
          6    1    1    2  502    0  0.15942882498E+03 -0.36585168791E+02 -0.32125315541E+03  0.39942911095E+03  0.17200000000E+03 0. -1.
         -6    1    1    2    0  501 -0.15942882498E+03  0.36585168791E+02 -0.64573071426E+03  0.68797396764E+03  0.17200000000E+03 0.  1.
</event>
<event>
 4    1  0.6365520E-002  0.4222032E+03  0.7818608E-02  0.1036352E+00
         -2   -1    0    0    0  501 -0.00000000000E+00  0.00000000000E+00  0.90124276677E+02  0.90124276677E+02  0.00000000000E+00 0.  1.
          2   -1    0    0  502    0  0.00000000000E+00 -0.00000000000E+00 -0.32179901026E+04  0.32179901026E+04  0.00000000000E+00 0. -1.
          6    1    1    2  502    0 -0.36609779131E+03  0.12101221129E+03 -0.25907361655E+04  0.26249132229E+04  0.17200000000E+03 0. -1.
         -6    1    1    2    0  501  0.36609779131E+03 -0.12101221129E+03 -0.53712966040E+03  0.68320115644E+03  0.17200000000E+03 0.  1.
</event>
<event>
 4    1  0.6365520E-002  0.3239217E+03  0.7818608E-02  0.1073858E+00
          1   -1    0    0  502    0  0.00000000000E+00  0.00000000000E+00  0.15192144779E+03  0.15192144779E+03  0.00000000000E+00 0. -1.
         -1   -1    0    0    0  501 -0.00000000000E+00 -0.00000000000E+00 -0.69134049006E+03  0.69134049006E+03  0.00000000000E+00 0.  1.
          6    1    1    2  502    0  0.26793815726E+03 -0.59585531801E+02 -0.25643190681E+03  0.41313752498E+03  0.17200000000E+03 0. -1.
         -6    1    1    2    0  501 -0.26793815726E+03  0.59585531801E+02 -0.28298713546E+03  0.43012441287E+03  0.17200000000E+03 0.  1.
</event>
<event>
 4    1  0.6365520E-002  0.2879924E+03  0.7818608E-02  0.1091402E+00
          1   -1    0    0  502    0  0.00000000000E+00  0.00000000000E+00  0.32217976109E+04  0.32217976109E+04  0.00000000000E+00 0. -1.
         -1   -1    0    0    0  501 -0.00000000000E+00 -0.00000000000E+00 -0.27662160139E+02  0.27662160139E+02  0.00000000000E+00 0.  1.
          6    1    1    2  502    0 -0.15048132215E+03 -0.17524551381E+03  0.20249878732E+04  0.20453643942E+04  0.17200000000E+03 0. -1.
         -6    1    1    2    0  501  0.15048132215E+03  0.17524551381E+03  0.11691475776E+04  0.12040953768E+04  0.17200000000E+03 0. -1.
</event>
<event>
 4    1  0.6365520E-002  0.3270401E+03  0.7818608E-02  0.1072454E+00
          1   -1    0    0  502    0  0.00000000000E+00  0.00000000000E+00  0.17099423521E+04  0.17099423521E+04  0.00000000000E+00 0. -1.
         -1   -1    0    0    0  501 -0.00000000000E+00 -0.00000000000E+00 -0.62866141169E+02  0.62866141169E+02  0.00000000000E+00 0.  1.
          6    1    1    2  502    0 -0.20178244610E+03  0.19145507377E+03  0.88649496727E+03  0.94489604075E+03  0.17200000000E+03 0. -1.
         -6    1    1    2    0  501  0.20178244610E+03 -0.19145507377E+03  0.76058124361E+03  0.82791245247E+03  0.17200000000E+03 0.  1.
</event>
<event>
 4    1  0.6365520E-002  0.2138085E+03  0.7818608E-02  0.1138585E+00
          1   -1    0    0  502    0  0.00000000000E+00  0.00000000000E+00  0.82456428926E+02  0.82456428926E+02  0.00000000000E+00 0. -1.
         -1   -1    0    0    0  501 -0.00000000000E+00 -0.00000000000E+00 -0.98370796556E+03  0.98370796556E+03  0.00000000000E+00 0.  1.
          6    1    1    2  502    0 -0.10564068289E+03 -0.70499142996E+02 -0.98462469634E+02  0.23539103843E+03  0.17200000000E+03 0. -1.
         -6    1    1    2    0  501  0.10564068289E+03  0.70499142996E+02 -0.80278906700E+03  0.83077335606E+03  0.17200000000E+03 0.  1.
</event>
<event>
 4    1  0.6365520E-002  0.2205717E+03  0.7818608E-02  0.1133458E+00
          2   -1    0    0  502    0  0.00000000000E+00  0.00000000000E+00  0.19096374408E+04  0.19096374408E+04  0.00000000000E+00 0. -1.
         -2   -1    0    0    0  501 -0.00000000000E+00 -0.00000000000E+00 -0.27492660225E+02  0.27492660225E+02  0.00000000000E+00 0.  1.
          6    1    1    2  502    0  0.10611274692E+03  0.88362752886E+02  0.12033286109E+04  0.12233771442E+04  0.17200000000E+03 0. -1.
         -6    1    1    2    0  501 -0.10611274692E+03 -0.88362752886E+02  0.67881616970E+03  0.71375295684E+03  0.17200000000E+03 0.  1.
</event>
<event>
 4    1  0.6365520E-002  0.2838724E+03  0.7818608E-02  0.1093593E+00
         -2   -1    0    0    0  501 -0.00000000000E+00  0.00000000000E+00  0.77491924581E+02  0.77491924581E+02  0.00000000000E+00 0.  1.
          2   -1    0    0  502    0  0.00000000000E+00 -0.00000000000E+00 -0.13759133793E+04  0.13759133793E+04  0.00000000000E+00 0. -1.
          6    1    1    2  502    0 -0.99185017242E+02  0.20288385308E+03 -0.29008856331E+03  0.40587547357E+03  0.17200000000E+03 0.  1.
         -6    1    1    2    0  501  0.99185017242E+02 -0.20288385308E+03 -0.10083328914E+04  0.10475298303E+04  0.17200000000E+03 0. -1.
</event>
<event>
 4    1  0.6365520E-002  0.1775274E+03  0.7818608E-02  0.1170218E+00
          2   -1    0    0  502    0  0.00000000000E+00  0.00000000000E+00  0.50242731591E+02  0.50242731591E+02  0.00000000000E+00 0. -1.
         -2   -1    0    0    0  501 -0.00000000000E+00 -0.00000000000E+00 -0.75291824161E+03  0.75291824161E+03  0.00000000000E+00 0.  1.
          6    1    1    2  502    0 -0.16251837172E+02 -0.40839600296E+02 -0.51538492779E+03  0.54510331035E+03  0.17200000000E+03 0.  1.
         -6    1    1    2    0  501  0.16251837172E+02  0.40839600296E+02 -0.18729058223E+03  0.25805766285E+03  0.17200000000E+03 0. -1.
</event>
<event>
 4    1  0.6365520E-002  0.2421194E+03  0.7818608E-02  0.1118389E+00
          2   -1    0    0  502    0  0.00000000000E+00  0.00000000000E+00  0.91196771341E+03  0.91196771341E+03  0.00000000000E+00 0. -1.
         -2   -1    0    0    0  501 -0.00000000000E+00 -0.00000000000E+00 -0.65707395566E+02  0.65707395566E+02  0.00000000000E+00 0.  1.
          6    1    1    2  502    0  0.11031747619E+02  0.17004737481E+03  0.35109540223E+03  0.42648539319E+03  0.17200000000E+03 0. -1.
         -6    1    1    2    0  501 -0.11031747619E+02 -0.17004737481E+03  0.49516491561E+03  0.55118971579E+03  0.17200000000E+03 0.  1.
</event>
<event>
 4    1  0.6365520E-002  0.2643867E+03  0.7818608E-02  0.1104536E+00
         -1   -1    0    0    0  501 -0.00000000000E+00  0.00000000000E+00  0.57735037675E+03  0.57735037675E+03  0.00000000000E+00 0.  1.
          1   -1    0    0  502    0  0.00000000000E+00 -0.00000000000E+00 -0.36412286101E+03  0.36412286101E+03  0.00000000000E+00 0. -1.
          6    1    1    2  502    0  0.14592391036E+03 -0.13792225073E+03 -0.27798118315E+03  0.38363247131E+03  0.17200000000E+03 0. -1.
         -6    1    1    2    0  501 -0.14592391036E+03  0.13792225073E+03  0.49120869889E+03  0.55784076646E+03  0.17200000000E+03 0.  1.
</event>
<event>
 4    1  0.6365520E-002  0.2071633E+03  0.7818608E-02  0.1143832E+00
         -2   -1    0    0    0  501 -0.00000000000E+00  0.00000000000E+00  0.24100794887E+03  0.24100794887E+03  0.00000000000E+00 0.  1.
          2   -1    0    0  502    0  0.00000000000E+00 -0.00000000000E+00 -0.19200998350E+03  0.19200998350E+03  0.00000000000E+00 0. -1.
          6    1    1    2  502    0  0.78696104264E+02 -0.84495910610E+02 -0.33835113020E+02  0.20990819567E+03  0.17200000000E+03 0. -1.
         -6    1    1    2    0  501 -0.78696104264E+02  0.84495910610E+02  0.82833078392E+02  0.22310973670E+03  0.17200000000E+03 0.  1.
</event>
<event>
 4    1  0.6365520E-002  0.3172204E+03  0.7818608E-02  0.1076936E+00
         -3   -1    0    0    0  501 -0.00000000000E+00  0.00000000000E+00  0.12232892444E+04  0.12232892444E+04  0.00000000000E+00 0.  1.
          3   -1    0    0  502    0  0.00000000000E+00 -0.00000000000E+00 -0.10091362953E+03  0.10091362953E+03  0.00000000000E+00 0. -1.
          6    1    1    2  502    0 -0.26524551506E+03 -0.26260569408E+02  0.84584457441E+03  0.90337248399E+03  0.17200000000E+03 0.  1.
         -6    1    1    2    0  501  0.26524551506E+03  0.26260569408E+02  0.27653104047E+03  0.42083038995E+03  0.17200000000E+03 0.  1.
</event>
<event>
 4    1  0.6365520E-002  0.3456421E+03  0.7818608E-02  0.1064418E+00
          1   -1    0    0  502    0  0.00000000000E+00  0.00000000000E+00  0.17254718930E+04  0.17254718930E+04  0.00000000000E+00 0. -1.
         -1   -1    0    0    0  501 -0.00000000000E+00 -0.00000000000E+00 -0.94370682908E+02  0.94370682908E+02  0.00000000000E+00 0.  1.
          6    1    1    2  502    0  0.28599599817E+02  0.29844014876E+03  0.12851240383E+04  0.13307938432E+04  0.17200000000E+03 0. -1.
         -6    1    1    2    0  501 -0.28599599817E+02 -0.29844014876E+03  0.34597717187E+03  0.48904873270E+03  0.17200000000E+03 0.  1.
</event>
<event>
 4    1  0.6365520E-002  0.2738253E+03  0.7818608E-02  0.1099110E+00
          2   -1    0    0  502    0  0.00000000000E+00  0.00000000000E+00  0.16642656380E+04  0.16642656380E+04  0.00000000000E+00 0. -1.
         -2   -1    0    0    0  501 -0.00000000000E+00 -0.00000000000E+00 -0.44747337708E+03  0.44747337708E+03  0.00000000000E+00 0.  1.
          6    1    1    2  502    0 -0.19787074404E+03 -0.79015652559E+02  0.16097015854E+04  0.16328256179E+04  0.17200000000E+03 0. -1.
         -6    1    1    2    0  501  0.19787074404E+03  0.79015652559E+02 -0.39290932446E+03  0.47891339712E+03  0.17200000000E+03 0.  1.
</event>
<event>
 4    1  0.6365520E-002  0.1727308E+03  0.7818608E-02  0.1175030E+00
         -1   -1    0    0    0  501 -0.00000000000E+00  0.00000000000E+00  0.21284738199E+03  0.21284738199E+03  0.00000000000E+00 0.  1.
          1   -1    0    0  502    0  0.00000000000E+00 -0.00000000000E+00 -0.14019842846E+03  0.14019842846E+03  0.00000000000E+00 0. -1.
          6    1    1    2  502    0 -0.20540409548E+01 -0.15738746857E+02  0.34052978659E+02  0.17605548157E+03  0.17200000000E+03 0.  1.
         -6    1    1    2    0  501  0.20540409548E+01  0.15738746857E+02  0.38595974870E+02  0.17699032887E+03  0.17200000000E+03 0.  1.
</event>
<event>
 4    1  0.6365520E-002  0.3751452E+03  0.7818608E-02  0.1052743E+00
          2   -1    0    0  502    0  0.00000000000E+00  0.00000000000E+00  0.62692652741E+03  0.62692652741E+03  0.00000000000E+00 0. -1.
         -2   -1    0    0    0  501 -0.00000000000E+00 -0.00000000000E+00 -0.33371584594E+03  0.33371584594E+03  0.00000000000E+00 0.  1.
          6    1    1    2  502    0  0.14378501384E+03 -0.30079195308E+03  0.42140822094E+03  0.56419749903E+03  0.17200000000E+03 0. -1.
         -6    1    1    2    0  501 -0.14378501384E+03  0.30079195308E+03 -0.12819753947E+03  0.39644487431E+03  0.17200000000E+03 0.  1.
</event>
<event>
 4    1  0.6365520E-002  0.6636469E+03  0.7818608E-02  0.9781503E-01
         -2   -1    0    0    0  501 -0.00000000000E+00  0.00000000000E+00  0.34803456595E+03  0.34803456595E+03  0.00000000000E+00 0.  1.
          2   -1    0    0  502    0  0.00000000000E+00 -0.00000000000E+00 -0.17310958302E+04  0.17310958302E+04  0.00000000000E+00 0. -1.
          6    1    1    2  502    0 -0.45943301850E+03  0.44695030427E+03 -0.12306808042E+04  0.13982140447E+04  0.17200000000E+03 0. -1.
         -6    1    1    2    0  501  0.45943301850E+03 -0.44695030427E+03 -0.15238045996E+03  0.68091635136E+03  0.17200000000E+03 0.  1.
</event>
<event>
 4    1  0.6365520E-002  0.2332664E+03  0.7818608E-02  0.1124362E+00
         -1   -1    0    0    0  501 -0.00000000000E+00  0.00000000000E+00  0.11635162517E+03  0.11635162517E+03  0.00000000000E+00 0.  1.
          1   -1    0    0  502    0  0.00000000000E+00 -0.00000000000E+00 -0.46794025395E+03  0.46794025395E+03  0.00000000000E+00 0. -1.
          6    1    1    2  502    0  0.28180684857E+02 -0.15503241673E+03 -0.18292191204E+03  0.29643486154E+03  0.17200000000E+03 0. -1.
         -6    1    1    2    0  501 -0.28180684857E+02  0.15503241673E+03 -0.16866671674E+03  0.28785701758E+03  0.17200000000E+03 0.  1.
</event>
<event>
 4    1  0.6365520E-002  0.1863753E+03  0.7818608E-02  0.1161772E+00
         -1   -1    0    0    0  501 -0.00000000000E+00  0.00000000000E+00  0.63609156271E+03  0.63609156271E+03  0.00000000000E+00 0.  1.
          1   -1    0    0  502    0  0.00000000000E+00 -0.00000000000E+00 -0.58108812175E+02  0.58108812175E+02  0.00000000000E+00 0. -1.
          6    1    1    2  502    0  0.71756643987E+02 -0.16495407285E+01  0.20379649682E+03  0.27616797254E+03  0.17200000000E+03 0. -1.
         -6    1    1    2    0  501 -0.71756643987E+02  0.16495407285E+01  0.37418625371E+03  0.41803240234E+03  0.17200000000E+03 0.  1.
</event>
<event>
 4    1  0.6365520E-002  0.2666895E+03  0.7818608E-02  0.1103189E+00
          1   -1    0    0  502    0  0.00000000000E+00  0.00000000000E+00  0.30882512291E+03  0.30882512291E+03  0.00000000000E+00 0. -1.
         -1   -1    0    0    0  501 -0.00000000000E+00 -0.00000000000E+00 -0.23319545792E+03  0.23319545792E+03  0.00000000000E+00 0.  1.
          6    1    1    2  502    0  0.20068380878E+03  0.35570775630E+02  0.67998984221E+02  0.27522197049E+03  0.17200000000E+03 0. -1.
         -6    1    1    2    0  501 -0.20068380878E+03 -0.35570775630E+02  0.76306807703E+01  0.26679861033E+03  0.17200000000E+03 0. -1.
</event>
<event>
 4    1  0.6365520E-002  0.2134392E+03  0.7818608E-02  0.1138871E+00
          2   -1    0    0  502    0  0.00000000000E+00  0.00000000000E+00  0.27166575437E+03  0.27166575437E+03  0.00000000000E+00 0. -1.
         -2   -1    0    0    0  501 -0.00000000000E+00 -0.00000000000E+00 -0.32255713191E+03  0.32255713191E+03  0.00000000000E+00 0.  1.
          6    1    1    2  502    0  0.11077250661E+03 -0.60842015196E+02  0.18042391602E+03  0.27948003239E+03  0.17200000000E+03 0. -1.
         -6    1    1    2    0  501 -0.11077250661E+03  0.60842015196E+02 -0.23131529356E+03  0.31474285388E+03  0.17200000000E+03 0.  1.
</event>
<event>
 4    1  0.6365520E-002  0.1790667E+03  0.7818608E-02  0.1168709E+00
          1   -1    0    0  502    0  0.00000000000E+00  0.00000000000E+00  0.18053546243E+04  0.18053546243E+04  0.00000000000E+00 0. -1.
         -1   -1    0    0    0  501 -0.00000000000E+00 -0.00000000000E+00 -0.17900566182E+02  0.17900566182E+02  0.00000000000E+00 0.  1.
          6    1    1    2  502    0  0.35588711621E+02  0.34847428672E+02  0.97422361398E+03  0.99054356275E+03  0.17200000000E+03 0.  1.
         -6    1    1    2    0  501 -0.35588711621E+02 -0.34847428672E+02  0.81323044415E+03  0.83271162774E+03  0.17200000000E+03 0.  1.
</event>
<event>
 4    1  0.6365520E-002  0.3802370E+03  0.7818608E-02  0.1050846E+00
         -1   -1    0    0    0  501 -0.00000000000E+00  0.00000000000E+00  0.22637263486E+03  0.22637263486E+03  0.00000000000E+00 0.  1.
          1   -1    0    0  502    0  0.00000000000E+00 -0.00000000000E+00 -0.10659146576E+04  0.10659146576E+04  0.00000000000E+00 0. -1.
          6    1    1    2  502    0  0.18018334859E+03 -0.28728062041E+03 -0.10698843497E+02  0.38038751192E+03  0.17200000000E+03 0.  1.
         -6    1    1    2    0  501 -0.18018334859E+03  0.28728062041E+03 -0.82884317924E+03  0.91189978054E+03  0.17200000000E+03 0.  1.
</event>
<event>
 4    1  0.6365520E-002  0.2215343E+03  0.7818608E-02  0.1132744E+00
         -2   -1    0    0    0  501 -0.00000000000E+00  0.00000000000E+00  0.16832967974E+03  0.16832967974E+03  0.00000000000E+00 0.  1.
          2   -1    0    0  502    0  0.00000000000E+00 -0.00000000000E+00 -0.32535153267E+03  0.32535153267E+03  0.00000000000E+00 0. -1.
          6    1    1    2  502    0  0.11699409475E+03 -0.76195846549E+02  0.10452221623E+01  0.22153671869E+03  0.17200000000E+03 0. -1.
         -6    1    1    2    0  501 -0.11699409475E+03  0.76195846549E+02 -0.15806707509E+03  0.27214449373E+03  0.17200000000E+03 0.  1.
</event>
<event>
 4    1  0.6365520E-002  0.2330575E+03  0.7818608E-02  0.1124506E+00
         -1   -1    0    0    0  501 -0.00000000000E+00  0.00000000000E+00  0.25779689240E+02  0.25779689240E+02  0.00000000000E+00 0.  1.
          1   -1    0    0  502    0  0.00000000000E+00 -0.00000000000E+00 -0.21717197137E+04  0.21717197137E+04  0.00000000000E+00 0. -1.
          6    1    1    2  502    0 -0.15639445073E+03 -0.16510051343E+02 -0.88317918595E+03  0.91341188984E+03  0.17200000000E+03 0. -1.
         -6    1    1    2    0  501  0.15639445073E+03  0.16510051343E+02 -0.12627608386E+04  0.12840875131E+04  0.17200000000E+03 0. -1.
</event>
<event>
 4    1  0.6365520E-002  0.1768884E+03  0.7818608E-02  0.1170849E+00
         -2   -1    0    0    0  501 -0.00000000000E+00  0.00000000000E+00  0.24745291853E+02  0.24745291853E+02  0.00000000000E+00 0.  1.
          2   -1    0    0  502    0  0.00000000000E+00 -0.00000000000E+00 -0.13386344981E+04  0.13386344981E+04  0.00000000000E+00 0. -1.
          6    1    1    2  502    0 -0.38516725614E+02  0.14898604502E+02 -0.49648182582E+03  0.52705190441E+03  0.17200000000E+03 0.  1.
         -6    1    1    2    0  501  0.38516725614E+02 -0.14898604502E+02 -0.81740738047E+03  0.83632788559E+03  0.17200000000E+03 0. -1.
</event>
<event>
 4    1  0.6365520E-002  0.1946251E+03  0.7818608E-02  0.1154355E+00
         -2   -1    0    0    0  501 -0.00000000000E+00  0.00000000000E+00  0.28478864289E+02  0.28478864289E+02  0.00000000000E+00 0.  1.
          2   -1    0    0  502    0  0.00000000000E+00 -0.00000000000E+00 -0.13464266118E+04  0.13464266118E+04  0.00000000000E+00 0. -1.
          6    1    1    2  502    0 -0.69521435987E+02 -0.58836176469E+02 -0.58320719151E+03  0.61482481566E+03  0.17200000000E+03 0.  1.
         -6    1    1    2    0  501  0.69521435987E+02  0.58836176469E+02 -0.73474055597E+03  0.76008066040E+03  0.17200000000E+03 0. -1.
</event>
<event>
 4    1  0.6365520E-002  0.3157484E+03  0.7818608E-02  0.1077623E+00
          2   -1    0    0  502    0  0.00000000000E+00  0.00000000000E+00  0.76567141432E+03  0.76567141432E+03  0.00000000000E+00 0. -1.
         -2   -1    0    0    0  501 -0.00000000000E+00 -0.00000000000E+00 -0.16833183114E+03  0.16833183114E+03  0.00000000000E+00 0.  1.
          6    1    1    2  502    0 -0.26439343823E+03  0.14462933775E+02  0.52091358582E+03  0.60913711964E+03  0.17200000000E+03 0. -1.
         -6    1    1    2    0  501  0.26439343823E+03 -0.14462933775E+02  0.76425997351E+02  0.32486612581E+03  0.17200000000E+03 0.  1.
</event>
<event>
 4    1  0.6365520E-002  0.2842095E+03  0.7818608E-02  0.1093412E+00
         -2   -1    0    0    0  501 -0.00000000000E+00  0.00000000000E+00  0.80764353141E+02  0.80764353141E+02  0.00000000000E+00 0.  1.
          2   -1    0    0  502    0  0.00000000000E+00 -0.00000000000E+00 -0.11738593105E+04  0.11738593105E+04  0.00000000000E+00 0. -1.
          6    1    1    2  502    0 -0.15915889308E+03 -0.16080893437E+03 -0.78787602055E+03  0.83757011073E+03  0.17200000000E+03 0. -1.
         -6    1    1    2    0  501  0.15915889308E+03  0.16080893437E+03 -0.30521893681E+03  0.41705355292E+03  0.17200000000E+03 0.  1.
</event>
<event>
 4    1  0.6365520E-002  0.1778036E+03  0.7818608E-02  0.1169946E+00
          2   -1    0    0  502    0  0.00000000000E+00  0.00000000000E+00  0.38650863136E+03  0.38650863136E+03  0.00000000000E+00 0. -1.
         -2   -1    0    0    0  501 -0.00000000000E+00 -0.00000000000E+00 -0.82103099842E+02  0.82103099842E+02  0.00000000000E+00 0.  1.
          6    1    1    2  502    0  0.31632624693E+02 -0.32085540796E+02  0.13782735460E+03  0.22496774113E+03  0.17200000000E+03 0. -1.
         -6    1    1    2    0  501 -0.31632624693E+02  0.32085540796E+02  0.16657817692E+03  0.24364399008E+03  0.17200000000E+03 0. -1.
</event>
<event>
 4    1  0.6365520E-002  0.3399196E+03  0.7818608E-02  0.1066830E+00
          2   -1    0    0  502    0  0.00000000000E+00  0.00000000000E+00  0.26520106150E+04  0.26520106150E+04  0.00000000000E+00 0. -1.
         -2   -1    0    0    0  501 -0.00000000000E+00 -0.00000000000E+00 -0.46576462365E+02  0.46576462365E+02  0.00000000000E+00 0.  1.
          6    1    1    2  502    0 -0.16456861658E+02  0.29272940146E+03  0.95984939479E+03  0.10182613571E+04  0.17200000000E+03 0. -1.
         -6    1    1    2    0  501  0.16456861658E+02 -0.29272940146E+03  0.16455847578E+04  0.16803257202E+04  0.17200000000E+03 0.  1.
</event>
<event>
 4    1  0.6365520E-002  0.1817143E+03  0.7818608E-02  0.1166154E+00
          1   -1    0    0  502    0  0.00000000000E+00  0.00000000000E+00  0.26153301400E+03  0.26153301400E+03  0.00000000000E+00 0. -1.
         -1   -1    0    0    0  501 -0.00000000000E+00 -0.00000000000E+00 -0.13059508092E+03  0.13059508092E+03  0.00000000000E+00 0.  1.
          6    1    1    2  502    0 -0.10401649949E+02  0.57688036737E+02  0.29730573629E+02  0.18413041822E+03  0.17200000000E+03 0.  1.
         -6    1    1    2    0  501  0.10401649949E+02 -0.57688036737E+02  0.10120735946E+03  0.20799767670E+03  0.17200000000E+03 0. -1.
</event>
<event>
 4    1  0.6365520E-002  0.2577312E+03  0.7818608E-02  0.1108514E+00
         -2   -1    0    0    0  501 -0.00000000000E+00  0.00000000000E+00  0.83908886489E+02  0.83908886489E+02  0.00000000000E+00 0.  1.
          2   -1    0    0  502    0  0.00000000000E+00 -0.00000000000E+00 -0.79220594264E+03  0.79220594264E+03  0.00000000000E+00 0. -1.
          6    1    1    2  502    0 -0.94430653063E+02  0.16710542702E+03 -0.34240823432E+03  0.42856594698E+03  0.17200000000E+03 0. -1.
         -6    1    1    2    0  501  0.94430653063E+02 -0.16710542702E+03 -0.36588882183E+03  0.44754888215E+03  0.17200000000E+03 0.  1.
</event>
<event>
 4    1  0.6365520E-002  0.2241489E+03  0.7818608E-02  0.1130827E+00
          2   -1    0    0  502    0  0.00000000000E+00  0.00000000000E+00  0.21327793252E+04  0.21327793252E+04  0.00000000000E+00 0. -1.
         -2   -1    0    0    0  501 -0.00000000000E+00 -0.00000000000E+00 -0.25764590383E+02  0.25764590383E+02  0.00000000000E+00 0.  1.
          6    1    1    2  502    0  0.14265892211E+03  0.17526235451E+02  0.13693997177E+04  0.13876232644E+04  0.17200000000E+03 0. -1.
         -6    1    1    2    0  501 -0.14265892211E+03 -0.17526235451E+02  0.73761501709E+03  0.77092065119E+03  0.17200000000E+03 0.  1.
</event>
<event>
 4    1  0.6365520E-002  0.2832306E+03  0.7818608E-02  0.1093937E+00
          1   -1    0    0  502    0  0.00000000000E+00  0.00000000000E+00  0.65245026493E+03  0.65245026493E+03  0.00000000000E+00 0. -1.
         -1   -1    0    0    0  501 -0.00000000000E+00 -0.00000000000E+00 -0.32076546894E+03  0.32076546894E+03  0.00000000000E+00 0.  1.
          6    1    1    2  502    0 -0.79594743613E+02  0.21047629693E+03  0.54797495617E+03  0.61684369768E+03  0.17200000000E+03 0. -1.
         -6    1    1    2    0  501  0.79594743613E+02 -0.21047629693E+03 -0.21629016018E+03  0.35637203618E+03  0.17200000000E+03 0.  1.
</event>
<event>
 4    1  0.6365520E-002  0.2704105E+03  0.7818608E-02  0.1101045E+00
         -2   -1    0    0    0  501 -0.00000000000E+00  0.00000000000E+00  0.10933744935E+03  0.10933744935E+03  0.00000000000E+00 0.  1.
          2   -1    0    0  502    0  0.00000000000E+00 -0.00000000000E+00 -0.67187571028E+03  0.67187571028E+03  0.00000000000E+00 0. -1.
          6    1    1    2  502    0 -0.60952214003E+02 -0.19955613926E+03 -0.30781734974E+03  0.40972349933E+03  0.17200000000E+03 0. -1.
         -6    1    1    2    0  501  0.60952214003E+02  0.19955613926E+03 -0.25472091120E+03  0.37148966030E+03  0.17200000000E+03 0.  1.
</event>
<event>
 4    1  0.6365520E-002  0.2391813E+03  0.7818608E-02  0.1120339E+00
          2   -1    0    0  502    0  0.00000000000E+00  0.00000000000E+00  0.30989483838E+04  0.30989483838E+04  0.00000000000E+00 0. -1.
         -2   -1    0    0    0  501 -0.00000000000E+00 -0.00000000000E+00 -0.42339440234E+02  0.42339440234E+02  0.00000000000E+00 0.  1.
          6    1    1    2  502    0  0.36427813550E+01  0.16616384583E+03  0.27078480863E+04  0.27183908755E+04  0.17200000000E+03 0. -1.
         -6    1    1    2    0  501 -0.36427813550E+01 -0.16616384583E+03  0.34876085725E+03  0.42289694852E+03  0.17200000000E+03 0.  1.
</event>
<event>
 4    1  0.6365520E-002  0.2489947E+03  0.7818608E-02  0.1113942E+00
          1   -1    0    0  502    0  0.00000000000E+00  0.00000000000E+00  0.13098494751E+04  0.13098494751E+04  0.00000000000E+00 0. -1.
         -1   -1    0    0    0  501 -0.00000000000E+00 -0.00000000000E+00 -0.47985562785E+02  0.47985562785E+02  0.00000000000E+00 0.  1.
          6    1    1    2  502    0 -0.16464057702E+02  0.17928548196E+03  0.71013918794E+03  0.75252642178E+03  0.17200000000E+03 0. -1.
         -6    1    1    2    0  501  0.16464057702E+02 -0.17928548196E+03  0.55172472441E+03  0.60530861614E+03  0.17200000000E+03 0.  1.
</event>
<event>
 4    1  0.6365520E-002  0.2609539E+03  0.7818608E-02  0.1106571E+00
         -1   -1    0    0    0  501 -0.00000000000E+00  0.00000000000E+00  0.22351765703E+03  0.22351765703E+03  0.00000000000E+00 0.  1.
          1   -1    0    0  502    0  0.00000000000E+00 -0.00000000000E+00 -0.48927628941E+03  0.48927628941E+03  0.00000000000E+00 0. -1.
          6    1    1    2  502    0 -0.14171385197E+03 -0.13575756463E+03 -0.35180247489E+03  0.43802044876E+03  0.17200000000E+03 0. -1.
         -6    1    1    2    0  501  0.14171385197E+03  0.13575756463E+03  0.86043842507E+02  0.27477349768E+03  0.17200000000E+03 0.  1.
</event>
<event>
 4    1  0.6365520E-002  0.2923228E+03  0.7818608E-02  0.1089143E+00
          2   -1    0    0  502    0  0.00000000000E+00  0.00000000000E+00  0.19832818257E+03  0.19832818257E+03  0.00000000000E+00 0. -1.
         -2   -1    0    0    0  501 -0.00000000000E+00 -0.00000000000E+00 -0.48197508861E+03  0.48197508861E+03  0.00000000000E+00 0.  1.
          6    1    1    2  502    0  0.21834726989E+03 -0.90515699348E+02 -0.31055364375E+02  0.29396778353E+03  0.17200000000E+03 0. -1.
         -6    1    1    2    0  501 -0.21834726989E+03  0.90515699348E+02 -0.25259154167E+03  0.38633548765E+03  0.17200000000E+03 0.  1.
</event>
<event>
 4    1  0.6365520E-002  0.1914256E+03  0.7818608E-02  0.1157182E+00
         -4   -1    0    0    0  501 -0.00000000000E+00  0.00000000000E+00  0.29461612741E+03  0.29461612741E+03  0.00000000000E+00 0.  1.
          4   -1    0    0  502    0  0.00000000000E+00 -0.00000000000E+00 -0.14648797198E+03  0.14648797198E+03  0.00000000000E+00 0. -1.
          6    1    1    2  502    0 -0.18166435731E+02 -0.82034920653E+02 -0.11620918356E+02  0.19177797928E+03  0.17200000000E+03 0. -1.
         -6    1    1    2    0  501  0.18166435731E+02  0.82034920653E+02  0.15974907378E+03  0.24932612011E+03  0.17200000000E+03 0.  1.
</event>
<event>
 4    1  0.6365520E-002  0.1757184E+03  0.7818608E-02  0.1172012E+00
         -1   -1    0    0    0  501 -0.00000000000E+00  0.00000000000E+00  0.95167037740E+02  0.95167037740E+02  0.00000000000E+00 0.  1.
          1   -1    0    0  502    0  0.00000000000E+00 -0.00000000000E+00 -0.10556802465E+04  0.10556802465E+04  0.00000000000E+00 0. -1.
          6    1    1    2  502    0  0.35953242430E+02 -0.56314807585E+00 -0.95916070364E+03  0.97512368866E+03  0.17200000000E+03 0. -1.
         -6    1    1    2    0  501 -0.35953242430E+02  0.56314807585E+00 -0.13525051292E+01  0.17572359559E+03  0.17200000000E+03 0.  1.
</event>
<event>
 4    1  0.6365520E-002  0.2233406E+03  0.7818608E-02  0.1131417E+00
          1   -1    0    0  502    0  0.00000000000E+00  0.00000000000E+00  0.37855952013E+02  0.37855952013E+02  0.00000000000E+00 0. -1.
         -1   -1    0    0    0  501 -0.00000000000E+00 -0.00000000000E+00 -0.17878930861E+04  0.17878930861E+04  0.00000000000E+00 0.  1.
          6    1    1    2  502    0 -0.63122939866E+02  0.12772047650E+03 -0.40685250264E+03  0.46412281194E+03  0.17200000000E+03 0. -1.
         -6    1    1    2    0  501  0.63122939866E+02 -0.12772047650E+03 -0.13431846314E+04  0.13616262261E+04  0.17200000000E+03 0.  1.
</event>
<event>
 4    1  0.6365520E-002  0.1909081E+03  0.7818608E-02  0.1157645E+00
         -1   -1    0    0    0  501 -0.00000000000E+00  0.00000000000E+00  0.14797595259E+04  0.14797595259E+04  0.00000000000E+00 0.  1.
          1   -1    0    0  502    0  0.00000000000E+00 -0.00000000000E+00 -0.29270581331E+02  0.29270581331E+02  0.00000000000E+00 0. -1.
          6    1    1    2  502    0 -0.62796863168E+02  0.54022806686E+02  0.10256835172E+04  0.10432988963E+04  0.17200000000E+03 0. -1.
         -6    1    1    2    0  501  0.62796863168E+02 -0.54022806686E+02  0.42480542735E+03  0.46573121087E+03  0.17200000000E+03 0.  1.
</event>
<event>
 4    1  0.6365520E-002  0.3452072E+03  0.7818608E-02  0.1064600E+00
         -2   -1    0    0    0  501 -0.00000000000E+00  0.00000000000E+00  0.47809038576E+03  0.47809038576E+03  0.00000000000E+00 0.  1.
          2   -1    0    0  502    0  0.00000000000E+00 -0.00000000000E+00 -0.45157910756E+03  0.45157910756E+03  0.00000000000E+00 0. -1.
          6    1    1    2  502    0 -0.28251347880E+03 -0.98844118610E+02 -0.29788151456E+03  0.45596208417E+03  0.17200000000E+03 0.  1.
         -6    1    1    2    0  501  0.28251347880E+03  0.98844118610E+02  0.32439279276E+03  0.47370740915E+03  0.17200000000E+03 0.  1.
</event>
<event>
 4    1  0.6365520E-002  0.2677568E+03  0.7818608E-02  0.1102570E+00
          1   -1    0    0  502    0  0.00000000000E+00  0.00000000000E+00  0.83863043063E+03  0.83863043063E+03  0.00000000000E+00 0. -1.
         -1   -1    0    0    0  501 -0.00000000000E+00 -0.00000000000E+00 -0.10394903038E+03  0.10394903038E+03  0.00000000000E+00 0.  1.
          6    1    1    2  502    0  0.18553974767E+03  0.87662560218E+02  0.56594713796E+03  0.62609095617E+03  0.17200000000E+03 0. -1.
         -6    1    1    2    0  501 -0.18553974767E+03 -0.87662560218E+02  0.16873426228E+03  0.31648850484E+03  0.17200000000E+03 0.  1.
</event>
<event>
 4    1  0.6365520E-002  0.3419906E+03  0.7818608E-02  0.1065951E+00
          1   -1    0    0  502    0  0.00000000000E+00  0.00000000000E+00  0.22157621171E+03  0.22157621171E+03  0.00000000000E+00 0. -1.
         -1   -1    0    0    0  501 -0.00000000000E+00 -0.00000000000E+00 -0.55196236843E+03  0.55196236843E+03  0.00000000000E+00 0.  1.
          6    1    1    2  502    0 -0.24924977987E+03 -0.15889651959E+03 -0.24604232412E+03  0.42130082123E+03  0.17200000000E+03 0.  1.
         -6    1    1    2    0  501  0.24924977987E+03  0.15889651959E+03 -0.84343832607E+02  0.35223775891E+03  0.17200000000E+03 0.  1.
</event>
<event>
 4    1  0.6365520E-002  0.2120428E+03  0.7818608E-02  0.1139958E+00
          2   -1    0    0  502    0  0.00000000000E+00  0.00000000000E+00  0.24953829213E+04  0.24953829213E+04  0.00000000000E+00 0. -1.
         -2   -1    0    0    0  501 -0.00000000000E+00 -0.00000000000E+00 -0.31617764580E+02  0.31617764580E+02  0.00000000000E+00 0.  1.
          6    1    1    2  502    0  0.73548411987E+02  0.99843799307E+02  0.20605366708E+04  0.20714182400E+04  0.17200000000E+03 0. -1.
         -6    1    1    2    0  501 -0.73548411987E+02 -0.99843799307E+02  0.40322848593E+03  0.45558244592E+03  0.17200000000E+03 0.  1.
</event>
<event>
 4    1  0.6365520E-002  0.1886470E+03  0.7818608E-02  0.1159687E+00
          1   -1    0    0  502    0  0.00000000000E+00  0.00000000000E+00  0.32378791147E+03  0.32378791147E+03  0.00000000000E+00 0. -1.
         -1   -1    0    0    0  501 -0.00000000000E+00 -0.00000000000E+00 -0.10996858610E+03  0.10996858610E+03  0.00000000000E+00 0.  1.
          6    1    1    2  502    0  0.26223479441E+02  0.72910976127E+02  0.10192389072E+03  0.21442052330E+03  0.17200000000E+03 0.  1.
         -6    1    1    2    0  501 -0.26223479441E+02 -0.72910976127E+02  0.11189543465E+03  0.21933597427E+03  0.17200000000E+03 0.  1.
</event>
<event>
 4    1  0.6365520E-002  0.1752940E+03  0.7818608E-02  0.1172437E+00
          1   -1    0    0  502    0  0.00000000000E+00  0.00000000000E+00  0.50642110928E+03  0.50642110928E+03  0.00000000000E+00 0. -1.
         -1   -1    0    0    0  501 -0.00000000000E+00 -0.00000000000E+00 -0.61524145676E+02  0.61524145676E+02  0.00000000000E+00 0.  1.
          6    1    1    2  502    0  0.28660886160E+02  0.17959037041E+02  0.25577605610E+03  0.31007960958E+03  0.17200000000E+03 0. -1.
         -6    1    1    2    0  501 -0.28660886160E+02 -0.17959037041E+02  0.18912090751E+03  0.25786564537E+03  0.17200000000E+03 0.  1.
</event>
<event>
 4    1  0.6365520E-002  0.2341477E+03  0.7818608E-02  0.1123754E+00
         -1   -1    0    0    0  501 -0.00000000000E+00  0.00000000000E+00  0.40506200473E+03  0.40506200473E+03  0.00000000000E+00 0.  1.
          1   -1    0    0  502    0  0.00000000000E+00 -0.00000000000E+00 -0.13581305920E+03  0.13581305920E+03  0.00000000000E+00 0. -1.
          6    1    1    2  502    0 -0.14295782213E+03 -0.69312403311E+02  0.11883354244E+03  0.26257676776E+03  0.17200000000E+03 0. -1.
         -6    1    1    2    0  501  0.14295782213E+03  0.69312403311E+02  0.15041540309E+03  0.27829829616E+03  0.17200000000E+03 0.  1.
</event>
<event>
 4    1  0.6365520E-002  0.4977193E+03  0.7818608E-02  0.1014376E+00
          2   -1    0    0  502    0  0.00000000000E+00  0.00000000000E+00  0.58453494304E+03  0.58453494304E+03  0.00000000000E+00 0. -1.
         -2   -1    0    0    0  501 -0.00000000000E+00 -0.00000000000E+00 -0.46854082924E+03  0.46854082924E+03  0.00000000000E+00 0.  1.
          6    1    1    2  502    0 -0.23827884616E+03  0.40170094960E+03  0.22070918941E+03  0.54446029031E+03  0.17200000000E+03 0. -1.
         -6    1    1    2    0  501  0.23827884616E+03 -0.40170094960E+03 -0.10471507561E+03  0.50861548197E+03  0.17200000000E+03 0.  1.
</event>
<event>
 4    1  0.6365520E-002  0.2137150E+03  0.7818608E-02  0.1138657E+00
         -1   -1    0    0    0  501 -0.00000000000E+00  0.00000000000E+00  0.45073272086E+03  0.45073272086E+03  0.00000000000E+00 0.  1.
          1   -1    0    0  502    0  0.00000000000E+00 -0.00000000000E+00 -0.12363731982E+03  0.12363731982E+03  0.00000000000E+00 0. -1.
          6    1    1    2  502    0 -0.12187675048E+03  0.35159025444E+02  0.41569710761E+02  0.21772032572E+03  0.17200000000E+03 0. -1.
         -6    1    1    2    0  501  0.12187675048E+03 -0.35159025444E+02  0.28552569027E+03  0.35664971496E+03  0.17200000000E+03 0.  1.
</event>
<event>
 4    1  0.6365520E-002  0.5660478E+03  0.7818608E-02  0.9978463E-01
         -2   -1    0    0    0  501 -0.00000000000E+00  0.00000000000E+00  0.12063847785E+03  0.12063847785E+03  0.00000000000E+00 0.  1.
          2   -1    0    0  502    0  0.00000000000E+00 -0.00000000000E+00 -0.27407689455E+04  0.27407689455E+04  0.00000000000E+00 0. -1.
          6    1    1    2  502    0  0.45131871194E+03  0.29519066242E+03 -0.15617475342E+04  0.16611638894E+04  0.17200000000E+03 0. -1.
         -6    1    1    2    0  501 -0.45131871194E+03 -0.29519066242E+03 -0.10583829334E+04  0.12002435339E+04  0.17200000000E+03 0.  1.
</event>
<event>
 4    1  0.6365520E-002  0.2099631E+03  0.7818608E-02  0.1141595E+00
          1   -1    0    0  502    0  0.00000000000E+00  0.00000000000E+00  0.98622768200E+03  0.98622768200E+03  0.00000000000E+00 0. -1.
         -1   -1    0    0    0  501 -0.00000000000E+00 -0.00000000000E+00 -0.54966344575E+02  0.54966344575E+02  0.00000000000E+00 0.  1.
          6    1    1    2  502    0 -0.35921304272E+02 -0.11493540341E+03  0.69061838650E+03  0.72182978799E+03  0.17200000000E+03 0. -1.
         -6    1    1    2    0  501  0.35921304272E+02  0.11493540341E+03  0.24064295092E+03  0.31936423858E+03  0.17200000000E+03 0.  1.
</event>
<event>
 4    1  0.6365520E-002  0.2846887E+03  0.7818608E-02  0.1093155E+00
          2   -1    0    0  502    0  0.00000000000E+00  0.00000000000E+00  0.95216368573E+03  0.95216368573E+03  0.00000000000E+00 0. -1.
         -2   -1    0    0    0  501 -0.00000000000E+00 -0.00000000000E+00 -0.91045379629E+02  0.91045379629E+02  0.00000000000E+00 0.  1.
          6    1    1    2  502    0  0.12939808360E+03  0.18633255269E+03  0.56363195441E+03  0.63144965299E+03  0.17200000000E+03 0. -1.
         -6    1    1    2    0  501 -0.12939808360E+03 -0.18633255269E+03  0.29748635169E+03  0.41175941237E+03  0.17200000000E+03 0.  1.
</event>
<event>
 4    1  0.6365520E-002  0.4399593E+03  0.7818608E-02  0.1030759E+00
          2   -1    0    0  502    0  0.00000000000E+00  0.00000000000E+00  0.50949346476E+03  0.50949346476E+03  0.00000000000E+00 0. -1.
         -2   -1    0    0    0  501 -0.00000000000E+00 -0.00000000000E+00 -0.83259830489E+03  0.83259830489E+03  0.00000000000E+00 0.  1.
          6    1    1    2  502    0 -0.31278833779E+02  0.40373481939E+03  0.33324990609E+03  0.55192360861E+03  0.17200000000E+03 0. -1.
         -6    1    1    2    0  501  0.31278833779E+02 -0.40373481939E+03 -0.65635474623E+03  0.79016816104E+03  0.17200000000E+03 0.  1.
</event>
<event>
 4    1  0.6365520E-002  0.4240199E+03  0.7818608E-02  0.1035766E+00
          1   -1    0    0  502    0  0.00000000000E+00  0.00000000000E+00  0.23394135175E+03  0.23394135175E+03  0.00000000000E+00 0. -1.
         -1   -1    0    0    0  501 -0.00000000000E+00 -0.00000000000E+00 -0.82776417529E+03  0.82776417529E+03  0.00000000000E+00 0.  1.
          6    1    1    2  502    0  0.38346835167E+03  0.56222037086E+02 -0.43890751562E+03  0.61027264519E+03  0.17200000000E+03 0. -1.
         -6    1    1    2    0  501 -0.38346835167E+03 -0.56222037086E+02 -0.15491530792E+03  0.45143288185E+03  0.17200000000E+03 0. -1.
</event>
<event>
 4    1  0.6365520E-002  0.1870209E+03  0.7818608E-02  0.1161176E+00
         -2   -1    0    0    0  501 -0.00000000000E+00  0.00000000000E+00  0.37976837426E+03  0.37976837426E+03  0.00000000000E+00 0.  1.
          2   -1    0    0  502    0  0.00000000000E+00 -0.00000000000E+00 -0.94287559087E+02  0.94287559087E+02  0.00000000000E+00 0. -1.
          6    1    1    2  502    0 -0.35552453466E+02  0.64256157645E+02  0.10664021178E+03  0.21528809886E+03  0.17200000000E+03 0. -1.
         -6    1    1    2    0  501  0.35552453466E+02 -0.64256157645E+02  0.17884060340E+03  0.25876783449E+03  0.17200000000E+03 0. -1.
</event>
<event>
 4    1  0.6365520E-002  0.1844987E+03  0.7818608E-02  0.1163519E+00
         -2   -1    0    0    0  501 -0.00000000000E+00  0.00000000000E+00  0.16462278522E+03  0.16462278522E+03  0.00000000000E+00 0.  1.
          2   -1    0    0  502    0  0.00000000000E+00 -0.00000000000E+00 -0.24692968500E+03  0.24692968500E+03  0.00000000000E+00 0. -1.
          6    1    1    2  502    0 -0.59273975174E+02 -0.30698154646E+02 -0.12413467024E+03  0.22237175447E+03  0.17200000000E+03 0. -1.
         -6    1    1    2    0  501  0.59273975174E+02  0.30698154646E+02  0.41827770451E+02  0.18918071575E+03  0.17200000000E+03 0.  1.
</event>
<event>
 4    1  0.6365520E-002  0.1915101E+03  0.7818608E-02  0.1157106E+00
         -1   -1    0    0    0  501 -0.00000000000E+00  0.00000000000E+00  0.98383418072E+02  0.98383418072E+02  0.00000000000E+00 0.  1.
          1   -1    0    0  502    0  0.00000000000E+00 -0.00000000000E+00 -0.39377570404E+03  0.39377570404E+03  0.00000000000E+00 0. -1.
          6    1    1    2  502    0 -0.51139824986E+02  0.66909144820E+02 -0.90884415026E+02  0.21198134884E+03  0.17200000000E+03 0.  1.
         -6    1    1    2    0  501  0.51139824986E+02 -0.66909144820E+02 -0.20450787094E+03  0.28017777328E+03  0.17200000000E+03 0.  1.
</event>
<event>
 4    1  0.6365520E-002  0.3506516E+03  0.7818608E-02  0.1062348E+00
          2   -1    0    0  502    0  0.00000000000E+00  0.00000000000E+00  0.16445150290E+04  0.16445150290E+04  0.00000000000E+00 0. -1.
         -2   -1    0    0    0  501 -0.00000000000E+00 -0.00000000000E+00 -0.89264761133E+02  0.89264761133E+02  0.00000000000E+00 0.  1.
          6    1    1    2  502    0  0.58443264187E+02 -0.29992824417E+03  0.11269779613E+04  0.11802694150E+04  0.17200000000E+03 0. -1.
         -6    1    1    2    0  501 -0.58443264187E+02  0.29992824417E+03  0.42827230655E+03  0.55351037510E+03  0.17200000000E+03 0.  1.
</event>
<event>
 4    1  0.6365520E-002  0.1939436E+03  0.7818608E-02  0.1154952E+00
         -2   -1    0    0    0  501 -0.00000000000E+00  0.00000000000E+00  0.15076066161E+02  0.15076066161E+02  0.00000000000E+00 0.  1.
          2   -1    0    0  502    0  0.00000000000E+00 -0.00000000000E+00 -0.24953379324E+04  0.24953379324E+04  0.00000000000E+00 0. -1.
          6    1    1    2  502    0 -0.34701553826E+02  0.82619159309E+02 -0.12556577915E+04  0.12705473673E+04  0.17200000000E+03 0. -1.
         -6    1    1    2    0  501  0.34701553826E+02 -0.82619159309E+02 -0.12246040747E+04  0.12398666312E+04  0.17200000000E+03 0. -1.
</event>
<event>
 4    1  0.6365520E-002  0.2008730E+03  0.7818608E-02  0.1149005E+00
          2   -1    0    0  502    0  0.00000000000E+00  0.00000000000E+00  0.92883783302E+03  0.92883783302E+03  0.00000000000E+00 0. -1.
         -2   -1    0    0    0  501 -0.00000000000E+00 -0.00000000000E+00 -0.78027789347E+02  0.78027789347E+02  0.00000000000E+00 0.  1.
          6    1    1    2  502    0 -0.82273861045E+02  0.63221475850E+02  0.76057874973E+03  0.78665747169E+03  0.17200000000E+03 0. -1.
         -6    1    1    2    0  501  0.82273861045E+02 -0.63221475850E+02  0.90231293947E+02  0.22020815068E+03  0.17200000000E+03 0.  1.
</event>
<event>
 4    1  0.6365520E-002  0.2111104E+03  0.7818608E-02  0.1140690E+00
         -2   -1    0    0    0  501 -0.00000000000E+00  0.00000000000E+00  0.13120596062E+03  0.13120596062E+03  0.00000000000E+00 0.  1.
          2   -1    0    0  502    0  0.00000000000E+00 -0.00000000000E+00 -0.33973605988E+03  0.33973605988E+03  0.00000000000E+00 0. -1.
          6    1    1    2  502    0 -0.92023088302E+02  0.80717602028E+02 -0.10114699957E+03  0.23409035772E+03  0.17200000000E+03 0. -1.
         -6    1    1    2    0  501  0.92023088302E+02 -0.80717602028E+02 -0.10738309970E+03  0.23685166277E+03  0.17200000000E+03 0. -1.
</event>
<event>
 4    1  0.6365520E-002  0.1771936E+03  0.7818608E-02  0.1170547E+00
          2   -1    0    0  502    0  0.00000000000E+00  0.00000000000E+00  0.21921444710E+03  0.21921444710E+03  0.00000000000E+00 0. -1.
         -2   -1    0    0    0  501 -0.00000000000E+00 -0.00000000000E+00 -0.30585073477E+03  0.30585073477E+03  0.00000000000E+00 0.  1.
          6    1    1    2  502    0 -0.27371241228E+02 -0.32624738930E+02  0.14811610083E+03  0.23094574636E+03  0.17200000000E+03 0. -1.
         -6    1    1    2    0  501  0.27371241228E+02  0.32624738930E+02 -0.23475238850E+03  0.29411943551E+03  0.17200000000E+03 0.  1.
</event>
<event>
 4    1  0.6365520E-002  0.1953524E+03  0.7818608E-02  0.1153720E+00
         -2   -1    0    0    0  501 -0.00000000000E+00  0.00000000000E+00  0.38184392352E+02  0.38184392352E+02  0.00000000000E+00 0.  1.
          2   -1    0    0  502    0  0.00000000000E+00 -0.00000000000E+00 -0.99944936386E+03  0.99944936386E+03  0.00000000000E+00 0. -1.
          6    1    1    2  502    0 -0.88646888867E+02 -0.26838483363E+02 -0.47826966806E+03  0.51662796138E+03  0.17200000000E+03 0. -1.
         -6    1    1    2    0  501  0.88646888867E+02  0.26838483363E+02 -0.48299530345E+03  0.52100579483E+03  0.17200000000E+03 0.  1.
</event>
<event>
 4    1  0.6365520E-002  0.1965271E+03  0.7818608E-02  0.1152703E+00
          2   -1    0    0  502    0  0.00000000000E+00  0.00000000000E+00  0.96569017947E+03  0.96569017947E+03  0.00000000000E+00 0. -1.
         -2   -1    0    0    0  501 -0.00000000000E+00 -0.00000000000E+00 -0.42449073468E+02  0.42449073468E+02  0.00000000000E+00 0.  1.
          6    1    1    2  502    0  0.86530879777E+02 -0.39386728446E+02  0.34042452159E+03  0.39307984231E+03  0.17200000000E+03 0.  1.
         -6    1    1    2    0  501 -0.86530879777E+02  0.39386728446E+02  0.58281658441E+03  0.61505941062E+03  0.17200000000E+03 0. -1.
</event>
<event>
 4    1  0.6365520E-002  0.2600734E+03  0.7818608E-02  0.1107099E+00
         -3   -1    0    0    0  501 -0.00000000000E+00  0.00000000000E+00  0.20221083731E+03  0.20221083731E+03  0.00000000000E+00 0.  1.
          3   -1    0    0  502    0  0.00000000000E+00 -0.00000000000E+00 -0.38057578273E+03  0.38057578273E+03  0.00000000000E+00 0. -1.
          6    1    1    2  502    0  0.81802829668E+02  0.17709459105E+03  0.12214808627E+02  0.26036013265E+03  0.17200000000E+03 0. -1.
         -6    1    1    2    0  501 -0.81802829668E+02 -0.17709459105E+03 -0.19057975404E+03  0.32242648739E+03  0.17200000000E+03 0.  1.
</event>
<event>
 4    1  0.6365520E-002  0.1776209E+03  0.7818608E-02  0.1170126E+00
          2   -1    0    0  502    0  0.00000000000E+00  0.00000000000E+00  0.35267584661E+03  0.35267584661E+03  0.00000000000E+00 0. -1.
         -2   -1    0    0    0  501 -0.00000000000E+00 -0.00000000000E+00 -0.13238377174E+03  0.13238377174E+03  0.00000000000E+00 0.  1.
          6    1    1    2  502    0 -0.17121129027E+02  0.40890835006E+02  0.24825241229E+03  0.30525145971E+03  0.17200000000E+03 0. -1.
         -6    1    1    2    0  501  0.17121129027E+02 -0.40890835006E+02 -0.27960337421E+02  0.17980815865E+03  0.17200000000E+03 0.  1.
</event>
<event>
 4    1  0.6365520E-002  0.2962837E+03  0.7818608E-02  0.1087113E+00
         -2   -1    0    0    0  501 -0.00000000000E+00  0.00000000000E+00  0.26058858772E+03  0.26058858772E+03  0.00000000000E+00 0.  1.
          2   -1    0    0  502    0  0.00000000000E+00 -0.00000000000E+00 -0.59063671502E+03  0.59063671502E+03  0.00000000000E+00 0. -1.
          6    1    1    2  502    0  0.15233615574E+03  0.18706611281E+03 -0.44400407739E+03  0.53378240477E+03  0.17200000000E+03 0. -1.
         -6    1    1    2    0  501 -0.15233615574E+03 -0.18706611281E+03  0.11395595009E+03  0.31744289797E+03  0.17200000000E+03 0.  1.
</event>
<event>
 4    1  0.6365520E-002  0.2171765E+03  0.7818608E-02  0.1136006E+00
         -2   -1    0    0    0  501 -0.00000000000E+00  0.00000000000E+00  0.27850366400E+03  0.27850366400E+03  0.00000000000E+00 0.  1.
          2   -1    0    0  502    0  0.00000000000E+00 -0.00000000000E+00 -0.11463797586E+04  0.11463797586E+04  0.00000000000E+00 0. -1.
          6    1    1    2  502    0 -0.11569221497E+03  0.64783856019E+02 -0.10916536561E+04  0.11130468730E+04  0.17200000000E+03 0. -1.
         -6    1    1    2    0  501  0.11569221497E+03 -0.64783856019E+02  0.22377756154E+03  0.31183654958E+03  0.17200000000E+03 0.  1.
</event>
<event>
 4    1  0.6365520E-002  0.1772132E+03  0.7818608E-02  0.1170528E+00
         -2   -1    0    0    0  501 -0.00000000000E+00  0.00000000000E+00  0.32566767736E+02  0.32566767736E+02  0.00000000000E+00 0.  1.
          2   -1    0    0  502    0  0.00000000000E+00 -0.00000000000E+00 -0.96550320878E+03  0.96550320878E+03  0.00000000000E+00 0. -1.
          6    1    1    2  502    0 -0.40115052696E+02  0.14535900087E+02 -0.48400026235E+03  0.51542289801E+03  0.17200000000E+03 0.  1.
         -6    1    1    2    0  501  0.40115052696E+02 -0.14535900087E+02 -0.44893617870E+03  0.48264707851E+03  0.17200000000E+03 0.  1.
</event>
<event>
 4    1  0.6365520E-002  0.2060481E+03  0.7818608E-02  0.1144734E+00
         -1   -1    0    0    0  501 -0.00000000000E+00  0.00000000000E+00  0.68884308743E+02  0.68884308743E+02  0.00000000000E+00 0.  1.
          1   -1    0    0  502    0  0.00000000000E+00 -0.00000000000E+00 -0.68282828016E+03  0.68282828016E+03  0.00000000000E+00 0. -1.
          6    1    1    2  502    0  0.60737624869E+02  0.95826806668E+02 -0.42426003054E+03  0.47164860804E+03  0.17200000000E+03 0. -1.
         -6    1    1    2    0  501 -0.60737624869E+02 -0.95826806668E+02 -0.18968394088E+03  0.28006398086E+03  0.17200000000E+03 0.  1.
</event>
<event>
 4    1  0.6365520E-002  0.2156383E+03  0.7818608E-02  0.1137177E+00
         -2   -1    0    0    0  501 -0.00000000000E+00  0.00000000000E+00  0.31123893167E+03  0.31123893167E+03  0.00000000000E+00 0.  1.
          2   -1    0    0  502    0  0.00000000000E+00 -0.00000000000E+00 -0.15662747272E+03  0.15662747272E+03  0.00000000000E+00 0. -1.
          6    1    1    2  502    0  0.12472380017E+03  0.36876325499E+02  0.27062848845E+02  0.21732990475E+03  0.17200000000E+03 0. -1.
         -6    1    1    2    0  501 -0.12472380017E+03 -0.36876325499E+02  0.12754861010E+03  0.25053649964E+03  0.17200000000E+03 0.  1.
</event>
<event>
 4    1  0.6365520E-002  0.1760370E+03  0.7818608E-02  0.1171695E+00
          4   -1    0    0  502    0  0.00000000000E+00  0.00000000000E+00  0.13615230136E+04  0.13615230136E+04  0.00000000000E+00 0. -1.
         -4   -1    0    0    0  501 -0.00000000000E+00 -0.00000000000E+00 -0.34671476897E+02  0.34671476897E+02  0.00000000000E+00 0.  1.
          6    1    1    2  502    0  0.17530566651E+02  0.33131597535E+02  0.25425708451E+03  0.30925020379E+03  0.17200000000E+03 0.  1.
         -6    1    1    2    0  501 -0.17530566651E+02 -0.33131597535E+02  0.10725944522E+04  0.10869442867E+04  0.17200000000E+03 0. -1.
</event>
<event>
 4    1  0.6365520E-002  0.2921567E+03  0.7818608E-02  0.1089228E+00
         -1   -1    0    0    0  501 -0.00000000000E+00  0.00000000000E+00  0.69124132758E+02  0.69124132758E+02  0.00000000000E+00 0.  1.
          1   -1    0    0  502    0  0.00000000000E+00 -0.00000000000E+00 -0.13013966284E+04  0.13013966284E+04  0.00000000000E+00 0. -1.
          6    1    1    2  502    0 -0.23610907785E+03  0.49043272176E+01 -0.46113812797E+03  0.54589735495E+03  0.17200000000E+03 0. -1.
         -6    1    1    2    0  501  0.23610907785E+03 -0.49043272176E+01 -0.77113436769E+03  0.82462340623E+03  0.17200000000E+03 0.  1.
</event>
<event>
 4    1  0.6365520E-002  0.3098035E+03  0.7818608E-02  0.1080440E+00
          1   -1    0    0  502    0  0.00000000000E+00  0.00000000000E+00  0.24320293275E+04  0.24320293275E+04  0.00000000000E+00 0. -1.
         -1   -1    0    0    0  501 -0.00000000000E+00 -0.00000000000E+00 -0.32461849237E+03  0.32461849237E+03  0.00000000000E+00 0.  1.
          6    1    1    2  502    0  0.25395083214E+03 -0.43625255634E+02  0.23455331045E+04  0.23659044217E+04  0.17200000000E+03 0. -1.
         -6    1    1    2    0  501 -0.25395083214E+03  0.43625255634E+02 -0.23812226937E+03  0.39074339821E+03  0.17200000000E+03 0.  1.
</event>
<event>
 4    1  0.6365520E-002  0.5671708E+03  0.7818608E-02  0.9975959E-01
         -2   -1    0    0    0  501 -0.00000000000E+00  0.00000000000E+00  0.16856116670E+03  0.16856116670E+03  0.00000000000E+00 0.  1.
          2   -1    0    0  502    0  0.00000000000E+00 -0.00000000000E+00 -0.19160012266E+04  0.19160012266E+04  0.00000000000E+00 0. -1.
          6    1    1    2  502    0  0.52569952751E+03  0.12545413457E+03 -0.80808635758E+03  0.98726201913E+03  0.17200000000E+03 0. -1.
         -6    1    1    2    0  501 -0.52569952751E+03 -0.12545413457E+03 -0.93935370230E+03  0.10973003742E+04  0.17200000000E+03 0.  1.
</event>
<event>
 4    1  0.6365520E-002  0.1819419E+03  0.7818608E-02  0.1165937E+00
          1   -1    0    0  502    0  0.00000000000E+00  0.00000000000E+00  0.38180459918E+03  0.38180459918E+03  0.00000000000E+00 0. -1.
         -1   -1    0    0    0  501 -0.00000000000E+00 -0.00000000000E+00 -0.87974474933E+02  0.87974474933E+02  0.00000000000E+00 0.  1.
          6    1    1    2  502    0  0.31179192608E+02  0.50465065516E+02  0.11865522453E+03  0.21721401243E+03  0.17200000000E+03 0.  1.
         -6    1    1    2    0  501 -0.31179192608E+02 -0.50465065516E+02  0.17517489972E+03  0.25256506168E+03  0.17200000000E+03 0. -1.
</event>
<event>
 4    1  0.6365520E-002  0.2629142E+03  0.7818608E-02  0.1105405E+00
         -2   -1    0    0    0  501 -0.00000000000E+00  0.00000000000E+00  0.36926642824E+02  0.36926642824E+02  0.00000000000E+00 0.  1.
          2   -1    0    0  502    0  0.00000000000E+00 -0.00000000000E+00 -0.18734479810E+04  0.18734479810E+04  0.00000000000E+00 0. -1.
          6    1    1    2  502    0  0.18920385792E+03 -0.61170012150E+02 -0.89101782146E+03  0.92899764714E+03  0.17200000000E+03 0. -1.
         -6    1    1    2    0  501 -0.18920385792E+03  0.61170012150E+02 -0.94550351672E+03  0.98137697669E+03  0.17200000000E+03 0.  1.
</event>
<event>
 4    1  0.6365520E-002  0.2980946E+03  0.7818608E-02  0.1086197E+00
         -2   -1    0    0    0  501 -0.00000000000E+00  0.00000000000E+00  0.55070493509E+03  0.55070493509E+03  0.00000000000E+00 0.  1.
          2   -1    0    0  502    0  0.00000000000E+00 -0.00000000000E+00 -0.28121556622E+03  0.28121556622E+03  0.00000000000E+00 0. -1.
          6    1    1    2  502    0 -0.21014490205E+03 -0.12294510569E+03 -0.13681529189E+03  0.32799207760E+03  0.17200000000E+03 0. -1.
         -6    1    1    2    0  501  0.21014490205E+03  0.12294510569E+03  0.40630466076E+03  0.50392842371E+03  0.17200000000E+03 0.  1.
</event>
<event>
 4    1  0.6365520E-002  0.2210760E+03  0.7818608E-02  0.1133083E+00
          3   -1    0    0  502    0  0.00000000000E+00  0.00000000000E+00  0.35099878105E+03  0.35099878105E+03  0.00000000000E+00 0. -1.
         -3   -1    0    0    0  501 -0.00000000000E+00 -0.00000000000E+00 -0.49732921343E+03  0.49732921343E+03  0.00000000000E+00 0.  1.
          6    1    1    2  502    0  0.95768785616E+02 -0.10059288426E+03  0.28675381742E+03  0.36208057179E+03  0.17200000000E+03 0. -1.
         -6    1    1    2    0  501 -0.95768785616E+02  0.10059288426E+03 -0.43308424979E+03  0.48624742270E+03  0.17200000000E+03 0.  1.
</event>
<event>
 4    1  0.6365520E-002  0.2728748E+03  0.7818608E-02  0.1099645E+00
         -2   -1    0    0    0  501 -0.00000000000E+00  0.00000000000E+00  0.11534559325E+03  0.11534559325E+03  0.00000000000E+00 0.  1.
          2   -1    0    0  502    0  0.00000000000E+00 -0.00000000000E+00 -0.12255442746E+04  0.12255442746E+04  0.00000000000E+00 0. -1.
          6    1    1    2  502    0 -0.34643506723E+02  0.20898925762E+03 -0.10163241114E+04  0.10523190494E+04  0.17200000000E+03 0. -1.
         -6    1    1    2    0  501  0.34643506723E+02 -0.20898925762E+03 -0.93874569941E+02  0.28857081842E+03  0.17200000000E+03 0.  1.
</event>
<event>
 4    1  0.6365520E-002  0.2942217E+03  0.7818608E-02  0.1088165E+00
         -3   -1    0    0    0  501 -0.00000000000E+00  0.00000000000E+00  0.35406822145E+03  0.35406822145E+03  0.00000000000E+00 0.  1.
          3   -1    0    0  502    0  0.00000000000E+00 -0.00000000000E+00 -0.42143511268E+03  0.42143511268E+03  0.00000000000E+00 0. -1.
          6    1    1    2  502    0  0.23448933052E+03 -0.44689818489E+02 -0.28493375657E+03  0.40957743058E+03  0.17200000000E+03 0. -1.
         -6    1    1    2    0  501 -0.23448933052E+03  0.44689818489E+02  0.21756686533E+03  0.36592590356E+03  0.17200000000E+03 0.  1.
</event>
<event>
 4    1  0.6365520E-002  0.1848199E+03  0.7818608E-02  0.1163218E+00
         -2   -1    0    0    0  501 -0.00000000000E+00  0.00000000000E+00  0.23998936624E+02  0.23998936624E+02  0.00000000000E+00 0.  1.
          2   -1    0    0  502    0  0.00000000000E+00 -0.00000000000E+00 -0.20234603753E+04  0.20234603753E+04  0.00000000000E+00 0. -1.
          6    1    1    2  502    0 -0.61805332750E+01  0.67351321571E+02 -0.15572512201E+04  0.15681803984E+04  0.17200000000E+03 0. -1.
         -6    1    1    2    0  501  0.61805332750E+01 -0.67351321571E+02 -0.44221021858E+03  0.47927891350E+03  0.17200000000E+03 0.  1.
</event>
<event>
 4    1  0.6365520E-002  0.3221666E+03  0.7818608E-02  0.1074656E+00
         -2   -1    0    0    0  501 -0.00000000000E+00  0.00000000000E+00  0.12734292308E+03  0.12734292308E+03  0.00000000000E+00 0.  1.
          2   -1    0    0  502    0  0.00000000000E+00 -0.00000000000E+00 -0.14902291750E+04  0.14902291750E+04  0.00000000000E+00 0. -1.
          6    1    1    2  502    0 -0.20059208955E+03 -0.18430994471E+03 -0.13704653662E+03  0.35010440630E+03  0.17200000000E+03 0. -1.
         -6    1    1    2    0  501  0.20059208955E+03  0.18430994471E+03 -0.12258397153E+04  0.12674676918E+04  0.17200000000E+03 0. -1.
</event>
<event>
 4    1  0.6365520E-002  0.2968245E+03  0.7818608E-02  0.1086839E+00
          2   -1    0    0  502    0  0.00000000000E+00  0.00000000000E+00  0.46499405370E+03  0.46499405370E+03  0.00000000000E+00 0. -1.
         -2   -1    0    0    0  501 -0.00000000000E+00 -0.00000000000E+00 -0.23499812234E+03  0.23499812234E+03  0.00000000000E+00 0.  1.
          6    1    1    2  502    0 -0.19633928634E+03  0.14132114814E+03  0.26904263234E+03  0.40061043457E+03  0.17200000000E+03 0. -1.
         -6    1    1    2    0  501  0.19633928634E+03 -0.14132114814E+03 -0.39046700984E+02  0.29938174147E+03  0.17200000000E+03 0.  1.
</event>
<event>
 4    1  0.6365520E-002  0.2429724E+03  0.7818608E-02  0.1117828E+00
          2   -1    0    0  502    0  0.00000000000E+00  0.00000000000E+00  0.55587318675E+02  0.55587318675E+02  0.00000000000E+00 0. -1.
         -2   -1    0    0    0  501 -0.00000000000E+00 -0.00000000000E+00 -0.10641441983E+04  0.10641441983E+04  0.00000000000E+00 0.  1.
          6    1    1    2  502    0 -0.73064341856E+02  0.15528422271E+03 -0.47934344925E+03  0.53740648508E+03  0.17200000000E+03 0.  1.
         -6    1    1    2    0  501  0.73064341856E+02 -0.15528422271E+03 -0.52921343036E+03  0.58232503187E+03  0.17200000000E+03 0. -1.
</event>
<event>
 4    1  0.6365520E-002  0.2144235E+03  0.7818608E-02  0.1138110E+00
          2   -1    0    0  502    0  0.00000000000E+00  0.00000000000E+00  0.15584038589E+04  0.15584038589E+04  0.00000000000E+00 0. -1.
         -2   -1    0    0    0  501 -0.00000000000E+00 -0.00000000000E+00 -0.42680518230E+02  0.42680518230E+02  0.00000000000E+00 0.  1.
          6    1    1    2  502    0  0.12132155643E+03  0.40921072030E+02  0.31303827473E+03  0.37943433640E+03  0.17200000000E+03 0. -1.
         -6    1    1    2    0  501 -0.12132155643E+03 -0.40921072030E+02  0.12026850659E+04  0.12216500407E+04  0.17200000000E+03 0. -1.
</event>
<event>
 4    1  0.6365520E-002  0.1961917E+03  0.7818608E-02  0.1152992E+00
         -2   -1    0    0    0  501 -0.00000000000E+00  0.00000000000E+00  0.25198796108E+02  0.25198796108E+02  0.00000000000E+00 0.  1.
          2   -1    0    0  502    0  0.00000000000E+00 -0.00000000000E+00 -0.15335048927E+04  0.15335048927E+04  0.00000000000E+00 0. -1.
          6    1    1    2  502    0 -0.71861132476E+02  0.61181461395E+02 -0.70538931669E+03  0.73216479134E+03  0.17200000000E+03 0.  1.
         -6    1    1    2    0  501  0.71861132476E+02 -0.61181461395E+02 -0.80291677995E+03  0.82653889752E+03  0.17200000000E+03 0. -1.
</event>
<event>
 4    1  0.6365520E-002  0.4449827E+03  0.7818608E-02  0.1029229E+00
         -1   -1    0    0    0  501 -0.00000000000E+00  0.00000000000E+00  0.15178989290E+04  0.15178989290E+04  0.00000000000E+00 0.  1.
          1   -1    0    0  502    0  0.00000000000E+00 -0.00000000000E+00 -0.28151737401E+03  0.28151737401E+03  0.00000000000E+00 0. -1.
          6    1    1    2  502    0  0.19693845764E+02  0.40992409472E+03 -0.40883985349E+02  0.44685692481E+03  0.17200000000E+03 0. -1.
         -6    1    1    2    0  501 -0.19693845764E+02 -0.40992409472E+03  0.12772655403E+04  0.13525593782E+04  0.17200000000E+03 0.  1.
</event>
<event>
 4    1  0.6365520E-002  0.1823257E+03  0.7818608E-02  0.1165571E+00
          3   -1    0    0  502    0  0.00000000000E+00  0.00000000000E+00  0.98398825242E+03  0.98398825242E+03  0.00000000000E+00 0. -1.
         -3   -1    0    0    0  501 -0.00000000000E+00 -0.00000000000E+00 -0.37739351936E+02  0.37739351936E+02  0.00000000000E+00 0.  1.
          6    1    1    2  502    0 -0.59920609039E+02  0.82580042909E+01  0.63851929274E+03  0.66404033102E+03  0.17200000000E+03 0.  1.
         -6    1    1    2    0  501  0.59920609039E+02 -0.82580042909E+01  0.30772960775E+03  0.35768727333E+03  0.17200000000E+03 0.  1.
</event>
<event>
 4    1  0.6365520E-002  0.2632132E+03  0.7818608E-02  0.1105228E+00
          1   -1    0    0  502    0  0.00000000000E+00  0.00000000000E+00  0.17240153014E+04  0.17240153014E+04  0.00000000000E+00 0. -1.
         -1   -1    0    0    0  501 -0.00000000000E+00 -0.00000000000E+00 -0.76444642685E+02  0.76444642685E+02  0.00000000000E+00 0.  1.
          6    1    1    2  502    0  0.15578958508E+03  0.12420472607E+03  0.14437771434E+04  0.14675740692E+04  0.17200000000E+03 0. -1.
         -6    1    1    2    0  501 -0.15578958508E+03 -0.12420472607E+03  0.20379351526E+03  0.33288587483E+03  0.17200000000E+03 0.  1.
</event>
<event>
 4    1  0.6365520E-002  0.2916535E+03  0.7818608E-02  0.1089489E+00
          2   -1    0    0  502    0  0.00000000000E+00  0.00000000000E+00  0.36371798800E+03  0.36371798800E+03  0.00000000000E+00 0. -1.
         -2   -1    0    0    0  501 -0.00000000000E+00 -0.00000000000E+00 -0.23447960913E+03  0.23447960913E+03  0.00000000000E+00 0.  1.
          6    1    1    2  502    0 -0.94635870047E+02 -0.21568911446E+03  0.79903620204E+02  0.30240094331E+03  0.17200000000E+03 0. -1.
         -6    1    1    2    0  501  0.94635870047E+02  0.21568911446E+03  0.49334758667E+02  0.29579665382E+03  0.17200000000E+03 0.  1.
</event>
<event>
 4    1  0.6365520E-002  0.2423966E+03  0.7818608E-02  0.1118206E+00
          1   -1    0    0  502    0  0.00000000000E+00  0.00000000000E+00  0.64534951361E+03  0.64534951361E+03  0.00000000000E+00 0. -1.
         -1   -1    0    0    0  501 -0.00000000000E+00 -0.00000000000E+00 -0.93720055358E+02  0.93720055358E+02  0.00000000000E+00 0.  1.
          6    1    1    2  502    0  0.95603833792E+02  0.14153455582E+03  0.33824145975E+03  0.41612907688E+03  0.17200000000E+03 0. -1.
         -6    1    1    2    0  501 -0.95603833792E+02 -0.14153455582E+03  0.21338799850E+03  0.32294049209E+03  0.17200000000E+03 0.  1.
</event>
<event>
 4    1  0.6365520E-002  0.2396626E+03  0.7818608E-02  0.1120018E+00
          1   -1    0    0  502    0  0.00000000000E+00  0.00000000000E+00  0.30416533588E+03  0.30416533588E+03  0.00000000000E+00 0. -1.
         -1   -1    0    0    0  501 -0.00000000000E+00 -0.00000000000E+00 -0.21028206774E+03  0.21028206774E+03  0.00000000000E+00 0.  1.
          6    1    1    2  502    0 -0.16662352447E+03 -0.95272235435E+01 -0.35198804601E+02  0.24223361191E+03  0.17200000000E+03 0. -1.
         -6    1    1    2    0  501  0.16662352447E+03  0.95272235435E+01  0.12908207274E+03  0.27221379171E+03  0.17200000000E+03 0. -1.
</event>
<event>
 4    1  0.6365520E-002  0.1735115E+03  0.7818608E-02  0.1174235E+00
         -2   -1    0    0    0  501 -0.00000000000E+00  0.00000000000E+00  0.15306343083E+02  0.15306343083E+02  0.00000000000E+00 0.  1.
          2   -1    0    0  502    0  0.00000000000E+00 -0.00000000000E+00 -0.27064565710E+04  0.27064565710E+04  0.00000000000E+00 0. -1.
          6    1    1    2  502    0  0.19976365950E+02  0.11098549630E+02 -0.20569554924E+04  0.20642606742E+04  0.17200000000E+03 0. -1.
         -6    1    1    2    0  501 -0.19976365950E+02 -0.11098549630E+02 -0.63419473550E+03  0.65750223995E+03  0.17200000000E+03 0.  1.
</event>
<event>
 4    1  0.6365520E-002  0.1896947E+03  0.7818608E-02  0.1158737E+00
         -2   -1    0    0    0  501 -0.00000000000E+00  0.00000000000E+00  0.19582456229E+02  0.19582456229E+02  0.00000000000E+00 0.  1.
          2   -1    0    0  502    0  0.00000000000E+00 -0.00000000000E+00 -0.27107457675E+04  0.27107457675E+04  0.00000000000E+00 0. -1.
          6    1    1    2  502    0  0.21635660275E+02 -0.77019279128E+02 -0.21203861036E+04  0.21288544571E+04  0.17200000000E+03 0. -1.
         -6    1    1    2    0  501 -0.21635660275E+02  0.77019279128E+02 -0.57077720769E+03  0.60147376665E+03  0.17200000000E+03 0.  1.
</event>
<event>
 4    1  0.6365520E-002  0.5628166E+03  0.7818608E-02  0.9985702E-01
          2   -1    0    0  502    0  0.00000000000E+00  0.00000000000E+00  0.64316011098E+03  0.64316011098E+03  0.00000000000E+00 0. -1.
         -2   -1    0    0    0  501 -0.00000000000E+00 -0.00000000000E+00 -0.49430449367E+03  0.49430449367E+03  0.00000000000E+00 0.  1.
          6    1    1    2  502    0 -0.42180217880E+03  0.33054713464E+03  0.10869969576E+03  0.57321733236E+03  0.17200000000E+03 0.  1.
         -6    1    1    2    0  501  0.42180217880E+03 -0.33054713464E+03  0.40155921556E+02  0.56424727229E+03  0.17200000000E+03 0.  1.
</event>
<event>
 4    1  0.6365520E-002  0.1815035E+03  0.7818608E-02  0.1166356E+00
         -2   -1    0    0    0  501 -0.00000000000E+00  0.00000000000E+00  0.14818211623E+03  0.14818211623E+03  0.00000000000E+00 0.  1.
          2   -1    0    0  502    0  0.00000000000E+00 -0.00000000000E+00 -0.10037646573E+04  0.10037646573E+04  0.00000000000E+00 0. -1.
          6    1    1    2  502    0 -0.39529264508E+02  0.42390418897E+02 -0.93599308748E+03  0.95342884904E+03  0.17200000000E+03 0. -1.
         -6    1    1    2    0  501  0.39529264508E+02 -0.42390418897E+02  0.80410546415E+02  0.19851792448E+03  0.17200000000E+03 0.  1.
</event>
<event>
 4    1  0.6365520E-002  0.3425738E+03  0.7818608E-02  0.1065705E+00
          2   -1    0    0  502    0  0.00000000000E+00  0.00000000000E+00  0.12778707316E+04  0.12778707316E+04  0.00000000000E+00 0. -1.
         -2   -1    0    0    0  501 -0.00000000000E+00 -0.00000000000E+00 -0.37928465013E+03  0.37928465013E+03  0.00000000000E+00 0.  1.
          6    1    1    2  502    0 -0.61509664629E+02  0.28980917278E+03  0.11706154155E+04  0.12197119522E+04  0.17200000000E+03 0. -1.
         -6    1    1    2    0  501  0.61509664629E+02 -0.28980917278E+03 -0.27202933400E+03  0.43744342951E+03  0.17200000000E+03 0.  1.
</event>
<event>
 4    1  0.6365520E-002  0.3062730E+03  0.7818608E-02  0.1082146E+00
         -2   -1    0    0    0  501 -0.00000000000E+00  0.00000000000E+00  0.23696428552E+03  0.23696428552E+03  0.00000000000E+00 0.  1.
          2   -1    0    0  502    0  0.00000000000E+00 -0.00000000000E+00 -0.44860333140E+03  0.44860333140E+03  0.00000000000E+00 0. -1.
          6    1    1    2  502    0  0.25340472606E+03  0.22797021102E+01 -0.22336323700E+03  0.37907029411E+03  0.17200000000E+03 0. -1.
         -6    1    1    2    0  501 -0.25340472606E+03 -0.22797021102E+01  0.11724191121E+02  0.30649732281E+03  0.17200000000E+03 0.  1.
</event>
<event>
 4    1  0.6365520E-002  0.2086317E+03  0.7818608E-02  0.1142654E+00
          1   -1    0    0  502    0  0.00000000000E+00  0.00000000000E+00  0.68162679423E+03  0.68162679423E+03  0.00000000000E+00 0. -1.
         -1   -1    0    0    0  501 -0.00000000000E+00 -0.00000000000E+00 -0.81348258930E+02  0.81348258930E+02  0.00000000000E+00 0.  1.
          6    1    1    2  502    0 -0.29618576685E+02  0.11430621363E+03  0.47703083191E+03  0.52065879917E+03  0.17200000000E+03 0. -1.
         -6    1    1    2    0  501  0.29618576685E+02 -0.11430621363E+03  0.12324770340E+03  0.24231625400E+03  0.17200000000E+03 0.  1.
</event>
<event>
 4    1  0.6365520E-002  0.2754102E+03  0.7818608E-02  0.1098223E+00
         -2   -1    0    0    0  501 -0.00000000000E+00  0.00000000000E+00  0.15534700280E+03  0.15534700280E+03  0.00000000000E+00 0.  1.
          2   -1    0    0  502    0  0.00000000000E+00 -0.00000000000E+00 -0.48993008631E+03  0.48993008631E+03  0.00000000000E+00 0. -1.
          6    1    1    2  502    0  0.30756240118E+02 -0.21288688985E+03 -0.14849227495E+03  0.31289092332E+03  0.17200000000E+03 0. -1.
         -6    1    1    2    0  501 -0.30756240118E+02  0.21288688985E+03 -0.18609080856E+03  0.33238616578E+03  0.17200000000E+03 0.  1.
</event>
<event>
 4    1  0.6365520E-002  0.3192818E+03  0.7818608E-02  0.1075980E+00
          2   -1    0    0  502    0  0.00000000000E+00  0.00000000000E+00  0.68195372250E+03  0.68195372250E+03  0.00000000000E+00 0. -1.
         -2   -1    0    0    0  501 -0.00000000000E+00 -0.00000000000E+00 -0.15006677149E+03  0.15006677149E+03  0.00000000000E+00 0.  1.
          6    1    1    2  502    0  0.23407633404E+03 -0.13253365256E+03  0.24001010599E+03  0.39943178416E+03  0.17200000000E+03 0. -1.
         -6    1    1    2    0  501 -0.23407633404E+03  0.13253365256E+03  0.29187684502E+03  0.43258870983E+03  0.17200000000E+03 0. -1.
</event>
<event>
 4    1  0.6365520E-002  0.1890937E+03  0.7818608E-02  0.1159281E+00
         -2   -1    0    0    0  501 -0.00000000000E+00  0.00000000000E+00  0.12595513346E+03  0.12595513346E+03  0.00000000000E+00 0.  1.
          2   -1    0    0  502    0  0.00000000000E+00 -0.00000000000E+00 -0.28388236148E+03  0.28388236148E+03  0.00000000000E+00 0. -1.
          6    1    1    2  502    0  0.74343178194E+02  0.25407256299E+02 -0.79031375865E+02  0.20494485890E+03  0.17200000000E+03 0. -1.
         -6    1    1    2    0  501 -0.74343178194E+02 -0.25407256299E+02 -0.78895852157E+02  0.20489263604E+03  0.17200000000E+03 0.  1.
</event>
<event>
 4    1  0.6365520E-002  0.1739735E+03  0.7818608E-02  0.1173766E+00
          2   -1    0    0  502    0  0.00000000000E+00  0.00000000000E+00  0.12642775474E+04  0.12642775474E+04  0.00000000000E+00 0. -1.
         -2   -1    0    0    0  501 -0.00000000000E+00 -0.00000000000E+00 -0.26007942720E+02  0.26007942720E+02  0.00000000000E+00 0.  1.
          6    1    1    2  502    0  0.14952928002E+02 -0.21428659188E+02  0.80105223247E+03  0.81972645232E+03  0.17200000000E+03 0. -1.
         -6    1    1    2    0  501 -0.14952928002E+02  0.21428659188E+02  0.43721737220E+03  0.47055903779E+03  0.17200000000E+03 0.  1.
</event>
<event>
 4    1  0.6365520E-002  0.1777965E+03  0.7818608E-02  0.1169953E+00
         -2   -1    0    0    0  501 -0.00000000000E+00  0.00000000000E+00  0.77622681385E+02  0.77622681385E+02  0.00000000000E+00 0.  1.
          2   -1    0    0  502    0  0.00000000000E+00 -0.00000000000E+00 -0.41681770750E+03  0.41681770750E+03  0.00000000000E+00 0. -1.
          6    1    1    2  502    0 -0.38663009360E+02 -0.23081921303E+02 -0.13213619083E+03  0.22152105162E+03  0.17200000000E+03 0.  1.
         -6    1    1    2    0  501  0.38663009360E+02  0.23081921303E+02 -0.20705883529E+03  0.27291933727E+03  0.17200000000E+03 0. -1.
</event>
<event>
 4    1  0.6365520E-002  0.2814184E+03  0.7818608E-02  0.1094917E+00
          1   -1    0    0  502    0  0.00000000000E+00  0.00000000000E+00  0.88194139965E+03  0.88194139965E+03  0.00000000000E+00 0. -1.
         -1   -1    0    0    0  501 -0.00000000000E+00 -0.00000000000E+00 -0.13017914634E+03  0.13017914634E+03  0.00000000000E+00 0.  1.
          6    1    1    2  502    0  0.17070141982E+03 -0.14308507334E+03  0.65773398800E+03  0.71540919194E+03  0.17200000000E+03 0. -1.
         -6    1    1    2    0  501 -0.17070141982E+03  0.14308507334E+03  0.94028265310E+02  0.29671135405E+03  0.17200000000E+03 0.  1.
</event>
<event>
 4    1  0.6365520E-002  0.1804716E+03  0.7818608E-02  0.1167347E+00
         -2   -1    0    0    0  501 -0.00000000000E+00  0.00000000000E+00  0.47105720158E+02  0.47105720158E+02  0.00000000000E+00 0.  1.
          2   -1    0    0  502    0  0.00000000000E+00 -0.00000000000E+00 -0.69165667257E+03  0.69165667257E+03  0.00000000000E+00 0. -1.
          6    1    1    2  502    0 -0.44239746535E+02 -0.32075347572E+02 -0.31548750954E+03  0.36345887219E+03  0.17200000000E+03 0.  1.
         -6    1    1    2    0  501  0.44239746535E+02  0.32075347572E+02 -0.32906344287E+03  0.37530352054E+03  0.17200000000E+03 0.  1.
</event>
<event>
 4    1  0.6365520E-002  0.3868121E+03  0.7818608E-02  0.1048444E+00
          2   -1    0    0  502    0  0.00000000000E+00  0.00000000000E+00  0.15785131237E+04  0.15785131237E+04  0.00000000000E+00 0. -1.
         -2   -1    0    0    0  501 -0.00000000000E+00 -0.00000000000E+00 -0.17645206373E+03  0.17645206373E+03  0.00000000000E+00 0.  1.
          6    1    1    2  502    0  0.33459669801E+03 -0.89914616931E+02  0.12979853972E+04  0.13543964265E+04  0.17200000000E+03 0. -1.
         -6    1    1    2    0  501 -0.33459669801E+03  0.89914616931E+02  0.10407566271E+03  0.40056876092E+03  0.17200000000E+03 0.  1.
</event>
<event>
 4    1  0.6365520E-002  0.1916558E+03  0.7818608E-02  0.1156976E+00
          2   -1    0    0  502    0  0.00000000000E+00  0.00000000000E+00  0.12294391551E+04  0.12294391551E+04  0.00000000000E+00 0. -1.
         -2   -1    0    0    0  501 -0.00000000000E+00 -0.00000000000E+00 -0.13809278267E+03  0.13809278267E+03  0.00000000000E+00 0.  1.
          6    1    1    2  502    0  0.69978397653E+02  0.47444478877E+02  0.11509684730E+04  0.11668163439E+04  0.17200000000E+03 0. -1.
         -6    1    1    2    0  501 -0.69978397653E+02 -0.47444478877E+02 -0.59622100576E+02  0.20071559379E+03  0.17200000000E+03 0.  1.
</event>
<event>
 4    1  0.6365520E-002  0.2727864E+03  0.7818608E-02  0.1099695E+00
         -2   -1    0    0    0  501 -0.00000000000E+00  0.00000000000E+00  0.49359014361E+03  0.49359014361E+03  0.00000000000E+00 0.  1.
          2   -1    0    0  502    0  0.00000000000E+00 -0.00000000000E+00 -0.17559177212E+03  0.17559177212E+03  0.00000000000E+00 0. -1.
          6    1    1    2  502    0 -0.19272646785E+03  0.87663768123E+02  0.33168190379E+02  0.27479548123E+03  0.17200000000E+03 0. -1.
         -6    1    1    2    0  501  0.19272646785E+03 -0.87663768123E+02  0.28483018110E+03  0.39438643450E+03  0.17200000000E+03 0.  1.
</event>
<event>
 4    1  0.6365520E-002  0.2986045E+03  0.7818608E-02  0.1085940E+00
         -2   -1    0    0    0  501 -0.00000000000E+00  0.00000000000E+00  0.14986733464E+03  0.14986733464E+03  0.00000000000E+00 0.  1.
          2   -1    0    0  502    0  0.00000000000E+00 -0.00000000000E+00 -0.91184271635E+03  0.91184271635E+03  0.00000000000E+00 0. -1.
          6    1    1    2  502    0 -0.23109955630E+03 -0.78572357447E+02 -0.69393217137E+03  0.75545117561E+03  0.17200000000E+03 0. -1.
         -6    1    1    2    0  501  0.23109955630E+03  0.78572357447E+02 -0.68043210340E+02  0.30625887538E+03  0.17200000000E+03 0.  1.
</event>
<event>
 4    1  0.6365520E-002  0.1928181E+03  0.7818608E-02  0.1155944E+00
          4   -1    0    0  502    0  0.00000000000E+00  0.00000000000E+00  0.36110878040E+03  0.36110878040E+03  0.00000000000E+00 0. -1.
         -4   -1    0    0    0  501 -0.00000000000E+00 -0.00000000000E+00 -0.10558705009E+03  0.10558705009E+03  0.00000000000E+00 0.  1.
          6    1    1    2  502    0  0.64258082784E+02  0.58870318826E+02  0.16458638089E+03  0.25351033986E+03  0.17200000000E+03 0. -1.
         -6    1    1    2    0  501 -0.64258082784E+02 -0.58870318826E+02  0.90935349413E+02  0.21318549063E+03  0.17200000000E+03 0.  1.
</event>
<event>
 4    1  0.6365520E-002  0.1053357E+04  0.7818608E-02  0.9251885E-01
          1   -1    0    0  502    0  0.00000000000E+00  0.00000000000E+00  0.83587761408E+03  0.83587761408E+03  0.00000000000E+00 0. -1.
         -1   -1    0    0    0  501 -0.00000000000E+00 -0.00000000000E+00 -0.13275317822E+04  0.13275317822E+04  0.00000000000E+00 0.  1.
          6    1    1    2  502    0  0.10215736338E+04 -0.19069681594E+03 -0.25568361914E+03  0.10839446840E+04  0.17200000000E+03 0. -1.
         -6    1    1    2    0  501 -0.10215736338E+04  0.19069681594E+03 -0.23597054894E+03  0.10794647122E+04  0.17200000000E+03 0.  1.
</event>
<event>
 4    1  0.6365520E-002  0.4012279E+03  0.7818608E-02  0.1043355E+00
         -2   -1    0    0    0  501 -0.00000000000E+00  0.00000000000E+00  0.36717283072E+03  0.36717283072E+03  0.00000000000E+00 0.  1.
          2   -1    0    0  502    0  0.00000000000E+00 -0.00000000000E+00 -0.66575708744E+03  0.66575708744E+03  0.00000000000E+00 0. -1.
          6    1    1    2  502    0 -0.11462487257E+03  0.34389092286E+03 -0.45107703418E+03  0.60370052096E+03  0.17200000000E+03 0. -1.
         -6    1    1    2    0  501  0.11462487257E+03 -0.34389092286E+03  0.15249277746E+03  0.42922939720E+03  0.17200000000E+03 0.  1.
</event>
<event>
 4    1  0.6365520E-002  0.4236032E+03  0.7818608E-02  0.1035900E+00
         -4   -1    0    0    0  501 -0.00000000000E+00  0.00000000000E+00  0.62597063350E+03  0.62597063350E+03  0.00000000000E+00 0.  1.
          4   -1    0    0  502    0  0.00000000000E+00 -0.00000000000E+00 -0.28820661172E+03  0.28820661172E+03  0.00000000000E+00 0. -1.
          6    1    1    2  502    0 -0.19944530864E+03 -0.33177891856E+03  0.13537955209E+03  0.44471036087E+03  0.17200000000E+03 0.  1.
         -6    1    1    2    0  501  0.19944530864E+03  0.33177891856E+03  0.20238446968E+03  0.46946688436E+03  0.17200000000E+03 0.  1.
</event>
<event>
 4    1  0.6365520E-002  0.1992732E+03  0.7818608E-02  0.1150354E+00
          1   -1    0    0  502    0  0.00000000000E+00  0.00000000000E+00  0.34879906871E+03  0.34879906871E+03  0.00000000000E+00 0. -1.
         -1   -1    0    0    0  501 -0.00000000000E+00 -0.00000000000E+00 -0.11833317030E+03  0.11833317030E+03  0.00000000000E+00 0.  1.
          6    1    1    2  502    0  0.29358094473E+02 -0.96249229579E+02  0.16070900287E+03  0.25600233497E+03  0.17200000000E+03 0.  1.
         -6    1    1    2    0  501 -0.29358094473E+02  0.96249229579E+02  0.69756895541E+02  0.21112990404E+03  0.17200000000E+03 0.  1.
</event>
<event>
 4    1  0.6365520E-002  0.2280833E+03  0.7818608E-02  0.1127996E+00
         -2   -1    0    0    0  501 -0.00000000000E+00  0.00000000000E+00  0.71437102433E+02  0.71437102433E+02  0.00000000000E+00 0.  1.
          2   -1    0    0  502    0  0.00000000000E+00 -0.00000000000E+00 -0.82395942214E+03  0.82395942214E+03  0.00000000000E+00 0. -1.
          6    1    1    2  502    0  0.91259772738E+02 -0.11878397337E+03 -0.22365352716E+03  0.31944151055E+03  0.17200000000E+03 0.  1.
         -6    1    1    2    0  501 -0.91259772738E+02  0.11878397337E+03 -0.52886879255E+03  0.57595501403E+03  0.17200000000E+03 0. -1.
</event>
<event>
 4    1  0.6365520E-002  0.2254438E+03  0.7818608E-02  0.1129888E+00
          2   -1    0    0  502    0  0.00000000000E+00  0.00000000000E+00  0.24361569281E+03  0.24361569281E+03  0.00000000000E+00 0. -1.
         -2   -1    0    0    0  501 -0.00000000000E+00 -0.00000000000E+00 -0.20959067711E+03  0.20959067711E+03  0.00000000000E+00 0.  1.
          6    1    1    2  502    0  0.14573009857E+03  0.19103970548E+01  0.16503157176E+01  0.22544984983E+03  0.17200000000E+03 0.  1.
         -6    1    1    2    0  501 -0.14573009857E+03 -0.19103970548E+01  0.32374699984E+02  0.22775652009E+03  0.17200000000E+03 0.  1.
</event>
<event>
 4    1  0.6365520E-002  0.2996686E+03  0.7818608E-02  0.1085406E+00
          1   -1    0    0  502    0  0.00000000000E+00  0.00000000000E+00  0.15835840581E+04  0.15835840581E+04  0.00000000000E+00 0. -1.
         -1   -1    0    0    0  501 -0.00000000000E+00 -0.00000000000E+00 -0.63835797421E+02  0.63835797421E+02  0.00000000000E+00 0.  1.
          6    1    1    2  502    0 -0.24419537822E+03  0.24204695807E+02  0.48462114315E+03  0.56978847166E+03  0.17200000000E+03 0. -1.
         -6    1    1    2    0  501  0.24419537822E+03 -0.24204695807E+02  0.10351271176E+04  0.10776313839E+04  0.17200000000E+03 0.  1.
</event>
<event>
 4    1  0.6365520E-002  0.2108561E+03  0.7818608E-02  0.1140890E+00
          2   -1    0    0  502    0  0.00000000000E+00  0.00000000000E+00  0.16067543525E+03  0.16067543525E+03  0.00000000000E+00 0. -1.
         -2   -1    0    0    0  501 -0.00000000000E+00 -0.00000000000E+00 -0.41045134936E+03  0.41045134936E+03  0.00000000000E+00 0.  1.
          6    1    1    2  502    0 -0.12025144273E+03  0.20393347678E+02  0.38119163494E+02  0.21427405054E+03  0.17200000000E+03 0. -1.
         -6    1    1    2    0  501  0.12025144273E+03 -0.20393347678E+02 -0.28789507760E+03  0.35685273407E+03  0.17200000000E+03 0.  1.
</event>
<event>
 4    1  0.6365520E-002  0.5568455E+03  0.7818608E-02  0.9999218E-01
         -1   -1    0    0    0  501 -0.00000000000E+00  0.00000000000E+00  0.43857974469E+03  0.43857974469E+03  0.00000000000E+00 0.  1.
          1   -1    0    0  502    0  0.00000000000E+00 -0.00000000000E+00 -0.78995944967E+03  0.78995944967E+03  0.00000000000E+00 0. -1.
          6    1    1    2  502    0  0.20298323615E+03  0.48917355769E+03 -0.37474943180E+03  0.67120347163E+03  0.17200000000E+03 0. -1.
         -6    1    1    2    0  501 -0.20298323615E+03 -0.48917355769E+03  0.23369726818E+02  0.55733572273E+03  0.17200000000E+03 0.  1.
</event>
<event>
 4    1  0.6365520E-002  0.2168778E+03  0.7818608E-02  0.1136232E+00
         -2   -1    0    0    0  501 -0.00000000000E+00  0.00000000000E+00  0.16756175236E+02  0.16756175236E+02  0.00000000000E+00 0.  1.
          2   -1    0    0  502    0  0.00000000000E+00 -0.00000000000E+00 -0.28206477705E+04  0.28206477705E+04  0.00000000000E+00 0. -1.
          6    1    1    2  502    0  0.54118880458E+02 -0.12051197796E+03 -0.13035654727E+04  0.13214836100E+04  0.17200000000E+03 0. -1.
         -6    1    1    2    0  501 -0.54118880458E+02  0.12051197796E+03 -0.15003261226E+04  0.15159203357E+04  0.17200000000E+03 0.  1.
</event>
<event>
 4    1  0.6365520E-002  0.5945923E+03  0.7818608E-02  0.9916689E-01
         -2   -1    0    0    0  501 -0.00000000000E+00  0.00000000000E+00  0.16029079755E+03  0.16029079755E+03  0.00000000000E+00 0.  1.
          2   -1    0    0  502    0  0.00000000000E+00 -0.00000000000E+00 -0.31181727859E+04  0.31181727859E+04  0.00000000000E+00 0. -1.
          6    1    1    2  502    0  0.56089879379E+03  0.96688167508E+02 -0.23657295191E+04  0.24393065031E+04  0.17200000000E+03 0. -1.
         -6    1    1    2    0  501 -0.56089879379E+03 -0.96688167508E+02 -0.59215246922E+03  0.83915708030E+03  0.17200000000E+03 0.  1.
</event>
<event>
 4    1  0.6365520E-002  0.1840235E+03  0.7818608E-02  0.1163965E+00
         -2   -1    0    0    0  501 -0.00000000000E+00  0.00000000000E+00  0.21044738050E+02  0.21044738050E+02  0.00000000000E+00 0.  1.
          2   -1    0    0  502    0  0.00000000000E+00 -0.00000000000E+00 -0.18365918006E+04  0.18365918006E+04  0.00000000000E+00 0. -1.
          6    1    1    2  502    0  0.11151015900E+02  0.64469390172E+02 -0.12346145534E+04  0.12482538776E+04  0.17200000000E+03 0. -1.
         -6    1    1    2    0  501 -0.11151015900E+02 -0.64469390172E+02 -0.58093250909E+03  0.60938266101E+03  0.17200000000E+03 0. -1.
</event>
<event>
 4    1  0.6365520E-002  0.3165935E+03  0.7818608E-02  0.1077228E+00
         -2   -1    0    0    0  501 -0.00000000000E+00  0.00000000000E+00  0.20997785793E+03  0.20997785793E+03  0.00000000000E+00 0.  1.
          2   -1    0    0  502    0  0.00000000000E+00 -0.00000000000E+00 -0.48243149963E+03  0.48243149963E+03  0.00000000000E+00 0. -1.
          6    1    1    2  502    0  0.17800139627E+03 -0.19739042043E+03 -0.10067130132E+03  0.33221406662E+03  0.17200000000E+03 0.  1.
         -6    1    1    2    0  501 -0.17800139627E+03  0.19739042043E+03 -0.17178234037E+03  0.36019529094E+03  0.17200000000E+03 0. -1.
</event>
<event>
 4    1  0.6365520E-002  0.3171138E+03  0.7818608E-02  0.1076985E+00
         -1   -1    0    0    0  501 -0.00000000000E+00  0.00000000000E+00  0.55364645106E+03  0.55364645106E+03  0.00000000000E+00 0.  1.
          1   -1    0    0  502    0  0.00000000000E+00 -0.00000000000E+00 -0.41421217095E+03  0.41421217095E+03  0.00000000000E+00 0. -1.
          6    1    1    2  502    0 -0.16080612412E+03 -0.21241130677E+03 -0.29290533395E+03  0.43168820629E+03  0.17200000000E+03 0. -1.
         -6    1    1    2    0  501  0.16080612412E+03  0.21241130677E+03  0.43233961406E+03  0.53617041571E+03  0.17200000000E+03 0.  1.
</event>
<event>
 4    1  0.6365520E-002  0.2083498E+03  0.7818608E-02  0.1142879E+00
         -2   -1    0    0    0  501 -0.00000000000E+00  0.00000000000E+00  0.94566930645E+03  0.94566930645E+03  0.00000000000E+00 0.  1.
          2   -1    0    0  502    0  0.00000000000E+00 -0.00000000000E+00 -0.15830156082E+03  0.15830156082E+03  0.00000000000E+00 0. -1.
          6    1    1    2  502    0  0.79489668207E+02  0.86643220674E+02 -0.71435227811E+02  0.22025586669E+03  0.17200000000E+03 0. -1.
         -6    1    1    2    0  501 -0.79489668207E+02 -0.86643220674E+02  0.85880297345E+03  0.88371500058E+03  0.17200000000E+03 0.  1.
</event>
<event>
 4    1  0.6365520E-002  0.2102195E+03  0.7818608E-02  0.1141392E+00
         -2   -1    0    0    0  501 -0.00000000000E+00  0.00000000000E+00  0.19164653338E+02  0.19164653338E+02  0.00000000000E+00 0.  1.
          2   -1    0    0  502    0  0.00000000000E+00 -0.00000000000E+00 -0.23910525209E+04  0.23910525209E+04  0.00000000000E+00 0. -1.
          6    1    1    2  502    0  0.90745832528E+02 -0.79833662692E+02 -0.95855408882E+03  0.98133488729E+03  0.17200000000E+03 0. -1.
         -6    1    1    2    0  501 -0.90745832528E+02  0.79833662692E+02 -0.14133337788E+04  0.14288822870E+04  0.17200000000E+03 0. -1.
</event>
<event>
 4    1  0.6365520E-002  0.3994393E+03  0.7818608E-02  0.1043974E+00
         -2   -1    0    0    0  501 -0.00000000000E+00  0.00000000000E+00  0.75231916321E+03  0.75231916321E+03  0.00000000000E+00 0.  1.
          2   -1    0    0  502    0  0.00000000000E+00 -0.00000000000E+00 -0.76772085184E+03  0.76772085184E+03  0.00000000000E+00 0. -1.
          6    1    1    2  502    0  0.22610367338E+03 -0.28079332803E+03 -0.65427819115E+03  0.76657140280E+03  0.17200000000E+03 0. -1.
         -6    1    1    2    0  501 -0.22610367338E+03  0.28079332803E+03  0.63887650252E+03  0.75346861225E+03  0.17200000000E+03 0.  1.
</event>
<event>
 4    1  0.6365520E-002  0.2990109E+03  0.7818608E-02  0.1085736E+00
         -2   -1    0    0    0  501 -0.00000000000E+00  0.00000000000E+00  0.15835927753E+03  0.15835927753E+03  0.00000000000E+00 0.  1.
          2   -1    0    0  502    0  0.00000000000E+00 -0.00000000000E+00 -0.73174111166E+03  0.73174111166E+03  0.00000000000E+00 0. -1.
          6    1    1    2  502    0  0.92506044415E+02 -0.22642023383E+03 -0.49940175109E+03  0.58207353447E+03  0.17200000000E+03 0. -1.
         -6    1    1    2    0  501 -0.92506044415E+02  0.22642023383E+03 -0.73980083034E+02  0.30802685472E+03  0.17200000000E+03 0.  1.
</event>
<event>
 4    1  0.6365520E-002  0.1827390E+03  0.7818608E-02  0.1165178E+00
          2   -1    0    0  502    0  0.00000000000E+00  0.00000000000E+00  0.28175279390E+03  0.28175279390E+03  0.00000000000E+00 0. -1.
         -2   -1    0    0    0  501 -0.00000000000E+00 -0.00000000000E+00 -0.13331802718E+03  0.13331802718E+03  0.00000000000E+00 0.  1.
          6    1    1    2  502    0  0.56721437833E+02 -0.24335401793E+02  0.14335902256E+03  0.23226136708E+03  0.17200000000E+03 0. -1.
         -6    1    1    2    0  501 -0.56721437833E+02  0.24335401793E+02  0.50757441602E+01  0.18280945399E+03  0.17200000000E+03 0.  1.
</event>
<event>
 4    1  0.6365520E-002  0.2626713E+03  0.7818608E-02  0.1105549E+00
         -2   -1    0    0    0  501 -0.00000000000E+00  0.00000000000E+00  0.77123558577E+02  0.77123558577E+02  0.00000000000E+00 0.  1.
          2   -1    0    0  502    0  0.00000000000E+00 -0.00000000000E+00 -0.95904569518E+03  0.95904569518E+03  0.00000000000E+00 0. -1.
          6    1    1    2  502    0  0.13136177889E+03 -0.14884991789E+03 -0.57524169639E+03  0.63237585681E+03  0.17200000000E+03 0. -1.
         -6    1    1    2    0  501 -0.13136177889E+03  0.14884991789E+03 -0.30668044021E+03  0.40379339695E+03  0.17200000000E+03 0.  1.
</event>
<event>
 4    1  0.6365520E-002  0.2072511E+03  0.7818608E-02  0.1143762E+00
          2   -1    0    0  502    0  0.00000000000E+00  0.00000000000E+00  0.29652660322E+04  0.29652660322E+04  0.00000000000E+00 0. -1.
         -2   -1    0    0    0  501 -0.00000000000E+00 -0.00000000000E+00 -0.21002997935E+02  0.21002997935E+02  0.00000000000E+00 0.  1.
          6    1    1    2  502    0  0.91972976609E+02 -0.70071296156E+02  0.23039003255E+04  0.23132033470E+04  0.17200000000E+03 0. -1.
         -6    1    1    2    0  501 -0.91972976609E+02  0.70071296156E+02  0.64036270884E+03  0.67306568316E+03  0.17200000000E+03 0.  1.
</event>
<event>
 4    1  0.6365520E-002  0.3844097E+03  0.7818608E-02  0.1049316E+00
          2   -1    0    0  502    0  0.00000000000E+00  0.00000000000E+00  0.11336189903E+04  0.11336189903E+04  0.00000000000E+00 0. -1.
         -2   -1    0    0    0  501 -0.00000000000E+00 -0.00000000000E+00 -0.32489246424E+03  0.32489246424E+03  0.00000000000E+00 0.  1.
          6    1    1    2  502    0 -0.32060904267E+02  0.34228484722E+03 -0.15994148974E+03  0.41635573535E+03  0.17200000000E+03 0. -1.
         -6    1    1    2    0  501  0.32060904267E+02 -0.34228484722E+03  0.96866801581E+03  0.10421557192E+04  0.17200000000E+03 0. -1.
</event>
<event>
 4    1  0.6365520E-002  0.4214588E+03  0.7818608E-02  0.1036593E+00
         -3   -1    0    0    0  501 -0.00000000000E+00  0.00000000000E+00  0.32104488411E+03  0.32104488411E+03  0.00000000000E+00 0.  1.
          3   -1    0    0  502    0  0.00000000000E+00 -0.00000000000E+00 -0.68794184696E+03  0.68794184696E+03  0.00000000000E+00 0. -1.
          6    1    1    2  502    0 -0.22182755135E+03  0.31438209002E+03 -0.40665282627E+03  0.58565696630E+03  0.17200000000E+03 0. -1.
         -6    1    1    2    0  501  0.22182755135E+03 -0.31438209002E+03  0.39755863423E+02  0.42332976477E+03  0.17200000000E+03 0.  1.
</event>
<event>
 4    1  0.6365520E-002  0.2809890E+03  0.7818608E-02  0.1095150E+00
         -2   -1    0    0    0  501 -0.00000000000E+00  0.00000000000E+00  0.36602084366E+03  0.36602084366E+03  0.00000000000E+00 0.  1.
          2   -1    0    0  502    0  0.00000000000E+00 -0.00000000000E+00 -0.83405036377E+03  0.83405036377E+03  0.00000000000E+00 0. -1.
          6    1    1    2  502    0 -0.63279121844E+02  0.21299432761E+03 -0.75066213313E+03  0.80152883228E+03  0.17200000000E+03 0. -1.
         -6    1    1    2    0  501  0.63279121844E+02 -0.21299432761E+03  0.28263261302E+03  0.39854237516E+03  0.17200000000E+03 0.  1.
</event>
<event>
 4    1  0.6365520E-002  0.1768634E+03  0.7818608E-02  0.1170874E+00
          2   -1    0    0  502    0  0.00000000000E+00  0.00000000000E+00  0.86185385838E+03  0.86185385838E+03  0.00000000000E+00 0. -1.
         -2   -1    0    0    0  501 -0.00000000000E+00 -0.00000000000E+00 -0.51456567798E+02  0.51456567798E+02  0.00000000000E+00 0.  1.
          6    1    1    2  502    0 -0.41171363776E+02 -0.12566002240E+01  0.65308092318E+03  0.67660575852E+03  0.17200000000E+03 0. -1.
         -6    1    1    2    0  501  0.41171363776E+02  0.12566002240E+01  0.15731636740E+03  0.23670466766E+03  0.17200000000E+03 0.  1.
</event>
<event>
 4    1  0.6365520E-002  0.2899617E+03  0.7818608E-02  0.1090369E+00
         -2   -1    0    0    0  501 -0.00000000000E+00  0.00000000000E+00  0.51986547792E+02  0.51986547792E+02  0.00000000000E+00 0.  1.
          2   -1    0    0  502    0  0.00000000000E+00 -0.00000000000E+00 -0.17885170009E+04  0.17885170009E+04  0.00000000000E+00 0. -1.
          6    1    1    2  502    0  0.22265449145E+03  0.70133986390E+02 -0.11529961726E+04  0.11888977974E+04  0.17200000000E+03 0. -1.
         -6    1    1    2    0  501 -0.22265449145E+03 -0.70133986390E+02 -0.58353428056E+03  0.65160575135E+03  0.17200000000E+03 0.  1.
</event>
<event>
 4    1  0.6365520E-002  0.3895292E+03  0.7818608E-02  0.1047467E+00
          1   -1    0    0  502    0  0.00000000000E+00  0.00000000000E+00  0.55643914634E+03  0.55643914634E+03  0.00000000000E+00 0. -1.
         -1   -1    0    0    0  501 -0.00000000000E+00 -0.00000000000E+00 -0.29063134195E+03  0.29063134195E+03  0.00000000000E+00 0.  1.
          6    1    1    2  502    0 -0.23861684965E+03  0.25536436680E+03  0.27659587704E+02  0.39050994041E+03  0.17200000000E+03 0. -1.
         -6    1    1    2    0  501  0.23861684965E+03 -0.25536436680E+03  0.23814821669E+03  0.45656054788E+03  0.17200000000E+03 0.  1.
</event>
<event>
 4    1  0.6365520E-002  0.2262778E+03  0.7818608E-02  0.1129287E+00
         -2   -1    0    0    0  501 -0.00000000000E+00  0.00000000000E+00  0.24817925446E+02  0.24817925446E+02  0.00000000000E+00 0.  1.
          2   -1    0    0  502    0  0.00000000000E+00 -0.00000000000E+00 -0.21077298876E+04  0.21077298876E+04  0.00000000000E+00 0. -1.
          6    1    1    2  502    0 -0.46403856034E+02 -0.13951467877E+03 -0.88628406567E+03  0.91471367570E+03  0.17200000000E+03 0.  1.
         -6    1    1    2    0  501  0.46403856034E+02  0.13951467877E+03 -0.11966278965E+04  0.12178341373E+04  0.17200000000E+03 0. -1.
</event>
<event>
 4    1  0.6365520E-002  0.2716229E+03  0.7818608E-02  0.1100354E+00
          1   -1    0    0  502    0  0.00000000000E+00  0.00000000000E+00  0.10566066016E+04  0.10566066016E+04  0.00000000000E+00 0. -1.
         -1   -1    0    0    0  501 -0.00000000000E+00 -0.00000000000E+00 -0.69906313604E+02  0.69906313604E+02  0.00000000000E+00 0.  1.
          6    1    1    2  502    0 -0.19614893172E+03 -0.75634578466E+02  0.51239892392E+03  0.57994107469E+03  0.17200000000E+03 0. -1.
         -6    1    1    2    0  501  0.19614893172E+03  0.75634578466E+02  0.47430136404E+03  0.54657184048E+03  0.17200000000E+03 0.  1.
</event>
<event>
 4    1  0.6365520E-002  0.1769885E+03  0.7818608E-02  0.1170750E+00
          2   -1    0    0  502    0  0.00000000000E+00  0.00000000000E+00  0.56227156530E+03  0.56227156530E+03  0.00000000000E+00 0. -1.
         -2   -1    0    0    0  501 -0.00000000000E+00 -0.00000000000E+00 -0.55959361565E+02  0.55959361565E+02  0.00000000000E+00 0.  1.
          6    1    1    2  502    0 -0.12935198490E+01 -0.41704345923E+02  0.27373360941E+03  0.32596781219E+03  0.17200000000E+03 0.  1.
         -6    1    1    2    0  501  0.12935198490E+01  0.41704345923E+02  0.23257859433E+03  0.29226311468E+03  0.17200000000E+03 0.  1.
</event>
<event>
 4    1  0.6365520E-002  0.1946714E+03  0.7818608E-02  0.1154314E+00
          2   -1    0    0  502    0  0.00000000000E+00  0.00000000000E+00  0.25681633930E+03  0.25681633930E+03  0.00000000000E+00 0. -1.
         -2   -1    0    0    0  501 -0.00000000000E+00 -0.00000000000E+00 -0.16822753131E+03  0.16822753131E+03  0.00000000000E+00 0.  1.
          6    1    1    2  502    0  0.89944071178E+02 -0.14934086143E+02  0.11877664365E+03  0.22804572775E+03  0.17200000000E+03 0. -1.
         -6    1    1    2    0  501 -0.89944071178E+02  0.14934086143E+02 -0.30187835667E+02  0.19699814286E+03  0.17200000000E+03 0.  1.
</event>
<event>
 4    1  0.6365520E-002  0.1787648E+03  0.7818608E-02  0.1169004E+00
         -2   -1    0    0    0  501 -0.00000000000E+00  0.00000000000E+00  0.40866876124E+03  0.40866876124E+03  0.00000000000E+00 0.  1.
          2   -1    0    0  502    0  0.00000000000E+00 -0.00000000000E+00 -0.10540047431E+03  0.10540047431E+03  0.00000000000E+00 0. -1.
          6    1    1    2  502    0 -0.17805706365E+02  0.45341032801E+02  0.21053446775E+02  0.18000027793E+03  0.17200000000E+03 0. -1.
         -6    1    1    2    0  501  0.17805706365E+02 -0.45341032801E+02  0.28221484016E+03  0.33406895762E+03  0.17200000000E+03 0.  1.
</event>
<event>
 4    1  0.6365520E-002  0.1993476E+03  0.7818608E-02  0.1150291E+00
          2   -1    0    0  502    0  0.00000000000E+00  0.00000000000E+00  0.70094040238E+02  0.70094040238E+02  0.00000000000E+00 0. -1.
         -2   -1    0    0    0  501 -0.00000000000E+00 -0.00000000000E+00 -0.66117360894E+03  0.66117360894E+03  0.00000000000E+00 0.  1.
          6    1    1    2  502    0  0.55121008600E+02  0.84363260632E+02 -0.43357164833E+03  0.47720421160E+03  0.17200000000E+03 0.  1.
         -6    1    1    2    0  501 -0.55121008600E+02 -0.84363260632E+02 -0.15750792037E+03  0.25406343758E+03  0.17200000000E+03 0.  1.
</event>
<event>
 4    1  0.6365520E-002  0.1844800E+03  0.7818608E-02  0.1163536E+00
          1   -1    0    0  502    0  0.00000000000E+00  0.00000000000E+00  0.13028003503E+03  0.13028003503E+03  0.00000000000E+00 0. -1.
         -1   -1    0    0    0  501 -0.00000000000E+00 -0.00000000000E+00 -0.28226134340E+03  0.28226134340E+03  0.00000000000E+00 0.  1.
          6    1    1    2  502    0  0.65798876458E+02  0.10925422736E+02 -0.19683847099E+02  0.18552711619E+03  0.17200000000E+03 0. -1.
         -6    1    1    2    0  501 -0.65798876458E+02 -0.10925422736E+02 -0.13229746127E+03  0.22701426225E+03  0.17200000000E+03 0.  1.
</event>
<event>
 4    1  0.6365520E-002  0.1812682E+03  0.7818608E-02  0.1166581E+00
         -2   -1    0    0    0  501 -0.00000000000E+00  0.00000000000E+00  0.22187251111E+02  0.22187251111E+02  0.00000000000E+00 0.  1.
          2   -1    0    0  502    0  0.00000000000E+00 -0.00000000000E+00 -0.24484307331E+04  0.24484307331E+04  0.00000000000E+00 0. -1.
          6    1    1    2  502    0  0.40916468922E+02  0.40000182768E+02 -0.43660069059E+03  0.47273495224E+03  0.17200000000E+03 0.  1.
         -6    1    1    2    0  501 -0.40916468922E+02 -0.40000182768E+02 -0.19896427914E+04  0.19978830320E+04  0.17200000000E+03 0. -1.
</event>
<event>
 4    1  0.6365520E-002  0.2006358E+03  0.7818608E-02  0.1149204E+00
         -2   -1    0    0    0  501 -0.00000000000E+00  0.00000000000E+00  0.15474832313E+04  0.15474832313E+04  0.00000000000E+00 0.  1.
          2   -1    0    0  502    0  0.00000000000E+00 -0.00000000000E+00 -0.72367267923E+02  0.72367267923E+02  0.00000000000E+00 0. -1.
          6    1    1    2  502    0  0.22687097401E+02 -0.10077714291E+03  0.89343775416E+02  0.21962934032E+03  0.17200000000E+03 0. -1.
         -6    1    1    2    0  501 -0.22687097401E+02  0.10077714291E+03  0.13857721879E+04  0.14002211589E+04  0.17200000000E+03 0.  1.
</event>
<event>
 4    1  0.6365520E-002  0.2384570E+03  0.7818608E-02  0.1120825E+00
          2   -1    0    0  502    0  0.00000000000E+00  0.00000000000E+00  0.37728247421E+02  0.37728247421E+02  0.00000000000E+00 0. -1.
         -2   -1    0    0    0  501 -0.00000000000E+00 -0.00000000000E+00 -0.17322803604E+04  0.17322803604E+04  0.00000000000E+00 0.  1.
          6    1    1    2  502    0  0.14095981947E+03  0.86070076578E+02 -0.11663295715E+04  0.11904563823E+04  0.17200000000E+03 0. -1.
         -6    1    1    2    0  501 -0.14095981947E+03 -0.86070076578E+02 -0.52822254145E+03  0.57955222550E+03  0.17200000000E+03 0. -1.
</event>
<event>
 4    1  0.6365520E-002  0.2030859E+03  0.7818608E-02  0.1147161E+00
         -1   -1    0    0    0  501 -0.00000000000E+00  0.00000000000E+00  0.19316680536E+02  0.19316680536E+02  0.00000000000E+00 0.  1.
          1   -1    0    0  502    0  0.00000000000E+00 -0.00000000000E+00 -0.23390798708E+04  0.23390798708E+04  0.00000000000E+00 0. -1.
          6    1    1    2  502    0  0.64592565631E+02 -0.86531406579E+02 -0.15080679196E+04  0.15216808910E+04  0.17200000000E+03 0. -1.
         -6    1    1    2    0  501 -0.64592565631E+02  0.86531406579E+02 -0.81169527066E+03  0.83671566035E+03  0.17200000000E+03 0.  1.
</event>
<event>
 4    1  0.6365520E-002  0.2255333E+03  0.7818608E-02  0.1129824E+00
          1   -1    0    0  502    0  0.00000000000E+00  0.00000000000E+00  0.19706119769E+03  0.19706119769E+03  0.00000000000E+00 0. -1.
         -1   -1    0    0    0  501 -0.00000000000E+00 -0.00000000000E+00 -0.27825013184E+03  0.27825013184E+03  0.00000000000E+00 0.  1.
          6    1    1    2  502    0  0.14547186817E+03  0.10918253430E+02  0.23329357258E+02  0.22673670104E+03  0.17200000000E+03 0. -1.
         -6    1    1    2    0  501 -0.14547186817E+03 -0.10918253430E+02 -0.10451829141E+03  0.24857462849E+03  0.17200000000E+03 0.  1.
</event>
<event>
 4    1  0.6365520E-002  0.1955278E+03  0.7818608E-02  0.1153568E+00
          2   -1    0    0  502    0  0.00000000000E+00  0.00000000000E+00  0.19882163094E+04  0.19882163094E+04  0.00000000000E+00 0. -1.
         -2   -1    0    0    0  501 -0.00000000000E+00 -0.00000000000E+00 -0.33954661321E+02  0.33954661321E+02  0.00000000000E+00 0.  1.
          6    1    1    2  502    0 -0.83633615284E+02 -0.40651635816E+02  0.16429826773E+04  0.16545764458E+04  0.17200000000E+03 0. -1.
         -6    1    1    2    0  501  0.83633615284E+02  0.40651635816E+02  0.31127897078E+03  0.36759452492E+03  0.17200000000E+03 0.  1.
</event>
<event>
 4    1  0.6365520E-002  0.2172139E+03  0.7818608E-02  0.1135977E+00
         -2   -1    0    0    0  501 -0.00000000000E+00  0.00000000000E+00  0.11482271758E+03  0.11482271758E+03  0.00000000000E+00 0.  1.
          2   -1    0    0  502    0  0.00000000000E+00 -0.00000000000E+00 -0.10550507270E+04  0.10550507270E+04  0.00000000000E+00 0. -1.
          6    1    1    2  502    0 -0.12279028737E+03  0.50203821328E+02 -0.92716259596E+03  0.95226695716E+03  0.17200000000E+03 0. -1.
         -6    1    1    2    0  501  0.12279028737E+03 -0.50203821328E+02 -0.13065413475E+02  0.21760648745E+03  0.17200000000E+03 0.  1.
</event>
<event>
 4    1  0.6365520E-002  0.1910295E+03  0.7818608E-02  0.1157536E+00
          2   -1    0    0  502    0  0.00000000000E+00  0.00000000000E+00  0.34815313448E+04  0.34815313448E+04  0.00000000000E+00 0. -1.
         -2   -1    0    0    0  501 -0.00000000000E+00 -0.00000000000E+00 -0.11589688264E+02  0.11589688264E+02  0.00000000000E+00 0.  1.
          6    1    1    2  502    0 -0.53889155672E+02 -0.63279124389E+02  0.22750031515E+04  0.22830093359E+04  0.17200000000E+03 0.  1.
         -6    1    1    2    0  501  0.53889155672E+02  0.63279124389E+02  0.11949385050E+04  0.12101116971E+04  0.17200000000E+03 0.  1.
</event>
<event>
 4    1  0.6365520E-002  0.5445152E+03  0.7818608E-02  0.1002771E+00
          1   -1    0    0  502    0  0.00000000000E+00  0.00000000000E+00  0.11144953945E+04  0.11144953945E+04  0.00000000000E+00 0. -1.
         -1   -1    0    0    0  501 -0.00000000000E+00 -0.00000000000E+00 -0.28561962911E+03  0.28561962911E+03  0.00000000000E+00 0.  1.
          6    1    1    2  502    0  0.48672841145E+03  0.17322895245E+03  0.59774407325E+03  0.80857578098E+03  0.17200000000E+03 0. -1.
         -6    1    1    2    0  501 -0.48672841145E+03 -0.17322895245E+03  0.23113169218E+03  0.59153924266E+03  0.17200000000E+03 0.  1.
</event>
<event>
 4    1  0.6365520E-002  0.3108411E+03  0.7818608E-02  0.1079943E+00
         -4   -1    0    0    0  501 -0.00000000000E+00  0.00000000000E+00  0.10958337332E+04  0.10958337332E+04  0.00000000000E+00 0.  1.
          4   -1    0    0  502    0  0.00000000000E+00 -0.00000000000E+00 -0.15226095955E+03  0.15226095955E+03  0.00000000000E+00 0. -1.
          6    1    1    2  502    0 -0.24623104726E+03 -0.80052862978E+02  0.66918038130E+02  0.31796259738E+03  0.17200000000E+03 0. -1.
         -6    1    1    2    0  501  0.24623104726E+03  0.80052862978E+02  0.87665473552E+03  0.93013209536E+03  0.17200000000E+03 0.  1.
</event>
<event>
 4    1  0.6365520E-002  0.1794037E+03  0.7818608E-02  0.1168381E+00
          2   -1    0    0  502    0  0.00000000000E+00  0.00000000000E+00  0.16758369151E+04  0.16758369151E+04  0.00000000000E+00 0. -1.
         -2   -1    0    0    0  501 -0.00000000000E+00 -0.00000000000E+00 -0.76797258393E+02  0.76797258393E+02  0.00000000000E+00 0.  1.
          6    1    1    2  502    0  0.42228960496E+02  0.28607564730E+02  0.15583903955E+04  0.15686829835E+04  0.17200000000E+03 0. -1.
         -6    1    1    2    0  501 -0.42228960496E+02 -0.28607564730E+02  0.40649261181E+02  0.18395118999E+03  0.17200000000E+03 0.  1.
</event>
<event>
 4    1  0.6365520E-002  0.2073792E+03  0.7818608E-02  0.1143658E+00
          2   -1    0    0  502    0  0.00000000000E+00  0.00000000000E+00  0.10597759827E+04  0.10597759827E+04  0.00000000000E+00 0. -1.
         -2   -1    0    0    0  501 -0.00000000000E+00 -0.00000000000E+00 -0.41481344062E+02  0.41481344062E+02  0.00000000000E+00 0.  1.
          6    1    1    2  502    0 -0.86054412204E+02 -0.77567925308E+02  0.59029547974E+03  0.62566356639E+03  0.17200000000E+03 0.  1.
         -6    1    1    2    0  501  0.86054412204E+02  0.77567925308E+02  0.42799915891E+03  0.47559376040E+03  0.17200000000E+03 0.  1.
</event>
<event>
 4    1  0.6365520E-002  0.2294449E+03  0.7818608E-02  0.1127031E+00
         -2   -1    0    0    0  501 -0.00000000000E+00  0.00000000000E+00  0.15917338071E+02  0.15917338071E+02  0.00000000000E+00 0.  1.
          2   -1    0    0  502    0  0.00000000000E+00 -0.00000000000E+00 -0.47863650914E+04  0.47863650914E+04  0.00000000000E+00 0. -1.
          6    1    1    2  502    0 -0.14752013708E+03 -0.36038395121E+02 -0.37199562304E+04  0.37270255316E+04  0.17200000000E+03 0. -1.
         -6    1    1    2    0  501  0.14752013708E+03  0.36038395121E+02 -0.10504915229E+04  0.10752568979E+04  0.17200000000E+03 0.  1.
</event>
<event>
 4    1  0.6365520E-002  0.3536462E+03  0.7818608E-02  0.1061128E+00
          2   -1    0    0  502    0  0.00000000000E+00  0.00000000000E+00  0.34797946378E+03  0.34797946378E+03  0.00000000000E+00 0. -1.
         -2   -1    0    0    0  501 -0.00000000000E+00 -0.00000000000E+00 -0.36613876515E+03  0.36613876515E+03  0.00000000000E+00 0.  1.
          6    1    1    2  502    0 -0.30646115938E+03 -0.39537315599E+02  0.39341891608E+02  0.35582780381E+03  0.17200000000E+03 0. -1.
         -6    1    1    2    0  501  0.30646115938E+03  0.39537315599E+02 -0.57501192977E+02  0.35829042511E+03  0.17200000000E+03 0.  1.
</event>
<event>
 4    1  0.6365520E-002  0.1720849E+03  0.7818608E-02  0.1175691E+00
          2   -1    0    0  502    0  0.00000000000E+00  0.00000000000E+00  0.41689956937E+03  0.41689956937E+03  0.00000000000E+00 0. -1.
         -2   -1    0    0    0  501 -0.00000000000E+00 -0.00000000000E+00 -0.74951038295E+02  0.74951038295E+02  0.00000000000E+00 0.  1.
          6    1    1    2  502    0 -0.17029167538E+01  0.51292698002E+01  0.22720894968E+03  0.28502125561E+03  0.17200000000E+03 0. -1.
         -6    1    1    2    0  501  0.17029167538E+01 -0.51292698002E+01  0.11473958140E+03  0.20682935206E+03  0.17200000000E+03 0.  1.
</event>
<event>
 4    1  0.6365520E-002  0.2135627E+03  0.7818608E-02  0.1138775E+00
         -3   -1    0    0    0  501 -0.00000000000E+00  0.00000000000E+00  0.10000091020E+03  0.10000091020E+03  0.00000000000E+00 0.  1.
          3   -1    0    0  502    0  0.00000000000E+00 -0.00000000000E+00 -0.45673069636E+03  0.45673069636E+03  0.00000000000E+00 0. -1.
          6    1    1    2  502    0 -0.77834034822E+02 -0.99834311801E+02 -0.16790748370E+03  0.27166514291E+03  0.17200000000E+03 0. -1.
         -6    1    1    2    0  501  0.77834034822E+02  0.99834311801E+02 -0.18882230246E+03  0.28506646365E+03  0.17200000000E+03 0. -1.
</event>
<event>
 4    1  0.6365520E-002  0.1769159E+03  0.7818608E-02  0.1170822E+00
         -2   -1    0    0    0  501 -0.00000000000E+00  0.00000000000E+00  0.15285780280E+03  0.15285780280E+03  0.00000000000E+00 0.  1.
          2   -1    0    0  502    0  0.00000000000E+00 -0.00000000000E+00 -0.58680341958E+03  0.58680341958E+03  0.00000000000E+00 0. -1.
          6    1    1    2  502    0 -0.23819326327E+02  0.33880442044E+02 -0.51538227612E+03  0.54490195008E+03  0.17200000000E+03 0. -1.
         -6    1    1    2    0  501  0.23819326327E+02 -0.33880442044E+02  0.81436659342E+02  0.19475927229E+03  0.17200000000E+03 0.  1.
</event>
<event>
 4    1  0.6365520E-002  0.2628332E+03  0.7818608E-02  0.1105453E+00
         -2   -1    0    0    0  501 -0.00000000000E+00  0.00000000000E+00  0.22848661951E+02  0.22848661951E+02  0.00000000000E+00 0.  1.
          2   -1    0    0  502    0  0.00000000000E+00 -0.00000000000E+00 -0.30242330996E+04  0.30242330996E+04  0.00000000000E+00 0. -1.
          6    1    1    2  502    0  0.19218509892E+03  0.50617846639E+02 -0.14758301034E+04  0.14990516245E+04  0.17200000000E+03 0. -1.
         -6    1    1    2    0  501 -0.19218509892E+03 -0.50617846639E+02 -0.15255543342E+04  0.15480301370E+04  0.17200000000E+03 0.  1.
</event>
<event>
 4    1  0.6365520E-002  0.2551913E+03  0.7818608E-02  0.1110067E+00
         -4   -1    0    0    0  501 -0.00000000000E+00  0.00000000000E+00  0.10292023286E+04  0.10292023286E+04  0.00000000000E+00 0.  1.
          4   -1    0    0  502    0  0.00000000000E+00 -0.00000000000E+00 -0.65446874466E+02  0.65446874466E+02  0.00000000000E+00 0. -1.
          6    1    1    2  502    0 -0.72413830304E+02  0.17405405825E+03  0.38216806672E+03  0.45953782133E+03  0.17200000000E+03 0. -1.
         -6    1    1    2    0  501  0.72413830304E+02 -0.17405405825E+03  0.58158738743E+03  0.63511138175E+03  0.17200000000E+03 0. -1.
</event>
<event>
 4    1  0.6365520E-002  0.2296966E+03  0.7818608E-02  0.1126853E+00
         -2   -1    0    0    0  501 -0.00000000000E+00  0.00000000000E+00  0.31670222206E+03  0.31670222206E+03  0.00000000000E+00 0.  1.
          2   -1    0    0  502    0  0.00000000000E+00 -0.00000000000E+00 -0.18456549352E+03  0.18456549352E+03  0.00000000000E+00 0. -1.
          6    1    1    2  502    0 -0.15011679162E+03 -0.25327625509E+02 -0.12141638627E+02  0.23001730180E+03  0.17200000000E+03 0. -1.
         -6    1    1    2    0  501  0.15011679162E+03  0.25327625509E+02  0.14427836717E+03  0.27125041377E+03  0.17200000000E+03 0. -1.
</event>
<event>
 4    1  0.6365520E-002  0.3665662E+03  0.7818608E-02  0.1056014E+00
         -2   -1    0    0    0  501 -0.00000000000E+00  0.00000000000E+00  0.10431886480E+03  0.10431886480E+03  0.00000000000E+00 0.  1.
          2   -1    0    0  502    0  0.00000000000E+00 -0.00000000000E+00 -0.12884650996E+04  0.12884650996E+04  0.00000000000E+00 0. -1.
          6    1    1    2  502    0  0.80159855155E+02  0.31362584856E+03 -0.60415260026E+03  0.70666196987E+03  0.17200000000E+03 0.  1.
         -6    1    1    2    0  501 -0.80159855155E+02 -0.31362584856E+03 -0.57999363455E+03  0.68612199453E+03  0.17200000000E+03 0. -1.
</event>
<event>
 4    1  0.6365520E-002  0.3898889E+03  0.7818608E-02  0.1047338E+00
          2   -1    0    0  502    0  0.00000000000E+00  0.00000000000E+00  0.89382275380E+03  0.89382275380E+03  0.00000000000E+00 0. -1.
         -2   -1    0    0    0  501 -0.00000000000E+00 -0.00000000000E+00 -0.18486973859E+03  0.18486973859E+03  0.00000000000E+00 0.  1.
          6    1    1    2  502    0 -0.17125742712E+03 -0.30512330775E+03  0.50707383828E+03  0.63963834840E+03  0.17200000000E+03 0. -1.
         -6    1    1    2    0  501  0.17125742712E+03  0.30512330775E+03  0.20187917693E+03  0.43905414399E+03  0.17200000000E+03 0.  1.
</event>
<event>
 4    1  0.6365520E-002  0.3564546E+03  0.7818608E-02  0.1059997E+00
         -2   -1    0    0    0  501 -0.00000000000E+00  0.00000000000E+00  0.27423043573E+03  0.27423043573E+03  0.00000000000E+00 0.  1.
          2   -1    0    0  502    0  0.00000000000E+00 -0.00000000000E+00 -0.72980652481E+03  0.72980652481E+03  0.00000000000E+00 0. -1.
          6    1    1    2  502    0 -0.51127636210E+02 -0.30799645246E+03 -0.53113758697E+03  0.63966161852E+03  0.17200000000E+03 0. -1.
         -6    1    1    2    0  501  0.51127636210E+02  0.30799645246E+03  0.75561497900E+02  0.36437534202E+03  0.17200000000E+03 0.  1.
</event>
<event>
 4    1  0.6365520E-002  0.3023928E+03  0.7818608E-02  0.1084051E+00
          2   -1    0    0  502    0  0.00000000000E+00  0.00000000000E+00  0.73440322638E+03  0.73440322638E+03  0.00000000000E+00 0. -1.
         -2   -1    0    0    0  501 -0.00000000000E+00 -0.00000000000E+00 -0.15010793484E+03  0.15010793484E+03  0.00000000000E+00 0.  1.
          6    1    1    2  502    0  0.24022780759E+03 -0.64404820372E+02  0.47477436590E+03  0.56289615289E+03  0.17200000000E+03 0. -1.
         -6    1    1    2    0  501 -0.24022780759E+03  0.64404820372E+02  0.10952092564E+03  0.32161500833E+03  0.17200000000E+03 0.  1.
</event>
<event>
 4    1  0.6365520E-002  0.2684065E+03  0.7818608E-02  0.1102195E+00
         -1   -1    0    0    0  501 -0.00000000000E+00  0.00000000000E+00  0.61012246780E+03  0.61012246780E+03  0.00000000000E+00 0.  1.
          1   -1    0    0  502    0  0.00000000000E+00 -0.00000000000E+00 -0.15684270071E+03  0.15684270071E+03  0.00000000000E+00 0. -1.
          6    1    1    2  502    0  0.19835828140E+03 -0.55785838206E+02  0.35992231472E+02  0.27080898854E+03  0.17200000000E+03 0. -1.
         -6    1    1    2    0  501 -0.19835828140E+03  0.55785838206E+02  0.41728753561E+03  0.49615617997E+03  0.17200000000E+03 0.  1.
</event>
<event>
 4    1  0.6365520E-002  0.3073789E+03  0.7818608E-02  0.1081609E+00
          1   -1    0    0  502    0  0.00000000000E+00  0.00000000000E+00  0.11083545993E+04  0.11083545993E+04  0.00000000000E+00 0. -1.
         -1   -1    0    0    0  501 -0.00000000000E+00 -0.00000000000E+00 -0.31818852661E+03  0.31818852661E+03  0.00000000000E+00 0.  1.
          6    1    1    2  502    0  0.23673364916E+03  0.94100796477E+02  0.10053753454E+04  0.10513141137E+04  0.17200000000E+03 0. -1.
         -6    1    1    2    0  501 -0.23673364916E+03 -0.94100796477E+02 -0.21520927271E+03  0.37522901221E+03  0.17200000000E+03 0.  1.
</event>
<event>
 4    1  0.6365520E-002  0.2024837E+03  0.7818608E-02  0.1147660E+00
         -1   -1    0    0    0  501 -0.00000000000E+00  0.00000000000E+00  0.11913004944E+03  0.11913004944E+03  0.00000000000E+00 0.  1.
          1   -1    0    0  502    0  0.00000000000E+00 -0.00000000000E+00 -0.54851925402E+03  0.54851925402E+03  0.00000000000E+00 0. -1.
          6    1    1    2  502    0 -0.88120334803E+02 -0.60418883424E+02 -0.41845560722E+03  0.46487065953E+03  0.17200000000E+03 0. -1.
         -6    1    1    2    0  501  0.88120334803E+02  0.60418883424E+02 -0.10933597362E+02  0.20277864392E+03  0.17200000000E+03 0.  1.
</event>
<event>
 4    1  0.6365520E-002  0.2467453E+03  0.7818608E-02  0.1115379E+00
          2   -1    0    0  502    0  0.00000000000E+00  0.00000000000E+00  0.98496256185E+03  0.98496256185E+03  0.00000000000E+00 0. -1.
         -2   -1    0    0    0  501 -0.00000000000E+00 -0.00000000000E+00 -0.67735145071E+02  0.67735145071E+02  0.00000000000E+00 0.  1.
          6    1    1    2  502    0 -0.97981576599E+02  0.14730536135E+03  0.61425140903E+03  0.66195774210E+03  0.17200000000E+03 0.  1.
         -6    1    1    2    0  501  0.97981576599E+02 -0.14730536135E+03  0.30297600775E+03  0.39073996482E+03  0.17200000000E+03 0.  1.
</event>
<event>
 4    1  0.6365520E-002  0.1763608E+03  0.7818608E-02  0.1171372E+00
         -1   -1    0    0    0  501 -0.00000000000E+00  0.00000000000E+00  0.65713368959E+02  0.65713368959E+02  0.00000000000E+00 0.  1.
          1   -1    0    0  502    0  0.00000000000E+00 -0.00000000000E+00 -0.65652591772E+03  0.65652591772E+03  0.00000000000E+00 0. -1.
          6    1    1    2  502    0 -0.38254067313E+02 -0.74660317381E+01 -0.48617228306E+03  0.51717173560E+03  0.17200000000E+03 0. -1.
         -6    1    1    2    0  501  0.38254067313E+02  0.74660317381E+01 -0.10464026570E+03  0.20506755107E+03  0.17200000000E+03 0.  1.
</event>
<event>
 4    1  0.6365520E-002  0.3004571E+03  0.7818608E-02  0.1085012E+00
          1   -1    0    0  502    0  0.00000000000E+00  0.00000000000E+00  0.52985833177E+03  0.52985833177E+03  0.00000000000E+00 0. -1.
         -1   -1    0    0    0  501 -0.00000000000E+00 -0.00000000000E+00 -0.62066065183E+03  0.62066065183E+03  0.00000000000E+00 0.  1.
          6    1    1    2  502    0  0.22061716998E+03  0.10962913710E+03  0.44458166709E+03  0.53658861533E+03  0.17200000000E+03 0. -1.
         -6    1    1    2    0  501 -0.22061716998E+03 -0.10962913710E+03 -0.53538398715E+03  0.61393036827E+03  0.17200000000E+03 0.  1.
</event>
<event>
 4    1  0.6365520E-002  0.2056985E+03  0.7818608E-02  0.1145018E+00
         -2   -1    0    0    0  501 -0.00000000000E+00  0.00000000000E+00  0.39314547939E+02  0.39314547939E+02  0.00000000000E+00 0.  1.
          2   -1    0    0  502    0  0.00000000000E+00 -0.00000000000E+00 -0.12651615131E+04  0.12651615131E+04  0.00000000000E+00 0. -1.
          6    1    1    2  502    0  0.10224911753E+03  0.47675859449E+02 -0.86496634816E+03  0.88908866434E+03  0.17200000000E+03 0. -1.
         -6    1    1    2    0  501 -0.10224911753E+03 -0.47675859449E+02 -0.36088061702E+03  0.41538739672E+03  0.17200000000E+03 0.  1.
</event>
<event>
 4    1  0.6365520E-002  0.2356068E+03  0.7818608E-02  0.1122755E+00
          1   -1    0    0  502    0  0.00000000000E+00  0.00000000000E+00  0.60333789236E+03  0.60333789236E+03  0.00000000000E+00 0. -1.
         -1   -1    0    0    0  501 -0.00000000000E+00 -0.00000000000E+00 -0.18868392412E+03  0.18868392412E+03  0.00000000000E+00 0.  1.
          6    1    1    2  502    0 -0.15682086405E+03 -0.36520991189E+02  0.49079487876E+03  0.54441728409E+03  0.17200000000E+03 0. -1.
         -6    1    1    2    0  501  0.15682086405E+03  0.36520991189E+02 -0.76140910519E+02  0.24760453238E+03  0.17200000000E+03 0.  1.
</event>
<event>
 4    1  0.6365520E-002  0.2882270E+03  0.7818608E-02  0.1091278E+00
         -2   -1    0    0    0  501 -0.00000000000E+00  0.00000000000E+00  0.59478865866E+02  0.59478865866E+02  0.00000000000E+00 0.  1.
          2   -1    0    0  502    0  0.00000000000E+00 -0.00000000000E+00 -0.14090933494E+04  0.14090933494E+04  0.00000000000E+00 0. -1.
          6    1    1    2  502    0  0.41515291719E+02 -0.22752426914E+03 -0.74363905496E+03  0.79754238543E+03  0.17200000000E+03 0. -1.
         -6    1    1    2    0  501 -0.41515291719E+02  0.22752426914E+03 -0.60597542857E+03  0.67102982984E+03  0.17200000000E+03 0.  1.
</event>
<event>
 4    1  0.6365520E-002  0.1761610E+03  0.7818608E-02  0.1171571E+00
         -1   -1    0    0    0  501 -0.00000000000E+00  0.00000000000E+00  0.39214347689E+02  0.39214347689E+02  0.00000000000E+00 0.  1.
          1   -1    0    0  502    0  0.00000000000E+00 -0.00000000000E+00 -0.90562890055E+03  0.90562890055E+03  0.00000000000E+00 0. -1.
          6    1    1    2  502    0 -0.37300674083E+02  0.75732761355E+01 -0.60101705702E+03  0.62630200193E+03  0.17200000000E+03 0. -1.
         -6    1    1    2    0  501  0.37300674083E+02 -0.75732761355E+01 -0.26539749585E+03  0.31854124631E+03  0.17200000000E+03 0.  1.
</event>
<event>
 4    1  0.6365520E-002  0.3103765E+03  0.7818608E-02  0.1080166E+00
          2   -1    0    0  502    0  0.00000000000E+00  0.00000000000E+00  0.10698826041E+04  0.10698826041E+04  0.00000000000E+00 0. -1.
         -2   -1    0    0    0  501 -0.00000000000E+00 -0.00000000000E+00 -0.12207544966E+03  0.12207544966E+03  0.00000000000E+00 0.  1.
          6    1    1    2  502    0  0.14243496299E+03 -0.21555018580E+03  0.77920127713E+03  0.83874205305E+03  0.17200000000E+03 0. -1.
         -6    1    1    2    0  501 -0.14243496299E+03  0.21555018580E+03  0.16860587726E+03  0.35321600066E+03  0.17200000000E+03 0.  1.
</event>
<event>
 4    1  0.6365520E-002  0.3169527E+03  0.7818608E-02  0.1077060E+00
         -2   -1    0    0    0  501 -0.00000000000E+00  0.00000000000E+00  0.25996756582E+03  0.25996756582E+03  0.00000000000E+00 0.  1.
          2   -1    0    0  502    0  0.00000000000E+00 -0.00000000000E+00 -0.81652617696E+03  0.81652617696E+03  0.00000000000E+00 0. -1.
          6    1    1    2  502    0  0.75355847700E+02 -0.25533612760E+03 -0.66892198068E+03  0.74021325175E+03  0.17200000000E+03 0. -1.
         -6    1    1    2    0  501 -0.75355847700E+02  0.25533612760E+03  0.11236336953E+03  0.33628049104E+03  0.17200000000E+03 0.  1.
</event>
<event>
 4    1  0.6365520E-002  0.3596661E+03  0.7818608E-02  0.1058716E+00
          2   -1    0    0  502    0  0.00000000000E+00  0.00000000000E+00  0.78871373426E+03  0.78871373426E+03  0.00000000000E+00 0. -1.
         -2   -1    0    0    0  501 -0.00000000000E+00 -0.00000000000E+00 -0.17823571109E+03  0.17823571109E+03  0.00000000000E+00 0.  1.
          6    1    1    2  502    0  0.12298972071E+03  0.29094535526E+03  0.16866736954E+03  0.39725099458E+03  0.17200000000E+03 0. -1.
         -6    1    1    2    0  501 -0.12298972071E+03 -0.29094535526E+03  0.44181065363E+03  0.56969845077E+03  0.17200000000E+03 0. -1.
</event>
<event>
 4    1  0.6365520E-002  0.1799840E+03  0.7818608E-02  0.1167819E+00
         -2   -1    0    0    0  501 -0.00000000000E+00  0.00000000000E+00  0.59068313554E+02  0.59068313554E+02  0.00000000000E+00 0.  1.
          2   -1    0    0  502    0  0.00000000000E+00 -0.00000000000E+00 -0.79320762815E+03  0.79320762815E+03  0.00000000000E+00 0. -1.
          6    1    1    2  502    0  0.50036065487E+02  0.17510807363E+02 -0.60379875852E+03  0.63005331283E+03  0.17200000000E+03 0. -1.
         -6    1    1    2    0  501 -0.50036065487E+02 -0.17510807363E+02 -0.13034055608E+03  0.22222262887E+03  0.17200000000E+03 0.  1.
</event>
<event>
 4    1  0.6365520E-002  0.1924076E+03  0.7818608E-02  0.1156308E+00
          1   -1    0    0  502    0  0.00000000000E+00  0.00000000000E+00  0.94714276917E+03  0.94714276917E+03  0.00000000000E+00 0. -1.
         -1   -1    0    0    0  501 -0.00000000000E+00 -0.00000000000E+00 -0.40122464698E+02  0.40122464698E+02  0.00000000000E+00 0.  1.
          6    1    1    2  502    0  0.44447788601E+02  0.73899209653E+02  0.37419840105E+03  0.42076732579E+03  0.17200000000E+03 0.  1.
         -6    1    1    2    0  501 -0.44447788601E+02 -0.73899209653E+02  0.53282190342E+03  0.56649790809E+03  0.17200000000E+03 0. -1.
</event>
<event>
 4    1  0.6365520E-002  0.1866156E+03  0.7818608E-02  0.1161550E+00
          2   -1    0    0  502    0  0.00000000000E+00  0.00000000000E+00  0.49802381195E+03  0.49802381195E+03  0.00000000000E+00 0. -1.
         -2   -1    0    0    0  501 -0.00000000000E+00 -0.00000000000E+00 -0.83390175301E+02  0.83390175301E+02  0.00000000000E+00 0.  1.
          6    1    1    2  502    0 -0.28777031560E+02 -0.66432468241E+02  0.32412391224E+03  0.37400762140E+03  0.17200000000E+03 0. -1.
         -6    1    1    2    0  501  0.28777031560E+02  0.66432468241E+02  0.90509724410E+02  0.20740636585E+03  0.17200000000E+03 0.  1.
</event>
<event>
 4    1  0.6365520E-002  0.1815340E+03  0.7818608E-02  0.1166327E+00
         -2   -1    0    0    0  501 -0.00000000000E+00  0.00000000000E+00  0.62598896310E+02  0.62598896310E+02  0.00000000000E+00 0.  1.
          2   -1    0    0  502    0  0.00000000000E+00 -0.00000000000E+00 -0.73348124332E+03  0.73348124332E+03  0.00000000000E+00 0. -1.
          6    1    1    2  502    0 -0.13626968280E+02 -0.56434879502E+02 -0.54691677556E+03  0.57625736375E+03  0.17200000000E+03 0. -1.
         -6    1    1    2    0  501  0.13626968280E+02  0.56434879502E+02 -0.12396557144E+03  0.21982277587E+03  0.17200000000E+03 0.  1.
</event>
<event>
 4    1  0.6365520E-002  0.3023417E+03  0.7818608E-02  0.1084076E+00
          2   -1    0    0  502    0  0.00000000000E+00  0.00000000000E+00  0.10915420087E+04  0.10915420087E+04  0.00000000000E+00 0. -1.
         -2   -1    0    0    0  501 -0.00000000000E+00 -0.00000000000E+00 -0.85480501692E+02  0.85480501692E+02  0.00000000000E+00 0.  1.
          6    1    1    2  502    0 -0.25858483869E+02  0.24730116427E+03  0.41916025403E+03  0.51682283772E+03  0.17200000000E+03 0. -1.
         -6    1    1    2    0  501  0.25858483869E+02 -0.24730116427E+03  0.58690125294E+03  0.66019967263E+03  0.17200000000E+03 0.  1.
</event>
<event>
 4    1  0.6365520E-002  0.1801104E+03  0.7818608E-02  0.1167696E+00
         -2   -1    0    0    0  501 -0.00000000000E+00  0.00000000000E+00  0.51188326921E+03  0.51188326921E+03  0.00000000000E+00 0.  1.
          2   -1    0    0  502    0  0.00000000000E+00 -0.00000000000E+00 -0.17979700091E+03  0.17979700091E+03  0.00000000000E+00 0. -1.
          6    1    1    2  502    0 -0.95204930113E+01 -0.52584435253E+02 -0.11225145291E+03  0.21222665077E+03  0.17200000000E+03 0. -1.
         -6    1    1    2    0  501  0.95204930113E+01  0.52584435253E+02  0.44433772121E+03  0.47945361935E+03  0.17200000000E+03 0.  1.
</event>
<event>
 4    1  0.6365520E-002  0.3379127E+03  0.7818608E-02  0.1067688E+00
          2   -1    0    0  502    0  0.00000000000E+00  0.00000000000E+00  0.20623705800E+03  0.20623705800E+03  0.00000000000E+00 0. -1.
         -2   -1    0    0    0  501 -0.00000000000E+00 -0.00000000000E+00 -0.55454402070E+03  0.55454402070E+03  0.00000000000E+00 0.  1.
          6    1    1    2  502    0 -0.26221574886E+03  0.12587256800E+03 -0.15895712182E+03  0.37343321880E+03  0.17200000000E+03 0. -1.
         -6    1    1    2    0  501  0.26221574886E+03 -0.12587256800E+03 -0.18934984089E+03  0.38734785990E+03  0.17200000000E+03 0.  1.
</event>
<event>
 4    1  0.6365520E-002  0.2450354E+03  0.7818608E-02  0.1116483E+00
         -2   -1    0    0    0  501 -0.00000000000E+00  0.00000000000E+00  0.57247564483E+02  0.57247564483E+02  0.00000000000E+00 0.  1.
          2   -1    0    0  502    0  0.00000000000E+00 -0.00000000000E+00 -0.16477648981E+04  0.16477648981E+04  0.00000000000E+00 0. -1.
          6    1    1    2  502    0 -0.12560629114E+02 -0.17407064153E+03 -0.13092355449E+04  0.13319684942E+04  0.17200000000E+03 0. -1.
         -6    1    1    2    0  501  0.12560629114E+02  0.17407064153E+03 -0.28128178871E+03  0.37304396833E+03  0.17200000000E+03 0.  1.
</event>
<event>
 4    1  0.6365520E-002  0.3568191E+03  0.7818608E-02  0.1059851E+00
         -3   -1    0    0    0  501 -0.00000000000E+00  0.00000000000E+00  0.78736334670E+03  0.78736334670E+03  0.00000000000E+00 0.  1.
          3   -1    0    0  502    0  0.00000000000E+00 -0.00000000000E+00 -0.16595707779E+03  0.16595707779E+03  0.00000000000E+00 0. -1.
          6    1    1    2  502    0  0.11720283258E+03 -0.28982642298E+03  0.38700918781E+03  0.52639906048E+03  0.17200000000E+03 0. -1.
         -6    1    1    2    0  501 -0.11720283258E+03  0.28982642298E+03  0.23439708110E+03  0.42692136401E+03  0.17200000000E+03 0.  1.
</event>
<event>
 4    1  0.6365520E-002  0.1734364E+03  0.7818608E-02  0.1174311E+00
          2   -1    0    0  502    0  0.00000000000E+00  0.00000000000E+00  0.47839404233E+03  0.47839404233E+03  0.00000000000E+00 0. -1.
         -2   -1    0    0    0  501 -0.00000000000E+00 -0.00000000000E+00 -0.65383191059E+02  0.65383191059E+02  0.00000000000E+00 0.  1.
          6    1    1    2  502    0  0.14843550796E+02  0.16608637604E+02  0.25973213529E+03  0.31231548144E+03  0.17200000000E+03 0. -1.
         -6    1    1    2    0  501 -0.14843550796E+02 -0.16608637604E+02  0.15327871598E+03  0.23146175195E+03  0.17200000000E+03 0.  1.
</event>
<event>
 4    1  0.6365520E-002  0.2906449E+03  0.7818608E-02  0.1090013E+00
          2   -1    0    0  502    0  0.00000000000E+00  0.00000000000E+00  0.26206411322E+04  0.26206411322E+04  0.00000000000E+00 0. -1.
         -2   -1    0    0    0  501 -0.00000000000E+00 -0.00000000000E+00 -0.44939284532E+02  0.44939284532E+02  0.00000000000E+00 0.  1.
          6    1    1    2  502    0  0.17105199022E+03  0.16009898293E+03  0.19965081324E+04  0.20175527726E+04  0.17200000000E+03 0. -1.
         -6    1    1    2    0  501 -0.17105199022E+03 -0.16009898293E+03  0.57919371533E+03  0.64802764414E+03  0.17200000000E+03 0.  1.
</event>
<event>
 4    1  0.6365520E-002  0.2751132E+03  0.7818608E-02  0.1098388E+00
          1   -1    0    0  502    0  0.00000000000E+00  0.00000000000E+00  0.67637530786E+02  0.67637530786E+02  0.00000000000E+00 0. -1.
         -1   -1    0    0    0  501 -0.00000000000E+00 -0.00000000000E+00 -0.13275505065E+04  0.13275505065E+04  0.00000000000E+00 0.  1.
          6    1    1    2  502    0  0.16930924038E+03 -0.13205179234E+03 -0.35347311100E+03  0.44791800024E+03  0.17200000000E+03 0. -1.
         -6    1    1    2    0  501 -0.16930924038E+03  0.13205179234E+03 -0.90643986469E+03  0.94727003702E+03  0.17200000000E+03 0.  1.
</event>
<event>
 4    1  0.6365520E-002  0.1755579E+03  0.7818608E-02  0.1172173E+00
          2   -1    0    0  502    0  0.00000000000E+00  0.00000000000E+00  0.16237382083E+04  0.16237382083E+04  0.00000000000E+00 0. -1.
         -2   -1    0    0    0  501 -0.00000000000E+00 -0.00000000000E+00 -0.19268943650E+02  0.19268943650E+02  0.00000000000E+00 0.  1.
          6    1    1    2  502    0  0.34949754926E+02  0.38843522752E+01  0.90261505923E+03  0.91952950942E+03  0.17200000000E+03 0. -1.
         -6    1    1    2    0  501 -0.34949754926E+02 -0.38843522752E+01  0.70185420541E+03  0.72347764251E+03  0.17200000000E+03 0.  1.
</event>
<event>
 4    1  0.6365520E-002  0.2600132E+03  0.7818608E-02  0.1107135E+00
         -2   -1    0    0    0  501 -0.00000000000E+00  0.00000000000E+00  0.87333662475E+02  0.87333662475E+02  0.00000000000E+00 0.  1.
          2   -1    0    0  502    0  0.00000000000E+00 -0.00000000000E+00 -0.77491409220E+03  0.77491409220E+03  0.00000000000E+00 0. -1.
          6    1    1    2  502    0  0.66875754556E+02 -0.18316801619E+03 -0.33000453093E+03  0.42013078813E+03  0.17200000000E+03 0.  1.
         -6    1    1    2    0  501 -0.66875754556E+02  0.18316801619E+03 -0.35757589879E+03  0.44211696654E+03  0.17200000000E+03 0.  1.
</event>
<event>
 4    1  0.6365520E-002  0.2054415E+03  0.7818608E-02  0.1145228E+00
          2   -1    0    0  502    0  0.00000000000E+00  0.00000000000E+00  0.45981766493E+03  0.45981766493E+03  0.00000000000E+00 0. -1.
         -2   -1    0    0    0  501 -0.00000000000E+00 -0.00000000000E+00 -0.11070964386E+03  0.11070964386E+03  0.00000000000E+00 0.  1.
          6    1    1    2  502    0  0.10603978038E+03  0.37118205371E+02  0.29248334736E+03  0.35742510359E+03  0.17200000000E+03 0. -1.
         -6    1    1    2    0  501 -0.10603978038E+03 -0.37118205371E+02  0.56624673714E+02  0.21310220521E+03  0.17200000000E+03 0.  1.
</event>
<event>
 4    1  0.6365520E-002  0.2159569E+03  0.7818608E-02  0.1136934E+00
         -2   -1    0    0    0  501 -0.00000000000E+00  0.00000000000E+00  0.29601140351E+02  0.29601140351E+02  0.00000000000E+00 0.  1.
          2   -1    0    0  502    0  0.00000000000E+00 -0.00000000000E+00 -0.16258988810E+04  0.16258988810E+04  0.00000000000E+00 0. -1.
          6    1    1    2  502    0  0.11813058777E+03  0.55664754497E+02 -0.65245347934E+03  0.68726482767E+03  0.17200000000E+03 0. -1.
         -6    1    1    2    0  501 -0.11813058777E+03 -0.55664754497E+02 -0.94384426132E+03  0.96823519368E+03  0.17200000000E+03 0.  1.
</event>
<event>
 4    1  0.6365520E-002  0.2217332E+03  0.7818608E-02  0.1132597E+00
          2   -1    0    0  502    0  0.00000000000E+00  0.00000000000E+00  0.17248228460E+03  0.17248228460E+03  0.00000000000E+00 0. -1.
         -2   -1    0    0    0  501 -0.00000000000E+00 -0.00000000000E+00 -0.40547024639E+03  0.40547024639E+03  0.00000000000E+00 0.  1.
          6    1    1    2  502    0 -0.49922309411E+02  0.13072630103E+03  0.40990358845E+02  0.22549016004E+03  0.17200000000E+03 0. -1.
         -6    1    1    2    0  501  0.49922309411E+02 -0.13072630103E+03 -0.27397832064E+03  0.35246237095E+03  0.17200000000E+03 0.  1.
</event>
<event>
 4    1  0.6365520E-002  0.1805039E+03  0.7818608E-02  0.1167316E+00
          2   -1    0    0  502    0  0.00000000000E+00  0.00000000000E+00  0.69248533014E+03  0.69248533014E+03  0.00000000000E+00 0. -1.
         -2   -1    0    0    0  501 -0.00000000000E+00 -0.00000000000E+00 -0.48696486417E+02  0.48696486417E+02  0.00000000000E+00 0.  1.
          6    1    1    2  502    0  0.31688072196E+02  0.44649054041E+02  0.39003092644E+03  0.42977412152E+03  0.17200000000E+03 0. -1.
         -6    1    1    2    0  501 -0.31688072196E+02 -0.44649054041E+02  0.25375791729E+03  0.31140769504E+03  0.17200000000E+03 0.  1.
</event>
<event>
 4    1  0.6365520E-002  0.1744840E+03  0.7818608E-02  0.1173251E+00
         -1   -1    0    0    0  501 -0.00000000000E+00  0.00000000000E+00  0.22685280011E+03  0.22685280011E+03  0.00000000000E+00 0.  1.
          1   -1    0    0  502    0  0.00000000000E+00 -0.00000000000E+00 -0.13775961061E+03  0.13775961061E+03  0.00000000000E+00 0. -1.
          6    1    1    2  502    0  0.18543771719E+01  0.29278731872E+02  0.15260417678E+02  0.17515011619E+03  0.17200000000E+03 0.  1.
         -6    1    1    2    0  501 -0.18543771719E+01 -0.29278731872E+02  0.73832771824E+02  0.18946229453E+03  0.17200000000E+03 0.  1.
</event>
<event>
 4    1  0.6365520E-002  0.1750770E+03  0.7818608E-02  0.1172654E+00
         -2   -1    0    0    0  501 -0.00000000000E+00  0.00000000000E+00  0.51119442843E+02  0.51119442843E+02  0.00000000000E+00 0.  1.
          2   -1    0    0  502    0  0.00000000000E+00 -0.00000000000E+00 -0.14284644596E+04  0.14284644596E+04  0.00000000000E+00 0. -1.
          6    1    1    2  502    0  0.29241535377E+02 -0.14591261596E+02 -0.12521969731E+04  0.12643770133E+04  0.17200000000E+03 0. -1.
         -6    1    1    2    0  501 -0.29241535377E+02  0.14591261596E+02 -0.12514804366E+03  0.21520688915E+03  0.17200000000E+03 0.  1.
</event>
<event>
 4    1  0.6365520E-002  0.1847336E+03  0.7818608E-02  0.1163299E+00
          2   -1    0    0  502    0  0.00000000000E+00  0.00000000000E+00  0.83498260090E+02  0.83498260090E+02  0.00000000000E+00 0. -1.
         -2   -1    0    0    0  501 -0.00000000000E+00 -0.00000000000E+00 -0.41097635705E+03  0.41097635705E+03  0.00000000000E+00 0.  1.
          6    1    1    2  502    0  0.49750311098E+02 -0.45468674495E+02 -0.14537528842E+03  0.23507545235E+03  0.17200000000E+03 0.  1.
         -6    1    1    2    0  501 -0.49750311098E+02  0.45468674495E+02 -0.18210280854E+03  0.25939916479E+03  0.17200000000E+03 0.  1.
</event>
<event>
 4    1  0.6365520E-002  0.2768278E+03  0.7818608E-02  0.1097434E+00
         -1   -1    0    0    0  501 -0.00000000000E+00  0.00000000000E+00  0.77869775962E+03  0.77869775962E+03  0.00000000000E+00 0.  1.
          1   -1    0    0  502    0  0.00000000000E+00 -0.00000000000E+00 -0.10550472368E+03  0.10550472368E+03  0.00000000000E+00 0. -1.
          6    1    1    2  502    0 -0.21112395690E+03  0.49762526601E+02  0.45122047157E+03  0.52937089851E+03  0.17200000000E+03 0. -1.
         -6    1    1    2    0  501  0.21112395690E+03 -0.49762526601E+02  0.22197256437E+03  0.35483158479E+03  0.17200000000E+03 0. -1.
</event>
<event>
 4    1  0.6365520E-002  0.2562317E+03  0.7818608E-02  0.1109429E+00
         -2   -1    0    0    0  501 -0.00000000000E+00  0.00000000000E+00  0.41550192603E+02  0.41550192603E+02  0.00000000000E+00 0.  1.
          2   -1    0    0  502    0  0.00000000000E+00 -0.00000000000E+00 -0.15812221461E+04  0.15812221461E+04  0.00000000000E+00 0. -1.
          6    1    1    2  502    0 -0.46081395708E+02  0.18424768246E+03 -0.74851129272E+03  0.79115349892E+03  0.17200000000E+03 0.  1.
         -6    1    1    2    0  501  0.46081395708E+02 -0.18424768246E+03 -0.79116066078E+03  0.83161883979E+03  0.17200000000E+03 0. -1.
</event>
<event>
 4    1  0.6365520E-002  0.2027835E+03  0.7818608E-02  0.1147412E+00
         -2   -1    0    0    0  501 -0.00000000000E+00  0.00000000000E+00  0.31622474244E+02  0.31622474244E+02  0.00000000000E+00 0.  1.
          2   -1    0    0  502    0  0.00000000000E+00 -0.00000000000E+00 -0.13122463274E+04  0.13122463274E+04  0.00000000000E+00 0. -1.
          6    1    1    2  502    0  0.10608612789E+03 -0.16818502383E+02 -0.70421736579E+03  0.73283233201E+03  0.17200000000E+03 0. -1.
         -6    1    1    2    0  501 -0.10608612789E+03  0.16818502383E+02 -0.57640648741E+03  0.61103646968E+03  0.17200000000E+03 0.  1.
</event>
<event>
 4    1  0.6365520E-002  0.2540534E+03  0.7818608E-02  0.1110770E+00
          1   -1    0    0  502    0  0.00000000000E+00  0.00000000000E+00  0.16294591957E+03  0.16294591957E+03  0.00000000000E+00 0. -1.
         -1   -1    0    0    0  501 -0.00000000000E+00 -0.00000000000E+00 -0.46193534593E+03  0.46193534593E+03  0.00000000000E+00 0.  1.
          6    1    1    2  502    0  0.18368449703E+03  0.34916414802E+02 -0.31543891137E+02  0.25600423344E+03  0.17200000000E+03 0. -1.
         -6    1    1    2    0  501 -0.18368449703E+03 -0.34916414802E+02 -0.26744553522E+03  0.36887703206E+03  0.17200000000E+03 0.  1.
</event>
<event>
 4    1  0.6365520E-002  0.1990636E+03  0.7818608E-02  0.1150531E+00
         -2   -1    0    0    0  501 -0.00000000000E+00  0.00000000000E+00  0.22616566029E+02  0.22616566029E+02  0.00000000000E+00 0.  1.
          2   -1    0    0  502    0  0.00000000000E+00 -0.00000000000E+00 -0.17521845976E+04  0.17521845976E+04  0.00000000000E+00 0. -1.
          6    1    1    2  502    0 -0.10012553722E+03 -0.41479171941E+01 -0.85837006737E+03  0.88115010128E+03  0.17200000000E+03 0.  1.
         -6    1    1    2    0  501  0.10012553722E+03  0.41479171941E+01 -0.87119796423E+03  0.89365106239E+03  0.17200000000E+03 0. -1.
</event>
<event>
 4    1  0.6365520E-002  0.1829422E+03  0.7818608E-02  0.1164986E+00
         -1   -1    0    0    0  501 -0.00000000000E+00  0.00000000000E+00  0.21555516362E+03  0.21555516362E+03  0.00000000000E+00 0.  1.
          1   -1    0    0  502    0  0.00000000000E+00 -0.00000000000E+00 -0.19464493249E+03  0.19464493249E+03  0.00000000000E+00 0. -1.
          6    1    1    2  502    0  0.48479364428E+02  0.39161266628E+02 -0.81799871597E+02  0.20039728684E+03  0.17200000000E+03 0. -1.
         -6    1    1    2    0  501 -0.48479364428E+02 -0.39161266628E+02  0.10271010272E+03  0.20980280928E+03  0.17200000000E+03 0.  1.
</event>
<event>
 4    1  0.6365520E-002  0.2572869E+03  0.7818608E-02  0.1108784E+00
         -2   -1    0    0    0  501 -0.00000000000E+00  0.00000000000E+00  0.56531577203E+03  0.56531577203E+03  0.00000000000E+00 0.  1.
          2   -1    0    0  502    0  0.00000000000E+00 -0.00000000000E+00 -0.17640661842E+03  0.17640661842E+03  0.00000000000E+00 0. -1.
          6    1    1    2  502    0  0.20753953192E+02 -0.19021516633E+03 -0.20584856611E+02  0.25810903200E+03  0.17200000000E+03 0. -1.
         -6    1    1    2    0  501 -0.20753953192E+02  0.19021516633E+03  0.40949401022E+03  0.48361335846E+03  0.17200000000E+03 0.  1.
</event>
<event>
 4    1  0.6365520E-002  0.3002001E+03  0.7818608E-02  0.1085141E+00
         -1   -1    0    0    0  501 -0.00000000000E+00  0.00000000000E+00  0.70244297808E+02  0.70244297808E+02  0.00000000000E+00 0.  1.
          1   -1    0    0  502    0  0.00000000000E+00 -0.00000000000E+00 -0.15739596983E+04  0.15739596983E+04  0.00000000000E+00 0. -1.
          6    1    1    2  502    0 -0.12355569065E+03 -0.21276767913E+03 -0.11053506878E+04  0.11453908665E+04  0.17200000000E+03 0. -1.
         -6    1    1    2    0  501  0.12355569065E+03  0.21276767913E+03 -0.39836471268E+03  0.49881312962E+03  0.17200000000E+03 0.  1.
</event>
<event>
 4    1  0.6365520E-002  0.1863079E+03  0.7818608E-02  0.1161834E+00
          2   -1    0    0  502    0  0.00000000000E+00  0.00000000000E+00  0.32354974945E+04  0.32354974945E+04  0.00000000000E+00 0. -1.
         -2   -1    0    0    0  501 -0.00000000000E+00 -0.00000000000E+00 -0.11409227837E+02  0.11409227837E+02  0.00000000000E+00 0.  1.
          6    1    1    2  502    0 -0.42496615264E+02 -0.57625264622E+02  0.12153675429E+04  0.12295645155E+04  0.17200000000E+03 0. -1.
         -6    1    1    2    0  501  0.42496615264E+02  0.57625264622E+02  0.20087207238E+04  0.20173422069E+04  0.17200000000E+03 0.  1.
</event>
<event>
 4    1  0.6365520E-002  0.1721570E+03  0.7818608E-02  0.1175617E+00
         -1   -1    0    0    0  501 -0.00000000000E+00  0.00000000000E+00  0.29912773194E+02  0.29912773194E+02  0.00000000000E+00 0.  1.
          1   -1    0    0  502    0  0.00000000000E+00 -0.00000000000E+00 -0.11864791607E+04  0.11864791607E+04  0.00000000000E+00 0. -1.
          6    1    1    2  502    0  0.81696943165E+00 -0.73048478295E+01 -0.33129910430E+03  0.37335924356E+03  0.17200000000E+03 0.  1.
         -6    1    1    2    0  501 -0.81696943165E+00  0.73048478295E+01 -0.82526728318E+03  0.84303269031E+03  0.17200000000E+03 0. -1.
</event>
<event>
 4    1  0.6365520E-002  0.1786268E+03  0.7818608E-02  0.1169139E+00
          3   -1    0    0  502    0  0.00000000000E+00  0.00000000000E+00  0.62322487603E+03  0.62322487603E+03  0.00000000000E+00 0. -1.
         -3   -1    0    0    0  501 -0.00000000000E+00 -0.00000000000E+00 -0.60270392201E+02  0.60270392201E+02  0.00000000000E+00 0.  1.
          6    1    1    2  502    0  0.43369625830E+02  0.21038690387E+02  0.14888242072E+03  0.23253715002E+03  0.17200000000E+03 0.  1.
         -6    1    1    2    0  501 -0.43369625830E+02 -0.21038690387E+02  0.41407206311E+03  0.45095811822E+03  0.17200000000E+03 0. -1.
</event>
<event>
 4    1  0.6365520E-002  0.2666334E+03  0.7818608E-02  0.1103222E+00
         -1   -1    0    0    0  501 -0.00000000000E+00  0.00000000000E+00  0.10535339362E+03  0.10535339362E+03  0.00000000000E+00 0.  1.
          1   -1    0    0  502    0  0.00000000000E+00 -0.00000000000E+00 -0.86967921434E+03  0.86967921434E+03  0.00000000000E+00 0. -1.
          6    1    1    2  502    0  0.17958034839E+03  0.96230164660E+02 -0.61293489924E+03  0.66841793574E+03  0.17200000000E+03 0. -1.
         -6    1    1    2    0  501 -0.17958034839E+03 -0.96230164660E+02 -0.15139092148E+03  0.30661467223E+03  0.17200000000E+03 0.  1.
</event>
<event>
 4    1  0.6365520E-002  0.1856448E+03  0.7818608E-02  0.1162449E+00
          1   -1    0    0  502    0  0.00000000000E+00  0.00000000000E+00  0.12110893501E+04  0.12110893501E+04  0.00000000000E+00 0. -1.
         -1   -1    0    0    0  501 -0.00000000000E+00 -0.00000000000E+00 -0.28667756395E+02  0.28667756395E+02  0.00000000000E+00 0.  1.
          6    1    1    2  502    0  0.67033463801E+02  0.19659851958E+02  0.53806382580E+03  0.56918949014E+03  0.17200000000E+03 0. -1.
         -6    1    1    2    0  501 -0.67033463801E+02 -0.19659851958E+02  0.64435776792E+03  0.67056761638E+03  0.17200000000E+03 0.  1.
</event>
<event>
 4    1  0.6365520E-002  0.4300670E+03  0.7818608E-02  0.1033839E+00
          1   -1    0    0  502    0  0.00000000000E+00  0.00000000000E+00  0.51037126848E+03  0.51037126848E+03  0.00000000000E+00 0. -1.
         -1   -1    0    0    0  501 -0.00000000000E+00 -0.00000000000E+00 -0.15454113333E+04  0.15454113333E+04  0.00000000000E+00 0.  1.
          6    1    1    2  502    0  0.36864807972E+03 -0.13954283952E+03  0.38181173367E+03  0.57509808790E+03  0.17200000000E+03 0. -1.
         -6    1    1    2    0  501 -0.36864807972E+03  0.13954283952E+03 -0.14168517984E+04  0.14806845138E+04  0.17200000000E+03 0.  1.
</event>
<event>
 4    1  0.6365520E-002  0.2776523E+03  0.7818608E-02  0.1096978E+00
          1   -1    0    0  502    0  0.00000000000E+00  0.00000000000E+00  0.85934417635E+03  0.85934417635E+03  0.00000000000E+00 0. -1.
         -1   -1    0    0    0  501 -0.00000000000E+00 -0.00000000000E+00 -0.10811438636E+03  0.10811438636E+03  0.00000000000E+00 0.  1.
          6    1    1    2  502    0 -0.61399012206E+02 -0.20913384709E+03  0.57520293029E+03  0.63870902272E+03  0.17200000000E+03 0. -1.
         -6    1    1    2    0  501  0.61399012206E+02  0.20913384709E+03  0.17602685971E+03  0.32874953998E+03  0.17200000000E+03 0.  1.
</event>
<event>
 4    1  0.6365520E-002  0.1854040E+03  0.7818608E-02  0.1162673E+00
         -1   -1    0    0    0  501 -0.00000000000E+00  0.00000000000E+00  0.95590802526E+03  0.95590802526E+03  0.00000000000E+00 0.  1.
          1   -1    0    0  502    0  0.00000000000E+00 -0.00000000000E+00 -0.40956286600E+02  0.40956286600E+02  0.00000000000E+00 0. -1.
          6    1    1    2  502    0 -0.59956881297E+02 -0.34580604242E+02  0.63156058893E+03  0.65821229349E+03  0.17200000000E+03 0. -1.
         -6    1    1    2    0  501  0.59956881297E+02  0.34580604242E+02  0.28339114973E+03  0.33865201837E+03  0.17200000000E+03 0. -1.
</event>
<event>
 4    1  0.6365520E-002  0.1869838E+03  0.7818608E-02  0.1161210E+00
         -2   -1    0    0    0  501 -0.00000000000E+00  0.00000000000E+00  0.99398771044E+02  0.99398771044E+02  0.00000000000E+00 0.  1.
          2   -1    0    0  502    0  0.00000000000E+00 -0.00000000000E+00 -0.56546767207E+03  0.56546767207E+03  0.00000000000E+00 0. -1.
          6    1    1    2  502    0  0.20735892466E+02 -0.70348961195E+02 -0.43740885834E+03  0.47569892047E+03  0.17200000000E+03 0. -1.
         -6    1    1    2    0  501 -0.20735892466E+02  0.70348961195E+02 -0.28660042683E+02  0.18916752265E+03  0.17200000000E+03 0.  1.
</event>
<event>
 4    1  0.6365520E-002  0.2957952E+03  0.7818608E-02  0.1087362E+00
          2   -1    0    0  502    0  0.00000000000E+00  0.00000000000E+00  0.13953536843E+03  0.13953536843E+03  0.00000000000E+00 0. -1.
         -2   -1    0    0    0  501 -0.00000000000E+00 -0.00000000000E+00 -0.63993048262E+03  0.63993048262E+03  0.00000000000E+00 0.  1.
          6    1    1    2  502    0  0.88030326003E+02 -0.22396755122E+03 -0.30550320660E+03  0.42523759422E+03  0.17200000000E+03 0. -1.
         -6    1    1    2    0  501 -0.88030326003E+02  0.22396755122E+03 -0.19489190760E+03  0.35422825684E+03  0.17200000000E+03 0. -1.
</event>
<event>
 4    1  0.6365520E-002  0.2487528E+03  0.7818608E-02  0.1114096E+00
          1   -1    0    0  502    0  0.00000000000E+00  0.00000000000E+00  0.24713051176E+03  0.24713051176E+03  0.00000000000E+00 0. -1.
         -1   -1    0    0    0  501 -0.00000000000E+00 -0.00000000000E+00 -0.25618503542E+03  0.25618503542E+03  0.00000000000E+00 0.  1.
          6    1    1    2  502    0  0.17969278909E+03  0.21074499893E+01  0.33336481894E+02  0.25097661409E+03  0.17200000000E+03 0. -1.
         -6    1    1    2    0  501 -0.17969278909E+03 -0.21074499893E+01 -0.42391005560E+02  0.25233893308E+03  0.17200000000E+03 0.  1.
</event>
<event>
 4    1  0.6365520E-002  0.2274113E+03  0.7818608E-02  0.1128475E+00
          1   -1    0    0  502    0  0.00000000000E+00  0.00000000000E+00  0.15876871763E+03  0.15876871763E+03  0.00000000000E+00 0. -1.
         -1   -1    0    0    0  501 -0.00000000000E+00 -0.00000000000E+00 -0.34464978781E+03  0.34464978781E+03  0.00000000000E+00 0.  1.
          6    1    1    2  502    0  0.71684848630E+02  0.13035784630E+03 -0.33966971515E+02  0.22993399220E+03  0.17200000000E+03 0.  1.
         -6    1    1    2    0  501 -0.71684848630E+02 -0.13035784630E+03 -0.15191409866E+03  0.27348451325E+03  0.17200000000E+03 0. -1.
</event>
<event>
 4    1  0.6365520E-002  0.3482187E+03  0.7818608E-02  0.1063349E+00
         -1   -1    0    0    0  501 -0.00000000000E+00  0.00000000000E+00  0.19231764626E+03  0.19231764626E+03  0.00000000000E+00 0.  1.
          1   -1    0    0  502    0  0.00000000000E+00 -0.00000000000E+00 -0.70055477147E+03  0.70055477147E+03  0.00000000000E+00 0. -1.
          6    1    1    2  502    0 -0.97573140772E+02 -0.28662129765E+03 -0.11294380155E+03  0.36607729836E+03  0.17200000000E+03 0.  1.
         -6    1    1    2    0  501  0.97573140772E+02  0.28662129765E+03 -0.39529332366E+03  0.52679511937E+03  0.17200000000E+03 0.  1.
</event>
<event>
 4    1  0.6365520E-002  0.3241972E+03  0.7818608E-02  0.1073734E+00
         -2   -1    0    0    0  501 -0.00000000000E+00  0.00000000000E+00  0.13891117936E+03  0.13891117936E+03  0.00000000000E+00 0.  1.
          2   -1    0    0  502    0  0.00000000000E+00 -0.00000000000E+00 -0.15741892918E+04  0.15741892918E+04  0.00000000000E+00 0. -1.
          6    1    1    2  502    0  0.18410920869E+03  0.20401876349E+03 -0.13349229773E+04  0.13737260323E+04  0.17200000000E+03 0. -1.
         -6    1    1    2    0  501 -0.18410920869E+03 -0.20401876349E+03 -0.10035513514E+03  0.33937443883E+03  0.17200000000E+03 0.  1.
</event>
<event>
 4    1  0.6365520E-002  0.5874100E+03  0.7818608E-02  0.9931876E-01
         -1   -1    0    0    0  501 -0.00000000000E+00  0.00000000000E+00  0.38834964548E+03  0.38834964548E+03  0.00000000000E+00 0.  1.
          1   -1    0    0  502    0  0.00000000000E+00 -0.00000000000E+00 -0.10997401192E+04  0.10997401192E+04  0.00000000000E+00 0. -1.
          6    1    1    2  502    0 -0.22156838438E+03 -0.51611426429E+03 -0.29605239975E+02  0.58815555170E+03  0.17200000000E+03 0. -1.
         -6    1    1    2    0  501  0.22156838438E+03  0.51611426429E+03 -0.68178523378E+03  0.89993421302E+03  0.17200000000E+03 0.  1.
</event>
<event>
 4    1  0.6365520E-002  0.2315743E+03  0.7818608E-02  0.1125537E+00
          1   -1    0    0  502    0  0.00000000000E+00  0.00000000000E+00  0.95967126872E+03  0.95967126872E+03  0.00000000000E+00 0. -1.
         -1   -1    0    0    0  501 -0.00000000000E+00 -0.00000000000E+00 -0.81437608621E+02  0.81437608621E+02  0.00000000000E+00 0.  1.
          6    1    1    2  502    0  0.10952922297E+02  0.15466957408E+03  0.73073317898E+03  0.76654916510E+03  0.17200000000E+03 0. -1.
         -6    1    1    2    0  501 -0.10952922297E+02 -0.15466957408E+03  0.14750048111E+03  0.27455971224E+03  0.17200000000E+03 0.  1.
</event>
<event>
 4    1  0.6365520E-002  0.2308035E+03  0.7818608E-02  0.1126076E+00
         -1   -1    0    0    0  501 -0.00000000000E+00  0.00000000000E+00  0.49521443270E+03  0.49521443270E+03  0.00000000000E+00 0.  1.
          1   -1    0    0  502    0  0.00000000000E+00 -0.00000000000E+00 -0.10760915555E+03  0.10760915555E+03  0.00000000000E+00 0. -1.
          6    1    1    2  502    0  0.14333489696E+03  0.56047729610E+02  0.19954858536E+03  0.30510633983E+03  0.17200000000E+03 0. -1.
         -6    1    1    2    0  501 -0.14333489696E+03 -0.56047729610E+02  0.18805669178E+03  0.29771724842E+03  0.17200000000E+03 0.  1.
</event>
<event>
 4    1  0.6365520E-002  0.2322461E+03  0.7818608E-02  0.1125069E+00
         -1   -1    0    0    0  501 -0.00000000000E+00  0.00000000000E+00  0.19128997474E+03  0.19128997474E+03  0.00000000000E+00 0.  1.
          1   -1    0    0  502    0  0.00000000000E+00 -0.00000000000E+00 -0.28472025495E+03  0.28472025495E+03  0.00000000000E+00 0. -1.
          6    1    1    2  502    0  0.70835008086E+02  0.13905635702E+03 -0.70101720568E+02  0.24259538335E+03  0.17200000000E+03 0. -1.
         -6    1    1    2    0  501 -0.70835008086E+02 -0.13905635702E+03 -0.23328559646E+02  0.23341484634E+03  0.17200000000E+03 0.  1.
</event>
<event>
 4    1  0.6365520E-002  0.2152257E+03  0.7818608E-02  0.1137493E+00
          2   -1    0    0  502    0  0.00000000000E+00  0.00000000000E+00  0.28192779033E+03  0.28192779033E+03  0.00000000000E+00 0. -1.
         -2   -1    0    0    0  501 -0.00000000000E+00 -0.00000000000E+00 -0.21582036369E+03  0.21582036369E+03  0.00000000000E+00 0.  1.
          6    1    1    2  502    0 -0.81920436709E+02 -0.10013563501E+03 -0.88537577509E+02  0.23272517264E+03  0.17200000000E+03 0. -1.
         -6    1    1    2    0  501  0.81920436709E+02  0.10013563501E+03  0.15464500415E+03  0.26502298138E+03  0.17200000000E+03 0.  1.
</event>
<event>
 4    1  0.6365520E-002  0.3165951E+03  0.7818608E-02  0.1077227E+00
         -2   -1    0    0    0  501 -0.00000000000E+00  0.00000000000E+00  0.27527526048E+04  0.27527526048E+04  0.00000000000E+00 0.  1.
          2   -1    0    0  502    0  0.00000000000E+00 -0.00000000000E+00 -0.43016439270E+02  0.43016439270E+02  0.00000000000E+00 0. -1.
          6    1    1    2  502    0  0.26167196984E+03 -0.46650453461E+02  0.80711993249E+03  0.86699196653E+03  0.17200000000E+03 0. -1.
         -6    1    1    2    0  501 -0.26167196984E+03  0.46650453461E+02  0.19026162330E+04  0.19287770775E+04  0.17200000000E+03 0.  1.
</event>
<event>
 4    1  0.6365520E-002  0.2114051E+03  0.7818608E-02  0.1140458E+00
         -2   -1    0    0    0  501 -0.00000000000E+00  0.00000000000E+00  0.10441881878E+03  0.10441881878E+03  0.00000000000E+00 0.  1.
          2   -1    0    0  502    0  0.00000000000E+00 -0.00000000000E+00 -0.45080289364E+03  0.45080289364E+03  0.00000000000E+00 0. -1.
          6    1    1    2  502    0 -0.27159962586E+02 -0.11987675297E+03 -0.11076668544E+03  0.23866578740E+03  0.17200000000E+03 0.  1.
         -6    1    1    2    0  501  0.27159962586E+02  0.11987675297E+03 -0.23561738942E+03  0.31655592502E+03  0.17200000000E+03 0. -1.
</event>
<event>
 4    1  0.6365520E-002  0.1984381E+03  0.7818608E-02  0.1151064E+00
          2   -1    0    0  502    0  0.00000000000E+00  0.00000000000E+00  0.25174892221E+03  0.25174892221E+03  0.00000000000E+00 0. -1.
         -2   -1    0    0    0  501 -0.00000000000E+00 -0.00000000000E+00 -0.18138034232E+03  0.18138034232E+03  0.00000000000E+00 0.  1.
          6    1    1    2  502    0 -0.51435922530E+02 -0.84545937899E+02  0.11552740688E+03  0.22961762015E+03  0.17200000000E+03 0. -1.
         -6    1    1    2    0  501  0.51435922530E+02  0.84545937899E+02 -0.45158826993E+02  0.20351164438E+03  0.17200000000E+03 0.  1.
</event>
<event>
 4    1  0.6365520E-002  0.2063066E+03  0.7818608E-02  0.1144525E+00
          1   -1    0    0  502    0  0.00000000000E+00  0.00000000000E+00  0.42252755726E+03  0.42252755726E+03  0.00000000000E+00 0. -1.
         -1   -1    0    0    0  501 -0.00000000000E+00 -0.00000000000E+00 -0.10192753743E+03  0.10192753743E+03  0.00000000000E+00 0.  1.
          6    1    1    2  502    0  0.61821954913E+02  0.95689453722E+02  0.18868905764E+03  0.27958180580E+03  0.17200000000E+03 0. -1.
         -6    1    1    2    0  501 -0.61821954913E+02 -0.95689453722E+02  0.13191096219E+03  0.24487328889E+03  0.17200000000E+03 0.  1.
</event>
<event>
 4    1  0.6365520E-002  0.2461194E+03  0.7818608E-02  0.1115782E+00
          3   -1    0    0  502    0  0.00000000000E+00  0.00000000000E+00  0.66296529364E+03  0.66296529364E+03  0.00000000000E+00 0. -1.
         -3   -1    0    0    0  501 -0.00000000000E+00 -0.00000000000E+00 -0.10180915175E+03  0.10180915175E+03  0.00000000000E+00 0.  1.
          6    1    1    2  502    0 -0.34702770913E+02 -0.17258755519E+03  0.40302696826E+03  0.47223456424E+03  0.17200000000E+03 0. -1.
         -6    1    1    2    0  501  0.34702770913E+02  0.17258755519E+03  0.15812917363E+03  0.29253988116E+03  0.17200000000E+03 0.  1.
</event>
<event>
 4    1  0.6365520E-002  0.2884095E+03  0.7818608E-02  0.1091182E+00
          1   -1    0    0  502    0  0.00000000000E+00  0.00000000000E+00  0.29228802742E+03  0.29228802742E+03  0.00000000000E+00 0. -1.
         -1   -1    0    0    0  501 -0.00000000000E+00 -0.00000000000E+00 -0.28492025276E+03  0.28492025276E+03  0.00000000000E+00 0.  1.
          6    1    1    2  502    0  0.22502156439E+03  0.54418149123E+02  0.13621459908E+02  0.28873098823E+03  0.17200000000E+03 0. -1.
         -6    1    1    2    0  501 -0.22502156439E+03 -0.54418149123E+02 -0.62536852450E+01  0.28847729195E+03  0.17200000000E+03 0.  1.
</event>
<event>
 4    1  0.6365520E-002  0.5289158E+03  0.7818608E-02  0.1006495E+00
          2   -1    0    0  502    0  0.00000000000E+00  0.00000000000E+00  0.44018803221E+03  0.44018803221E+03  0.00000000000E+00 0. -1.
         -2   -1    0    0    0  501 -0.00000000000E+00 -0.00000000000E+00 -0.65497442530E+03  0.65497442530E+03  0.00000000000E+00 0.  1.
          6    1    1    2  502    0  0.26141242739E+03 -0.42641695359E+03 -0.20174601029E+03  0.56608597242E+03  0.17200000000E+03 0. -1.
         -6    1    1    2    0  501 -0.26141242739E+03  0.42641695359E+03 -0.13040382798E+02  0.52907648510E+03  0.17200000000E+03 0.  1.
</event>
<event>
 4    1  0.6365520E-002  0.2789557E+03  0.7818608E-02  0.1096261E+00
          1   -1    0    0  502    0  0.00000000000E+00  0.00000000000E+00  0.39768340637E+03  0.39768340637E+03  0.00000000000E+00 0. -1.
         -1   -1    0    0    0  501 -0.00000000000E+00 -0.00000000000E+00 -0.40287385391E+03  0.40287385391E+03  0.00000000000E+00 0.  1.
          6    1    1    2  502    0  0.17318261461E+03  0.13505568265E+03  0.28446479623E+03  0.39841746412E+03  0.17200000000E+03 0. -1.
         -6    1    1    2    0  501 -0.17318261461E+03 -0.13505568265E+03 -0.28965524377E+03  0.40213979616E+03  0.17200000000E+03 0.  1.
</event>
<event>
 4    1  0.6365520E-002  0.1794376E+03  0.7818608E-02  0.1168348E+00
          2   -1    0    0  502    0  0.00000000000E+00  0.00000000000E+00  0.45844169817E+03  0.45844169817E+03  0.00000000000E+00 0. -1.
         -2   -1    0    0    0  501 -0.00000000000E+00 -0.00000000000E+00 -0.70699462521E+02  0.70699462521E+02  0.00000000000E+00 0.  1.
          6    1    1    2  502    0  0.27604904986E+02  0.43032832303E+02  0.17238686064E+03  0.24882742043E+03  0.17200000000E+03 0. -1.
         -6    1    1    2    0  501 -0.27604904986E+02 -0.43032832303E+02  0.21535537500E+03  0.28031374026E+03  0.17200000000E+03 0. -1.
</event>
<event>
 4    1  0.6365520E-002  0.2441967E+03  0.7818608E-02  0.1117028E+00
         -2   -1    0    0    0  501 -0.00000000000E+00  0.00000000000E+00  0.83936982636E+02  0.83936982636E+02  0.00000000000E+00 0.  1.
          2   -1    0    0  502    0  0.00000000000E+00 -0.00000000000E+00 -0.10158712905E+04  0.10158712905E+04  0.00000000000E+00 0. -1.
          6    1    1    2  502    0  0.17298618641E+03 -0.11126023887E+02 -0.76749396770E+03  0.80540610846E+03  0.17200000000E+03 0. -1.
         -6    1    1    2    0  501 -0.17298618641E+03  0.11126023887E+02 -0.16444034019E+03  0.29440216470E+03  0.17200000000E+03 0.  1.
</event>
<event>
 4    1  0.6365520E-002  0.2577874E+03  0.7818608E-02  0.1108480E+00
         -2   -1    0    0    0  501 -0.00000000000E+00  0.00000000000E+00  0.93058716303E+02  0.93058716303E+02  0.00000000000E+00 0.  1.
          2   -1    0    0  502    0  0.00000000000E+00 -0.00000000000E+00 -0.11087616506E+04  0.11087616506E+04  0.00000000000E+00 0. -1.
          6    1    1    2  502    0 -0.15027787684E+03 -0.11952791018E+03 -0.86635730754E+03  0.90389675622E+03  0.17200000000E+03 0. -1.
         -6    1    1    2    0  501  0.15027787684E+03  0.11952791018E+03 -0.14934562678E+03  0.29792361071E+03  0.17200000000E+03 0.  1.
</event>
<event>
 4    1  0.6365520E-002  0.1811466E+03  0.7818608E-02  0.1166698E+00
          2   -1    0    0  502    0  0.00000000000E+00  0.00000000000E+00  0.24838452647E+04  0.24838452647E+04  0.00000000000E+00 0. -1.
         -2   -1    0    0    0  501 -0.00000000000E+00 -0.00000000000E+00 -0.16855764619E+02  0.16855764619E+02  0.00000000000E+00 0.  1.
          6    1    1    2  502    0 -0.56149656043E+02  0.87928288127E+01  0.18149172868E+04  0.18239349922E+04  0.17200000000E+03 0. -1.
         -6    1    1    2    0  501  0.56149656043E+02 -0.87928288127E+01  0.65207221325E+03  0.67676603713E+03  0.17200000000E+03 0.  1.
</event>
<event>
 4    1  0.6365520E-002  0.2689408E+03  0.7818608E-02  0.1101887E+00
         -2   -1    0    0    0  501 -0.00000000000E+00  0.00000000000E+00  0.98113836822E+02  0.98113836822E+02  0.00000000000E+00 0.  1.
          2   -1    0    0  502    0  0.00000000000E+00 -0.00000000000E+00 -0.13009467429E+04  0.13009467429E+04  0.00000000000E+00 0. -1.
          6    1    1    2  502    0 -0.16672427234E+03  0.12226272084E+03 -0.10619064701E+04  0.10954334791E+04  0.17200000000E+03 0. -1.
         -6    1    1    2    0  501  0.16672427234E+03 -0.12226272084E+03 -0.14092643604E+03  0.30362710068E+03  0.17200000000E+03 0.  1.
</event>
<event>
 4    1  0.6365520E-002  0.2064502E+03  0.7818608E-02  0.1144408E+00
          1   -1    0    0  502    0  0.00000000000E+00  0.00000000000E+00  0.18732839416E+04  0.18732839416E+04  0.00000000000E+00 0. -1.
         -1   -1    0    0    0  501 -0.00000000000E+00 -0.00000000000E+00 -0.46048755156E+02  0.46048755156E+02  0.00000000000E+00 0.  1.
          6    1    1    2  502    0 -0.83924583688E+02  0.77423194215E+02  0.15962004895E+04  0.16094960980E+04  0.17200000000E+03 0. -1.
         -6    1    1    2    0  501  0.83924583688E+02 -0.77423194215E+02  0.23103469697E+03  0.30983659880E+03  0.17200000000E+03 0.  1.
</event>
<event>
 4    1  0.6365520E-002  0.8015397E+03  0.7818608E-02  0.9557791E-01
          2   -1    0    0  502    0  0.00000000000E+00  0.00000000000E+00  0.35308774942E+03  0.35308774942E+03  0.00000000000E+00 0. -1.
         -2   -1    0    0    0  501 -0.00000000000E+00 -0.00000000000E+00 -0.19184211131E+04  0.19184211131E+04  0.00000000000E+00 0.  1.
          6    1    1    2  502    0 -0.11741401325E+03 -0.77401277040E+03 -0.52484701303E+03  0.95808674259E+03  0.17200000000E+03 0. -1.
         -6    1    1    2    0  501  0.11741401325E+03  0.77401277040E+03 -0.10404863506E+04  0.13134221199E+04  0.17200000000E+03 0.  1.
</event>
<event>
 4    1  0.6365520E-002  0.1760126E+03  0.7818608E-02  0.1171719E+00
         -2   -1    0    0    0  501 -0.00000000000E+00  0.00000000000E+00  0.53024219700E+02  0.53024219700E+02  0.00000000000E+00 0.  1.
          2   -1    0    0  502    0  0.00000000000E+00 -0.00000000000E+00 -0.60130444797E+03  0.60130444797E+03  0.00000000000E+00 0. -1.
          6    1    1    2  502    0  0.35108425406E+02  0.12799532499E+02 -0.21907325634E+03  0.28102227885E+03  0.17200000000E+03 0.  1.
         -6    1    1    2    0  501 -0.35108425406E+02 -0.12799532499E+02 -0.32920697193E+03  0.37330638882E+03  0.17200000000E+03 0. -1.
</event>
<event>
 4    1  0.6365520E-002  0.3124112E+03  0.7818608E-02  0.1079196E+00
         -1   -1    0    0    0  501 -0.00000000000E+00  0.00000000000E+00  0.38052754725E+04  0.38052754725E+04  0.00000000000E+00 0.  1.
          1   -1    0    0  502    0  0.00000000000E+00 -0.00000000000E+00 -0.29087744828E+03  0.29087744828E+03  0.00000000000E+00 0. -1.
          6    1    1    2  502    0  0.26041382731E+03  0.14190537180E+02 -0.19849704305E+03  0.37013755402E+03  0.17200000000E+03 0. -1.
         -6    1    1    2    0  501 -0.26041382731E+03 -0.14190537180E+02  0.37128950673E+04  0.37260153668E+04  0.17200000000E+03 0.  1.
</event>
<event>
 4    1  0.6365520E-002  0.4026585E+03  0.7818608E-02  0.1042863E+00
         -2   -1    0    0    0  501 -0.00000000000E+00  0.00000000000E+00  0.29769284963E+03  0.29769284963E+03  0.00000000000E+00 0.  1.
          2   -1    0    0  502    0  0.00000000000E+00 -0.00000000000E+00 -0.62475376727E+03  0.62475376727E+03  0.00000000000E+00 0. -1.
          6    1    1    2  502    0 -0.21018726226E+03 -0.29727284536E+03 -0.32869810682E+03  0.51978483552E+03  0.17200000000E+03 0. -1.
         -6    1    1    2    0  501  0.21018726226E+03  0.29727284536E+03  0.16371891795E+01  0.40266178139E+03  0.17200000000E+03 0.  1.
</event>
<event>
 4    1  0.6365520E-002  0.2376315E+03  0.7818608E-02  0.1121381E+00
          2   -1    0    0  502    0  0.00000000000E+00  0.00000000000E+00  0.19442484036E+04  0.19442484036E+04  0.00000000000E+00 0. -1.
         -2   -1    0    0    0  501 -0.00000000000E+00 -0.00000000000E+00 -0.29439520919E+02  0.29439520919E+02  0.00000000000E+00 0.  1.
          6    1    1    2  502    0 -0.16169554440E+03 -0.27189499894E+02  0.10717915462E+04  0.10978186719E+04  0.17200000000E+03 0. -1.
         -6    1    1    2    0  501  0.16169554440E+03  0.27189499894E+02  0.84301733646E+03  0.87586925254E+03  0.17200000000E+03 0.  1.
</event>
<event>
 4    1  0.6365520E-002  0.1883993E+03  0.7818608E-02  0.1159913E+00
         -2   -1    0    0    0  501 -0.00000000000E+00  0.00000000000E+00  0.85694759287E+02  0.85694759287E+02  0.00000000000E+00 0.  1.
          2   -1    0    0  502    0  0.00000000000E+00 -0.00000000000E+00 -0.41685508506E+03  0.41685508506E+03  0.00000000000E+00 0. -1.
          6    1    1    2  502    0 -0.32477245393E+02 -0.69681554978E+02 -0.18565500877E+03  0.26450344583E+03  0.17200000000E+03 0. -1.
         -6    1    1    2    0  501  0.32477245393E+02  0.69681554978E+02 -0.14550531700E+03  0.23804639852E+03  0.17200000000E+03 0.  1.
</event>
<event>
 4    1  0.6365520E-002  0.3387524E+03  0.7818608E-02  0.1067329E+00
         -1   -1    0    0    0  501 -0.00000000000E+00  0.00000000000E+00  0.22810062180E+03  0.22810062180E+03  0.00000000000E+00 0.  1.
          1   -1    0    0  502    0  0.00000000000E+00 -0.00000000000E+00 -0.90739215072E+03  0.90739215072E+03  0.00000000000E+00 0. -1.
          6    1    1    2  502    0  0.14887204775E+03 -0.25101049963E+03 -0.71862426013E+03  0.79446459001E+03  0.17200000000E+03 0. -1.
         -6    1    1    2    0  501 -0.14887204775E+03  0.25101049963E+03  0.39332731212E+02  0.34102818252E+03  0.17200000000E+03 0.  1.
</event>
<event>
 4    1  0.6365520E-002  0.2518688E+03  0.7818608E-02  0.1112129E+00
          1   -1    0    0  502    0  0.00000000000E+00  0.00000000000E+00  0.10574402737E+04  0.10574402737E+04  0.00000000000E+00 0. -1.
         -1   -1    0    0    0  501 -0.00000000000E+00 -0.00000000000E+00 -0.44375222481E+03  0.44375222481E+03  0.00000000000E+00 0.  1.
          6    1    1    2  502    0 -0.17827747944E+03 -0.45508715222E+02  0.10048612289E+04  0.10359459407E+04  0.17200000000E+03 0. -1.
         -6    1    1    2    0  501  0.17827747944E+03  0.45508715222E+02 -0.39117317995E+03  0.46524655781E+03  0.17200000000E+03 0.  1.
</event>
<event>
 4    1  0.6365520E-002  0.2661561E+03  0.7818608E-02  0.1103500E+00
         -2   -1    0    0    0  501 -0.00000000000E+00  0.00000000000E+00  0.11899034584E+04  0.11899034584E+04  0.00000000000E+00 0.  1.
          2   -1    0    0  502    0  0.00000000000E+00 -0.00000000000E+00 -0.62302151901E+02  0.62302151901E+02  0.00000000000E+00 0. -1.
          6    1    1    2  502    0  0.13816229928E+03  0.14888334140E+03  0.43181357402E+03  0.50724947806E+03  0.17200000000E+03 0.  1.
         -6    1    1    2    0  501 -0.13816229928E+03 -0.14888334140E+03  0.69578773248E+03  0.74495613224E+03  0.17200000000E+03 0.  1.
</event>
<event>
 4    1  0.6365520E-002  0.1751776E+03  0.7818608E-02  0.1172554E+00
         -2   -1    0    0    0  501 -0.00000000000E+00  0.00000000000E+00  0.31329336884E+02  0.31329336884E+02  0.00000000000E+00 0.  1.
          2   -1    0    0  502    0  0.00000000000E+00 -0.00000000000E+00 -0.10620730569E+04  0.10620730569E+04  0.00000000000E+00 0. -1.
          6    1    1    2  502    0 -0.25922776262E+02  0.20764989605E+02 -0.66780678638E+03  0.69040066560E+03  0.17200000000E+03 0. -1.
         -6    1    1    2    0  501  0.25922776262E+02 -0.20764989605E+02 -0.36293693361E+03  0.40300172816E+03  0.17200000000E+03 0.  1.
</event>
<event>
 4    1  0.6365520E-002  0.2188060E+03  0.7818608E-02  0.1134776E+00
         -4   -1    0    0    0  501 -0.00000000000E+00  0.00000000000E+00  0.32684572992E+03  0.32684572992E+03  0.00000000000E+00 0.  1.
          4   -1    0    0  502    0  0.00000000000E+00 -0.00000000000E+00 -0.26320129838E+03  0.26320129838E+03  0.00000000000E+00 0. -1.
          6    1    1    2  502    0 -0.76366173512E+02 -0.11162552832E+03 -0.16464470841E+03  0.27383193940E+03  0.17200000000E+03 0. -1.
         -6    1    1    2    0  501  0.76366173512E+02  0.11162552832E+03  0.22828913995E+03  0.31621508890E+03  0.17200000000E+03 0.  1.
</event>
<event>
 4    1  0.6365520E-002  0.1799854E+03  0.7818608E-02  0.1167817E+00
          2   -1    0    0  502    0  0.00000000000E+00  0.00000000000E+00  0.26652225448E+02  0.26652225448E+02  0.00000000000E+00 0. -1.
         -2   -1    0    0    0  501 -0.00000000000E+00 -0.00000000000E+00 -0.14307843606E+04  0.14307843606E+04  0.00000000000E+00 0.  1.
          6    1    1    2  502    0 -0.53005732614E+02  0.10656526473E+01 -0.41937111675E+03  0.45636265937E+03  0.17200000000E+03 0. -1.
         -6    1    1    2    0  501  0.53005732614E+02 -0.10656526473E+01 -0.98476101839E+03  0.10010739267E+04  0.17200000000E+03 0.  1.
</event>
<event>
 4    1  0.6365520E-002  0.6445425E+03  0.7818608E-02  0.9817074E-01
         -1   -1    0    0    0  501 -0.00000000000E+00  0.00000000000E+00  0.77899345257E+03  0.77899345257E+03  0.00000000000E+00 0.  1.
          1   -1    0    0  502    0  0.00000000000E+00 -0.00000000000E+00 -0.53353462472E+03  0.53353462472E+03  0.00000000000E+00 0. -1.
          6    1    1    2  502    0  0.21302770515E+03 -0.58349828072E+03  0.10888619322E+03  0.65367518681E+03  0.17200000000E+03 0. -1.
         -6    1    1    2    0  501 -0.21302770515E+03  0.58349828072E+03  0.13657263462E+03  0.65885289048E+03  0.17200000000E+03 0.  1.
</event>
<event>
 4    1  0.6365520E-002  0.2661089E+03  0.7818608E-02  0.1103527E+00
         -4   -1    0    0    0  501 -0.00000000000E+00  0.00000000000E+00  0.18437174611E+04  0.18437174611E+04  0.00000000000E+00 0.  1.
          4   -1    0    0  502    0  0.00000000000E+00 -0.00000000000E+00 -0.44868749607E+02  0.44868749607E+02  0.00000000000E+00 0. -1.
          6    1    1    2  502    0 -0.19183690125E+03 -0.66547332571E+02  0.12577420030E+04  0.12855850381E+04  0.17200000000E+03 0. -1.
         -6    1    1    2    0  501  0.19183690125E+03  0.66547332571E+02  0.54110670851E+03  0.60300117259E+03  0.17200000000E+03 0.  1.
</event>
<event>
 4    1  0.6365520E-002  0.2858932E+03  0.7818608E-02  0.1092513E+00
          2   -1    0    0  502    0  0.00000000000E+00  0.00000000000E+00  0.33804099340E+03  0.33804099340E+03  0.00000000000E+00 0. -1.
         -2   -1    0    0    0  501 -0.00000000000E+00 -0.00000000000E+00 -0.32063286682E+03  0.32063286682E+03  0.00000000000E+00 0.  1.
          6    1    1    2  502    0  0.22739955938E+03  0.20985280421E+02  0.17201585280E+03  0.33365310610E+03  0.17200000000E+03 0. -1.
         -6    1    1    2    0  501 -0.22739955938E+03 -0.20985280421E+02 -0.15460772621E+03  0.32502075411E+03  0.17200000000E+03 0.  1.
</event>
<event>
 4    1  0.6365520E-002  0.2426797E+03  0.7818608E-02  0.1118020E+00
          1   -1    0    0  502    0  0.00000000000E+00  0.00000000000E+00  0.88634566801E+03  0.88634566801E+03  0.00000000000E+00 0. -1.
         -1   -1    0    0    0  501 -0.00000000000E+00 -0.00000000000E+00 -0.71378628804E+02  0.71378628804E+02  0.00000000000E+00 0.  1.
          6    1    1    2  502    0 -0.77810192245E+01 -0.17102308517E+03  0.53337594866E+03  0.58598920001E+03  0.17200000000E+03 0. -1.
         -6    1    1    2    0  501  0.77810192245E+01  0.17102308517E+03  0.28159109055E+03  0.37173509680E+03  0.17200000000E+03 0.  1.
</event>
<event>
 4    1  0.6365520E-002  0.2975286E+03  0.7818608E-02  0.1086483E+00
         -2   -1    0    0    0  501 -0.00000000000E+00  0.00000000000E+00  0.12565882416E+03  0.12565882416E+03  0.00000000000E+00 0.  1.
          2   -1    0    0  502    0  0.00000000000E+00 -0.00000000000E+00 -0.12961482846E+04  0.12961482846E+04  0.00000000000E+00 0. -1.
          6    1    1    2  502    0  0.23219484817E+03  0.70885892385E+02 -0.10655584924E+04  0.11063173858E+04  0.17200000000E+03 0. -1.
         -6    1    1    2    0  501 -0.23219484817E+03 -0.70885892385E+02 -0.10493096798E+03  0.31548972297E+03  0.17200000000E+03 0.  1.
</event>
<event>
 4    1  0.6365520E-002  0.5846271E+03  0.7818608E-02  0.9937823E-01
          2   -1    0    0  502    0  0.00000000000E+00  0.00000000000E+00  0.28249149983E+03  0.28249149983E+03  0.00000000000E+00 0. -1.
         -2   -1    0    0    0  501 -0.00000000000E+00 -0.00000000000E+00 -0.12170545663E+04  0.12170545663E+04  0.00000000000E+00 0.  1.
          6    1    1    2  502    0  0.47286832934E+03  0.29765821281E+03 -0.40982913985E+03  0.71396694070E+03  0.17200000000E+03 0. -1.
         -6    1    1    2    0  501 -0.47286832934E+03 -0.29765821281E+03 -0.52473392657E+03  0.78557912538E+03  0.17200000000E+03 0.  1.
</event>
<event>
 4    1  0.6365520E-002  0.2043604E+03  0.7818608E-02  0.1146111E+00
          4   -1    0    0  502    0  0.00000000000E+00  0.00000000000E+00  0.94121023029E+03  0.94121023029E+03  0.00000000000E+00 0. -1.
         -4   -1    0    0    0  501 -0.00000000000E+00 -0.00000000000E+00 -0.17127105042E+03  0.17127105042E+03  0.00000000000E+00 0.  1.
          6    1    1    2  502    0  0.43148009051E+02  0.10157478232E+03  0.86376532496E+03  0.88761124582E+03  0.17200000000E+03 0. -1.
         -6    1    1    2    0  501 -0.43148009051E+02 -0.10157478232E+03 -0.93826145093E+02  0.22487003489E+03  0.17200000000E+03 0.  1.
</event>
<event>
 4    1  0.6365520E-002  0.2719179E+03  0.7818608E-02  0.1100187E+00
          1   -1    0    0  502    0  0.00000000000E+00  0.00000000000E+00  0.35017919154E+03  0.35017919154E+03  0.00000000000E+00 0. -1.
         -1   -1    0    0    0  501 -0.00000000000E+00 -0.00000000000E+00 -0.24308270912E+03  0.24308270912E+03  0.00000000000E+00 0.  1.
          6    1    1    2  502    0 -0.10198102828E+03 -0.18426941401E+03  0.16106508838E+03  0.31604004456E+03  0.17200000000E+03 0.  1.
         -6    1    1    2    0  501  0.10198102828E+03  0.18426941401E+03 -0.53968605963E+02  0.27722185610E+03  0.17200000000E+03 0. -1.
</event>
<event>
 4    1  0.6365520E-002  0.1721691E+03  0.7818608E-02  0.1175605E+00
          1   -1    0    0  502    0  0.00000000000E+00  0.00000000000E+00  0.40786194581E+03  0.40786194581E+03  0.00000000000E+00 0. -1.
         -1   -1    0    0    0  501 -0.00000000000E+00 -0.00000000000E+00 -0.76931830186E+02  0.76931830186E+02  0.00000000000E+00 0.  1.
          6    1    1    2  502    0 -0.42990545326E+01  0.63017182955E+01  0.22247016428E+03  0.28130973591E+03  0.17200000000E+03 0. -1.
         -6    1    1    2    0  501  0.42990545326E+01 -0.63017182955E+01  0.10845995134E+03  0.20348404008E+03  0.17200000000E+03 0.  1.
</event>
<event>
 4    1  0.6365520E-002  0.2396564E+03  0.7818608E-02  0.1120022E+00
         -2   -1    0    0    0  501 -0.00000000000E+00  0.00000000000E+00  0.19955506945E+02  0.19955506945E+02  0.00000000000E+00 0.  1.
          2   -1    0    0  502    0  0.00000000000E+00 -0.00000000000E+00 -0.30013030553E+04  0.30013030553E+04  0.00000000000E+00 0. -1.
          6    1    1    2  502    0  0.15437166593E+03 -0.63408157419E+02 -0.17966602967E+04  0.18125737026E+04  0.17200000000E+03 0. -1.
         -6    1    1    2    0  501 -0.15437166593E+03  0.63408157419E+02 -0.11846872517E+04  0.12086848597E+04  0.17200000000E+03 0.  1.
</event>
<event>
 4    1  0.6365520E-002  0.3892376E+03  0.7818608E-02  0.1047571E+00
          2   -1    0    0  502    0  0.00000000000E+00  0.00000000000E+00  0.57184535585E+03  0.57184535585E+03  0.00000000000E+00 0. -1.
         -2   -1    0    0    0  501 -0.00000000000E+00 -0.00000000000E+00 -0.27429437968E+03  0.27429437968E+03  0.00000000000E+00 0.  1.
          6    1    1    2  502    0 -0.25801760635E+03 -0.23526330298E+03  0.70655442824E+02  0.39559840560E+03  0.17200000000E+03 0. -1.
         -6    1    1    2    0  501  0.25801760635E+03  0.23526330298E+03  0.22689553335E+03  0.45054132992E+03  0.17200000000E+03 0.  1.
</event>
<event>
 4    1  0.6365520E-002  0.1750293E+03  0.7818608E-02  0.1172702E+00
         -2   -1    0    0    0  501 -0.00000000000E+00  0.00000000000E+00  0.24364043867E+02  0.24364043867E+02  0.00000000000E+00 0.  1.
          2   -1    0    0  502    0  0.00000000000E+00 -0.00000000000E+00 -0.12832767963E+04  0.12832767963E+04  0.00000000000E+00 0. -1.
          6    1    1    2  502    0  0.25179426438E+02  0.20426879768E+02 -0.53660596959E+03  0.56443000233E+03  0.17200000000E+03 0.  1.
         -6    1    1    2    0  501 -0.25179426438E+02 -0.20426879768E+02 -0.72230678283E+03  0.74321083782E+03  0.17200000000E+03 0. -1.
</event>
<event>
 4    1  0.6365520E-002  0.3826236E+03  0.7818608E-02  0.1049968E+00
          2   -1    0    0  502    0  0.00000000000E+00  0.00000000000E+00  0.99508255799E+03  0.99508255799E+03  0.00000000000E+00 0. -1.
         -2   -1    0    0    0  501 -0.00000000000E+00 -0.00000000000E+00 -0.41058606908E+03  0.41058606908E+03  0.00000000000E+00 0.  1.
          6    1    1    2  502    0 -0.25491992724E+03 -0.22766778433E+03  0.85524991377E+03  0.93693820732E+03  0.17200000000E+03 0. -1.
         -6    1    1    2    0  501  0.25491992724E+03  0.22766778433E+03 -0.27075342487E+03  0.46873041975E+03  0.17200000000E+03 0.  1.
</event>
<event>
 4    1  0.6365520E-002  0.3002503E+03  0.7818608E-02  0.1085116E+00
          2   -1    0    0  502    0  0.00000000000E+00  0.00000000000E+00  0.64773416802E+03  0.64773416802E+03  0.00000000000E+00 0. -1.
         -2   -1    0    0    0  501 -0.00000000000E+00 -0.00000000000E+00 -0.14967709307E+03  0.14967709307E+03  0.00000000000E+00 0.  1.
          6    1    1    2  502    0  0.62564840464E+02 -0.23801659461E+03  0.35462597621E+03  0.46466099639E+03  0.17200000000E+03 0. -1.
         -6    1    1    2    0  501 -0.62564840464E+02  0.23801659461E+03  0.14343109874E+03  0.33275026470E+03  0.17200000000E+03 0.  1.
</event>
<event>
 4    1  0.6365520E-002  0.2010843E+03  0.7818608E-02  0.1148827E+00
         -2   -1    0    0    0  501 -0.00000000000E+00  0.00000000000E+00  0.63608405655E+03  0.63608405655E+03  0.00000000000E+00 0.  1.
          2   -1    0    0  502    0  0.00000000000E+00 -0.00000000000E+00 -0.93275282838E+02  0.93275282838E+02  0.00000000000E+00 0. -1.
          6    1    1    2  502    0  0.19837557835E+02 -0.10226128191E+03  0.65599254430E+02  0.21151397273E+03  0.17200000000E+03 0. -1.
         -6    1    1    2    0  501 -0.19837557835E+02  0.10226128191E+03  0.47720951928E+03  0.51784536666E+03  0.17200000000E+03 0.  1.
</event>
<event>
 4    1  0.6365520E-002  0.2325274E+03  0.7818608E-02  0.1124873E+00
          1   -1    0    0  502    0  0.00000000000E+00  0.00000000000E+00  0.11556901277E+04  0.11556901277E+04  0.00000000000E+00 0. -1.
         -1   -1    0    0    0  501 -0.00000000000E+00 -0.00000000000E+00 -0.46800901525E+02  0.46800901525E+02  0.00000000000E+00 0.  1.
          6    1    1    2  502    0 -0.14824131810E+03  0.50095008744E+02  0.56551651550E+03  0.61145558105E+03  0.17200000000E+03 0.  1.
         -6    1    1    2    0  501  0.14824131810E+03 -0.50095008744E+02  0.54337271064E+03  0.59103544815E+03  0.17200000000E+03 0. -1.
</event>
<event>
 4    1  0.6365520E-002  0.2293945E+03  0.7818608E-02  0.1127067E+00
         -2   -1    0    0    0  501 -0.00000000000E+00  0.00000000000E+00  0.30758662990E+02  0.30758662990E+02  0.00000000000E+00 0.  1.
          2   -1    0    0  502    0  0.00000000000E+00 -0.00000000000E+00 -0.17151817029E+04  0.17151817029E+04  0.00000000000E+00 0. -1.
          6    1    1    2  502    0  0.77826659641E+02 -0.13031056583E+03 -0.88634902158E+03  0.91555252202E+03  0.17200000000E+03 0.  1.
         -6    1    1    2    0  501 -0.77826659641E+02  0.13031056583E+03 -0.79807401833E+03  0.83038784387E+03  0.17200000000E+03 0. -1.
</event>
<event>
 4    1  0.6365520E-002  0.2207815E+03  0.7818608E-02  0.1133302E+00
          1   -1    0    0  502    0  0.00000000000E+00  0.00000000000E+00  0.65241710502E+02  0.65241710502E+02  0.00000000000E+00 0. -1.
         -1   -1    0    0    0  501 -0.00000000000E+00 -0.00000000000E+00 -0.76939897051E+03  0.76939897051E+03  0.00000000000E+00 0.  1.
          6    1    1    2  502    0 -0.83195269043E+02  0.11063012232E+03 -0.42306556258E+03  0.47720954203E+03  0.17200000000E+03 0. -1.
         -6    1    1    2    0  501  0.83195269043E+02 -0.11063012232E+03 -0.28109169742E+03  0.35743113899E+03  0.17200000000E+03 0. -1.
</event>
<event>
 4    1  0.6365520E-002  0.2091977E+03  0.7818608E-02  0.1142203E+00
          1   -1    0    0  502    0  0.00000000000E+00  0.00000000000E+00  0.64238494183E+03  0.64238494183E+03  0.00000000000E+00 0. -1.
         -1   -1    0    0    0  501 -0.00000000000E+00 -0.00000000000E+00 -0.76096470314E+02  0.76096470314E+02  0.00000000000E+00 0.  1.
          6    1    1    2  502    0 -0.38078209527E+02  0.11282613490E+03  0.16688671028E+03  0.26760953052E+03  0.17200000000E+03 0.  1.
         -6    1    1    2    0  501  0.38078209527E+02 -0.11282613490E+03  0.39940176124E+03  0.45087188162E+03  0.17200000000E+03 0. -1.
</event>
<event>
 4    1  0.6365520E-002  0.4709838E+03  0.7818608E-02  0.1021643E+00
         -2   -1    0    0    0  501 -0.00000000000E+00  0.00000000000E+00  0.16633915177E+03  0.16633915177E+03  0.00000000000E+00 0.  1.
          2   -1    0    0  502    0  0.00000000000E+00 -0.00000000000E+00 -0.13716182897E+04  0.13716182897E+04  0.00000000000E+00 0. -1.
          6    1    1    2  502    0 -0.39955266006E+03  0.18055317066E+03 -0.73070599932E+03  0.86934287427E+03  0.17200000000E+03 0. -1.
         -6    1    1    2    0  501  0.39955266006E+03 -0.18055317066E+03 -0.47457313863E+03  0.66861456722E+03  0.17200000000E+03 0.  1.
</event>
<event>
 4    1  0.6365520E-002  0.5045142E+03  0.7818608E-02  0.1012607E+00
         -2   -1    0    0    0  501 -0.00000000000E+00  0.00000000000E+00  0.14302580429E+04  0.14302580429E+04  0.00000000000E+00 0.  1.
          2   -1    0    0  502    0  0.00000000000E+00 -0.00000000000E+00 -0.55023764790E+03  0.55023764790E+03  0.00000000000E+00 0. -1.
          6    1    1    2  502    0 -0.29478471130E+03  0.37155424818E+03 -0.37450622347E+03  0.62832276481E+03  0.17200000000E+03 0. -1.
         -6    1    1    2    0  501  0.29478471130E+03 -0.37155424818E+03  0.12545266185E+04  0.13521729260E+04  0.17200000000E+03 0.  1.
</event>
<event>
 4    1  0.6365520E-002  0.2273735E+03  0.7818608E-02  0.1128502E+00
         -2   -1    0    0    0  501 -0.00000000000E+00  0.00000000000E+00  0.64752633135E+02  0.64752633135E+02  0.00000000000E+00 0.  1.
          2   -1    0    0  502    0  0.00000000000E+00 -0.00000000000E+00 -0.99027135460E+03  0.99027135460E+03  0.00000000000E+00 0. -1.
          6    1    1    2  502    0  0.87264061112E+01 -0.14845389759E+03 -0.69495639746E+03  0.73120660845E+03  0.17200000000E+03 0. -1.
         -6    1    1    2    0  501 -0.87264061112E+01  0.14845389759E+03 -0.23056232400E+03  0.32381737928E+03  0.17200000000E+03 0.  1.
</event>
<event>
 4    1  0.6365520E-002  0.2725620E+03  0.7818608E-02  0.1099822E+00
          2   -1    0    0  502    0  0.00000000000E+00  0.00000000000E+00  0.69851405735E+03  0.69851405735E+03  0.00000000000E+00 0. -1.
         -2   -1    0    0    0  501 -0.00000000000E+00 -0.00000000000E+00 -0.11443900703E+03  0.11443900703E+03  0.00000000000E+00 0.  1.
          6    1    1    2  502    0 -0.19408792973E+03  0.83880486448E+02  0.18399935012E+03  0.32885531974E+03  0.17200000000E+03 0. -1.
         -6    1    1    2    0  501  0.19408792973E+03 -0.83880486448E+02  0.40007570020E+03  0.48409774464E+03  0.17200000000E+03 0.  1.
</event>
<event>
 4    1  0.6365520E-002  0.2185424E+03  0.7818608E-02  0.1134974E+00
         -1   -1    0    0    0  501 -0.00000000000E+00  0.00000000000E+00  0.61027724735E+03  0.61027724735E+03  0.00000000000E+00 0.  1.
          1   -1    0    0  502    0  0.00000000000E+00 -0.00000000000E+00 -0.82364776209E+02  0.82364776209E+02  0.00000000000E+00 0. -1.
          6    1    1    2  502    0  0.28873087528E+02 -0.13169331191E+03  0.18665068599E+03  0.28740087364E+03  0.17200000000E+03 0. -1.
         -6    1    1    2    0  501 -0.28873087528E+02  0.13169331191E+03  0.34126178514E+03  0.40524114992E+03  0.17200000000E+03 0.  1.
</event>
<event>
 4    1  0.6365520E-002  0.1917308E+03  0.7818608E-02  0.1156909E+00
         -2   -1    0    0    0  501 -0.00000000000E+00  0.00000000000E+00  0.42647326305E+02  0.42647326305E+02  0.00000000000E+00 0.  1.
          2   -1    0    0  502    0  0.00000000000E+00 -0.00000000000E+00 -0.12849879752E+04  0.12849879752E+04  0.00000000000E+00 0. -1.
          6    1    1    2  502    0 -0.64762008186E+02 -0.54613146502E+02 -0.10020420240E+04  0.10202200407E+04  0.17200000000E+03 0. -1.
         -6    1    1    2    0  501  0.64762008186E+02  0.54613146502E+02 -0.24029862485E+03  0.30741526081E+03  0.17200000000E+03 0.  1.
</event>
<event>
 4    1  0.6365520E-002  0.2322091E+03  0.7818608E-02  0.1125095E+00
          2   -1    0    0  502    0  0.00000000000E+00  0.00000000000E+00  0.20043369806E+04  0.20043369806E+04  0.00000000000E+00 0. -1.
         -2   -1    0    0    0  501 -0.00000000000E+00 -0.00000000000E+00 -0.31921275198E+02  0.31921275198E+02  0.00000000000E+00 0.  1.
          6    1    1    2  502    0 -0.44484146959E+02  0.14952664232E+03  0.13899229504E+04  0.14091865966E+04  0.17200000000E+03 0. -1.
         -6    1    1    2    0  501  0.44484146959E+02 -0.14952664232E+03  0.58249275503E+03  0.62707165919E+03  0.17200000000E+03 0.  1.
</event>
<event>
 4    1  0.6365520E-002  0.2263257E+03  0.7818608E-02  0.1129253E+00
         -2   -1    0    0    0  501 -0.00000000000E+00  0.00000000000E+00  0.54064972487E+02  0.54064972487E+02  0.00000000000E+00 0.  1.
          2   -1    0    0  502    0  0.00000000000E+00 -0.00000000000E+00 -0.23131045425E+04  0.23131045425E+04  0.00000000000E+00 0. -1.
          6    1    1    2  502    0 -0.53675879460E+02 -0.13696067422E+03 -0.20389590980E+04  0.20514817888E+04  0.17200000000E+03 0. -1.
         -6    1    1    2    0  501  0.53675879460E+02  0.13696067422E+03 -0.22008047197E+03  0.31568772618E+03  0.17200000000E+03 0.  1.
</event>
<event>
 4    1  0.6365520E-002  0.2000464E+03  0.7818608E-02  0.1149700E+00
          2   -1    0    0  502    0  0.00000000000E+00  0.00000000000E+00  0.69813047644E+03  0.69813047644E+03  0.00000000000E+00 0. -1.
         -2   -1    0    0    0  501 -0.00000000000E+00 -0.00000000000E+00 -0.60829101060E+02  0.60829101060E+02  0.00000000000E+00 0.  1.
          6    1    1    2  502    0 -0.65942390724E+02 -0.78013951442E+02  0.40976296556E+03  0.45598713081E+03  0.17200000000E+03 0.  1.
         -6    1    1    2    0  501  0.65942390724E+02  0.78013951442E+02  0.22753840982E+03  0.30297244670E+03  0.17200000000E+03 0.  1.
</event>
<event>
 4    1  0.6365520E-002  0.3474048E+03  0.7818608E-02  0.1063685E+00
          2   -1    0    0  502    0  0.00000000000E+00  0.00000000000E+00  0.21005129485E+04  0.21005129485E+04  0.00000000000E+00 0. -1.
         -2   -1    0    0    0  501 -0.00000000000E+00 -0.00000000000E+00 -0.12682914209E+03  0.12682914209E+03  0.00000000000E+00 0.  1.
          6    1    1    2  502    0  0.22864876575E+02 -0.30097059835E+03  0.18104840576E+04  0.18435136632E+04  0.17200000000E+03 0. -1.
         -6    1    1    2    0  501 -0.22864876575E+02  0.30097059835E+03  0.16319974883E+03  0.38382842739E+03  0.17200000000E+03 0.  1.
</event>
<event>
 4    1  0.6365520E-002  0.2370389E+03  0.7818608E-02  0.1121781E+00
          2   -1    0    0  502    0  0.00000000000E+00  0.00000000000E+00  0.27831789338E+04  0.27831789338E+04  0.00000000000E+00 0. -1.
         -2   -1    0    0    0  501 -0.00000000000E+00 -0.00000000000E+00 -0.50475932127E+02  0.50475932127E+02  0.00000000000E+00 0.  1.
          6    1    1    2  502    0 -0.16296480099E+03 -0.67750562521E+01  0.24638603231E+04  0.24752363765E+04  0.17200000000E+03 0. -1.
         -6    1    1    2    0  501  0.16296480099E+03  0.67750562521E+01  0.26884267856E+03  0.35841848943E+03  0.17200000000E+03 0.  1.
</event>
<event>
 4    1  0.6365520E-002  0.1917444E+03  0.7818608E-02  0.1156897E+00
         -1   -1    0    0    0  501 -0.00000000000E+00  0.00000000000E+00  0.12878799288E+03  0.12878799288E+03  0.00000000000E+00 0.  1.
          1   -1    0    0  502    0  0.00000000000E+00 -0.00000000000E+00 -0.87880332680E+03  0.87880332680E+03  0.00000000000E+00 0. -1.
          6    1    1    2  502    0 -0.52774791165E+02  0.66308010600E+02 -0.78896502795E+03  0.81193087525E+03  0.17200000000E+03 0. -1.
         -6    1    1    2    0  501  0.52774791165E+02 -0.66308010600E+02  0.38949694024E+02  0.19566044444E+03  0.17200000000E+03 0.  1.
</event>
<event>
 4    1  0.6365520E-002  0.2965596E+03  0.7818608E-02  0.1086973E+00
          2   -1    0    0  502    0  0.00000000000E+00  0.00000000000E+00  0.38042796194E+03  0.38042796194E+03  0.00000000000E+00 0. -1.
         -2   -1    0    0    0  501 -0.00000000000E+00 -0.00000000000E+00 -0.44932414644E+03  0.44932414644E+03  0.00000000000E+00 0.  1.
          6    1    1    2  502    0  0.22124494512E+03  0.97027246792E+02  0.25462625217E+03  0.39087356096E+03  0.17200000000E+03 0. -1.
         -6    1    1    2    0  501 -0.22124494512E+03 -0.97027246792E+02 -0.32352243667E+03  0.43887854743E+03  0.17200000000E+03 0.  1.
</event>
<event>
 4    1  0.6365520E-002  0.2543934E+03  0.7818608E-02  0.1110559E+00
         -1   -1    0    0    0  501 -0.00000000000E+00  0.00000000000E+00  0.33178462856E+02  0.33178462856E+02  0.00000000000E+00 0.  1.
          1   -1    0    0  502    0  0.00000000000E+00 -0.00000000000E+00 -0.19868735774E+04  0.19868735774E+04  0.00000000000E+00 0. -1.
          6    1    1    2  502    0  0.15701489043E+03 -0.10236361792E+03 -0.11134282870E+04  0.11421201935E+04  0.17200000000E+03 0. -1.
         -6    1    1    2    0  501 -0.15701489043E+03  0.10236361792E+03 -0.84026682753E+03  0.87793184675E+03  0.17200000000E+03 0.  1.
</event>
<event>
 4    1  0.6365520E-002  0.3534396E+03  0.7818608E-02  0.1061212E+00
         -1   -1    0    0    0  501 -0.00000000000E+00  0.00000000000E+00  0.90827253692E+02  0.90827253692E+02  0.00000000000E+00 0.  1.
          1   -1    0    0  502    0  0.00000000000E+00 -0.00000000000E+00 -0.14972652747E+04  0.14972652747E+04  0.00000000000E+00 0. -1.
          6    1    1    2  502    0  0.30872204714E+03 -0.51260358955E+01 -0.47664019144E+03  0.59338474089E+03  0.17200000000E+03 0.  1.
         -6    1    1    2    0  501 -0.30872204714E+03  0.51260358955E+01 -0.92979782954E+03  0.99470778746E+03  0.17200000000E+03 0.  1.
</event>
<event>
 4    1  0.6365520E-002  0.2628531E+03  0.7818608E-02  0.1105441E+00
         -2   -1    0    0    0  501 -0.00000000000E+00  0.00000000000E+00  0.53917548082E+03  0.53917548082E+03  0.00000000000E+00 0.  1.
          2   -1    0    0  502    0  0.00000000000E+00 -0.00000000000E+00 -0.16567431552E+03  0.16567431552E+03  0.00000000000E+00 0. -1.
          6    1    1    2  502    0 -0.19802139386E+03  0.17183854803E+02  0.19011676734E+02  0.26353975249E+03  0.17200000000E+03 0. -1.
         -6    1    1    2    0  501  0.19802139386E+03 -0.17183854803E+02  0.35448948857E+03  0.44131004384E+03  0.17200000000E+03 0.  1.
</event>
<event>
 4    1  0.6365520E-002  0.1834241E+03  0.7818608E-02  0.1164530E+00
          2   -1    0    0  502    0  0.00000000000E+00  0.00000000000E+00  0.16965503737E+04  0.16965503737E+04  0.00000000000E+00 0. -1.
         -2   -1    0    0    0  501 -0.00000000000E+00 -0.00000000000E+00 -0.30458825298E+02  0.30458825298E+02  0.00000000000E+00 0.  1.
          6    1    1    2  502    0 -0.51597267848E+02 -0.37391437893E+02  0.13431148480E+04  0.13555817543E+04  0.17200000000E+03 0. -1.
         -6    1    1    2    0  501  0.51597267848E+02  0.37391437893E+02  0.32297670047E+03  0.37142744476E+03  0.17200000000E+03 0.  1.
</event>
<event>
 4    1  0.6365520E-002  0.6186254E+03  0.7818608E-02  0.9867500E-01
         -2   -1    0    0    0  501 -0.00000000000E+00  0.00000000000E+00  0.48696830651E+03  0.48696830651E+03  0.00000000000E+00 0.  1.
          2   -1    0    0  502    0  0.00000000000E+00 -0.00000000000E+00 -0.92056701582E+03  0.92056701582E+03  0.00000000000E+00 0. -1.
          6    1    1    2  502    0 -0.44673246576E+03 -0.39184619335E+03  0.52396785787E+02  0.62084036464E+03  0.17200000000E+03 0.  1.
         -6    1    1    2    0  501  0.44673246576E+03  0.39184619335E+03 -0.48599549510E+03  0.78669495770E+03  0.17200000000E+03 0. -1.
</event>
<event>
 4    1  0.6365520E-002  0.1931329E+03  0.7818608E-02  0.1155666E+00
         -2   -1    0    0    0  501 -0.00000000000E+00  0.00000000000E+00  0.13028584254E+03  0.13028584254E+03  0.00000000000E+00 0.  1.
          2   -1    0    0  502    0  0.00000000000E+00 -0.00000000000E+00 -0.61142255754E+03  0.61142255754E+03  0.00000000000E+00 0. -1.
          6    1    1    2  502    0  0.14290827288E+02  0.86672251772E+02 -0.51100076858E+03  0.54628023254E+03  0.17200000000E+03 0. -1.
         -6    1    1    2    0  501 -0.14290827288E+02 -0.86672251772E+02  0.29864053580E+02  0.19542816754E+03  0.17200000000E+03 0.  1.
</event>
<event>
 4    1  0.6365520E-002  0.1967405E+03  0.7818608E-02  0.1152519E+00
          2   -1    0    0  502    0  0.00000000000E+00  0.00000000000E+00  0.27069386165E+03  0.27069386165E+03  0.00000000000E+00 0. -1.
         -2   -1    0    0    0  501 -0.00000000000E+00 -0.00000000000E+00 -0.14784491639E+03  0.14784491639E+03  0.00000000000E+00 0.  1.
          6    1    1    2  502    0  0.10482011095E+02 -0.94936604586E+02  0.99342098622E+02  0.22039892016E+03  0.17200000000E+03 0. -1.
         -6    1    1    2    0  501 -0.10482011095E+02  0.94936604586E+02  0.23506846638E+02  0.19813985789E+03  0.17200000000E+03 0.  1.
</event>
<event>
 4    1  0.6365520E-002  0.2158789E+03  0.7818608E-02  0.1136993E+00
          2   -1    0    0  502    0  0.00000000000E+00  0.00000000000E+00  0.17694104298E+04  0.17694104298E+04  0.00000000000E+00 0. -1.
         -2   -1    0    0    0  501 -0.00000000000E+00 -0.00000000000E+00 -0.26462967123E+02  0.26462967123E+02  0.00000000000E+00 0.  1.
          6    1    1    2  502    0  0.12831376520E+03  0.23564327317E+02  0.80990337399E+03  0.83818087252E+03  0.17200000000E+03 0. -1.
         -6    1    1    2    0  501 -0.12831376520E+03 -0.23564327317E+02  0.93304408872E+03  0.95769252444E+03  0.17200000000E+03 0. -1.
</event>
<event>
 4    1  0.6365520E-002  0.4169309E+03  0.7818608E-02  0.1038070E+00
         -2   -1    0    0    0  501 -0.00000000000E+00  0.00000000000E+00  0.13245132277E+03  0.13245132277E+03  0.00000000000E+00 0.  1.
          2   -1    0    0  502    0  0.00000000000E+00 -0.00000000000E+00 -0.13479225773E+04  0.13479225773E+04  0.00000000000E+00 0. -1.
          6    1    1    2  502    0 -0.35276756346E+03  0.14072117102E+03 -0.48760446917E+03  0.64155242978E+03  0.17200000000E+03 0. -1.
         -6    1    1    2    0  501  0.35276756346E+03 -0.14072117102E+03 -0.72786678539E+03  0.83882147033E+03  0.17200000000E+03 0.  1.
</event>
<event>
 4    1  0.6365520E-002  0.7345380E+03  0.7818608E-02  0.9659925E-01
          1   -1    0    0  502    0  0.00000000000E+00  0.00000000000E+00  0.65821694569E+03  0.65821694569E+03  0.00000000000E+00 0. -1.
         -1   -1    0    0    0  501 -0.00000000000E+00 -0.00000000000E+00 -0.82694199186E+03  0.82694199186E+03  0.00000000000E+00 0.  1.
          6    1    1    2  502    0 -0.13073623609E+03 -0.70204708498E+03 -0.14911725742E+02  0.73468934423E+03  0.17200000000E+03 0. -1.
         -6    1    1    2    0  501  0.13073623609E+03  0.70204708498E+03 -0.15381332043E+03  0.75046959332E+03  0.17200000000E+03 0.  1.
</event>
<event>
 4    1  0.6365520E-002  0.1762772E+03  0.7818608E-02  0.1171455E+00
         -2   -1    0    0    0  501 -0.00000000000E+00  0.00000000000E+00  0.15277902988E+03  0.15277902988E+03  0.00000000000E+00 0.  1.
          2   -1    0    0  502    0  0.00000000000E+00 -0.00000000000E+00 -0.45852852334E+03  0.45852852334E+03  0.00000000000E+00 0. -1.
          6    1    1    2  502    0 -0.30642227607E+02  0.23467402517E+02 -0.38087480130E+03  0.41968950351E+03  0.17200000000E+03 0. -1.
         -6    1    1    2    0  501  0.30642227607E+02 -0.23467402517E+02  0.75125307844E+02  0.19161804970E+03  0.17200000000E+03 0.  1.
</event>
<event>
 4    1  0.6365520E-002  0.2180869E+03  0.7818608E-02  0.1135317E+00
          2   -1    0    0  502    0  0.00000000000E+00  0.00000000000E+00  0.52170525173E+03  0.52170525173E+03  0.00000000000E+00 0. -1.
         -2   -1    0    0    0  501 -0.00000000000E+00 -0.00000000000E+00 -0.94943969303E+02  0.94943969303E+02  0.00000000000E+00 0.  1.
          6    1    1    2  502    0 -0.45943107901E+02  0.12596483153E+03  0.27488270982E+03  0.35088803357E+03  0.17200000000E+03 0. -1.
         -6    1    1    2    0  501  0.45943107901E+02 -0.12596483153E+03  0.15187857261E+03  0.26576118747E+03  0.17200000000E+03 0.  1.
</event>
<event>
 4    1  0.6365520E-002  0.2404802E+03  0.7818608E-02  0.1119473E+00
          4   -1    0    0  502    0  0.00000000000E+00  0.00000000000E+00  0.40459881046E+02  0.40459881046E+02  0.00000000000E+00 0. -1.
         -4   -1    0    0    0  501 -0.00000000000E+00 -0.00000000000E+00 -0.15397097241E+04  0.15397097241E+04  0.00000000000E+00 0.  1.
          6    1    1    2  502    0  0.16296743109E+03  0.41089366330E+02 -0.96116336960E+03  0.99079046356E+03  0.17200000000E+03 0. -1.
         -6    1    1    2    0  501 -0.16296743109E+03 -0.41089366330E+02 -0.53808647345E+03  0.58937914158E+03  0.17200000000E+03 0. -1.
</event>
<event>
 4    1  0.6365520E-002  0.1738051E+03  0.7818608E-02  0.1173937E+00
          2   -1    0    0  502    0  0.00000000000E+00  0.00000000000E+00  0.64545403983E+03  0.64545403983E+03  0.00000000000E+00 0. -1.
         -2   -1    0    0    0  501 -0.00000000000E+00 -0.00000000000E+00 -0.62738265912E+02  0.62738265912E+02  0.00000000000E+00 0.  1.
          6    1    1    2  502    0 -0.51907932355E+01  0.24439255821E+02  0.11289210521E+03  0.20725069114E+03  0.17200000000E+03 0.  1.
         -6    1    1    2    0  501  0.51907932355E+01 -0.24439255821E+02  0.46982366871E+03  0.50094161461E+03  0.17200000000E+03 0. -1.
</event>
<event>
 4    1  0.6365520E-002  0.2250304E+03  0.7818608E-02  0.1130187E+00
         -2   -1    0    0    0  501 -0.00000000000E+00  0.00000000000E+00  0.78530397869E+02  0.78530397869E+02  0.00000000000E+00 0.  1.
          2   -1    0    0  502    0  0.00000000000E+00 -0.00000000000E+00 -0.69040923236E+03  0.69040923236E+03  0.00000000000E+00 0. -1.
          6    1    1    2  502    0  0.70468498455E+02  0.12684199855E+03 -0.20715333352E+03  0.30586141544E+03  0.17200000000E+03 0.  1.
         -6    1    1    2    0  501 -0.70468498455E+02 -0.12684199855E+03 -0.40472550098E+03  0.46307821479E+03  0.17200000000E+03 0. -1.
</event>
<event>
 4    1  0.6365520E-002  0.1831867E+03  0.7818608E-02  0.1164754E+00
         -2   -1    0    0    0  501 -0.00000000000E+00  0.00000000000E+00  0.12882196335E+03  0.12882196335E+03  0.00000000000E+00 0.  1.
          2   -1    0    0  502    0  0.00000000000E+00 -0.00000000000E+00 -0.28354149159E+03  0.28354149159E+03  0.00000000000E+00 0. -1.
          6    1    1    2  502    0  0.59807908982E+02 -0.19909006690E+02 -0.13614296866E+03  0.22823729414E+03  0.17200000000E+03 0. -1.
         -6    1    1    2    0  501 -0.59807908982E+02  0.19909006690E+02 -0.18576559588E+02  0.18412616080E+03  0.17200000000E+03 0. -1.
</event>
<event>
 4    1  0.6365520E-002  0.2391516E+03  0.7818608E-02  0.1120359E+00
          2   -1    0    0  502    0  0.00000000000E+00  0.00000000000E+00  0.10223987706E+04  0.10223987706E+04  0.00000000000E+00 0. -1.
         -2   -1    0    0    0  501 -0.00000000000E+00 -0.00000000000E+00 -0.56571110181E+02  0.56571110181E+02  0.00000000000E+00 0.  1.
          6    1    1    2  502    0  0.12423566684E+03  0.11034041978E+03  0.42595528981E+03  0.48849914849E+03  0.17200000000E+03 0.  1.
         -6    1    1    2    0  501 -0.12423566684E+03 -0.11034041978E+03  0.53987237059E+03  0.59047073228E+03  0.17200000000E+03 0.  1.
</event>
<event>
 4    1  0.6365520E-002  0.2210958E+03  0.7818608E-02  0.1133069E+00
          1   -1    0    0  502    0  0.00000000000E+00  0.00000000000E+00  0.86705177654E+03  0.86705177654E+03  0.00000000000E+00 0. -1.
         -1   -1    0    0    0  501 -0.00000000000E+00 -0.00000000000E+00 -0.76049800301E+02  0.76049800301E+02  0.00000000000E+00 0.  1.
          6    1    1    2  502    0  0.87353767230E+02 -0.10802164898E+03  0.15567710972E+03  0.27040473330E+03  0.17200000000E+03 0.  1.
         -6    1    1    2    0  501 -0.87353767230E+02  0.10802164898E+03  0.63532486652E+03  0.67269684354E+03  0.17200000000E+03 0. -1.
</event>
<event>
 4    1  0.6365520E-002  0.1985427E+03  0.7818608E-02  0.1150974E+00
         -2   -1    0    0    0  501 -0.00000000000E+00  0.00000000000E+00  0.25693585504E+03  0.25693585504E+03  0.00000000000E+00 0.  1.
          2   -1    0    0  502    0  0.00000000000E+00 -0.00000000000E+00 -0.27472805614E+03  0.27472805614E+03  0.00000000000E+00 0. -1.
          6    1    1    2  502    0  0.80928828430E+02 -0.57321162263E+02 -0.18554049493E+03  0.27174338294E+03  0.17200000000E+03 0. -1.
         -6    1    1    2    0  501 -0.80928828430E+02  0.57321162263E+02  0.16774829383E+03  0.25992052823E+03  0.17200000000E+03 0.  1.
</event>
<event>
 4    1  0.6365520E-002  0.5858875E+03  0.7818608E-02  0.9935125E-01
         -1   -1    0    0    0  501 -0.00000000000E+00  0.00000000000E+00  0.28220636960E+03  0.28220636960E+03  0.00000000000E+00 0.  1.
          1   -1    0    0  502    0  0.00000000000E+00 -0.00000000000E+00 -0.12686260166E+04  0.12686260166E+04  0.00000000000E+00 0. -1.
          6    1    1    2  502    0  0.56007099057E+03  0.83453928204E+00 -0.65060180432E+03  0.87552665220E+03  0.17200000000E+03 0. -1.
         -6    1    1    2    0  501 -0.56007099057E+03 -0.83453928204E+00 -0.33581784270E+03  0.67530573402E+03  0.17200000000E+03 0.  1.
</event>
<event>
 4    1  0.6365520E-002  0.2242872E+03  0.7818608E-02  0.1130727E+00
          1   -1    0    0  502    0  0.00000000000E+00  0.00000000000E+00  0.87962942605E+03  0.87962942605E+03  0.00000000000E+00 0. -1.
         -1   -1    0    0    0  501 -0.00000000000E+00 -0.00000000000E+00 -0.59109094795E+02  0.59109094795E+02  0.00000000000E+00 0.  1.
          6    1    1    2  502    0 -0.67455470320E+02  0.12716323711E+03  0.49486593430E+03  0.54332036799E+03  0.17200000000E+03 0. -1.
         -6    1    1    2    0  501  0.67455470320E+02 -0.12716323711E+03  0.32565439695E+03  0.39541815285E+03  0.17200000000E+03 0.  1.
</event>
<event>
 4    1  0.6365520E-002  0.1969431E+03  0.7818608E-02  0.1152344E+00
          4   -1    0    0  502    0  0.00000000000E+00  0.00000000000E+00  0.11577854521E+03  0.11577854521E+03  0.00000000000E+00 0. -1.
         -4   -1    0    0    0  501 -0.00000000000E+00 -0.00000000000E+00 -0.42295471065E+03  0.42295471065E+03  0.00000000000E+00 0.  1.
          6    1    1    2  502    0  0.78400483431E+00 -0.95926812845E+02 -0.30756428976E+02  0.19933019342E+03  0.17200000000E+03 0. -1.
         -6    1    1    2    0  501 -0.78400483431E+00  0.95926812845E+02 -0.27641973647E+03  0.33940306244E+03  0.17200000000E+03 0.  1.
</event>
<event>
 4    1  0.6365520E-002  0.2760947E+03  0.7818608E-02  0.1097841E+00
         -1   -1    0    0    0  501 -0.00000000000E+00  0.00000000000E+00  0.24991584411E+03  0.24991584411E+03  0.00000000000E+00 0.  1.
          1   -1    0    0  502    0  0.00000000000E+00 -0.00000000000E+00 -0.30626877885E+03  0.30626877885E+03  0.00000000000E+00 0. -1.
          6    1    1    2  502    0 -0.18963227958E+03 -0.10336277050E+03 -0.45964237714E+02  0.27989457824E+03  0.17200000000E+03 0. -1.
         -6    1    1    2    0  501  0.18963227958E+03  0.10336277050E+03 -0.10388697027E+02  0.27629004471E+03  0.17200000000E+03 0. -1.
</event>
<event>
 4    1  0.6365520E-002  0.8857823E+03  0.7818608E-02  0.9443531E-01
          2   -1    0    0  502    0  0.00000000000E+00  0.00000000000E+00  0.12475267888E+04  0.12475267888E+04  0.00000000000E+00 0. -1.
         -2   -1    0    0    0  501 -0.00000000000E+00 -0.00000000000E+00 -0.81321683826E+03  0.81321683826E+03  0.00000000000E+00 0.  1.
          6    1    1    2  502    0 -0.61788202500E+03 -0.61094033750E+03  0.70765028616E+03  0.11337456594E+04  0.17200000000E+03 0. -1.
         -6    1    1    2    0  501  0.61788202500E+03  0.61094033750E+03 -0.27334033565E+03  0.92699796758E+03  0.17200000000E+03 0.  1.
</event>
<event>
 4    1  0.6365520E-002  0.1895911E+03  0.7818608E-02  0.1158831E+00
         -2   -1    0    0    0  501 -0.00000000000E+00  0.00000000000E+00  0.66282248327E+02  0.66282248327E+02  0.00000000000E+00 0.  1.
          2   -1    0    0  502    0  0.00000000000E+00 -0.00000000000E+00 -0.88368736746E+03  0.88368736746E+03  0.00000000000E+00 0. -1.
          6    1    1    2  502    0  0.45263526095E+02 -0.65665739495E+02 -0.70392879951E+03  0.72901339557E+03  0.17200000000E+03 0. -1.
         -6    1    1    2    0  501 -0.45263526095E+02  0.65665739495E+02 -0.11347631962E+03  0.22095622022E+03  0.17200000000E+03 0.  1.
</event>
<event>
 4    1  0.6365520E-002  0.2107117E+03  0.7818608E-02  0.1141004E+00
         -2   -1    0    0    0  501 -0.00000000000E+00  0.00000000000E+00  0.56743018611E+02  0.56743018611E+02  0.00000000000E+00 0.  1.
          2   -1    0    0  502    0  0.00000000000E+00 -0.00000000000E+00 -0.19772677402E+04  0.19772677402E+04  0.00000000000E+00 0. -1.
          6    1    1    2  502    0 -0.40430818021E+02 -0.11480746155E+03 -0.17508293653E+04  0.17634633171E+04  0.17200000000E+03 0. -1.
         -6    1    1    2    0  501  0.40430818021E+02  0.11480746155E+03 -0.16969535624E+03  0.27054744168E+03  0.17200000000E+03 0.  1.
</event>
<event>
 4    1  0.6365520E-002  0.2344590E+03  0.7818608E-02  0.1123540E+00
         -2   -1    0    0    0  501 -0.00000000000E+00  0.00000000000E+00  0.12489939934E+03  0.12489939934E+03  0.00000000000E+00 0.  1.
          2   -1    0    0  502    0  0.00000000000E+00 -0.00000000000E+00 -0.47183914744E+03  0.47183914744E+03  0.00000000000E+00 0. -1.
          6    1    1    2  502    0 -0.80565363795E+02  0.13746367217E+03 -0.25082704477E+03  0.34334420834E+03  0.17200000000E+03 0. -1.
         -6    1    1    2    0  501  0.80565363795E+02 -0.13746367217E+03 -0.96112703328E+02  0.25339433843E+03  0.17200000000E+03 0.  1.
</event>
<event>
 4    1  0.6365520E-002  0.1868344E+03  0.7818608E-02  0.1161348E+00
          2   -1    0    0  502    0  0.00000000000E+00  0.00000000000E+00  0.87819169743E+03  0.87819169743E+03  0.00000000000E+00 0. -1.
         -2   -1    0    0    0  501 -0.00000000000E+00 -0.00000000000E+00 -0.40542990297E+02  0.40542990297E+02  0.00000000000E+00 0.  1.
          6    1    1    2  502    0 -0.24331299761E+02 -0.68782911353E+02  0.48311586737E+03  0.51798459663E+03  0.17200000000E+03 0.  1.
         -6    1    1    2    0  501  0.24331299761E+02  0.68782911353E+02  0.35453283976E+03  0.40075009109E+03  0.17200000000E+03 0.  1.
</event>
<event>
 4    1  0.6365520E-002  0.2152639E+03  0.7818608E-02  0.1137464E+00
         -2   -1    0    0    0  501 -0.00000000000E+00  0.00000000000E+00  0.80931391757E+02  0.80931391757E+02  0.00000000000E+00 0.  1.
          2   -1    0    0  502    0  0.00000000000E+00 -0.00000000000E+00 -0.87394910369E+03  0.87394910369E+03  0.00000000000E+00 0. -1.
          6    1    1    2  502    0  0.39658850355E+02 -0.12321413920E+03 -0.67688143586E+03  0.71028658070E+03  0.17200000000E+03 0. -1.
         -6    1    1    2    0  501 -0.39658850355E+02  0.12321413920E+03 -0.11613627607E+03  0.24459391475E+03  0.17200000000E+03 0.  1.
</event>
<event>
 4    1  0.6365520E-002  0.3005295E+03  0.7818608E-02  0.1084976E+00
         -2   -1    0    0    0  501 -0.00000000000E+00  0.00000000000E+00  0.15321149425E+03  0.15321149425E+03  0.00000000000E+00 0.  1.
          2   -1    0    0  502    0  0.00000000000E+00 -0.00000000000E+00 -0.66586708653E+03  0.66586708653E+03  0.00000000000E+00 0. -1.
          6    1    1    2  502    0 -0.21273935354E+03  0.12440240154E+03 -0.39502201495E+03  0.49634703821E+03  0.17200000000E+03 0. -1.
         -6    1    1    2    0  501  0.21273935354E+03 -0.12440240154E+03 -0.11763357733E+03  0.32273154257E+03  0.17200000000E+03 0.  1.
</event>
<event>
 4    1  0.6365520E-002  0.2421665E+03  0.7818608E-02  0.1118358E+00
         -2   -1    0    0    0  501 -0.00000000000E+00  0.00000000000E+00  0.27959242584E+02  0.27959242584E+02  0.00000000000E+00 0.  1.
          2   -1    0    0  502    0  0.00000000000E+00 -0.00000000000E+00 -0.20975047856E+04  0.20975047856E+04  0.00000000000E+00 0. -1.
          6    1    1    2  502    0  0.13589083434E+03  0.10292858416E+03 -0.10355678801E+04  0.10635062043E+04  0.17200000000E+03 0.  1.
         -6    1    1    2    0  501 -0.13589083434E+03 -0.10292858416E+03 -0.10339776629E+04  0.10619578239E+04  0.17200000000E+03 0. -1.
</event>
<event>
 4    1  0.6365520E-002  0.2337754E+03  0.7818608E-02  0.1124010E+00
         -2   -1    0    0    0  501 -0.00000000000E+00  0.00000000000E+00  0.83676935098E+03  0.83676935098E+03  0.00000000000E+00 0.  1.
          2   -1    0    0  502    0  0.00000000000E+00 -0.00000000000E+00 -0.13310630426E+03  0.13310630426E+03  0.00000000000E+00 0. -1.
          6    1    1    2  502    0 -0.14353478945E+03  0.66818416851E+02  0.57456262048E+01  0.23384599383E+03  0.17200000000E+03 0. -1.
         -6    1    1    2    0  501  0.14353478945E+03 -0.66818416851E+02  0.69791742052E+03  0.73602966141E+03  0.17200000000E+03 0.  1.
</event>
<event>
 4    1  0.6365520E-002  0.1738657E+03  0.7818608E-02  0.1173875E+00
          2   -1    0    0  502    0  0.00000000000E+00  0.00000000000E+00  0.78024527761E+03  0.78024527761E+03  0.00000000000E+00 0. -1.
         -2   -1    0    0    0  501 -0.00000000000E+00 -0.00000000000E+00 -0.57792041418E+02  0.57792041418E+02  0.00000000000E+00 0.  1.
          6    1    1    2  502    0  0.61484002381E+01  0.24646811089E+02  0.60179171480E+03  0.62640445091E+03  0.17200000000E+03 0. -1.
         -6    1    1    2    0  501 -0.61484002381E+01 -0.24646811089E+02  0.12066152140E+03  0.21163286812E+03  0.17200000000E+03 0.  1.
</event>
<event>
 4    1  0.6365520E-002  0.2581686E+03  0.7818608E-02  0.1108249E+00
          2   -1    0    0  502    0  0.00000000000E+00  0.00000000000E+00  0.50043532258E+03  0.50043532258E+03  0.00000000000E+00 0. -1.
         -2   -1    0    0    0  501 -0.00000000000E+00 -0.00000000000E+00 -0.13383606394E+03  0.13383606394E+03  0.00000000000E+00 0.  1.
          6    1    1    2  502    0  0.18800290853E+03  0.41496076457E+02  0.20540055594E+03  0.32990969424E+03  0.17200000000E+03 0. -1.
         -6    1    1    2    0  501 -0.18800290853E+03 -0.41496076457E+02  0.16119870270E+03  0.30436169228E+03  0.17200000000E+03 0.  1.
</event>
<event>
 4    1  0.6365520E-002  0.2194895E+03  0.7818608E-02  0.1134264E+00
         -2   -1    0    0    0  501 -0.00000000000E+00  0.00000000000E+00  0.44340658252E+02  0.44340658252E+02  0.00000000000E+00 0.  1.
          2   -1    0    0  502    0  0.00000000000E+00 -0.00000000000E+00 -0.11853628249E+04  0.11853628249E+04  0.00000000000E+00 0. -1.
          6    1    1    2  502    0  0.10127838599E+03  0.91292492802E+02 -0.39293447486E+03  0.45008125071E+03  0.17200000000E+03 0. -1.
         -6    1    1    2    0  501 -0.10127838599E+03 -0.91292492802E+02 -0.74808769182E+03  0.77962223248E+03  0.17200000000E+03 0.  1.
</event>
<event>
 4    1  0.6365520E-002  0.1932474E+03  0.7818608E-02  0.1155565E+00
         -2   -1    0    0    0  501 -0.00000000000E+00  0.00000000000E+00  0.26858582069E+02  0.26858582069E+02  0.00000000000E+00 0.  1.
          2   -1    0    0  502    0  0.00000000000E+00 -0.00000000000E+00 -0.18053395313E+04  0.18053395313E+04  0.00000000000E+00 0. -1.
          6    1    1    2  502    0  0.72100848603E+02  0.50616426864E+02 -0.13284259234E+04  0.13424082795E+04  0.17200000000E+03 0. -1.
         -6    1    1    2    0  501 -0.72100848603E+02 -0.50616426864E+02 -0.45005502582E+03  0.48978983381E+03  0.17200000000E+03 0.  1.
</event>
<event>
 4    1  0.6365520E-002  0.2329997E+03  0.7818608E-02  0.1124546E+00
          3   -1    0    0  502    0  0.00000000000E+00  0.00000000000E+00  0.79815774078E+03  0.79815774078E+03  0.00000000000E+00 0. -1.
         -3   -1    0    0    0  501 -0.00000000000E+00 -0.00000000000E+00 -0.97524277227E+02  0.97524277227E+02  0.00000000000E+00 0.  1.
          6    1    1    2  502    0  0.82801503050E+02 -0.13359934827E+03  0.59665206689E+03  0.64053303091E+03  0.17200000000E+03 0. -1.
         -6    1    1    2    0  501 -0.82801503050E+02  0.13359934827E+03  0.10398139667E+03  0.25514898710E+03  0.17200000000E+03 0.  1.
</event>
<event>
 4    1  0.6365520E-002  0.2124020E+03  0.7818608E-02  0.1139678E+00
         -2   -1    0    0    0  501 -0.00000000000E+00  0.00000000000E+00  0.63291277269E+02  0.63291277269E+02  0.00000000000E+00 0.  1.
          2   -1    0    0  502    0  0.00000000000E+00 -0.00000000000E+00 -0.89718928729E+03  0.89718928729E+03  0.00000000000E+00 0. -1.
          6    1    1    2  502    0  0.11012314194E+03 -0.58339624659E+02 -0.63465646117E+03  0.66925588672E+03  0.17200000000E+03 0. -1.
         -6    1    1    2    0  501 -0.11012314194E+03  0.58339624659E+02 -0.19924154884E+03  0.29122467784E+03  0.17200000000E+03 0.  1.
</event>
<event>
 4    1  0.6365520E-002  0.2913230E+03  0.7818608E-02  0.1089660E+00
          1   -1    0    0  502    0  0.00000000000E+00  0.00000000000E+00  0.19109230301E+04  0.19109230301E+04  0.00000000000E+00 0. -1.
         -1   -1    0    0    0  501 -0.00000000000E+00 -0.00000000000E+00 -0.58547216170E+02  0.58547216170E+02  0.00000000000E+00 0.  1.
          6    1    1    2  502    0 -0.71624242767E+02  0.22395330435E+03  0.44234110484E+03  0.52965532917E+03  0.17200000000E+03 0. -1.
         -6    1    1    2    0  501  0.71624242767E+02 -0.22395330435E+03  0.14100347091E+04  0.14398149171E+04  0.17200000000E+03 0.  1.
</event>
<event>
 4    1  0.6365520E-002  0.1735990E+03  0.7818608E-02  0.1174146E+00
          2   -1    0    0  502    0  0.00000000000E+00  0.00000000000E+00  0.15089109504E+04  0.15089109504E+04  0.00000000000E+00 0. -1.
         -2   -1    0    0    0  501 -0.00000000000E+00 -0.00000000000E+00 -0.26065241813E+02  0.26065241813E+02  0.00000000000E+00 0.  1.
          6    1    1    2  502    0  0.51552287136E+01 -0.22935105507E+02  0.11124880247E+04  0.11259512425E+04  0.17200000000E+03 0. -1.
         -6    1    1    2    0  501 -0.51552287136E+01  0.22935105507E+02  0.37035768383E+03  0.40902494963E+03  0.17200000000E+03 0.  1.
</event>
<event>
 4    1  0.6365520E-002  0.1824063E+03  0.7818608E-02  0.1165494E+00
          2   -1    0    0  502    0  0.00000000000E+00  0.00000000000E+00  0.86519230504E+02  0.86519230504E+02  0.00000000000E+00 0. -1.
         -2   -1    0    0    0  501 -0.00000000000E+00 -0.00000000000E+00 -0.41773868037E+03  0.41773868037E+03  0.00000000000E+00 0.  1.
          6    1    1    2  502    0 -0.56966170815E+02  0.21045489557E+02 -0.94556606665E+02  0.20545804709E+03  0.17200000000E+03 0. -1.
         -6    1    1    2    0  501  0.56966170815E+02 -0.21045489557E+02 -0.23666284320E+03  0.29879986379E+03  0.17200000000E+03 0.  1.
</event>
<event>
 4    1  0.6365520E-002  0.8252160E+03  0.7818608E-02  0.9524218E-01
          2   -1    0    0  502    0  0.00000000000E+00  0.00000000000E+00  0.21595485060E+04  0.21595485060E+04  0.00000000000E+00 0. -1.
         -2   -1    0    0    0  501 -0.00000000000E+00 -0.00000000000E+00 -0.40100190104E+03  0.40100190104E+03  0.00000000000E+00 0.  1.
          6    1    1    2  502    0 -0.78564870676E+03  0.18480699015E+03  0.14710206381E+04  0.16866781649E+04  0.17200000000E+03 0. -1.
         -6    1    1    2    0  501  0.78564870676E+03 -0.18480699015E+03  0.28752596683E+03  0.87387224218E+03  0.17200000000E+03 0.  1.
</event>
<event>
 4    1  0.6365520E-002  0.7728870E+03  0.7818608E-02  0.9600113E-01
         -2   -1    0    0    0  501 -0.00000000000E+00  0.00000000000E+00  0.81956035542E+03  0.81956035542E+03  0.00000000000E+00 0.  1.
          2   -1    0    0  502    0  0.00000000000E+00 -0.00000000000E+00 -0.84867040488E+03  0.84867040488E+03  0.00000000000E+00 0. -1.
          6    1    1    2  502    0 -0.44029204739E+03 -0.61148450854E+03 -0.32794317405E+03  0.83958389491E+03  0.17200000000E+03 0. -1.
         -6    1    1    2    0  501  0.44029204739E+03  0.61148450854E+03  0.29883312459E+03  0.82864686540E+03  0.17200000000E+03 0.  1.
</event>
<event>
 4    1  0.6365520E-002  0.1725621E+03  0.7818608E-02  0.1175202E+00
          2   -1    0    0  502    0  0.00000000000E+00  0.00000000000E+00  0.37681529424E+03  0.37681529424E+03  0.00000000000E+00 0. -1.
         -2   -1    0    0    0  501 -0.00000000000E+00 -0.00000000000E+00 -0.11527182628E+03  0.11527182628E+03  0.00000000000E+00 0.  1.
          6    1    1    2  502    0 -0.13685676092E+02 -0.25226321586E+01  0.26874281514E+03  0.31937495533E+03  0.17200000000E+03 0. -1.
         -6    1    1    2    0  501  0.13685676092E+02  0.25226321586E+01 -0.71993471854E+01  0.17271216519E+03  0.17200000000E+03 0.  1.
</event>
<event>
 4    1  0.6365520E-002  0.2140237E+03  0.7818608E-02  0.1138419E+00
          1   -1    0    0  502    0  0.00000000000E+00  0.00000000000E+00  0.17315274013E+03  0.17315274013E+03  0.00000000000E+00 0. -1.
         -1   -1    0    0    0  501 -0.00000000000E+00 -0.00000000000E+00 -0.27005133724E+03  0.27005133724E+03  0.00000000000E+00 0.  1.
          6    1    1    2  502    0 -0.79449692600E+02 -0.99548421250E+02 -0.16796860089E+02  0.21468180253E+03  0.17200000000E+03 0. -1.
         -6    1    1    2    0  501  0.79449692600E+02  0.99548421250E+02 -0.80101737021E+02  0.22852227485E+03  0.17200000000E+03 0.  1.
</event>
<event>
 4    1  0.6365520E-002  0.1934851E+03  0.7818608E-02  0.1155355E+00
         -1   -1    0    0    0  501 -0.00000000000E+00  0.00000000000E+00  0.57037610635E+03  0.57037610635E+03  0.00000000000E+00 0.  1.
          1   -1    0    0  502    0  0.00000000000E+00 -0.00000000000E+00 -0.73934848761E+02  0.73934848761E+02  0.00000000000E+00 0. -1.
          6    1    1    2  502    0  0.40689977617E+02  0.78719826594E+02  0.14028050498E+03  0.23898766800E+03  0.17200000000E+03 0. -1.
         -6    1    1    2    0  501 -0.40689977617E+02 -0.78719826594E+02  0.35616075261E+03  0.40532328711E+03  0.17200000000E+03 0.  1.
</event>
<event>
 4    1  0.6365520E-002  0.1924564E+03  0.7818608E-02  0.1156264E+00
          2   -1    0    0  502    0  0.00000000000E+00  0.00000000000E+00  0.35361848842E+03  0.35361848842E+03  0.00000000000E+00 0. -1.
         -2   -1    0    0    0  501 -0.00000000000E+00 -0.00000000000E+00 -0.12956247991E+03  0.12956247991E+03  0.00000000000E+00 0.  1.
          6    1    1    2  502    0 -0.82627603927E+02  0.25062795232E+02  0.21776490043E+03  0.29062177567E+03  0.17200000000E+03 0. -1.
         -6    1    1    2    0  501  0.82627603927E+02 -0.25062795232E+02  0.62911080762E+01  0.19255919266E+03  0.17200000000E+03 0.  1.
</event>
<event>
 4    1  0.6365520E-002  0.3260181E+03  0.7818608E-02  0.1072912E+00
          1   -1    0    0  502    0  0.00000000000E+00  0.00000000000E+00  0.80534403419E+02  0.80534403419E+02  0.00000000000E+00 0. -1.
         -1   -1    0    0    0  501 -0.00000000000E+00 -0.00000000000E+00 -0.13648838633E+04  0.13648838633E+04  0.00000000000E+00 0.  1.
          6    1    1    2  502    0 -0.53025070815E+02 -0.27183111121E+03 -0.51079885619E+03  0.60597300488E+03  0.17200000000E+03 0. -1.
         -6    1    1    2    0  501  0.53025070815E+02  0.27183111121E+03 -0.77355060371E+03  0.83944526186E+03  0.17200000000E+03 0.  1.
</event>
<event>
 4    1  0.6365520E-002  0.2708626E+03  0.7818608E-02  0.1100787E+00
          1   -1    0    0  502    0  0.00000000000E+00  0.00000000000E+00  0.44719298986E+03  0.44719298986E+03  0.00000000000E+00 0. -1.
         -1   -1    0    0    0  501 -0.00000000000E+00 -0.00000000000E+00 -0.23913848122E+03  0.23913848122E+03  0.00000000000E+00 0.  1.
          6    1    1    2  502    0 -0.93283830921E+02  0.18729837065E+03  0.29630829572E+03  0.40145380665E+03  0.17200000000E+03 0. -1.
         -6    1    1    2    0  501  0.93283830921E+02 -0.18729837065E+03 -0.88253787075E+02  0.28487766444E+03  0.17200000000E+03 0.  1.
</event>
<event>
 4    1  0.6365520E-002  0.2390541E+03  0.7818608E-02  0.1120425E+00
         -1   -1    0    0    0  501 -0.00000000000E+00  0.00000000000E+00  0.29967788219E+03  0.29967788219E+03  0.00000000000E+00 0.  1.
          1   -1    0    0  502    0  0.00000000000E+00 -0.00000000000E+00 -0.19308599275E+03  0.19308599275E+03  0.00000000000E+00 0. -1.
          6    1    1    2  502    0  0.13014797772E+03 -0.10307446314E+03  0.25874324170E+02  0.24045024788E+03  0.17200000000E+03 0. -1.
         -6    1    1    2    0  501 -0.13014797772E+03  0.10307446314E+03  0.80717565280E+02  0.25231362706E+03  0.17200000000E+03 0.  1.
</event>
<event>
 4    1  0.6365520E-002  0.1355375E+04  0.7818608E-02  0.8986769E-01
         -2   -1    0    0    0  501 -0.00000000000E+00  0.00000000000E+00  0.64757767501E+03  0.64757767501E+03  0.00000000000E+00 0.  1.
          2   -1    0    0  502    0  0.00000000000E+00 -0.00000000000E+00 -0.34811065406E+04  0.34811065406E+04  0.00000000000E+00 0. -1.
          6    1    1    2  502    0 -0.10692552129E+04  0.81495419382E+03 -0.23048873625E+04  0.26738636469E+04  0.17200000000E+03 0. -1.
         -6    1    1    2    0  501  0.10692552129E+04 -0.81495419382E+03 -0.52864150311E+03  0.14548205687E+04  0.17200000000E+03 0.  1.
</event>
<event>
 4    1  0.6365520E-002  0.2381015E+03  0.7818608E-02  0.1121064E+00
         -2   -1    0    0    0  501 -0.00000000000E+00  0.00000000000E+00  0.26298927090E+02  0.26298927090E+02  0.00000000000E+00 0.  1.
          2   -1    0    0  502    0  0.00000000000E+00 -0.00000000000E+00 -0.30238836919E+04  0.30238836919E+04  0.00000000000E+00 0. -1.
          6    1    1    2  502    0 -0.36150518587E+02 -0.16062835282E+03 -0.23159798148E+04  0.23281870264E+04  0.17200000000E+03 0. -1.
         -6    1    1    2    0  501  0.36150518587E+02  0.16062835282E+03 -0.68160495004E+03  0.72199559253E+03  0.17200000000E+03 0.  1.
</event>
<event>
 4    1  0.6365520E-002  0.5354634E+03  0.7818608E-02  0.1004916E+00
          2   -1    0    0  502    0  0.00000000000E+00  0.00000000000E+00  0.11934224887E+04  0.11934224887E+04  0.00000000000E+00 0. -1.
         -2   -1    0    0    0  501 -0.00000000000E+00 -0.00000000000E+00 -0.57450633975E+03  0.57450633975E+03  0.00000000000E+00 0.  1.
          6    1    1    2  502    0  0.16440265177E+03 -0.47969659025E+03  0.98371666655E+03  0.11200087190E+04  0.17200000000E+03 0. -1.
         -6    1    1    2    0  501 -0.16440265177E+03  0.47969659025E+03 -0.36480051758E+03  0.64792010945E+03  0.17200000000E+03 0.  1.
</event>
<event>
 4    1  0.6365520E-002  0.2141055E+03  0.7818608E-02  0.1138356E+00
          1   -1    0    0  502    0  0.00000000000E+00  0.00000000000E+00  0.90803144819E+03  0.90803144819E+03  0.00000000000E+00 0. -1.
         -1   -1    0    0    0  501 -0.00000000000E+00 -0.00000000000E+00 -0.56377859062E+02  0.56377859062E+02  0.00000000000E+00 0.  1.
          6    1    1    2  502    0  0.12012741451E+03  0.42738267977E+02  0.58173648180E+03  0.61988586814E+03  0.17200000000E+03 0.  1.
         -6    1    1    2    0  501 -0.12012741451E+03 -0.42738267977E+02  0.26991710733E+03  0.34452343911E+03  0.17200000000E+03 0.  1.
</event>
<event>
 4    1  0.6365520E-002  0.4060928E+03  0.7818608E-02  0.1041690E+00
         -2   -1    0    0    0  501 -0.00000000000E+00  0.00000000000E+00  0.10999570917E+03  0.10999570917E+03  0.00000000000E+00 0.  1.
          2   -1    0    0  502    0  0.00000000000E+00 -0.00000000000E+00 -0.15202789486E+04  0.15202789486E+04  0.00000000000E+00 0. -1.
          6    1    1    2  502    0  0.33941332201E+03 -0.14186589857E+03 -0.60927826308E+03  0.73220990037E+03  0.17200000000E+03 0. -1.
         -6    1    1    2    0  501 -0.33941332201E+03  0.14186589857E+03 -0.80100497632E+03  0.89806475736E+03  0.17200000000E+03 0.  1.
</event>
<event>
 4    1  0.6365520E-002  0.1855211E+03  0.7818608E-02  0.1162564E+00
          1   -1    0    0  502    0  0.00000000000E+00  0.00000000000E+00  0.59027125151E+03  0.59027125151E+03  0.00000000000E+00 0. -1.
         -1   -1    0    0    0  501 -0.00000000000E+00 -0.00000000000E+00 -0.87346654031E+02  0.87346654031E+02  0.00000000000E+00 0.  1.
          6    1    1    2  502    0  0.52881449592E+02  0.45139968094E+02  0.44681224204E+03  0.48379669704E+03  0.17200000000E+03 0. -1.
         -6    1    1    2    0  501 -0.52881449592E+02 -0.45139968094E+02  0.56112355436E+02  0.19382120850E+03  0.17200000000E+03 0.  1.
</event>
<event>
 4    1  0.6365520E-002  0.4078609E+03  0.7818608E-02  0.1041091E+00
         -1   -1    0    0    0  501 -0.00000000000E+00  0.00000000000E+00  0.11012180546E+03  0.11012180546E+03  0.00000000000E+00 0.  1.
          1   -1    0    0  502    0  0.00000000000E+00 -0.00000000000E+00 -0.17823660037E+04  0.17823660037E+04  0.00000000000E+00 0. -1.
          6    1    1    2  502    0  0.31411665077E+03  0.19518507133E+03 -0.12056087132E+04  0.12727304709E+04  0.17200000000E+03 0. -1.
         -6    1    1    2    0  501 -0.31411665077E+03 -0.19518507133E+03 -0.46663548505E+03  0.61975733821E+03  0.17200000000E+03 0.  1.
</event>
<event>
 4    1  0.6365520E-002  0.3031162E+03  0.7818608E-02  0.1083693E+00
          2   -1    0    0  502    0  0.00000000000E+00  0.00000000000E+00  0.15583411498E+04  0.15583411498E+04  0.00000000000E+00 0. -1.
         -2   -1    0    0    0  501 -0.00000000000E+00 -0.00000000000E+00 -0.23528032978E+03  0.23528032978E+03  0.00000000000E+00 0.  1.
          6    1    1    2  502    0 -0.19720195165E+03  0.15299278394E+03  0.14378838744E+04  0.14694861135E+04  0.17200000000E+03 0. -1.
         -6    1    1    2    0  501  0.19720195165E+03 -0.15299278394E+03 -0.11482305439E+03  0.32413536600E+03  0.17200000000E+03 0.  1.
</event>
<event>
 4    1  0.6365520E-002  0.1953153E+03  0.7818608E-02  0.1153753E+00
         -2   -1    0    0    0  501 -0.00000000000E+00  0.00000000000E+00  0.21147905834E+03  0.21147905834E+03  0.00000000000E+00 0.  1.
          2   -1    0    0  502    0  0.00000000000E+00 -0.00000000000E+00 -0.14333270968E+04  0.14333270968E+04  0.00000000000E+00 0. -1.
          6    1    1    2  502    0  0.73009843537E+02 -0.56865021624E+02 -0.13798370646E+04  0.13935919033E+04  0.17200000000E+03 0. -1.
         -6    1    1    2    0  501 -0.73009843537E+02  0.56865021624E+02  0.15798902618E+03  0.25121425185E+03  0.17200000000E+03 0.  1.
</event>
<event>
 4    1  0.6365520E-002  0.2712352E+03  0.7818608E-02  0.1100575E+00
          2   -1    0    0  502    0  0.00000000000E+00  0.00000000000E+00  0.72884263734E+03  0.72884263734E+03  0.00000000000E+00 0. -1.
         -2   -1    0    0    0  501 -0.00000000000E+00 -0.00000000000E+00 -0.18838681573E+03  0.18838681573E+03  0.00000000000E+00 0.  1.
          6    1    1    2  502    0 -0.37548117334E+02  0.20633631953E+03  0.58269019142E+03  0.64272575571E+03  0.17200000000E+03 0. -1.
         -6    1    1    2    0  501  0.37548117334E+02 -0.20633631953E+03 -0.42234369808E+02  0.27450369736E+03  0.17200000000E+03 0.  1.
</event>
<event>
 4    1  0.6365520E-002  0.2656840E+03  0.7818608E-02  0.1103775E+00
          1   -1    0    0  502    0  0.00000000000E+00  0.00000000000E+00  0.37853363271E+03  0.37853363271E+03  0.00000000000E+00 0. -1.
         -1   -1    0    0    0  501 -0.00000000000E+00 -0.00000000000E+00 -0.19003197020E+03  0.19003197020E+03  0.00000000000E+00 0.  1.
          6    1    1    2  502    0 -0.17253679751E+03  0.10599542355E+03  0.55370549778E+02  0.27139247243E+03  0.17200000000E+03 0. -1.
         -6    1    1    2    0  501  0.17253679751E+03 -0.10599542355E+03  0.13313111273E+03  0.29717313049E+03  0.17200000000E+03 0. -1.
</event>
<event>
 4    1  0.6365520E-002  0.1731345E+03  0.7818608E-02  0.1174618E+00
          1   -1    0    0  502    0  0.00000000000E+00  0.00000000000E+00  0.94659124093E+03  0.94659124093E+03  0.00000000000E+00 0. -1.
         -1   -1    0    0    0  501 -0.00000000000E+00 -0.00000000000E+00 -0.34937485612E+02  0.34937485612E+02  0.00000000000E+00 0.  1.
          6    1    1    2  502    0  0.83527168119E+01 -0.17938159473E+02  0.60598350202E+03  0.63023134654E+03  0.17200000000E+03 0. -1.
         -6    1    1    2    0  501 -0.83527168119E+01  0.17938159473E+02  0.30567025329E+03  0.35129738000E+03  0.17200000000E+03 0.  1.
</event>
<event>
 4    1  0.6365520E-002  0.2328272E+03  0.7818608E-02  0.1124666E+00
          2   -1    0    0  502    0  0.00000000000E+00  0.00000000000E+00  0.17401493115E+04  0.17401493115E+04  0.00000000000E+00 0. -1.
         -2   -1    0    0    0  501 -0.00000000000E+00 -0.00000000000E+00 -0.32104581363E+02  0.32104581363E+02  0.00000000000E+00 0.  1.
          6    1    1    2  502    0  0.14520639250E+03  0.59494654349E+02  0.70135548976E+03  0.73899122683E+03  0.17200000000E+03 0. -1.
         -6    1    1    2    0  501 -0.14520639250E+03 -0.59494654349E+02  0.10066892404E+04  0.10332626660E+04  0.17200000000E+03 0.  1.
</event>
<event>
 4    1  0.6365520E-002  0.5071791E+03  0.7818608E-02  0.1011922E+00
         -2   -1    0    0    0  501 -0.00000000000E+00  0.00000000000E+00  0.21844008520E+03  0.21844008520E+03  0.00000000000E+00 0.  1.
          2   -1    0    0  502    0  0.00000000000E+00 -0.00000000000E+00 -0.13187007255E+04  0.13187007255E+04  0.00000000000E+00 0. -1.
          6    1    1    2  502    0 -0.27050581833E+01  0.47711558987E+03 -0.29870648719E+03  0.58860527429E+03  0.17200000000E+03 0.  1.
         -6    1    1    2    0  501  0.27050581833E+01 -0.47711558987E+03 -0.80155415308E+03  0.94853553637E+03  0.17200000000E+03 0.  1.
</event>
<event>
 4    1  0.6365520E-002  0.2228266E+03  0.7818608E-02  0.1131793E+00
          1   -1    0    0  502    0  0.00000000000E+00  0.00000000000E+00  0.21292982170E+04  0.21292982170E+04  0.00000000000E+00 0. -1.
         -1   -1    0    0    0  501 -0.00000000000E+00 -0.00000000000E+00 -0.27196064418E+02  0.27196064418E+02  0.00000000000E+00 0.  1.
          6    1    1    2  502    0 -0.13372102666E+03  0.46758727751E+02  0.14582006372E+04  0.14751273809E+04  0.17200000000E+03 0. -1.
         -6    1    1    2    0  501  0.13372102666E+03 -0.46758727751E+02  0.64390151541E+03  0.68136690053E+03  0.17200000000E+03 0.  1.
</event>
<event>
 4    1  0.6365520E-002  0.1734910E+03  0.7818608E-02  0.1174255E+00
         -2   -1    0    0    0  501 -0.00000000000E+00  0.00000000000E+00  0.12858414923E+03  0.12858414923E+03  0.00000000000E+00 0.  1.
          2   -1    0    0  502    0  0.00000000000E+00 -0.00000000000E+00 -0.27275484396E+03  0.27275484396E+03  0.00000000000E+00 0. -1.
          6    1    1    2  502    0 -0.19508320999E+02 -0.11599973216E+02  0.34765030176E+01  0.17352584833E+03  0.17200000000E+03 0.  1.
         -6    1    1    2    0  501  0.19508320999E+02  0.11599973216E+02 -0.14764719775E+03  0.22781314486E+03  0.17200000000E+03 0. -1.
</event>
<event>
 4    1  0.6365520E-002  0.4890865E+03  0.7818608E-02  0.1016667E+00
          2   -1    0    0  502    0  0.00000000000E+00  0.00000000000E+00  0.20403413710E+04  0.20403413710E+04  0.00000000000E+00 0. -1.
         -2   -1    0    0    0  501 -0.00000000000E+00 -0.00000000000E+00 -0.14322618135E+03  0.14322618135E+03  0.00000000000E+00 0.  1.
          6    1    1    2  502    0  0.48949525094E+02  0.45522037313E+03  0.14136218432E+04  0.14958383468E+04  0.17200000000E+03 0. -1.
         -6    1    1    2    0  501 -0.48949525094E+02 -0.45522037313E+03  0.48349334638E+03  0.68772920551E+03  0.17200000000E+03 0.  1.
</event>
<event>
 4    1  0.6365520E-002  0.1921110E+03  0.7818608E-02  0.1156571E+00
         -1   -1    0    0    0  501 -0.00000000000E+00  0.00000000000E+00  0.87455132640E+02  0.87455132640E+02  0.00000000000E+00 0.  1.
          1   -1    0    0  502    0  0.00000000000E+00 -0.00000000000E+00 -0.44803487232E+03  0.44803487232E+03  0.00000000000E+00 0. -1.
          6    1    1    2  502    0  0.15008618952E+02 -0.84245879758E+02 -0.24482403380E+03  0.31119999104E+03  0.17200000000E+03 0.  1.
         -6    1    1    2    0  501 -0.15008618952E+02  0.84245879758E+02 -0.11575570588E+03  0.22429001392E+03  0.17200000000E+03 0.  1.
</event>
<event>
 4    1  0.6365520E-002  0.2003051E+03  0.7818608E-02  0.1149482E+00
          3   -1    0    0  502    0  0.00000000000E+00  0.00000000000E+00  0.24390934407E+02  0.24390934407E+02  0.00000000000E+00 0. -1.
         -3   -1    0    0    0  501 -0.00000000000E+00 -0.00000000000E+00 -0.19409806497E+04  0.19409806497E+04  0.00000000000E+00 0.  1.
          6    1    1    2  502    0 -0.37485602200E+02  0.95566431289E+02 -0.57453015559E+03  0.60844639275E+03  0.17200000000E+03 0. -1.
         -6    1    1    2    0  501  0.37485602200E+02 -0.95566431289E+02 -0.13420595597E+04  0.13569251913E+04  0.17200000000E+03 0.  1.
</event>
<event>
 4    1  0.6365520E-002  0.1882306E+03  0.7818608E-02  0.1160067E+00
          2   -1    0    0  502    0  0.00000000000E+00  0.00000000000E+00  0.14576477620E+04  0.14576477620E+04  0.00000000000E+00 0. -1.
         -2   -1    0    0    0  501 -0.00000000000E+00 -0.00000000000E+00 -0.27930173534E+02  0.27930173534E+02  0.00000000000E+00 0.  1.
          6    1    1    2  502    0 -0.73833211056E+02 -0.19884868314E+02  0.44732093566E+03  0.48531100392E+03  0.17200000000E+03 0.  1.
         -6    1    1    2    0  501  0.73833211056E+02  0.19884868314E+02  0.98239665284E+03  0.10002669316E+04  0.17200000000E+03 0. -1.
</event>
<event>
 4    1  0.6365520E-002  0.1868298E+03  0.7818608E-02  0.1161352E+00
          1   -1    0    0  502    0  0.00000000000E+00  0.00000000000E+00  0.61875855911E+02  0.61875855911E+02  0.00000000000E+00 0. -1.
         -1   -1    0    0    0  501 -0.00000000000E+00 -0.00000000000E+00 -0.56503601415E+03  0.56503601415E+03  0.00000000000E+00 0.  1.
          6    1    1    2  502    0 -0.70012491998E+02 -0.20485173257E+02 -0.23895736802E+03  0.30332493319E+03  0.17200000000E+03 0.  1.
         -6    1    1    2    0  501  0.70012491998E+02  0.20485173257E+02 -0.26420279021E+03  0.32358693687E+03  0.17200000000E+03 0.  1.
</event>
<event>
 4    1  0.6365520E-002  0.2249236E+03  0.7818608E-02  0.1130265E+00
          1   -1    0    0  502    0  0.00000000000E+00  0.00000000000E+00  0.15171373257E+04  0.15171373257E+04  0.00000000000E+00 0. -1.
         -1   -1    0    0    0  501 -0.00000000000E+00 -0.00000000000E+00 -0.66839264871E+02  0.66839264871E+02  0.00000000000E+00 0.  1.
          6    1    1    2  502    0 -0.97546398512E+02  0.10719759478E+03  0.12857850240E+04  0.13053098300E+04  0.17200000000E+03 0. -1.
         -6    1    1    2    0  501  0.97546398512E+02 -0.10719759478E+03  0.16451303681E+03  0.27866676061E+03  0.17200000000E+03 0.  1.
</event>
<event>
 4    1  0.6365520E-002  0.2346679E+03  0.7818608E-02  0.1123397E+00
         -1   -1    0    0    0  501 -0.00000000000E+00  0.00000000000E+00  0.18028357345E+04  0.18028357345E+04  0.00000000000E+00 0.  1.
          1   -1    0    0  502    0  0.00000000000E+00 -0.00000000000E+00 -0.48300388244E+02  0.48300388244E+02  0.00000000000E+00 0. -1.
          6    1    1    2  502    0  0.83364579544E+02  0.13614462385E+03  0.31610512638E+03  0.39368955111E+03  0.17200000000E+03 0. -1.
         -6    1    1    2    0  501 -0.83364579544E+02 -0.13614462385E+03  0.14384302198E+04  0.14574465716E+04  0.17200000000E+03 0.  1.
</event>
<event>
 4    1  0.6365520E-002  0.2067989E+03  0.7818608E-02  0.1144126E+00
         -1   -1    0    0    0  501 -0.00000000000E+00  0.00000000000E+00  0.51918561607E+03  0.51918561607E+03  0.00000000000E+00 0.  1.
          1   -1    0    0  502    0  0.00000000000E+00 -0.00000000000E+00 -0.18853977910E+03  0.18853977910E+03  0.00000000000E+00 0. -1.
          6    1    1    2  502    0 -0.11430296548E+03  0.10798019198E+02 -0.10021832649E+03  0.22980312901E+03  0.17200000000E+03 0. -1.
         -6    1    1    2    0  501  0.11430296548E+03 -0.10798019198E+02  0.43086416346E+03  0.47792226616E+03  0.17200000000E+03 0.  1.
</event>
<event>
 4    1  0.6365520E-002  0.3095223E+03  0.7818608E-02  0.1080575E+00
         -1   -1    0    0    0  501 -0.00000000000E+00  0.00000000000E+00  0.80754423155E+02  0.80754423155E+02  0.00000000000E+00 0.  1.
          1   -1    0    0  502    0  0.00000000000E+00 -0.00000000000E+00 -0.12006135823E+04  0.12006135823E+04  0.00000000000E+00 0. -1.
          6    1    1    2  502    0  0.18275023948E+03 -0.18116954502E+03 -0.49012890416E+03  0.57968128896E+03  0.17200000000E+03 0. -1.
         -6    1    1    2    0  501 -0.18275023948E+03  0.18116954502E+03 -0.62973025501E+03  0.70168671653E+03  0.17200000000E+03 0.  1.
</event>
<event>
 4    1  0.6365520E-002  0.1727738E+03  0.7818608E-02  0.1174986E+00
         -1   -1    0    0    0  501 -0.00000000000E+00  0.00000000000E+00  0.22159633719E+02  0.22159633719E+02  0.00000000000E+00 0.  1.
          1   -1    0    0  502    0  0.00000000000E+00 -0.00000000000E+00 -0.13525385269E+04  0.13525385269E+04  0.00000000000E+00 0. -1.
          6    1    1    2  502    0  0.16231040449E+02  0.18301541273E+01 -0.70885571709E+03  0.72960758205E+03  0.17200000000E+03 0. -1.
         -6    1    1    2    0  501 -0.16231040449E+02 -0.18301541273E+01 -0.62152317613E+03  0.64509057861E+03  0.17200000000E+03 0.  1.
</event>
<event>
 4    1  0.6365520E-002  0.3003328E+03  0.7818608E-02  0.1085074E+00
         -1   -1    0    0    0  501 -0.00000000000E+00  0.00000000000E+00  0.93624487254E+02  0.93624487254E+02  0.00000000000E+00 0.  1.
          1   -1    0    0  502    0  0.00000000000E+00 -0.00000000000E+00 -0.96863542356E+03  0.96863542356E+03  0.00000000000E+00 0. -1.
          6    1    1    2  502    0  0.32668996045E+02  0.24402562633E+03 -0.47647597172E+03  0.56323096616E+03  0.17200000000E+03 0. -1.
         -6    1    1    2    0  501 -0.32668996045E+02 -0.24402562633E+03 -0.39853496459E+03  0.49902894466E+03  0.17200000000E+03 0.  1.
</event>
<event>
 4    1  0.6365520E-002  0.3162926E+03  0.7818608E-02  0.1077368E+00
          2   -1    0    0  502    0  0.00000000000E+00  0.00000000000E+00  0.12942076636E+04  0.12942076636E+04  0.00000000000E+00 0. -1.
         -2   -1    0    0    0  501 -0.00000000000E+00 -0.00000000000E+00 -0.15400819715E+03  0.15400819715E+03  0.00000000000E+00 0.  1.
          6    1    1    2  502    0 -0.26040994195E+03  0.51416679490E+02  0.10811398394E+04  0.11264565527E+04  0.17200000000E+03 0. -1.
         -6    1    1    2    0  501  0.26040994195E+03 -0.51416679490E+02  0.59059627113E+02  0.32175930810E+03  0.17200000000E+03 0.  1.
</event>
<event>
 4    1  0.6365520E-002  0.1038472E+04  0.7818608E-02  0.9267328E-01
          2   -1    0    0  502    0  0.00000000000E+00  0.00000000000E+00  0.34114817108E+04  0.34114817108E+04  0.00000000000E+00 0. -1.
         -2   -1    0    0    0  501 -0.00000000000E+00 -0.00000000000E+00 -0.31768994739E+03  0.31768994739E+03  0.00000000000E+00 0.  1.
          6    1    1    2  502    0 -0.86832733503E+03  0.54299875868E+03  0.14156537382E+04  0.17557048497E+04  0.17200000000E+03 0. -1.
         -6    1    1    2    0  501  0.86832733503E+03 -0.54299875868E+03  0.16781380252E+04  0.19734668085E+04  0.17200000000E+03 0.  1.
</event>
<event>
 4    1  0.6365520E-002  0.1723817E+03  0.7818608E-02  0.1175387E+00
         -2   -1    0    0    0  501 -0.00000000000E+00  0.00000000000E+00  0.69934882099E+02  0.69934882099E+02  0.00000000000E+00 0.  1.
          2   -1    0    0  502    0  0.00000000000E+00 -0.00000000000E+00 -0.58265739601E+03  0.58265739601E+03  0.00000000000E+00 0. -1.
          6    1    1    2  502    0 -0.92434975989E+01 -0.67840995311E+01 -0.86576962772E+02  0.19290162451E+03  0.17200000000E+03 0.  1.
         -6    1    1    2    0  501  0.92434975989E+01  0.67840995311E+01 -0.42614555114E+03  0.45969065361E+03  0.17200000000E+03 0. -1.
</event>
<event>
 4    1  0.6365520E-002  0.2265628E+03  0.7818608E-02  0.1129083E+00
         -2   -1    0    0    0  501 -0.00000000000E+00  0.00000000000E+00  0.10057904505E+03  0.10057904505E+03  0.00000000000E+00 0.  1.
          2   -1    0    0  502    0  0.00000000000E+00 -0.00000000000E+00 -0.10245569548E+04  0.10245569548E+04  0.00000000000E+00 0. -1.
          6    1    1    2  502    0  0.91235879704E+02 -0.11585647930E+03 -0.86053190489E+03  0.88985721825E+03  0.17200000000E+03 0. -1.
         -6    1    1    2    0  501 -0.91235879704E+02  0.11585647930E+03 -0.63446004870E+02  0.23527878161E+03  0.17200000000E+03 0.  1.
</event>
<event>
 4    1  0.6365520E-002  0.7412506E+03  0.7818608E-02  0.9649178E-01
          1   -1    0    0  502    0  0.00000000000E+00  0.00000000000E+00  0.10904396150E+04  0.10904396150E+04  0.00000000000E+00 0. -1.
         -1   -1    0    0    0  501 -0.00000000000E+00 -0.00000000000E+00 -0.98590316501E+03  0.98590316501E+03  0.00000000000E+00 0.  1.
          6    1    1    2  502    0  0.21342322507E+03  0.68870820945E+03  0.77818219592E+03  0.10747185682E+04  0.17200000000E+03 0. -1.
         -6    1    1    2    0  501 -0.21342322507E+03 -0.68870820945E+03 -0.67364574590E+03  0.10016242118E+04  0.17200000000E+03 0.  1.
</event>
<event>
 4    1  0.6365520E-002  0.1724840E+03  0.7818608E-02  0.1175282E+00
          2   -1    0    0  502    0  0.00000000000E+00  0.00000000000E+00  0.24283560845E+04  0.24283560845E+04  0.00000000000E+00 0. -1.
         -2   -1    0    0    0  501 -0.00000000000E+00 -0.00000000000E+00 -0.20819204731E+02  0.20819204731E+02  0.00000000000E+00 0.  1.
          6    1    1    2  502    0 -0.12686293997E+02 -0.24071697381E+01  0.19893528358E+04  0.19968163265E+04  0.17200000000E+03 0. -1.
         -6    1    1    2    0  501  0.12686293997E+02  0.24071697381E+01  0.41818404398E+03  0.45235896273E+03  0.17200000000E+03 0.  1.
</event>
<event>
 4    1  0.6365520E-002  0.2934298E+03  0.7818608E-02  0.1088572E+00
          2   -1    0    0  502    0  0.00000000000E+00  0.00000000000E+00  0.68808081299E+03  0.68808081299E+03  0.00000000000E+00 0. -1.
         -2   -1    0    0    0  501 -0.00000000000E+00 -0.00000000000E+00 -0.47590701062E+03  0.47590701062E+03  0.00000000000E+00 0.  1.
          6    1    1    2  502    0  0.23732966657E+03 -0.13843805767E+02  0.60574350255E+03  0.67307221936E+03  0.17200000000E+03 0. -1.
         -6    1    1    2    0  501 -0.23732966657E+03  0.13843805767E+02 -0.39356970018E+03  0.49091560425E+03  0.17200000000E+03 0.  1.
</event>
<event>
 4    1  0.6365520E-002  0.2222830E+03  0.7818608E-02  0.1132192E+00
          2   -1    0    0  502    0  0.00000000000E+00  0.00000000000E+00  0.19068290617E+04  0.19068290617E+04  0.00000000000E+00 0. -1.
         -2   -1    0    0    0  501 -0.00000000000E+00 -0.00000000000E+00 -0.26906200567E+02  0.26906200567E+02  0.00000000000E+00 0.  1.
          6    1    1    2  502    0 -0.10072791972E+03  0.98385019667E+02  0.11258193747E+04  0.11475534804E+04  0.17200000000E+03 0. -1.
         -6    1    1    2    0  501  0.10072791972E+03 -0.98385019667E+02  0.75410348646E+03  0.78618178190E+03  0.17200000000E+03 0.  1.
</event>
<event>
 4    1  0.6365520E-002  0.1794753E+03  0.7818608E-02  0.1168312E+00
          2   -1    0    0  502    0  0.00000000000E+00  0.00000000000E+00  0.75763549376E+03  0.75763549376E+03  0.00000000000E+00 0. -1.
         -2   -1    0    0    0  501 -0.00000000000E+00 -0.00000000000E+00 -0.52902278326E+02  0.52902278326E+02  0.00000000000E+00 0.  1.
          6    1    1    2  502    0  0.42922654073E+02 -0.28018160184E+02  0.53194050292E+03  0.56140187939E+03  0.17200000000E+03 0. -1.
         -6    1    1    2    0  501 -0.42922654073E+02  0.28018160184E+02  0.17279271251E+03  0.24913589270E+03  0.17200000000E+03 0.  1.
</event>
<event>
 4    1  0.6365520E-002  0.3184795E+03  0.7818608E-02  0.1076351E+00
          2   -1    0    0  502    0  0.00000000000E+00  0.00000000000E+00  0.53412414664E+03  0.53412414664E+03  0.00000000000E+00 0. -1.
         -2   -1    0    0    0  501 -0.00000000000E+00 -0.00000000000E+00 -0.20305225996E+03  0.20305225996E+03  0.00000000000E+00 0.  1.
          6    1    1    2  502    0 -0.26048614757E+03 -0.63183336605E+02  0.25935020749E+03  0.41072094812E+03  0.17200000000E+03 0. -1.
         -6    1    1    2    0  501  0.26048614757E+03  0.63183336605E+02  0.71721679186E+02  0.32645545847E+03  0.17200000000E+03 0.  1.
</event>
<event>
 4    1  0.6365520E-002  0.2709048E+03  0.7818608E-02  0.1100763E+00
          2   -1    0    0  502    0  0.00000000000E+00  0.00000000000E+00  0.29158572174E+03  0.29158572174E+03  0.00000000000E+00 0. -1.
         -2   -1    0    0    0  501 -0.00000000000E+00 -0.00000000000E+00 -0.25404493737E+03  0.25404493737E+03  0.00000000000E+00 0.  1.
          6    1    1    2  502    0  0.11416296530E+03 -0.17542018242E+03 -0.74920973535E+01  0.27100840313E+03  0.17200000000E+03 0.  1.
         -6    1    1    2    0  501 -0.11416296530E+03  0.17542018242E+03  0.45032881724E+02  0.27462225598E+03  0.17200000000E+03 0. -1.
</event>
<event>
 4    1  0.6365520E-002  0.1996757E+03  0.7818608E-02  0.1150013E+00
         -2   -1    0    0    0  501 -0.00000000000E+00  0.00000000000E+00  0.14976640999E+03  0.14976640999E+03  0.00000000000E+00 0.  1.
          2   -1    0    0  502    0  0.00000000000E+00 -0.00000000000E+00 -0.47292027537E+03  0.47292027537E+03  0.00000000000E+00 0. -1.
          6    1    1    2  502    0 -0.99416333186E+02  0.20068850256E+02 -0.36741196139E+03  0.41816493806E+03  0.17200000000E+03 0. -1.
         -6    1    1    2    0  501  0.99416333186E+02 -0.20068850256E+02  0.44258096007E+02  0.20452174730E+03  0.17200000000E+03 0.  1.
</event>
<event>
 4    1  0.6365520E-002  0.1818418E+03  0.7818608E-02  0.1166032E+00
         -1   -1    0    0    0  501 -0.00000000000E+00  0.00000000000E+00  0.20755639891E+02  0.20755639891E+02  0.00000000000E+00 0.  1.
          1   -1    0    0  502    0  0.00000000000E+00 -0.00000000000E+00 -0.16403032438E+04  0.16403032438E+04  0.00000000000E+00 0. -1.
          6    1    1    2  502    0 -0.16935177821E+02 -0.56530056385E+02 -0.95061753158E+03  0.96785336641E+03  0.17200000000E+03 0. -1.
         -6    1    1    2    0  501  0.16935177821E+02  0.56530056385E+02 -0.66893007231E+03  0.69320551726E+03  0.17200000000E+03 0.  1.
</event>
<event>
 4    1  0.6365520E-002  0.2501762E+03  0.7818608E-02  0.1113194E+00
          2   -1    0    0  502    0  0.00000000000E+00  0.00000000000E+00  0.37313167143E+04  0.37313167143E+04  0.00000000000E+00 0. -1.
         -2   -1    0    0    0  501 -0.00000000000E+00 -0.00000000000E+00 -0.17968203813E+03  0.17968203813E+03  0.00000000000E+00 0.  1.
          6    1    1    2  502    0 -0.74558224946E+02 -0.16566588420E+03  0.36378056930E+04  0.36463980000E+04  0.17200000000E+03 0. -1.
         -6    1    1    2    0  501  0.74558224946E+02  0.16566588420E+03 -0.86171016792E+02  0.26460075251E+03  0.17200000000E+03 0.  1.
</event>
<event>
 4    1  0.6365520E-002  0.1737526E+03  0.7818608E-02  0.1173990E+00
         -2   -1    0    0    0  501 -0.00000000000E+00  0.00000000000E+00  0.30727089259E+03  0.30727089259E+03  0.00000000000E+00 0.  1.
          2   -1    0    0  502    0  0.00000000000E+00 -0.00000000000E+00 -0.13603057850E+03  0.13603057850E+03  0.00000000000E+00 0. -1.
          6    1    1    2  502    0 -0.10171820677E+02  0.22416277796E+02 -0.31188267145E+02  0.17652949740E+03  0.17200000000E+03 0. -1.
         -6    1    1    2    0  501  0.10171820677E+02 -0.22416277796E+02  0.20242858123E+03  0.26677197369E+03  0.17200000000E+03 0.  1.
</event>
<event>
 4    1  0.6365520E-002  0.2021245E+03  0.7818608E-02  0.1147959E+00
          2   -1    0    0  502    0  0.00000000000E+00  0.00000000000E+00  0.17357610271E+04  0.17357610271E+04  0.00000000000E+00 0. -1.
         -2   -1    0    0    0  501 -0.00000000000E+00 -0.00000000000E+00 -0.27003320743E+02  0.27003320743E+02  0.00000000000E+00 0.  1.
          6    1    1    2  502    0 -0.10557804909E+03  0.11116540903E+02  0.11701708130E+04  0.11874990668E+04  0.17200000000E+03 0. -1.
         -6    1    1    2    0  501  0.10557804909E+03 -0.11116540903E+02  0.53858689329E+03  0.57526528103E+03  0.17200000000E+03 0.  1.
</event>
<event>
 4    1  0.6365520E-002  0.3193693E+03  0.7818608E-02  0.1075940E+00
          2   -1    0    0  502    0  0.00000000000E+00  0.00000000000E+00  0.28517435820E+04  0.28517435820E+04  0.00000000000E+00 0. -1.
         -2   -1    0    0    0  501 -0.00000000000E+00 -0.00000000000E+00 -0.22917029576E+03  0.22917029576E+03  0.00000000000E+00 0.  1.
          6    1    1    2  502    0  0.18974200685E+03 -0.19081599065E+03  0.27264381634E+04  0.27450795672E+04  0.17200000000E+03 0. -1.
         -6    1    1    2    0  501 -0.18974200685E+03  0.19081599065E+03 -0.10386487714E+03  0.33583431057E+03  0.17200000000E+03 0.  1.
</event>
<event>
 4    1  0.6365520E-002  0.2075256E+03  0.7818608E-02  0.1143541E+00
         -2   -1    0    0    0  501 -0.00000000000E+00  0.00000000000E+00  0.86148310884E+02  0.86148310884E+02  0.00000000000E+00 0.  1.
          2   -1    0    0  502    0  0.00000000000E+00 -0.00000000000E+00 -0.51849407891E+03  0.51849407891E+03  0.00000000000E+00 0. -1.
          6    1    1    2  502    0 -0.71387155136E+01  0.11589620154E+03 -0.15894589166E+03  0.26140139110E+03  0.17200000000E+03 0.  1.
         -6    1    1    2    0  501  0.71387155136E+01 -0.11589620154E+03 -0.27339987636E+03  0.34324099870E+03  0.17200000000E+03 0.  1.
</event>
<event>
 4    1  0.6365520E-002  0.1898577E+03  0.7818608E-02  0.1158590E+00
          2   -1    0    0  502    0  0.00000000000E+00  0.00000000000E+00  0.37243179933E+04  0.37243179933E+04  0.00000000000E+00 0. -1.
         -2   -1    0    0    0  501 -0.00000000000E+00 -0.00000000000E+00 -0.11349949519E+02  0.11349949519E+02  0.00000000000E+00 0.  1.
          6    1    1    2  502    0  0.61121366107E+02 -0.52212481209E+02  0.25732586167E+04  0.25802530637E+04  0.17200000000E+03 0. -1.
         -6    1    1    2    0  501 -0.61121366107E+02  0.52212481209E+02  0.11397094271E+04  0.11554148791E+04  0.17200000000E+03 0.  1.
</event>
<event>
 4    1  0.6365520E-002  0.3802974E+03  0.7818608E-02  0.1050824E+00
          1   -1    0    0  502    0  0.00000000000E+00  0.00000000000E+00  0.55942837991E+03  0.55942837991E+03  0.00000000000E+00 0. -1.
         -1   -1    0    0    0  501 -0.00000000000E+00 -0.00000000000E+00 -0.55007000696E+03  0.55007000696E+03  0.00000000000E+00 0.  1.
          6    1    1    2  502    0  0.11601410559E+02 -0.33898008357E+03  0.40854833312E+03  0.55815574016E+03  0.17200000000E+03 0. -1.
         -6    1    1    2    0  501 -0.11601410559E+02  0.33898008357E+03 -0.39918996016E+03  0.55134264671E+03  0.17200000000E+03 0.  1.
</event>
<event>
 4    1  0.6365520E-002  0.3907510E+03  0.7818608E-02  0.1047030E+00
         -1   -1    0    0    0  501 -0.00000000000E+00  0.00000000000E+00  0.15921458903E+04  0.15921458903E+04  0.00000000000E+00 0.  1.
          1   -1    0    0  502    0  0.00000000000E+00 -0.00000000000E+00 -0.11487610056E+03  0.11487610056E+03  0.00000000000E+00 0. -1.
          6    1    1    2  502    0 -0.34928185495E+03  0.33235031942E+02  0.39173776527E+03  0.55330358600E+03  0.17200000000E+03 0. -1.
         -6    1    1    2    0  501  0.34928185495E+03 -0.33235031942E+02  0.10855320245E+04  0.11537184049E+04  0.17200000000E+03 0.  1.
</event>
<event>
 4    1  0.6365520E-002  0.1876735E+03  0.7818608E-02  0.1160577E+00
          1   -1    0    0  502    0  0.00000000000E+00  0.00000000000E+00  0.17810124846E+04  0.17810124846E+04  0.00000000000E+00 0. -1.
         -1   -1    0    0    0  501 -0.00000000000E+00 -0.00000000000E+00 -0.19779187008E+02  0.19779187008E+02  0.00000000000E+00 0.  1.
          6    1    1    2  502    0 -0.36229367389E+02  0.65762907422E+02  0.89202163364E+03  0.91155028492E+03  0.17200000000E+03 0.  1.
         -6    1    1    2    0  501  0.36229367389E+02 -0.65762907422E+02  0.86921166400E+03  0.88924138674E+03  0.17200000000E+03 0.  1.
</event>
<event>
 4    1  0.6365520E-002  0.2040526E+03  0.7818608E-02  0.1146364E+00
          2   -1    0    0  502    0  0.00000000000E+00  0.00000000000E+00  0.74247335119E+03  0.74247335119E+03  0.00000000000E+00 0. -1.
         -2   -1    0    0    0  501 -0.00000000000E+00 -0.00000000000E+00 -0.57872032424E+02  0.57872032424E+02  0.00000000000E+00 0.  1.
          6    1    1    2  502    0 -0.57507106102E+02  0.93522169647E+02  0.41273073384E+03  0.46041733474E+03  0.17200000000E+03 0. -1.
         -6    1    1    2    0  501  0.57507106102E+02 -0.93522169647E+02  0.27187058493E+03  0.33992804888E+03  0.17200000000E+03 0.  1.
</event>
<event>
 4    1  0.6365520E-002  0.5840923E+03  0.7818608E-02  0.9938970E-01
          2   -1    0    0  502    0  0.00000000000E+00  0.00000000000E+00  0.47806472611E+03  0.47806472611E+03  0.00000000000E+00 0. -1.
         -2   -1    0    0    0  501 -0.00000000000E+00 -0.00000000000E+00 -0.78759499977E+03  0.78759499977E+03  0.00000000000E+00 0.  1.
          6    1    1    2  502    0  0.54517663921E+03 -0.11984282769E+03  0.39159513235E+02  0.58540356914E+03  0.17200000000E+03 0. -1.
         -6    1    1    2    0  501 -0.54517663921E+03  0.11984282769E+03 -0.34868978689E+03  0.68025615673E+03  0.17200000000E+03 0.  1.
</event>
<event>
 4    1  0.6365520E-002  0.2687874E+03  0.7818608E-02  0.1101976E+00
         -2   -1    0    0    0  501 -0.00000000000E+00  0.00000000000E+00  0.14501928369E+03  0.14501928369E+03  0.00000000000E+00 0.  1.
          2   -1    0    0  502    0  0.00000000000E+00 -0.00000000000E+00 -0.14829067719E+04  0.14829067719E+04  0.00000000000E+00 0. -1.
          6    1    1    2  502    0  0.13745180152E+03  0.15417409999E+03 -0.13322348768E+04  0.13590792537E+04  0.17200000000E+03 0. -1.
         -6    1    1    2    0  501 -0.13745180152E+03 -0.15417409999E+03 -0.56526113493E+01  0.26884680185E+03  0.17200000000E+03 0.  1.
</event>
<event>
 4    1  0.6365520E-002  0.2692543E+03  0.7818608E-02  0.1101707E+00
          1   -1    0    0  502    0  0.00000000000E+00  0.00000000000E+00  0.84315506383E+03  0.84315506383E+03  0.00000000000E+00 0. -1.
         -1   -1    0    0    0  501 -0.00000000000E+00 -0.00000000000E+00 -0.94725405863E+02  0.94725405863E+02  0.00000000000E+00 0.  1.
          6    1    1    2  502    0 -0.67954009546E+02  0.19569399231E+03  0.23176114242E+03  0.35526203453E+03  0.17200000000E+03 0.  1.
         -6    1    1    2    0  501  0.67954009546E+02 -0.19569399231E+03  0.51666851554E+03  0.58261843517E+03  0.17200000000E+03 0. -1.
</event>
<event>
 4    1  0.6365520E-002  0.1990786E+03  0.7818608E-02  0.1150519E+00
          1   -1    0    0  502    0  0.00000000000E+00  0.00000000000E+00  0.14748923040E+04  0.14748923040E+04  0.00000000000E+00 0. -1.
         -1   -1    0    0    0  501 -0.00000000000E+00 -0.00000000000E+00 -0.28729395303E+02  0.28729395303E+02  0.00000000000E+00 0.  1.
          6    1    1    2  502    0 -0.86574702145E+02 -0.50528142035E+02  0.53188516985E+03  0.56792086252E+03  0.17200000000E+03 0.  1.
         -6    1    1    2    0  501  0.86574702145E+02  0.50528142035E+02  0.91427773884E+03  0.93570083677E+03  0.17200000000E+03 0.  1.
</event>
<event>
 4    1  0.6365520E-002  0.2696100E+03  0.7818608E-02  0.1101503E+00
          2   -1    0    0  502    0  0.00000000000E+00  0.00000000000E+00  0.17131015425E+04  0.17131015425E+04  0.00000000000E+00 0. -1.
         -2   -1    0    0    0  501 -0.00000000000E+00 -0.00000000000E+00 -0.43872769076E+02  0.43872769076E+02  0.00000000000E+00 0.  1.
          6    1    1    2  502    0  0.10995889813E+03  0.17610957990E+03  0.67539211940E+03  0.72721665159E+03  0.17200000000E+03 0. -1.
         -6    1    1    2    0  501 -0.10995889813E+03 -0.17610957990E+03  0.99383665406E+03  0.10297576600E+04  0.17200000000E+03 0.  1.
</event>
<event>
 4    1  0.6365520E-002  0.3482800E+03  0.7818608E-02  0.1063323E+00
          2   -1    0    0  502    0  0.00000000000E+00  0.00000000000E+00  0.23270733189E+03  0.23270733189E+03  0.00000000000E+00 0. -1.
         -2   -1    0    0    0  501 -0.00000000000E+00 -0.00000000000E+00 -0.54288766396E+03  0.54288766396E+03  0.00000000000E+00 0.  1.
          6    1    1    2  502    0 -0.28307548409E+03 -0.10762546113E+03 -0.77671900753E+02  0.35683594794E+03  0.17200000000E+03 0. -1.
         -6    1    1    2    0  501  0.28307548409E+03  0.10762546113E+03 -0.23250843132E+03  0.41875904791E+03  0.17200000000E+03 0.  1.
</event>
<event>
 4    1  0.6365520E-002  0.4558851E+03  0.7818608E-02  0.1025981E+00
          2   -1    0    0  502    0  0.00000000000E+00  0.00000000000E+00  0.50491204751E+03  0.50491204751E+03  0.00000000000E+00 0. -1.
         -2   -1    0    0    0  501 -0.00000000000E+00 -0.00000000000E+00 -0.52008549698E+03  0.52008549698E+03  0.00000000000E+00 0.  1.
          6    1    1    2  502    0 -0.38280127052E+03  0.17807419439E+03 -0.24163416838E+03  0.51596347036E+03  0.17200000000E+03 0. -1.
         -6    1    1    2    0  501  0.38280127052E+03 -0.17807419439E+03  0.22646071891E+03  0.50903407413E+03  0.17200000000E+03 0.  1.
</event>
<event>
 4    1  0.6365520E-002  0.1912192E+03  0.7818608E-02  0.1157366E+00
         -1   -1    0    0    0  501 -0.00000000000E+00  0.00000000000E+00  0.11922643896E+03  0.11922643896E+03  0.00000000000E+00 0.  1.
          1   -1    0    0  502    0  0.00000000000E+00 -0.00000000000E+00 -0.50371586819E+03  0.50371586819E+03  0.00000000000E+00 0. -1.
          6    1    1    2  502    0  0.85444598273E+01 -0.83112918903E+02  0.25575298515E+01  0.19123625713E+03  0.17200000000E+03 0.  1.
         -6    1    1    2    0  501 -0.85444598273E+01  0.83112918903E+02 -0.38704695909E+03  0.43170605002E+03  0.17200000000E+03 0. -1.
</event>
<event>
 4    1  0.6365520E-002  0.2497080E+03  0.7818608E-02  0.1113489E+00
         -2   -1    0    0    0  501 -0.00000000000E+00  0.00000000000E+00  0.15688089976E+04  0.15688089976E+04  0.00000000000E+00 0.  1.
          2   -1    0    0  502    0  0.00000000000E+00 -0.00000000000E+00 -0.49320525092E+02  0.49320525092E+02  0.00000000000E+00 0. -1.
          6    1    1    2  502    0  0.47306567270E+02 -0.17473457683E+03  0.40327245861E+03  0.47432347561E+03  0.17200000000E+03 0. -1.
         -6    1    1    2    0  501 -0.47306567270E+02  0.17473457683E+03  0.11162160139E+04  0.11438060471E+04  0.17200000000E+03 0.  1.
</event>
<event>
 4    1  0.6365520E-002  0.2826223E+03  0.7818608E-02  0.1094265E+00
          1   -1    0    0  502    0  0.00000000000E+00  0.00000000000E+00  0.25328001248E+04  0.25328001248E+04  0.00000000000E+00 0. -1.
         -1   -1    0    0    0  501 -0.00000000000E+00 -0.00000000000E+00 -0.36514070457E+02  0.36514070457E+02  0.00000000000E+00 0.  1.
          6    1    1    2  502    0 -0.45174900095E+02 -0.21966015848E+03  0.17224624113E+04  0.17454948052E+04  0.17200000000E+03 0. -1.
         -6    1    1    2    0  501  0.45174900095E+02  0.21966015848E+03  0.77382364313E+03  0.82381939009E+03  0.17200000000E+03 0.  1.
</event>
<event>
 4    1  0.6365520E-002  0.4722265E+03  0.7818608E-02  0.1021294E+00
          2   -1    0    0  502    0  0.00000000000E+00  0.00000000000E+00  0.11283744477E+04  0.11283744477E+04  0.00000000000E+00 0. -1.
         -2   -1    0    0    0  501 -0.00000000000E+00 -0.00000000000E+00 -0.31009606915E+03  0.31009606915E+03  0.00000000000E+00 0.  1.
          6    1    1    2  502    0 -0.43598569349E+03  0.57709307975E+02  0.84228917792E+03  0.96563396191E+03  0.17200000000E+03 0. -1.
         -6    1    1    2    0  501  0.43598569349E+03 -0.57709307975E+02 -0.24010799420E+02  0.47283655490E+03  0.17200000000E+03 0.  1.
</event>
<event>
 4    1  0.6365520E-002  0.2772650E+03  0.7818608E-02  0.1097192E+00
          1   -1    0    0  502    0  0.00000000000E+00  0.00000000000E+00  0.65809925504E+02  0.65809925504E+02  0.00000000000E+00 0. -1.
         -1   -1    0    0    0  501 -0.00000000000E+00 -0.00000000000E+00 -0.11991265977E+04  0.11991265977E+04  0.00000000000E+00 0.  1.
          6    1    1    2  502    0  0.15431425752E+03  0.15322847987E+03 -0.66831219277E+03  0.72354477686E+03  0.17200000000E+03 0. -1.
         -6    1    1    2    0  501 -0.15431425752E+03 -0.15322847987E+03 -0.46500447939E+03  0.54139174631E+03  0.17200000000E+03 0. -1.
</event>
<event>
 4    1  0.6365520E-002  0.2624317E+03  0.7818608E-02  0.1105691E+00
          2   -1    0    0  502    0  0.00000000000E+00  0.00000000000E+00  0.93990372308E+02  0.93990372308E+02  0.00000000000E+00 0. -1.
         -2   -1    0    0    0  501 -0.00000000000E+00 -0.00000000000E+00 -0.83544552433E+03  0.83544552433E+03  0.00000000000E+00 0.  1.
          6    1    1    2  502    0 -0.29289029582E+02  0.19603204826E+03 -0.20778694311E+03  0.33473246769E+03  0.17200000000E+03 0. -1.
         -6    1    1    2    0  501  0.29289029582E+02 -0.19603204826E+03 -0.53366820891E+03  0.59470342895E+03  0.17200000000E+03 0.  1.
</event>
<event>
 4    1  0.6365520E-002  0.2813289E+03  0.7818608E-02  0.1094965E+00
         -2   -1    0    0    0  501 -0.00000000000E+00  0.00000000000E+00  0.31403543744E+03  0.31403543744E+03  0.00000000000E+00 0.  1.
          2   -1    0    0  502    0  0.00000000000E+00 -0.00000000000E+00 -0.40645443596E+03  0.40645443596E+03  0.00000000000E+00 0. -1.
          6    1    1    2  502    0  0.60155918148E+02  0.21434374647E+03  0.17584094342E+03  0.33176198324E+03  0.17200000000E+03 0. -1.
         -6    1    1    2    0  501 -0.60155918148E+02 -0.21434374647E+03 -0.26825994194E+03  0.38872789016E+03  0.17200000000E+03 0.  1.
</event>
<event>
 4    1  0.6365520E-002  0.1721867E+03  0.7818608E-02  0.1175586E+00
         -2   -1    0    0    0  501 -0.00000000000E+00  0.00000000000E+00  0.34221410268E+03  0.34221410268E+03  0.00000000000E+00 0.  1.
          2   -1    0    0  502    0  0.00000000000E+00 -0.00000000000E+00 -0.12657820782E+03  0.12657820782E+03  0.00000000000E+00 0. -1.
          6    1    1    2  502    0 -0.75512355732E+01  0.26908805582E+01 -0.23851148294E+02  0.17383077769E+03  0.17200000000E+03 0. -1.
         -6    1    1    2    0  501  0.75512355732E+01 -0.26908805582E+01  0.23948704316E+03  0.29496153281E+03  0.17200000000E+03 0.  1.
</event>
<event>
 4    1  0.6365520E-002  0.1970192E+03  0.7818608E-02  0.1152279E+00
          2   -1    0    0  502    0  0.00000000000E+00  0.00000000000E+00  0.24832632344E+02  0.24832632344E+02  0.00000000000E+00 0. -1.
         -2   -1    0    0    0  501 -0.00000000000E+00 -0.00000000000E+00 -0.15671445115E+04  0.15671445115E+04  0.00000000000E+00 0.  1.
          6    1    1    2  502    0  0.89639079967E+02  0.34603434798E+02 -0.81145747587E+03  0.83503281223E+03  0.17200000000E+03 0.  1.
         -6    1    1    2    0  501 -0.89639079967E+02 -0.34603434798E+02 -0.73085440324E+03  0.75694433157E+03  0.17200000000E+03 0. -1.
</event>
<event>
 4    1  0.6365520E-002  0.1799043E+03  0.7818608E-02  0.1167896E+00
          3   -1    0    0  502    0  0.00000000000E+00  0.00000000000E+00  0.81334357723E+03  0.81334357723E+03  0.00000000000E+00 0. -1.
         -3   -1    0    0    0  501 -0.00000000000E+00 -0.00000000000E+00 -0.40132270873E+02  0.40132270873E+02  0.00000000000E+00 0.  1.
          6    1    1    2  502    0  0.46369328455E+02 -0.25128349151E+02  0.34738130414E+03  0.39120240160E+03  0.17200000000E+03 0. -1.
         -6    1    1    2    0  501 -0.46369328455E+02  0.25128349151E+02  0.42583000222E+03  0.46227344650E+03  0.17200000000E+03 0.  1.
</event>
<event>
 4    1  0.6365520E-002  0.4235398E+03  0.7818608E-02  0.1035920E+00
          1   -1    0    0  502    0  0.00000000000E+00  0.00000000000E+00  0.19064772170E+04  0.19064772170E+04  0.00000000000E+00 0. -1.
         -1   -1    0    0    0  501 -0.00000000000E+00 -0.00000000000E+00 -0.13087465998E+03  0.13087465998E+03  0.00000000000E+00 0.  1.
          6    1    1    2  502    0 -0.38667206599E+03 -0.16932046552E+02  0.14278394832E+04  0.14893325924E+04  0.17200000000E+03 0. -1.
         -6    1    1    2    0  501  0.38667206599E+03  0.16932046552E+02  0.34776307377E+03  0.54801928460E+03  0.17200000000E+03 0.  1.
</event>
<event>
 4    1  0.6365520E-002  0.1773035E+03  0.7818608E-02  0.1170439E+00
          1   -1    0    0  502    0  0.00000000000E+00  0.00000000000E+00  0.10582460528E+03  0.10582460528E+03  0.00000000000E+00 0. -1.
         -1   -1    0    0    0  501 -0.00000000000E+00 -0.00000000000E+00 -0.36139255475E+03  0.36139255475E+03  0.00000000000E+00 0.  1.
          6    1    1    2  502    0 -0.41632023632E+02 -0.10922642843E+02 -0.29222792653E+02  0.17969557905E+03  0.17200000000E+03 0. -1.
         -6    1    1    2    0  501  0.41632023632E+02  0.10922642843E+02 -0.22634515682E+03  0.28752158099E+03  0.17200000000E+03 0.  1.
</event>
<event>
 4    1  0.6365520E-002  0.1922901E+03  0.7818608E-02  0.1156412E+00
          3   -1    0    0  502    0  0.00000000000E+00  0.00000000000E+00  0.20001177774E+03  0.20001177774E+03  0.00000000000E+00 0. -1.
         -3   -1    0    0    0  501 -0.00000000000E+00 -0.00000000000E+00 -0.21076255351E+03  0.21076255351E+03  0.00000000000E+00 0.  1.
          6    1    1    2  502    0  0.83897763111E+02  0.18779342722E+02 -0.77368754822E+02  0.20727137427E+03  0.17200000000E+03 0.  1.
         -6    1    1    2    0  501 -0.83897763111E+02 -0.18779342722E+02  0.66617979046E+02  0.20350295698E+03  0.17200000000E+03 0. -1.
</event>
<event>
 4    1  0.6365520E-002  0.1792722E+03  0.7818608E-02  0.1168509E+00
          1   -1    0    0  502    0  0.00000000000E+00  0.00000000000E+00  0.65609066801E+02  0.65609066801E+02  0.00000000000E+00 0. -1.
         -1   -1    0    0    0  501 -0.00000000000E+00 -0.00000000000E+00 -0.79467955083E+03  0.79467955083E+03  0.00000000000E+00 0.  1.
          6    1    1    2  502    0 -0.30453690087E+02 -0.40337167449E+02 -0.98127009858E+02  0.20437080120E+03  0.17200000000E+03 0. -1.
         -6    1    1    2    0  501  0.30453690087E+02  0.40337167449E+02 -0.63094347417E+03  0.65591781643E+03  0.17200000000E+03 0.  1.
</event>
<event>
 4    1  0.6365520E-002  0.1843796E+03  0.7818608E-02  0.1163630E+00
          1   -1    0    0  502    0  0.00000000000E+00  0.00000000000E+00  0.33085666586E+03  0.33085666586E+03  0.00000000000E+00 0. -1.
         -1   -1    0    0    0  501 -0.00000000000E+00 -0.00000000000E+00 -0.21884242202E+03  0.21884242202E+03  0.00000000000E+00 0.  1.
          6    1    1    2  502    0  0.20317116811E+02 -0.63238161788E+02  0.25619111431E+03  0.31564178651E+03  0.17200000000E+03 0. -1.
         -6    1    1    2    0  501 -0.20317116811E+02  0.63238161788E+02 -0.14417687048E+03  0.23405730136E+03  0.17200000000E+03 0.  1.
</event>
<event>
 4    1  0.6365520E-002  0.4095033E+03  0.7818608E-02  0.1040538E+00
          2   -1    0    0  502    0  0.00000000000E+00  0.00000000000E+00  0.10272412244E+04  0.10272412244E+04  0.00000000000E+00 0. -1.
         -2   -1    0    0    0  501 -0.00000000000E+00 -0.00000000000E+00 -0.26343954711E+03  0.26343954711E+03  0.00000000000E+00 0.  1.
          6    1    1    2  502    0  0.31954910992E+03 -0.18972961935E+03  0.77988735527E+03  0.88086165146E+03  0.17200000000E+03 0. -1.
         -6    1    1    2    0  501 -0.31954910992E+03  0.18972961935E+03 -0.16085677996E+02  0.40981912004E+03  0.17200000000E+03 0.  1.
</event>
<event>
 4    1  0.6365520E-002  0.1760524E+03  0.7818608E-02  0.1171679E+00
          2   -1    0    0  502    0  0.00000000000E+00  0.00000000000E+00  0.81423611525E+03  0.81423611525E+03  0.00000000000E+00 0. -1.
         -2   -1    0    0    0  501 -0.00000000000E+00 -0.00000000000E+00 -0.39892017893E+02  0.39892017893E+02  0.00000000000E+00 0.  1.
          6    1    1    2  502    0 -0.31620922585E+01  0.37422580655E+02  0.29579417730E+03  0.34422179433E+03  0.17200000000E+03 0.  1.
         -6    1    1    2    0  501  0.31620922585E+01 -0.37422580655E+02  0.47854992007E+03  0.50990633882E+03  0.17200000000E+03 0. -1.
</event>
<event>
 4    1  0.6365520E-002  0.3905783E+03  0.7818608E-02  0.1047092E+00
          1   -1    0    0  502    0  0.00000000000E+00  0.00000000000E+00  0.79599281420E+03  0.79599281420E+03  0.00000000000E+00 0. -1.
         -1   -1    0    0    0  501 -0.00000000000E+00 -0.00000000000E+00 -0.19927450383E+03  0.19927450383E+03  0.00000000000E+00 0.  1.
          6    1    1    2  502    0 -0.21162971978E+03  0.27960731750E+03  0.20101445680E+03  0.43927007881E+03  0.17200000000E+03 0. -1.
         -6    1    1    2    0  501  0.21162971978E+03 -0.27960731750E+03  0.39570385357E+03  0.55599723922E+03  0.17200000000E+03 0.  1.
</event>
<event>
 4    1  0.6365520E-002  0.1979543E+03  0.7818608E-02  0.1151477E+00
         -1   -1    0    0    0  501 -0.00000000000E+00  0.00000000000E+00  0.62129954408E+02  0.62129954408E+02  0.00000000000E+00 0.  1.
          1   -1    0    0  502    0  0.00000000000E+00 -0.00000000000E+00 -0.70606268218E+03  0.70606268218E+03  0.00000000000E+00 0. -1.
          6    1    1    2  502    0 -0.31587099258E+02 -0.92758633156E+02 -0.44744544707E+03  0.48927838392E+03  0.17200000000E+03 0. -1.
         -6    1    1    2    0  501  0.31587099258E+02  0.92758633156E+02 -0.19648728069E+03  0.27891425266E+03  0.17200000000E+03 0.  1.
</event>
<event>
 4    1  0.6365520E-002  0.1885960E+03  0.7818608E-02  0.1159734E+00
         -2   -1    0    0    0  501 -0.00000000000E+00  0.00000000000E+00  0.21230588975E+03  0.21230588975E+03  0.00000000000E+00 0.  1.
          2   -1    0    0  502    0  0.00000000000E+00 -0.00000000000E+00 -0.24114578918E+03  0.24114578918E+03  0.00000000000E+00 0. -1.
          6    1    1    2  502    0  0.29594621484E+02 -0.71474550952E+02 -0.13968643440E+03  0.23469289084E+03  0.17200000000E+03 0. -1.
         -6    1    1    2    0  501 -0.29594621484E+02  0.71474550952E+02  0.11084653497E+03  0.21875878810E+03  0.17200000000E+03 0.  1.
</event>
<event>
 4    1  0.6365520E-002  0.2644098E+03  0.7818608E-02  0.1104522E+00
          1   -1    0    0  502    0  0.00000000000E+00  0.00000000000E+00  0.46590409164E+03  0.46590409164E+03  0.00000000000E+00 0. -1.
         -1   -1    0    0    0  501 -0.00000000000E+00 -0.00000000000E+00 -0.15016477179E+03  0.15016477179E+03  0.00000000000E+00 0.  1.
          6    1    1    2  502    0  0.19817133532E+03 -0.32506467145E+02  0.16609067978E+03  0.31224775813E+03  0.17200000000E+03 0. -1.
         -6    1    1    2    0  501 -0.19817133532E+03  0.32506467145E+02  0.14964864008E+03  0.30382110530E+03  0.17200000000E+03 0.  1.
</event>
<event>
 4    1  0.6365520E-002  0.3888531E+03  0.7818608E-02  0.1047709E+00
          2   -1    0    0  502    0  0.00000000000E+00  0.00000000000E+00  0.16415957150E+04  0.16415957150E+04  0.00000000000E+00 0. -1.
         -2   -1    0    0    0  501 -0.00000000000E+00 -0.00000000000E+00 -0.92335478083E+02  0.92335478083E+02  0.00000000000E+00 0.  1.
          6    1    1    2  502    0 -0.25465110594E+03  0.23827627341E+03  0.73175265345E+03  0.82865476168E+03  0.17200000000E+03 0.  1.
         -6    1    1    2    0  501  0.25465110594E+03 -0.23827627341E+03  0.81750758350E+03  0.90527643143E+03  0.17200000000E+03 0.  1.
</event>
<event>
 4    1  0.6365520E-002  0.3557711E+03  0.7818608E-02  0.1060271E+00
          2   -1    0    0  502    0  0.00000000000E+00  0.00000000000E+00  0.12641204478E+04  0.12641204478E+04  0.00000000000E+00 0. -1.
         -2   -1    0    0    0  501 -0.00000000000E+00 -0.00000000000E+00 -0.10029411312E+03  0.10029411312E+03  0.00000000000E+00 0.  1.
          6    1    1    2  502    0 -0.19682522692E+03 -0.24134807655E+03  0.55409720176E+03  0.65848065500E+03  0.17200000000E+03 0. -1.
         -6    1    1    2    0  501  0.19682522692E+03  0.24134807655E+03  0.60972913294E+03  0.70593390595E+03  0.17200000000E+03 0. -1.
</event>
<event>
 4    1  0.6365520E-002  0.1722725E+03  0.7818608E-02  0.1175498E+00
         -2   -1    0    0    0  501 -0.00000000000E+00  0.00000000000E+00  0.73689917280E+02  0.73689917280E+02  0.00000000000E+00 0.  1.
          2   -1    0    0  502    0  0.00000000000E+00 -0.00000000000E+00 -0.45923830036E+03  0.45923830036E+03  0.00000000000E+00 0. -1.
          6    1    1    2  502    0  0.90562811739E+01 -0.34372643111E+01 -0.99311179117E+02  0.19884803573E+03  0.17200000000E+03 0.  1.
         -6    1    1    2    0  501 -0.90562811739E+01  0.34372643111E+01 -0.28623720396E+03  0.33408018191E+03  0.17200000000E+03 0. -1.
</event>
<event>
 4    1  0.6365520E-002  0.2012668E+03  0.7818608E-02  0.1148675E+00
         -2   -1    0    0    0  501 -0.00000000000E+00  0.00000000000E+00  0.75568016452E+02  0.75568016452E+02  0.00000000000E+00 0.  1.
          2   -1    0    0  502    0  0.00000000000E+00 -0.00000000000E+00 -0.57957933381E+03  0.57957933381E+03  0.00000000000E+00 0. -1.
          6    1    1    2  502    0 -0.63774827560E+02  0.82807562934E+02 -0.34177703587E+03  0.39663568089E+03  0.17200000000E+03 0. -1.
         -6    1    1    2    0  501  0.63774827560E+02 -0.82807562934E+02 -0.16223428148E+03  0.25851166937E+03  0.17200000000E+03 0.  1.
</event>
<event>
 4    1  0.6365520E-002  0.4084991E+03  0.7818608E-02  0.1040876E+00
         -2   -1    0    0    0  501 -0.00000000000E+00  0.00000000000E+00  0.53440760100E+03  0.53440760100E+03  0.00000000000E+00 0.  1.
          2   -1    0    0  502    0  0.00000000000E+00 -0.00000000000E+00 -0.31788908891E+03  0.31788908891E+03  0.00000000000E+00 0. -1.
          6    1    1    2  502    0  0.34810864669E+03  0.12691692199E+03  0.51527217969E+02  0.41173606738E+03  0.17200000000E+03 0. -1.
         -6    1    1    2    0  501 -0.34810864669E+03 -0.12691692199E+03  0.16499129413E+03  0.44056062253E+03  0.17200000000E+03 0.  1.
</event>
<event>
 4    1  0.6365520E-002  0.1859365E+03  0.7818608E-02  0.1162178E+00
         -2   -1    0    0    0  501 -0.00000000000E+00  0.00000000000E+00  0.35690695004E+03  0.35690695004E+03  0.00000000000E+00 0.  1.
          2   -1    0    0  502    0  0.00000000000E+00 -0.00000000000E+00 -0.24907198789E+03  0.24907198789E+03  0.00000000000E+00 0. -1.
          6    1    1    2  502    0  0.43127150983E+02  0.55932284526E+02 -0.18293616156E+03  0.26084096843E+03  0.17200000000E+03 0. -1.
         -6    1    1    2    0  501 -0.43127150983E+02 -0.55932284526E+02  0.29077112371E+03  0.34513796950E+03  0.17200000000E+03 0.  1.
</event>
<event>
 4    1  0.6365520E-002  0.2398173E+03  0.7818608E-02  0.1119915E+00
          2   -1    0    0  502    0  0.00000000000E+00  0.00000000000E+00  0.99833617431E+03  0.99833617431E+03  0.00000000000E+00 0. -1.
         -2   -1    0    0    0  501 -0.00000000000E+00 -0.00000000000E+00 -0.60380049496E+02  0.60380049496E+02  0.00000000000E+00 0.  1.
          6    1    1    2  502    0  0.11753301330E+03  0.11880373582E+03  0.58239781457E+03  0.62984089362E+03  0.17200000000E+03 0. -1.
         -6    1    1    2    0  501 -0.11753301330E+03 -0.11880373582E+03  0.35555831024E+03  0.42887533019E+03  0.17200000000E+03 0.  1.
</event>
<event>
 4    1  0.6365520E-002  0.1917178E+03  0.7818608E-02  0.1156921E+00
         -2   -1    0    0    0  501 -0.00000000000E+00  0.00000000000E+00  0.72028384445E+02  0.72028384445E+02  0.00000000000E+00 0.  1.
          2   -1    0    0  502    0  0.00000000000E+00 -0.00000000000E+00 -0.60886324454E+03  0.60886324454E+03  0.00000000000E+00 0. -1.
          6    1    1    2  502    0 -0.34615188266E+02 -0.77288482266E+02 -0.40539729834E+03  0.44844474604E+03  0.17200000000E+03 0. -1.
         -6    1    1    2    0  501  0.34615188266E+02  0.77288482266E+02 -0.13143756175E+03  0.23244688294E+03  0.17200000000E+03 0.  1.
</event>
<event>
 4    1  0.6365520E-002  0.1743950E+03  0.7818608E-02  0.1173341E+00
          2   -1    0    0  502    0  0.00000000000E+00  0.00000000000E+00  0.53448246938E+03  0.53448246938E+03  0.00000000000E+00 0. -1.
         -2   -1    0    0    0  501 -0.00000000000E+00 -0.00000000000E+00 -0.63115500039E+02  0.63115500039E+02  0.00000000000E+00 0.  1.
          6    1    1    2  502    0  0.15222312659E+02 -0.24451764790E+02  0.14193862399E+03  0.22485591071E+03  0.17200000000E+03 0.  1.
         -6    1    1    2    0  501 -0.15222312659E+02  0.24451764790E+02  0.32942834536E+03  0.37274205871E+03  0.17200000000E+03 0. -1.
</event>
<event>
 4    1  0.6365520E-002  0.1975492E+03  0.7818608E-02  0.1151823E+00
          3   -1    0    0  502    0  0.00000000000E+00  0.00000000000E+00  0.26349675335E+04  0.26349675335E+04  0.00000000000E+00 0. -1.
         -3   -1    0    0    0  501 -0.00000000000E+00 -0.00000000000E+00 -0.15804346165E+02  0.15804346165E+02  0.00000000000E+00 0.  1.
          6    1    1    2  502    0 -0.63020416758E+02  0.73960254548E+02  0.97724990589E+03  0.99701708648E+03  0.17200000000E+03 0. -1.
         -6    1    1    2    0  501  0.63020416758E+02 -0.73960254548E+02  0.16419132814E+04  0.16537547932E+04  0.17200000000E+03 0. -1.
</event>
<event>
 4    1  0.6365520E-002  0.5626379E+03  0.7818608E-02  0.9986104E-01
         -2   -1    0    0    0  501 -0.00000000000E+00  0.00000000000E+00  0.19138369364E+03  0.19138369364E+03  0.00000000000E+00 0.  1.
          2   -1    0    0  502    0  0.00000000000E+00 -0.00000000000E+00 -0.16541286364E+04  0.16541286364E+04  0.00000000000E+00 0. -1.
          6    1    1    2  502    0 -0.48584678016E+03 -0.22567733083E+03 -0.73702918355E+03  0.92723965017E+03  0.17200000000E+03 0. -1.
         -6    1    1    2    0  501  0.48584678016E+03  0.22567733083E+03 -0.72571575921E+03  0.91827267988E+03  0.17200000000E+03 0. -1.
</event>
<event>
 4    1  0.6365520E-002  0.2165495E+03  0.7818608E-02  0.1136482E+00
          1   -1    0    0  502    0  0.00000000000E+00  0.00000000000E+00  0.95248269793E+02  0.95248269793E+02  0.00000000000E+00 0. -1.
         -1   -1    0    0    0  501 -0.00000000000E+00 -0.00000000000E+00 -0.69788510249E+03  0.69788510249E+03  0.00000000000E+00 0.  1.
          6    1    1    2  502    0  0.11265163152E+03  0.67965298660E+02 -0.86096059325E+02  0.23303691411E+03  0.17200000000E+03 0.  1.
         -6    1    1    2    0  501 -0.11265163152E+03 -0.67965298660E+02 -0.51654077337E+03  0.56009645817E+03  0.17200000000E+03 0.  1.
</event>
<event>
 4    1  0.6365520E-002  0.3882488E+03  0.7818608E-02  0.1047926E+00
         -2   -1    0    0    0  501 -0.00000000000E+00  0.00000000000E+00  0.18798706395E+03  0.18798706395E+03  0.00000000000E+00 0.  1.
          2   -1    0    0  502    0  0.00000000000E+00 -0.00000000000E+00 -0.14249031600E+04  0.14249031600E+04  0.00000000000E+00 0. -1.
          6    1    1    2  502    0 -0.32475823494E+03  0.12524071316E+03 -0.11517256623E+04  0.12154049319E+04  0.17200000000E+03 0. -1.
         -6    1    1    2    0  501  0.32475823494E+03 -0.12524071316E+03 -0.85190433799E+02  0.39748529206E+03  0.17200000000E+03 0.  1.
</event>
<event>
 4    1  0.6365520E-002  0.1835395E+03  0.7818608E-02  0.1164421E+00
         -1   -1    0    0    0  501 -0.00000000000E+00  0.00000000000E+00  0.30597159193E+02  0.30597159193E+02  0.00000000000E+00 0.  1.
          1   -1    0    0  502    0  0.00000000000E+00 -0.00000000000E+00 -0.12034637052E+04  0.12034637052E+04  0.00000000000E+00 0. -1.
          6    1    1    2  502    0  0.30315690294E+01  0.63980803186E+02 -0.76649701517E+03  0.78816521609E+03  0.17200000000E+03 0. -1.
         -6    1    1    2    0  501 -0.30315690294E+01 -0.63980803186E+02 -0.40636953088E+03  0.44589564835E+03  0.17200000000E+03 0.  1.
</event>
<event>
 4    1  0.6365520E-002  0.2502542E+03  0.7818608E-02  0.1113144E+00
          2   -1    0    0  502    0  0.00000000000E+00  0.00000000000E+00  0.15742071249E+04  0.15742071249E+04  0.00000000000E+00 0. -1.
         -2   -1    0    0    0  501 -0.00000000000E+00 -0.00000000000E+00 -0.42173290724E+02  0.42173290724E+02  0.00000000000E+00 0.  1.
          6    1    1    2  502    0  0.35925615419E+02  0.17819229302E+03  0.95841183327E+03  0.99054549885E+03  0.17200000000E+03 0. -1.
         -6    1    1    2    0  501 -0.35925615419E+02 -0.17819229302E+03  0.57362200096E+03  0.62583491683E+03  0.17200000000E+03 0.  1.
</event>
<event>
 4    1  0.6365520E-002  0.2143728E+03  0.7818608E-02  0.1138149E+00
          2   -1    0    0  502    0  0.00000000000E+00  0.00000000000E+00  0.99141147312E+03  0.99141147312E+03  0.00000000000E+00 0. -1.
         -2   -1    0    0    0  501 -0.00000000000E+00 -0.00000000000E+00 -0.71982914855E+02  0.71982914855E+02  0.00000000000E+00 0.  1.
          6    1    1    2  502    0  0.12436344822E+03 -0.30090460957E+02  0.77697502314E+03  0.80600613501E+03  0.17200000000E+03 0. -1.
         -6    1    1    2    0  501 -0.12436344822E+03  0.30090460957E+02  0.14245353512E+03  0.25738825296E+03  0.17200000000E+03 0.  1.
</event>
<event>
 4    1  0.6365520E-002  0.2185782E+03  0.7818608E-02  0.1134948E+00
         -3   -1    0    0    0  501 -0.00000000000E+00  0.00000000000E+00  0.96172727809E+03  0.96172727809E+03  0.00000000000E+00 0.  1.
          3   -1    0    0  502    0  0.00000000000E+00 -0.00000000000E+00 -0.55219816406E+02  0.55219816406E+02  0.00000000000E+00 0. -1.
          6    1    1    2  502    0 -0.12468124826E+03 -0.51449076086E+02  0.29216772447E+03  0.36488135102E+03  0.17200000000E+03 0. -1.
         -6    1    1    2    0  501  0.12468124826E+03  0.51449076086E+02  0.61433973721E+03  0.65206574348E+03  0.17200000000E+03 0.  1.
</event>
<event>
 4    1  0.6365520E-002  0.4327364E+03  0.7818608E-02  0.1032999E+00
         -2   -1    0    0    0  501 -0.00000000000E+00  0.00000000000E+00  0.31007041635E+03  0.31007041635E+03  0.00000000000E+00 0.  1.
          2   -1    0    0  502    0  0.00000000000E+00 -0.00000000000E+00 -0.68610220068E+03  0.68610220068E+03  0.00000000000E+00 0. -1.
          6    1    1    2  502    0  0.11704740746E+03 -0.37944257510E+03 -0.36039046187E+03  0.56315366322E+03  0.17200000000E+03 0. -1.
         -6    1    1    2    0  501 -0.11704740746E+03  0.37944257510E+03 -0.15641322460E+02  0.43301895381E+03  0.17200000000E+03 0.  1.
</event>
<event>
 4    1  0.6365520E-002  0.2786292E+03  0.7818608E-02  0.1096440E+00
          2   -1    0    0  502    0  0.00000000000E+00  0.00000000000E+00  0.27101721466E+04  0.27101721466E+04  0.00000000000E+00 0. -1.
         -2   -1    0    0    0  501 -0.00000000000E+00 -0.00000000000E+00 -0.30141578975E+02  0.30141578975E+02  0.00000000000E+00 0.  1.
          6    1    1    2  502    0  0.11181602657E+03 -0.18854021609E+03  0.16452714992E+04  0.16686978585E+04  0.17200000000E+03 0. -1.
         -6    1    1    2    0  501 -0.11181602657E+03  0.18854021609E+03  0.10347590685E+04  0.10716158671E+04  0.17200000000E+03 0.  1.
</event>
<event>
 4    1  0.6365520E-002  0.1896497E+03  0.7818608E-02  0.1158778E+00
          2   -1    0    0  502    0  0.00000000000E+00  0.00000000000E+00  0.21629362420E+04  0.21629362420E+04  0.00000000000E+00 0. -1.
         -2   -1    0    0    0  501 -0.00000000000E+00 -0.00000000000E+00 -0.17270802758E+02  0.17270802758E+02  0.00000000000E+00 0.  1.
          6    1    1    2  502    0  0.73892026392E+02  0.30380526841E+02  0.12830091567E+04  0.12969500777E+04  0.17200000000E+03 0. -1.
         -6    1    1    2    0  501 -0.73892026392E+02 -0.30380526841E+02  0.86265628251E+03  0.88325696699E+03  0.17200000000E+03 0. -1.
</event>
<event>
 4    1  0.6365520E-002  0.2342557E+03  0.7818608E-02  0.1123680E+00
          1   -1    0    0  502    0  0.00000000000E+00  0.00000000000E+00  0.91773501519E+03  0.91773501519E+03  0.00000000000E+00 0. -1.
         -1   -1    0    0    0  501 -0.00000000000E+00 -0.00000000000E+00 -0.77126081745E+02  0.77126081745E+02  0.00000000000E+00 0.  1.
          6    1    1    2  502    0 -0.75997709065E+02 -0.13969990307E+03  0.18450214635E+03  0.29818912909E+03  0.17200000000E+03 0.  1.
         -6    1    1    2    0  501  0.75997709065E+02  0.13969990307E+03  0.65610678709E+03  0.69667196784E+03  0.17200000000E+03 0. -1.
</event>
<event>
 4    1  0.6365520E-002  0.2043793E+03  0.7818608E-02  0.1146096E+00
          1   -1    0    0  502    0  0.00000000000E+00  0.00000000000E+00  0.15791208687E+04  0.15791208687E+04  0.00000000000E+00 0. -1.
         -1   -1    0    0    0  501 -0.00000000000E+00 -0.00000000000E+00 -0.72331372757E+02  0.72331372757E+02  0.00000000000E+00 0.  1.
          6    1    1    2  502    0  0.10946246270E+03  0.14312923409E+02  0.14110244944E+04  0.14257492817E+04  0.17200000000E+03 0. -1.
         -6    1    1    2    0  501 -0.10946246270E+03 -0.14312923409E+02  0.95765001553E+02  0.22570295975E+03  0.17200000000E+03 0.  1.
</event>
<event>
 4    1  0.6365520E-002  0.1743811E+03  0.7818608E-02  0.1173355E+00
          1   -1    0    0  502    0  0.00000000000E+00  0.00000000000E+00  0.33502432037E+04  0.33502432037E+04  0.00000000000E+00 0. -1.
         -1   -1    0    0    0  501 -0.00000000000E+00 -0.00000000000E+00 -0.17136751855E+02  0.17136751855E+02  0.00000000000E+00 0.  1.
          6    1    1    2  502    0 -0.18740084272E+02 -0.21761768669E+02  0.28212551885E+04  0.28266392773E+04  0.17200000000E+03 0. -1.
         -6    1    1    2    0  501  0.18740084272E+02  0.21761768669E+02  0.51185126340E+03  0.54074067830E+03  0.17200000000E+03 0.  1.
</event>
<event>
 4    1  0.6365520E-002  0.1952242E+03  0.7818608E-02  0.1153832E+00
          2   -1    0    0  502    0  0.00000000000E+00  0.00000000000E+00  0.41581246817E+03  0.41581246817E+03  0.00000000000E+00 0. -1.
         -2   -1    0    0    0  501 -0.00000000000E+00 -0.00000000000E+00 -0.91679676673E+02  0.91679676673E+02  0.00000000000E+00 0.  1.
          6    1    1    2  502    0  0.19150973507E+02 -0.90342340617E+02  0.16597698805E+03  0.25624374891E+03  0.17200000000E+03 0. -1.
         -6    1    1    2    0  501 -0.19150973507E+02  0.90342340617E+02  0.15815580345E+03  0.25124839593E+03  0.17200000000E+03 0.  1.
</event>
<event>
 4    1  0.6365520E-002  0.5179900E+03  0.7818608E-02  0.1009187E+00
          2   -1    0    0  502    0  0.00000000000E+00  0.00000000000E+00  0.42161375035E+03  0.42161375035E+03  0.00000000000E+00 0. -1.
         -2   -1    0    0    0  501 -0.00000000000E+00 -0.00000000000E+00 -0.66658802718E+03  0.66658802718E+03  0.00000000000E+00 0.  1.
          6    1    1    2  502    0 -0.12945926214E+02  0.48842811229E+03 -0.66916955966E+01  0.51803320036E+03  0.17200000000E+03 0. -1.
         -6    1    1    2    0  501  0.12945926214E+02 -0.48842811229E+03 -0.23828258123E+03  0.57016857718E+03  0.17200000000E+03 0.  1.
</event>
<event>
 4    1  0.6365520E-002  0.2053929E+03  0.7818608E-02  0.1145267E+00
         -1   -1    0    0    0  501 -0.00000000000E+00  0.00000000000E+00  0.55992248637E+03  0.55992248637E+03  0.00000000000E+00 0.  1.
          1   -1    0    0  502    0  0.00000000000E+00 -0.00000000000E+00 -0.83169747989E+02  0.83169747989E+02  0.00000000000E+00 0. -1.
          6    1    1    2  502    0 -0.18606061734E+01 -0.11224430811E+03  0.13973685568E+03  0.24842027976E+03  0.17200000000E+03 0. -1.
         -6    1    1    2    0  501  0.18606061734E+01  0.11224430811E+03  0.33701588270E+03  0.39467195461E+03  0.17200000000E+03 0. -1.
</event>
<event>
 4    1  0.6365520E-002  0.2205997E+03  0.7818608E-02  0.1133437E+00
         -2   -1    0    0    0  501 -0.00000000000E+00  0.00000000000E+00  0.24069430963E+02  0.24069430963E+02  0.00000000000E+00 0.  1.
          2   -1    0    0  502    0  0.00000000000E+00 -0.00000000000E+00 -0.20336481508E+04  0.20336481508E+04  0.00000000000E+00 0. -1.
          6    1    1    2  502    0 -0.15063616634E+02  0.13730742323E+03 -0.10832290409E+04  0.11054634304E+04  0.17200000000E+03 0.  1.
         -6    1    1    2    0  501  0.15063616634E+02 -0.13730742323E+03 -0.92634967896E+03  0.95225415134E+03  0.17200000000E+03 0.  1.
</event>
<event>
 4    1  0.6365520E-002  0.1720525E+03  0.7818608E-02  0.1175724E+00
          2   -1    0    0  502    0  0.00000000000E+00  0.00000000000E+00  0.16128863245E+04  0.16128863245E+04  0.00000000000E+00 0. -1.
         -2   -1    0    0    0  501 -0.00000000000E+00 -0.00000000000E+00 -0.18420070030E+02  0.18420070030E+02  0.00000000000E+00 0.  1.
          6    1    1    2  502    0 -0.32050757479E+01  0.27925762378E+01  0.74819019241E+03  0.76771780949E+03  0.17200000000E+03 0.  1.
         -6    1    1    2    0  501  0.32050757479E+01 -0.27925762378E+01  0.84627606208E+03  0.86358858506E+03  0.17200000000E+03 0. -1.
</event>
<event>
 4    1  0.6365520E-002  0.2894191E+03  0.7818608E-02  0.1090653E+00
         -1   -1    0    0    0  501 -0.00000000000E+00  0.00000000000E+00  0.10079300967E+04  0.10079300967E+04  0.00000000000E+00 0.  1.
          1   -1    0    0  502    0  0.00000000000E+00 -0.00000000000E+00 -0.21972759879E+03  0.21972759879E+03  0.00000000000E+00 0. -1.
          6    1    1    2  502    0  0.21095569866E+03  0.98372227217E+02 -0.89923148047E+02  0.30306694713E+03  0.17200000000E+03 0. -1.
         -6    1    1    2    0  501 -0.21095569866E+03 -0.98372227217E+02  0.87812564598E+03  0.92459074839E+03  0.17200000000E+03 0.  1.
</event>
<event>
 4    1  0.6365520E-002  0.2990346E+03  0.7818608E-02  0.1085724E+00
          1   -1    0    0  502    0  0.00000000000E+00  0.00000000000E+00  0.41167290071E+03  0.41167290071E+03  0.00000000000E+00 0. -1.
         -1   -1    0    0    0  501 -0.00000000000E+00 -0.00000000000E+00 -0.26544418923E+03  0.26544418923E+03  0.00000000000E+00 0.  1.
          6    1    1    2  502    0 -0.24423962974E+03  0.13589345343E+02  0.21742575589E+03  0.36972371626E+03  0.17200000000E+03 0. -1.
         -6    1    1    2    0  501  0.24423962974E+03 -0.13589345343E+02 -0.71197044407E+02  0.30739337367E+03  0.17200000000E+03 0. -1.
</event>
<event>
 4    1  0.6365520E-002  0.4605502E+03  0.7818608E-02  0.1024622E+00
         -1   -1    0    0    0  501 -0.00000000000E+00  0.00000000000E+00  0.86582257169E+03  0.86582257169E+03  0.00000000000E+00 0.  1.
          1   -1    0    0  502    0  0.00000000000E+00 -0.00000000000E+00 -0.25356734828E+03  0.25356734828E+03  0.00000000000E+00 0. -1.
          6    1    1    2  502    0 -0.35953903876E+03 -0.23076863922E+03  0.20310941602E+03  0.50334870629E+03  0.17200000000E+03 0. -1.
         -6    1    1    2    0  501  0.35953903876E+03  0.23076863922E+03  0.40914580739E+03  0.61604121367E+03  0.17200000000E+03 0.  1.
</event>
<event>
 4    1  0.6365520E-002  0.4449263E+03  0.7818608E-02  0.1029246E+00
         -1   -1    0    0    0  501 -0.00000000000E+00  0.00000000000E+00  0.10108822201E+03  0.10108822201E+03  0.00000000000E+00 0.  1.
          1   -1    0    0  502    0  0.00000000000E+00 -0.00000000000E+00 -0.20825166515E+04  0.20825166515E+04  0.00000000000E+00 0. -1.
          6    1    1    2  502    0 -0.69734958016E+02  0.40436668916E+03 -0.12573809249E+04  0.13337789075E+04  0.17200000000E+03 0.  1.
         -6    1    1    2    0  501  0.69734958016E+02 -0.40436668916E+03 -0.72404750461E+03  0.84982596606E+03  0.17200000000E+03 0.  1.
</event>
<event>
 4    1  0.6365520E-002  0.2554676E+03  0.7818608E-02  0.1109897E+00
         -2   -1    0    0    0  501 -0.00000000000E+00  0.00000000000E+00  0.17311152692E+03  0.17311152692E+03  0.00000000000E+00 0.  1.
          2   -1    0    0  502    0  0.00000000000E+00 -0.00000000000E+00 -0.78476520986E+03  0.78476520986E+03  0.00000000000E+00 0. -1.
          6    1    1    2  502    0 -0.17378583227E+03  0.74014708990E+02 -0.65106028002E+03  0.69938771856E+03  0.17200000000E+03 0. -1.
         -6    1    1    2    0  501  0.17378583227E+03 -0.74014708990E+02  0.39406597088E+02  0.25848901822E+03  0.17200000000E+03 0.  1.
</event>
<event>
 4    1  0.6365520E-002  0.1835776E+03  0.7818608E-02  0.1164385E+00
          1   -1    0    0  502    0  0.00000000000E+00  0.00000000000E+00  0.94413108876E+03  0.94413108876E+03  0.00000000000E+00 0. -1.
         -1   -1    0    0    0  501 -0.00000000000E+00 -0.00000000000E+00 -0.39630409534E+02  0.39630409534E+02  0.00000000000E+00 0.  1.
          6    1    1    2  502    0  0.61062713285E+02 -0.19699872456E+02  0.60725388770E+03  0.63439579448E+03  0.17200000000E+03 0. -1.
         -6    1    1    2    0  501 -0.61062713285E+02  0.19699872456E+02  0.29724679153E+03  0.34936570382E+03  0.17200000000E+03 0.  1.
</event>
<event>
 4    1  0.6365520E-002  0.1839665E+03  0.7818608E-02  0.1164019E+00
          1   -1    0    0  502    0  0.00000000000E+00  0.00000000000E+00  0.53077883463E+02  0.53077883463E+02  0.00000000000E+00 0. -1.
         -1   -1    0    0    0  501 -0.00000000000E+00 -0.00000000000E+00 -0.71335567288E+03  0.71335567288E+03  0.00000000000E+00 0.  1.
          6    1    1    2  502    0  0.64822683863E+02  0.75960113064E+01 -0.20527609340E+03  0.27564824369E+03  0.17200000000E+03 0. -1.
         -6    1    1    2    0  501 -0.64822683863E+02 -0.75960113064E+01 -0.45500169602E+03  0.49078531265E+03  0.17200000000E+03 0.  1.
</event>
<event>
 4    1  0.6365520E-002  0.2822091E+03  0.7818608E-02  0.1094488E+00
         -1   -1    0    0    0  501 -0.00000000000E+00  0.00000000000E+00  0.13915559512E+03  0.13915559512E+03  0.00000000000E+00 0.  1.
          1   -1    0    0  502    0  0.00000000000E+00 -0.00000000000E+00 -0.17039928248E+04  0.17039928248E+04  0.00000000000E+00 0. -1.
          6    1    1    2  502    0  0.22077114971E+03  0.36305537938E+02 -0.15334468032E+04  0.15591988619E+04  0.17200000000E+03 0. -1.
         -6    1    1    2    0  501 -0.22077114971E+03 -0.36305537938E+02 -0.31390426455E+02  0.28394955802E+03  0.17200000000E+03 0.  1.
</event>
<event>
 4    1  0.6365520E-002  0.2091348E+03  0.7818608E-02  0.1142253E+00
          1   -1    0    0  502    0  0.00000000000E+00  0.00000000000E+00  0.50671044649E+03  0.50671044649E+03  0.00000000000E+00 0. -1.
         -1   -1    0    0    0  501 -0.00000000000E+00 -0.00000000000E+00 -0.90422659350E+02  0.90422659350E+02  0.00000000000E+00 0.  1.
          6    1    1    2  502    0 -0.85357853707E+02 -0.82869875113E+02  0.27176923230E+03  0.34292257875E+03  0.17200000000E+03 0. -1.
         -6    1    1    2    0  501  0.85357853707E+02  0.82869875113E+02  0.14451855484E+03  0.25421052709E+03  0.17200000000E+03 0.  1.
</event>
<event>
 4    1  0.6365520E-002  0.2852569E+03  0.7818608E-02  0.1092852E+00
         -2   -1    0    0    0  501 -0.00000000000E+00  0.00000000000E+00  0.71024853054E+03  0.71024853054E+03  0.00000000000E+00 0.  1.
          2   -1    0    0  502    0  0.00000000000E+00 -0.00000000000E+00 -0.50600023482E+03  0.50600023482E+03  0.00000000000E+00 0. -1.
          6    1    1    2  502    0  0.10956529391E+03  0.19945656298E+03 -0.43274256364E+03  0.51830261482E+03  0.17200000000E+03 0. -1.
         -6    1    1    2    0  501 -0.10956529391E+03 -0.19945656298E+03  0.63699085936E+03  0.69794615054E+03  0.17200000000E+03 0.  1.
</event>
<event>
 4    1  0.6365520E-002  0.2137948E+03  0.7818608E-02  0.1138596E+00
         -2   -1    0    0    0  501 -0.00000000000E+00  0.00000000000E+00  0.19714276854E+03  0.19714276854E+03  0.00000000000E+00 0.  1.
          2   -1    0    0  502    0  0.00000000000E+00 -0.00000000000E+00 -0.39210758733E+03  0.39210758733E+03  0.00000000000E+00 0. -1.
          6    1    1    2  502    0 -0.91225276445E+02 -0.88329794327E+02 -0.28583519542E+03  0.35694532154E+03  0.17200000000E+03 0. -1.
         -6    1    1    2    0  501  0.91225276445E+02  0.88329794327E+02  0.90870376624E+02  0.23230503433E+03  0.17200000000E+03 0.  1.
</event>
<event>
 4    1  0.6365520E-002  0.4531951E+03  0.7818608E-02  0.1026774E+00
          2   -1    0    0  502    0  0.00000000000E+00  0.00000000000E+00  0.95135014933E+03  0.95135014933E+03  0.00000000000E+00 0. -1.
         -2   -1    0    0    0  501 -0.00000000000E+00 -0.00000000000E+00 -0.27914741928E+03  0.27914741928E+03  0.00000000000E+00 0.  1.
          6    1    1    2  502    0  0.19503041284E+03 -0.37116696842E+03  0.62898427623E+03  0.77524641252E+03  0.17200000000E+03 0. -1.
         -6    1    1    2    0  501 -0.19503041284E+03  0.37116696842E+03  0.43218453816E+02  0.45525115610E+03  0.17200000000E+03 0.  1.
</event>
<event>
 4    1  0.6365520E-002  0.1843491E+03  0.7818608E-02  0.1163659E+00
         -2   -1    0    0    0  501 -0.00000000000E+00  0.00000000000E+00  0.25231999787E+02  0.25231999787E+02  0.00000000000E+00 0.  1.
          2   -1    0    0  502    0  0.00000000000E+00 -0.00000000000E+00 -0.15439671300E+04  0.15439671300E+04  0.00000000000E+00 0. -1.
          6    1    1    2  502    0 -0.42749831845E+01  0.66199064195E+02 -0.10396869413E+04  0.10559041280E+04  0.17200000000E+03 0. -1.
         -6    1    1    2    0  501  0.42749831845E+01 -0.66199064195E+02 -0.47904818898E+03  0.51329500187E+03  0.17200000000E+03 0.  1.
</event>
<event>
 4    1  0.6365520E-002  0.4344261E+03  0.7818608E-02  0.1032471E+00
         -2   -1    0    0    0  501 -0.00000000000E+00  0.00000000000E+00  0.24347980354E+03  0.24347980354E+03  0.00000000000E+00 0.  1.
          2   -1    0    0  502    0  0.00000000000E+00 -0.00000000000E+00 -0.13527609921E+04  0.13527609921E+04  0.00000000000E+00 0. -1.
          6    1    1    2  502    0 -0.17723062492E+03  0.35739523277E+03 -0.10761797334E+04  0.11605554124E+04  0.17200000000E+03 0. -1.
         -6    1    1    2    0  501  0.17723062492E+03 -0.35739523277E+03 -0.33101455210E+02  0.43568538322E+03  0.17200000000E+03 0.  1.
</event>
<event>
 4    1  0.6365520E-002  0.8512570E+03  0.7818608E-02  0.9488651E-01
          2   -1    0    0  502    0  0.00000000000E+00  0.00000000000E+00  0.18317473288E+04  0.18317473288E+04  0.00000000000E+00 0. -1.
         -2   -1    0    0    0  501 -0.00000000000E+00 -0.00000000000E+00 -0.40592291307E+03  0.40592291307E+03  0.00000000000E+00 0.  1.
          6    1    1    2  502    0  0.75345082994E+03  0.35688425825E+03  0.89133637109E+03  0.12325254778E+04  0.17200000000E+03 0. -1.
         -6    1    1    2    0  501 -0.75345082994E+03 -0.35688425825E+03  0.53448804463E+03  0.10051447641E+04  0.17200000000E+03 0.  1.
</event>
<event>
 4    1  0.6365520E-002  0.3440348E+03  0.7818608E-02  0.1065090E+00
          2   -1    0    0  502    0  0.00000000000E+00  0.00000000000E+00  0.24686015875E+04  0.24686015875E+04  0.00000000000E+00 0. -1.
         -2   -1    0    0    0  501 -0.00000000000E+00 -0.00000000000E+00 -0.12351372472E+03  0.12351372472E+03  0.00000000000E+00 0.  1.
          6    1    1    2  502    0 -0.16931714459E+03  0.24516860261E+03  0.21863023130E+04  0.22132053097E+04  0.17200000000E+03 0. -1.
         -6    1    1    2    0  501  0.16931714459E+03 -0.24516860261E+03  0.15878554974E+03  0.37891000246E+03  0.17200000000E+03 0.  1.
</event>
<event>
 4    1  0.6365520E-002  0.1739534E+03  0.7818608E-02  0.1173787E+00
         -1   -1    0    0    0  501 -0.00000000000E+00  0.00000000000E+00  0.78615691872E+02  0.78615691872E+02  0.00000000000E+00 0.  1.
          1   -1    0    0  502    0  0.00000000000E+00 -0.00000000000E+00 -0.47078843777E+03  0.47078843777E+03  0.00000000000E+00 0. -1.
          6    1    1    2  502    0  0.17574207848E+02  0.19155063361E+02 -0.78759519221E+02  0.19095243152E+03  0.17200000000E+03 0.  1.
         -6    1    1    2    0  501 -0.17574207848E+02 -0.19155063361E+02 -0.31341322668E+03  0.35845169813E+03  0.17200000000E+03 0. -1.
</event>
<event>
 4    1  0.6365520E-002  0.2239057E+03  0.7818608E-02  0.1131004E+00
         -2   -1    0    0    0  501 -0.00000000000E+00  0.00000000000E+00  0.36105579249E+02  0.36105579249E+02  0.00000000000E+00 0.  1.
          2   -1    0    0  502    0  0.00000000000E+00 -0.00000000000E+00 -0.16454156233E+04  0.16454156233E+04  0.00000000000E+00 0. -1.
          6    1    1    2  502    0  0.30797137677E+02 -0.14000461910E+03 -0.47245271942E+03  0.52282437696E+03  0.17200000000E+03 0.  1.
         -6    1    1    2    0  501 -0.30797137677E+02  0.14000461910E+03 -0.11368573246E+04  0.11586968256E+04  0.17200000000E+03 0. -1.
</event>
<event>
 4    1  0.6365520E-002  0.1897406E+03  0.7818608E-02  0.1158696E+00
          1   -1    0    0  502    0  0.00000000000E+00  0.00000000000E+00  0.52153915922E+03  0.52153915922E+03  0.00000000000E+00 0. -1.
         -1   -1    0    0    0  501 -0.00000000000E+00 -0.00000000000E+00 -0.20422770302E+03  0.20422770302E+03  0.00000000000E+00 0.  1.
          6    1    1    2  502    0 -0.79746814104E+02 -0.76109935081E+01  0.45390959777E+03  0.49197093870E+03  0.17200000000E+03 0. -1.
         -6    1    1    2    0  501  0.79746814104E+02  0.76109935081E+01 -0.13659814157E+03  0.23379592354E+03  0.17200000000E+03 0.  1.
</event>
<event>
 4    1  0.6365520E-002  0.2816967E+03  0.7818608E-02  0.1094766E+00
         -2   -1    0    0    0  501 -0.00000000000E+00  0.00000000000E+00  0.49606938069E+03  0.49606938069E+03  0.00000000000E+00 0.  1.
          2   -1    0    0  502    0  0.00000000000E+00 -0.00000000000E+00 -0.16072128355E+03  0.16072128355E+03  0.00000000000E+00 0. -1.
          6    1    1    2  502    0 -0.16896209407E+03  0.14567381343E+03  0.14512640186E+03  0.31688282009E+03  0.17200000000E+03 0. -1.
         -6    1    1    2    0  501  0.16896209407E+03 -0.14567381343E+03  0.19022169528E+03  0.33990784414E+03  0.17200000000E+03 0.  1.
</event>
<event>
 4    1  0.6365520E-002  0.1988214E+03  0.7818608E-02  0.1150737E+00
          1   -1    0    0  502    0  0.00000000000E+00  0.00000000000E+00  0.13576032658E+04  0.13576032658E+04  0.00000000000E+00 0. -1.
         -1   -1    0    0    0  501 -0.00000000000E+00 -0.00000000000E+00 -0.36328040906E+02  0.36328040906E+02  0.00000000000E+00 0.  1.
          6    1    1    2  502    0  0.54243964066E+02 -0.83687101501E+02  0.97114787796E+03  0.99129114768E+03  0.17200000000E+03 0. -1.
         -6    1    1    2    0  501 -0.54243964066E+02  0.83687101501E+02  0.35012734695E+03  0.40264015905E+03  0.17200000000E+03 0.  1.
</event>
<event>
 4    1  0.6365520E-002  0.3154942E+03  0.7818608E-02  0.1077742E+00
          2   -1    0    0  502    0  0.00000000000E+00  0.00000000000E+00  0.34367655437E+03  0.34367655437E+03  0.00000000000E+00 0. -1.
         -2   -1    0    0    0  501 -0.00000000000E+00 -0.00000000000E+00 -0.33070370429E+03  0.33070370429E+03  0.00000000000E+00 0.  1.
          6    1    1    2  502    0 -0.18025845997E+03  0.19354449264E+03  0.12532982236E+03  0.33947628400E+03  0.17200000000E+03 0.  1.
         -6    1    1    2    0  501  0.18025845997E+03 -0.19354449264E+03 -0.11235697229E+03  0.33490397466E+03  0.17200000000E+03 0. -1.
</event>
<event>
 4    1  0.6365520E-002  0.2211214E+03  0.7818608E-02  0.1133050E+00
          1   -1    0    0  502    0  0.00000000000E+00  0.00000000000E+00  0.32412240074E+03  0.32412240074E+03  0.00000000000E+00 0. -1.
         -1   -1    0    0    0  501 -0.00000000000E+00 -0.00000000000E+00 -0.28455374422E+03  0.28455374422E+03  0.00000000000E+00 0.  1.
          6    1    1    2  502    0  0.13892384558E+03 -0.32951843142E+01  0.22839751838E+03  0.31789954311E+03  0.17200000000E+03 0. -1.
         -6    1    1    2    0  501 -0.13892384558E+03  0.32951843142E+01 -0.18882886186E+03  0.29077660185E+03  0.17200000000E+03 0.  1.
</event>
<event>
 4    1  0.6365520E-002  0.2249468E+03  0.7818608E-02  0.1130248E+00
         -3   -1    0    0    0  501 -0.00000000000E+00  0.00000000000E+00  0.67646192845E+03  0.67646192845E+03  0.00000000000E+00 0.  1.
          3   -1    0    0  502    0  0.00000000000E+00 -0.00000000000E+00 -0.95754070140E+02  0.95754070140E+02  0.00000000000E+00 0. -1.
          6    1    1    2  502    0  0.62443220812E+02  0.13083548114E+03  0.10974553938E+03  0.25029015635E+03  0.17200000000E+03 0. -1.
         -6    1    1    2    0  501 -0.62443220812E+02 -0.13083548114E+03  0.47096231893E+03  0.52192584224E+03  0.17200000000E+03 0.  1.
</event>
<event>
 4    1  0.6365520E-002  0.7259494E+03  0.7818608E-02  0.9673856E-01
         -2   -1    0    0    0  501 -0.00000000000E+00  0.00000000000E+00  0.34273743690E+03  0.34273743690E+03  0.00000000000E+00 0.  1.
          2   -1    0    0  502    0  0.00000000000E+00 -0.00000000000E+00 -0.16689912005E+04  0.16689912005E+04  0.00000000000E+00 0. -1.
          6    1    1    2  502    0  0.70515330267E+03 -0.13316969740E+02 -0.38093143643E+03  0.81982393305E+03  0.17200000000E+03 0. -1.
         -6    1    1    2    0  501 -0.70515330267E+03  0.13316969740E+02 -0.94532232714E+03  0.11919047043E+04  0.17200000000E+03 0.  1.
</event>
<event>
 4    1  0.6365520E-002  0.2037778E+03  0.7818608E-02  0.1146590E+00
          2   -1    0    0  502    0  0.00000000000E+00  0.00000000000E+00  0.10030839926E+04  0.10030839926E+04  0.00000000000E+00 0. -1.
         -2   -1    0    0    0  501 -0.00000000000E+00 -0.00000000000E+00 -0.41403570988E+02  0.41403570988E+02  0.00000000000E+00 0.  1.
          6    1    1    2  502    0 -0.96978283377E+02  0.50364795237E+02  0.48704328080E+03  0.52795507140E+03  0.17200000000E+03 0.  1.
         -6    1    1    2    0  501  0.96978283377E+02 -0.50364795237E+02  0.47463714080E+03  0.51653249217E+03  0.17200000000E+03 0.  1.
</event>
<event>
 4    1  0.6365520E-002  0.2257808E+03  0.7818608E-02  0.1129645E+00
         -2   -1    0    0    0  501 -0.00000000000E+00  0.00000000000E+00  0.28024197639E+02  0.28024197639E+02  0.00000000000E+00 0.  1.
          2   -1    0    0  502    0  0.00000000000E+00 -0.00000000000E+00 -0.35783591213E+04  0.35783591213E+04  0.00000000000E+00 0. -1.
          6    1    1    2  502    0  0.30561000070E+02 -0.14303491254E+03 -0.30395340553E+04  0.30479081735E+04  0.17200000000E+03 0. -1.
         -6    1    1    2    0  501 -0.30561000070E+02  0.14303491254E+03 -0.51080086843E+03  0.55847514548E+03  0.17200000000E+03 0.  1.
</event>
<event>
 4    1  0.6365520E-002  0.3030002E+03  0.7818608E-02  0.1083750E+00
         -2   -1    0    0    0  501 -0.00000000000E+00  0.00000000000E+00  0.48995714035E+02  0.48995714035E+02  0.00000000000E+00 0.  1.
          2   -1    0    0  502    0  0.00000000000E+00 -0.00000000000E+00 -0.18753722713E+04  0.18753722713E+04  0.00000000000E+00 0. -1.
          6    1    1    2  502    0  0.24320029841E+03 -0.55486152865E+02 -0.88549703140E+03  0.93590282131E+03  0.17200000000E+03 0. -1.
         -6    1    1    2    0  501 -0.24320029841E+03  0.55486152865E+02 -0.94087952583E+03  0.98846516400E+03  0.17200000000E+03 0.  1.
</event>
<event>
 4    1  0.6365520E-002  0.1800153E+03  0.7818608E-02  0.1167788E+00
          2   -1    0    0  502    0  0.00000000000E+00  0.00000000000E+00  0.18536626598E+03  0.18536626598E+03  0.00000000000E+00 0. -1.
         -2   -1    0    0    0  501 -0.00000000000E+00 -0.00000000000E+00 -0.18103596290E+03  0.18103596290E+03  0.00000000000E+00 0.  1.
          6    1    1    2  502    0  0.35646803157E+02  0.39380192936E+02  0.36115516399E+02  0.18360235482E+03  0.17200000000E+03 0. -1.
         -6    1    1    2    0  501 -0.35646803157E+02 -0.39380192936E+02 -0.31785213311E+02  0.18279987406E+03  0.17200000000E+03 0. -1.
</event>
<event>
 4    1  0.6365520E-002  0.2463662E+03  0.7818608E-02  0.1115623E+00
          2   -1    0    0  502    0  0.00000000000E+00  0.00000000000E+00  0.15069823930E+03  0.15069823930E+03  0.00000000000E+00 0. -1.
         -2   -1    0    0    0  501 -0.00000000000E+00 -0.00000000000E+00 -0.40690868576E+03  0.40690868576E+03  0.00000000000E+00 0.  1.
          6    1    1    2  502    0 -0.13000683530E+03  0.11920800615E+03 -0.99978348290E+02  0.26587966467E+03  0.17200000000E+03 0. -1.
         -6    1    1    2    0  501  0.13000683530E+03 -0.11920800615E+03 -0.15623209817E+03  0.29172726039E+03  0.17200000000E+03 0. -1.
</event>
<event>
 4    1  0.6365520E-002  0.3111100E+03  0.7818608E-02  0.1079815E+00
          1   -1    0    0  502    0  0.00000000000E+00  0.00000000000E+00  0.93196233485E+03  0.93196233485E+03  0.00000000000E+00 0. -1.
         -1   -1    0    0    0  501 -0.00000000000E+00 -0.00000000000E+00 -0.10564944197E+03  0.10564944197E+03  0.00000000000E+00 0.  1.
          6    1    1    2  502    0  0.25923672207E+03 -0.13261746299E+01  0.48076047242E+03  0.57264305518E+03  0.17200000000E+03 0. -1.
         -6    1    1    2    0  501 -0.25923672207E+03  0.13261746299E+01  0.34555242046E+03  0.46496872163E+03  0.17200000000E+03 0.  1.
</event>
<event>
 4    1  0.6365520E-002  0.1984779E+03  0.7818608E-02  0.1151030E+00
         -2   -1    0    0    0  501 -0.00000000000E+00  0.00000000000E+00  0.68465014301E+02  0.68465014301E+02  0.00000000000E+00 0.  1.
          2   -1    0    0  502    0  0.00000000000E+00 -0.00000000000E+00 -0.85763393645E+03  0.85763393645E+03  0.00000000000E+00 0. -1.
          6    1    1    2  502    0  0.64038900076E+02 -0.75554466866E+02 -0.66022586497E+03  0.68941399098E+03  0.17200000000E+03 0. -1.
         -6    1    1    2    0  501 -0.64038900076E+02  0.75554466866E+02 -0.12894305718E+03  0.23668495977E+03  0.17200000000E+03 0.  1.
</event>
<event>
 4    1  0.6365520E-002  0.1818382E+03  0.7818608E-02  0.1166036E+00
         -1   -1    0    0    0  501 -0.00000000000E+00  0.00000000000E+00  0.98970160375E+02  0.98970160375E+02  0.00000000000E+00 0.  1.
          1   -1    0    0  502    0  0.00000000000E+00 -0.00000000000E+00 -0.38109382039E+03  0.38109382039E+03  0.00000000000E+00 0. -1.
          6    1    1    2  502    0  0.58113426938E+02  0.10196173055E+02 -0.22535857692E+03  0.28957144287E+03  0.17200000000E+03 0. -1.
         -6    1    1    2    0  501 -0.58113426938E+02 -0.10196173055E+02 -0.56765083099E+02  0.19049253790E+03  0.17200000000E+03 0.  1.
</event>
<event>
 4    1  0.6365520E-002  0.6272651E+03  0.7818608E-02  0.9850400E-01
          2   -1    0    0  502    0  0.00000000000E+00  0.00000000000E+00  0.13168208799E+04  0.13168208799E+04  0.00000000000E+00 0. -1.
         -2   -1    0    0    0  501 -0.00000000000E+00 -0.00000000000E+00 -0.63027098131E+03  0.63027098131E+03  0.00000000000E+00 0.  1.
          6    1    1    2  502    0 -0.53288346043E+03 -0.28268843930E+03  0.10492962546E+04  0.12224909677E+04  0.17200000000E+03 0. -1.
         -6    1    1    2    0  501  0.53288346043E+03  0.28268843930E+03 -0.36274635601E+03  0.72460089354E+03  0.17200000000E+03 0.  1.
</event>
<event>
 4    1  0.6365520E-002  0.3659802E+03  0.7818608E-02  0.1056241E+00
         -2   -1    0    0    0  501 -0.00000000000E+00  0.00000000000E+00  0.61268519106E+03  0.61268519106E+03  0.00000000000E+00 0.  1.
          2   -1    0    0  502    0  0.00000000000E+00 -0.00000000000E+00 -0.13188891652E+04  0.13188891652E+04  0.00000000000E+00 0. -1.
          6    1    1    2  502    0  0.28892809395E+03  0.14449242584E+03 -0.12352225751E+04  0.12882997767E+04  0.17200000000E+03 0. -1.
         -6    1    1    2    0  501 -0.28892809395E+03 -0.14449242584E+03  0.52901860094E+03  0.64327457958E+03  0.17200000000E+03 0.  1.
</event>
<event>
 4    1  0.6365520E-002  0.3879999E+03  0.7818608E-02  0.1048016E+00
         -2   -1    0    0    0  501 -0.00000000000E+00  0.00000000000E+00  0.12477454514E+03  0.12477454514E+03  0.00000000000E+00 0.  1.
          2   -1    0    0  502    0  0.00000000000E+00 -0.00000000000E+00 -0.15148015378E+04  0.15148015378E+04  0.00000000000E+00 0. -1.
          6    1    1    2  502    0 -0.11095289494E+03  0.32962006365E+03 -0.32519202496E+03  0.50625466353E+03  0.17200000000E+03 0.  1.
         -6    1    1    2    0  501  0.11095289494E+03 -0.32962006365E+03 -0.10648349677E+04  0.11333214194E+04  0.17200000000E+03 0.  1.
</event>
<event>
 4    1  0.6365520E-002  0.2110581E+03  0.7818608E-02  0.1140731E+00
         -1   -1    0    0    0  501 -0.00000000000E+00  0.00000000000E+00  0.20282892358E+04  0.20282892358E+04  0.00000000000E+00 0.  1.
          1   -1    0    0  502    0  0.00000000000E+00 -0.00000000000E+00 -0.25894400895E+02  0.25894400895E+02  0.00000000000E+00 0. -1.
          6    1    1    2  502    0  0.11276695946E+03 -0.47383061326E+02  0.60095019308E+03  0.63693537836E+03  0.17200000000E+03 0. -1.
         -6    1    1    2    0  501 -0.11276695946E+03  0.47383061326E+02  0.14014446418E+04  0.14172482583E+04  0.17200000000E+03 0.  1.
</event>
<event>
 4    1  0.6365520E-002  0.2417903E+03  0.7818608E-02  0.1118606E+00
         -2   -1    0    0    0  501 -0.00000000000E+00  0.00000000000E+00  0.31851536301E+02  0.31851536301E+02  0.00000000000E+00 0.  1.
          2   -1    0    0  502    0  0.00000000000E+00 -0.00000000000E+00 -0.21368411945E+04  0.21368411945E+04  0.00000000000E+00 0. -1.
          6    1    1    2  502    0 -0.40194033533E+02  0.16511510464E+03 -0.14597178762E+04  0.14796076629E+04  0.17200000000E+03 0. -1.
         -6    1    1    2    0  501  0.40194033533E+02 -0.16511510464E+03 -0.64527178197E+03  0.68908506784E+03  0.17200000000E+03 0.  1.
</event>
<event>
 4    1  0.6365520E-002  0.2109231E+03  0.7818608E-02  0.1140837E+00
          1   -1    0    0  502    0  0.00000000000E+00  0.00000000000E+00  0.94767944076E+02  0.94767944076E+02  0.00000000000E+00 0. -1.
         -1   -1    0    0    0  501 -0.00000000000E+00 -0.00000000000E+00 -0.51956780063E+03  0.51956780063E+03  0.00000000000E+00 0.  1.
          6    1    1    2  502    0  0.24583716639E+02  0.11958346696E+03 -0.30780291120E+03  0.37313696794E+03  0.17200000000E+03 0.  1.
         -6    1    1    2    0  501 -0.24583716639E+02 -0.11958346696E+03 -0.11699694535E+03  0.24119877677E+03  0.17200000000E+03 0. -1.
</event>
<event>
 4    1  0.6365520E-002  0.1740133E+03  0.7818608E-02  0.1173726E+00
          2   -1    0    0  502    0  0.00000000000E+00  0.00000000000E+00  0.30393302635E+03  0.30393302635E+03  0.00000000000E+00 0. -1.
         -2   -1    0    0    0  501 -0.00000000000E+00 -0.00000000000E+00 -0.19946316046E+03  0.19946316046E+03  0.00000000000E+00 0.  1.
          6    1    1    2  502    0 -0.19750564531E+02 -0.17508461602E+02  0.23030361171E+03  0.28865270585E+03  0.17200000000E+03 0. -1.
         -6    1    1    2    0  501  0.19750564531E+02  0.17508461602E+02 -0.12583374582E+03  0.21474348096E+03  0.17200000000E+03 0.  1.
</event>
<event>
 4    1  0.6365520E-002  0.2188380E+03  0.7818608E-02  0.1134752E+00
          2   -1    0    0  502    0  0.00000000000E+00  0.00000000000E+00  0.59487211647E+03  0.59487211647E+03  0.00000000000E+00 0. -1.
         -2   -1    0    0    0  501 -0.00000000000E+00 -0.00000000000E+00 -0.10050405212E+03  0.10050405212E+03  0.00000000000E+00 0.  1.
          6    1    1    2  502    0 -0.12084617178E+03  0.60846386318E+02  0.40228144320E+03  0.45795244240E+03  0.17200000000E+03 0. -1.
         -6    1    1    2    0  501  0.12084617178E+03 -0.60846386318E+02  0.92086621149E+02  0.23742372618E+03  0.17200000000E+03 0.  1.
</event>
<event>
 4    1  0.6365520E-002  0.2565110E+03  0.7818608E-02  0.1109258E+00
         -2   -1    0    0    0  501 -0.00000000000E+00  0.00000000000E+00  0.91842918380E+02  0.91842918380E+02  0.00000000000E+00 0.  1.
          2   -1    0    0  502    0  0.00000000000E+00 -0.00000000000E+00 -0.74551295145E+03  0.74551295145E+03  0.00000000000E+00 0. -1.
          6    1    1    2  502    0 -0.21277233175E+02 -0.18910621693E+03 -0.24412380530E+03  0.35411059607E+03  0.17200000000E+03 0. -1.
         -6    1    1    2    0  501  0.21277233175E+02  0.18910621693E+03 -0.40954622777E+03  0.48324527376E+03  0.17200000000E+03 0.  1.
</event>
<event>
 4    1  0.6365520E-002  0.2219093E+03  0.7818608E-02  0.1132468E+00
         -2   -1    0    0    0  501 -0.00000000000E+00  0.00000000000E+00  0.89588823213E+02  0.89588823213E+02  0.00000000000E+00 0.  1.
          2   -1    0    0  502    0  0.00000000000E+00 -0.00000000000E+00 -0.57187876858E+03  0.57187876858E+03  0.00000000000E+00 0. -1.
          6    1    1    2  502    0 -0.14007215069E+03 -0.62878927829E+01 -0.30633004206E+03  0.37826160215E+03  0.17200000000E+03 0. -1.
         -6    1    1    2    0  501  0.14007215069E+03  0.62878927829E+01 -0.17595990331E+03  0.28320598964E+03  0.17200000000E+03 0.  1.
</event>
<event>
 4    1  0.6365520E-002  0.1856205E+03  0.7818608E-02  0.1162472E+00
         -2   -1    0    0    0  501 -0.00000000000E+00  0.00000000000E+00  0.16104290383E+02  0.16104290383E+02  0.00000000000E+00 0.  1.
          2   -1    0    0  502    0  0.00000000000E+00 -0.00000000000E+00 -0.21573631866E+04  0.21573631866E+04  0.00000000000E+00 0. -1.
          6    1    1    2  502    0  0.61311436204E+02 -0.33344693669E+02 -0.11695458057E+04  0.11841842561E+04  0.17200000000E+03 0. -1.
         -6    1    1    2    0  501 -0.61311436204E+02  0.33344693669E+02 -0.97171309055E+03  0.98928322090E+03  0.17200000000E+03 0. -1.
</event>
<event>
 4    1  0.6365520E-002  0.2276105E+03  0.7818608E-02  0.1128333E+00
         -2   -1    0    0    0  501 -0.00000000000E+00  0.00000000000E+00  0.52271988024E+02  0.52271988024E+02  0.00000000000E+00 0.  1.
          2   -1    0    0  502    0  0.00000000000E+00 -0.00000000000E+00 -0.10284916414E+04  0.10284916414E+04  0.00000000000E+00 0. -1.
          6    1    1    2  502    0  0.27381281526E+02 -0.14653599026E+03 -0.38506792635E+03  0.44730732044E+03  0.17200000000E+03 0. -1.
         -6    1    1    2    0  501 -0.27381281526E+02  0.14653599026E+03 -0.59115172698E+03  0.63345630894E+03  0.17200000000E+03 0. -1.
</event>
<event>
 4    1  0.6365520E-002  0.2178170E+03  0.7818608E-02  0.1135521E+00
         -1   -1    0    0    0  501 -0.00000000000E+00  0.00000000000E+00  0.84780431945E+02  0.84780431945E+02  0.00000000000E+00 0.  1.
          1   -1    0    0  502    0  0.00000000000E+00 -0.00000000000E+00 -0.63525104388E+03  0.63525104388E+03  0.00000000000E+00 0. -1.
          6    1    1    2  502    0  0.13234962727E+03 -0.18542914184E+02 -0.39946284027E+03  0.45498881774E+03  0.17200000000E+03 0. -1.
         -6    1    1    2    0  501 -0.13234962727E+03  0.18542914184E+02 -0.15100777166E+03  0.26504265809E+03  0.17200000000E+03 0.  1.
</event>
<event>
 4    1  0.6365520E-002  0.2675768E+03  0.7818608E-02  0.1102675E+00
         -1   -1    0    0    0  501 -0.00000000000E+00  0.00000000000E+00  0.53038024394E+03  0.53038024394E+03  0.00000000000E+00 0.  1.
          1   -1    0    0  502    0  0.00000000000E+00 -0.00000000000E+00 -0.13693046209E+03  0.13693046209E+03  0.00000000000E+00 0. -1.
          6    1    1    2  502    0  0.31174837087E+02  0.20258696179E+03  0.23641865539E+03  0.35705899817E+03  0.17200000000E+03 0. -1.
         -6    1    1    2    0  501 -0.31174837087E+02 -0.20258696179E+03  0.15703112646E+03  0.31025170786E+03  0.17200000000E+03 0.  1.
</event>
<event>
 4    1  0.6365520E-002  0.4808638E+03  0.7818608E-02  0.1018898E+00
          1   -1    0    0  502    0  0.00000000000E+00  0.00000000000E+00  0.12414943778E+04  0.12414943778E+04  0.00000000000E+00 0. -1.
         -1   -1    0    0    0  501 -0.00000000000E+00 -0.00000000000E+00 -0.35461071113E+03  0.35461071113E+03  0.00000000000E+00 0.  1.
          6    1    1    2  502    0 -0.23601995905E+03 -0.38202168551E+03  0.99332979440E+03  0.11036005028E+04  0.17200000000E+03 0. -1.
         -6    1    1    2    0  501  0.23601995905E+03  0.38202168551E+03 -0.10644612774E+03  0.49250458615E+03  0.17200000000E+03 0.  1.
</event>
<event>
 4    1  0.6365520E-002  0.2119506E+03  0.7818608E-02  0.1140031E+00
         -2   -1    0    0    0  501 -0.00000000000E+00  0.00000000000E+00  0.92962267578E+02  0.92962267578E+02  0.00000000000E+00 0.  1.
          2   -1    0    0  502    0  0.00000000000E+00 -0.00000000000E+00 -0.48720630071E+03  0.48720630071E+03  0.00000000000E+00 0. -1.
          6    1    1    2  502    0 -0.50092305040E+02 -0.11326874096E+03 -0.17094718941E+03  0.27229760974E+03  0.17200000000E+03 0. -1.
         -6    1    1    2    0  501  0.50092305040E+02  0.11326874096E+03 -0.22329684373E+03  0.30787095855E+03  0.17200000000E+03 0.  1.
</event>
<event>
 4    1  0.6365520E-002  0.3684644E+03  0.7818608E-02  0.1055282E+00
         -2   -1    0    0    0  501 -0.00000000000E+00  0.00000000000E+00  0.59034422745E+03  0.59034422745E+03  0.00000000000E+00 0.  1.
          2   -1    0    0  502    0  0.00000000000E+00 -0.00000000000E+00 -0.45487791383E+03  0.45487791383E+03  0.00000000000E+00 0. -1.
          6    1    1    2  502    0  0.38417982955E+02 -0.32358319918E+03 -0.29974038949E+03  0.47498455690E+03  0.17200000000E+03 0. -1.
         -6    1    1    2    0  501 -0.38417982955E+02  0.32358319918E+03  0.43520670311E+03  0.57023758438E+03  0.17200000000E+03 0.  1.
</event>
<event>
 4    1  0.6365520E-002  0.2155978E+03  0.7818608E-02  0.1137208E+00
         -1   -1    0    0    0  501 -0.00000000000E+00  0.00000000000E+00  0.60926796099E+02  0.60926796099E+02  0.00000000000E+00 0.  1.
          1   -1    0    0  502    0  0.00000000000E+00 -0.00000000000E+00 -0.78437396618E+03  0.78437396618E+03  0.00000000000E+00 0. -1.
          6    1    1    2  502    0 -0.86368460619E+02  0.97154073442E+02 -0.43161887982E+03  0.48246998082E+03  0.17200000000E+03 0. -1.
         -6    1    1    2    0  501  0.86368460619E+02 -0.97154073442E+02 -0.29182829026E+03  0.36283078146E+03  0.17200000000E+03 0. -1.
</event>
<event>
 4    1  0.6365520E-002  0.2088312E+03  0.7818608E-02  0.1142495E+00
          2   -1    0    0  502    0  0.00000000000E+00  0.00000000000E+00  0.38511247691E+03  0.38511247691E+03  0.00000000000E+00 0. -1.
         -2   -1    0    0    0  501 -0.00000000000E+00 -0.00000000000E+00 -0.19436135557E+03  0.19436135557E+03  0.00000000000E+00 0.  1.
          6    1    1    2  502    0 -0.69340697024E+02  0.96012173096E+02  0.28255759393E+03  0.35135347377E+03  0.17200000000E+03 0. -1.
         -6    1    1    2    0  501  0.69340697024E+02 -0.96012173096E+02 -0.91806472595E+02  0.22812035871E+03  0.17200000000E+03 0.  1.
</event>
<event>
 4    1  0.6365520E-002  0.2617315E+03  0.7818608E-02  0.1106107E+00
         -2   -1    0    0    0  501 -0.00000000000E+00  0.00000000000E+00  0.35555814230E+02  0.35555814230E+02  0.00000000000E+00 0.  1.
          2   -1    0    0  502    0  0.00000000000E+00 -0.00000000000E+00 -0.23120464635E+04  0.23120464635E+04  0.00000000000E+00 0. -1.
          6    1    1    2  502    0  0.18110352912E+03  0.78235969919E+02 -0.16174865160E+04  0.16385255520E+04  0.17200000000E+03 0. -1.
         -6    1    1    2    0  501 -0.18110352912E+03 -0.78235969919E+02 -0.65900413331E+03  0.70907672573E+03  0.17200000000E+03 0.  1.
</event>
<event>
 4    1  0.6365520E-002  0.2068955E+03  0.7818608E-02  0.1144048E+00
          1   -1    0    0  502    0  0.00000000000E+00  0.00000000000E+00  0.14827585161E+03  0.14827585161E+03  0.00000000000E+00 0. -1.
         -1   -1    0    0    0  501 -0.00000000000E+00 -0.00000000000E+00 -0.30507661678E+03  0.30507661678E+03  0.00000000000E+00 0.  1.
          6    1    1    2  502    0 -0.79984500626E+02  0.82608984065E+02 -0.13093497581E+03  0.24484634463E+03  0.17200000000E+03 0. -1.
         -6    1    1    2    0  501  0.79984500626E+02 -0.82608984065E+02 -0.25865789360E+02  0.20850612377E+03  0.17200000000E+03 0.  1.
</event>
<event>
 4    1  0.6365520E-002  0.2109685E+03  0.7818608E-02  0.1140801E+00
         -2   -1    0    0    0  501 -0.00000000000E+00  0.00000000000E+00  0.77404349261E+02  0.77404349261E+02  0.00000000000E+00 0.  1.
          2   -1    0    0  502    0  0.00000000000E+00 -0.00000000000E+00 -0.60508519680E+03  0.60508519680E+03  0.00000000000E+00 0. -1.
          6    1    1    2  502    0  0.75536445283E+01  0.12192892076E+03 -0.33992800919E+03  0.40007345663E+03  0.17200000000E+03 0. -1.
         -6    1    1    2    0  501 -0.75536445283E+01 -0.12192892076E+03 -0.18775283835E+03  0.28241608944E+03  0.17200000000E+03 0.  1.
</event>
<event>
 4    1  0.6365520E-002  0.2766051E+03  0.7818608E-02  0.1097558E+00
          2   -1    0    0  502    0  0.00000000000E+00  0.00000000000E+00  0.16781629702E+04  0.16781629702E+04  0.00000000000E+00 0. -1.
         -2   -1    0    0    0  501 -0.00000000000E+00 -0.00000000000E+00 -0.56387169838E+02  0.56387169838E+02  0.00000000000E+00 0.  1.
          6    1    1    2  502    0 -0.24687798406E+02 -0.21521357647E+03  0.11903659594E+04  0.12220808026E+04  0.17200000000E+03 0. -1.
         -6    1    1    2    0  501  0.24687798406E+02  0.21521357647E+03  0.43140984095E+03  0.51246933739E+03  0.17200000000E+03 0.  1.
</event>
<event>
 4    1  0.6365520E-002  0.1189258E+04  0.7818608E-02  0.9122311E-01
         -1   -1    0    0    0  501 -0.00000000000E+00  0.00000000000E+00  0.23857120655E+04  0.23857120655E+04  0.00000000000E+00 0.  1.
          1   -1    0    0  502    0  0.00000000000E+00 -0.00000000000E+00 -0.63897576303E+03  0.63897576303E+03  0.00000000000E+00 0. -1.
          6    1    1    2  502    0 -0.11763775976E+04  0.29784859273E+02  0.46697418631E+03  0.12776542101E+04  0.17200000000E+03 0. -1.
         -6    1    1    2    0  501  0.11763775976E+04 -0.29784859273E+02  0.12797621161E+04  0.17470336184E+04  0.17200000000E+03 0.  1.
</event>
<event>
 4    1  0.6365520E-002  0.5037450E+03  0.7818608E-02  0.1012806E+00
         -1   -1    0    0    0  501 -0.00000000000E+00  0.00000000000E+00  0.29136075630E+03  0.29136075630E+03  0.00000000000E+00 0.  1.
          1   -1    0    0  502    0  0.00000000000E+00 -0.00000000000E+00 -0.13187906602E+04  0.13187906602E+04  0.00000000000E+00 0. -1.
          6    1    1    2  502    0  0.17512018633E+02  0.47314730062E+03 -0.98286658711E+03  0.11044391187E+04  0.17200000000E+03 0. -1.
         -6    1    1    2    0  501 -0.17512018633E+02 -0.47314730062E+03 -0.44563316750E+02  0.50571229774E+03  0.17200000000E+03 0.  1.
</event>
<event>
 4    1  0.6365520E-002  0.2164096E+03  0.7818608E-02  0.1136589E+00
         -1   -1    0    0    0  501 -0.00000000000E+00  0.00000000000E+00  0.99259075499E+02  0.99259075499E+02  0.00000000000E+00 0.  1.
          1   -1    0    0  502    0  0.00000000000E+00 -0.00000000000E+00 -0.47201791733E+03  0.47201791733E+03  0.00000000000E+00 0. -1.
          6    1    1    2  502    0  0.82226377377E+02 -0.10241058848E+03 -0.19212494220E+03  0.28938745513E+03  0.17200000000E+03 0. -1.
         -6    1    1    2    0  501 -0.82226377377E+02  0.10241058848E+03 -0.18063389963E+03  0.28188953770E+03  0.17200000000E+03 0.  1.
</event>
<event>
 4    1  0.6365520E-002  0.1801002E+03  0.7818608E-02  0.1167706E+00
         -1   -1    0    0    0  501 -0.00000000000E+00  0.00000000000E+00  0.14545333987E+03  0.14545333987E+03  0.00000000000E+00 0.  1.
          1   -1    0    0  502    0  0.00000000000E+00 -0.00000000000E+00 -0.10719915553E+04  0.10719915553E+04  0.00000000000E+00 0. -1.
          6    1    1    2  502    0 -0.46053223841E+02  0.27040503406E+02 -0.10049896842E+04  0.10209996835E+04  0.17200000000E+03 0. -1.
         -6    1    1    2    0  501  0.46053223841E+02 -0.27040503406E+02  0.78451468788E+02  0.19644521171E+03  0.17200000000E+03 0.  1.
</event>
<event>
 4    1  0.6365520E-002  0.1874781E+03  0.7818608E-02  0.1160756E+00
         -1   -1    0    0    0  501 -0.00000000000E+00  0.00000000000E+00  0.21900152304E+02  0.21900152304E+02  0.00000000000E+00 0.  1.
          1   -1    0    0  502    0  0.00000000000E+00 -0.00000000000E+00 -0.31359998617E+04  0.31359998617E+04  0.00000000000E+00 0. -1.
          6    1    1    2  502    0 -0.71244520126E+02 -0.22096598483E+02 -0.26603126366E+04  0.26669104532E+04  0.17200000000E+03 0. -1.
         -6    1    1    2    0  501  0.71244520126E+02  0.22096598483E+02 -0.45378707281E+03  0.49098956075E+03  0.17200000000E+03 0.  1.
</event>
<event>
 4    1  0.6365520E-002  0.2795149E+03  0.7818608E-02  0.1095954E+00
         -4   -1    0    0    0  501 -0.00000000000E+00  0.00000000000E+00  0.25999329139E+03  0.25999329139E+03  0.00000000000E+00 0.  1.
          4   -1    0    0  502    0  0.00000000000E+00 -0.00000000000E+00 -0.30956542605E+03  0.30956542605E+03  0.00000000000E+00 0. -1.
          6    1    1    2  502    0  0.21757739284E+03  0.34707775445E+02  0.23941429606E+02  0.28053831040E+03  0.17200000000E+03 0. -1.
         -6    1    1    2    0  501 -0.21757739284E+03 -0.34707775445E+02 -0.73513564272E+02  0.28902040704E+03  0.17200000000E+03 0.  1.
</event>
<event>
 4    1  0.6365520E-002  0.2234917E+03  0.7818608E-02  0.1131306E+00
         -2   -1    0    0    0  501 -0.00000000000E+00  0.00000000000E+00  0.44368696840E+02  0.44368696840E+02  0.00000000000E+00 0.  1.
          2   -1    0    0  502    0  0.00000000000E+00 -0.00000000000E+00 -0.48806696058E+04  0.48806696058E+04  0.00000000000E+00 0. -1.
          6    1    1    2  502    0 -0.98994102182E+02 -0.10278469139E+03 -0.45780802132E+04  0.45835321493E+04  0.17200000000E+03 0. -1.
         -6    1    1    2    0  501  0.98994102182E+02  0.10278469139E+03 -0.25822069572E+03  0.34150615331E+03  0.17200000000E+03 0.  1.
</event>
<event>
 4    1  0.6365520E-002  0.2796179E+03  0.7818608E-02  0.1095898E+00
         -2   -1    0    0    0  501 -0.00000000000E+00  0.00000000000E+00  0.56799082237E+03  0.56799082237E+03  0.00000000000E+00 0.  1.
          2   -1    0    0  502    0  0.00000000000E+00 -0.00000000000E+00 -0.15577065006E+03  0.15577065006E+03  0.00000000000E+00 0. -1.
          6    1    1    2  502    0  0.21718590468E+03  0.37847416116E+02  0.32952366864E+03  0.43217125343E+03  0.17200000000E+03 0.  1.
         -6    1    1    2    0  501 -0.21718590468E+03 -0.37847416116E+02  0.82696503662E+02  0.29159021900E+03  0.17200000000E+03 0.  1.
</event>
<event>
 4    1  0.6365520E-002  0.2552387E+03  0.7818608E-02  0.1110038E+00
          2   -1    0    0  502    0  0.00000000000E+00  0.00000000000E+00  0.75714074894E+03  0.75714074894E+03  0.00000000000E+00 0. -1.
         -2   -1    0    0    0  501 -0.00000000000E+00 -0.00000000000E+00 -0.89067073384E+02  0.89067073384E+02  0.00000000000E+00 0.  1.
          6    1    1    2  502    0  0.51566266153E+02 -0.18139377082E+03  0.41199711577E+03  0.48465286886E+03  0.17200000000E+03 0. -1.
         -6    1    1    2    0  501 -0.51566266153E+02  0.18139377082E+03  0.25607655979E+03  0.36155495346E+03  0.17200000000E+03 0. -1.
</event>
<event>
 4    1  0.6365520E-002  0.2562516E+03  0.7818608E-02  0.1109417E+00
         -2   -1    0    0    0  501 -0.00000000000E+00  0.00000000000E+00  0.39980664705E+03  0.39980664705E+03  0.00000000000E+00 0.  1.
          2   -1    0    0  502    0  0.00000000000E+00 -0.00000000000E+00 -0.19055140056E+03  0.19055140056E+03  0.00000000000E+00 0. -1.
          6    1    1    2  502    0 -0.18736918660E+03  0.31203457926E+02 -0.50551740760E+01  0.25630142929E+03  0.17200000000E+03 0. -1.
         -6    1    1    2    0  501  0.18736918660E+03 -0.31203457926E+02  0.21431042056E+03  0.33405661831E+03  0.17200000000E+03 0.  1.
</event>
<event>
 4    1  0.6365520E-002  0.9484906E+03  0.7818608E-02  0.9366917E-01
          2   -1    0    0  502    0  0.00000000000E+00  0.00000000000E+00  0.19484582425E+04  0.19484582425E+04  0.00000000000E+00 0. -1.
         -2   -1    0    0    0  501 -0.00000000000E+00 -0.00000000000E+00 -0.47243276389E+03  0.47243276389E+03  0.00000000000E+00 0.  1.
          6    1    1    2  502    0  0.90482064598E+03  0.22660544706E+03  0.92032093517E+03  0.13215994301E+04  0.17200000000E+03 0. -1.
         -6    1    1    2    0  501 -0.90482064598E+03 -0.22660544706E+03  0.55570454344E+03  0.10992915763E+04  0.17200000000E+03 0.  1.
</event>
<event>
 4    1  0.6365520E-002  0.2051102E+03  0.7818608E-02  0.1145498E+00
          2   -1    0    0  502    0  0.00000000000E+00  0.00000000000E+00  0.23443151673E+03  0.23443151673E+03  0.00000000000E+00 0. -1.
         -2   -1    0    0    0  501 -0.00000000000E+00 -0.00000000000E+00 -0.18433316252E+03  0.18433316252E+03  0.00000000000E+00 0.  1.
          6    1    1    2  502    0 -0.97994291070E+02 -0.53696447508E+02  0.59106691061E+02  0.21345676491E+03  0.17200000000E+03 0. -1.
         -6    1    1    2    0  501  0.97994291070E+02  0.53696447508E+02 -0.90083368502E+01  0.20530791434E+03  0.17200000000E+03 0.  1.
</event>
<event>
 4    1  0.6365520E-002  0.3266708E+03  0.7818608E-02  0.1072619E+00
         -1   -1    0    0    0  501 -0.00000000000E+00  0.00000000000E+00  0.28322648149E+03  0.28322648149E+03  0.00000000000E+00 0.  1.
          1   -1    0    0  502    0  0.00000000000E+00 -0.00000000000E+00 -0.40728867811E+03  0.40728867811E+03  0.00000000000E+00 0. -1.
          6    1    1    2  502    0  0.26863994042E+03 -0.70444465821E+02  0.32464072052E+02  0.32827999684E+03  0.17200000000E+03 0.  1.
         -6    1    1    2    0  501 -0.26863994042E+03  0.70444465821E+02 -0.15652626867E+03  0.36223516276E+03  0.17200000000E+03 0. -1.
</event>
<event>
 4    1  0.6365520E-002  0.2619081E+03  0.7818608E-02  0.1106002E+00
         -1   -1    0    0    0  501 -0.00000000000E+00  0.00000000000E+00  0.31865170322E+03  0.31865170322E+03  0.00000000000E+00 0.  1.
          1   -1    0    0  502    0  0.00000000000E+00 -0.00000000000E+00 -0.41074861027E+03  0.41074861027E+03  0.00000000000E+00 0. -1.
          6    1    1    2  502    0  0.18343282258E+03 -0.73241007390E+02 -0.29764147387E+03  0.39646726539E+03  0.17200000000E+03 0. -1.
         -6    1    1    2    0  501 -0.18343282258E+03  0.73241007390E+02  0.20554456681E+03  0.33293304809E+03  0.17200000000E+03 0.  1.
</event>
<event>
 4    1  0.6365520E-002  0.2278640E+03  0.7818608E-02  0.1128152E+00
         -1   -1    0    0    0  501 -0.00000000000E+00  0.00000000000E+00  0.16613387692E+03  0.16613387692E+03  0.00000000000E+00 0.  1.
          1   -1    0    0  502    0  0.00000000000E+00 -0.00000000000E+00 -0.31291227047E+03  0.31291227047E+03  0.00000000000E+00 0. -1.
          6    1    1    2  502    0  0.13723970462E+03  0.59188533141E+02 -0.81747957910E+02  0.24208417462E+03  0.17200000000E+03 0.  1.
         -6    1    1    2    0  501 -0.13723970462E+03 -0.59188533141E+02 -0.65030435644E+02  0.23696197277E+03  0.17200000000E+03 0. -1.
</event>
<event>
 4    1  0.6365520E-002  0.2077871E+03  0.7818608E-02  0.1143330E+00
         -1   -1    0    0    0  501 -0.00000000000E+00  0.00000000000E+00  0.10577412445E+03  0.10577412445E+03  0.00000000000E+00 0.  1.
          1   -1    0    0  502    0  0.00000000000E+00 -0.00000000000E+00 -0.55688066275E+03  0.55688066275E+03  0.00000000000E+00 0. -1.
          6    1    1    2  502    0  0.75113982442E+00  0.11658008638E+03 -0.39676143023E+03  0.44787845815E+03  0.17200000000E+03 0. -1.
         -6    1    1    2    0  501 -0.75113982442E+00 -0.11658008638E+03 -0.54345108072E+02  0.21477632906E+03  0.17200000000E+03 0.  1.
</event>
<event>
 4    1  0.6365520E-002  0.2310979E+03  0.7818608E-02  0.1125869E+00
          2   -1    0    0  502    0  0.00000000000E+00  0.00000000000E+00  0.58997983281E+03  0.58997983281E+03  0.00000000000E+00 0. -1.
         -2   -1    0    0    0  501 -0.00000000000E+00 -0.00000000000E+00 -0.11189343277E+03  0.11189343277E+03  0.00000000000E+00 0.  1.
          6    1    1    2  502    0  0.10759472449E+03  0.11065984936E+03  0.39241375018E+03  0.45540616852E+03  0.17200000000E+03 0. -1.
         -6    1    1    2    0  501 -0.10759472449E+03 -0.11065984936E+03  0.85672649866E+02  0.24646709706E+03  0.17200000000E+03 0.  1.
</event>
<event>
 4    1  0.6365520E-002  0.2249521E+03  0.7818608E-02  0.1130244E+00
          2   -1    0    0  502    0  0.00000000000E+00  0.00000000000E+00  0.43738157371E+03  0.43738157371E+03  0.00000000000E+00 0. -1.
         -2   -1    0    0    0  501 -0.00000000000E+00 -0.00000000000E+00 -0.13213072831E+03  0.13213072831E+03  0.00000000000E+00 0.  1.
          6    1    1    2  502    0  0.13114232190E+03  0.61815233971E+02  0.52198896523E+02  0.23092889932E+03  0.17200000000E+03 0. -1.
         -6    1    1    2    0  501 -0.13114232190E+03 -0.61815233971E+02  0.25305194888E+03  0.33858340269E+03  0.17200000000E+03 0. -1.
</event>
<event>
 4    1  0.6365520E-002  0.1796891E+03  0.7818608E-02  0.1168104E+00
         -2   -1    0    0    0  501 -0.00000000000E+00  0.00000000000E+00  0.13709840431E+03  0.13709840431E+03  0.00000000000E+00 0.  1.
          2   -1    0    0  502    0  0.00000000000E+00 -0.00000000000E+00 -0.32707127858E+03  0.32707127858E+03  0.00000000000E+00 0. -1.
          6    1    1    2  502    0  0.23277683556E+02 -0.46500898374E+02 -0.21778098737E+03  0.28234153531E+03  0.17200000000E+03 0. -1.
         -6    1    1    2    0  501 -0.23277683556E+02  0.46500898374E+02  0.27808113098E+02  0.18182814759E+03  0.17200000000E+03 0.  1.
</event>
<event>
 4    1  0.6365520E-002  0.2713250E+03  0.7818608E-02  0.1100524E+00
          1   -1    0    0  502    0  0.00000000000E+00  0.00000000000E+00  0.14249792871E+03  0.14249792871E+03  0.00000000000E+00 0. -1.
         -1   -1    0    0    0  501 -0.00000000000E+00 -0.00000000000E+00 -0.51757168109E+03  0.51757168109E+03  0.00000000000E+00 0.  1.
          6    1    1    2  502    0 -0.12784209430E+02 -0.20945127811E+03 -0.17338448449E+03  0.32199293995E+03  0.17200000000E+03 0.  1.
         -6    1    1    2    0  501  0.12784209430E+02  0.20945127811E+03 -0.20168926789E+03  0.33807666985E+03  0.17200000000E+03 0.  1.
</event>
<event>
 4    1  0.6365520E-002  0.1806665E+03  0.7818608E-02  0.1167160E+00
          1   -1    0    0  502    0  0.00000000000E+00  0.00000000000E+00  0.45812772407E+03  0.45812772407E+03  0.00000000000E+00 0. -1.
         -1   -1    0    0    0  501 -0.00000000000E+00 -0.00000000000E+00 -0.73938118225E+02  0.73938118225E+02  0.00000000000E+00 0.  1.
          6    1    1    2  502    0 -0.53098950087E+02 -0.15391141648E+02  0.14134440750E+03  0.22938750461E+03  0.17200000000E+03 0.  1.
         -6    1    1    2    0  501  0.53098950087E+02  0.15391141648E+02  0.24284519835E+03  0.30267833768E+03  0.17200000000E+03 0. -1.
</event>
<event>
 4    1  0.6365520E-002  0.2174090E+03  0.7818608E-02  0.1135830E+00
         -1   -1    0    0    0  501 -0.00000000000E+00  0.00000000000E+00  0.96534139038E+02  0.96534139038E+02  0.00000000000E+00 0.  1.
          1   -1    0    0  502    0  0.00000000000E+00 -0.00000000000E+00 -0.60299979736E+03  0.60299979736E+03  0.00000000000E+00 0. -1.
          6    1    1    2  502    0  0.99707982812E+02 -0.87982929482E+02 -0.40488745279E+03  0.45956558524E+03  0.17200000000E+03 0. -1.
         -6    1    1    2    0  501 -0.99707982812E+02  0.87982929482E+02 -0.10157820554E+03  0.23996835116E+03  0.17200000000E+03 0.  1.
</event>
<event>
 4    1  0.6365520E-002  0.1754104E+03  0.7818608E-02  0.1172320E+00
         -2   -1    0    0    0  501 -0.00000000000E+00  0.00000000000E+00  0.25130525583E+02  0.25130525583E+02  0.00000000000E+00 0.  1.
          2   -1    0    0  502    0  0.00000000000E+00 -0.00000000000E+00 -0.13531133834E+04  0.13531133834E+04  0.00000000000E+00 0. -1.
          6    1    1    2  502    0 -0.24095844060E+02 -0.24580482338E+02 -0.87656455015E+03  0.89394307447E+03  0.17200000000E+03 0. -1.
         -6    1    1    2    0  501  0.24095844060E+02  0.24580482338E+02 -0.45141830767E+03  0.48430083451E+03  0.17200000000E+03 0.  1.
</event>
<event>
 4    1  0.6365520E-002  0.1800009E+03  0.7818608E-02  0.1167802E+00
         -2   -1    0    0    0  501 -0.00000000000E+00  0.00000000000E+00  0.99511828481E+02  0.99511828481E+02  0.00000000000E+00 0.  1.
          2   -1    0    0  502    0  0.00000000000E+00 -0.00000000000E+00 -0.36297917622E+03  0.36297917622E+03  0.00000000000E+00 0. -1.
          6    1    1    2  502    0 -0.39807407830E+02 -0.35095424352E+02 -0.20594839826E+03  0.27352341997E+03  0.17200000000E+03 0. -1.
         -6    1    1    2    0  501  0.39807407830E+02  0.35095424352E+02 -0.57518949481E+02  0.18896758473E+03  0.17200000000E+03 0.  1.
</event>
<event>
 4    1  0.6365520E-002  0.1834239E+03  0.7818608E-02  0.1164530E+00
         -2   -1    0    0    0  501 -0.00000000000E+00  0.00000000000E+00  0.29314215237E+02  0.29314215237E+02  0.00000000000E+00 0.  1.
          2   -1    0    0  502    0  0.00000000000E+00 -0.00000000000E+00 -0.23586771653E+04  0.23586771653E+04  0.00000000000E+00 0. -1.
          6    1    1    2  502    0 -0.61465391933E+02 -0.16803162160E+02 -0.20202089104E+04  0.20285187656E+04  0.17200000000E+03 0. -1.
         -6    1    1    2    0  501  0.61465391933E+02  0.16803162160E+02 -0.30915403968E+03  0.35947261497E+03  0.17200000000E+03 0.  1.
</event>
<event>
 4    1  0.6365520E-002  0.1811231E+03  0.7818608E-02  0.1166721E+00
         -1   -1    0    0    0  501 -0.00000000000E+00  0.00000000000E+00  0.21017252133E+02  0.21017252133E+02  0.00000000000E+00 0.  1.
          1   -1    0    0  502    0  0.00000000000E+00 -0.00000000000E+00 -0.30770035674E+04  0.30770035674E+04  0.00000000000E+00 0. -1.
          6    1    1    2  502    0  0.81205826708E+01  0.56175051421E+02 -0.26153108766E+04  0.26215752061E+04  0.17200000000E+03 0. -1.
         -6    1    1    2    0  501 -0.81205826708E+01 -0.56175051421E+02 -0.44067543871E+03  0.47644561342E+03  0.17200000000E+03 0.  1.
</event>
<event>
 4    1  0.6365520E-002  0.1788523E+03  0.7818608E-02  0.1168918E+00
          1   -1    0    0  502    0  0.00000000000E+00  0.00000000000E+00  0.15491206891E+04  0.15491206891E+04  0.00000000000E+00 0. -1.
         -1   -1    0    0    0  501 -0.00000000000E+00 -0.00000000000E+00 -0.22035677553E+02  0.22035677553E+02  0.00000000000E+00 0.  1.
          6    1    1    2  502    0 -0.47625703121E+02  0.11658509802E+02  0.96059414474E+03  0.97710247127E+03  0.17200000000E+03 0. -1.
         -6    1    1    2    0  501  0.47625703121E+02 -0.11658509802E+02  0.56649086683E+03  0.59405389541E+03  0.17200000000E+03 0.  1.
</event>
<event>
 4    1  0.6365520E-002  0.1756426E+03  0.7818608E-02  0.1172088E+00
          2   -1    0    0  502    0  0.00000000000E+00  0.00000000000E+00  0.65310269741E+03  0.65310269741E+03  0.00000000000E+00 0. -1.
         -2   -1    0    0    0  501 -0.00000000000E+00 -0.00000000000E+00 -0.59132049089E+02  0.59132049089E+02  0.00000000000E+00 0.  1.
          6    1    1    2  502    0 -0.30248427922E+02 -0.18744262171E+02  0.45671040913E+03  0.48932066436E+03  0.17200000000E+03 0. -1.
         -6    1    1    2    0  501  0.30248427922E+02  0.18744262171E+02  0.13726023919E+03  0.22291408215E+03  0.17200000000E+03 0.  1.
</event>
<event>
 4    1  0.6365520E-002  0.2454159E+03  0.7818608E-02  0.1116237E+00
          2   -1    0    0  502    0  0.00000000000E+00  0.00000000000E+00  0.13702865465E+04  0.13702865465E+04  0.00000000000E+00 0. -1.
         -2   -1    0    0    0  501 -0.00000000000E+00 -0.00000000000E+00 -0.63287154862E+02  0.63287154862E+02  0.00000000000E+00 0.  1.
          6    1    1    2  502    0  0.80463564648E+02 -0.15546893027E+03  0.25732335394E+03  0.35559004766E+03  0.17200000000E+03 0.  1.
         -6    1    1    2    0  501 -0.80463564648E+02  0.15546893027E+03  0.10496760377E+04  0.10779836537E+04  0.17200000000E+03 0.  1.
</event>
<event>
 4    1  0.6365520E-002  0.3197959E+03  0.7818608E-02  0.1075743E+00
          2   -1    0    0  502    0  0.00000000000E+00  0.00000000000E+00  0.43722305334E+03  0.43722305334E+03  0.00000000000E+00 0. -1.
         -2   -1    0    0    0  501 -0.00000000000E+00 -0.00000000000E+00 -0.25820622924E+03  0.25820622924E+03  0.00000000000E+00 0.  1.
          6    1    1    2  502    0  0.16515591825E+03 -0.21309367553E+03  0.19617754089E+03  0.37517331919E+03  0.17200000000E+03 0. -1.
         -6    1    1    2    0  501 -0.16515591825E+03  0.21309367553E+03 -0.17160716791E+02  0.32025596339E+03  0.17200000000E+03 0.  1.
</event>
<event>
 4    1  0.6365520E-002  0.4475849E+03  0.7818608E-02  0.1028445E+00
          1   -1    0    0  502    0  0.00000000000E+00  0.00000000000E+00  0.27779451291E+03  0.27779451291E+03  0.00000000000E+00 0. -1.
         -1   -1    0    0    0  501 -0.00000000000E+00 -0.00000000000E+00 -0.86037242041E+03  0.86037242041E+03  0.00000000000E+00 0.  1.
          6    1    1    2  502    0  0.15636423663E+03 -0.38248984269E+03 -0.62369260090E+02  0.45190948083E+03  0.17200000000E+03 0. -1.
         -6    1    1    2    0  501 -0.15636423663E+03  0.38248984269E+03 -0.52020864741E+03  0.68625745249E+03  0.17200000000E+03 0.  1.
</event>
<event>
 4    1  0.6365520E-002  0.2028929E+03  0.7818608E-02  0.1147321E+00
         -4   -1    0    0    0  501 -0.00000000000E+00  0.00000000000E+00  0.20322128267E+03  0.20322128267E+03  0.00000000000E+00 0.  1.
          4   -1    0    0  502    0  0.00000000000E+00 -0.00000000000E+00 -0.48985471612E+03  0.48985471612E+03  0.00000000000E+00 0. -1.
          6    1    1    2  502    0  0.78412248182E+02  0.73709135998E+02 -0.40870226142E+03  0.45629273048E+03  0.17200000000E+03 0. -1.
         -6    1    1    2    0  501 -0.78412248182E+02 -0.73709135998E+02  0.12206882797E+03  0.23678326832E+03  0.17200000000E+03 0.  1.
</event>
<event>
 4    1  0.6365520E-002  0.2922139E+03  0.7818608E-02  0.1089199E+00
          1   -1    0    0  502    0  0.00000000000E+00  0.00000000000E+00  0.13757096194E+04  0.13757096194E+04  0.00000000000E+00 0. -1.
         -1   -1    0    0    0  501 -0.00000000000E+00 -0.00000000000E+00 -0.95934051744E+02  0.95934051744E+02  0.00000000000E+00 0.  1.
          6    1    1    2  502    0  0.16516370685E+03 -0.16889621162E+03  0.10770693786E+04  0.11160051195E+04  0.17200000000E+03 0.  1.
         -6    1    1    2    0  501 -0.16516370685E+03  0.16889621162E+03  0.20270618907E+03  0.35563855169E+03  0.17200000000E+03 0.  1.
</event>
<event>
 4    1  0.6365520E-002  0.2808548E+03  0.7818608E-02  0.1095223E+00
          1   -1    0    0  502    0  0.00000000000E+00  0.00000000000E+00  0.21388401509E+03  0.21388401509E+03  0.00000000000E+00 0. -1.
         -1   -1    0    0    0  501 -0.00000000000E+00 -0.00000000000E+00 -0.61048740769E+03  0.61048740769E+03  0.00000000000E+00 0.  1.
          6    1    1    2  502    0  0.16352651385E+03  0.15018148582E+03  0.61048091161E+02  0.28741306312E+03  0.17200000000E+03 0. -1.
         -6    1    1    2    0  501 -0.16352651385E+03 -0.15018148582E+03 -0.45765148377E+03  0.53695835966E+03  0.17200000000E+03 0.  1.
</event>
<event>
 4    1  0.6365520E-002  0.1738736E+03  0.7818608E-02  0.1173867E+00
          2   -1    0    0  502    0  0.00000000000E+00  0.00000000000E+00  0.23175452631E+04  0.23175452631E+04  0.00000000000E+00 0. -1.
         -2   -1    0    0    0  501 -0.00000000000E+00 -0.00000000000E+00 -0.13748888508E+02  0.13748888508E+02  0.00000000000E+00 0.  1.
          6    1    1    2  502    0  0.16687342171E+02 -0.19223655074E+02  0.88812335450E+03  0.90498348554E+03  0.17200000000E+03 0.  1.
         -6    1    1    2    0  501 -0.16687342171E+02  0.19223655074E+02  0.14156730201E+04  0.14263106660E+04  0.17200000000E+03 0. -1.
</event>
<event>
 4    1  0.6365520E-002  0.2330609E+03  0.7818608E-02  0.1124504E+00
          2   -1    0    0  502    0  0.00000000000E+00  0.00000000000E+00  0.54073056691E+03  0.54073056691E+03  0.00000000000E+00 0. -1.
         -2   -1    0    0    0  501 -0.00000000000E+00 -0.00000000000E+00 -0.10045927401E+03  0.10045927401E+03  0.00000000000E+00 0.  1.
          6    1    1    2  502    0  0.17684869071E+02  0.15627107919E+03  0.22288513056E+03  0.32248284638E+03  0.17200000000E+03 0. -1.
         -6    1    1    2    0  501 -0.17684869071E+02 -0.15627107919E+03  0.21738616234E+03  0.31870699453E+03  0.17200000000E+03 0.  1.
</event>
<event>
 4    1  0.6365520E-002  0.2730344E+03  0.7818608E-02  0.1099555E+00
         -2   -1    0    0    0  501 -0.00000000000E+00  0.00000000000E+00  0.31988306992E+03  0.31988306992E+03  0.00000000000E+00 0.  1.
          2   -1    0    0  502    0  0.00000000000E+00 -0.00000000000E+00 -0.53547649988E+03  0.53547649988E+03  0.00000000000E+00 0. -1.
          6    1    1    2  502    0 -0.92102320946E+01 -0.21184654590E+03 -0.42920761140E+03  0.50869142028E+03  0.17200000000E+03 0. -1.
         -6    1    1    2    0  501  0.92102320946E+01  0.21184654590E+03  0.21361418143E+03  0.34666814952E+03  0.17200000000E+03 0.  1.
</event>
<event>
 4    1  0.6365520E-002  0.7865700E+03  0.7818608E-02  0.9579663E-01
          1   -1    0    0  502    0  0.00000000000E+00  0.00000000000E+00  0.77495821118E+03  0.77495821118E+03  0.00000000000E+00 0. -1.
         -1   -1    0    0    0  501 -0.00000000000E+00 -0.00000000000E+00 -0.87075244620E+03  0.87075244620E+03  0.00000000000E+00 0.  1.
          6    1    1    2  502    0  0.69580833908E+03  0.32397391440E+03  0.18936888636E+03  0.80904444691E+03  0.17200000000E+03 0. -1.
         -6    1    1    2    0  501 -0.69580833908E+03 -0.32397391440E+03 -0.28516312138E+03  0.83666621047E+03  0.17200000000E+03 0.  1.
</event>
<event>
 4    1  0.6365520E-002  0.3222948E+03  0.7818608E-02  0.1074598E+00
         -2   -1    0    0    0  501 -0.00000000000E+00  0.00000000000E+00  0.85374632254E+02  0.85374632254E+02  0.00000000000E+00 0.  1.
          2   -1    0    0  502    0  0.00000000000E+00 -0.00000000000E+00 -0.12185909164E+04  0.12185909164E+04  0.00000000000E+00 0. -1.
          6    1    1    2  502    0 -0.22056888276E+03  0.16012284686E+03 -0.59239870949E+03  0.67439616631E+03  0.17200000000E+03 0. -1.
         -6    1    1    2    0  501  0.22056888276E+03 -0.16012284686E+03 -0.54081757465E+03  0.62956938234E+03  0.17200000000E+03 0. -1.
</event>
<event>
 4    1  0.6365520E-002  0.7229447E+03  0.7818608E-02  0.9678779E-01
         -2   -1    0    0    0  501 -0.00000000000E+00  0.00000000000E+00  0.12862606270E+04  0.12862606270E+04  0.00000000000E+00 0.  1.
          2   -1    0    0  502    0  0.00000000000E+00 -0.00000000000E+00 -0.47930421483E+03  0.47930421483E+03  0.00000000000E+00 0. -1.
          6    1    1    2  502    0 -0.51198631449E+03  0.48055701239E+03  0.74792838201E+03  0.10402143495E+04  0.17200000000E+03 0. -1.
         -6    1    1    2    0  501  0.51198631449E+03 -0.48055701239E+03  0.59028030203E+02  0.72535049234E+03  0.17200000000E+03 0.  1.
</event>
<event>
 4    1  0.6365520E-002  0.2188390E+03  0.7818608E-02  0.1134752E+00
         -1   -1    0    0    0  501 -0.00000000000E+00  0.00000000000E+00  0.10011640993E+03  0.10011640993E+03  0.00000000000E+00 0.  1.
          1   -1    0    0  502    0  0.00000000000E+00 -0.00000000000E+00 -0.53401141861E+03  0.53401141861E+03  0.00000000000E+00 0. -1.
          6    1    1    2  502    0 -0.11235606721E+03  0.75383023987E+02 -0.31931366550E+03  0.38710683683E+03  0.17200000000E+03 0. -1.
         -6    1    1    2    0  501  0.11235606721E+03 -0.75383023987E+02 -0.11458134317E+03  0.24702099171E+03  0.17200000000E+03 0.  1.
</event>
<event>
 4    1  0.6365520E-002  0.2208244E+03  0.7818608E-02  0.1133270E+00
         -2   -1    0    0    0  501 -0.00000000000E+00  0.00000000000E+00  0.29866858265E+02  0.29866858265E+02  0.00000000000E+00 0.  1.
          2   -1    0    0  502    0  0.00000000000E+00 -0.00000000000E+00 -0.16335948466E+04  0.16335948466E+04  0.00000000000E+00 0. -1.
          6    1    1    2  502    0 -0.12225999008E+02 -0.13794907065E+03 -0.82140246136E+03  0.85056770728E+03  0.17200000000E+03 0. -1.
         -6    1    1    2    0  501  0.12225999008E+02  0.13794907065E+03 -0.78232552697E+03  0.81289399758E+03  0.17200000000E+03 0.  1.
</event>
<event>
 4    1  0.6365520E-002  0.1744272E+03  0.7818608E-02  0.1173308E+00
         -1   -1    0    0    0  501 -0.00000000000E+00  0.00000000000E+00  0.38038503487E+03  0.38038503487E+03  0.00000000000E+00 0.  1.
          1   -1    0    0  502    0  0.00000000000E+00 -0.00000000000E+00 -0.80284248185E+02  0.80284248185E+02  0.00000000000E+00 0. -1.
          6    1    1    2  502    0 -0.10922473453E+02  0.26861611065E+02  0.16412826734E+03  0.23950560477E+03  0.17200000000E+03 0.  1.
         -6    1    1    2    0  501  0.10922473453E+02 -0.26861611065E+02  0.13597251934E+03  0.22116367828E+03  0.17200000000E+03 0.  1.
</event>
<event>
 4    1  0.6365520E-002  0.2342077E+03  0.7818608E-02  0.1123713E+00
          2   -1    0    0  502    0  0.00000000000E+00  0.00000000000E+00  0.84161087772E+03  0.84161087772E+03  0.00000000000E+00 0. -1.
         -2   -1    0    0    0  501 -0.00000000000E+00 -0.00000000000E+00 -0.65984411236E+02  0.65984411236E+02  0.00000000000E+00 0.  1.
          6    1    1    2  502    0  0.15875680199E+03 -0.80947405124E+01  0.33759923723E+03  0.41088501065E+03  0.17200000000E+03 0.  1.
         -6    1    1    2    0  501 -0.15875680199E+03  0.80947405124E+01  0.43802722926E+03  0.49671027831E+03  0.17200000000E+03 0. -1.
</event>
<event>
 4    1  0.6365520E-002  0.2827061E+03  0.7818608E-02  0.1094220E+00
          2   -1    0    0  502    0  0.00000000000E+00  0.00000000000E+00  0.12127599508E+04  0.12127599508E+04  0.00000000000E+00 0. -1.
         -2   -1    0    0    0  501 -0.00000000000E+00 -0.00000000000E+00 -0.12624171673E+03  0.12624171673E+03  0.00000000000E+00 0.  1.
          6    1    1    2  502    0 -0.27502719144E+02 -0.22267090067E+03  0.10061227089E+04  0.10450864246E+04  0.17200000000E+03 0. -1.
         -6    1    1    2    0  501  0.27502719144E+02  0.22267090067E+03  0.80395525220E+02  0.29391524296E+03  0.17200000000E+03 0.  1.
</event>
<event>
 4    1  0.6365520E-002  0.1858797E+03  0.7818608E-02  0.1162231E+00
          2   -1    0    0  502    0  0.00000000000E+00  0.00000000000E+00  0.19994474693E+03  0.19994474693E+03  0.00000000000E+00 0. -1.
         -2   -1    0    0    0  501 -0.00000000000E+00 -0.00000000000E+00 -0.65942567517E+03  0.65942567517E+03  0.00000000000E+00 0.  1.
          6    1    1    2  502    0  0.40786630182E+02  0.57477867986E+02  0.13937581495E+03  0.23232923256E+03  0.17200000000E+03 0. -1.
         -6    1    1    2    0  501 -0.40786630182E+02 -0.57477867986E+02 -0.59885674319E+03  0.62704118954E+03  0.17200000000E+03 0.  1.
</event>
<event>
 4    1  0.6365520E-002  0.3626095E+03  0.7818608E-02  0.1057555E+00
         -1   -1    0    0    0  501 -0.00000000000E+00  0.00000000000E+00  0.86039886166E+02  0.86039886166E+02  0.00000000000E+00 0.  1.
          1   -1    0    0  502    0  0.00000000000E+00 -0.00000000000E+00 -0.17764717531E+04  0.17764717531E+04  0.00000000000E+00 0. -1.
          6    1    1    2  502    0  0.18211549683E+03  0.26217468107E+03 -0.49707190101E+03  0.61527724837E+03  0.17200000000E+03 0. -1.
         -6    1    1    2    0  501 -0.18211549683E+03 -0.26217468107E+03 -0.11933599659E+04  0.12472343909E+04  0.17200000000E+03 0.  1.
</event>
<event>
 4    1  0.6365520E-002  0.2879301E+03  0.7818608E-02  0.1091435E+00
          2   -1    0    0  502    0  0.00000000000E+00  0.00000000000E+00  0.70827357003E+03  0.70827357003E+03  0.00000000000E+00 0. -1.
         -2   -1    0    0    0  501 -0.00000000000E+00 -0.00000000000E+00 -0.16263160131E+03  0.16263160131E+03  0.00000000000E+00 0.  1.
          6    1    1    2  502    0  0.13618920746E+03 -0.18647309549E+03  0.50335298266E+03  0.57988614462E+03  0.17200000000E+03 0. -1.
         -6    1    1    2    0  501 -0.13618920746E+03  0.18647309549E+03  0.42288986055E+02  0.29101902672E+03  0.17200000000E+03 0.  1.
</event>
<event>
 4    1  0.6365520E-002  0.2325959E+03  0.7818608E-02  0.1124826E+00
         -2   -1    0    0    0  501 -0.00000000000E+00  0.00000000000E+00  0.12340847503E+03  0.12340847503E+03  0.00000000000E+00 0.  1.
          2   -1    0    0  502    0  0.00000000000E+00 -0.00000000000E+00 -0.52840097536E+03  0.52840097536E+03  0.00000000000E+00 0. -1.
          6    1    1    2  502    0  0.15528277476E+03  0.20102220951E+02 -0.33700809635E+03  0.40948174127E+03  0.17200000000E+03 0. -1.
         -6    1    1    2    0  501 -0.15528277476E+03 -0.20102220951E+02 -0.67984403981E+02  0.24232770912E+03  0.17200000000E+03 0.  1.
</event>
<event>
 4    1  0.6365520E-002  0.1980723E+03  0.7818608E-02  0.1151376E+00
         -2   -1    0    0    0  501 -0.00000000000E+00  0.00000000000E+00  0.96021973248E+02  0.96021973248E+02  0.00000000000E+00 0.  1.
          2   -1    0    0  502    0  0.00000000000E+00 -0.00000000000E+00 -0.82075045554E+03  0.82075045554E+03  0.00000000000E+00 0. -1.
          6    1    1    2  502    0  0.96750612215E+02 -0.16969725662E+02 -0.37528027266E+02  0.20159614427E+03  0.17200000000E+03 0.  1.
         -6    1    1    2    0  501 -0.96750612215E+02  0.16969725662E+02 -0.68720045503E+03  0.71517628452E+03  0.17200000000E+03 0. -1.
</event>
<event>
 4    1  0.6365520E-002  0.8410808E+03  0.7818608E-02  0.9502387E-01
         -2   -1    0    0    0  501 -0.00000000000E+00  0.00000000000E+00  0.64773158238E+03  0.64773158238E+03  0.00000000000E+00 0.  1.
          2   -1    0    0  502    0  0.00000000000E+00 -0.00000000000E+00 -0.11915611004E+04  0.11915611004E+04  0.00000000000E+00 0. -1.
          6    1    1    2  502    0 -0.66811914064E+03  0.48109227472E+03 -0.53755296104E+03  0.99818843352E+03  0.17200000000E+03 0. -1.
         -6    1    1    2    0  501  0.66811914064E+03 -0.48109227472E+03 -0.62765569324E+01  0.84110424922E+03  0.17200000000E+03 0.  1.
</event>
<event>
 4    1  0.6365520E-002  0.1762954E+03  0.7818608E-02  0.1171437E+00
         -1   -1    0    0    0  501 -0.00000000000E+00  0.00000000000E+00  0.81489329623E+02  0.81489329623E+02  0.00000000000E+00 0.  1.
          1   -1    0    0  502    0  0.00000000000E+00 -0.00000000000E+00 -0.83920561504E+03  0.83920561504E+03  0.00000000000E+00 0. -1.
          6    1    1    2  502    0 -0.61374854196E+01  0.38189162550E+02 -0.38848028827E+02  0.18052492960E+03  0.17200000000E+03 0.  1.
         -6    1    1    2    0  501  0.61374854196E+01 -0.38189162550E+02 -0.71886825659E+03  0.74017001506E+03  0.17200000000E+03 0. -1.
</event>
<event>
 4    1  0.6365520E-002  0.2986251E+03  0.7818608E-02  0.1085930E+00
         -1   -1    0    0    0  501 -0.00000000000E+00  0.00000000000E+00  0.18483250131E+03  0.18483250131E+03  0.00000000000E+00 0.  1.
          1   -1    0    0  502    0  0.00000000000E+00 -0.00000000000E+00 -0.48271260752E+03  0.48271260752E+03  0.00000000000E+00 0. -1.
          6    1    1    2  502    0  0.24231254191E+02  0.24291106286E+03 -0.14152450337E+03  0.33046349752E+03  0.17200000000E+03 0. -1.
         -6    1    1    2    0  501 -0.24231254191E+02 -0.24291106286E+03 -0.15635560285E+03  0.33708161131E+03  0.17200000000E+03 0.  1.
</event>
<event>
 4    1  0.6365520E-002  0.2921791E+03  0.7818608E-02  0.1089217E+00
         -2   -1    0    0    0  501 -0.00000000000E+00  0.00000000000E+00  0.28841833302E+03  0.28841833302E+03  0.00000000000E+00 0.  1.
          2   -1    0    0  502    0  0.00000000000E+00 -0.00000000000E+00 -0.49723994158E+03  0.49723994158E+03  0.00000000000E+00 0. -1.
          6    1    1    2  502    0  0.16904505580E+03 -0.16494970173E+03 -0.35432430690E+03  0.45925412295E+03  0.17200000000E+03 0. -1.
         -6    1    1    2    0  501 -0.16904505580E+03  0.16494970173E+03  0.14550269833E+03  0.32640415165E+03  0.17200000000E+03 0.  1.
</event>
<event>
 4    1  0.6365520E-002  0.2127303E+03  0.7818608E-02  0.1139422E+00
         -1   -1    0    0    0  501 -0.00000000000E+00  0.00000000000E+00  0.71425888876E+02  0.71425888876E+02  0.00000000000E+00 0.  1.
          1   -1    0    0  502    0  0.00000000000E+00 -0.00000000000E+00 -0.11908348203E+04  0.11908348203E+04  0.00000000000E+00 0. -1.
          6    1    1    2  502    0 -0.12290809811E+03  0.23743737882E+02 -0.99144159453E+03  0.10140071997E+04  0.17200000000E+03 0. -1.
         -6    1    1    2    0  501  0.12290809811E+03 -0.23743737882E+02 -0.12796733694E+03  0.24825350953E+03  0.17200000000E+03 0.  1.
</event>
<event>
 4    1  0.6365520E-002  0.1754048E+03  0.7818608E-02  0.1172326E+00
          2   -1    0    0  502    0  0.00000000000E+00  0.00000000000E+00  0.99382269994E+03  0.99382269994E+03  0.00000000000E+00 0. -1.
         -2   -1    0    0    0  501 -0.00000000000E+00 -0.00000000000E+00 -0.35238637340E+02  0.35238637340E+02  0.00000000000E+00 0.  1.
          6    1    1    2  502    0 -0.30027946311E+02 -0.16768130054E+02  0.65862147961E+03  0.68157838959E+03  0.17200000000E+03 0. -1.
         -6    1    1    2    0  501  0.30027946311E+02  0.16768130054E+02  0.29996258298E+03  0.34748294769E+03  0.17200000000E+03 0.  1.
</event>
<event>
 4    1  0.6365520E-002  0.2005986E+03  0.7818608E-02  0.1149235E+00
          2   -1    0    0  502    0  0.00000000000E+00  0.00000000000E+00  0.29339661165E+04  0.29339661165E+04  0.00000000000E+00 0. -1.
         -2   -1    0    0    0  501 -0.00000000000E+00 -0.00000000000E+00 -0.15902648155E+02  0.15902648155E+02  0.00000000000E+00 0.  1.
          6    1    1    2  502    0  0.38734586697E+02 -0.95683912112E+02  0.20060628494E+04  0.20160674431E+04  0.17200000000E+03 0. -1.
         -6    1    1    2    0  501 -0.38734586697E+02  0.95683912112E+02  0.91200061887E+03  0.93380132151E+03  0.17200000000E+03 0.  1.
</event>
<event>
 4    1  0.6365520E-002  0.1741212E+03  0.7818608E-02  0.1173617E+00
          2   -1    0    0  502    0  0.00000000000E+00  0.00000000000E+00  0.12962811356E+04  0.12962811356E+04  0.00000000000E+00 0. -1.
         -2   -1    0    0    0  501 -0.00000000000E+00 -0.00000000000E+00 -0.36953607916E+02  0.36953607916E+02  0.00000000000E+00 0.  1.
          6    1    1    2  502    0 -0.18999384356E+02 -0.19318472455E+02  0.10335494748E+04  0.10481138759E+04  0.17200000000E+03 0. -1.
         -6    1    1    2    0  501  0.18999384356E+02  0.19318472455E+02  0.22577805284E+03  0.28512086758E+03  0.17200000000E+03 0.  1.
</event>
<event>
 4    1  0.6365520E-002  0.1827944E+03  0.7818608E-02  0.1165126E+00
          1   -1    0    0  502    0  0.00000000000E+00  0.00000000000E+00  0.17252437263E+04  0.17252437263E+04  0.00000000000E+00 0. -1.
         -1   -1    0    0    0  501 -0.00000000000E+00 -0.00000000000E+00 -0.24667455499E+02  0.24667455499E+02  0.00000000000E+00 0.  1.
          6    1    1    2  502    0  0.47567615491E+02  0.39586904791E+02  0.44472679986E+03  0.48082816846E+03  0.17200000000E+03 0.  1.
         -6    1    1    2    0  501 -0.47567615491E+02 -0.39586904791E+02  0.12558494709E+04  0.12690830133E+04  0.17200000000E+03 0. -1.
</event>
<event>
 4    1  0.6365520E-002  0.3908965E+03  0.7818608E-02  0.1046978E+00
         -2   -1    0    0    0  501 -0.00000000000E+00  0.00000000000E+00  0.35470863121E+03  0.35470863121E+03  0.00000000000E+00 0.  1.
          2   -1    0    0  502    0  0.00000000000E+00 -0.00000000000E+00 -0.64369357105E+03  0.64369357105E+03  0.00000000000E+00 0. -1.
          6    1    1    2  502    0  0.28443395526E+03  0.20570224192E+03 -0.43159786258E+03  0.58230301581E+03  0.17200000000E+03 0. -1.
         -6    1    1    2    0  501 -0.28443395526E+03 -0.20570224192E+03  0.14261292273E+03  0.41609918645E+03  0.17200000000E+03 0.  1.
</event>
<event>
 4    1  0.6365520E-002  0.3195136E+03  0.7818608E-02  0.1075873E+00
          2   -1    0    0  502    0  0.00000000000E+00  0.00000000000E+00  0.11355889237E+04  0.11355889237E+04  0.00000000000E+00 0. -1.
         -2   -1    0    0    0  501 -0.00000000000E+00 -0.00000000000E+00 -0.18942363774E+03  0.18942363774E+03  0.00000000000E+00 0.  1.
          6    1    1    2  502    0  0.26310296855E+03  0.57286876188E+02  0.95329902144E+03  0.10054193068E+04  0.17200000000E+03 0. -1.
         -6    1    1    2    0  501 -0.26310296855E+03 -0.57286876188E+02 -0.71337354321E+01  0.31959325466E+03  0.17200000000E+03 0.  1.
</event>
<event>
 4    1  0.6365520E-002  0.1823080E+03  0.7818608E-02  0.1165588E+00
         -3   -1    0    0    0  501 -0.00000000000E+00  0.00000000000E+00  0.59058498963E+03  0.59058498963E+03  0.00000000000E+00 0.  1.
          3   -1    0    0  502    0  0.00000000000E+00 -0.00000000000E+00 -0.65300155361E+02  0.65300155361E+02  0.00000000000E+00 0. -1.
          6    1    1    2  502    0  0.90402778618E+00 -0.60426605848E+02  0.14073604454E+03  0.23031028243E+03  0.17200000000E+03 0. -1.
         -6    1    1    2    0  501 -0.90402778618E+00  0.60426605848E+02  0.38454878973E+03  0.42557486256E+03  0.17200000000E+03 0.  1.
</event>
<event>
 4    1  0.6365520E-002  0.2485151E+03  0.7818608E-02  0.1114247E+00
          2   -1    0    0  502    0  0.00000000000E+00  0.00000000000E+00  0.15199061607E+04  0.15199061607E+04  0.00000000000E+00 0. -1.
         -2   -1    0    0    0  501 -0.00000000000E+00 -0.00000000000E+00 -0.13185526978E+03  0.13185526978E+03  0.00000000000E+00 0.  1.
          6    1    1    2  502    0  0.26356380782E+02  0.17742917071E+03  0.13809622550E+04  0.14031452238E+04  0.17200000000E+03 0. -1.
         -6    1    1    2    0  501 -0.26356380782E+02 -0.17742917071E+03  0.70886358660E+01  0.24861620660E+03  0.17200000000E+03 0.  1.
</event>
<event>
 4    1  0.6365520E-002  0.1871136E+03  0.7818608E-02  0.1161091E+00
          1   -1    0    0  502    0  0.00000000000E+00  0.00000000000E+00  0.14167108823E+04  0.14167108823E+04  0.00000000000E+00 0. -1.
         -1   -1    0    0    0  501 -0.00000000000E+00 -0.00000000000E+00 -0.27644469817E+02  0.27644469817E+02  0.00000000000E+00 0.  1.
          6    1    1    2  502    0  0.73582551178E+02 -0.36229126992E+01  0.92969393328E+03  0.94833661055E+03  0.17200000000E+03 0. -1.
         -6    1    1    2    0  501 -0.73582551178E+02  0.36229126992E+01  0.45937247919E+03  0.49601874155E+03  0.17200000000E+03 0.  1.
</event>
<event>
 4    1  0.6365520E-002  0.2988053E+03  0.7818608E-02  0.1085839E+00
         -2   -1    0    0    0  501 -0.00000000000E+00  0.00000000000E+00  0.47314061737E+02  0.47314061737E+02  0.00000000000E+00 0.  1.
          2   -1    0    0  502    0  0.00000000000E+00 -0.00000000000E+00 -0.23340037983E+04  0.23340037983E+04  0.00000000000E+00 0. -1.
          6    1    1    2  502    0  0.17455164969E+03  0.17097464337E+03 -0.16643736071E+04  0.16909831789E+04  0.17200000000E+03 0. -1.
         -6    1    1    2    0  501 -0.17455164969E+03 -0.17097464337E+03 -0.62231612946E+03  0.69033468120E+03  0.17200000000E+03 0.  1.
</event>
<event>
 4    1  0.6365520E-002  0.2499082E+03  0.7818608E-02  0.1113363E+00
          1   -1    0    0  502    0  0.00000000000E+00  0.00000000000E+00  0.16482064922E+04  0.16482064922E+04  0.00000000000E+00 0. -1.
         -1   -1    0    0    0  501 -0.00000000000E+00 -0.00000000000E+00 -0.72160449588E+02  0.72160449588E+02  0.00000000000E+00 0.  1.
          6    1    1    2  502    0  0.14212410216E+03 -0.11256483977E+03  0.13807950388E+04  0.14032280794E+04  0.17200000000E+03 0. -1.
         -6    1    1    2    0  501 -0.14212410216E+03  0.11256483977E+03  0.19525100383E+03  0.31713886243E+03  0.17200000000E+03 0.  1.
</event>
<event>
 4    1  0.6365520E-002  0.2534313E+03  0.7818608E-02  0.1111155E+00
         -2   -1    0    0    0  501 -0.00000000000E+00  0.00000000000E+00  0.67994851615E+02  0.67994851615E+02  0.00000000000E+00 0.  1.
          2   -1    0    0  502    0  0.00000000000E+00 -0.00000000000E+00 -0.96942846004E+03  0.96942846004E+03  0.00000000000E+00 0. -1.
          6    1    1    2  502    0 -0.17692468542E+03  0.57802130196E+02 -0.53374165918E+03  0.59085327224E+03  0.17200000000E+03 0. -1.
         -6    1    1    2    0  501  0.17692468542E+03 -0.57802130196E+02 -0.36769194924E+03  0.44657003942E+03  0.17200000000E+03 0.  1.
</event>
<event>
 4    1  0.6365520E-002  0.2170546E+03  0.7818608E-02  0.1136098E+00
          2   -1    0    0  502    0  0.00000000000E+00  0.00000000000E+00  0.13189872467E+04  0.13189872467E+04  0.00000000000E+00 0. -1.
         -2   -1    0    0    0  501 -0.00000000000E+00 -0.00000000000E+00 -0.35977722574E+02  0.35977722574E+02  0.00000000000E+00 0.  1.
          6    1    1    2  502    0 -0.59552037777E+02  0.11824656453E+03  0.69897356340E+03  0.73189940399E+03  0.17200000000E+03 0.  1.
         -6    1    1    2    0  501  0.59552037777E+02 -0.11824656453E+03  0.58403596074E+03  0.62306556530E+03  0.17200000000E+03 0. -1.
</event>
<event>
 4    1  0.6365520E-002  0.2134222E+03  0.7818608E-02  0.1138884E+00
          1   -1    0    0  502    0  0.00000000000E+00  0.00000000000E+00  0.37116498604E+04  0.37116498604E+04  0.00000000000E+00 0. -1.
         -1   -1    0    0    0  501 -0.00000000000E+00 -0.00000000000E+00 -0.73151405854E+02  0.73151405854E+02  0.00000000000E+00 0.  1.
          6    1    1    2  502    0 -0.95862395520E+02 -0.82312935950E+02  0.35456327570E+04  0.35520502059E+04  0.17200000000E+03 0. -1.
         -6    1    1    2    0  501  0.95862395520E+02  0.82312935950E+02  0.92865697626E+02  0.23275106035E+03  0.17200000000E+03 0.  1.
</event>
<event>
 4    1  0.6365520E-002  0.3349346E+03  0.7818608E-02  0.1068974E+00
         -2   -1    0    0    0  501 -0.00000000000E+00  0.00000000000E+00  0.73682981804E+03  0.73682981804E+03  0.00000000000E+00 0.  1.
          2   -1    0    0  502    0  0.00000000000E+00 -0.00000000000E+00 -0.18761822014E+03  0.18761822014E+03  0.00000000000E+00 0. -1.
          6    1    1    2  502    0 -0.16734324532E+02 -0.28690966490E+03  0.73913291975E+02  0.34299324798E+03  0.17200000000E+03 0. -1.
         -6    1    1    2    0  501  0.16734324532E+02  0.28690966490E+03  0.47529830593E+03  0.58145479020E+03  0.17200000000E+03 0.  1.
</event>
<event>
 4    1  0.6365520E-002  0.2829220E+03  0.7818608E-02  0.1094104E+00
         -2   -1    0    0    0  501 -0.00000000000E+00  0.00000000000E+00  0.12586720355E+03  0.12586720355E+03  0.00000000000E+00 0.  1.
          2   -1    0    0  502    0  0.00000000000E+00 -0.00000000000E+00 -0.74502108226E+03  0.74502108226E+03  0.00000000000E+00 0. -1.
          6    1    1    2  502    0 -0.64075863695E+02 -0.21530246207E+03 -0.14296388752E+03  0.31699138729E+03  0.17200000000E+03 0. -1.
         -6    1    1    2    0  501  0.64075863695E+02  0.21530246207E+03 -0.47618999119E+03  0.55389689852E+03  0.17200000000E+03 0. -1.
</event>
<event>
 4    1  0.6365520E-002  0.2702163E+03  0.7818608E-02  0.1101156E+00
          1   -1    0    0  502    0  0.00000000000E+00  0.00000000000E+00  0.10591480483E+04  0.10591480483E+04  0.00000000000E+00 0. -1.
         -1   -1    0    0    0  501 -0.00000000000E+00 -0.00000000000E+00 -0.24169002017E+03  0.24169002017E+03  0.00000000000E+00 0.  1.
          6    1    1    2  502    0 -0.13476740503E+03  0.15896722331E+03  0.95861661545E+03  0.99597321598E+03  0.17200000000E+03 0. -1.
         -6    1    1    2    0  501  0.13476740503E+03 -0.15896722331E+03 -0.14115858727E+03  0.30486485253E+03  0.17200000000E+03 0.  1.
</event>
<event>
 4    1  0.6365520E-002  0.3126999E+03  0.7818608E-02  0.1079059E+00
         -2   -1    0    0    0  501 -0.00000000000E+00  0.00000000000E+00  0.59330801181E+02  0.59330801181E+02  0.00000000000E+00 0.  1.
          2   -1    0    0  502    0  0.00000000000E+00 -0.00000000000E+00 -0.16565114487E+04  0.16565114487E+04  0.00000000000E+00 0. -1.
          6    1    1    2  502    0  0.19663822489E+03 -0.17184483575E+03 -0.85983818190E+03  0.91493329708E+03  0.17200000000E+03 0. -1.
         -6    1    1    2    0  501 -0.19663822489E+03  0.17184483575E+03 -0.73734246562E+03  0.80090895280E+03  0.17200000000E+03 0.  1.
</event>
<event>
 4    1  0.6365520E-002  0.2948577E+03  0.7818608E-02  0.1087840E+00
          1   -1    0    0  502    0  0.00000000000E+00  0.00000000000E+00  0.62937314382E+03  0.62937314382E+03  0.00000000000E+00 0. -1.
         -1   -1    0    0    0  501 -0.00000000000E+00 -0.00000000000E+00 -0.13840631840E+03  0.13840631840E+03  0.00000000000E+00 0.  1.
          6    1    1    2  502    0  0.21354395521E+03  0.10842516023E+03  0.22861531117E+03  0.37310319843E+03  0.17200000000E+03 0.  1.
         -6    1    1    2    0  501 -0.21354395521E+03 -0.10842516023E+03  0.26235151424E+03  0.39467626379E+03  0.17200000000E+03 0. -1.
</event>
<event>
 4    1  0.6365520E-002  0.1734307E+03  0.7818608E-02  0.1174317E+00
          2   -1    0    0  502    0  0.00000000000E+00  0.00000000000E+00  0.37060976925E+03  0.37060976925E+03  0.00000000000E+00 0. -1.
         -2   -1    0    0    0  501 -0.00000000000E+00 -0.00000000000E+00 -0.96317238282E+02  0.96317238282E+02  0.00000000000E+00 0.  1.
          6    1    1    2  502    0  0.31208267775E+01 -0.22010820954E+02  0.22976424739E+03  0.28787119546E+03  0.17200000000E+03 0. -1.
         -6    1    1    2    0  501 -0.31208267775E+01  0.22010820954E+02  0.44528283586E+02  0.17905581208E+03  0.17200000000E+03 0.  1.
</event>
<event>
 4    1  0.6365520E-002  0.2086188E+03  0.7818608E-02  0.1142664E+00
         -2   -1    0    0    0  501 -0.00000000000E+00  0.00000000000E+00  0.65137499998E+02  0.65137499998E+02  0.00000000000E+00 0.  1.
          2   -1    0    0  502    0  0.00000000000E+00 -0.00000000000E+00 -0.68092592967E+03  0.68092592967E+03  0.00000000000E+00 0. -1.
          6    1    1    2  502    0  0.59192697896E+02 -0.10214699722E+03 -0.35898579154E+03  0.41520185820E+03  0.17200000000E+03 0.  1.
         -6    1    1    2    0  501 -0.59192697896E+02  0.10214699722E+03 -0.25680263814E+03  0.33086157148E+03  0.17200000000E+03 0.  1.
</event>
<event>
 4    1  0.6365520E-002  0.3218048E+03  0.7818608E-02  0.1074822E+00
         -1   -1    0    0    0  501 -0.00000000000E+00  0.00000000000E+00  0.19878825601E+03  0.19878825601E+03  0.00000000000E+00 0.  1.
          1   -1    0    0  502    0  0.00000000000E+00 -0.00000000000E+00 -0.14208192815E+04  0.14208192815E+04  0.00000000000E+00 0. -1.
          6    1    1    2  502    0 -0.10853881759E+03 -0.24938649834E+03 -0.12554824202E+04  0.12960688284E+04  0.17200000000E+03 0. -1.
         -6    1    1    2    0  501  0.10853881759E+03  0.24938649834E+03  0.33451394729E+02  0.32353870910E+03  0.17200000000E+03 0.  1.
</event>
<event>
 4    1  0.6365520E-002  0.1774314E+03  0.7818608E-02  0.1170312E+00
         -3   -1    0    0    0  501 -0.00000000000E+00  0.00000000000E+00  0.20284763484E+02  0.20284763484E+02  0.00000000000E+00 0.  1.
          3   -1    0    0  502    0  0.00000000000E+00 -0.00000000000E+00 -0.25200635972E+04  0.25200635972E+04  0.00000000000E+00 0. -1.
          6    1    1    2  502    0 -0.34771672487E+02 -0.26245651591E+02 -0.20371346177E+04  0.20448470246E+04  0.17200000000E+03 0. -1.
         -6    1    1    2    0  501  0.34771672487E+02  0.26245651591E+02 -0.46264421601E+03  0.49550133607E+03  0.17200000000E+03 0.  1.
</event>
<event>
 4    1  0.6365520E-002  0.2069995E+03  0.7818608E-02  0.1143964E+00
         -2   -1    0    0    0  501 -0.00000000000E+00  0.00000000000E+00  0.47154218937E+02  0.47154218937E+02  0.00000000000E+00 0.  1.
          2   -1    0    0  502    0  0.00000000000E+00 -0.00000000000E+00 -0.94985614339E+03  0.94985614339E+03  0.00000000000E+00 0. -1.
          6    1    1    2  502    0 -0.11514503799E+03  0.25338550872E+01 -0.55512406087E+03  0.59246225463E+03  0.17200000000E+03 0. -1.
         -6    1    1    2    0  501  0.11514503799E+03 -0.25338550872E+01 -0.34757786357E+03  0.40454810770E+03  0.17200000000E+03 0.  1.
</event>
<event>
 4    1  0.6365520E-002  0.2928748E+03  0.7818608E-02  0.1088858E+00
         -2   -1    0    0    0  501 -0.00000000000E+00  0.00000000000E+00  0.16592107669E+03  0.16592107669E+03  0.00000000000E+00 0.  1.
          2   -1    0    0  502    0  0.00000000000E+00 -0.00000000000E+00 -0.55986820189E+03  0.55986820189E+03  0.00000000000E+00 0. -1.
          6    1    1    2  502    0 -0.20877902457E+03 -0.11226281475E+03 -0.96517662440E+02  0.30836874005E+03  0.17200000000E+03 0. -1.
         -6    1    1    2    0  501  0.20877902457E+03  0.11226281475E+03 -0.29742946276E+03  0.41742053853E+03  0.17200000000E+03 0.  1.
</event>
<event>
 4    1  0.6365520E-002  0.2769993E+03  0.7818608E-02  0.1097339E+00
          2   -1    0    0  502    0  0.00000000000E+00  0.00000000000E+00  0.62879591145E+03  0.62879591145E+03  0.00000000000E+00 0. -1.
         -2   -1    0    0    0  501 -0.00000000000E+00 -0.00000000000E+00 -0.28126514388E+03  0.28126514388E+03  0.00000000000E+00 0.  1.
          6    1    1    2  502    0  0.20532880502E+03 -0.70602426616E+02  0.51614609647E+03  0.58577761456E+03  0.17200000000E+03 0. -1.
         -6    1    1    2    0  501 -0.20532880502E+03  0.70602426616E+02 -0.16861532890E+03  0.32428344077E+03  0.17200000000E+03 0.  1.
</event>
<event>
 4    1  0.6365520E-002  0.2641936E+03  0.7818608E-02  0.1104650E+00
         -1   -1    0    0    0  501 -0.00000000000E+00  0.00000000000E+00  0.52072437505E+02  0.52072437505E+02  0.00000000000E+00 0.  1.
          1   -1    0    0  502    0  0.00000000000E+00 -0.00000000000E+00 -0.13404205756E+04  0.13404205756E+04  0.00000000000E+00 0. -1.
          6    1    1    2  502    0  0.17715594938E+03 -0.93968203754E+02 -0.64639924159E+03  0.69830525792E+03  0.17200000000E+03 0. -1.
         -6    1    1    2    0  501 -0.17715594938E+03  0.93968203754E+02 -0.64194889649E+03  0.69418775516E+03  0.17200000000E+03 0.  1.
</event>
<event>
 4    1  0.6365520E-002  0.4787602E+03  0.7818608E-02  0.1019476E+00
          1   -1    0    0  502    0  0.00000000000E+00  0.00000000000E+00  0.48775595494E+03  0.48775595494E+03  0.00000000000E+00 0. -1.
         -1   -1    0    0    0  501 -0.00000000000E+00 -0.00000000000E+00 -0.53588761260E+03  0.53588761260E+03  0.00000000000E+00 0.  1.
          6    1    1    2  502    0 -0.40091367999E+03  0.19721952783E+03  0.15549568439E+03  0.50337881245E+03  0.17200000000E+03 0. -1.
         -6    1    1    2    0  501  0.40091367999E+03 -0.19721952783E+03 -0.20362734205E+03  0.52026475509E+03  0.17200000000E+03 0.  1.
</event>
<event>
 4    1  0.6365520E-002  0.1910634E+03  0.7818608E-02  0.1157506E+00
         -1   -1    0    0    0  501 -0.00000000000E+00  0.00000000000E+00  0.85906424828E+02  0.85906424828E+02  0.00000000000E+00 0.  1.
          1   -1    0    0  502    0  0.00000000000E+00 -0.00000000000E+00 -0.85963919983E+03  0.85963919983E+03  0.00000000000E+00 0. -1.
          6    1    1    2  502    0 -0.51239117073E+02 -0.65542216731E+02 -0.72305880804E+03  0.74787650663E+03  0.17200000000E+03 0. -1.
         -6    1    1    2    0  501  0.51239117073E+02  0.65542216731E+02 -0.50673966963E+02  0.19766911802E+03  0.17200000000E+03 0.  1.
</event>
<event>
 4    1  0.6365520E-002  0.2108469E+03  0.7818608E-02  0.1140897E+00
          2   -1    0    0  502    0  0.00000000000E+00  0.00000000000E+00  0.19071016510E+04  0.19071016510E+04  0.00000000000E+00 0. -1.
         -2   -1    0    0    0  501 -0.00000000000E+00 -0.00000000000E+00 -0.26246091595E+02  0.26246091595E+02  0.00000000000E+00 0.  1.
          6    1    1    2  502    0 -0.84457835003E+02  0.87973240581E+02  0.12636934890E+04  0.12811626170E+04  0.17200000000E+03 0. -1.
         -6    1    1    2    0  501  0.84457835003E+02 -0.87973240581E+02  0.61716207034E+03  0.65218512558E+03  0.17200000000E+03 0.  1.
</event>
<event>
 4    1  0.6365520E-002  0.2886297E+03  0.7818608E-02  0.1091067E+00
         -2   -1    0    0    0  501 -0.00000000000E+00  0.00000000000E+00  0.58447276256E+02  0.58447276256E+02  0.00000000000E+00 0.  1.
          2   -1    0    0  502    0  0.00000000000E+00 -0.00000000000E+00 -0.14380861428E+04  0.14380861428E+04  0.00000000000E+00 0. -1.
          6    1    1    2  502    0  0.11671889564E+03  0.20024930318E+03 -0.76027235979E+03  0.81321654256E+03  0.17200000000E+03 0. -1.
         -6    1    1    2    0  501 -0.11671889564E+03 -0.20024930318E+03 -0.61936650677E+03  0.68331687652E+03  0.17200000000E+03 0. -1.
</event>
<event>
 4    1  0.6365520E-002  0.3054907E+03  0.7818608E-02  0.1082528E+00
          1   -1    0    0  502    0  0.00000000000E+00  0.00000000000E+00  0.62268197812E+03  0.62268197812E+03  0.00000000000E+00 0. -1.
         -1   -1    0    0    0  501 -0.00000000000E+00 -0.00000000000E+00 -0.15239153148E+03  0.15239153148E+03  0.00000000000E+00 0.  1.
          6    1    1    2  502    0  0.25098901547E+03  0.27296576546E+02  0.28494369275E+03  0.41775291384E+03  0.17200000000E+03 0. -1.
         -6    1    1    2    0  501 -0.25098901547E+03 -0.27296576546E+02  0.18534675389E+03  0.35732059576E+03  0.17200000000E+03 0.  1.
</event>
<event>
 4    1  0.6365520E-002  0.1773637E+03  0.7818608E-02  0.1170379E+00
          2   -1    0    0  502    0  0.00000000000E+00  0.00000000000E+00  0.92694065064E+03  0.92694065064E+03  0.00000000000E+00 0. -1.
         -2   -1    0    0    0  501 -0.00000000000E+00 -0.00000000000E+00 -0.36477011001E+02  0.36477011001E+02  0.00000000000E+00 0.  1.
          6    1    1    2  502    0 -0.23956601651E+02 -0.36054879288E+02  0.57233786340E+03  0.59918987222E+03  0.17200000000E+03 0. -1.
         -6    1    1    2    0  501  0.23956601651E+02  0.36054879288E+02  0.31812577623E+03  0.36422778942E+03  0.17200000000E+03 0.  1.
</event>
<event>
 4    1  0.6365520E-002  0.3392754E+03  0.7818608E-02  0.1067105E+00
         -1   -1    0    0    0  501 -0.00000000000E+00  0.00000000000E+00  0.19044322561E+03  0.19044322561E+03  0.00000000000E+00 0.  1.
          1   -1    0    0  502    0  0.00000000000E+00 -0.00000000000E+00 -0.83750515476E+03  0.83750515476E+03  0.00000000000E+00 0. -1.
          6    1    1    2  502    0  0.22705406030E+03  0.18431016963E+03 -0.59467773180E+03  0.68465275113E+03  0.17200000000E+03 0. -1.
         -6    1    1    2    0  501 -0.22705406030E+03 -0.18431016963E+03 -0.52384197340E+02  0.34329562924E+03  0.17200000000E+03 0.  1.
</event>
<event>
 4    1  0.6365520E-002  0.2332551E+03  0.7818608E-02  0.1124369E+00
         -2   -1    0    0    0  501 -0.00000000000E+00  0.00000000000E+00  0.51171383999E+02  0.51171383999E+02  0.00000000000E+00 0.  1.
          2   -1    0    0  502    0  0.00000000000E+00 -0.00000000000E+00 -0.10754083094E+04  0.10754083094E+04  0.00000000000E+00 0. -1.
          6    1    1    2  502    0 -0.98881092518E+02 -0.12266413301E+03 -0.57201293314E+03  0.61774327650E+03  0.17200000000E+03 0.  1.
         -6    1    1    2    0  501  0.98881092518E+02  0.12266413301E+03 -0.45222399226E+03  0.50883641690E+03  0.17200000000E+03 0.  1.
</event>
<event>
 4    1  0.6365520E-002  0.1906055E+03  0.7818608E-02  0.1157916E+00
         -2   -1    0    0    0  501 -0.00000000000E+00  0.00000000000E+00  0.38663099833E+02  0.38663099833E+02  0.00000000000E+00 0.  1.
          2   -1    0    0  502    0  0.00000000000E+00 -0.00000000000E+00 -0.10186722452E+04  0.10186722452E+04  0.00000000000E+00 0. -1.
          6    1    1    2  502    0  0.25127035689E+02  0.78198983765E+02 -0.63723337287E+03  0.66512917579E+03  0.17200000000E+03 0. -1.
         -6    1    1    2    0  501 -0.25127035689E+02 -0.78198983765E+02 -0.34277577251E+03  0.39220616926E+03  0.17200000000E+03 0.  1.
</event>
<event>
 4    1  0.6365520E-002  0.2151936E+03  0.7818608E-02  0.1137518E+00
          1   -1    0    0  502    0  0.00000000000E+00  0.00000000000E+00  0.97004581557E+02  0.97004581557E+02  0.00000000000E+00 0. -1.
         -1   -1    0    0    0  501 -0.00000000000E+00 -0.00000000000E+00 -0.48272239188E+03  0.48272239188E+03  0.00000000000E+00 0.  1.
          6    1    1    2  502    0  0.69625841511E+02 -0.10897943912E+03 -0.22334605065E+03  0.31014792325E+03  0.17200000000E+03 0.  1.
         -6    1    1    2    0  501 -0.69625841511E+02  0.10897943912E+03 -0.16237175967E+03  0.26957905018E+03  0.17200000000E+03 0. -1.
</event>
<event>
 4    1  0.6365520E-002  0.2048996E+03  0.7818608E-02  0.1145670E+00
         -2   -1    0    0    0  501 -0.00000000000E+00  0.00000000000E+00  0.46370149569E+02  0.46370149569E+02  0.00000000000E+00 0.  1.
          2   -1    0    0  502    0  0.00000000000E+00 -0.00000000000E+00 -0.97050321094E+03  0.97050321094E+03  0.00000000000E+00 0. -1.
          6    1    1    2  502    0  0.99622302940E+02  0.49751631656E+02 -0.59374609875E+03  0.62810688412E+03  0.17200000000E+03 0. -1.
         -6    1    1    2    0  501 -0.99622302940E+02 -0.49751631656E+02 -0.33038696262E+03  0.38876647639E+03  0.17200000000E+03 0.  1.
</event>
<event>
 4    1  0.6365520E-002  0.3115171E+03  0.7818608E-02  0.1079621E+00
          2   -1    0    0  502    0  0.00000000000E+00  0.00000000000E+00  0.54656780930E+03  0.54656780930E+03  0.00000000000E+00 0. -1.
         -2   -1    0    0    0  501 -0.00000000000E+00 -0.00000000000E+00 -0.17809281595E+03  0.17809281595E+03  0.00000000000E+00 0.  1.
          6    1    1    2  502    0  0.56453461344E+02  0.25351904928E+03  0.20424825434E+03  0.37250537049E+03  0.17200000000E+03 0. -1.
         -6    1    1    2    0  501 -0.56453461344E+02 -0.25351904928E+03  0.16422673901E+03  0.35215525476E+03  0.17200000000E+03 0.  1.
</event>
<event>
 4    1  0.6365520E-002  0.2041007E+03  0.7818608E-02  0.1146325E+00
          2   -1    0    0  502    0  0.00000000000E+00  0.00000000000E+00  0.50771579063E+03  0.50771579063E+03  0.00000000000E+00 0. -1.
         -2   -1    0    0    0  501 -0.00000000000E+00 -0.00000000000E+00 -0.88582580867E+02  0.88582580867E+02  0.00000000000E+00 0.  1.
          6    1    1    2  502    0 -0.10310991290E+03  0.37966431416E+02  0.29054437021E+03  0.35506778946E+03  0.17200000000E+03 0. -1.
         -6    1    1    2    0  501  0.10310991290E+03 -0.37966431416E+02  0.12858883956E+03  0.24123058204E+03  0.17200000000E+03 0. -1.
</event>
<event>
 4    1  0.6365520E-002  0.2137534E+03  0.7818608E-02  0.1138628E+00
         -2   -1    0    0    0  501 -0.00000000000E+00  0.00000000000E+00  0.95327011441E+02  0.95327011441E+02  0.00000000000E+00 0.  1.
          2   -1    0    0  502    0  0.00000000000E+00 -0.00000000000E+00 -0.49541013854E+03  0.49541013854E+03  0.00000000000E+00 0. -1.
          6    1    1    2  502    0 -0.23523820657E+02  0.12471225218E+03 -0.25330043635E+03  0.33143872290E+03  0.17200000000E+03 0. -1.
         -6    1    1    2    0  501  0.23523820657E+02 -0.12471225218E+03 -0.14678269075E+03  0.25929842708E+03  0.17200000000E+03 0.  1.
</event>
<event>
 4    1  0.6365520E-002  0.5769410E+03  0.7818608E-02  0.9954436E-01
          2   -1    0    0  502    0  0.00000000000E+00  0.00000000000E+00  0.14339633258E+04  0.14339633258E+04  0.00000000000E+00 0. -1.
         -2   -1    0    0    0  501 -0.00000000000E+00 -0.00000000000E+00 -0.32275089035E+03  0.32275089035E+03  0.00000000000E+00 0.  1.
          6    1    1    2  502    0  0.54304851220E+03  0.91516245236E+02  0.10210421498E+04  0.11727693641E+04  0.17200000000E+03 0. -1.
         -6    1    1    2    0  501 -0.54304851220E+03 -0.91516245236E+02  0.90170285598E+02  0.58394485197E+03  0.17200000000E+03 0.  1.
</event>
<event>
 4    1  0.6365520E-002  0.2725856E+03  0.7818608E-02  0.1099809E+00
         -1   -1    0    0    0  501 -0.00000000000E+00  0.00000000000E+00  0.17739529396E+03  0.17739529396E+03  0.00000000000E+00 0.  1.
          1   -1    0    0  502    0  0.00000000000E+00 -0.00000000000E+00 -0.45747567944E+03  0.45747567944E+03  0.00000000000E+00 0. -1.
          6    1    1    2  502    0 -0.17935897031E+03 -0.11202360425E+03 -0.23227200006E+03  0.35812457351E+03  0.17200000000E+03 0. -1.
         -6    1    1    2    0  501  0.17935897031E+03  0.11202360425E+03 -0.47808385416E+02  0.27674639989E+03  0.17200000000E+03 0.  1.
</event>
<event>
 4    1  0.6365520E-002  0.2313642E+03  0.7818608E-02  0.1125683E+00
          2   -1    0    0  502    0  0.00000000000E+00  0.00000000000E+00  0.83854392769E+03  0.83854392769E+03  0.00000000000E+00 0. -1.
         -2   -1    0    0    0  501 -0.00000000000E+00 -0.00000000000E+00 -0.19850790681E+03  0.19850790681E+03  0.00000000000E+00 0.  1.
          6    1    1    2  502    0 -0.15298812217E+03  0.23238083954E+02  0.74710850600E+03  0.78211283956E+03  0.17200000000E+03 0. -1.
         -6    1    1    2    0  501  0.15298812217E+03 -0.23238083954E+02 -0.10707248513E+03  0.25493899494E+03  0.17200000000E+03 0.  1.
</event>
<event>
 4    1  0.6365520E-002  0.1765065E+03  0.7818608E-02  0.1171228E+00
         -2   -1    0    0    0  501 -0.00000000000E+00  0.00000000000E+00  0.45521578677E+02  0.45521578677E+02  0.00000000000E+00 0.  1.
          2   -1    0    0  502    0  0.00000000000E+00 -0.00000000000E+00 -0.97891027819E+03  0.97891027819E+03  0.00000000000E+00 0. -1.
          6    1    1    2  502    0  0.35632134315E+02  0.17346156757E+02 -0.18573801229E+03  0.25622870128E+03  0.17200000000E+03 0.  1.
         -6    1    1    2    0  501 -0.35632134315E+02 -0.17346156757E+02 -0.74765068722E+03  0.76820315559E+03  0.17200000000E+03 0. -1.
</event>
<event>
 4    1  0.6365520E-002  0.1766053E+03  0.7818608E-02  0.1171129E+00
         -2   -1    0    0    0  501 -0.00000000000E+00  0.00000000000E+00  0.61972442024E+02  0.61972442024E+02  0.00000000000E+00 0.  1.
          2   -1    0    0  502    0  0.00000000000E+00 -0.00000000000E+00 -0.54138971870E+03  0.54138971870E+03  0.00000000000E+00 0. -1.
          6    1    1    2  502    0 -0.23665020432E+02 -0.32332777940E+02 -0.31975017915E+03  0.36528019216E+03  0.17200000000E+03 0. -1.
         -6    1    1    2    0  501  0.23665020432E+02  0.32332777940E+02 -0.15966709753E+03  0.23808196856E+03  0.17200000000E+03 0.  1.
</event>
<event>
 4    1  0.6365520E-002  0.1902919E+03  0.7818608E-02  0.1158198E+00
         -2   -1    0    0    0  501 -0.00000000000E+00  0.00000000000E+00  0.48226672167E+02  0.48226672167E+02  0.00000000000E+00 0.  1.
          2   -1    0    0  502    0  0.00000000000E+00 -0.00000000000E+00 -0.10503018250E+04  0.10503018250E+04  0.00000000000E+00 0. -1.
          6    1    1    2  502    0 -0.63076420625E+01 -0.81161709891E+02 -0.79432103084E+03  0.81679673698E+03  0.17200000000E+03 0. -1.
         -6    1    1    2    0  501  0.63076420625E+01  0.81161709891E+02 -0.20775412203E+03  0.28173176023E+03  0.17200000000E+03 0.  1.
</event>
<event>
 4    1  0.6365520E-002  0.3126016E+03  0.7818608E-02  0.1079106E+00
          1   -1    0    0  502    0  0.00000000000E+00  0.00000000000E+00  0.82252614366E+03  0.82252614366E+03  0.00000000000E+00 0. -1.
         -1   -1    0    0    0  501 -0.00000000000E+00 -0.00000000000E+00 -0.12204170406E+03  0.12204170406E+03  0.00000000000E+00 0.  1.
          6    1    1    2  502    0 -0.19548011227E+03 -0.17298355927E+03  0.27332283618E+03  0.41524108521E+03  0.17200000000E+03 0. -1.
         -6    1    1    2    0  501  0.19548011227E+03  0.17298355927E+03  0.42716160342E+03  0.52932676251E+03  0.17200000000E+03 0.  1.
</event>
<event>
 4    1  0.6365520E-002  0.1869541E+03  0.7818608E-02  0.1161238E+00
         -2   -1    0    0    0  501 -0.00000000000E+00  0.00000000000E+00  0.53690872076E+03  0.53690872076E+03  0.00000000000E+00 0.  1.
          2   -1    0    0  502    0  0.00000000000E+00 -0.00000000000E+00 -0.65696283281E+02  0.65696283281E+02  0.00000000000E+00 0. -1.
          6    1    1    2  502    0 -0.28045762126E+02  0.67685084131E+02  0.20685982668E+03  0.27882400055E+03  0.17200000000E+03 0. -1.
         -6    1    1    2    0  501  0.28045762126E+02 -0.67685084131E+02  0.26435261080E+03  0.32378100349E+03  0.17200000000E+03 0. -1.
</event>
<event>
 4    1  0.6365520E-002  0.2407455E+03  0.7818608E-02  0.1119297E+00
          2   -1    0    0  502    0  0.00000000000E+00  0.00000000000E+00  0.40573351911E+03  0.40573351911E+03  0.00000000000E+00 0. -1.
         -2   -1    0    0    0  501 -0.00000000000E+00 -0.00000000000E+00 -0.42764677419E+03  0.42764677419E+03  0.00000000000E+00 0.  1.
          6    1    1    2  502    0  0.16559150167E+03  0.30884237916E+02  0.32909071737E+03  0.40774879747E+03  0.17200000000E+03 0. -1.
         -6    1    1    2    0  501 -0.16559150167E+03 -0.30884237916E+02 -0.35100397244E+03  0.42563149584E+03  0.17200000000E+03 0.  1.
</event>
<event>
 4    1  0.6365520E-002  0.2176548E+03  0.7818608E-02  0.1135644E+00
         -1   -1    0    0    0  501 -0.00000000000E+00  0.00000000000E+00  0.10524363644E+03  0.10524363644E+03  0.00000000000E+00 0.  1.
          1   -1    0    0  502    0  0.00000000000E+00 -0.00000000000E+00 -0.84228892340E+03  0.84228892340E+03  0.00000000000E+00 0. -1.
          6    1    1    2  502    0 -0.12513974688E+03 -0.46147969072E+02 -0.45254272068E+02  0.22230955994E+03  0.17200000000E+03 0.  1.
         -6    1    1    2    0  501  0.12513974688E+03  0.46147969072E+02 -0.69179101489E+03  0.72522299990E+03  0.17200000000E+03 0. -1.
</event>
<event>
 4    1  0.6365520E-002  0.1895008E+03  0.7818608E-02  0.1158912E+00
         -1   -1    0    0    0  501 -0.00000000000E+00  0.00000000000E+00  0.25561796936E+03  0.25561796936E+03  0.00000000000E+00 0.  1.
          1   -1    0    0  502    0  0.00000000000E+00 -0.00000000000E+00 -0.45970518280E+03  0.45970518280E+03  0.00000000000E+00 0. -1.
          6    1    1    2  502    0  0.79472856786E+02  0.32563411471E+01 -0.40008571608E+03  0.44269528903E+03  0.17200000000E+03 0. -1.
         -6    1    1    2    0  501 -0.79472856786E+02 -0.32563411471E+01  0.19599850264E+03  0.27262786314E+03  0.17200000000E+03 0.  1.
</event>
<event>
 4    1  0.6365520E-002  0.3087205E+03  0.7818608E-02  0.1080961E+00
         -2   -1    0    0    0  501 -0.00000000000E+00  0.00000000000E+00  0.10915102744E+03  0.10915102744E+03  0.00000000000E+00 0.  1.
          2   -1    0    0  502    0  0.00000000000E+00 -0.00000000000E+00 -0.10167073114E+04  0.10167073114E+04  0.00000000000E+00 0. -1.
          6    1    1    2  502    0  0.69310336973E+02  0.24682063593E+03 -0.66528529745E+03  0.73342544007E+03  0.17200000000E+03 0. -1.
         -6    1    1    2    0  501 -0.69310336973E+02 -0.24682063593E+03 -0.24227098649E+03  0.39243289876E+03  0.17200000000E+03 0.  1.
</event>
<event>
 4    1  0.6365520E-002  0.2086114E+03  0.7818608E-02  0.1142670E+00
          2   -1    0    0  502    0  0.00000000000E+00  0.00000000000E+00  0.71489727790E+02  0.71489727790E+02  0.00000000000E+00 0. -1.
         -2   -1    0    0    0  501 -0.00000000000E+00 -0.00000000000E+00 -0.74086819059E+03  0.74086819059E+03  0.00000000000E+00 0.  1.
          6    1    1    2  502    0  0.65545381971E+02  0.98176048167E+02 -0.16315810870E+03  0.26483825624E+03  0.17200000000E+03 0. -1.
         -6    1    1    2    0  501 -0.65545381971E+02 -0.98176048167E+02 -0.50622035410E+03  0.54751966215E+03  0.17200000000E+03 0.  1.
</event>
<event>
 4    1  0.6365520E-002  0.2026064E+03  0.7818608E-02  0.1147558E+00
          2   -1    0    0  502    0  0.00000000000E+00  0.00000000000E+00  0.30511920844E+04  0.30511920844E+04  0.00000000000E+00 0. -1.
         -2   -1    0    0    0  501 -0.00000000000E+00 -0.00000000000E+00 -0.14201236074E+02  0.14201236074E+02  0.00000000000E+00 0.  1.
          6    1    1    2  502    0  0.32837527895E+02  0.10191695652E+03  0.18701792564E+04  0.18811219578E+04  0.17200000000E+03 0. -1.
         -6    1    1    2    0  501 -0.32837527895E+02 -0.10191695652E+03  0.11668115920E+04  0.11842713627E+04  0.17200000000E+03 0.  1.
</event>
<event>
 4    1  0.6365520E-002  0.3766011E+03  0.7818608E-02  0.1052197E+00
          2   -1    0    0  502    0  0.00000000000E+00  0.00000000000E+00  0.25293937564E+04  0.25293937564E+04  0.00000000000E+00 0. -1.
         -2   -1    0    0    0  501 -0.00000000000E+00 -0.00000000000E+00 -0.63881342050E+02  0.63881342050E+02  0.00000000000E+00 0.  1.
          6    1    1    2  502    0 -0.32267495507E+03  0.90140210884E+02  0.77940329516E+03  0.86561994013E+03  0.17200000000E+03 0. -1.
         -6    1    1    2    0  501  0.32267495507E+03 -0.90140210884E+02  0.16861091192E+04  0.17276551583E+04  0.17200000000E+03 0.  1.
</event>
<event>
 4    1  0.6365520E-002  0.2043869E+03  0.7818608E-02  0.1146090E+00
         -2   -1    0    0    0  501 -0.00000000000E+00  0.00000000000E+00  0.29923105357E+03  0.29923105357E+03  0.00000000000E+00 0.  1.
          2   -1    0    0  502    0  0.00000000000E+00 -0.00000000000E+00 -0.23573499506E+03  0.23573499506E+03  0.00000000000E+00 0. -1.
          6    1    1    2  502    0 -0.67491905711E+02  0.87377629732E+02 -0.13906254018E+03  0.24720921827E+03  0.17200000000E+03 0. -1.
         -6    1    1    2    0  501  0.67491905711E+02 -0.87377629732E+02  0.20255859869E+03  0.28775683036E+03  0.17200000000E+03 0.  1.
</event>
<event>
 4    1  0.6365520E-002  0.2677813E+03  0.7818608E-02  0.1102556E+00
         -1   -1    0    0    0  501 -0.00000000000E+00  0.00000000000E+00  0.27636367696E+03  0.27636367696E+03  0.00000000000E+00 0.  1.
          1   -1    0    0  502    0  0.00000000000E+00 -0.00000000000E+00 -0.53269419086E+03  0.53269419086E+03  0.00000000000E+00 0. -1.
          6    1    1    2  502    0  0.17892951402E+03  0.10053397198E+03  0.16155157590E+03  0.31273912801E+03  0.17200000000E+03 0.  1.
         -6    1    1    2    0  501 -0.17892951402E+03 -0.10053397198E+03 -0.41788208980E+03  0.49631873981E+03  0.17200000000E+03 0. -1.
</event>
<event>
 4    1  0.6365520E-002  0.4599913E+03  0.7818608E-02  0.1024784E+00
          1   -1    0    0  502    0  0.00000000000E+00  0.00000000000E+00  0.41473559076E+03  0.41473559076E+03  0.00000000000E+00 0. -1.
         -1   -1    0    0    0  501 -0.00000000000E+00 -0.00000000000E+00 -0.68095783229E+03  0.68095783229E+03  0.00000000000E+00 0.  1.
          6    1    1    2  502    0 -0.23001401700E+03  0.35930700927E+03  0.14124082267E+03  0.48118701657E+03  0.17200000000E+03 0. -1.
         -6    1    1    2    0  501  0.23001401700E+03 -0.35930700927E+03 -0.40746306420E+03  0.61450640649E+03  0.17200000000E+03 0.  1.
</event>
<event>
 4    1  0.6365520E-002  0.3470701E+03  0.7818608E-02  0.1063824E+00
         -2   -1    0    0    0  501 -0.00000000000E+00  0.00000000000E+00  0.10493048094E+03  0.10493048094E+03  0.00000000000E+00 0.  1.
          2   -1    0    0  502    0  0.00000000000E+00 -0.00000000000E+00 -0.17280982207E+04  0.17280982207E+04  0.00000000000E+00 0. -1.
          6    1    1    2  502    0  0.84309495225E+02 -0.28942279928E+03 -0.13426087889E+04  0.13867429495E+04  0.17200000000E+03 0. -1.
         -6    1    1    2    0  501 -0.84309495225E+02  0.28942279928E+03 -0.28055895084E+03  0.44628575221E+03  0.17200000000E+03 0.  1.
</event>
<event>
 4    1  0.6365520E-002  0.1958681E+03  0.7818608E-02  0.1153273E+00
          2   -1    0    0  502    0  0.00000000000E+00  0.00000000000E+00  0.12044975912E+04  0.12044975912E+04  0.00000000000E+00 0. -1.
         -2   -1    0    0    0  501 -0.00000000000E+00 -0.00000000000E+00 -0.43675474957E+02  0.43675474957E+02  0.00000000000E+00 0.  1.
          6    1    1    2  502    0 -0.26911859637E+02 -0.89755549826E+02  0.90513861849E+03  0.92608867049E+03  0.17200000000E+03 0. -1.
         -6    1    1    2    0  501  0.26911859637E+02  0.89755549826E+02  0.25568349775E+03  0.32208439567E+03  0.17200000000E+03 0.  1.
</event>
<event>
 4    1  0.6365520E-002  0.2448451E+03  0.7818608E-02  0.1116607E+00
          2   -1    0    0  502    0  0.00000000000E+00  0.00000000000E+00  0.10827474043E+03  0.10827474043E+03  0.00000000000E+00 0. -1.
         -2   -1    0    0    0  501 -0.00000000000E+00 -0.00000000000E+00 -0.82368925104E+03  0.82368925104E+03  0.00000000000E+00 0.  1.
          6    1    1    2  502    0 -0.16945169597E+03 -0.40635390542E+02 -0.90910789097E+02  0.26117787771E+03  0.17200000000E+03 0.  1.
         -6    1    1    2    0  501  0.16945169597E+03  0.40635390542E+02 -0.62450372151E+03  0.67078611376E+03  0.17200000000E+03 0.  1.
</event>
<event>
 4    1  0.6365520E-002  0.1779118E+03  0.7818608E-02  0.1169839E+00
          2   -1    0    0  502    0  0.00000000000E+00  0.00000000000E+00  0.14992245424E+04  0.14992245424E+04  0.00000000000E+00 0. -1.
         -2   -1    0    0    0  501 -0.00000000000E+00 -0.00000000000E+00 -0.24278192089E+02  0.24278192089E+02  0.00000000000E+00 0.  1.
          6    1    1    2  502    0  0.44425801901E+02  0.97447907507E+01  0.46241239585E+03  0.49545719963E+03  0.17200000000E+03 0.  1.
         -6    1    1    2    0  501 -0.44425801901E+02 -0.97447907507E+01  0.10125339544E+04  0.10280455348E+04  0.17200000000E+03 0. -1.
</event>
<event>
 4    1  0.6365520E-002  0.2408628E+03  0.7818608E-02  0.1119219E+00
          2   -1    0    0  502    0  0.00000000000E+00  0.00000000000E+00  0.37370872857E+03  0.37370872857E+03  0.00000000000E+00 0. -1.
         -2   -1    0    0    0  501 -0.00000000000E+00 -0.00000000000E+00 -0.16348853693E+03  0.16348853693E+03  0.00000000000E+00 0.  1.
          6    1    1    2  502    0 -0.15734804566E+03  0.60600932292E+02  0.16543891615E+03  0.29220697364E+03  0.17200000000E+03 0. -1.
         -6    1    1    2    0  501  0.15734804566E+03 -0.60600932292E+02  0.44781275498E+02  0.24499029186E+03  0.17200000000E+03 0.  1.
</event>
<event>
 4    1  0.6365520E-002  0.2156132E+03  0.7818608E-02  0.1137196E+00
         -2   -1    0    0    0  501 -0.00000000000E+00  0.00000000000E+00  0.88311164864E+03  0.88311164864E+03  0.00000000000E+00 0.  1.
          2   -1    0    0  502    0  0.00000000000E+00 -0.00000000000E+00 -0.56038519504E+02  0.56038519504E+02  0.00000000000E+00 0. -1.
          6    1    1    2  502    0  0.63940186653E+02 -0.11321094614E+03  0.52913631127E+03  0.57137929758E+03  0.17200000000E+03 0.  1.
         -6    1    1    2    0  501 -0.63940186653E+02  0.11321094614E+03  0.29793681786E+03  0.36777087056E+03  0.17200000000E+03 0. -1.
</event>
<event>
 4    1  0.6365520E-002  0.2880675E+03  0.7818608E-02  0.1091362E+00
          2   -1    0    0  502    0  0.00000000000E+00  0.00000000000E+00  0.15328114342E+04  0.15328114342E+04  0.00000000000E+00 0. -1.
         -2   -1    0    0    0  501 -0.00000000000E+00 -0.00000000000E+00 -0.37376678165E+03  0.37376678165E+03  0.00000000000E+00 0.  1.
          6    1    1    2  502    0 -0.66052425155E+02 -0.22144060322E+03  0.14610733084E+04  0.14892004822E+04  0.17200000000E+03 0. -1.
         -6    1    1    2    0  501  0.66052425155E+02  0.22144060322E+03 -0.30202865584E+03  0.41737773368E+03  0.17200000000E+03 0.  1.
</event>
<event>
 4    1  0.6365520E-002  0.1783490E+03  0.7818608E-02  0.1169411E+00
          1   -1    0    0  502    0  0.00000000000E+00  0.00000000000E+00  0.11465910474E+04  0.11465910474E+04  0.00000000000E+00 0. -1.
         -1   -1    0    0    0  501 -0.00000000000E+00 -0.00000000000E+00 -0.27743020145E+02  0.27743020145E+02  0.00000000000E+00 0.  1.
          6    1    1    2  502    0 -0.29567604718E+02  0.36743815259E+02  0.55532886049E+03  0.58326537228E+03  0.17200000000E+03 0. -1.
         -6    1    1    2    0  501  0.29567604718E+02 -0.36743815259E+02  0.56351916672E+03  0.59106869522E+03  0.17200000000E+03 0.  1.
</event>
<event>
 4    1  0.6365520E-002  0.3708508E+03  0.7818608E-02  0.1054368E+00
         -2   -1    0    0    0  501 -0.00000000000E+00  0.00000000000E+00  0.10971000098E+03  0.10971000098E+03  0.00000000000E+00 0.  1.
          2   -1    0    0  502    0  0.00000000000E+00 -0.00000000000E+00 -0.19336182325E+04  0.19336182325E+04  0.00000000000E+00 0. -1.
          6    1    1    2  502    0 -0.32732907624E+03 -0.28319953846E+02 -0.15178377244E+04  0.15624857444E+04  0.17200000000E+03 0. -1.
         -6    1    1    2    0  501  0.32732907624E+03  0.28319953846E+02 -0.30607050708E+03  0.48084248902E+03  0.17200000000E+03 0.  1.
</event>
<event>
 4    1  0.6365520E-002  0.1876314E+03  0.7818608E-02  0.1160615E+00
         -2   -1    0    0    0  501 -0.00000000000E+00  0.00000000000E+00  0.64865871928E+02  0.64865871928E+02  0.00000000000E+00 0.  1.
          2   -1    0    0  502    0  0.00000000000E+00 -0.00000000000E+00 -0.10913785698E+04  0.10913785698E+04  0.00000000000E+00 0. -1.
          6    1    1    2  502    0 -0.50145453359E+02  0.55740238292E+02 -0.92315234037E+03  0.94202748589E+03  0.17200000000E+03 0. -1.
         -6    1    1    2    0  501  0.50145453359E+02 -0.55740238292E+02 -0.10336035748E+03  0.21421695581E+03  0.17200000000E+03 0.  1.
</event>
<event>
 4    1  0.6365520E-002  0.4382258E+03  0.7818608E-02  0.1031293E+00
          1   -1    0    0  502    0  0.00000000000E+00  0.00000000000E+00  0.11505548019E+04  0.11505548019E+04  0.00000000000E+00 0. -1.
         -1   -1    0    0    0  501 -0.00000000000E+00 -0.00000000000E+00 -0.19298253216E+03  0.19298253216E+03  0.00000000000E+00 0.  1.
          6    1    1    2  502    0  0.40269673927E+03 -0.17123103438E+02  0.72569253699E+03  0.84774496326E+03  0.17200000000E+03 0. -1.
         -6    1    1    2    0  501 -0.40269673927E+03  0.17123103438E+02  0.23187973276E+03  0.49579237081E+03  0.17200000000E+03 0.  1.
</event>
<event>
 4    1  0.6365520E-002  0.2639044E+03  0.7818608E-02  0.1104820E+00
         -1   -1    0    0    0  501 -0.00000000000E+00  0.00000000000E+00  0.14630194444E+04  0.14630194444E+04  0.00000000000E+00 0.  1.
          1   -1    0    0  502    0  0.00000000000E+00 -0.00000000000E+00 -0.61076025046E+02  0.61076025046E+02  0.00000000000E+00 0. -1.
          6    1    1    2  502    0  0.17517666194E+03 -0.96822773882E+02  0.10588735679E+04  0.10912647457E+04  0.17200000000E+03 0. -1.
         -6    1    1    2    0  501 -0.17517666194E+03  0.96822773882E+02  0.34306985145E+03  0.43283072373E+03  0.17200000000E+03 0.  1.
</event>
<event>
 4    1  0.6365520E-002  0.3164989E+03  0.7818608E-02  0.1077272E+00
         -2   -1    0    0    0  501 -0.00000000000E+00  0.00000000000E+00  0.60699641934E+03  0.60699641934E+03  0.00000000000E+00 0.  1.
          2   -1    0    0  502    0  0.00000000000E+00 -0.00000000000E+00 -0.32178550755E+03  0.32178550755E+03  0.00000000000E+00 0. -1.
          6    1    1    2  502    0  0.28225214795E+02 -0.26417959745E+03 -0.18152095995E+03  0.36485802905E+03  0.17200000000E+03 0. -1.
         -6    1    1    2    0  501 -0.28225214795E+02  0.26417959745E+03  0.46673187174E+03  0.56392389784E+03  0.17200000000E+03 0.  1.
</event>
<event>
 4    1  0.6365520E-002  0.1936297E+03  0.7818608E-02  0.1155228E+00
          2   -1    0    0  502    0  0.00000000000E+00  0.00000000000E+00  0.67848048727E+03  0.67848048727E+03  0.00000000000E+00 0. -1.
         -2   -1    0    0    0  501 -0.00000000000E+00 -0.00000000000E+00 -0.55430128564E+02  0.55430128564E+02  0.00000000000E+00 0.  1.
          6    1    1    2  502    0  0.83096734309E+02 -0.31676687223E+02  0.33188575052E+03  0.38424032995E+03  0.17200000000E+03 0. -1.
         -6    1    1    2    0  501 -0.83096734309E+02  0.31676687223E+02  0.29116460819E+03  0.34967028589E+03  0.17200000000E+03 0. -1.
</event>
<event>
 4    1  0.6365520E-002  0.2026553E+03  0.7818608E-02  0.1147518E+00
          1   -1    0    0  502    0  0.00000000000E+00  0.00000000000E+00  0.83320836563E+03  0.83320836563E+03  0.00000000000E+00 0. -1.
         -1   -1    0    0    0  501 -0.00000000000E+00 -0.00000000000E+00 -0.61725122862E+02  0.61725122862E+02  0.00000000000E+00 0.  1.
          6    1    1    2  502    0 -0.84050116184E+02  0.66488576811E+02  0.58658072418E+03  0.62060140095E+03  0.17200000000E+03 0. -1.
         -6    1    1    2    0  501  0.84050116184E+02 -0.66488576811E+02  0.18490251859E+03  0.27433208754E+03  0.17200000000E+03 0.  1.
</event>
<event>
 4    1  0.6365520E-002  0.1815416E+03  0.7818608E-02  0.1166319E+00
         -1   -1    0    0    0  501 -0.00000000000E+00  0.00000000000E+00  0.19406296104E+02  0.19406296104E+02  0.00000000000E+00 0.  1.
          1   -1    0    0  502    0  0.00000000000E+00 -0.00000000000E+00 -0.17085130078E+04  0.17085130078E+04  0.00000000000E+00 0. -1.
          6    1    1    2  502    0 -0.58008357236E+02 -0.28964566988E+01 -0.77769613431E+03  0.79860417999E+03  0.17200000000E+03 0.  1.
         -6    1    1    2    0  501  0.58008357236E+02  0.28964566988E+01 -0.91141057737E+03  0.92931512390E+03  0.17200000000E+03 0.  1.
</event>
<event>
 4    1  0.6365520E-002  0.8977604E+03  0.7818608E-02  0.9428385E-01
          1   -1    0    0  502    0  0.00000000000E+00  0.00000000000E+00  0.27469435660E+04  0.27469435660E+04  0.00000000000E+00 0. -1.
         -1   -1    0    0    0  501 -0.00000000000E+00 -0.00000000000E+00 -0.51701690506E+03  0.51701690506E+03  0.00000000000E+00 0.  1.
          6    1    1    2  502    0  0.74894997399E+03 -0.46418071569E+03  0.41696836018E+02  0.89872822727E+03  0.17200000000E+03 0. -1.
         -6    1    1    2    0  501 -0.74894997399E+03  0.46418071569E+03  0.21882298250E+04  0.23652322438E+04  0.17200000000E+03 0.  1.
</event>
<event>
 4    1  0.6365520E-002  0.2500276E+03  0.7818608E-02  0.1113287E+00
         -2   -1    0    0    0  501 -0.00000000000E+00  0.00000000000E+00  0.34525887256E+03  0.34525887256E+03  0.00000000000E+00 0.  1.
          2   -1    0    0  502    0  0.00000000000E+00 -0.00000000000E+00 -0.47780634570E+03  0.47780634570E+03  0.00000000000E+00 0. -1.
          6    1    1    2  502    0 -0.42585069689E+02 -0.17639815868E+03 -0.39058974484E+03  0.46376087299E+03  0.17200000000E+03 0. -1.
         -6    1    1    2    0  501  0.42585069689E+02  0.17639815868E+03  0.25804227170E+03  0.35930434527E+03  0.17200000000E+03 0.  1.
</event>
<event>
 4    1  0.6365520E-002  0.2055922E+03  0.7818608E-02  0.1145105E+00
         -2   -1    0    0    0  501 -0.00000000000E+00  0.00000000000E+00  0.13149569941E+03  0.13149569941E+03  0.00000000000E+00 0.  1.
          2   -1    0    0  502    0  0.00000000000E+00 -0.00000000000E+00 -0.20361241537E+04  0.20361241537E+04  0.00000000000E+00 0. -1.
          6    1    1    2  502    0 -0.10723113738E+03  0.34433276491E+02 -0.19469014619E+04  0.19577266075E+04  0.17200000000E+03 0. -1.
         -6    1    1    2    0  501  0.10723113738E+03 -0.34433276491E+02  0.42273007661E+02  0.20989324555E+03  0.17200000000E+03 0.  1.
</event>
<event>
 4    1  0.6365520E-002  0.2323848E+03  0.7818608E-02  0.1124972E+00
          1   -1    0    0  502    0  0.00000000000E+00  0.00000000000E+00  0.16680072594E+04  0.16680072594E+04  0.00000000000E+00 0. -1.
         -1   -1    0    0    0  501 -0.00000000000E+00 -0.00000000000E+00 -0.35168152626E+02  0.35168152626E+02  0.00000000000E+00 0.  1.
          6    1    1    2  502    0  0.14045367353E+03 -0.68494177071E+02  0.57644920688E+03  0.62152745298E+03  0.17200000000E+03 0. -1.
         -6    1    1    2    0  501 -0.14045367353E+03  0.68494177071E+02  0.10563898999E+04  0.10816479590E+04  0.17200000000E+03 0.  1.
</event>
<event>
 4    1  0.6365520E-002  0.2056033E+03  0.7818608E-02  0.1145096E+00
          1   -1    0    0  502    0  0.00000000000E+00  0.00000000000E+00  0.12799714155E+04  0.12799714155E+04  0.00000000000E+00 0. -1.
         -1   -1    0    0    0  501 -0.00000000000E+00 -0.00000000000E+00 -0.38976637648E+02  0.38976637648E+02  0.00000000000E+00 0.  1.
          6    1    1    2  502    0  0.66237781359E+02  0.91111236998E+02  0.87816916449E+03  0.90191672712E+03  0.17200000000E+03 0.  1.
         -6    1    1    2    0  501 -0.66237781359E+02 -0.91111236998E+02  0.36282561340E+03  0.41703132607E+03  0.17200000000E+03 0.  1.
</event>
<event>
 4    1  0.6365520E-002  0.1945026E+03  0.7818608E-02  0.1154462E+00
          2   -1    0    0  502    0  0.00000000000E+00  0.00000000000E+00  0.14251038354E+03  0.14251038354E+03  0.00000000000E+00 0. -1.
         -2   -1    0    0    0  501 -0.00000000000E+00 -0.00000000000E+00 -0.32462807662E+03  0.32462807662E+03  0.00000000000E+00 0.  1.
          6    1    1    2  502    0 -0.64064612013E+02  0.64366039268E+02  0.86547991967E+01  0.19469506176E+03  0.17200000000E+03 0. -1.
         -6    1    1    2    0  501  0.64064612013E+02 -0.64366039268E+02 -0.19077249228E+03  0.27244339840E+03  0.17200000000E+03 0.  1.
</event>
<event>
 4    1  0.6365520E-002  0.1967157E+03  0.7818608E-02  0.1152540E+00
         -2   -1    0    0    0  501 -0.00000000000E+00  0.00000000000E+00  0.41808247930E+03  0.41808247930E+03  0.00000000000E+00 0.  1.
          2   -1    0    0  502    0  0.00000000000E+00 -0.00000000000E+00 -0.13654641694E+03  0.13654641694E+03  0.00000000000E+00 0. -1.
          6    1    1    2  502    0 -0.41205089601E+01  0.95373449551E+02 -0.16629966234E+02  0.19741739855E+03  0.17200000000E+03 0. -1.
         -6    1    1    2    0  501  0.41205089601E+01 -0.95373449551E+02  0.29816602859E+03  0.35721149769E+03  0.17200000000E+03 0.  1.
</event>
<event>
 4    1  0.6365520E-002  0.2051271E+03  0.7818608E-02  0.1145484E+00
          2   -1    0    0  502    0  0.00000000000E+00  0.00000000000E+00  0.22970124484E+04  0.22970124484E+04  0.00000000000E+00 0. -1.
         -2   -1    0    0    0  501 -0.00000000000E+00 -0.00000000000E+00 -0.52408613798E+02  0.52408613798E+02  0.00000000000E+00 0.  1.
          6    1    1    2  502    0  0.74214955555E+01 -0.11152598560E+03  0.20697287667E+04  0.20798688160E+04  0.17200000000E+03 0. -1.
         -6    1    1    2    0  501 -0.74214955555E+01  0.11152598560E+03  0.17487506792E+03  0.26955224621E+03  0.17200000000E+03 0.  1.
</event>
<event>
 4    1  0.6365520E-002  0.2369004E+03  0.7818608E-02  0.1121875E+00
         -1   -1    0    0    0  501 -0.00000000000E+00  0.00000000000E+00  0.46879551299E+03  0.46879551299E+03  0.00000000000E+00 0.  1.
          1   -1    0    0  502    0  0.00000000000E+00 -0.00000000000E+00 -0.15838313892E+03  0.15838313892E+03  0.00000000000E+00 0. -1.
          6    1    1    2  502    0  0.15869055379E+03  0.36811873607E+02  0.25888449518E+00  0.23690055492E+03  0.17200000000E+03 0. -1.
         -6    1    1    2    0  501 -0.15869055379E+03 -0.36811873607E+02  0.31015348957E+03  0.39027809700E+03  0.17200000000E+03 0.  1.
</event>
<event>
 4    1  0.6365520E-002  0.3055710E+03  0.7818608E-02  0.1082488E+00
         -2   -1    0    0    0  501 -0.00000000000E+00  0.00000000000E+00  0.33987866707E+03  0.33987866707E+03  0.00000000000E+00 0.  1.
          2   -1    0    0  502    0  0.00000000000E+00 -0.00000000000E+00 -0.36652446148E+03  0.36652446148E+03  0.00000000000E+00 0. -1.
          6    1    1    2  502    0  0.19302758479E+03 -0.16288031674E+03 -0.19008447415E+03  0.35986907812E+03  0.17200000000E+03 0. -1.
         -6    1    1    2    0  501 -0.19302758479E+03  0.16288031674E+03  0.16343867974E+03  0.34653405043E+03  0.17200000000E+03 0.  1.
</event>
<event>
 4    1  0.6365520E-002  0.3910372E+03  0.7818608E-02  0.1046928E+00
         -1   -1    0    0    0  501 -0.00000000000E+00  0.00000000000E+00  0.86554477302E+03  0.86554477302E+03  0.00000000000E+00 0.  1.
          1   -1    0    0  502    0  0.00000000000E+00 -0.00000000000E+00 -0.21950132532E+03  0.21950132532E+03  0.00000000000E+00 0. -1.
          6    1    1    2  502    0  0.13038229791E+03 -0.32607752223E+03  0.83351673551E+02  0.39982195487E+03  0.17200000000E+03 0. -1.
         -6    1    1    2    0  501 -0.13038229791E+03  0.32607752223E+03  0.56269177415E+03  0.68522414348E+03  0.17200000000E+03 0.  1.
</event>
<event>
 4    1  0.6365520E-002  0.1757993E+03  0.7818608E-02  0.1171931E+00
         -1   -1    0    0    0  501 -0.00000000000E+00  0.00000000000E+00  0.45944247384E+03  0.45944247384E+03  0.00000000000E+00 0.  1.
          1   -1    0    0  502    0  0.00000000000E+00 -0.00000000000E+00 -0.20643385444E+03  0.20643385444E+03  0.00000000000E+00 0. -1.
          6    1    1    2  502    0 -0.35901823990E+02  0.56982313237E+01 -0.14685930356E+03  0.22907000207E+03  0.17200000000E+03 0. -1.
         -6    1    1    2    0  501  0.35901823990E+02 -0.56982313237E+01  0.39986792296E+03  0.43680632621E+03  0.17200000000E+03 0.  1.
</event>
<event>
 4    1  0.6365520E-002  0.6296451E+03  0.7818608E-02  0.9845742E-01
         -2   -1    0    0    0  501 -0.00000000000E+00  0.00000000000E+00  0.34661345396E+03  0.34661345396E+03  0.00000000000E+00 0.  1.
          2   -1    0    0  502    0  0.00000000000E+00 -0.00000000000E+00 -0.12217549884E+04  0.12217549884E+04  0.00000000000E+00 0. -1.
          6    1    1    2  502    0  0.46018805956E+03  0.39382220941E+03 -0.23947463012E+03  0.67364759426E+03  0.17200000000E+03 0. -1.
         -6    1    1    2    0  501 -0.46018805956E+03 -0.39382220941E+03 -0.63566690437E+03  0.89472084814E+03  0.17200000000E+03 0.  1.
</event>
<event>
 4    1  0.6365520E-002  0.1905240E+03  0.7818608E-02  0.1157990E+00
          1   -1    0    0  502    0  0.00000000000E+00  0.00000000000E+00  0.92545570274E+03  0.92545570274E+03  0.00000000000E+00 0. -1.
         -1   -1    0    0    0  501 -0.00000000000E+00 -0.00000000000E+00 -0.12924675905E+03  0.12924675905E+03  0.00000000000E+00 0.  1.
          6    1    1    2  502    0  0.49997998959E+02  0.64927547308E+02  0.83822141360E+03  0.85960137536E+03  0.17200000000E+03 0. -1.
         -6    1    1    2    0  501 -0.49997998959E+02 -0.64927547308E+02 -0.42012469902E+02  0.19510108643E+03  0.17200000000E+03 0.  1.
</event>
<event>
 4    1  0.6365520E-002  0.3810961E+03  0.7818608E-02  0.1050529E+00
          2   -1    0    0  502    0  0.00000000000E+00  0.00000000000E+00  0.43252975019E+03  0.43252975019E+03  0.00000000000E+00 0. -1.
         -2   -1    0    0    0  501 -0.00000000000E+00 -0.00000000000E+00 -0.33597286533E+03  0.33597286533E+03  0.00000000000E+00 0.  1.
          6    1    1    2  502    0 -0.30647704782E+03  0.14738393806E+03  0.39037141574E+02  0.38309020407E+03  0.17200000000E+03 0. -1.
         -6    1    1    2    0  501  0.30647704782E+03 -0.14738393806E+03  0.57519743286E+02  0.38541241145E+03  0.17200000000E+03 0.  1.
</event>
<event>
 4    1  0.6365520E-002  0.2737262E+03  0.7818608E-02  0.1099166E+00
          1   -1    0    0  502    0  0.00000000000E+00  0.00000000000E+00  0.26160821123E+04  0.26160821123E+04  0.00000000000E+00 0. -1.
         -1   -1    0    0    0  501 -0.00000000000E+00 -0.00000000000E+00 -0.15525960990E+03  0.15525960990E+03  0.00000000000E+00 0.  1.
          6    1    1    2  502    0 -0.21038716059E+03  0.32852299137E+02 -0.20943310713E+02  0.27452623401E+03  0.17200000000E+03 0.  1.
         -6    1    1    2    0  501  0.21038716059E+03 -0.32852299137E+02  0.24817658132E+04  0.24968154882E+04  0.17200000000E+03 0. -1.
</event>
<event>
 4    1  0.6365520E-002  0.1725367E+03  0.7818608E-02  0.1175228E+00
          2   -1    0    0  502    0  0.00000000000E+00  0.00000000000E+00  0.26513778533E+02  0.26513778533E+02  0.00000000000E+00 0. -1.
         -2   -1    0    0    0  501 -0.00000000000E+00 -0.00000000000E+00 -0.11876267003E+04  0.11876267003E+04  0.00000000000E+00 0.  1.
          6    1    1    2  502    0  0.48852964745E+01 -0.12690286618E+02 -0.43869251004E+03  0.47140219331E+03  0.17200000000E+03 0. -1.
         -6    1    1    2    0  501 -0.48852964745E+01  0.12690286618E+02 -0.72242041176E+03  0.74273828555E+03  0.17200000000E+03 0.  1.
</event>
<event>
 4    1  0.6365520E-002  0.1741183E+03  0.7818608E-02  0.1173620E+00
         -1   -1    0    0    0  501 -0.00000000000E+00  0.00000000000E+00  0.16132864061E+03  0.16132864061E+03  0.00000000000E+00 0.  1.
          1   -1    0    0  502    0  0.00000000000E+00 -0.00000000000E+00 -0.29838913302E+03  0.29838913302E+03  0.00000000000E+00 0. -1.
          6    1    1    2  502    0  0.20508077251E+02  0.17680385177E+02 -0.20838802488E+03  0.27155615656E+03  0.17200000000E+03 0. -1.
         -6    1    1    2    0  501 -0.20508077251E+02 -0.17680385177E+02  0.71327532460E+02  0.18816161707E+03  0.17200000000E+03 0.  1.
</event>
<event>
 4    1  0.6365520E-002  0.2031432E+03  0.7818608E-02  0.1147114E+00
          2   -1    0    0  502    0  0.00000000000E+00  0.00000000000E+00  0.35827061586E+04  0.35827061586E+04  0.00000000000E+00 0. -1.
         -2   -1    0    0    0  501 -0.00000000000E+00 -0.00000000000E+00 -0.47468197262E+02  0.47468197262E+02  0.00000000000E+00 0.  1.
          6    1    1    2  502    0 -0.29605366682E+02 -0.10395510057E+03  0.33472082584E+04  0.33533670043E+04  0.17200000000E+03 0. -1.
         -6    1    1    2    0  501  0.29605366682E+02  0.10395510057E+03  0.18802970293E+03  0.27680735152E+03  0.17200000000E+03 0.  1.
</event>
<event>
 4    1  0.6365520E-002  0.1900131E+03  0.7818608E-02  0.1158450E+00
          2   -1    0    0  502    0  0.00000000000E+00  0.00000000000E+00  0.30283110566E+03  0.30283110566E+03  0.00000000000E+00 0. -1.
         -2   -1    0    0    0  501 -0.00000000000E+00 -0.00000000000E+00 -0.60172667341E+03  0.60172667341E+03  0.00000000000E+00 0.  1.
          6    1    1    2  502    0  0.67802905362E+02 -0.43860431641E+02  0.25555331094E+03  0.31845324017E+03  0.17200000000E+03 0. -1.
         -6    1    1    2    0  501 -0.67802905362E+02  0.43860431641E+02 -0.55444887869E+03  0.58610453890E+03  0.17200000000E+03 0.  1.
</event>
<event>
 4    1  0.6365520E-002  0.2150123E+03  0.7818608E-02  0.1137657E+00
         -2   -1    0    0    0  501 -0.00000000000E+00  0.00000000000E+00  0.32194753663E+03  0.32194753663E+03  0.00000000000E+00 0.  1.
          2   -1    0    0  502    0  0.00000000000E+00 -0.00000000000E+00 -0.37850005536E+03  0.37850005536E+03  0.00000000000E+00 0. -1.
          6    1    1    2  502    0 -0.13315774279E+02 -0.12833155089E+03 -0.30418036873E+03  0.37249965573E+03  0.17200000000E+03 0. -1.
         -6    1    1    2    0  501  0.13315774279E+02  0.12833155089E+03  0.24762785001E+03  0.32794793626E+03  0.17200000000E+03 0.  1.
</event>
<event>
 4    1  0.6365520E-002  0.1951841E+03  0.7818608E-02  0.1153867E+00
          2   -1    0    0  502    0  0.00000000000E+00  0.00000000000E+00  0.35084991879E+03  0.35084991879E+03  0.00000000000E+00 0. -1.
         -2   -1    0    0    0  501 -0.00000000000E+00 -0.00000000000E+00 -0.11008010068E+03  0.11008010068E+03  0.00000000000E+00 0.  1.
          6    1    1    2  502    0 -0.91501304726E+02 -0.11847346620E+02  0.93521293412E+02  0.21643262395E+03  0.17200000000E+03 0.  1.
         -6    1    1    2    0  501  0.91501304726E+02  0.11847346620E+02  0.14724852470E+03  0.24449739552E+03  0.17200000000E+03 0. -1.
</event>
<event>
 4    1  0.6365520E-002  0.2600812E+03  0.7818608E-02  0.1107094E+00
         -1   -1    0    0    0  501 -0.00000000000E+00  0.00000000000E+00  0.24681497851E+02  0.24681497851E+02  0.00000000000E+00 0.  1.
          1   -1    0    0  502    0  0.00000000000E+00 -0.00000000000E+00 -0.28293860276E+04  0.28293860276E+04  0.00000000000E+00 0. -1.
          6    1    1    2  502    0  0.19277516983E+03  0.29932753501E+02 -0.16551355117E+04  0.16754449552E+04  0.17200000000E+03 0. -1.
         -6    1    1    2    0  501 -0.19277516983E+03 -0.29932753501E+02 -0.11495690181E+04  0.11786225703E+04  0.17200000000E+03 0.  1.
</event>
<event>
 4    1  0.6365520E-002  0.2155386E+03  0.7818608E-02  0.1137254E+00
          3   -1    0    0  502    0  0.00000000000E+00  0.00000000000E+00  0.63432463557E+03  0.63432463557E+03  0.00000000000E+00 0. -1.
         -3   -1    0    0    0  501 -0.00000000000E+00 -0.00000000000E+00 -0.16292797062E+03  0.16292797062E+03  0.00000000000E+00 0.  1.
          6    1    1    2  502    0 -0.78406373331E+02 -0.10356319025E+03  0.53145817465E+03  0.57350212306E+03  0.17200000000E+03 0. -1.
         -6    1    1    2    0  501  0.78406373331E+02  0.10356319025E+03 -0.60061509701E+02  0.22375048313E+03  0.17200000000E+03 0.  1.
</event>
<event>
 4    1  0.6365520E-002  0.3700745E+03  0.7818608E-02  0.1054664E+00
         -2   -1    0    0    0  501 -0.00000000000E+00  0.00000000000E+00  0.15795805201E+03  0.15795805201E+03  0.00000000000E+00 0.  1.
          2   -1    0    0  502    0  0.00000000000E+00 -0.00000000000E+00 -0.13884743998E+04  0.13884743998E+04  0.00000000000E+00 0. -1.
          6    1    1    2  502    0 -0.61973316903E+02  0.32176150724E+03 -0.10891005992E+04  0.11502587860E+04  0.17200000000E+03 0. -1.
         -6    1    1    2    0  501  0.61973316903E+02 -0.32176150724E+03 -0.14141574859E+03  0.39617366583E+03  0.17200000000E+03 0.  1.
</event>
<event>
 4    1  0.6365520E-002  0.2042931E+03  0.7818608E-02  0.1146167E+00
          1   -1    0    0  502    0  0.00000000000E+00  0.00000000000E+00  0.89838495741E+03  0.89838495741E+03  0.00000000000E+00 0. -1.
         -1   -1    0    0    0  501 -0.00000000000E+00 -0.00000000000E+00 -0.46550467640E+02  0.46550467640E+02  0.00000000000E+00 0.  1.
          6    1    1    2  502    0 -0.56087816880E+02  0.94899087066E+02  0.40467202364E+03  0.45331570307E+03  0.17200000000E+03 0.  1.
         -6    1    1    2    0  501  0.56087816880E+02 -0.94899087066E+02  0.44716246613E+03  0.49161972198E+03  0.17200000000E+03 0. -1.
</event>
<event>
 4    1  0.6365520E-002  0.2749643E+03  0.7818608E-02  0.1098472E+00
          2   -1    0    0  502    0  0.00000000000E+00  0.00000000000E+00  0.58460442250E+03  0.58460442250E+03  0.00000000000E+00 0. -1.
         -2   -1    0    0    0  501 -0.00000000000E+00 -0.00000000000E+00 -0.13642121893E+03  0.13642121893E+03  0.00000000000E+00 0.  1.
          6    1    1    2  502    0  0.17006670333E+03  0.13076200371E+03  0.30630053345E+03  0.41161317033E+03  0.17200000000E+03 0. -1.
         -6    1    1    2    0  501 -0.17006670333E+03 -0.13076200371E+03  0.14188267011E+03  0.30941247110E+03  0.17200000000E+03 0.  1.
</event>
<event>
 4    1  0.6365520E-002  0.1739336E+03  0.7818608E-02  0.1173807E+00
         -2   -1    0    0    0  501 -0.00000000000E+00  0.00000000000E+00  0.41433833027E+02  0.41433833027E+02  0.00000000000E+00 0.  1.
          2   -1    0    0  502    0  0.00000000000E+00 -0.00000000000E+00 -0.92122205304E+03  0.92122205304E+03  0.00000000000E+00 0. -1.
          6    1    1    2  502    0 -0.24703514874E+02 -0.76575067399E+01 -0.65910283178E+03  0.68166666628E+03  0.17200000000E+03 0. -1.
         -6    1    1    2    0  501  0.24703514874E+02  0.76575067399E+01 -0.22068538823E+03  0.28098921978E+03  0.17200000000E+03 0.  1.
</event>
<event>
 4    1  0.6365520E-002  0.2096134E+03  0.7818608E-02  0.1141872E+00
         -1   -1    0    0    0  501 -0.00000000000E+00  0.00000000000E+00  0.94400746593E+02  0.94400746593E+02  0.00000000000E+00 0.  1.
          1   -1    0    0  502    0  0.00000000000E+00 -0.00000000000E+00 -0.53745174173E+03  0.53745174173E+03  0.00000000000E+00 0. -1.
          6    1    1    2  502    0 -0.11606310640E+03 -0.29717781091E+02 -0.33716882346E+03  0.39701461774E+03  0.17200000000E+03 0. -1.
         -6    1    1    2    0  501  0.11606310640E+03  0.29717781091E+02 -0.10588217167E+03  0.23483787058E+03  0.17200000000E+03 0.  1.
</event>
<event>
 4    1  0.6365520E-002  0.1856340E+03  0.7818608E-02  0.1162459E+00
         -2   -1    0    0    0  501 -0.00000000000E+00  0.00000000000E+00  0.15197926000E+03  0.15197926000E+03  0.00000000000E+00 0.  1.
          2   -1    0    0  502    0  0.00000000000E+00 -0.00000000000E+00 -0.22776927859E+03  0.22776927859E+03  0.00000000000E+00 0. -1.
          6    1    1    2  502    0  0.24038085112E+02  0.65560352505E+02 -0.25139711555E+02  0.18732857351E+03  0.17200000000E+03 0.  1.
         -6    1    1    2    0  501 -0.24038085112E+02 -0.65560352505E+02 -0.50650307031E+02  0.19241996507E+03  0.17200000000E+03 0.  1.
</event>
<event>
 4    1  0.6365520E-002  0.2012172E+03  0.7818608E-02  0.1148716E+00
         -1   -1    0    0    0  501 -0.00000000000E+00  0.00000000000E+00  0.40801028395E+02  0.40801028395E+02  0.00000000000E+00 0.  1.
          1   -1    0    0  502    0  0.00000000000E+00 -0.00000000000E+00 -0.19203685852E+04  0.19203685852E+04  0.00000000000E+00 0. -1.
          6    1    1    2  502    0 -0.71672268105E+02  0.75943639154E+02 -0.16214540521E+04  0.16338915489E+04  0.17200000000E+03 0. -1.
         -6    1    1    2    0  501  0.71672268105E+02 -0.75943639154E+02 -0.25811350465E+03  0.32727806469E+03  0.17200000000E+03 0.  1.
</event>
<event>
 4    1  0.6365520E-002  0.2917052E+03  0.7818608E-02  0.1089462E+00
          4   -1    0    0  502    0  0.00000000000E+00  0.00000000000E+00  0.37447047773E+03  0.37447047773E+03  0.00000000000E+00 0. -1.
         -4   -1    0    0    0  501 -0.00000000000E+00 -0.00000000000E+00 -0.30777654053E+03  0.30777654053E+03  0.00000000000E+00 0.  1.
          6    1    1    2  502    0  0.23288162383E+03  0.35694152519E+02 -0.14115895151E+03  0.32406445784E+03  0.17200000000E+03 0. -1.
         -6    1    1    2    0  501 -0.23288162383E+03 -0.35694152519E+02  0.20785288871E+03  0.35818256042E+03  0.17200000000E+03 0.  1.
</event>
<event>
 4    1  0.6365520E-002  0.2603180E+03  0.7818608E-02  0.1106952E+00
         -2   -1    0    0    0  501 -0.00000000000E+00  0.00000000000E+00  0.22093303985E+02  0.22093303985E+02  0.00000000000E+00 0.  1.
          2   -1    0    0  502    0  0.00000000000E+00 -0.00000000000E+00 -0.30946717514E+04  0.30946717514E+04  0.00000000000E+00 0. -1.
          6    1    1    2  502    0  0.18117765287E+02 -0.19455906215E+03 -0.16830086699E+04  0.17030219215E+04  0.17200000000E+03 0. -1.
         -6    1    1    2    0  501 -0.18117765287E+02  0.19455906215E+03 -0.13895697776E+04  0.14137431339E+04  0.17200000000E+03 0. -1.
</event>
<event>
 4    1  0.6365520E-002  0.2696352E+03  0.7818608E-02  0.1101489E+00
         -2   -1    0    0    0  501 -0.00000000000E+00  0.00000000000E+00  0.73813313180E+02  0.73813313180E+02  0.00000000000E+00 0.  1.
          2   -1    0    0  502    0  0.00000000000E+00 -0.00000000000E+00 -0.99964458363E+03  0.99964458363E+03  0.00000000000E+00 0. -1.
          6    1    1    2  502    0 -0.38841451940E+02 -0.20398651695E+03 -0.52796809504E+03  0.59283510934E+03  0.17200000000E+03 0. -1.
         -6    1    1    2    0  501  0.38841451940E+02  0.20398651695E+03 -0.39786317541E+03  0.48062278747E+03  0.17200000000E+03 0.  1.
</event>
<event>
 4    1  0.6365520E-002  0.1808283E+03  0.7818608E-02  0.1167004E+00
          2   -1    0    0  502    0  0.00000000000E+00  0.00000000000E+00  0.20092892661E+04  0.20092892661E+04  0.00000000000E+00 0. -1.
         -2   -1    0    0    0  501 -0.00000000000E+00 -0.00000000000E+00 -0.16290953173E+02  0.16290953173E+02  0.00000000000E+00 0.  1.
          6    1    1    2  502    0 -0.30238376797E+02 -0.46909744274E+02  0.10293096222E+04  0.10450728118E+04  0.17200000000E+03 0. -1.
         -6    1    1    2    0  501  0.30238376797E+02  0.46909744274E+02  0.96368869068E+03  0.98050740746E+03  0.17200000000E+03 0.  1.
</event>
