<event>
 4    1  0.5801298E+000  0.1825630E+03  0.7818608E-02  0.1165345E+00
         21   -1    0    0  503  502  0.00000000000E+00  0.00000000000E+00  0.12876653545E+03  0.12876653545E+03  0.00000000000E+00 0. -1.
         21   -1    0    0  501  503 -0.00000000000E+00 -0.00000000000E+00 -0.28044953646E+03  0.28044953646E+03  0.00000000000E+00 0. -1.
          6    1    1    2  501    0  0.38854282084E+02 -0.47282031706E+02 -0.13264452256E+03  0.22566305662E+03  0.17200000000E+03 0. -1.
         -6    1    1    2    0  502 -0.38854282084E+02  0.47282031706E+02 -0.19038478453E+02  0.18355301529E+03  0.17200000000E+03 0. -1.
</event>
<event>
 4    1  0.5801298E+000  0.2481181E+03  0.7818608E-02  0.1114500E+00
         21   -1    0    0  501  502  0.00000000000E+00  0.00000000000E+00  0.77153853903E+03  0.77153853903E+03  0.00000000000E+00 0. -1.
         21   -1    0    0  502  503 -0.00000000000E+00 -0.00000000000E+00 -0.10324819357E+03  0.10324819357E+03  0.00000000000E+00 0.  1.
          6    1    1    2  501    0 -0.30427687261E+02  0.17621796490E+03  0.54262286122E+03  0.59665918649E+03  0.17200000000E+03 0.  1.
         -6    1    1    2    0  503  0.30427687261E+02 -0.17621796490E+03  0.12566748424E+03  0.27812754610E+03  0.17200000000E+03 0. -1.
</event>
<event>
 4    1  0.5801298E+000  0.1985244E+03  0.7818608E-02  0.1150990E+00
         21   -1    0    0  503  502  0.00000000000E+00  0.00000000000E+00  0.87240983424E+02  0.87240983424E+02  0.00000000000E+00 0.  1.
         21   -1    0    0  501  503 -0.00000000000E+00 -0.00000000000E+00 -0.45189037109E+03  0.45189037109E+03  0.00000000000E+00 0.  1.
          6    1    1    2  501    0 -0.83020973178E+02 -0.54179789922E+02 -0.18691442386E+03  0.27267000838E+03  0.17200000000E+03 0.  1.
         -6    1    1    2    0  502  0.83020973178E+02  0.54179789922E+02 -0.17773496380E+03  0.26646134613E+03  0.17200000000E+03 0.  1.
</event>
<event>
 4    1  0.5801298E+000  0.1735434E+03  0.7818608E-02  0.1174202E+00
         21   -1    0    0  501  502  0.00000000000E+00  0.00000000000E+00  0.31033044815E+03  0.31033044815E+03  0.00000000000E+00 0.  1.
         21   -1    0    0  502  503 -0.00000000000E+00 -0.00000000000E+00 -0.32239009087E+03  0.32239009087E+03  0.00000000000E+00 0.  1.
          6    1    1    2  501    0 -0.19532889833E+02 -0.12319425307E+02  0.25846133733E+03  0.31131907252E+03  0.17200000000E+03 0.  1.
         -6    1    1    2    0  503  0.19532889833E+02  0.12319425307E+02 -0.27052098005E+03  0.32140146650E+03  0.17200000000E+03 0.  1.
</event>
<event>
 4    1  0.5801298E+000  0.1799201E+03  0.7818608E-02  0.1167880E+00
         21   -1    0    0  503  502  0.00000000000E+00  0.00000000000E+00  0.31232647593E+03  0.31232647593E+03  0.00000000000E+00 0. -1.
         21   -1    0    0  501  503 -0.00000000000E+00 -0.00000000000E+00 -0.15899818430E+03  0.15899818430E+03  0.00000000000E+00 0. -1.
          6    1    1    2  501    0 -0.41174373863E+02  0.33044329891E+02  0.21571163110E+03  0.28089635917E+03  0.17200000000E+03 0. -1.
         -6    1    1    2    0  502  0.41174373863E+02 -0.33044329891E+02 -0.62383339477E+02  0.19042830106E+03  0.17200000000E+03 0. -1.
</event>
<event>
 4    1  0.5801298E+000  0.1782823E+03  0.7818608E-02  0.1169476E+00
         21   -1    0    0  503  502  0.00000000000E+00  0.00000000000E+00  0.39066951726E+02  0.39066951726E+02  0.00000000000E+00 0. -1.
         21   -1    0    0  501  503 -0.00000000000E+00 -0.00000000000E+00 -0.13737380595E+04  0.13737380595E+04  0.00000000000E+00 0. -1.
          6    1    1    2  501    0 -0.27498545440E+02 -0.38005150313E+02 -0.11184127662E+04  0.11325333007E+04  0.17200000000E+03 0. -1.
         -6    1    1    2    0  502  0.27498545440E+02  0.38005150313E+02 -0.21625834153E+03  0.28027171055E+03  0.17200000000E+03 0. -1.
</event>
<event>
 4    1  0.5801298E+000  0.2550951E+03  0.7818608E-02  0.1110127E+00
         21   -1    0    0  503  502  0.00000000000E+00  0.00000000000E+00  0.40293960591E+02  0.40293960591E+02  0.00000000000E+00 0. -1.
         21   -1    0    0  501  503 -0.00000000000E+00 -0.00000000000E+00 -0.16180344526E+04  0.16180344526E+04  0.00000000000E+00 0.  1.
          6    1    1    2  501    0  0.71979685826E+02 -0.17409315468E+03 -0.75278030502E+03  0.79482808790E+03  0.17200000000E+03 0.  1.
         -6    1    1    2    0  502 -0.71979685826E+02  0.17409315468E+03 -0.82496018703E+03  0.86350032534E+03  0.17200000000E+03 0. -1.
</event>
<event>
 4    1  0.5801298E+000  0.2220013E+03  0.7818608E-02  0.1132400E+00
         21   -1    0    0  501  502  0.00000000000E+00  0.00000000000E+00  0.11354466961E+03  0.11354466961E+03  0.00000000000E+00 0. -1.
         21   -1    0    0  502  503 -0.00000000000E+00 -0.00000000000E+00 -0.44620237980E+03  0.44620237980E+03  0.00000000000E+00 0.  1.
          6    1    1    2  501    0  0.10666269352E+03 -0.91233960750E+02 -0.12014953464E+03  0.25242915136E+03  0.17200000000E+03 0. -1.
         -6    1    1    2    0  503 -0.10666269352E+03  0.91233960750E+02 -0.21250817555E+03  0.30731789804E+03  0.17200000000E+03 0. -1.
</event>
<event>
 4    1  0.5801298E+000  0.2003376E+03  0.7818608E-02  0.1149455E+00
         21   -1    0    0  503  502  0.00000000000E+00  0.00000000000E+00  0.52662827866E+03  0.52662827866E+03  0.00000000000E+00 0. -1.
         21   -1    0    0  501  503 -0.00000000000E+00 -0.00000000000E+00 -0.98357241479E+02  0.98357241479E+02  0.00000000000E+00 0. -1.
          6    1    1    2  501    0 -0.67810007421E+02 -0.77155361072E+02  0.65855849272E+02  0.21088418559E+03  0.17200000000E+03 0. -1.
         -6    1    1    2    0  502  0.67810007421E+02  0.77155361072E+02  0.36241518791E+03  0.41410133455E+03  0.17200000000E+03 0. -1.
</event>
<event>
 4    1  0.5801298E+000  0.2007530E+03  0.7818608E-02  0.1149105E+00
         21   -1    0    0  501  502  0.00000000000E+00  0.00000000000E+00  0.80665436320E+02  0.80665436320E+02  0.00000000000E+00 0.  1.
         21   -1    0    0  502  503 -0.00000000000E+00 -0.00000000000E+00 -0.51165916366E+03  0.51165916366E+03  0.00000000000E+00 0.  1.
          6    1    1    2  501    0  0.10260766126E+02  0.10301684430E+03 -0.17006011426E+03  0.26310111363E+03  0.17200000000E+03 0. -1.
         -6    1    1    2    0  503 -0.10260766126E+02 -0.10301684430E+03 -0.26093361308E+03  0.32922348635E+03  0.17200000000E+03 0. -1.
</event>
<event>
 4    1  0.5801298E+000  0.1741888E+03  0.7818608E-02  0.1173549E+00
         21   -1    0    0  501  502  0.00000000000E+00  0.00000000000E+00  0.17449181992E+04  0.17449181992E+04  0.00000000000E+00 0.  1.
         21   -1    0    0  502  503 -0.00000000000E+00 -0.00000000000E+00 -0.50654252519E+03  0.50654252519E+03  0.00000000000E+00 0.  1.
          6    1    1    2  501    0 -0.25319705482E+02 -0.10799718115E+02  0.17254273997E+04  0.17341976338E+04  0.17200000000E+03 0.  1.
         -6    1    1    2    0  503  0.25319705482E+02  0.10799718115E+02 -0.48705172569E+03  0.51726309060E+03  0.17200000000E+03 0.  1.
</event>
<event>
 4    1  0.5801298E+000  0.1890552E+03  0.7818608E-02  0.1159316E+00
         21   -1    0    0  503  502  0.00000000000E+00  0.00000000000E+00  0.92435110597E+03  0.92435110597E+03  0.00000000000E+00 0.  1.
         21   -1    0    0  501  503 -0.00000000000E+00 -0.00000000000E+00 -0.54181600224E+02  0.54181600224E+02  0.00000000000E+00 0.  1.
          6    1    1    2  501    0  0.63961659321E+02  0.45461806433E+02  0.17327251020E+03  0.25644732890E+03  0.17200000000E+03 0.  1.
         -6    1    1    2    0  502 -0.63961659321E+02 -0.45461806433E+02  0.69689699554E+03  0.72208537730E+03  0.17200000000E+03 0.  1.
</event>
<event>
 4    1  0.5801298E+000  0.2253949E+03  0.7818608E-02  0.1129924E+00
         21   -1    0    0  501  502  0.00000000000E+00  0.00000000000E+00  0.17541533600E+04  0.17541533600E+04  0.00000000000E+00 0.  1.
         21   -1    0    0  502  503 -0.00000000000E+00 -0.00000000000E+00 -0.35780898718E+02  0.35780898718E+02  0.00000000000E+00 0. -1.
          6    1    1    2  501    0 -0.14014737861E+03 -0.39718412723E+02  0.12498973941E+04  0.12700576112E+04  0.17200000000E+03 0.  1.
         -6    1    1    2    0  503  0.14014737861E+03  0.39718412723E+02  0.46847506715E+03  0.51987664747E+03  0.17200000000E+03 0. -1.
</event>
<event>
 4    1  0.5801298E+000  0.2138860E+03  0.7818608E-02  0.1138525E+00
         21   -1    0    0  503  502  0.00000000000E+00  0.00000000000E+00  0.14623061973E+04  0.14623061973E+04  0.00000000000E+00 0.  1.
         21   -1    0    0  501  503 -0.00000000000E+00 -0.00000000000E+00 -0.67505597732E+02  0.67505597732E+02  0.00000000000E+00 0. -1.
          6    1    1    2  501    0 -0.11058885724E+03  0.62716294100E+02  0.13710096598E+03  0.25405492273E+03  0.17200000000E+03 0. -1.
         -6    1    1    2    0  502  0.11058885724E+03 -0.62716294100E+02  0.12576996336E+04  0.12757568723E+04  0.17200000000E+03 0.  1.
</event>
<event>
 4    1  0.5801298E+000  0.1748116E+03  0.7818608E-02  0.1172921E+00
         21   -1    0    0  503  502  0.00000000000E+00  0.00000000000E+00  0.35816889030E+03  0.35816889030E+03  0.00000000000E+00 0. -1.
         21   -1    0    0  501  503 -0.00000000000E+00 -0.00000000000E+00 -0.14681441318E+03  0.14681441318E+03  0.00000000000E+00 0. -1.
          6    1    1    2  501    0 -0.12598748451E+02 -0.28572115124E+02 -0.57733005971E+02  0.18409832754E+03  0.17200000000E+03 0. -1.
         -6    1    1    2    0  502  0.12598748451E+02  0.28572115124E+02  0.26908748309E+03  0.32088497593E+03  0.17200000000E+03 0. -1.
</event>
<event>
 4    1  0.5801298E+000  0.2221983E+03  0.7818608E-02  0.1132255E+00
         21   -1    0    0  501  502  0.00000000000E+00  0.00000000000E+00  0.18919500152E+03  0.18919500152E+03  0.00000000000E+00 0.  1.
         21   -1    0    0  502  503 -0.00000000000E+00 -0.00000000000E+00 -0.27201756941E+03  0.27201756941E+03  0.00000000000E+00 0. -1.
          6    1    1    2  501    0  0.61544822671E+02 -0.12649244321E+03  0.50858057466E+01  0.22225653828E+03  0.17200000000E+03 0.  1.
         -6    1    1    2    0  503 -0.61544822671E+02  0.12649244321E+03 -0.87908373641E+02  0.23895603266E+03  0.17200000000E+03 0. -1.
</event>
<event>
 4    1  0.5801298E+000  0.1751851E+03  0.7818608E-02  0.1172546E+00
         21   -1    0    0  503  502  0.00000000000E+00  0.00000000000E+00  0.59778698032E+03  0.59778698032E+03  0.00000000000E+00 0.  1.
         21   -1    0    0  501  503 -0.00000000000E+00 -0.00000000000E+00 -0.77030891256E+02  0.77030891256E+02  0.00000000000E+00 0.  1.
          6    1    1    2  501    0  0.38137841532E+00  0.33251776457E+02  0.65518543372E+02  0.18703610778E+03  0.17200000000E+03 0.  1.
         -6    1    1    2    0  502 -0.38137841532E+00 -0.33251776457E+02  0.45523754569E+03  0.48778176380E+03  0.17200000000E+03 0.  1.
</event>
<event>
 4    1  0.5801298E+000  0.3048501E+03  0.7818608E-02  0.1082841E+00
         21   -1    0    0  503  502  0.00000000000E+00  0.00000000000E+00  0.42914587826E+03  0.42914587826E+03  0.00000000000E+00 0. -1.
         21   -1    0    0  501  503 -0.00000000000E+00 -0.00000000000E+00 -0.24268050750E+03  0.24268050750E+03  0.00000000000E+00 0. -1.
          6    1    1    2  501    0  0.45246108644E+02  0.24759317046E+03 -0.16983116636E+02  0.30532280402E+03  0.17200000000E+03 0. -1.
         -6    1    1    2    0  502 -0.45246108644E+02 -0.24759317046E+03  0.20344848739E+03  0.36650358174E+03  0.17200000000E+03 0. -1.
</event>
<event>
 4    1  0.5801298E+000  0.1861763E+03  0.7818608E-02  0.1161956E+00
         21   -1    0    0  501  502  0.00000000000E+00  0.00000000000E+00  0.22840881927E+04  0.22840881927E+04  0.00000000000E+00 0.  1.
         21   -1    0    0  502  503 -0.00000000000E+00 -0.00000000000E+00 -0.38763881817E+02  0.38763881817E+02  0.00000000000E+00 0.  1.
          6    1    1    2  501    0  0.66883960819E+02  0.24579569340E+02  0.20286643773E+04  0.20371894303E+04  0.17200000000E+03 0.  1.
         -6    1    1    2    0  503 -0.66883960819E+02 -0.24579569340E+02  0.21665993356E+03  0.28566264414E+03  0.17200000000E+03 0.  1.
</event>
<event>
 4    1  0.5801298E+000  0.2082010E+03  0.7818608E-02  0.1142999E+00
         21   -1    0    0  501  502  0.00000000000E+00  0.00000000000E+00  0.40541704841E+03  0.40541704841E+03  0.00000000000E+00 0.  1.
         21   -1    0    0  502  503 -0.00000000000E+00 -0.00000000000E+00 -0.11250782944E+03  0.11250782944E+03  0.00000000000E+00 0.  1.
          6    1    1    2  501    0 -0.13060079912E+02  0.11658933164E+03  0.20416102673E+03  0.29159794714E+03  0.17200000000E+03 0.  1.
         -6    1    1    2    0  503  0.13060079912E+02 -0.11658933164E+03  0.88748192243E+02  0.22632693071E+03  0.17200000000E+03 0.  1.
</event>
<event>
 4    1  0.5801298E+000  0.1860974E+03  0.7818608E-02  0.1162029E+00
         21   -1    0    0  501  502  0.00000000000E+00  0.00000000000E+00  0.23925911072E+03  0.23925911072E+03  0.00000000000E+00 0.  1.
         21   -1    0    0  502  503 -0.00000000000E+00 -0.00000000000E+00 -0.19183345081E+03  0.19183345081E+03  0.00000000000E+00 0.  1.
          6    1    1    2  501    0  0.16508052556E+02 -0.69106701665E+02  0.13050077432E+03  0.22729431166E+03  0.17200000000E+03 0.  1.
         -6    1    1    2    0  503 -0.16508052556E+02  0.69106701665E+02 -0.83075114413E+02  0.20379824987E+03  0.17200000000E+03 0.  1.
</event>
<event>
 4    1  0.5801298E+000  0.2371124E+03  0.7818608E-02  0.1121732E+00
         21   -1    0    0  503  502  0.00000000000E+00  0.00000000000E+00  0.12084812487E+03  0.12084812487E+03  0.00000000000E+00 0. -1.
         21   -1    0    0  501  503 -0.00000000000E+00 -0.00000000000E+00 -0.46589667953E+03  0.46589667953E+03  0.00000000000E+00 0.  1.
          6    1    1    2  501    0 -0.65989816444E+02  0.14927711172E+03 -0.16143614216E+03  0.28685177349E+03  0.17200000000E+03 0. -1.
         -6    1    1    2    0  502  0.65989816444E+02 -0.14927711172E+03 -0.18361241251E+03  0.29989303091E+03  0.17200000000E+03 0.  1.
</event>
<event>
 4    1  0.5801298E+000  0.2119199E+03  0.7818608E-02  0.1140055E+00
         21   -1    0    0  501  502  0.00000000000E+00  0.00000000000E+00  0.25963760975E+03  0.25963760975E+03  0.00000000000E+00 0.  1.
         21   -1    0    0  502  503 -0.00000000000E+00 -0.00000000000E+00 -0.18285386426E+03  0.18285386426E+03  0.00000000000E+00 0. -1.
          6    1    1    2  501    0 -0.69656396106E+02 -0.10234269031E+03  0.89824891596E+02  0.23017069954E+03  0.17200000000E+03 0.  1.
         -6    1    1    2    0  503  0.69656396106E+02  0.10234269031E+03 -0.13041146104E+02  0.21232077447E+03  0.17200000000E+03 0. -1.
</event>
<event>
 4    1  0.5801298E+000  0.2298290E+03  0.7818608E-02  0.1126760E+00
         21   -1    0    0  503  502  0.00000000000E+00  0.00000000000E+00  0.20393027165E+02  0.20393027165E+02  0.00000000000E+00 0.  1.
         21   -1    0    0  501  503 -0.00000000000E+00 -0.00000000000E+00 -0.26122925635E+04  0.26122925635E+04  0.00000000000E+00 0.  1.
          6    1    1    2  501    0 -0.15019202948E+03  0.26071609373E+02 -0.11748086641E+04  0.11970784317E+04  0.17200000000E+03 0.  1.
         -6    1    1    2    0  502  0.15019202948E+03 -0.26071609373E+02 -0.14170908723E+04  0.14356071590E+04  0.17200000000E+03 0.  1.
</event>
<event>
 4    1  0.5801298E+000  0.2196627E+03  0.7818608E-02  0.1134135E+00
         21   -1    0    0  503  502  0.00000000000E+00  0.00000000000E+00  0.10125775721E+03  0.10125775721E+03  0.00000000000E+00 0. -1.
         21   -1    0    0  501  503 -0.00000000000E+00 -0.00000000000E+00 -0.51383884194E+03  0.51383884194E+03  0.00000000000E+00 0. -1.
          6    1    1    2  501    0 -0.10466447648E+03  0.87823866465E+02 -0.28916954919E+03  0.36314007261E+03  0.17200000000E+03 0.  1.
         -6    1    1    2    0  502  0.10466447648E+03 -0.87823866465E+02 -0.12341153554E+03  0.25195652653E+03  0.17200000000E+03 0.  1.
</event>
<event>
 4    1  0.5801298E+000  0.1918089E+03  0.7818608E-02  0.1156840E+00
         21   -1    0    0  503  502  0.00000000000E+00  0.00000000000E+00  0.51204075053E+03  0.51204075053E+03  0.00000000000E+00 0. -1.
         21   -1    0    0  501  503 -0.00000000000E+00 -0.00000000000E+00 -0.11078959265E+03  0.11078959265E+03  0.00000000000E+00 0. -1.
          6    1    1    2  501    0 -0.32387158609E+02 -0.78471234500E+02  0.16004977263E+02  0.19247551009E+03  0.17200000000E+03 0. -1.
         -6    1    1    2    0  502  0.32387158609E+02  0.78471234500E+02  0.38524618062E+03  0.43035483309E+03  0.17200000000E+03 0. -1.
</event>
<event>
 4    1  0.5801298E+000  0.2158497E+03  0.7818608E-02  0.1137016E+00
         21   -1    0    0  501  502  0.00000000000E+00  0.00000000000E+00  0.14731742792E+04  0.14731742792E+04  0.00000000000E+00 0. -1.
         21   -1    0    0  502  503 -0.00000000000E+00 -0.00000000000E+00 -0.65148907895E+02  0.65148907895E+02  0.00000000000E+00 0. -1.
          6    1    1    2  501    0 -0.18299775638E+02 -0.12912092056E+03  0.12557504790E+04  0.12741665352E+04  0.17200000000E+03 0. -1.
         -6    1    1    2    0  503  0.18299775638E+02  0.12912092056E+03  0.15227489231E+03  0.26415665190E+03  0.17200000000E+03 0. -1.
</event>
<event>
 4    1  0.5801298E+000  0.1878956E+03  0.7818608E-02  0.1160373E+00
         21   -1    0    0  501  502  0.00000000000E+00  0.00000000000E+00  0.48698401668E+02  0.48698401668E+02  0.00000000000E+00 0. -1.
         21   -1    0    0  502  503 -0.00000000000E+00 -0.00000000000E+00 -0.12446710617E+04  0.12446710617E+04  0.00000000000E+00 0. -1.
          6    1    1    2  501    0 -0.72672377050E+02 -0.20963515392E+02 -0.18011431466E+03  0.26028044435E+03  0.17200000000E+03 0. -1.
         -6    1    1    2    0  503  0.72672377050E+02  0.20963515392E+02 -0.10158583454E+04  0.10330890190E+04  0.17200000000E+03 0. -1.
</event>
<event>
 4    1  0.5801298E+000  0.2195292E+03  0.7818608E-02  0.1134235E+00
         21   -1    0    0  503  502  0.00000000000E+00  0.00000000000E+00  0.64385685336E+03  0.64385685336E+03  0.00000000000E+00 0.  1.
         21   -1    0    0  501  503 -0.00000000000E+00 -0.00000000000E+00 -0.20388248779E+03  0.20388248779E+03  0.00000000000E+00 0. -1.
          6    1    1    2  501    0  0.13626109004E+03 -0.64804121121E+01 -0.11721539292E+03  0.24886246952E+03  0.17200000000E+03 0. -1.
         -6    1    1    2    0  502 -0.13626109004E+03  0.64804121121E+01  0.55718975849E+03  0.59887687162E+03  0.17200000000E+03 0.  1.
</event>
<event>
 4    1  0.5801298E+000  0.1908159E+03  0.7818608E-02  0.1157728E+00
         21   -1    0    0  501  502  0.00000000000E+00  0.00000000000E+00  0.11210257895E+04  0.11210257895E+04  0.00000000000E+00 0. -1.
         21   -1    0    0  502  503 -0.00000000000E+00 -0.00000000000E+00 -0.33393101545E+02  0.33393101545E+02  0.00000000000E+00 0. -1.
          6    1    1    2  501    0  0.82179780088E+02  0.85549513761E+01  0.63927383677E+03  0.66714446848E+03  0.17200000000E+03 0. -1.
         -6    1    1    2    0  503 -0.82179780088E+02 -0.85549513761E+01  0.44835885120E+03  0.48727442258E+03  0.17200000000E+03 0. -1.
</event>
<event>
 4    1  0.5801298E+000  0.3430921E+03  0.7818608E-02  0.1065487E+00
         21   -1    0    0  501  502  0.00000000000E+00  0.00000000000E+00  0.22344706293E+03  0.22344706293E+03  0.00000000000E+00 0. -1.
         21   -1    0    0  502  503 -0.00000000000E+00 -0.00000000000E+00 -0.53026682386E+03  0.53026682386E+03  0.00000000000E+00 0. -1.
          6    1    1    2  501    0  0.29665965620E+03  0.11011773857E+02 -0.12294414811E+03  0.36445503747E+03  0.17200000000E+03 0. -1.
         -6    1    1    2    0  503 -0.29665965620E+03 -0.11011773857E+02 -0.18387561282E+03  0.38925884932E+03  0.17200000000E+03 0. -1.
</event>
<event>
 4    1  0.5801298E+000  0.1814656E+03  0.7818608E-02  0.1166392E+00
         21   -1    0    0  501  502  0.00000000000E+00  0.00000000000E+00  0.38209646077E+03  0.38209646077E+03  0.00000000000E+00 0.  1.
         21   -1    0    0  502  503 -0.00000000000E+00 -0.00000000000E+00 -0.10583979612E+03  0.10583979612E+03  0.00000000000E+00 0.  1.
          6    1    1    2  501    0  0.46921218540E+02  0.33825450941E+02  0.32985859345E+02  0.18443922792E+03  0.17200000000E+03 0.  1.
         -6    1    1    2    0  503 -0.46921218540E+02 -0.33825450941E+02  0.24327080530E+03  0.30349702897E+03  0.17200000000E+03 0.  1.
</event>
<event>
 4    1  0.5801298E+000  0.1809142E+03  0.7818608E-02  0.1166921E+00
         21   -1    0    0  501  502  0.00000000000E+00  0.00000000000E+00  0.47547920268E+02  0.47547920268E+02  0.00000000000E+00 0.  1.
         21   -1    0    0  502  503 -0.00000000000E+00 -0.00000000000E+00 -0.70951333027E+03  0.70951333027E+03  0.00000000000E+00 0.  1.
          6    1    1    2  501    0 -0.35542476603E+02  0.43389732447E+02 -0.26561812552E+03  0.32137660949E+03  0.17200000000E+03 0.  1.
         -6    1    1    2    0  503  0.35542476603E+02 -0.43389732447E+02 -0.39634728448E+03  0.43568464105E+03  0.17200000000E+03 0.  1.
</event>
<event>
 4    1  0.5801298E+000  0.2124333E+03  0.7818608E-02  0.1139653E+00
         21   -1    0    0  501  502  0.00000000000E+00  0.00000000000E+00  0.17536143122E+03  0.17536143122E+03  0.00000000000E+00 0. -1.
         21   -1    0    0  502  503 -0.00000000000E+00 -0.00000000000E+00 -0.47738900343E+03  0.47738900343E+03  0.00000000000E+00 0. -1.
          6    1    1    2  501    0  0.38266930611E+02  0.11865720664E+03  0.70570283042E+02  0.22384828683E+03  0.17200000000E+03 0.  1.
         -6    1    1    2    0  503 -0.38266930611E+02 -0.11865720664E+03 -0.37259785525E+03  0.42890214782E+03  0.17200000000E+03 0.  1.
</event>
<event>
 4    1  0.5801298E+000  0.1919698E+03  0.7818608E-02  0.1156697E+00
         21   -1    0    0  503  502  0.00000000000E+00  0.00000000000E+00  0.14095325658E+02  0.14095325658E+02  0.00000000000E+00 0. -1.
         21   -1    0    0  501  503 -0.00000000000E+00 -0.00000000000E+00 -0.26433877955E+04  0.26433877955E+04  0.00000000000E+00 0. -1.
          6    1    1    2  501    0  0.42545483748E+02 -0.73880334931E+02 -0.11757743748E+04  0.11913428568E+04  0.17200000000E+03 0.  1.
         -6    1    1    2    0  502 -0.42545483748E+02  0.73880334931E+02 -0.14535180951E+04  0.14661402643E+04  0.17200000000E+03 0.  1.
</event>
<event>
 4    1  0.5801298E+000  0.2364068E+03  0.7818608E-02  0.1122210E+00
         21   -1    0    0  503  502  0.00000000000E+00  0.00000000000E+00  0.19606728884E+04  0.19606728884E+04  0.00000000000E+00 0.  1.
         21   -1    0    0  501  503 -0.00000000000E+00 -0.00000000000E+00 -0.29867841695E+02  0.29867841695E+02  0.00000000000E+00 0. -1.
          6    1    1    2  501    0 -0.72067557610E+01 -0.16202543282E+03  0.75277128828E+03  0.78902014592E+03  0.17200000000E+03 0. -1.
         -6    1    1    2    0  502  0.72067557610E+01  0.16202543282E+03  0.11780337584E+04  0.12015205842E+04  0.17200000000E+03 0. -1.
</event>
<event>
 4    1  0.5801298E+000  0.2782451E+03  0.7818608E-02  0.1096651E+00
         21   -1    0    0  503  502  0.00000000000E+00  0.00000000000E+00  0.77897588743E+03  0.77897588743E+03  0.00000000000E+00 0.  1.
         21   -1    0    0  501  503 -0.00000000000E+00 -0.00000000000E+00 -0.10034517202E+03  0.10034517202E+03  0.00000000000E+00 0. -1.
          6    1    1    2  501    0  0.17935294702E+03 -0.12517532876E+03  0.29636037219E+03  0.40650930215E+03  0.17200000000E+03 0. -1.
         -6    1    1    2    0  502 -0.17935294702E+03  0.12517532876E+03  0.38227034322E+03  0.47281175730E+03  0.17200000000E+03 0.  1.
</event>
<event>
 4    1  0.5801298E+000  0.1834349E+03  0.7818608E-02  0.1164520E+00
         21   -1    0    0  501  502  0.00000000000E+00  0.00000000000E+00  0.33238741476E+03  0.33238741476E+03  0.00000000000E+00 0. -1.
         21   -1    0    0  502  503 -0.00000000000E+00 -0.00000000000E+00 -0.10179890712E+03  0.10179890712E+03  0.00000000000E+00 0. -1.
          6    1    1    2  501    0 -0.63699744918E+02  0.25884986269E+01  0.99098621515E+02  0.20849195336E+03  0.17200000000E+03 0. -1.
         -6    1    1    2    0  503  0.63699744918E+02 -0.25884986269E+01  0.13148988613E+03  0.22569436852E+03  0.17200000000E+03 0. -1.
</event>
<event>
 4    1  0.5801298E+000  0.2535574E+03  0.7818608E-02  0.1111077E+00
         21   -1    0    0  501  502  0.00000000000E+00  0.00000000000E+00  0.11666853767E+03  0.11666853767E+03  0.00000000000E+00 0.  1.
         21   -1    0    0  502  503 -0.00000000000E+00 -0.00000000000E+00 -0.55399636428E+03  0.55399636428E+03  0.00000000000E+00 0.  1.
          6    1    1    2  501    0 -0.18613398672E+03  0.78421462872E+01 -0.19425043337E+03  0.31941288505E+03  0.17200000000E+03 0.  1.
         -6    1    1    2    0  503  0.18613398672E+03 -0.78421462872E+01 -0.24307739324E+03  0.35125201690E+03  0.17200000000E+03 0.  1.
</event>
<event>
 4    1  0.5801298E+000  0.2007812E+03  0.7818608E-02  0.1149082E+00
         21   -1    0    0  501  502  0.00000000000E+00  0.00000000000E+00  0.61542713611E+02  0.61542713611E+02  0.00000000000E+00 0. -1.
         21   -1    0    0  502  503 -0.00000000000E+00 -0.00000000000E+00 -0.65555414749E+03  0.65555414749E+03  0.00000000000E+00 0.  1.
          6    1    1    2  501    0  0.65787473530E+02 -0.80006820263E+02 -0.30702410944E+03  0.36684722534E+03  0.17200000000E+03 0.  1.
         -6    1    1    2    0  503 -0.65787473530E+02  0.80006820263E+02 -0.28698732444E+03  0.35024963576E+03  0.17200000000E+03 0.  1.
</event>
<event>
 4    1  0.5801298E+000  0.1726677E+03  0.7818608E-02  0.1175094E+00
         21   -1    0    0  501  502  0.00000000000E+00  0.00000000000E+00  0.20042119061E+03  0.20042119061E+03  0.00000000000E+00 0. -1.
         21   -1    0    0  502  503 -0.00000000000E+00 -0.00000000000E+00 -0.16108696566E+03  0.16108696566E+03  0.00000000000E+00 0. -1.
          6    1    1    2  501    0 -0.11080609198E+02 -0.10362005285E+02  0.69674066448E+02  0.18619513041E+03  0.17200000000E+03 0.  1.
         -6    1    1    2    0  503  0.11080609198E+02  0.10362005285E+02 -0.30339841503E+02  0.17531302586E+03  0.17200000000E+03 0.  1.
</event>
<event>
 4    1  0.5801298E+000  0.1863166E+03  0.7818608E-02  0.1161826E+00
         21   -1    0    0  501  502  0.00000000000E+00  0.00000000000E+00  0.19084278107E+03  0.19084278107E+03  0.00000000000E+00 0. -1.
         21   -1    0    0  502  503 -0.00000000000E+00 -0.00000000000E+00 -0.29879983100E+03  0.29879983100E+03  0.00000000000E+00 0. -1.
          6    1    1    2  501    0  0.45908015278E+02  0.54975714742E+02  0.99154948119E+02  0.21105823560E+03  0.17200000000E+03 0. -1.
         -6    1    1    2    0  503 -0.45908015278E+02 -0.54975714742E+02 -0.20711199805E+03  0.27858437647E+03  0.17200000000E+03 0. -1.
</event>
<event>
 4    1  0.5801298E+000  0.3021853E+03  0.7818608E-02  0.1084153E+00
         21   -1    0    0  503  502  0.00000000000E+00  0.00000000000E+00  0.22681171593E+04  0.22681171593E+04  0.00000000000E+00 0. -1.
         21   -1    0    0  501  503 -0.00000000000E+00 -0.00000000000E+00 -0.61340586136E+02  0.61340586136E+02  0.00000000000E+00 0. -1.
          6    1    1    2  501    0  0.13264898451E+03 -0.21008623801E+03  0.42060162375E+03  0.51790125159E+03  0.17200000000E+03 0. -1.
         -6    1    1    2    0  502 -0.13264898451E+03  0.21008623801E+03  0.17861749494E+04  0.18115564939E+04  0.17200000000E+03 0. -1.
</event>
<event>
 4    1  0.5801298E+000  0.2065726E+03  0.7818608E-02  0.1144309E+00
         21   -1    0    0  501  502  0.00000000000E+00  0.00000000000E+00  0.76556527598E+03  0.76556527598E+03  0.00000000000E+00 0.  1.
         21   -1    0    0  502  503 -0.00000000000E+00 -0.00000000000E+00 -0.56085550557E+02  0.56085550557E+02  0.00000000000E+00 0. -1.
          6    1    1    2  501    0 -0.11355741406E+03  0.13891175771E+02  0.38700851312E+03  0.43868877383E+03  0.17200000000E+03 0. -1.
         -6    1    1    2    0  503  0.11355741406E+03 -0.13891175771E+02  0.32247121230E+03  0.38296205271E+03  0.17200000000E+03 0. -1.
</event>
<event>
 4    1  0.5801298E+000  0.2094469E+03  0.7818608E-02  0.1142005E+00
         21   -1    0    0  501  502  0.00000000000E+00  0.00000000000E+00  0.72272015638E+03  0.72272015638E+03  0.00000000000E+00 0. -1.
         21   -1    0    0  502  503 -0.00000000000E+00 -0.00000000000E+00 -0.63473568325E+02  0.63473568325E+02  0.00000000000E+00 0.  1.
          6    1    1    2  501    0  0.93504678404E+02  0.74437045888E+02  0.41181789424E+03  0.46201945489E+03  0.17200000000E+03 0. -1.
         -6    1    1    2    0  503 -0.93504678404E+02 -0.74437045888E+02  0.24742869381E+03  0.32417426981E+03  0.17200000000E+03 0. -1.
</event>
<event>
 4    1  0.5801298E+000  0.1722830E+03  0.7818608E-02  0.1175488E+00
         21   -1    0    0  503  502  0.00000000000E+00  0.00000000000E+00  0.67262086972E+02  0.67262086972E+02  0.00000000000E+00 0. -1.
         21   -1    0    0  501  503 -0.00000000000E+00 -0.00000000000E+00 -0.20073172858E+04  0.20073172858E+04  0.00000000000E+00 0. -1.
          6    1    1    2  501    0 -0.95982040339E+01 -0.23055213307E+01 -0.18862334072E+04  0.18940849790E+04  0.17200000000E+03 0. -1.
         -6    1    1    2    0  502  0.95982040339E+01  0.23055213307E+01 -0.53821791600E+02  0.18049439382E+03  0.17200000000E+03 0. -1.
</event>
<event>
 4    1  0.5801298E+000  0.1811315E+03  0.7818608E-02  0.1166712E+00
         21   -1    0    0  503  502  0.00000000000E+00  0.00000000000E+00  0.48793530234E+03  0.48793530234E+03  0.00000000000E+00 0. -1.
         21   -1    0    0  501  503 -0.00000000000E+00 -0.00000000000E+00 -0.82754234132E+02  0.82754234132E+02  0.00000000000E+00 0. -1.
          6    1    1    2  501    0 -0.19999649669E+02 -0.53147356879E+02  0.79040163633E+02  0.19762584598E+03  0.17200000000E+03 0. -1.
         -6    1    1    2    0  502  0.19999649669E+02  0.53147356879E+02  0.32614090458E+03  0.37306369050E+03  0.17200000000E+03 0. -1.
</event>
<event>
 4    1  0.5801298E+000  0.2516182E+03  0.7818608E-02  0.1112286E+00
         21   -1    0    0  501  502  0.00000000000E+00  0.00000000000E+00  0.55106776347E+03  0.55106776347E+03  0.00000000000E+00 0. -1.
         21   -1    0    0  502  503 -0.00000000000E+00 -0.00000000000E+00 -0.16113708277E+03  0.16113708277E+03  0.00000000000E+00 0. -1.
          6    1    1    2  501    0 -0.17932106713E+03 -0.39644426397E+02  0.38574109642E+03  0.46055175510E+03  0.17200000000E+03 0. -1.
         -6    1    1    2    0  503  0.17932106713E+03  0.39644426397E+02  0.41895842763E+01  0.25165309113E+03  0.17200000000E+03 0. -1.
</event>
<event>
 4    1  0.5801298E+000  0.1843064E+03  0.7818608E-02  0.1163699E+00
         21   -1    0    0  503  502  0.00000000000E+00  0.00000000000E+00  0.13371599924E+03  0.13371599924E+03  0.00000000000E+00 0.  1.
         21   -1    0    0  501  503 -0.00000000000E+00 -0.00000000000E+00 -0.64422772478E+03  0.64422772478E+03  0.00000000000E+00 0.  1.
          6    1    1    2  501    0  0.65900708257E+02  0.64773204148E+01 -0.55797282214E+03  0.58762447981E+03  0.17200000000E+03 0.  1.
         -6    1    1    2    0  502 -0.65900708257E+02 -0.64773204148E+01  0.47461096598E+02  0.19031924422E+03  0.17200000000E+03 0.  1.
</event>
<event>
 4    1  0.5801298E+000  0.2283844E+03  0.7818608E-02  0.1127782E+00
         21   -1    0    0  501  502  0.00000000000E+00  0.00000000000E+00  0.53658231858E+03  0.53658231858E+03  0.00000000000E+00 0. -1.
         21   -1    0    0  502  503 -0.00000000000E+00 -0.00000000000E+00 -0.10609387901E+03  0.10609387901E+03  0.00000000000E+00 0.  1.
          6    1    1    2  501    0 -0.90994000058E+02  0.11956387472E+03  0.12224108752E+03  0.25904113894E+03  0.17200000000E+03 0.  1.
         -6    1    1    2    0  503  0.90994000058E+02 -0.11956387472E+03  0.30824735204E+03  0.38363505865E+03  0.17200000000E+03 0. -1.
</event>
<event>
 4    1  0.5801298E+000  0.1837018E+03  0.7818608E-02  0.1164268E+00
         21   -1    0    0  503  502  0.00000000000E+00  0.00000000000E+00  0.10561916768E+03  0.10561916768E+03  0.00000000000E+00 0.  1.
         21   -1    0    0  501  503 -0.00000000000E+00 -0.00000000000E+00 -0.10906122071E+04  0.10906122071E+04  0.00000000000E+00 0.  1.
          6    1    1    2  501    0  0.28136192534E+02 -0.58057856574E+02 -0.99542478363E+03  0.10122335995E+04  0.17200000000E+03 0.  1.
         -6    1    1    2    0  502 -0.28136192534E+02  0.58057856574E+02  0.10431744175E+02  0.18399777533E+03  0.17200000000E+03 0.  1.
</event>
<event>
 4    1  0.5801298E+000  0.2541050E+03  0.7818608E-02  0.1110738E+00
         21   -1    0    0  503  502  0.00000000000E+00  0.00000000000E+00  0.34860168708E+03  0.34860168708E+03  0.00000000000E+00 0. -1.
         21   -1    0    0  501  503 -0.00000000000E+00 -0.00000000000E+00 -0.20935977299E+03  0.20935977299E+03  0.00000000000E+00 0.  1.
          6    1    1    2  501    0 -0.17673205236E+03  0.61246613077E+02 -0.25102827980E+02  0.25534196270E+03  0.17200000000E+03 0.  1.
         -6    1    1    2    0  502  0.17673205236E+03 -0.61246613077E+02  0.16434474207E+03  0.30261949737E+03  0.17200000000E+03 0. -1.
</event>
<event>
 4    1  0.5801298E+000  0.2085965E+03  0.7818608E-02  0.1142682E+00
         21   -1    0    0  501  502  0.00000000000E+00  0.00000000000E+00  0.17109228856E+04  0.17109228856E+04  0.00000000000E+00 0. -1.
         21   -1    0    0  502  503 -0.00000000000E+00 -0.00000000000E+00 -0.26296134857E+02  0.26296134857E+02  0.00000000000E+00 0. -1.
          6    1    1    2  501    0 -0.24311857132E+02  0.11548789239E+03  0.99975554897E+03  0.10212853066E+04  0.17200000000E+03 0. -1.
         -6    1    1    2    0  503  0.24311857132E+02 -0.11548789239E+03  0.68487120182E+03  0.71593371395E+03  0.17200000000E+03 0. -1.
</event>
<event>
 4    1  0.5801298E+000  0.1952278E+03  0.7818608E-02  0.1153829E+00
         21   -1    0    0  503  502  0.00000000000E+00  0.00000000000E+00  0.82877636025E+02  0.82877636025E+02  0.00000000000E+00 0.  1.
         21   -1    0    0  501  503 -0.00000000000E+00 -0.00000000000E+00 -0.48149933187E+03  0.48149933187E+03  0.00000000000E+00 0.  1.
          6    1    1    2  501    0 -0.15322623461E+02  0.91077504855E+02 -0.13951829005E+03  0.23995676265E+03  0.17200000000E+03 0.  1.
         -6    1    1    2    0  502  0.15322623461E+02 -0.91077504855E+02 -0.25910340579E+03  0.32442020524E+03  0.17200000000E+03 0.  1.
</event>
<event>
 4    1  0.5801298E+000  0.2582819E+03  0.7818608E-02  0.1108180E+00
         21   -1    0    0  503  502  0.00000000000E+00  0.00000000000E+00  0.22328500857E+03  0.22328500857E+03  0.00000000000E+00 0. -1.
         21   -1    0    0  501  503 -0.00000000000E+00 -0.00000000000E+00 -0.38693479496E+03  0.38693479496E+03  0.00000000000E+00 0.  1.
          6    1    1    2  501    0 -0.16925934707E+03  0.92069530341E+02 -0.22747129440E+03  0.34416960174E+03  0.17200000000E+03 0.  1.
         -6    1    1    2    0  502  0.16925934707E+03 -0.92069530341E+02  0.63821508010E+02  0.26605020179E+03  0.17200000000E+03 0. -1.
</event>
<event>
 4    1  0.5801298E+000  0.2910373E+03  0.7818608E-02  0.1089809E+00
         21   -1    0    0  503  502  0.00000000000E+00  0.00000000000E+00  0.21014322350E+03  0.21014322350E+03  0.00000000000E+00 0. -1.
         21   -1    0    0  501  503 -0.00000000000E+00 -0.00000000000E+00 -0.68216472538E+03  0.68216472538E+03  0.00000000000E+00 0. -1.
          6    1    1    2  501    0 -0.20091109095E+03 -0.12146386501E+03 -0.52138501958E+03  0.59711395529E+03  0.17200000000E+03 0. -1.
         -6    1    1    2    0  502  0.20091109095E+03  0.12146386501E+03  0.49363517691E+02  0.29519399359E+03  0.17200000000E+03 0. -1.
</event>
<event>
 4    1  0.5801298E+000  0.2773943E+03  0.7818608E-02  0.1097121E+00
         21   -1    0    0  501  502  0.00000000000E+00  0.00000000000E+00  0.85656708178E+02  0.85656708178E+02  0.00000000000E+00 0. -1.
         21   -1    0    0  502  503 -0.00000000000E+00 -0.00000000000E+00 -0.91242749677E+03  0.91242749677E+03  0.00000000000E+00 0.  1.
          6    1    1    2  501    0 -0.97700023495E+02  0.19446923199E+03 -0.35134373288E+03  0.44764941128E+03  0.17200000000E+03 0.  1.
         -6    1    1    2    0  503  0.97700023495E+02 -0.19446923199E+03 -0.47542705571E+03  0.55043479367E+03  0.17200000000E+03 0. -1.
</event>
<event>
 4    1  0.5801298E+000  0.1761954E+03  0.7818608E-02  0.1171537E+00
         21   -1    0    0  501  502  0.00000000000E+00  0.00000000000E+00  0.34075430642E+03  0.34075430642E+03  0.00000000000E+00 0. -1.
         21   -1    0    0  502  503 -0.00000000000E+00 -0.00000000000E+00 -0.14766282020E+03  0.14766282020E+03  0.00000000000E+00 0. -1.
          6    1    1    2  501    0 -0.25762312595E+02 -0.28233408676E+02  0.24768146412E+03  0.30395876329E+03  0.17200000000E+03 0. -1.
         -6    1    1    2    0  503  0.25762312595E+02  0.28233408676E+02 -0.54589977892E+02  0.18445836333E+03  0.17200000000E+03 0. -1.
</event>
<event>
 4    1  0.5801298E+000  0.2205096E+03  0.7818608E-02  0.1133504E+00
         21   -1    0    0  503  502  0.00000000000E+00  0.00000000000E+00  0.18804022441E+03  0.18804022441E+03  0.00000000000E+00 0. -1.
         21   -1    0    0  501  503 -0.00000000000E+00 -0.00000000000E+00 -0.37783045835E+03  0.37783045835E+03  0.00000000000E+00 0.  1.
          6    1    1    2  501    0  0.13721449996E+03 -0.14583276062E+02  0.64054168140E+02  0.22962453570E+03  0.17200000000E+03 0. -1.
         -6    1    1    2    0  502 -0.13721449996E+03  0.14583276062E+02 -0.25384440208E+03  0.33624614706E+03  0.17200000000E+03 0.  1.
</event>
<event>
 4    1  0.5801298E+000  0.2755382E+03  0.7818608E-02  0.1098151E+00
         21   -1    0    0  501  502  0.00000000000E+00  0.00000000000E+00  0.41580111857E+03  0.41580111857E+03  0.00000000000E+00 0.  1.
         21   -1    0    0  502  503 -0.00000000000E+00 -0.00000000000E+00 -0.22748625692E+03  0.22748625692E+03  0.00000000000E+00 0. -1.
          6    1    1    2  501    0 -0.59379542678E+02 -0.20690902781E+03  0.23704708234E+03  0.36347296340E+03  0.17200000000E+03 0.  1.
         -6    1    1    2    0  503  0.59379542678E+02  0.20690902781E+03 -0.48732220688E+02  0.27981441209E+03  0.17200000000E+03 0. -1.
</event>
<event>
 4    1  0.5801298E+000  0.3969674E+03  0.7818608E-02  0.1044835E+00
         21   -1    0    0  501  502  0.00000000000E+00  0.00000000000E+00  0.50433000583E+03  0.50433000583E+03  0.00000000000E+00 0.  1.
         21   -1    0    0  502  503 -0.00000000000E+00 -0.00000000000E+00 -0.70616823565E+03  0.70616823565E+03  0.00000000000E+00 0. -1.
          6    1    1    2  501    0 -0.35776071888E+03 -0.25290247870E+01  0.35100668672E+03  0.52989510477E+03  0.17200000000E+03 0.  1.
         -6    1    1    2    0  503  0.35776071888E+03  0.25290247870E+01 -0.55284491654E+03  0.68060313670E+03  0.17200000000E+03 0. -1.
</event>
<event>
 4    1  0.5801298E+000  0.3091340E+03  0.7818608E-02  0.1080762E+00
         21   -1    0    0  501  502  0.00000000000E+00  0.00000000000E+00  0.59488500317E+03  0.59488500317E+03  0.00000000000E+00 0.  1.
         21   -1    0    0  502  503 -0.00000000000E+00 -0.00000000000E+00 -0.33013649055E+03  0.33013649055E+03  0.00000000000E+00 0.  1.
          6    1    1    2  501    0 -0.25268127418E+03 -0.46173585902E+02  0.46377401612E+03  0.55735999532E+03  0.17200000000E+03 0.  1.
         -6    1    1    2    0  503  0.25268127418E+03  0.46173585902E+02 -0.19902550351E+03  0.36766149840E+03  0.17200000000E+03 0.  1.
</event>
<event>
 4    1  0.5801298E+000  0.1802396E+03  0.7818608E-02  0.1167571E+00
         21   -1    0    0  503  502  0.00000000000E+00  0.00000000000E+00  0.35106645806E+02  0.35106645806E+02  0.00000000000E+00 0. -1.
         21   -1    0    0  501  503 -0.00000000000E+00 -0.00000000000E+00 -0.94470475091E+03  0.94470475091E+03  0.00000000000E+00 0.  1.
          6    1    1    2  501    0  0.47122284377E+02  0.26111424028E+02 -0.52490200294E+03  0.55498507082E+03  0.17200000000E+03 0.  1.
         -6    1    1    2    0  502 -0.47122284377E+02 -0.26111424028E+02 -0.38469610217E+03  0.42482632590E+03  0.17200000000E+03 0. -1.
</event>
<event>
 4    1  0.5801298E+000  0.1819227E+03  0.7818608E-02  0.1165955E+00
         21   -1    0    0  503  502  0.00000000000E+00  0.00000000000E+00  0.91758870132E+03  0.91758870132E+03  0.00000000000E+00 0. -1.
         21   -1    0    0  501  503 -0.00000000000E+00 -0.00000000000E+00 -0.40435685625E+02  0.40435685625E+02  0.00000000000E+00 0. -1.
          6    1    1    2  501    0 -0.54341819439E+02  0.23640052690E+02  0.59600154412E+03  0.62314823760E+03  0.17200000000E+03 0. -1.
         -6    1    1    2    0  502  0.54341819439E+02 -0.23640052690E+02  0.28115147158E+03  0.33487614935E+03  0.17200000000E+03 0. -1.
</event>
<event>
 4    1  0.5801298E+000  0.2277305E+03  0.7818608E-02  0.1128247E+00
         21   -1    0    0  501  502  0.00000000000E+00  0.00000000000E+00  0.86755901459E+03  0.86755901459E+03  0.00000000000E+00 0.  1.
         21   -1    0    0  502  503 -0.00000000000E+00 -0.00000000000E+00 -0.63614943524E+02  0.63614943524E+02  0.00000000000E+00 0.  1.
          6    1    1    2  501    0  0.14923092628E+03 -0.27026101718E+01  0.51631222498E+03  0.56430442770E+03  0.17200000000E+03 0.  1.
         -6    1    1    2    0  503 -0.14923092628E+03  0.27026101718E+01  0.28763184608E+03  0.36686953041E+03  0.17200000000E+03 0.  1.
</event>
<event>
 4    1  0.5801298E+000  0.1926436E+03  0.7818608E-02  0.1156098E+00
         21   -1    0    0  501  502  0.00000000000E+00  0.00000000000E+00  0.16947548143E+04  0.16947548143E+04  0.00000000000E+00 0. -1.
         21   -1    0    0  502  503 -0.00000000000E+00 -0.00000000000E+00 -0.25479479349E+02  0.25479479349E+02  0.00000000000E+00 0.  1.
          6    1    1    2  501    0  0.73917844700E+02 -0.45428113159E+02  0.11571155883E+04  0.11730422183E+04  0.17200000000E+03 0. -1.
         -6    1    1    2    0  503 -0.73917844700E+02  0.45428113159E+02  0.51215974659E+03  0.54719207529E+03  0.17200000000E+03 0.  1.
</event>
<event>
 4    1  0.5801298E+000  0.1721645E+03  0.7818608E-02  0.1175609E+00
         21   -1    0    0  503  502  0.00000000000E+00  0.00000000000E+00  0.10984450630E+03  0.10984450630E+03  0.00000000000E+00 0.  1.
         21   -1    0    0  501  503 -0.00000000000E+00 -0.00000000000E+00 -0.43785063755E+03  0.43785063755E+03  0.00000000000E+00 0.  1.
          6    1    1    2  501    0 -0.12523584708E+01  0.74193148425E+01 -0.33363681258E+03  0.37543859330E+03  0.17200000000E+03 0.  1.
         -6    1    1    2    0  502  0.12523584708E+01 -0.74193148425E+01  0.56306813296E+01  0.17225655055E+03  0.17200000000E+03 0.  1.
</event>
<event>
 4    1  0.5801298E+000  0.1953964E+03  0.7818608E-02  0.1153682E+00
         21   -1    0    0  501  502  0.00000000000E+00  0.00000000000E+00  0.39399655072E+03  0.39399655072E+03  0.00000000000E+00 0.  1.
         21   -1    0    0  502  503 -0.00000000000E+00 -0.00000000000E+00 -0.10542596997E+03  0.10542596997E+03  0.00000000000E+00 0.  1.
          6    1    1    2  501    0  0.81001817880E+02  0.45105047095E+02  0.21528222948E+03  0.29073389569E+03  0.17200000000E+03 0.  1.
         -6    1    1    2    0  503 -0.81001817880E+02 -0.45105047095E+02  0.73288351278E+02  0.20868862500E+03  0.17200000000E+03 0.  1.
</event>
<event>
 4    1  0.5801298E+000  0.2119728E+03  0.7818608E-02  0.1140013E+00
         21   -1    0    0  503  502  0.00000000000E+00  0.00000000000E+00  0.29259286032E+03  0.29259286032E+03  0.00000000000E+00 0. -1.
         21   -1    0    0  501  503 -0.00000000000E+00 -0.00000000000E+00 -0.17822689373E+03  0.17822689373E+03  0.00000000000E+00 0.  1.
          6    1    1    2  501    0 -0.11887976632E+03  0.34871986192E+02 -0.30383575291E+02  0.21413924420E+03  0.17200000000E+03 0.  1.
         -6    1    1    2    0  502  0.11887976632E+03 -0.34871986192E+02  0.14474954189E+03  0.25668050985E+03  0.17200000000E+03 0. -1.
</event>
<event>
 4    1  0.5801298E+000  0.2238447E+03  0.7818608E-02  0.1131049E+00
         21   -1    0    0  501  502  0.00000000000E+00  0.00000000000E+00  0.41388173472E+02  0.41388173472E+02  0.00000000000E+00 0.  1.
         21   -1    0    0  502  503 -0.00000000000E+00 -0.00000000000E+00 -0.12279756884E+04  0.12279756884E+04  0.00000000000E+00 0.  1.
          6    1    1    2  501    0 -0.14267953412E+03  0.12845379536E+02 -0.66868980564E+03  0.70516133572E+03  0.17200000000E+03 0. -1.
         -6    1    1    2    0  503  0.14267953412E+03 -0.12845379536E+02 -0.51789770931E+03  0.56420252618E+03  0.17200000000E+03 0. -1.
</event>
<event>
 4    1  0.5801298E+000  0.1935166E+03  0.7818608E-02  0.1155327E+00
         21   -1    0    0  501  502  0.00000000000E+00  0.00000000000E+00  0.44583820396E+03  0.44583820396E+03  0.00000000000E+00 0.  1.
         21   -1    0    0  502  503 -0.00000000000E+00 -0.00000000000E+00 -0.86164877475E+02  0.86164877475E+02  0.00000000000E+00 0.  1.
          6    1    1    2  501    0 -0.88520599223E+02  0.53649815332E+01  0.13763549662E+03  0.23747043909E+03  0.17200000000E+03 0. -1.
         -6    1    1    2    0  503  0.88520599223E+02 -0.53649815332E+01  0.22203782987E+03  0.29453264234E+03  0.17200000000E+03 0. -1.
</event>
<event>
 4    1  0.5801298E+000  0.1819192E+03  0.7818608E-02  0.1165958E+00
         21   -1    0    0  503  502  0.00000000000E+00  0.00000000000E+00  0.36982728314E+03  0.36982728314E+03  0.00000000000E+00 0.  1.
         21   -1    0    0  501  503 -0.00000000000E+00 -0.00000000000E+00 -0.98122383533E+02  0.98122383533E+02  0.00000000000E+00 0.  1.
          6    1    1    2  501    0  0.59190462432E+02 -0.26605089746E+01  0.66440255771E+02  0.19367213723E+03  0.17200000000E+03 0. -1.
         -6    1    1    2    0  502 -0.59190462432E+02  0.26605089746E+01  0.20526464384E+03  0.27427752945E+03  0.17200000000E+03 0. -1.
</event>
<event>
 4    1  0.5801298E+000  0.1848642E+03  0.7818608E-02  0.1163177E+00
         21   -1    0    0  503  502  0.00000000000E+00  0.00000000000E+00  0.21520780715E+02  0.21520780715E+02  0.00000000000E+00 0.  1.
         21   -1    0    0  501  503 -0.00000000000E+00 -0.00000000000E+00 -0.15983609061E+04  0.15983609061E+04  0.00000000000E+00 0.  1.
          6    1    1    2  501    0  0.45596767286E+02 -0.50116798249E+02 -0.85366539349E+03  0.87345255320E+03  0.17200000000E+03 0. -1.
         -6    1    1    2    0  502 -0.45596767286E+02  0.50116798249E+02 -0.72317473189E+03  0.74642913361E+03  0.17200000000E+03 0. -1.
</event>
<event>
 4    1  0.5801298E+000  0.1930215E+03  0.7818608E-02  0.1155764E+00
         21   -1    0    0  503  502  0.00000000000E+00  0.00000000000E+00  0.19529159725E+03  0.19529159725E+03  0.00000000000E+00 0.  1.
         21   -1    0    0  501  503 -0.00000000000E+00 -0.00000000000E+00 -0.19396007776E+03  0.19396007776E+03  0.00000000000E+00 0.  1.
          6    1    1    2  501    0  0.87390982616E+02  0.60092988602E+01 -0.24263844047E+02  0.19454056041E+03  0.17200000000E+03 0.  1.
         -6    1    1    2    0  502 -0.87390982616E+02 -0.60092988602E+01  0.25595363544E+02  0.19471111460E+03  0.17200000000E+03 0.  1.
</event>
<event>
 4    1  0.5801298E+000  0.2252937E+03  0.7818608E-02  0.1129997E+00
         21   -1    0    0  503  502  0.00000000000E+00  0.00000000000E+00  0.52230594175E+03  0.52230594175E+03  0.00000000000E+00 0.  1.
         21   -1    0    0  501  503 -0.00000000000E+00 -0.00000000000E+00 -0.18621429113E+03  0.18621429113E+03  0.00000000000E+00 0. -1.
          6    1    1    2  501    0  0.14277497271E+01  0.14550325364E+03 -0.76914945275E+02  0.23806121922E+03  0.17200000000E+03 0. -1.
         -6    1    1    2    0  502 -0.14277497271E+01 -0.14550325364E+03  0.41300659589E+03  0.47045901367E+03  0.17200000000E+03 0.  1.
</event>
<event>
 4    1  0.5801298E+000  0.2118865E+03  0.7818608E-02  0.1140081E+00
         21   -1    0    0  503  502  0.00000000000E+00  0.00000000000E+00  0.43970098310E+03  0.43970098310E+03  0.00000000000E+00 0.  1.
         21   -1    0    0  501  503 -0.00000000000E+00 -0.00000000000E+00 -0.11828204664E+03  0.11828204664E+03  0.00000000000E+00 0. -1.
          6    1    1    2  501    0  0.87990246733E+02  0.87003517632E+02  0.57534515839E+02  0.21955891263E+03  0.17200000000E+03 0. -1.
         -6    1    1    2    0  502 -0.87990246733E+02 -0.87003517632E+02  0.26388442062E+03  0.33842411711E+03  0.17200000000E+03 0.  1.
</event>
<event>
 4    1  0.5801298E+000  0.3448795E+03  0.7818608E-02  0.1064737E+00
         21   -1    0    0  501  502  0.00000000000E+00  0.00000000000E+00  0.15917552398E+04  0.15917552398E+04  0.00000000000E+00 0. -1.
         21   -1    0    0  502  503 -0.00000000000E+00 -0.00000000000E+00 -0.11353333396E+03  0.11353333396E+03  0.00000000000E+00 0.  1.
          6    1    1    2  501    0  0.22180093005E+03 -0.20040519074E+03  0.12376231415E+04  0.12847773867E+04  0.17200000000E+03 0. -1.
         -6    1    1    2    0  503 -0.22180093005E+03  0.20040519074E+03  0.24059876438E+03  0.42051118709E+03  0.17200000000E+03 0.  1.
</event>
<event>
 4    1  0.5801298E+000  0.1906912E+03  0.7818608E-02  0.1157839E+00
         21   -1    0    0  503  502  0.00000000000E+00  0.00000000000E+00  0.52652191859E+03  0.52652191859E+03  0.00000000000E+00 0.  1.
         21   -1    0    0  501  503 -0.00000000000E+00 -0.00000000000E+00 -0.11924854811E+03  0.11924854811E+03  0.00000000000E+00 0.  1.
          6    1    1    2  501    0  0.74726247282E+02 -0.34570627169E+02 -0.58282455693E+01  0.19078026298E+03  0.17200000000E+03 0.  1.
         -6    1    1    2    0  502 -0.74726247282E+02  0.34570627169E+02  0.41310161605E+03  0.45499020372E+03  0.17200000000E+03 0.  1.
</event>
<event>
 4    1  0.5801298E+000  0.4321911E+03  0.7818608E-02  0.1033170E+00
         21   -1    0    0  501  502  0.00000000000E+00  0.00000000000E+00  0.15824903132E+03  0.15824903132E+03  0.00000000000E+00 0.  1.
         21   -1    0    0  502  503 -0.00000000000E+00 -0.00000000000E+00 -0.14834545263E+04  0.14834545263E+04  0.00000000000E+00 0. -1.
          6    1    1    2  501    0 -0.29595290007E+03 -0.26385039507E+03 -0.29155973149E+03  0.52134079743E+03  0.17200000000E+03 0.  1.
         -6    1    1    2    0  503  0.29595290007E+03  0.26385039507E+03 -0.10336457635E+04  0.11203627602E+04  0.17200000000E+03 0. -1.
</event>
<event>
 4    1  0.5801298E+000  0.2201875E+03  0.7818608E-02  0.1133743E+00
         21   -1    0    0  503  502  0.00000000000E+00  0.00000000000E+00  0.13472351636E+03  0.13472351636E+03  0.00000000000E+00 0.  1.
         21   -1    0    0  501  503 -0.00000000000E+00 -0.00000000000E+00 -0.37009342103E+03  0.37009342103E+03  0.00000000000E+00 0.  1.
          6    1    1    2  501    0 -0.12191689327E+03 -0.63520067960E+02 -0.15964279876E+03  0.27197123211E+03  0.17200000000E+03 0.  1.
         -6    1    1    2    0  502  0.12191689327E+03  0.63520067960E+02 -0.75727105900E+02  0.23284570528E+03  0.17200000000E+03 0.  1.
</event>
<event>
 4    1  0.5801298E+000  0.1955770E+03  0.7818608E-02  0.1153525E+00
         21   -1    0    0  501  502  0.00000000000E+00  0.00000000000E+00  0.36128186736E+03  0.36128186736E+03  0.00000000000E+00 0.  1.
         21   -1    0    0  502  503 -0.00000000000E+00 -0.00000000000E+00 -0.11313427897E+03  0.11313427897E+03  0.00000000000E+00 0.  1.
          6    1    1    2  501    0 -0.57224528858E+02  0.73428291707E+02  0.18416468710E+03  0.26863914961E+03  0.17200000000E+03 0.  1.
         -6    1    1    2    0  503  0.57224528858E+02 -0.73428291707E+02  0.63982901291E+02  0.20577699673E+03  0.17200000000E+03 0.  1.
</event>
<event>
 4    1  0.5801298E+000  0.2296887E+03  0.7818608E-02  0.1126859E+00
         21   -1    0    0  501  502  0.00000000000E+00  0.00000000000E+00  0.87449727628E+02  0.87449727628E+02  0.00000000000E+00 0.  1.
         21   -1    0    0  502  503 -0.00000000000E+00 -0.00000000000E+00 -0.12513521578E+04  0.12513521578E+04  0.00000000000E+00 0.  1.
          6    1    1    2  501    0 -0.10836846349E+03 -0.10690721592E+03 -0.10021705596E+03  0.25059995012E+03  0.17200000000E+03 0.  1.
         -6    1    1    2    0  503  0.10836846349E+03  0.10690721592E+03 -0.10636853742E+04  0.10882019353E+04  0.17200000000E+03 0.  1.
</event>
<event>
 4    1  0.5801298E+000  0.1783724E+03  0.7818608E-02  0.1169388E+00
         21   -1    0    0  501  502  0.00000000000E+00  0.00000000000E+00  0.31865747582E+03  0.31865747582E+03  0.00000000000E+00 0.  1.
         21   -1    0    0  502  503 -0.00000000000E+00 -0.00000000000E+00 -0.10554279299E+03  0.10554279299E+03  0.00000000000E+00 0.  1.
          6    1    1    2  501    0 -0.35712103601E+01 -0.47116382084E+02  0.57281055874E+02  0.18734413886E+03  0.17200000000E+03 0.  1.
         -6    1    1    2    0  503  0.35712103601E+01  0.47116382084E+02  0.15583362695E+03  0.23685612995E+03  0.17200000000E+03 0.  1.
</event>
<event>
 4    1  0.5801298E+000  0.2069026E+03  0.7818608E-02  0.1144043E+00
         21   -1    0    0  501  502  0.00000000000E+00  0.00000000000E+00  0.19926066752E+03  0.19926066752E+03  0.00000000000E+00 0. -1.
         21   -1    0    0  502  503 -0.00000000000E+00 -0.00000000000E+00 -0.22251019938E+03  0.22251019938E+03  0.00000000000E+00 0.  1.
          6    1    1    2  501    0 -0.11302783759E+03 -0.21199288877E+02  0.27535017212E+02  0.20872680492E+03  0.17200000000E+03 0. -1.
         -6    1    1    2    0  503  0.11302783759E+03  0.21199288877E+02 -0.50784549078E+02  0.21304406198E+03  0.17200000000E+03 0.  1.
</event>
<event>
 4    1  0.5801298E+000  0.1764470E+03  0.7818608E-02  0.1171287E+00
         21   -1    0    0  503  502  0.00000000000E+00  0.00000000000E+00  0.12286994994E+03  0.12286994994E+03  0.00000000000E+00 0.  1.
         21   -1    0    0  501  503 -0.00000000000E+00 -0.00000000000E+00 -0.36086039056E+03  0.36086039056E+03  0.00000000000E+00 0.  1.
          6    1    1    2  501    0 -0.25259168768E+02 -0.30191307576E+02 -0.25098975983E+03  0.30680515021E+03  0.17200000000E+03 0.  1.
         -6    1    1    2    0  502  0.25259168768E+02  0.30191307576E+02  0.12999319204E+02  0.17692519029E+03  0.17200000000E+03 0.  1.
</event>
<event>
 4    1  0.5801298E+000  0.2274220E+03  0.7818608E-02  0.1128468E+00
         21   -1    0    0  501  502  0.00000000000E+00  0.00000000000E+00  0.36614466594E+03  0.36614466594E+03  0.00000000000E+00 0.  1.
         21   -1    0    0  502  503 -0.00000000000E+00 -0.00000000000E+00 -0.40226878456E+03  0.40226878456E+03  0.00000000000E+00 0.  1.
          6    1    1    2  501    0  0.11263422199E+03 -0.97212597962E+02  0.29142055936E+03  0.36965754366E+03  0.17200000000E+03 0.  1.
         -6    1    1    2    0  503 -0.11263422199E+03  0.97212597962E+02 -0.32754467799E+03  0.39875590684E+03  0.17200000000E+03 0.  1.
</event>
<event>
 4    1  0.5801298E+000  0.3180193E+03  0.7818608E-02  0.1076564E+00
         21   -1    0    0  501  502  0.00000000000E+00  0.00000000000E+00  0.22639907808E+03  0.22639907808E+03  0.00000000000E+00 0. -1.
         21   -1    0    0  502  503 -0.00000000000E+00 -0.00000000000E+00 -0.45088025183E+03  0.45088025183E+03  0.00000000000E+00 0.  1.
          6    1    1    2  501    0 -0.26676011481E+03 -0.19782246671E+02 -0.14478139669E+03  0.34942516934E+03  0.17200000000E+03 0.  1.
         -6    1    1    2    0  503  0.26676011481E+03  0.19782246671E+02 -0.79699777067E+02  0.32785416057E+03  0.17200000000E+03 0. -1.
</event>
<event>
 4    1  0.5801298E+000  0.2065414E+03  0.7818608E-02  0.1144335E+00
         21   -1    0    0  501  502  0.00000000000E+00  0.00000000000E+00  0.50804079668E+03  0.50804079668E+03  0.00000000000E+00 0. -1.
         21   -1    0    0  502  503 -0.00000000000E+00 -0.00000000000E+00 -0.10535389923E+03  0.10535389923E+03  0.00000000000E+00 0.  1.
          6    1    1    2  501    0  0.27013638209E+01 -0.11431549606E+03  0.33952347349E+03  0.39741102030E+03  0.17200000000E+03 0. -1.
         -6    1    1    2    0  503 -0.27013638209E+01  0.11431549606E+03  0.63163423961E+02  0.21598367562E+03  0.17200000000E+03 0.  1.
</event>
<event>
 4    1  0.5801298E+000  0.2057652E+03  0.7818608E-02  0.1144964E+00
         21   -1    0    0  503  502  0.00000000000E+00  0.00000000000E+00  0.17728573719E+04  0.17728573719E+04  0.00000000000E+00 0.  1.
         21   -1    0    0  501  503 -0.00000000000E+00 -0.00000000000E+00 -0.24294490342E+02  0.24294490342E+02  0.00000000000E+00 0.  1.
          6    1    1    2  501    0 -0.75758744913E+02  0.83761159499E+02  0.75718984180E+03  0.78465009769E+03  0.17200000000E+03 0. -1.
         -6    1    1    2    0  502  0.75758744913E+02 -0.83761159499E+02  0.99137303971E+03  0.10125017645E+04  0.17200000000E+03 0. -1.
</event>
<event>
 4    1  0.5801298E+000  0.1738238E+03  0.7818608E-02  0.1173918E+00
         21   -1    0    0  501  502  0.00000000000E+00  0.00000000000E+00  0.52051405519E+02  0.52051405519E+02  0.00000000000E+00 0. -1.
         21   -1    0    0  502  503 -0.00000000000E+00 -0.00000000000E+00 -0.81396637518E+03  0.81396637518E+03  0.00000000000E+00 0. -1.
          6    1    1    2  501    0 -0.43662282553E+01 -0.24731701591E+02 -0.14904412840E+03  0.22897352079E+03  0.17200000000E+03 0. -1.
         -6    1    1    2    0  503  0.43662282553E+01  0.24731701591E+02 -0.61287084127E+03  0.63704425991E+03  0.17200000000E+03 0. -1.
</event>
<event>
 4    1  0.5801298E+000  0.2174130E+03  0.7818608E-02  0.1135827E+00
         21   -1    0    0  503  502  0.00000000000E+00  0.00000000000E+00  0.17338728022E+04  0.17338728022E+04  0.00000000000E+00 0. -1.
         21   -1    0    0  501  503 -0.00000000000E+00 -0.00000000000E+00 -0.28505459095E+02  0.28505459095E+02  0.00000000000E+00 0. -1.
          6    1    1    2  501    0  0.68362947295E+02  0.11406543057E+03  0.66862185821E+03  0.70308150615E+03  0.17200000000E+03 0.  1.
         -6    1    1    2    0  502 -0.68362947295E+02 -0.11406543057E+03  0.10367454849E+04  0.10592967552E+04  0.17200000000E+03 0.  1.
</event>
<event>
 4    1  0.5801298E+000  0.1874640E+03  0.7818608E-02  0.1160769E+00
         21   -1    0    0  503  502  0.00000000000E+00  0.00000000000E+00  0.39712533605E+03  0.39712533605E+03  0.00000000000E+00 0. -1.
         21   -1    0    0  501  503 -0.00000000000E+00 -0.00000000000E+00 -0.15003519977E+03  0.15003519977E+03  0.00000000000E+00 0. -1.
          6    1    1    2  501    0  0.43170263644E+02 -0.60787233758E+02 -0.51671499281E+02  0.19445488754E+03  0.17200000000E+03 0. -1.
         -6    1    1    2    0  502 -0.43170263644E+02  0.60787233758E+02  0.29876163556E+03  0.35270564829E+03  0.17200000000E+03 0. -1.
</event>
<event>
 4    1  0.5801298E+000  0.2841679E+03  0.7818608E-02  0.1093434E+00
         21   -1    0    0  503  502  0.00000000000E+00  0.00000000000E+00  0.90542168712E+02  0.90542168712E+02  0.00000000000E+00 0.  1.
         21   -1    0    0  501  503 -0.00000000000E+00 -0.00000000000E+00 -0.89554780772E+03  0.89554780772E+03  0.00000000000E+00 0.  1.
          6    1    1    2  501    0  0.46013587743E+02  0.22147266899E+03 -0.37088511500E+03  0.46723351967E+03  0.17200000000E+03 0.  1.
         -6    1    1    2    0  502 -0.46013587743E+02 -0.22147266899E+03 -0.43412052400E+03  0.51885645677E+03  0.17200000000E+03 0.  1.
</event>
<event>
 4    1  0.5801298E+000  0.2054049E+03  0.7818608E-02  0.1145257E+00
         21   -1    0    0  503  502  0.00000000000E+00  0.00000000000E+00  0.68607430279E+03  0.68607430279E+03  0.00000000000E+00 0. -1.
         21   -1    0    0  501  503 -0.00000000000E+00 -0.00000000000E+00 -0.16283817248E+03  0.16283817248E+03  0.00000000000E+00 0. -1.
          6    1    1    2  501    0 -0.24672089133E+02 -0.10953756470E+03 -0.73230757464E+02  0.21806864493E+03  0.17200000000E+03 0. -1.
         -6    1    1    2    0  502  0.24672089133E+02  0.10953756470E+03  0.59646688778E+03  0.63084383034E+03  0.17200000000E+03 0. -1.
</event>
<event>
 4    1  0.5801298E+000  0.1837332E+03  0.7818608E-02  0.1164238E+00
         21   -1    0    0  501  502  0.00000000000E+00  0.00000000000E+00  0.52582348869E+02  0.52582348869E+02  0.00000000000E+00 0.  1.
         21   -1    0    0  502  503 -0.00000000000E+00 -0.00000000000E+00 -0.66608914167E+03  0.66608914167E+03  0.00000000000E+00 0.  1.
          6    1    1    2  501    0  0.40494212235E+02 -0.50339983234E+02 -0.23841886029E+03  0.30100074432E+03  0.17200000000E+03 0.  1.
         -6    1    1    2    0  503 -0.40494212235E+02  0.50339983234E+02 -0.37508793251E+03  0.41767074622E+03  0.17200000000E+03 0.  1.
</event>
<event>
 4    1  0.5801298E+000  0.1736210E+03  0.7818608E-02  0.1174123E+00
         21   -1    0    0  503  502  0.00000000000E+00  0.00000000000E+00  0.84482534762E+02  0.84482534762E+02  0.00000000000E+00 0. -1.
         21   -1    0    0  501  503 -0.00000000000E+00 -0.00000000000E+00 -0.36049162942E+03  0.36049162942E+03  0.00000000000E+00 0. -1.
          6    1    1    2  501    0 -0.23300776114E+02  0.41629896544E+01 -0.16048716768E+03  0.23643262812E+03  0.17200000000E+03 0. -1.
         -6    1    1    2    0  502  0.23300776114E+02 -0.41629896544E+01 -0.11552192698E+03  0.20854153606E+03  0.17200000000E+03 0. -1.
</event>
<event>
 4    1  0.5801298E+000  0.1858597E+03  0.7818608E-02  0.1162250E+00
         21   -1    0    0  503  502  0.00000000000E+00  0.00000000000E+00  0.14717870687E+04  0.14717870687E+04  0.00000000000E+00 0. -1.
         21   -1    0    0  501  503 -0.00000000000E+00 -0.00000000000E+00 -0.45730736057E+02  0.45730736057E+02  0.00000000000E+00 0. -1.
          6    1    1    2  501    0  0.70159867538E+02  0.61168943582E+01  0.18365373322E+03  0.26129010149E+03  0.17200000000E+03 0. -1.
         -6    1    1    2    0  502 -0.70159867538E+02 -0.61168943582E+01  0.12424025994E+04  0.12562277033E+04  0.17200000000E+03 0. -1.
</event>
<event>
 4    1  0.5801298E+000  0.1755824E+03  0.7818608E-02  0.1172148E+00
         21   -1    0    0  501  502  0.00000000000E+00  0.00000000000E+00  0.31716862444E+03  0.31716862444E+03  0.00000000000E+00 0. -1.
         21   -1    0    0  502  503 -0.00000000000E+00 -0.00000000000E+00 -0.14341759554E+03  0.14341759554E+03  0.00000000000E+00 0. -1.
          6    1    1    2  501    0  0.26158411158E+02 -0.23683810858E+02  0.21760620268E+03  0.27960980815E+03  0.17200000000E+03 0. -1.
         -6    1    1    2    0  503 -0.26158411158E+02  0.23683810858E+02 -0.43855173775E+02  0.18097641183E+03  0.17200000000E+03 0. -1.
</event>
<event>
 4    1  0.5801298E+000  0.2149116E+03  0.7818608E-02  0.1137735E+00
         21   -1    0    0  501  502  0.00000000000E+00  0.00000000000E+00  0.13623792532E+04  0.13623792532E+04  0.00000000000E+00 0.  1.
         21   -1    0    0  502  503 -0.00000000000E+00 -0.00000000000E+00 -0.55816799452E+02  0.55816799452E+02  0.00000000000E+00 0. -1.
          6    1    1    2  501    0  0.11097435451E+03  0.65480456459E+02  0.10976007067E+04  0.11184428054E+04  0.17200000000E+03 0.  1.
         -6    1    1    2    0  503 -0.11097435451E+03 -0.65480456459E+02  0.20896174710E+03  0.29975324733E+03  0.17200000000E+03 0. -1.
</event>
<event>
 4    1  0.5801298E+000  0.1781884E+03  0.7818608E-02  0.1169568E+00
         21   -1    0    0  503  502  0.00000000000E+00  0.00000000000E+00  0.23503062856E+03  0.23503062856E+03  0.00000000000E+00 0. -1.
         21   -1    0    0  501  503 -0.00000000000E+00 -0.00000000000E+00 -0.30727693106E+03  0.30727693106E+03  0.00000000000E+00 0. -1.
          6    1    1    2  501    0 -0.29422809464E+02  0.36075216620E+02 -0.23909990144E+03  0.29819437593E+03  0.17200000000E+03 0. -1.
         -6    1    1    2    0  502  0.29422809464E+02 -0.36075216620E+02  0.16685359894E+03  0.24411318369E+03  0.17200000000E+03 0. -1.
</event>
<event>
 4    1  0.5801298E+000  0.3319261E+03  0.7818608E-02  0.1070288E+00
         21   -1    0    0  501  502  0.00000000000E+00  0.00000000000E+00  0.27228890927E+03  0.27228890927E+03  0.00000000000E+00 0.  1.
         21   -1    0    0  502  503 -0.00000000000E+00 -0.00000000000E+00 -0.41556001008E+03  0.41556001008E+03  0.00000000000E+00 0. -1.
          6    1    1    2  501    0  0.26752160850E+03 -0.94989970370E+02 -0.15845676853E+02  0.33230406402E+03  0.17200000000E+03 0.  1.
         -6    1    1    2    0  503 -0.26752160850E+03  0.94989970370E+02 -0.12742542395E+03  0.35554485533E+03  0.17200000000E+03 0. -1.
</event>
<event>
 4    1  0.5801298E+000  0.1748149E+03  0.7818608E-02  0.1172918E+00
         21   -1    0    0  503  502  0.00000000000E+00  0.00000000000E+00  0.35106415049E+03  0.35106415049E+03  0.00000000000E+00 0. -1.
         21   -1    0    0  501  503 -0.00000000000E+00 -0.00000000000E+00 -0.12083360207E+03  0.12083360207E+03  0.00000000000E+00 0. -1.
          6    1    1    2  501    0 -0.62709329774E+01  0.30609248467E+02 -0.96445912537E+01  0.17508074946E+03  0.17200000000E+03 0.  1.
         -6    1    1    2    0  502  0.62709329774E+01 -0.30609248467E+02  0.23987513968E+03  0.29681700310E+03  0.17200000000E+03 0.  1.
</event>
<event>
 4    1  0.5801298E+000  0.1756924E+03  0.7818608E-02  0.1172038E+00
         21   -1    0    0  501  502  0.00000000000E+00  0.00000000000E+00  0.12300806156E+04  0.12300806156E+04  0.00000000000E+00 0. -1.
         21   -1    0    0  502  503 -0.00000000000E+00 -0.00000000000E+00 -0.27841196163E+02  0.27841196163E+02  0.00000000000E+00 0.  1.
          6    1    1    2  501    0 -0.33969562107E+02  0.11396187657E+02  0.79868660681E+03  0.81778242837E+03  0.17200000000E+03 0. -1.
         -6    1    1    2    0  503  0.33969562107E+02 -0.11396187657E+02  0.40355281266E+03  0.44013938343E+03  0.17200000000E+03 0.  1.
</event>
<event>
 4    1  0.5801298E+000  0.1830351E+03  0.7818608E-02  0.1164898E+00
         21   -1    0    0  503  502  0.00000000000E+00  0.00000000000E+00  0.64901135123E+03  0.64901135123E+03  0.00000000000E+00 0. -1.
         21   -1    0    0  501  503 -0.00000000000E+00 -0.00000000000E+00 -0.56727514545E+02  0.56727514545E+02  0.00000000000E+00 0. -1.
          6    1    1    2  501    0 -0.39954328803E+02  0.48181966774E+02  0.19025811259E+03  0.26400757511E+03  0.17200000000E+03 0. -1.
         -6    1    1    2    0  502  0.39954328803E+02 -0.48181966774E+02  0.40202572409E+03  0.44173129066E+03  0.17200000000E+03 0. -1.
</event>
<event>
 4    1  0.5801298E+000  0.1918624E+03  0.7818608E-02  0.1156792E+00
         21   -1    0    0  501  502  0.00000000000E+00  0.00000000000E+00  0.43876867321E+03  0.43876867321E+03  0.00000000000E+00 0. -1.
         21   -1    0    0  502  503 -0.00000000000E+00 -0.00000000000E+00 -0.14205031269E+03  0.14205031269E+03  0.00000000000E+00 0. -1.
          6    1    1    2  501    0  0.84288832457E+02  0.11070965526E+02  0.33417327706E+03  0.38533485783E+03  0.17200000000E+03 0. -1.
         -6    1    1    2    0  503 -0.84288832457E+02 -0.11070965526E+02 -0.37454916544E+02  0.19548412807E+03  0.17200000000E+03 0. -1.
</event>
<event>
 4    1  0.5801298E+000  0.2061429E+03  0.7818608E-02  0.1144657E+00
         21   -1    0    0  501  502  0.00000000000E+00  0.00000000000E+00  0.93757495155E+03  0.93757495155E+03  0.00000000000E+00 0. -1.
         21   -1    0    0  502  503 -0.00000000000E+00 -0.00000000000E+00 -0.58892721829E+02  0.58892721829E+02  0.00000000000E+00 0. -1.
          6    1    1    2  501    0  0.83646378706E+02 -0.76903766403E+02  0.67848950211E+03  0.70911417306E+03  0.17200000000E+03 0. -1.
         -6    1    1    2    0  503 -0.83646378706E+02  0.76903766403E+02  0.20019272760E+03  0.28735350031E+03  0.17200000000E+03 0. -1.
</event>
<event>
 4    1  0.5801298E+000  0.1763909E+03  0.7818608E-02  0.1171342E+00
         21   -1    0    0  503  502  0.00000000000E+00  0.00000000000E+00  0.90191823026E+03  0.90191823026E+03  0.00000000000E+00 0. -1.
         21   -1    0    0  501  503 -0.00000000000E+00 -0.00000000000E+00 -0.42518871243E+02  0.42518871243E+02  0.00000000000E+00 0. -1.
          6    1    1    2  501    0 -0.30024504472E+02 -0.25065297603E+02  0.22459195535E+03  0.28557886200E+03  0.17200000000E+03 0.  1.
         -6    1    1    2    0  502  0.30024504472E+02  0.25065297603E+02  0.63480740367E+03  0.65885823950E+03  0.17200000000E+03 0.  1.
</event>
<event>
 4    1  0.5801298E+000  0.2035226E+03  0.7818608E-02  0.1146801E+00
         21   -1    0    0  501  502  0.00000000000E+00  0.00000000000E+00  0.12071127946E+03  0.12071127946E+03  0.00000000000E+00 0. -1.
         21   -1    0    0  502  503 -0.00000000000E+00 -0.00000000000E+00 -0.36017196415E+03  0.36017196415E+03  0.00000000000E+00 0. -1.
          6    1    1    2  501    0 -0.74353698783E+02 -0.79429091548E+02 -0.67451579429E+02  0.21440888199E+03  0.17200000000E+03 0.  1.
         -6    1    1    2    0  503  0.74353698783E+02  0.79429091548E+02 -0.17200910526E+03  0.26647436162E+03  0.17200000000E+03 0.  1.
</event>
<event>
 4    1  0.5801298E+000  0.1896016E+03  0.7818608E-02  0.1158821E+00
         21   -1    0    0  503  502  0.00000000000E+00  0.00000000000E+00  0.72675323150E+02  0.72675323150E+02  0.00000000000E+00 0. -1.
         21   -1    0    0  501  503 -0.00000000000E+00 -0.00000000000E+00 -0.81208269986E+03  0.81208269986E+03  0.00000000000E+00 0. -1.
          6    1    1    2  501    0  0.79353922028E+02 -0.82288446593E+01 -0.64628387222E+03  0.67352179053E+03  0.17200000000E+03 0. -1.
         -6    1    1    2    0  502 -0.79353922028E+02  0.82288446593E+01 -0.93123504497E+02  0.21123623249E+03  0.17200000000E+03 0. -1.
</event>
<event>
 4    1  0.5801298E+000  0.2199096E+03  0.7818608E-02  0.1133950E+00
         21   -1    0    0  503  502  0.00000000000E+00  0.00000000000E+00  0.46857433584E+03  0.46857433584E+03  0.00000000000E+00 0. -1.
         21   -1    0    0  501  503 -0.00000000000E+00 -0.00000000000E+00 -0.10334420364E+03  0.10334420364E+03  0.00000000000E+00 0. -1.
          6    1    1    2  501    0  0.97696916236E+02 -0.96080976187E+02  0.17220292809E+03  0.27931002465E+03  0.17200000000E+03 0. -1.
         -6    1    1    2    0  502 -0.97696916236E+02  0.96080976187E+02  0.19302720411E+03  0.29260851483E+03  0.17200000000E+03 0. -1.
</event>
<event>
 4    1  0.5801298E+000  0.1888355E+03  0.7818608E-02  0.1159516E+00
         21   -1    0    0  501  502  0.00000000000E+00  0.00000000000E+00  0.21700976063E+03  0.21700976063E+03  0.00000000000E+00 0. -1.
         21   -1    0    0  502  503 -0.00000000000E+00 -0.00000000000E+00 -0.86291583219E+03  0.86291583219E+03  0.00000000000E+00 0. -1.
          6    1    1    2  501    0  0.77073885375E+02  0.11595173012E+02  0.16288657265E+03  0.24938096838E+03  0.17200000000E+03 0. -1.
         -6    1    1    2    0  503 -0.77073885375E+02 -0.11595173012E+02 -0.80879264421E+03  0.83054462443E+03  0.17200000000E+03 0. -1.
</event>
<event>
 4    1  0.5801298E+000  0.6571711E+03  0.7818608E-02  0.9793415E-01
         21   -1    0    0  501  502  0.00000000000E+00  0.00000000000E+00  0.16256117549E+04  0.16256117549E+04  0.00000000000E+00 0. -1.
         21   -1    0    0  502  503 -0.00000000000E+00 -0.00000000000E+00 -0.26575939674E+03  0.26575939674E+03  0.00000000000E+00 0.  1.
          6    1    1    2  501    0 -0.28535973893E+03 -0.56644481288E+03  0.69741149581E+03  0.95825711639E+03  0.17200000000E+03 0. -1.
         -6    1    1    2    0  503  0.28535973893E+03  0.56644481288E+03  0.66244086236E+03  0.93311403524E+03  0.17200000000E+03 0.  1.
</event>
<event>
 4    1  0.5801298E+000  0.1858408E+03  0.7818608E-02  0.1162267E+00
         21   -1    0    0  503  502  0.00000000000E+00  0.00000000000E+00  0.31236186750E+02  0.31236186750E+02  0.00000000000E+00 0.  1.
         21   -1    0    0  501  503 -0.00000000000E+00 -0.00000000000E+00 -0.12834981099E+04  0.12834981099E+04  0.00000000000E+00 0.  1.
          6    1    1    2  501    0 -0.21910803314E+02 -0.66878434155E+02 -0.87082012912E+03  0.89042939391E+03  0.17200000000E+03 0.  1.
         -6    1    1    2    0  502  0.21910803314E+02  0.66878434155E+02 -0.38144179402E+03  0.42430490273E+03  0.17200000000E+03 0.  1.
</event>
<event>
 4    1  0.5801298E+000  0.2136637E+03  0.7818608E-02  0.1138697E+00
         21   -1    0    0  501  502  0.00000000000E+00  0.00000000000E+00  0.22831738045E+04  0.22831738045E+04  0.00000000000E+00 0.  1.
         21   -1    0    0  502  503 -0.00000000000E+00 -0.00000000000E+00 -0.23655292455E+02  0.23655292455E+02  0.00000000000E+00 0.  1.
          6    1    1    2  501    0 -0.92434645749E+02  0.86740966589E+02  0.15834674163E+04  0.15978176421E+04  0.17200000000E+03 0.  1.
         -6    1    1    2    0  503  0.92434645749E+02 -0.86740966589E+02  0.67605109584E+03  0.70901145491E+03  0.17200000000E+03 0.  1.
</event>
<event>
 4    1  0.5801298E+000  0.1854565E+03  0.7818608E-02  0.1162624E+00
         21   -1    0    0  501  502  0.00000000000E+00  0.00000000000E+00  0.86610883127E+02  0.86610883127E+02  0.00000000000E+00 0. -1.
         21   -1    0    0  502  503 -0.00000000000E+00 -0.00000000000E+00 -0.20442161388E+04  0.20442161388E+04  0.00000000000E+00 0. -1.
          6    1    1    2  501    0  0.16764994174E+01 -0.69334671065E+02 -0.22455636264E+02  0.18681103517E+03  0.17200000000E+03 0. -1.
         -6    1    1    2    0  503 -0.16764994174E+01  0.69334671065E+02 -0.19351496194E+04  0.19440159867E+04  0.17200000000E+03 0. -1.
</event>
<event>
 4    1  0.5801298E+000  0.1836305E+03  0.7818608E-02  0.1164335E+00
         21   -1    0    0  501  502  0.00000000000E+00  0.00000000000E+00  0.83597713983E+02  0.83597713983E+02  0.00000000000E+00 0.  1.
         21   -1    0    0  502  503 -0.00000000000E+00 -0.00000000000E+00 -0.73956801357E+03  0.73956801357E+03  0.00000000000E+00 0.  1.
          6    1    1    2  501    0 -0.48463550096E+02 -0.42278065536E+02 -0.50480099779E+02  0.19044261862E+03  0.17200000000E+03 0.  1.
         -6    1    1    2    0  503  0.48463550096E+02  0.42278065536E+02 -0.60549019981E+03  0.63272310893E+03  0.17200000000E+03 0.  1.
</event>
<event>
 4    1  0.5801298E+000  0.1731591E+03  0.7818608E-02  0.1174593E+00
         21   -1    0    0  503  502  0.00000000000E+00  0.00000000000E+00  0.58831476637E+03  0.58831476637E+03  0.00000000000E+00 0. -1.
         21   -1    0    0  501  503 -0.00000000000E+00 -0.00000000000E+00 -0.10120158715E+03  0.10120158715E+03  0.00000000000E+00 0. -1.
          6    1    1    2  501    0 -0.10809760651E+02 -0.16829285466E+02  0.65717496111E+00  0.17316035243E+03  0.17200000000E+03 0. -1.
         -6    1    1    2    0  502  0.10809760651E+02  0.16829285466E+02  0.48645600427E+03  0.51635600109E+03  0.17200000000E+03 0. -1.
</event>
<event>
 4    1  0.5801298E+000  0.1754362E+03  0.7818608E-02  0.1172294E+00
         21   -1    0    0  501  502  0.00000000000E+00  0.00000000000E+00  0.30186639311E+03  0.30186639311E+03  0.00000000000E+00 0. -1.
         21   -1    0    0  502  503 -0.00000000000E+00 -0.00000000000E+00 -0.10228961663E+03  0.10228961663E+03  0.00000000000E+00 0. -1.
          6    1    1    2  501    0 -0.32234022857E+02 -0.12443399223E+02  0.11128415041E+03  0.20775474133E+03  0.17200000000E+03 0.  1.
         -6    1    1    2    0  503  0.32234022857E+02  0.12443399223E+02  0.88292626075E+02  0.19640126841E+03  0.17200000000E+03 0.  1.
</event>
<event>
 4    1  0.5801298E+000  0.1791107E+03  0.7818608E-02  0.1168667E+00
         21   -1    0    0  501  502  0.00000000000E+00  0.00000000000E+00  0.15205498481E+02  0.15205498481E+02  0.00000000000E+00 0.  1.
         21   -1    0    0  502  503 -0.00000000000E+00 -0.00000000000E+00 -0.24895833149E+04  0.24895833149E+04  0.00000000000E+00 0.  1.
          6    1    1    2  501    0  0.49029313846E+02 -0.96313665299E+01 -0.74803799996E+03  0.76918234913E+03  0.17200000000E+03 0.  1.
         -6    1    1    2    0  503 -0.49029313846E+02  0.96313665299E+01 -0.17263398165E+04  0.17356064643E+04  0.17200000000E+03 0.  1.
</event>
<event>
 4    1  0.5801298E+000  0.1731652E+03  0.7818608E-02  0.1174587E+00
         21   -1    0    0  503  502  0.00000000000E+00  0.00000000000E+00  0.83278885526E+03  0.83278885526E+03  0.00000000000E+00 0. -1.
         21   -1    0    0  501  503 -0.00000000000E+00 -0.00000000000E+00 -0.43270709279E+02  0.43270709279E+02  0.00000000000E+00 0. -1.
          6    1    1    2  501    0  0.14697168243E+02 -0.13645395348E+02  0.21529118671E+03  0.27629060542E+03  0.17200000000E+03 0.  1.
         -6    1    1    2    0  502 -0.14697168243E+02  0.13645395348E+02  0.57422695927E+03  0.59976895911E+03  0.17200000000E+03 0.  1.
</event>
<event>
 4    1  0.5801298E+000  0.2296801E+03  0.7818608E-02  0.1126865E+00
         21   -1    0    0  501  502  0.00000000000E+00  0.00000000000E+00  0.40420361563E+03  0.40420361563E+03  0.00000000000E+00 0.  1.
         21   -1    0    0  502  503 -0.00000000000E+00 -0.00000000000E+00 -0.13854057278E+03  0.13854057278E+03  0.00000000000E+00 0.  1.
          6    1    1    2  501    0 -0.31007837716E+02  0.14902171489E+03  0.19816367416E+03  0.30335095066E+03  0.17200000000E+03 0.  1.
         -6    1    1    2    0  503  0.31007837716E+02 -0.14902171489E+03  0.67499368688E+02  0.23939323775E+03  0.17200000000E+03 0.  1.
</event>
<event>
 4    1  0.5801298E+000  0.1762389E+03  0.7818608E-02  0.1171494E+00
         21   -1    0    0  503  502  0.00000000000E+00  0.00000000000E+00  0.37747267808E+02  0.37747267808E+02  0.00000000000E+00 0. -1.
         21   -1    0    0  501  503 -0.00000000000E+00 -0.00000000000E+00 -0.98501256189E+03  0.98501256189E+03  0.00000000000E+00 0. -1.
          6    1    1    2  501    0 -0.20537344103E+02  0.32470812980E+02 -0.68112652416E+03  0.70355772906E+03  0.17200000000E+03 0. -1.
         -6    1    1    2    0  502  0.20537344103E+02 -0.32470812980E+02 -0.26613876992E+03  0.31920210064E+03  0.17200000000E+03 0. -1.
</event>
<event>
 4    1  0.5801298E+000  0.1731703E+03  0.7818608E-02  0.1174581E+00
         21   -1    0    0  503  502  0.00000000000E+00  0.00000000000E+00  0.40087172813E+02  0.40087172813E+02  0.00000000000E+00 0.  1.
         21   -1    0    0  501  503 -0.00000000000E+00 -0.00000000000E+00 -0.75589615889E+03  0.75589615889E+03  0.00000000000E+00 0.  1.
          6    1    1    2  501    0 -0.20096920510E+02  0.27114562231E+00 -0.39840430187E+03  0.43441218615E+03  0.17200000000E+03 0. -1.
         -6    1    1    2    0  502  0.20096920510E+02 -0.27114562231E+00 -0.31740468421E+03  0.36157114554E+03  0.17200000000E+03 0. -1.
</event>
<event>
 4    1  0.5801298E+000  0.2082939E+03  0.7818608E-02  0.1142924E+00
         21   -1    0    0  503  502  0.00000000000E+00  0.00000000000E+00  0.54121873262E+03  0.54121873262E+03  0.00000000000E+00 0.  1.
         21   -1    0    0  501  503 -0.00000000000E+00 -0.00000000000E+00 -0.94896559916E+02  0.94896559916E+02  0.00000000000E+00 0. -1.
          6    1    1    2  501    0 -0.37157869052E+02  0.11145248203E+03  0.34848007120E+03  0.40598611184E+03  0.17200000000E+03 0.  1.
         -6    1    1    2    0  502  0.37157869052E+02 -0.11145248203E+03  0.97842101506E+02  0.23012918070E+03  0.17200000000E+03 0. -1.
</event>
<event>
 4    1  0.5801298E+000  0.2207830E+03  0.7818608E-02  0.1133301E+00
         21   -1    0    0  501  502  0.00000000000E+00  0.00000000000E+00  0.41583656500E+03  0.41583656500E+03  0.00000000000E+00 0. -1.
         21   -1    0    0  502  503 -0.00000000000E+00 -0.00000000000E+00 -0.14420671428E+03  0.14420671428E+03  0.00000000000E+00 0. -1.
          6    1    1    2  501    0  0.10812334424E+03  0.86431925897E+02  0.25694692771E+03  0.33877257717E+03  0.17200000000E+03 0. -1.
         -6    1    1    2    0  503 -0.10812334424E+03 -0.86431925897E+02  0.14682923015E+02  0.22127070211E+03  0.17200000000E+03 0. -1.
</event>
<event>
 4    1  0.5801298E+000  0.2269651E+03  0.7818608E-02  0.1128794E+00
         21   -1    0    0  501  502  0.00000000000E+00  0.00000000000E+00  0.16218660646E+03  0.16218660646E+03  0.00000000000E+00 0. -1.
         21   -1    0    0  502  503 -0.00000000000E+00 -0.00000000000E+00 -0.41296255882E+03  0.41296255882E+03  0.00000000000E+00 0.  1.
          6    1    1    2  501    0  0.12031832252E+03  0.86328813169E+02  0.12792360076E+02  0.22732533337E+03  0.17200000000E+03 0. -1.
         -6    1    1    2    0  503 -0.12031832252E+03 -0.86328813169E+02 -0.26356831244E+03  0.34782383191E+03  0.17200000000E+03 0.  1.
</event>
<event>
 4    1  0.5801298E+000  0.1902919E+03  0.7818608E-02  0.1158198E+00
         21   -1    0    0  503  502  0.00000000000E+00  0.00000000000E+00  0.42091969684E+03  0.42091969684E+03  0.00000000000E+00 0. -1.
         21   -1    0    0  501  503 -0.00000000000E+00 -0.00000000000E+00 -0.87011180378E+02  0.87011180378E+02  0.00000000000E+00 0. -1.
          6    1    1    2  501    0 -0.88038240195E+01  0.80929013042E+02  0.13996232428E+03  0.23622121981E+03  0.17200000000E+03 0. -1.
         -6    1    1    2    0  502  0.88038240195E+01 -0.80929013042E+02  0.19394619219E+03  0.27170965742E+03  0.17200000000E+03 0. -1.
</event>
<event>
 4    1  0.5801298E+000  0.3713832E+03  0.7818608E-02  0.1054165E+00
         21   -1    0    0  501  502  0.00000000000E+00  0.00000000000E+00  0.19873465675E+03  0.19873465675E+03  0.00000000000E+00 0. -1.
         21   -1    0    0  502  503 -0.00000000000E+00 -0.00000000000E+00 -0.69439262497E+03  0.69439262497E+03  0.00000000000E+00 0. -1.
          6    1    1    2  501    0 -0.22438345956E+03  0.24081846969E+03 -0.25819836843E+03  0.45231832787E+03  0.17200000000E+03 0.  1.
         -6    1    1    2    0  503  0.22438345956E+03 -0.24081846969E+03 -0.23745959979E+03  0.44080895386E+03  0.17200000000E+03 0.  1.
</event>
<event>
 4    1  0.5801298E+000  0.1767640E+03  0.7818608E-02  0.1170972E+00
         21   -1    0    0  501  502  0.00000000000E+00  0.00000000000E+00  0.21102966664E+03  0.21102966664E+03  0.00000000000E+00 0. -1.
         21   -1    0    0  502  503 -0.00000000000E+00 -0.00000000000E+00 -0.21942174283E+03  0.21942174283E+03  0.00000000000E+00 0. -1.
          6    1    1    2  501    0 -0.29970250928E+02  0.27627632195E+02  0.11854238802E+03  0.21283279766E+03  0.17200000000E+03 0. -1.
         -6    1    1    2    0  503  0.29970250928E+02 -0.27627632195E+02 -0.12693446421E+03  0.21761861181E+03  0.17200000000E+03 0. -1.
</event>
<event>
 4    1  0.5801298E+000  0.1864659E+03  0.7818608E-02  0.1161688E+00
         21   -1    0    0  503  502  0.00000000000E+00  0.00000000000E+00  0.27463724622E+03  0.27463724622E+03  0.00000000000E+00 0.  1.
         21   -1    0    0  501  503 -0.00000000000E+00 -0.00000000000E+00 -0.13241491636E+03  0.13241491636E+03  0.00000000000E+00 0.  1.
          6    1    1    2  501    0 -0.28878956555E+02 -0.65966212372E+02  0.28466883200E+02  0.18862634690E+03  0.17200000000E+03 0.  1.
         -6    1    1    2    0  502  0.28878956555E+02  0.65966212372E+02  0.11375544666E+03  0.21842581567E+03  0.17200000000E+03 0.  1.
</event>
<event>
 4    1  0.5801298E+000  0.1829126E+03  0.7818608E-02  0.1165014E+00
         21   -1    0    0  503  502  0.00000000000E+00  0.00000000000E+00  0.81801788965E+03  0.81801788965E+03  0.00000000000E+00 0.  1.
         21   -1    0    0  501  503 -0.00000000000E+00 -0.00000000000E+00 -0.44265834833E+02  0.44265834833E+02  0.00000000000E+00 0.  1.
          6    1    1    2  501    0 -0.10443533927E+02 -0.61350998103E+02  0.26799134536E+03  0.32446320832E+03  0.17200000000E+03 0.  1.
         -6    1    1    2    0  502  0.10443533927E+02  0.61350998103E+02  0.50576070946E+03  0.53782051616E+03  0.17200000000E+03 0.  1.
</event>
<event>
 4    1  0.5801298E+000  0.1731072E+03  0.7818608E-02  0.1174646E+00
         21   -1    0    0  501  502  0.00000000000E+00  0.00000000000E+00  0.98764710745E+02  0.98764710745E+02  0.00000000000E+00 0. -1.
         21   -1    0    0  502  503 -0.00000000000E+00 -0.00000000000E+00 -0.34030652779E+03  0.34030652779E+03  0.00000000000E+00 0. -1.
          6    1    1    2  501    0  0.14623607220E+02  0.12970983210E+02 -0.48482471387E+02  0.17976831291E+03  0.17200000000E+03 0. -1.
         -6    1    1    2    0  503 -0.14623607220E+02 -0.12970983210E+02 -0.19305934566E+03  0.25930292563E+03  0.17200000000E+03 0. -1.
</event>
<event>
 4    1  0.5801298E+000  0.1881114E+03  0.7818608E-02  0.1160176E+00
         21   -1    0    0  503  502  0.00000000000E+00  0.00000000000E+00  0.37670313422E+02  0.37670313422E+02  0.00000000000E+00 0. -1.
         21   -1    0    0  501  503 -0.00000000000E+00 -0.00000000000E+00 -0.95431416569E+03  0.95431416569E+03  0.00000000000E+00 0. -1.
          6    1    1    2  501    0  0.36371715059E+02  0.66925241934E+02 -0.52041558821E+03  0.55336992520E+03  0.17200000000E+03 0. -1.
         -6    1    1    2    0  502 -0.36371715059E+02 -0.66925241934E+02 -0.39622826406E+03  0.43861455391E+03  0.17200000000E+03 0. -1.
</event>
<event>
 4    1  0.5801298E+000  0.1927288E+03  0.7818608E-02  0.1156023E+00
         21   -1    0    0  501  502  0.00000000000E+00  0.00000000000E+00  0.73914531653E+02  0.73914531653E+02  0.00000000000E+00 0.  1.
         21   -1    0    0  502  503 -0.00000000000E+00 -0.00000000000E+00 -0.72871728880E+03  0.72871728880E+03  0.00000000000E+00 0.  1.
          6    1    1    2  501    0 -0.71747011676E+02 -0.49119653864E+02 -0.10381796555E+03  0.21891218342E+03  0.17200000000E+03 0.  1.
         -6    1    1    2    0  503  0.71747011676E+02  0.49119653864E+02 -0.55098479160E+03  0.58371963703E+03  0.17200000000E+03 0.  1.
</event>
<event>
 4    1  0.5801298E+000  0.1780207E+03  0.7818608E-02  0.1169732E+00
         21   -1    0    0  503  502  0.00000000000E+00  0.00000000000E+00  0.38501364378E+02  0.38501364378E+02  0.00000000000E+00 0. -1.
         21   -1    0    0  501  503 -0.00000000000E+00 -0.00000000000E+00 -0.87776523223E+03  0.87776523223E+03  0.00000000000E+00 0. -1.
          6    1    1    2  501    0 -0.45792930074E+02 -0.32233997528E+01 -0.30532715456E+03  0.35343465317E+03  0.17200000000E+03 0. -1.
         -6    1    1    2    0  502  0.45792930074E+02  0.32233997528E+01 -0.53393671329E+03  0.56283194344E+03  0.17200000000E+03 0. -1.
</event>
<event>
 4    1  0.5801298E+000  0.2147372E+03  0.7818608E-02  0.1137869E+00
         21   -1    0    0  503  502  0.00000000000E+00  0.00000000000E+00  0.74595673693E+02  0.74595673693E+02  0.00000000000E+00 0. -1.
         21   -1    0    0  501  503 -0.00000000000E+00 -0.00000000000E+00 -0.18869240216E+04  0.18869240216E+04  0.00000000000E+00 0. -1.
          6    1    1    2  501    0 -0.11161178875E+03 -0.63803545356E+02 -0.17103859854E+04  0.17238133028E+04  0.17200000000E+03 0. -1.
         -6    1    1    2    0  502  0.11161178875E+03  0.63803545356E+02 -0.10194236258E+03  0.23770639258E+03  0.17200000000E+03 0. -1.
</event>
<event>
 4    1  0.5801298E+000  0.1863836E+03  0.7818608E-02  0.1161764E+00
         21   -1    0    0  501  502  0.00000000000E+00  0.00000000000E+00  0.45280138671E+03  0.45280138671E+03  0.00000000000E+00 0. -1.
         21   -1    0    0  502  503 -0.00000000000E+00 -0.00000000000E+00 -0.88188412270E+02  0.88188412270E+02  0.00000000000E+00 0.  1.
          6    1    1    2  501    0 -0.71774776075E+02 -0.17948090095E+01  0.84760722105E+02  0.20475160520E+03  0.17200000000E+03 0.  1.
         -6    1    1    2    0  503  0.71774776075E+02  0.17948090095E+01  0.27985225233E+03  0.33623819378E+03  0.17200000000E+03 0. -1.
</event>
<event>
 4    1  0.5801298E+000  0.1786214E+03  0.7818608E-02  0.1169144E+00
         21   -1    0    0  501  502  0.00000000000E+00  0.00000000000E+00  0.21663584051E+03  0.21663584051E+03  0.00000000000E+00 0. -1.
         21   -1    0    0  502  503 -0.00000000000E+00 -0.00000000000E+00 -0.30481918919E+03  0.30481918919E+03  0.00000000000E+00 0. -1.
          6    1    1    2  501    0  0.28689558003E+02  0.38710805064E+02  0.14334874949E+03  0.22902943293E+03  0.17200000000E+03 0. -1.
         -6    1    1    2    0  503 -0.28689558003E+02 -0.38710805064E+02 -0.23153209817E+03  0.29242559678E+03  0.17200000000E+03 0. -1.
</event>
<event>
 4    1  0.5801298E+000  0.1946704E+03  0.7818608E-02  0.1154315E+00
         21   -1    0    0  501  502  0.00000000000E+00  0.00000000000E+00  0.97747129385E+03  0.97747129385E+03  0.00000000000E+00 0. -1.
         21   -1    0    0  502  503 -0.00000000000E+00 -0.00000000000E+00 -0.78210481877E+02  0.78210481877E+02  0.00000000000E+00 0. -1.
          6    1    1    2  501    0 -0.92289971069E+01 -0.90704930900E+02  0.82446673162E+03  0.84713750385E+03  0.17200000000E+03 0. -1.
         -6    1    1    2    0  503  0.92289971069E+01  0.90704930900E+02  0.74794080352E+02  0.20854427188E+03  0.17200000000E+03 0. -1.
</event>
<event>
 4    1  0.5801298E+000  0.1745104E+03  0.7818608E-02  0.1173224E+00
         21   -1    0    0  503  502  0.00000000000E+00  0.00000000000E+00  0.67095740269E+02  0.67095740269E+02  0.00000000000E+00 0.  1.
         21   -1    0    0  501  503 -0.00000000000E+00 -0.00000000000E+00 -0.92190129181E+03  0.92190129181E+03  0.00000000000E+00 0.  1.
          6    1    1    2  501    0 -0.24778822984E+02  0.15997040921E+02 -0.77973491577E+03  0.79902467688E+03  0.17200000000E+03 0.  1.
         -6    1    1    2    0  502  0.24778822984E+02 -0.15997040921E+02 -0.75070635775E+02  0.18997235521E+03  0.17200000000E+03 0.  1.
</event>
<event>
 4    1  0.5801298E+000  0.1999952E+03  0.7818608E-02  0.1149743E+00
         21   -1    0    0  503  502  0.00000000000E+00  0.00000000000E+00  0.62378008551E+03  0.62378008551E+03  0.00000000000E+00 0. -1.
         21   -1    0    0  501  503 -0.00000000000E+00 -0.00000000000E+00 -0.87830426106E+02  0.87830426106E+02  0.00000000000E+00 0.  1.
          6    1    1    2  501    0  0.64000363866E+02  0.79486170004E+02  0.45283365181E+03  0.49503173030E+03  0.17200000000E+03 0. -1.
         -6    1    1    2    0  502 -0.64000363866E+02 -0.79486170004E+02  0.83116007597E+02  0.21657878131E+03  0.17200000000E+03 0.  1.
</event>
<event>
 4    1  0.5801298E+000  0.2096219E+03  0.7818608E-02  0.1141866E+00
         21   -1    0    0  501  502  0.00000000000E+00  0.00000000000E+00  0.37681261038E+03  0.37681261038E+03  0.00000000000E+00 0. -1.
         21   -1    0    0  502  503 -0.00000000000E+00 -0.00000000000E+00 -0.11761547680E+03  0.11761547680E+03  0.00000000000E+00 0. -1.
          6    1    1    2  501    0  0.18660681795E+02 -0.11836019416E+03  0.15241859416E+03  0.25917712950E+03  0.17200000000E+03 0. -1.
         -6    1    1    2    0  503 -0.18660681795E+02  0.11836019416E+03  0.10677853942E+03  0.23525095768E+03  0.17200000000E+03 0. -1.
</event>
<event>
 4    1  0.5801298E+000  0.1765607E+03  0.7818608E-02  0.1171174E+00
         21   -1    0    0  503  502  0.00000000000E+00  0.00000000000E+00  0.33859372036E+04  0.33859372036E+04  0.00000000000E+00 0. -1.
         21   -1    0    0  501  503 -0.00000000000E+00 -0.00000000000E+00 -0.92503964773E+01  0.92503964773E+01  0.00000000000E+00 0. -1.
          6    1    1    2  501    0  0.11568887748E+02 -0.38155319560E+02  0.18048762937E+04  0.18134916882E+04  0.17200000000E+03 0.  1.
         -6    1    1    2    0  502 -0.11568887748E+02  0.38155319560E+02  0.15718105134E+04  0.15816959119E+04  0.17200000000E+03 0.  1.
</event>
<event>
 4    1  0.5801298E+000  0.1959182E+03  0.7818608E-02  0.1153229E+00
         21   -1    0    0  503  502  0.00000000000E+00  0.00000000000E+00  0.74661581050E+03  0.74661581050E+03  0.00000000000E+00 0. -1.
         21   -1    0    0  501  503 -0.00000000000E+00 -0.00000000000E+00 -0.54426182425E+02  0.54426182425E+02  0.00000000000E+00 0. -1.
          6    1    1    2  501    0 -0.90136140749E+02  0.25988869719E+02  0.25181710220E+03  0.31905453794E+03  0.17200000000E+03 0. -1.
         -6    1    1    2    0  502  0.90136140749E+02 -0.25988869719E+02  0.44037252587E+03  0.48198745498E+03  0.17200000000E+03 0. -1.
</event>
<event>
 4    1  0.5801298E+000  0.2315318E+03  0.7818608E-02  0.1125566E+00
         21   -1    0    0  503  502  0.00000000000E+00  0.00000000000E+00  0.11734647962E+03  0.11734647962E+03  0.00000000000E+00 0.  1.
         21   -1    0    0  501  503 -0.00000000000E+00 -0.00000000000E+00 -0.45965261222E+03  0.45965261222E+03  0.00000000000E+00 0.  1.
          6    1    1    2  501    0 -0.52630501313E+02  0.14578404328E+03 -0.19377559216E+03  0.30192041511E+03  0.17200000000E+03 0.  1.
         -6    1    1    2    0  502  0.52630501313E+02 -0.14578404328E+03 -0.14853054045E+03  0.27507867672E+03  0.17200000000E+03 0.  1.
</event>
<event>
 4    1  0.5801298E+000  0.2659940E+03  0.7818608E-02  0.1103594E+00
         21   -1    0    0  503  502  0.00000000000E+00  0.00000000000E+00  0.38092515368E+03  0.38092515368E+03  0.00000000000E+00 0. -1.
         21   -1    0    0  501  503 -0.00000000000E+00 -0.00000000000E+00 -0.18899823066E+03  0.18899823066E+03  0.00000000000E+00 0. -1.
          6    1    1    2  501    0  0.12279760350E+03 -0.16152255073E+03  0.58544420832E+02  0.27236048728E+03  0.17200000000E+03 0. -1.
         -6    1    1    2    0  502 -0.12279760350E+03  0.16152255073E+03  0.13338250218E+03  0.29756289706E+03  0.17200000000E+03 0. -1.
</event>
<event>
 4    1  0.5801298E+000  0.2161309E+03  0.7818608E-02  0.1136801E+00
         21   -1    0    0  503  502  0.00000000000E+00  0.00000000000E+00  0.35825952481E+03  0.35825952481E+03  0.00000000000E+00 0. -1.
         21   -1    0    0  501  503 -0.00000000000E+00 -0.00000000000E+00 -0.13816484056E+03  0.13816484056E+03  0.00000000000E+00 0. -1.
          6    1    1    2  501    0  0.13035581767E+03 -0.11658445344E+02  0.51157513480E+02  0.22210279092E+03  0.17200000000E+03 0. -1.
         -6    1    1    2    0  502 -0.13035581767E+03  0.11658445344E+02  0.16893717077E+03  0.27432157446E+03  0.17200000000E+03 0. -1.
</event>
<event>
 4    1  0.5801298E+000  0.2497499E+03  0.7818608E-02  0.1113463E+00
         21   -1    0    0  503  502  0.00000000000E+00  0.00000000000E+00  0.57084775181E+03  0.57084775181E+03  0.00000000000E+00 0. -1.
         21   -1    0    0  501  503 -0.00000000000E+00 -0.00000000000E+00 -0.12155492166E+03  0.12155492166E+03  0.00000000000E+00 0. -1.
          6    1    1    2  501    0  0.81023051497E+02  0.16194530225E+03  0.11457471799E+03  0.27477696737E+03  0.17200000000E+03 0. -1.
         -6    1    1    2    0  502 -0.81023051497E+02 -0.16194530225E+03  0.33471811215E+03  0.41762570610E+03  0.17200000000E+03 0. -1.
</event>
<event>
 4    1  0.5801298E+000  0.2065301E+03  0.7818608E-02  0.1144344E+00
         21   -1    0    0  501  502  0.00000000000E+00  0.00000000000E+00  0.14568707016E+03  0.14568707016E+03  0.00000000000E+00 0. -1.
         21   -1    0    0  502  503 -0.00000000000E+00 -0.00000000000E+00 -0.30451795935E+03  0.30451795935E+03  0.00000000000E+00 0. -1.
          6    1    1    2  501    0 -0.30837697965E+02  0.11008951487E+03 -0.12360491758E+03  0.24069241897E+03  0.17200000000E+03 0.  1.
         -6    1    1    2    0  503  0.30837697965E+02 -0.11008951487E+03 -0.35225971607E+02  0.20951261054E+03  0.17200000000E+03 0.  1.
</event>
<event>
 4    1  0.5801298E+000  0.2542585E+03  0.7818608E-02  0.1110643E+00
         21   -1    0    0  503  502  0.00000000000E+00  0.00000000000E+00  0.54511827009E+03  0.54511827009E+03  0.00000000000E+00 0.  1.
         21   -1    0    0  501  503 -0.00000000000E+00 -0.00000000000E+00 -0.34228244250E+03  0.34228244250E+03  0.00000000000E+00 0. -1.
          6    1    1    2  501    0  0.38071843643E+02  0.18334099110E+03 -0.25727260832E+03  0.36171339384E+03  0.17200000000E+03 0. -1.
         -6    1    1    2    0  502 -0.38071843643E+02 -0.18334099110E+03  0.46010843591E+03  0.52568731875E+03  0.17200000000E+03 0.  1.
</event>
<event>
 4    1  0.5801298E+000  0.1838324E+03  0.7818608E-02  0.1164145E+00
         21   -1    0    0  501  502  0.00000000000E+00  0.00000000000E+00  0.38615361621E+03  0.38615361621E+03  0.00000000000E+00 0.  1.
         21   -1    0    0  502  503 -0.00000000000E+00 -0.00000000000E+00 -0.10025146915E+03  0.10025146915E+03  0.00000000000E+00 0.  1.
          6    1    1    2  501    0 -0.46610500193E+02  0.45142218128E+02  0.22963563358E+03  0.29415452197E+03  0.17200000000E+03 0.  1.
         -6    1    1    2    0  503  0.46610500193E+02 -0.45142218128E+02  0.56266513481E+02  0.19225056339E+03  0.17200000000E+03 0.  1.
</event>
<event>
 4    1  0.5801298E+000  0.1756268E+03  0.7818608E-02  0.1172104E+00
         21   -1    0    0  503  502  0.00000000000E+00  0.00000000000E+00  0.12016408163E+03  0.12016408163E+03  0.00000000000E+00 0.  1.
         21   -1    0    0  501  503 -0.00000000000E+00 -0.00000000000E+00 -0.27090465335E+03  0.27090465335E+03  0.00000000000E+00 0.  1.
          6    1    1    2  501    0  0.25401370436E+02 -0.24809848329E+02 -0.30577988863E+02  0.17826881835E+03  0.17200000000E+03 0. -1.
         -6    1    1    2    0  502 -0.25401370436E+02  0.24809848329E+02 -0.12016258286E+03  0.21279991662E+03  0.17200000000E+03 0. -1.
</event>
<event>
 4    1  0.5801298E+000  0.1873374E+03  0.7818608E-02  0.1160885E+00
         21   -1    0    0  503  502  0.00000000000E+00  0.00000000000E+00  0.10495273403E+04  0.10495273403E+04  0.00000000000E+00 0.  1.
         21   -1    0    0  501  503 -0.00000000000E+00 -0.00000000000E+00 -0.69989630575E+02  0.69989630575E+02  0.00000000000E+00 0. -1.
          6    1    1    2  501    0 -0.71921148661E+02  0.18402622210E+02  0.85257844437E+02  0.20582567422E+03  0.17200000000E+03 0. -1.
         -6    1    1    2    0  502  0.71921148661E+02 -0.18402622210E+02  0.89427986528E+03  0.91369129665E+03  0.17200000000E+03 0.  1.
</event>
<event>
 4    1  0.5801298E+000  0.1953963E+03  0.7818608E-02  0.1153682E+00
         21   -1    0    0  501  502  0.00000000000E+00  0.00000000000E+00  0.15287249296E+03  0.15287249296E+03  0.00000000000E+00 0.  1.
         21   -1    0    0  502  503 -0.00000000000E+00 -0.00000000000E+00 -0.27702522206E+03  0.27702522206E+03  0.00000000000E+00 0.  1.
          6    1    1    2  501    0 -0.11421951836E+02 -0.92006882374E+02  0.53716062639E+01  0.19547015512E+03  0.17200000000E+03 0.  1.
         -6    1    1    2    0  503  0.11421951836E+02  0.92006882374E+02 -0.12952433537E+03  0.23442755990E+03  0.17200000000E+03 0.  1.
</event>
<event>
 4    1  0.5801298E+000  0.2044565E+03  0.7818608E-02  0.1146033E+00
         21   -1    0    0  503  502  0.00000000000E+00  0.00000000000E+00  0.56713511081E+02  0.56713511081E+02  0.00000000000E+00 0. -1.
         21   -1    0    0  501  503 -0.00000000000E+00 -0.00000000000E+00 -0.76500378064E+03  0.76500378064E+03  0.00000000000E+00 0.  1.
          6    1    1    2  501    0  0.91854804002E+02  0.61491264442E+02 -0.27565122289E+03  0.34319976297E+03  0.17200000000E+03 0. -1.
         -6    1    1    2    0  502 -0.91854804002E+02 -0.61491264442E+02 -0.43263904667E+03  0.47851752875E+03  0.17200000000E+03 0.  1.
</event>
<event>
 4    1  0.5801298E+000  0.2789858E+03  0.7818608E-02  0.1096244E+00
         21   -1    0    0  503  502  0.00000000000E+00  0.00000000000E+00  0.15287947853E+03  0.15287947853E+03  0.00000000000E+00 0.  1.
         21   -1    0    0  501  503 -0.00000000000E+00 -0.00000000000E+00 -0.56020162127E+03  0.56020162127E+03  0.00000000000E+00 0. -1.
          6    1    1    2  501    0 -0.92236049136E+02 -0.19935291205E+03 -0.31133111348E+03  0.41804322088E+03  0.17200000000E+03 0. -1.
         -6    1    1    2    0  502  0.92236049136E+02  0.19935291205E+03 -0.95991029264E+02  0.29503787893E+03  0.17200000000E+03 0. -1.
</event>
<event>
 4    1  0.5801298E+000  0.1868483E+03  0.7818608E-02  0.1161335E+00
         21   -1    0    0  503  502  0.00000000000E+00  0.00000000000E+00  0.21783564307E+03  0.21783564307E+03  0.00000000000E+00 0. -1.
         21   -1    0    0  501  503 -0.00000000000E+00 -0.00000000000E+00 -0.25742303566E+03  0.25742303566E+03  0.00000000000E+00 0. -1.
          6    1    1    2  501    0 -0.45142158457E+02 -0.57362740753E+02 -0.16577821487E+03  0.24978934129E+03  0.17200000000E+03 0. -1.
         -6    1    1    2    0  502  0.45142158457E+02  0.57362740753E+02  0.12619082228E+03  0.22546933744E+03  0.17200000000E+03 0. -1.
</event>
<event>
 4    1  0.5801298E+000  0.3841923E+03  0.7818608E-02  0.1049395E+00
         21   -1    0    0  501  502  0.00000000000E+00  0.00000000000E+00  0.56277720325E+03  0.56277720325E+03  0.00000000000E+00 0. -1.
         21   -1    0    0  502  503 -0.00000000000E+00 -0.00000000000E+00 -0.34424686604E+03  0.34424686604E+03  0.00000000000E+00 0.  1.
          6    1    1    2  501    0  0.70635639882E+02 -0.33619979823E+03  0.33056448753E+03  0.50682993042E+03  0.17200000000E+03 0. -1.
         -6    1    1    2    0  503 -0.70635639882E+02  0.33619979823E+03 -0.11203415033E+03  0.40019413887E+03  0.17200000000E+03 0.  1.
</event>
<event>
 4    1  0.5801298E+000  0.1944872E+03  0.7818608E-02  0.1154475E+00
         21   -1    0    0  503  502  0.00000000000E+00  0.00000000000E+00  0.14827851327E+03  0.14827851327E+03  0.00000000000E+00 0. -1.
         21   -1    0    0  501  503 -0.00000000000E+00 -0.00000000000E+00 -0.28014292218E+03  0.28014292218E+03  0.00000000000E+00 0. -1.
          6    1    1    2  501    0  0.55662284025E+01  0.90610569431E+02 -0.18808376115E+01  0.19449626151E+03  0.17200000000E+03 0. -1.
         -6    1    1    2    0  502 -0.55662284025E+01 -0.90610569431E+02 -0.12998357130E+03  0.23392517393E+03  0.17200000000E+03 0. -1.
</event>
<event>
 4    1  0.5801298E+000  0.2977818E+03  0.7818608E-02  0.1086355E+00
         21   -1    0    0  501  502  0.00000000000E+00  0.00000000000E+00  0.71568997060E+02  0.71568997060E+02  0.00000000000E+00 0.  1.
         21   -1    0    0  502  503 -0.00000000000E+00 -0.00000000000E+00 -0.12424677119E+04  0.12424677119E+04  0.00000000000E+00 0.  1.
          6    1    1    2  501    0 -0.20793219237E+03  0.12591340608E+03 -0.62015984759E+03  0.68794783161E+03  0.17200000000E+03 0.  1.
         -6    1    1    2    0  503  0.20793219237E+03 -0.12591340608E+03 -0.55073886729E+03  0.62608887740E+03  0.17200000000E+03 0.  1.
</event>
<event>
 4    1  0.5801298E+000  0.2364827E+03  0.7818608E-02  0.1122158E+00
         21   -1    0    0  501  502  0.00000000000E+00  0.00000000000E+00  0.12410714627E+04  0.12410714627E+04  0.00000000000E+00 0. -1.
         21   -1    0    0  502  503 -0.00000000000E+00 -0.00000000000E+00 -0.47798802528E+02  0.47798802528E+02  0.00000000000E+00 0. -1.
          6    1    1    2  501    0 -0.95337259292E+02 -0.13134255522E+03  0.44240844609E+03  0.50164658176E+03  0.17200000000E+03 0. -1.
         -6    1    1    2    0  503  0.95337259292E+02  0.13134255522E+03  0.75086421406E+03  0.78722368344E+03  0.17200000000E+03 0. -1.
</event>
<event>
 4    1  0.5801298E+000  0.2166074E+03  0.7818608E-02  0.1136438E+00
         21   -1    0    0  503  502  0.00000000000E+00  0.00000000000E+00  0.41202979764E+02  0.41202979764E+02  0.00000000000E+00 0.  1.
         21   -1    0    0  501  503 -0.00000000000E+00 -0.00000000000E+00 -0.11534298004E+04  0.11534298004E+04  0.00000000000E+00 0.  1.
          6    1    1    2  501    0  0.51434166032E+02  0.12119932570E+03 -0.62356294556E+03  0.66011324563E+03  0.17200000000E+03 0.  1.
         -6    1    1    2    0  502 -0.51434166032E+02 -0.12119932570E+03 -0.48866387503E+03  0.53451953448E+03  0.17200000000E+03 0.  1.
</event>
<event>
 4    1  0.5801298E+000  0.2233655E+03  0.7818608E-02  0.1131399E+00
         21   -1    0    0  503  502  0.00000000000E+00  0.00000000000E+00  0.13789083010E+04  0.13789083010E+04  0.00000000000E+00 0.  1.
         21   -1    0    0  501  503 -0.00000000000E+00 -0.00000000000E+00 -0.37758700902E+02  0.37758700902E+02  0.00000000000E+00 0.  1.
          6    1    1    2  501    0  0.30742930454E+02  0.13915104881E+03  0.52584573024E+03  0.57131941519E+03  0.17200000000E+03 0.  1.
         -6    1    1    2    0  502 -0.30742930454E+02 -0.13915104881E+03  0.81530386984E+03  0.84534758670E+03  0.17200000000E+03 0.  1.
</event>
<event>
 4    1  0.5801298E+000  0.1805118E+03  0.7818608E-02  0.1167309E+00
         21   -1    0    0  503  502  0.00000000000E+00  0.00000000000E+00  0.85502777228E+02  0.85502777228E+02  0.00000000000E+00 0.  1.
         21   -1    0    0  501  503 -0.00000000000E+00 -0.00000000000E+00 -0.43147672215E+03  0.43147672215E+03  0.00000000000E+00 0.  1.
          6    1    1    2  501    0  0.10778169669E+02 -0.53706172877E+02 -0.26131716083E+03  0.31760223628E+03  0.17200000000E+03 0.  1.
         -6    1    1    2    0  502 -0.10778169669E+02  0.53706172877E+02 -0.84656784088E+02  0.19937726309E+03  0.17200000000E+03 0.  1.
</event>
<event>
 4    1  0.5801298E+000  0.2234818E+03  0.7818608E-02  0.1131314E+00
         21   -1    0    0  503  502  0.00000000000E+00  0.00000000000E+00  0.65438069981E+02  0.65438069981E+02  0.00000000000E+00 0. -1.
         21   -1    0    0  501  503 -0.00000000000E+00 -0.00000000000E+00 -0.78589353738E+03  0.78589353738E+03  0.00000000000E+00 0. -1.
          6    1    1    2  501    0 -0.68031285555E+02  0.12542663969E+03 -0.43251804430E+03  0.48684284569E+03  0.17200000000E+03 0. -1.
         -6    1    1    2    0  502  0.68031285555E+02 -0.12542663969E+03 -0.28793742310E+03  0.36448876167E+03  0.17200000000E+03 0. -1.
</event>
<event>
 4    1  0.5801298E+000  0.1735180E+03  0.7818608E-02  0.1174228E+00
         21   -1    0    0  503  502  0.00000000000E+00  0.00000000000E+00  0.31028734020E+03  0.31028734020E+03  0.00000000000E+00 0. -1.
         21   -1    0    0  501  503 -0.00000000000E+00 -0.00000000000E+00 -0.42834381075E+03  0.42834381075E+03  0.00000000000E+00 0. -1.
          6    1    1    2  501    0  0.83578533231E+01  0.21322016539E+02 -0.38383001232E+03  0.42122910685E+03  0.17200000000E+03 0. -1.
         -6    1    1    2    0  502 -0.83578533231E+01 -0.21322016539E+02  0.26577354176E+03  0.31740204410E+03  0.17200000000E+03 0. -1.
</event>
<event>
 4    1  0.5801298E+000  0.1803484E+03  0.7818608E-02  0.1167466E+00
         21   -1    0    0  503  502  0.00000000000E+00  0.00000000000E+00  0.35215347998E+02  0.35215347998E+02  0.00000000000E+00 0. -1.
         21   -1    0    0  501  503 -0.00000000000E+00 -0.00000000000E+00 -0.92774154516E+03  0.92774154516E+03  0.00000000000E+00 0. -1.
          6    1    1    2  501    0  0.50162611872E+02  0.20622128149E+02 -0.47835925989E+03  0.51122709369E+03  0.17200000000E+03 0. -1.
         -6    1    1    2    0  502 -0.50162611872E+02 -0.20622128149E+02 -0.41416693727E+03  0.45172979947E+03  0.17200000000E+03 0. -1.
</event>
<event>
 4    1  0.5801298E+000  0.1737392E+03  0.7818608E-02  0.1174004E+00
         21   -1    0    0  503  502  0.00000000000E+00  0.00000000000E+00  0.31634329571E+02  0.31634329571E+02  0.00000000000E+00 0.  1.
         21   -1    0    0  501  503 -0.00000000000E+00 -0.00000000000E+00 -0.12024920749E+04  0.12024920749E+04  0.00000000000E+00 0.  1.
          6    1    1    2  501    0 -0.75181770868E+01 -0.23340558000E+02 -0.86582676117E+03  0.88308622738E+03  0.17200000000E+03 0.  1.
         -6    1    1    2    0  502  0.75181770868E+01  0.23340558000E+02 -0.30503098418E+03  0.35104017711E+03  0.17200000000E+03 0.  1.
</event>
<event>
 4    1  0.5801298E+000  0.1832825E+03  0.7818608E-02  0.1164663E+00
         21   -1    0    0  503  502  0.00000000000E+00  0.00000000000E+00  0.49640987086E+03  0.49640987086E+03  0.00000000000E+00 0. -1.
         21   -1    0    0  501  503 -0.00000000000E+00 -0.00000000000E+00 -0.12730371616E+03  0.12730371616E+03  0.00000000000E+00 0. -1.
          6    1    1    2  501    0 -0.28441149159E+02  0.56564838272E+02 -0.28887749990E+02  0.18554509423E+03  0.17200000000E+03 0. -1.
         -6    1    1    2    0  502  0.28441149159E+02 -0.56564838272E+02  0.39799390470E+03  0.43816849279E+03  0.17200000000E+03 0. -1.
</event>
<event>
 4    1  0.5801298E+000  0.2174823E+03  0.7818608E-02  0.1135774E+00
         21   -1    0    0  503  502  0.00000000000E+00  0.00000000000E+00  0.93125730028E+02  0.93125730028E+02  0.00000000000E+00 0.  1.
         21   -1    0    0  501  503 -0.00000000000E+00 -0.00000000000E+00 -0.54423117583E+03  0.54423117583E+03  0.00000000000E+00 0.  1.
          6    1    1    2  501    0  0.13247409259E+03  0.12852121191E+02 -0.14321469410E+03  0.26040163370E+03  0.17200000000E+03 0.  1.
         -6    1    1    2    0  502 -0.13247409259E+03 -0.12852121191E+02 -0.30789075170E+03  0.37695527216E+03  0.17200000000E+03 0.  1.
</event>
<event>
 4    1  0.5801298E+000  0.1752636E+03  0.7818608E-02  0.1172467E+00
         21   -1    0    0  501  502  0.00000000000E+00  0.00000000000E+00  0.84931222665E+03  0.84931222665E+03  0.00000000000E+00 0. -1.
         21   -1    0    0  502  503 -0.00000000000E+00 -0.00000000000E+00 -0.42930956087E+02  0.42930956087E+02  0.00000000000E+00 0. -1.
          6    1    1    2  501    0  0.18179551712E+02 -0.28334302212E+02  0.58026625505E+03  0.60615695618E+03  0.17200000000E+03 0.  1.
         -6    1    1    2    0  503 -0.18179551712E+02  0.28334302212E+02  0.22611501552E+03  0.28608622655E+03  0.17200000000E+03 0.  1.
</event>
<event>
 4    1  0.5801298E+000  0.1962107E+03  0.7818608E-02  0.1152976E+00
         21   -1    0    0  503  502  0.00000000000E+00  0.00000000000E+00  0.35063776457E+02  0.35063776457E+02  0.00000000000E+00 0.  1.
         21   -1    0    0  501  503 -0.00000000000E+00 -0.00000000000E+00 -0.14509483590E+04  0.14509483590E+04  0.00000000000E+00 0.  1.
          6    1    1    2  501    0 -0.32948661939E+02 -0.88481718241E+02 -0.10744190943E+04  0.10921881793E+04  0.17200000000E+03 0.  1.
         -6    1    1    2    0  502  0.32948661939E+02  0.88481718241E+02 -0.34146548822E+03  0.39382395614E+03  0.17200000000E+03 0.  1.
</event>
<event>
 4    1  0.5801298E+000  0.1937285E+03  0.7818608E-02  0.1155141E+00
         21   -1    0    0  503  502  0.00000000000E+00  0.00000000000E+00  0.13376528375E+03  0.13376528375E+03  0.00000000000E+00 0. -1.
         21   -1    0    0  501  503 -0.00000000000E+00 -0.00000000000E+00 -0.76880807940E+03  0.76880807940E+03  0.00000000000E+00 0.  1.
          6    1    1    2  501    0  0.83557539383E+02 -0.31062441407E+02 -0.67715367821E+03  0.70432083710E+03  0.17200000000E+03 0.  1.
         -6    1    1    2    0  502 -0.83557539383E+02  0.31062441407E+02  0.42110882574E+02  0.19825252605E+03  0.17200000000E+03 0. -1.
</event>
<event>
 4    1  0.5801298E+000  0.1858720E+03  0.7818608E-02  0.1162238E+00
         21   -1    0    0  503  502  0.00000000000E+00  0.00000000000E+00  0.37537510579E+03  0.37537510579E+03  0.00000000000E+00 0. -1.
         21   -1    0    0  501  503 -0.00000000000E+00 -0.00000000000E+00 -0.96060781594E+02  0.96060781594E+02  0.00000000000E+00 0. -1.
          6    1    1    2  501    0  0.69904309299E+02 -0.88199256018E+01  0.91413965520E+02  0.20713502031E+03  0.17200000000E+03 0.  1.
         -6    1    1    2    0  502 -0.69904309299E+02  0.88199256018E+01  0.18790035867E+03  0.26430086707E+03  0.17200000000E+03 0.  1.
</event>
<event>
 4    1  0.5801298E+000  0.1910938E+03  0.7818608E-02  0.1157478E+00
         21   -1    0    0  501  502  0.00000000000E+00  0.00000000000E+00  0.10786552831E+04  0.10786552831E+04  0.00000000000E+00 0.  1.
         21   -1    0    0  502  503 -0.00000000000E+00 -0.00000000000E+00 -0.57842865479E+02  0.57842865479E+02  0.00000000000E+00 0. -1.
          6    1    1    2  501    0  0.76302091949E+00  0.83260290064E+02  0.87635319118E+03  0.89694580315E+03  0.17200000000E+03 0.  1.
         -6    1    1    2    0  503 -0.76302091949E+00 -0.83260290064E+02  0.14445922648E+03  0.23955234546E+03  0.17200000000E+03 0. -1.
</event>
<event>
 4    1  0.5801298E+000  0.2064921E+03  0.7818608E-02  0.1144374E+00
         21   -1    0    0  503  502  0.00000000000E+00  0.00000000000E+00  0.74473503002E+03  0.74473503002E+03  0.00000000000E+00 0. -1.
         21   -1    0    0  501  503 -0.00000000000E+00 -0.00000000000E+00 -0.58155692227E+02  0.58155692227E+02  0.00000000000E+00 0. -1.
          6    1    1    2  501    0 -0.10229203687E+03  0.50905072098E+02  0.29329970197E+03  0.35869722936E+03  0.17200000000E+03 0. -1.
         -6    1    1    2    0  502  0.10229203687E+03 -0.50905072098E+02  0.39327963583E+03  0.44419349289E+03  0.17200000000E+03 0. -1.
</event>
<event>
 4    1  0.5801298E+000  0.1749127E+03  0.7818608E-02  0.1172819E+00
         21   -1    0    0  503  502  0.00000000000E+00  0.00000000000E+00  0.18821886251E+04  0.18821886251E+04  0.00000000000E+00 0.  1.
         21   -1    0    0  501  503 -0.00000000000E+00 -0.00000000000E+00 -0.13685530901E+03  0.13685530901E+03  0.00000000000E+00 0.  1.
          6    1    1    2  501    0 -0.18317062808E+02  0.25979772112E+02 -0.75008834318E+02  0.19031759922E+03  0.17200000000E+03 0.  1.
         -6    1    1    2    0  502  0.18317062808E+02 -0.25979772112E+02  0.18203421504E+04  0.18287263349E+04  0.17200000000E+03 0.  1.
</event>
<event>
 4    1  0.5801298E+000  0.2375228E+03  0.7818608E-02  0.1121454E+00
         21   -1    0    0  501  502  0.00000000000E+00  0.00000000000E+00  0.11630482696E+04  0.11630482696E+04  0.00000000000E+00 0. -1.
         21   -1    0    0  502  503 -0.00000000000E+00 -0.00000000000E+00 -0.27672805886E+03  0.27672805886E+03  0.00000000000E+00 0. -1.
          6    1    1    2  501    0  0.11675824461E+03 -0.11489387503E+03  0.10969156522E+04  0.11223373104E+04  0.17200000000E+03 0. -1.
         -6    1    1    2    0  503 -0.11675824461E+03  0.11489387503E+03 -0.21059544150E+03  0.31743901806E+03  0.17200000000E+03 0. -1.
</event>
<event>
 4    1  0.5801298E+000  0.2008255E+03  0.7818608E-02  0.1149044E+00
         21   -1    0    0  503  502  0.00000000000E+00  0.00000000000E+00  0.10231474075E+03  0.10231474075E+03  0.00000000000E+00 0. -1.
         21   -1    0    0  501  503 -0.00000000000E+00 -0.00000000000E+00 -0.62580318857E+03  0.62580318857E+03  0.00000000000E+00 0. -1.
          6    1    1    2  501    0  0.85651531767E+02 -0.58401148541E+02 -0.48322686664E+03  0.52329636315E+03  0.17200000000E+03 0. -1.
         -6    1    1    2    0  502 -0.85651531767E+02  0.58401148541E+02 -0.40261581179E+02  0.20482156616E+03  0.17200000000E+03 0. -1.
</event>
<event>
 4    1  0.5801298E+000  0.1730193E+03  0.7818608E-02  0.1174735E+00
         21   -1    0    0  501  502  0.00000000000E+00  0.00000000000E+00  0.65802182152E+02  0.65802182152E+02  0.00000000000E+00 0. -1.
         21   -1    0    0  502  503 -0.00000000000E+00 -0.00000000000E+00 -0.67906502499E+03  0.67906502499E+03  0.00000000000E+00 0. -1.
          6    1    1    2  501    0  0.60259280826E+01 -0.17758681774E+02 -0.92665954593E+02  0.19627190764E+03  0.17200000000E+03 0. -1.
         -6    1    1    2    0  503 -0.60259280826E+01  0.17758681774E+02 -0.52059688825E+03  0.54859529951E+03  0.17200000000E+03 0. -1.
</event>
<event>
 4    1  0.5801298E+000  0.2079542E+03  0.7818608E-02  0.1143196E+00
         21   -1    0    0  503  502  0.00000000000E+00  0.00000000000E+00  0.23208223813E+03  0.23208223813E+03  0.00000000000E+00 0.  1.
         21   -1    0    0  501  503 -0.00000000000E+00 -0.00000000000E+00 -0.20591275997E+03  0.20591275997E+03  0.00000000000E+00 0.  1.
          6    1    1    2  501    0 -0.11348354587E+03 -0.27972203693E+02 -0.54443132672E+02  0.21496282018E+03  0.17200000000E+03 0. -1.
         -6    1    1    2    0  502  0.11348354587E+03  0.27972203693E+02  0.80612610826E+02  0.22303217792E+03  0.17200000000E+03 0. -1.
</event>
<event>
 4    1  0.5801298E+000  0.2198885E+03  0.7818608E-02  0.1133966E+00
         21   -1    0    0  501  502  0.00000000000E+00  0.00000000000E+00  0.11574006466E+04  0.11574006466E+04  0.00000000000E+00 0.  1.
         21   -1    0    0  502  503 -0.00000000000E+00 -0.00000000000E+00 -0.41899418101E+02  0.41899418101E+02  0.00000000000E+00 0.  1.
          6    1    1    2  501    0 -0.13487134026E+03  0.24013853493E+02  0.52513447269E+03  0.56931288234E+03  0.17200000000E+03 0.  1.
         -6    1    1    2    0  503  0.13487134026E+03 -0.24013853493E+02  0.59036675584E+03  0.62998718239E+03  0.17200000000E+03 0.  1.
</event>
<event>
 4    1  0.5801298E+000  0.1749893E+03  0.7818608E-02  0.1172742E+00
         21   -1    0    0  501  502  0.00000000000E+00  0.00000000000E+00  0.12204977076E+04  0.12204977076E+04  0.00000000000E+00 0. -1.
         21   -1    0    0  502  503 -0.00000000000E+00 -0.00000000000E+00 -0.10316154084E+03  0.10316154084E+03  0.00000000000E+00 0. -1.
          6    1    1    2  501    0 -0.18558794227E+01 -0.32152911654E+02  0.11344208363E+04  0.11478379188E+04  0.17200000000E+03 0. -1.
         -6    1    1    2    0  503  0.18558794227E+01  0.32152911654E+02 -0.17084669560E+02  0.17582132962E+03  0.17200000000E+03 0. -1.
</event>
<event>
 4    1  0.5801298E+000  0.1792552E+03  0.7818608E-02  0.1168526E+00
         21   -1    0    0  501  502  0.00000000000E+00  0.00000000000E+00  0.82456357554E+03  0.82456357554E+03  0.00000000000E+00 0.  1.
         21   -1    0    0  502  503 -0.00000000000E+00 -0.00000000000E+00 -0.52135517559E+02  0.52135517559E+02  0.00000000000E+00 0. -1.
          6    1    1    2  501    0 -0.43560601182E+02  0.25512900936E+02  0.60650102268E+03  0.63243649847E+03  0.17200000000E+03 0.  1.
         -6    1    1    2    0  503  0.43560601182E+02 -0.25512900936E+02  0.16592703530E+03  0.24426259462E+03  0.17200000000E+03 0. -1.
</event>
<event>
 4    1  0.5801298E+000  0.2054273E+03  0.7818608E-02  0.1145239E+00
         21   -1    0    0  501  502  0.00000000000E+00  0.00000000000E+00  0.60441983428E+02  0.60441983428E+02  0.00000000000E+00 0. -1.
         21   -1    0    0  502  503 -0.00000000000E+00 -0.00000000000E+00 -0.79629413940E+03  0.79629413940E+03  0.00000000000E+00 0.  1.
          6    1    1    2  501    0  0.11010209913E+03  0.22223998404E+02 -0.21757390490E+03  0.29923031670E+03  0.17200000000E+03 0. -1.
         -6    1    1    2    0  503 -0.11010209913E+03 -0.22223998404E+02 -0.51827825107E+03  0.55750580613E+03  0.17200000000E+03 0.  1.
</event>
<event>
 4    1  0.5801298E+000  0.1960854E+03  0.7818608E-02  0.1153084E+00
         21   -1    0    0  501  502  0.00000000000E+00  0.00000000000E+00  0.19358239266E+04  0.19358239266E+04  0.00000000000E+00 0.  1.
         21   -1    0    0  502  503 -0.00000000000E+00 -0.00000000000E+00 -0.85922004030E+02  0.85922004030E+02  0.00000000000E+00 0.  1.
          6    1    1    2  501    0  0.85343763953E+02  0.39773206748E+02  0.18113177155E+04  0.18219004727E+04  0.17200000000E+03 0.  1.
         -6    1    1    2    0  503 -0.85343763953E+02 -0.39773206748E+02  0.38584207099E+02  0.19984545794E+03  0.17200000000E+03 0.  1.
</event>
<event>
 4    1  0.5801298E+000  0.2325112E+03  0.7818608E-02  0.1124885E+00
         21   -1    0    0  503  502  0.00000000000E+00  0.00000000000E+00  0.91749895935E+03  0.91749895935E+03  0.00000000000E+00 0.  1.
         21   -1    0    0  501  503 -0.00000000000E+00 -0.00000000000E+00 -0.60765319045E+02  0.60765319045E+02  0.00000000000E+00 0. -1.
          6    1    1    2  501    0  0.15189066663E+03 -0.37505765567E+02  0.34318956363E+03  0.41453652873E+03  0.17200000000E+03 0.  1.
         -6    1    1    2    0  502 -0.15189066663E+03  0.37505765567E+02  0.51354407667E+03  0.56372774967E+03  0.17200000000E+03 0.  1.
</event>
<event>
 4    1  0.5801298E+000  0.1729379E+03  0.7818608E-02  0.1174818E+00
         21   -1    0    0  503  502  0.00000000000E+00  0.00000000000E+00  0.50898759551E+03  0.50898759551E+03  0.00000000000E+00 0.  1.
         21   -1    0    0  501  503 -0.00000000000E+00 -0.00000000000E+00 -0.11753855157E+03  0.11753855157E+03  0.00000000000E+00 0.  1.
          6    1    1    2  501    0  0.16974923762E+02 -0.59459452831E+01 -0.25805655864E+02  0.17485260701E+03  0.17200000000E+03 0.  1.
         -6    1    1    2    0  502 -0.16974923762E+02  0.59459452831E+01  0.41725469980E+03  0.45167354008E+03  0.17200000000E+03 0.  1.
</event>
<event>
 4    1  0.5801298E+000  0.2247097E+03  0.7818608E-02  0.1130420E+00
         21   -1    0    0  503  502  0.00000000000E+00  0.00000000000E+00  0.25890007010E+03  0.25890007010E+03  0.00000000000E+00 0. -1.
         21   -1    0    0  501  503 -0.00000000000E+00 -0.00000000000E+00 -0.26918645502E+03  0.26918645502E+03  0.00000000000E+00 0.  1.
          6    1    1    2  501    0 -0.14446635956E+03 -0.63180184960E+01 -0.14372613672E+03  0.26674266396E+03  0.17200000000E+03 0.  1.
         -6    1    1    2    0  502  0.14446635956E+03  0.63180184960E+01  0.13343975180E+03  0.26134386115E+03  0.17200000000E+03 0. -1.
</event>
<event>
 4    1  0.5801298E+000  0.2659930E+03  0.7818608E-02  0.1103595E+00
         21   -1    0    0  501  502  0.00000000000E+00  0.00000000000E+00  0.71551853179E+02  0.71551853179E+02  0.00000000000E+00 0. -1.
         21   -1    0    0  502  503 -0.00000000000E+00 -0.00000000000E+00 -0.99454043146E+03  0.99454043146E+03  0.00000000000E+00 0. -1.
          6    1    1    2  501    0 -0.15551709076E+03 -0.13031771664E+03 -0.50190271663E+03  0.56803046551E+03  0.17200000000E+03 0. -1.
         -6    1    1    2    0  503  0.15551709076E+03  0.13031771664E+03 -0.42108586165E+03  0.49806181913E+03  0.17200000000E+03 0. -1.
</event>
<event>
 4    1  0.5801298E+000  0.1833707E+03  0.7818608E-02  0.1164580E+00
         21   -1    0    0  503  502  0.00000000000E+00  0.00000000000E+00  0.70231640913E+03  0.70231640913E+03  0.00000000000E+00 0. -1.
         21   -1    0    0  501  503 -0.00000000000E+00 -0.00000000000E+00 -0.52122172808E+02  0.52122172808E+02  0.00000000000E+00 0. -1.
          6    1    1    2  501    0  0.62630976757E+02 -0.10871511753E+02  0.21744355469E+03  0.28444072932E+03  0.17200000000E+03 0. -1.
         -6    1    1    2    0  502 -0.62630976757E+02  0.10871511753E+02  0.43275068163E+03  0.46999785262E+03  0.17200000000E+03 0. -1.
</event>
<event>
 4    1  0.5801298E+000  0.1965930E+03  0.7818608E-02  0.1152646E+00
         21   -1    0    0  503  502  0.00000000000E+00  0.00000000000E+00  0.38403845685E+03  0.38403845685E+03  0.00000000000E+00 0. -1.
         21   -1    0    0  501  503 -0.00000000000E+00 -0.00000000000E+00 -0.11252595671E+03  0.11252595671E+03  0.00000000000E+00 0. -1.
          6    1    1    2  501    0  0.52882496913E+02  0.79172190820E+02  0.55055777347E+02  0.20415663814E+03  0.17200000000E+03 0. -1.
         -6    1    1    2    0  502 -0.52882496913E+02 -0.79172190820E+02  0.21645672280E+03  0.29240777542E+03  0.17200000000E+03 0. -1.
</event>
<event>
 4    1  0.5801298E+000  0.3486336E+03  0.7818608E-02  0.1063177E+00
         21   -1    0    0  503  502  0.00000000000E+00  0.00000000000E+00  0.33889550936E+03  0.33889550936E+03  0.00000000000E+00 0. -1.
         21   -1    0    0  501  503 -0.00000000000E+00 -0.00000000000E+00 -0.39696590994E+03  0.39696590994E+03  0.00000000000E+00 0.  1.
          6    1    1    2  501    0 -0.30312058568E+03  0.89031798926E+01  0.85271305508E+02  0.35891022780E+03  0.17200000000E+03 0. -1.
         -6    1    1    2    0  502  0.30312058568E+03 -0.89031798926E+01 -0.14334170609E+03  0.37695119151E+03  0.17200000000E+03 0. -1.
</event>
<event>
 4    1  0.5801298E+000  0.2202259E+03  0.7818608E-02  0.1133715E+00
         21   -1    0    0  501  502  0.00000000000E+00  0.00000000000E+00  0.22648978785E+03  0.22648978785E+03  0.00000000000E+00 0.  1.
         21   -1    0    0  502  503 -0.00000000000E+00 -0.00000000000E+00 -0.36872866142E+03  0.36872866142E+03  0.00000000000E+00 0.  1.
          6    1    1    2  501    0  0.62412288039E+02  0.12255667032E+03  0.12158358768E+03  0.25155913804E+03  0.17200000000E+03 0.  1.
         -6    1    1    2    0  503 -0.62412288039E+02 -0.12255667032E+03 -0.26382246124E+03  0.34365931123E+03  0.17200000000E+03 0.  1.
</event>
<event>
 4    1  0.5801298E+000  0.1831145E+03  0.7818608E-02  0.1164822E+00
         21   -1    0    0  501  502  0.00000000000E+00  0.00000000000E+00  0.78643545779E+02  0.78643545779E+02  0.00000000000E+00 0. -1.
         21   -1    0    0  502  503 -0.00000000000E+00 -0.00000000000E+00 -0.45600161460E+03  0.45600161460E+03  0.00000000000E+00 0. -1.
          6    1    1    2  501    0  0.31847995121E+02 -0.54153786424E+02 -0.12052994709E+03  0.21922225143E+03  0.17200000000E+03 0. -1.
         -6    1    1    2    0  503 -0.31847995121E+02  0.54153786424E+02 -0.25682812174E+03  0.31542290895E+03  0.17200000000E+03 0. -1.
</event>
<event>
 4    1  0.5801298E+000  0.2763340E+03  0.7818608E-02  0.1097708E+00
         21   -1    0    0  503  502  0.00000000000E+00  0.00000000000E+00  0.23467185248E+03  0.23467185248E+03  0.00000000000E+00 0.  1.
         21   -1    0    0  501  503 -0.00000000000E+00 -0.00000000000E+00 -0.45198731532E+03  0.45198731532E+03  0.00000000000E+00 0. -1.
          6    1    1    2  501    0  0.17279235030E+03 -0.13007417262E+03  0.73042664603E+02  0.28582462728E+03  0.17200000000E+03 0.  1.
         -6    1    1    2    0  502 -0.17279235030E+03  0.13007417262E+03 -0.29035812744E+03  0.40083454052E+03  0.17200000000E+03 0. -1.
</event>
<event>
 4    1  0.5801298E+000  0.1849876E+03  0.7818608E-02  0.1163062E+00
         21   -1    0    0  503  502  0.00000000000E+00  0.00000000000E+00  0.56422297561E+03  0.56422297561E+03  0.00000000000E+00 0.  1.
         21   -1    0    0  501  503 -0.00000000000E+00 -0.00000000000E+00 -0.67372285407E+02  0.67372285407E+02  0.00000000000E+00 0.  1.
          6    1    1    2  501    0  0.16946449389E+02  0.65948607681E+02  0.34817486434E+03  0.39426658134E+03  0.17200000000E+03 0.  1.
         -6    1    1    2    0  502 -0.16946449389E+02 -0.65948607681E+02  0.14867582586E+03  0.23732867968E+03  0.17200000000E+03 0.  1.
</event>
<event>
 4    1  0.5801298E+000  0.2167547E+03  0.7818608E-02  0.1136326E+00
         21   -1    0    0  501  502  0.00000000000E+00  0.00000000000E+00  0.53169131840E+02  0.53169131840E+02  0.00000000000E+00 0.  1.
         21   -1    0    0  502  503 -0.00000000000E+00 -0.00000000000E+00 -0.89560152345E+03  0.89560152345E+03  0.00000000000E+00 0.  1.
          6    1    1    2  501    0 -0.12184022494E+03  0.50532715772E+02 -0.36640231528E+03  0.42571498966E+03  0.17200000000E+03 0.  1.
         -6    1    1    2    0  503  0.12184022494E+03 -0.50532715772E+02 -0.47603007633E+03  0.52305566563E+03  0.17200000000E+03 0.  1.
</event>
<event>
 4    1  0.5801298E+000  0.2018949E+03  0.7818608E-02  0.1148150E+00
         21   -1    0    0  501  502  0.00000000000E+00  0.00000000000E+00  0.18273136327E+03  0.18273136327E+03  0.00000000000E+00 0. -1.
         21   -1    0    0  502  503 -0.00000000000E+00 -0.00000000000E+00 -0.31996451952E+03  0.31996451952E+03  0.00000000000E+00 0.  1.
          6    1    1    2  501    0 -0.40252640338E+01  0.10564726597E+03  0.69701252540E+02  0.21358794948E+03  0.17200000000E+03 0. -1.
         -6    1    1    2    0  503  0.40252640338E+01 -0.10564726597E+03 -0.20693440879E+03  0.28910793330E+03  0.17200000000E+03 0.  1.
</event>
<event>
 4    1  0.5801298E+000  0.2690723E+03  0.7818608E-02  0.1101812E+00
         21   -1    0    0  503  502  0.00000000000E+00  0.00000000000E+00  0.51284064852E+03  0.51284064852E+03  0.00000000000E+00 0.  1.
         21   -1    0    0  501  503 -0.00000000000E+00 -0.00000000000E+00 -0.14118109061E+03  0.14118109061E+03  0.00000000000E+00 0.  1.
          6    1    1    2  501    0 -0.12734778062E+03 -0.16309022648E+03  0.18354875059E+03  0.32571463438E+03  0.17200000000E+03 0.  1.
         -6    1    1    2    0  502  0.12734778062E+03  0.16309022648E+03  0.18811080731E+03  0.32830710475E+03  0.17200000000E+03 0.  1.
</event>
<event>
 4    1  0.5801298E+000  0.1925588E+03  0.7818608E-02  0.1156173E+00
         21   -1    0    0  501  502  0.00000000000E+00  0.00000000000E+00  0.27102952269E+03  0.27102952269E+03  0.00000000000E+00 0.  1.
         21   -1    0    0  502  503 -0.00000000000E+00 -0.00000000000E+00 -0.14206642742E+03  0.14206642742E+03  0.00000000000E+00 0.  1.
          6    1    1    2  501    0  0.51250609557E+02 -0.69773029645E+02  0.24742326706E+02  0.19414191556E+03  0.17200000000E+03 0.  1.
         -6    1    1    2    0  503 -0.51250609557E+02  0.69773029645E+02  0.10422076856E+03  0.21895403455E+03  0.17200000000E+03 0.  1.
</event>
<event>
 4    1  0.5801298E+000  0.1943026E+03  0.7818608E-02  0.1154637E+00
         21   -1    0    0  503  502  0.00000000000E+00  0.00000000000E+00  0.33375866450E+03  0.33375866450E+03  0.00000000000E+00 0.  1.
         21   -1    0    0  501  503 -0.00000000000E+00 -0.00000000000E+00 -0.11534125538E+03  0.11534125538E+03  0.00000000000E+00 0.  1.
          6    1    1    2  501    0  0.90140269669E+02 -0.66521608629E+01  0.78020610805E+02  0.20938179283E+03  0.17200000000E+03 0.  1.
         -6    1    1    2    0  502 -0.90140269669E+02  0.66521608629E+01  0.14039679831E+03  0.23971812705E+03  0.17200000000E+03 0.  1.
</event>
<event>
 4    1  0.5801298E+000  0.2223302E+03  0.7818608E-02  0.1132158E+00
         21   -1    0    0  503  502  0.00000000000E+00  0.00000000000E+00  0.22050147850E+03  0.22050147850E+03  0.00000000000E+00 0. -1.
         21   -1    0    0  501  503 -0.00000000000E+00 -0.00000000000E+00 -0.25218184877E+03  0.25218184877E+03  0.00000000000E+00 0. -1.
          6    1    1    2  501    0  0.24371145661E+02 -0.13875436631E+03  0.62922815197E+02  0.23106277845E+03  0.17200000000E+03 0. -1.
         -6    1    1    2    0  502 -0.24371145661E+02  0.13875436631E+03 -0.94603185476E+02  0.24162054882E+03  0.17200000000E+03 0. -1.
</event>
<event>
 4    1  0.5801298E+000  0.1765800E+03  0.7818608E-02  0.1171155E+00
         21   -1    0    0  501  502  0.00000000000E+00  0.00000000000E+00  0.18216989754E+02  0.18216989754E+02  0.00000000000E+00 0. -1.
         21   -1    0    0  502  503 -0.00000000000E+00 -0.00000000000E+00 -0.26538432026E+04  0.26538432026E+04  0.00000000000E+00 0. -1.
          6    1    1    2  501    0 -0.86767808879E+01  0.39002472869E+02 -0.52173335254E+03  0.55080502047E+03  0.17200000000E+03 0. -1.
         -6    1    1    2    0  503  0.86767808879E+01 -0.39002472869E+02 -0.21138928603E+04  0.21212551719E+04  0.17200000000E+03 0. -1.
</event>
<event>
 4    1  0.5801298E+000  0.1801321E+03  0.7818608E-02  0.1167675E+00
         21   -1    0    0  501  502  0.00000000000E+00  0.00000000000E+00  0.30702061687E+03  0.30702061687E+03  0.00000000000E+00 0.  1.
         21   -1    0    0  502  503 -0.00000000000E+00 -0.00000000000E+00 -0.10944430904E+03  0.10944430904E+03  0.00000000000E+00 0.  1.
          6    1    1    2  501    0 -0.39750551179E+02  0.35825747694E+02  0.60197341994E+02  0.18992448631E+03  0.17200000000E+03 0.  1.
         -6    1    1    2    0  503  0.39750551179E+02 -0.35825747694E+02  0.13737896584E+03  0.22654043959E+03  0.17200000000E+03 0.  1.
</event>
<event>
 4    1  0.5801298E+000  0.2089570E+03  0.7818608E-02  0.1142395E+00
         21   -1    0    0  501  502  0.00000000000E+00  0.00000000000E+00  0.28066065411E+03  0.28066065411E+03  0.00000000000E+00 0.  1.
         21   -1    0    0  502  503 -0.00000000000E+00 -0.00000000000E+00 -0.15585225982E+03  0.15585225982E+03  0.00000000000E+00 0. -1.
          6    1    1    2  501    0  0.10616721579E+03 -0.52986209420E+02  0.53153407639E+02  0.21561145805E+03  0.17200000000E+03 0. -1.
         -6    1    1    2    0  503 -0.10616721579E+03  0.52986209420E+02  0.71654986644E+02  0.22090145588E+03  0.17200000000E+03 0.  1.
</event>
<event>
 4    1  0.5801298E+000  0.1886574E+03  0.7818608E-02  0.1159678E+00
         21   -1    0    0  503  502  0.00000000000E+00  0.00000000000E+00  0.10879702068E+04  0.10879702068E+04  0.00000000000E+00 0.  1.
         21   -1    0    0  501  503 -0.00000000000E+00 -0.00000000000E+00 -0.34728067097E+02  0.34728067097E+02  0.00000000000E+00 0.  1.
          6    1    1    2  501    0  0.76459874777E+02 -0.12708534221E+02  0.66181379112E+03  0.68817811169E+03  0.17200000000E+03 0. -1.
         -6    1    1    2    0  502 -0.76459874777E+02  0.12708534221E+02  0.39142834861E+03  0.43452016224E+03  0.17200000000E+03 0. -1.
</event>
<event>
 4    1  0.5801298E+000  0.1881760E+03  0.7818608E-02  0.1160117E+00
         21   -1    0    0  503  502  0.00000000000E+00  0.00000000000E+00  0.16866166226E+03  0.16866166226E+03  0.00000000000E+00 0. -1.
         21   -1    0    0  501  503 -0.00000000000E+00 -0.00000000000E+00 -0.31031633232E+03  0.31031633232E+03  0.00000000000E+00 0. -1.
          6    1    1    2  501    0 -0.76286843756E+02  0.25547684148E+01 -0.20702862131E+03  0.27976965420E+03  0.17200000000E+03 0. -1.
         -6    1    1    2    0  502  0.76286843756E+02 -0.25547684148E+01  0.65373951251E+02  0.19920834037E+03  0.17200000000E+03 0. -1.
</event>
<event>
 4    1  0.5801298E+000  0.2192458E+03  0.7818608E-02  0.1134447E+00
         21   -1    0    0  503  502  0.00000000000E+00  0.00000000000E+00  0.17810289418E+04  0.17810289418E+04  0.00000000000E+00 0.  1.
         21   -1    0    0  501  503 -0.00000000000E+00 -0.00000000000E+00 -0.37419254671E+02  0.37419254671E+02  0.00000000000E+00 0.  1.
          6    1    1    2  501    0  0.69611541025E+02  0.11678586909E+03  0.39177880179E+03  0.44895360049E+03  0.17200000000E+03 0.  1.
         -6    1    1    2    0  502 -0.69611541025E+02 -0.11678586909E+03  0.13518308854E+04  0.13694945960E+04  0.17200000000E+03 0.  1.
</event>
<event>
 4    1  0.5801298E+000  0.1946056E+03  0.7818608E-02  0.1154372E+00
         21   -1    0    0  501  502  0.00000000000E+00  0.00000000000E+00  0.68912674041E+03  0.68912674041E+03  0.00000000000E+00 0.  1.
         21   -1    0    0  502  503 -0.00000000000E+00 -0.00000000000E+00 -0.67695240054E+02  0.67695240054E+02  0.00000000000E+00 0. -1.
          6    1    1    2  501    0 -0.10949347215E+02  0.90373889269E+02  0.47487462901E+03  0.51320292414E+03  0.17200000000E+03 0.  1.
         -6    1    1    2    0  503  0.10949347215E+02 -0.90373889269E+02  0.14655687135E+03  0.24361905632E+03  0.17200000000E+03 0. -1.
</event>
<event>
 4    1  0.5801298E+000  0.2026423E+03  0.7818608E-02  0.1147529E+00
         21   -1    0    0  503  502  0.00000000000E+00  0.00000000000E+00  0.11186924880E+04  0.11186924880E+04  0.00000000000E+00 0.  1.
         21   -1    0    0  501  503 -0.00000000000E+00 -0.00000000000E+00 -0.92955409991E+02  0.92955409991E+02  0.00000000000E+00 0.  1.
          6    1    1    2  501    0 -0.10386681792E+03 -0.26298106547E+02  0.41604808778E+02  0.20686920115E+03  0.17200000000E+03 0.  1.
         -6    1    1    2    0  502  0.10386681792E+03  0.26298106547E+02  0.98413226922E+03  0.10047786968E+04  0.17200000000E+03 0.  1.
</event>
<event>
 4    1  0.5801298E+000  0.2042713E+03  0.7818608E-02  0.1146185E+00
         21   -1    0    0  503  502  0.00000000000E+00  0.00000000000E+00  0.28921915323E+03  0.28921915323E+03  0.00000000000E+00 0. -1.
         21   -1    0    0  501  503 -0.00000000000E+00 -0.00000000000E+00 -0.15009630242E+03  0.15009630242E+03  0.00000000000E+00 0. -1.
          6    1    1    2  501    0 -0.99377968890E+02 -0.47610561409E+02  0.11282439541E+03  0.23335828774E+03  0.17200000000E+03 0.  1.
         -6    1    1    2    0  502  0.99377968890E+02  0.47610561409E+02  0.26298455400E+02  0.20595716791E+03  0.17200000000E+03 0.  1.
</event>
<event>
 4    1  0.5801298E+000  0.2166838E+03  0.7818608E-02  0.1136380E+00
         21   -1    0    0  501  502  0.00000000000E+00  0.00000000000E+00  0.13896112527E+04  0.13896112527E+04  0.00000000000E+00 0. -1.
         21   -1    0    0  502  503 -0.00000000000E+00 -0.00000000000E+00 -0.70823313749E+02  0.70823313749E+02  0.00000000000E+00 0.  1.
          6    1    1    2  501    0 -0.13146807948E+03 -0.91658474638E+01  0.11874418881E+04  0.12070501672E+04  0.17200000000E+03 0. -1.
         -6    1    1    2    0  503  0.13146807948E+03  0.91658474638E+01  0.13134605088E+03  0.25338439921E+03  0.17200000000E+03 0.  1.
</event>
<event>
 4    1  0.5801298E+000  0.2104434E+03  0.7818608E-02  0.1141215E+00
         21   -1    0    0  501  502  0.00000000000E+00  0.00000000000E+00  0.51606037405E+02  0.51606037405E+02  0.00000000000E+00 0. -1.
         21   -1    0    0  502  503 -0.00000000000E+00 -0.00000000000E+00 -0.15286190491E+04  0.15286190491E+04  0.00000000000E+00 0. -1.
          6    1    1    2  501    0 -0.74278754446E+02 -0.95838777647E+02 -0.21523823765E+03  0.30102143380E+03  0.17200000000E+03 0. -1.
         -6    1    1    2    0  503  0.74278754446E+02  0.95838777647E+02 -0.12617747740E+04  0.12792036527E+04  0.17200000000E+03 0. -1.
</event>
<event>
 4    1  0.5801298E+000  0.1946937E+03  0.7818608E-02  0.1154295E+00
         21   -1    0    0  501  502  0.00000000000E+00  0.00000000000E+00  0.25044450272E+03  0.25044450272E+03  0.00000000000E+00 0.  1.
         21   -1    0    0  502  503 -0.00000000000E+00 -0.00000000000E+00 -0.16391347729E+03  0.16391347729E+03  0.00000000000E+00 0. -1.
          6    1    1    2  501    0  0.88615266377E+02 -0.21655328744E+02  0.10061573541E+03  0.21915552676E+03  0.17200000000E+03 0.  1.
         -6    1    1    2    0  503 -0.88615266377E+02  0.21655328744E+02 -0.14084709993E+02  0.19520245325E+03  0.17200000000E+03 0. -1.
</event>
<event>
 4    1  0.5801298E+000  0.1929727E+03  0.7818608E-02  0.1155807E+00
         21   -1    0    0  501  502  0.00000000000E+00  0.00000000000E+00  0.38778337861E+02  0.38778337861E+02  0.00000000000E+00 0. -1.
         21   -1    0    0  502  503 -0.00000000000E+00 -0.00000000000E+00 -0.12406064170E+04  0.12406064170E+04  0.00000000000E+00 0. -1.
          6    1    1    2  501    0 -0.87446047499E+02 -0.27645563810E+01 -0.29684069413E+03  0.35405204658E+03  0.17200000000E+03 0. -1.
         -6    1    1    2    0  503  0.87446047499E+02  0.27645563810E+01 -0.90498738504E+03  0.92533270832E+03  0.17200000000E+03 0. -1.
</event>
<event>
 4    1  0.5801298E+000  0.2070941E+03  0.7818608E-02  0.1143888E+00
         21   -1    0    0  503  502  0.00000000000E+00  0.00000000000E+00  0.72550372287E+02  0.72550372287E+02  0.00000000000E+00 0. -1.
         21   -1    0    0  501  503 -0.00000000000E+00 -0.00000000000E+00 -0.64947324522E+03  0.64947324522E+03  0.00000000000E+00 0. -1.
          6    1    1    2  501    0  0.94437136399E+02 -0.66223898925E+02 -0.39664732077E+03  0.44745622646E+03  0.17200000000E+03 0. -1.
         -6    1    1    2    0  502 -0.94437136399E+02  0.66223898925E+02 -0.18027555216E+03  0.27456739104E+03  0.17200000000E+03 0. -1.
</event>
<event>
 4    1  0.5801298E+000  0.2195694E+03  0.7818608E-02  0.1134205E+00
         21   -1    0    0  503  502  0.00000000000E+00  0.00000000000E+00  0.11209470257E+03  0.11209470257E+03  0.00000000000E+00 0. -1.
         21   -1    0    0  501  503 -0.00000000000E+00 -0.00000000000E+00 -0.43784281144E+03  0.43784281144E+03  0.00000000000E+00 0.  1.
          6    1    1    2  501    0  0.13531696281E+03  0.17777070110E+02 -0.19946556425E+03  0.29664324696E+03  0.17200000000E+03 0.  1.
         -6    1    1    2    0  502 -0.13531696281E+03 -0.17777070110E+02 -0.12628254462E+03  0.25329426705E+03  0.17200000000E+03 0.  1.
</event>
<event>
 4    1  0.5801298E+000  0.1740886E+03  0.7818608E-02  0.1173650E+00
         21   -1    0    0  503  502  0.00000000000E+00  0.00000000000E+00  0.11687161003E+03  0.11687161003E+03  0.00000000000E+00 0. -1.
         21   -1    0    0  501  503 -0.00000000000E+00 -0.00000000000E+00 -0.27536492765E+03  0.27536492765E+03  0.00000000000E+00 0.  1.
          6    1    1    2  501    0  0.15826197126E+02  0.21734329092E+02 -0.12659087524E+03  0.21524892397E+03  0.17200000000E+03 0.  1.
         -6    1    1    2    0  502 -0.15826197126E+02 -0.21734329092E+02 -0.31902442377E+02  0.17698761371E+03  0.17200000000E+03 0.  1.
</event>
<event>
 4    1  0.5801298E+000  0.2337520E+03  0.7818608E-02  0.1124026E+00
         21   -1    0    0  501  502  0.00000000000E+00  0.00000000000E+00  0.76895568435E+03  0.76895568435E+03  0.00000000000E+00 0. -1.
         21   -1    0    0  502  503 -0.00000000000E+00 -0.00000000000E+00 -0.18462690582E+03  0.18462690582E+03  0.00000000000E+00 0. -1.
          6    1    1    2  501    0 -0.11290562061E+03  0.11094294367E+03  0.66611274654E+03  0.70593640438E+03  0.17200000000E+03 0. -1.
         -6    1    1    2    0  503  0.11290562061E+03 -0.11094294367E+03 -0.81783968009E+02  0.24764618580E+03  0.17200000000E+03 0. -1.
</event>
<event>
 4    1  0.5801298E+000  0.1945547E+03  0.7818608E-02  0.1154416E+00
         21   -1    0    0  501  502  0.00000000000E+00  0.00000000000E+00  0.11653625257E+04  0.11653625257E+04  0.00000000000E+00 0. -1.
         21   -1    0    0  502  503 -0.00000000000E+00 -0.00000000000E+00 -0.60960390613E+02  0.60960390613E+02  0.00000000000E+00 0. -1.
          6    1    1    2  501    0 -0.51787019417E+02  0.74737141005E+02  0.97130359454E+03  0.99059689500E+03  0.17200000000E+03 0. -1.
         -6    1    1    2    0  503  0.51787019417E+02 -0.74737141005E+02  0.13309854054E+03  0.23572602131E+03  0.17200000000E+03 0. -1.
</event>
<event>
 4    1  0.5801298E+000  0.2003697E+03  0.7818608E-02  0.1149427E+00
         21   -1    0    0  501  502  0.00000000000E+00  0.00000000000E+00  0.27218926467E+03  0.27218926467E+03  0.00000000000E+00 0. -1.
         21   -1    0    0  502  503 -0.00000000000E+00 -0.00000000000E+00 -0.27889892483E+03  0.27889892483E+03  0.00000000000E+00 0. -1.
          6    1    1    2  501    0  0.20897354396E+02  0.10063451307E+03  0.18577631801E+03  0.27324136761E+03  0.17200000000E+03 0. -1.
         -6    1    1    2    0  503 -0.20897354396E+02 -0.10063451307E+03 -0.19248597816E+03  0.27784682189E+03  0.17200000000E+03 0. -1.
</event>
<event>
 4    1  0.5801298E+000  0.1804765E+03  0.7818608E-02  0.1167343E+00
         21   -1    0    0  501  502  0.00000000000E+00  0.00000000000E+00  0.26841386591E+02  0.26841386591E+02  0.00000000000E+00 0. -1.
         21   -1    0    0  502  503 -0.00000000000E+00 -0.00000000000E+00 -0.12385479262E+04  0.12385479262E+04  0.00000000000E+00 0. -1.
          6    1    1    2  501    0 -0.31449492995E+02 -0.44706666962E+02 -0.69584643456E+03  0.71886995846E+03  0.17200000000E+03 0. -1.
         -6    1    1    2    0  503  0.31449492995E+02  0.44706666962E+02 -0.51586010502E+03  0.54651935431E+03  0.17200000000E+03 0. -1.
</event>
<event>
 4    1  0.5801298E+000  0.2184535E+03  0.7818608E-02  0.1135041E+00
         21   -1    0    0  503  502  0.00000000000E+00  0.00000000000E+00  0.31176632449E+02  0.31176632449E+02  0.00000000000E+00 0.  1.
         21   -1    0    0  501  503 -0.00000000000E+00 -0.00000000000E+00 -0.18413974539E+04  0.18413974539E+04  0.00000000000E+00 0. -1.
          6    1    1    2  501    0  0.21733955877E+02 -0.13291192226E+03 -0.52051247685E+03  0.56449551148E+03  0.17200000000E+03 0.  1.
         -6    1    1    2    0  502 -0.21733955877E+02  0.13291192226E+03 -0.12897083446E+04  0.13080785749E+04  0.17200000000E+03 0.  1.
</event>
<event>
 4    1  0.5801298E+000  0.1794283E+03  0.7818608E-02  0.1168358E+00
         21   -1    0    0  501  502  0.00000000000E+00  0.00000000000E+00  0.39311647745E+02  0.39311647745E+02  0.00000000000E+00 0.  1.
         21   -1    0    0  502  503 -0.00000000000E+00 -0.00000000000E+00 -0.92023986560E+03  0.92023986560E+03  0.00000000000E+00 0.  1.
          6    1    1    2  501    0  0.34207915760E+01  0.50978466144E+02 -0.28129524087E+03  0.33364879494E+03  0.17200000000E+03 0.  1.
         -6    1    1    2    0  503 -0.34207915760E+01 -0.50978466144E+02 -0.59963297698E+03  0.62590271841E+03  0.17200000000E+03 0.  1.
</event>
<event>
 4    1  0.5801298E+000  0.2136745E+03  0.7818608E-02  0.1138689E+00
         21   -1    0    0  503  502  0.00000000000E+00  0.00000000000E+00  0.19991518338E+02  0.19991518338E+02  0.00000000000E+00 0.  1.
         21   -1    0    0  501  503 -0.00000000000E+00 -0.00000000000E+00 -0.29189236883E+04  0.29189236883E+04  0.00000000000E+00 0. -1.
          6    1    1    2  501    0  0.12577589397E+03  0.15913439877E+02 -0.21349096557E+04  0.21455759252E+04  0.17200000000E+03 0.  1.
         -6    1    1    2    0  502 -0.12577589397E+03 -0.15913439877E+02 -0.76402251424E+03  0.79333928136E+03  0.17200000000E+03 0.  1.
</event>
<event>
 4    1  0.5801298E+000  0.1808039E+03  0.7818608E-02  0.1167027E+00
         21   -1    0    0  503  502  0.00000000000E+00  0.00000000000E+00  0.16344762962E+03  0.16344762962E+03  0.00000000000E+00 0. -1.
         21   -1    0    0  501  503 -0.00000000000E+00 -0.00000000000E+00 -0.20735315935E+03  0.20735315935E+03  0.00000000000E+00 0. -1.
          6    1    1    2  501    0  0.49380016024E-01 -0.55731911261E+02 -0.56858589292E+02  0.18953349980E+03  0.17200000000E+03 0.  1.
         -6    1    1    2    0  502 -0.49380016024E-01  0.55731911261E+02  0.12953059562E+02  0.18126728917E+03  0.17200000000E+03 0.  1.
</event>
<event>
 4    1  0.5801298E+000  0.2198950E+03  0.7818608E-02  0.1133961E+00
         21   -1    0    0  501  502  0.00000000000E+00  0.00000000000E+00  0.16088644589E+03  0.16088644589E+03  0.00000000000E+00 0. -1.
         21   -1    0    0  502  503 -0.00000000000E+00 -0.00000000000E+00 -0.35569550528E+03  0.35569550528E+03  0.00000000000E+00 0.  1.
          6    1    1    2  501    0 -0.12787351830E+03 -0.49174911836E+02  0.42999538978E+01  0.21993703244E+03  0.17200000000E+03 0.  1.
         -6    1    1    2    0  503  0.12787351830E+03  0.49174911836E+02 -0.19910901328E+03  0.29664491873E+03  0.17200000000E+03 0. -1.
</event>
<event>
 4    1  0.5801298E+000  0.1762380E+03  0.7818608E-02  0.1171494E+00
         21   -1    0    0  501  502  0.00000000000E+00  0.00000000000E+00  0.23465448434E+03  0.23465448434E+03  0.00000000000E+00 0.  1.
         21   -1    0    0  502  503 -0.00000000000E+00 -0.00000000000E+00 -0.19246262035E+03  0.19246262035E+03  0.00000000000E+00 0.  1.
          6    1    1    2  501    0 -0.14231983837E+02  0.35682892581E+02  0.14043313014E+03  0.22534702622E+03  0.17200000000E+03 0.  1.
         -6    1    1    2    0  503  0.14231983837E+02 -0.35682892581E+02 -0.98241266154E+02  0.20177007846E+03  0.17200000000E+03 0.  1.
</event>
<event>
 4    1  0.5801298E+000  0.1886305E+03  0.7818608E-02  0.1159702E+00
         21   -1    0    0  503  502  0.00000000000E+00  0.00000000000E+00  0.31344259351E+03  0.31344259351E+03  0.00000000000E+00 0. -1.
         21   -1    0    0  501  503 -0.00000000000E+00 -0.00000000000E+00 -0.67375444949E+03  0.67375444949E+03  0.00000000000E+00 0. -1.
          6    1    1    2  501    0 -0.53421331918E+02  0.56067906533E+02 -0.63025551851E+03  0.65787800348E+03  0.17200000000E+03 0. -1.
         -6    1    1    2    0  502  0.53421331918E+02 -0.56067906533E+02  0.26994366254E+03  0.32931903952E+03  0.17200000000E+03 0. -1.
</event>
<event>
 4    1  0.5801298E+000  0.2055911E+03  0.7818608E-02  0.1145106E+00
         21   -1    0    0  503  502  0.00000000000E+00  0.00000000000E+00  0.16603609367E+03  0.16603609367E+03  0.00000000000E+00 0. -1.
         21   -1    0    0  501  503 -0.00000000000E+00 -0.00000000000E+00 -0.36173949194E+03  0.36173949194E+03  0.00000000000E+00 0. -1.
          6    1    1    2  501    0  0.89420733805E+02  0.68466387188E+02 -0.24148597139E+03  0.31714852702E+03  0.17200000000E+03 0.  1.
         -6    1    1    2    0  502 -0.89420733805E+02 -0.68466387188E+02  0.45782573125E+02  0.21062705859E+03  0.17200000000E+03 0.  1.
</event>
<event>
 4    1  0.5801298E+000  0.1869834E+03  0.7818608E-02  0.1161211E+00
         21   -1    0    0  503  502  0.00000000000E+00  0.00000000000E+00  0.77931460302E+03  0.77931460302E+03  0.00000000000E+00 0.  1.
         21   -1    0    0  501  503 -0.00000000000E+00 -0.00000000000E+00 -0.45014714433E+02  0.45014714433E+02  0.00000000000E+00 0.  1.
          6    1    1    2  501    0 -0.53105553930E+02  0.50582603401E+02  0.34326329491E+03  0.39088679852E+03  0.17200000000E+03 0.  1.
         -6    1    1    2    0  502  0.53105553930E+02 -0.50582603401E+02  0.39103659368E+03  0.43344251894E+03  0.17200000000E+03 0.  1.
</event>
<event>
 4    1  0.5801298E+000  0.2060846E+03  0.7818608E-02  0.1144705E+00
         21   -1    0    0  501  502  0.00000000000E+00  0.00000000000E+00  0.11788073677E+03  0.11788073677E+03  0.00000000000E+00 0.  1.
         21   -1    0    0  502  503 -0.00000000000E+00 -0.00000000000E+00 -0.53550272352E+03  0.53550272352E+03  0.00000000000E+00 0.  1.
          6    1    1    2  501    0 -0.10191943822E+03 -0.49992977489E+02 -0.21939040417E+02  0.20724910417E+03  0.17200000000E+03 0.  1.
         -6    1    1    2    0  503  0.10191943822E+03  0.49992977489E+02 -0.39568294634E+03  0.44613435612E+03  0.17200000000E+03 0.  1.
</event>
<event>
 4    1  0.5801298E+000  0.2237388E+03  0.7818608E-02  0.1131126E+00
         21   -1    0    0  501  502  0.00000000000E+00  0.00000000000E+00  0.13550927497E+04  0.13550927497E+04  0.00000000000E+00 0.  1.
         21   -1    0    0  502  503 -0.00000000000E+00 -0.00000000000E+00 -0.51439746891E+02  0.51439746891E+02  0.00000000000E+00 0.  1.
          6    1    1    2  501    0  0.91974040304E+02 -0.10961679280E+03  0.10251876655E+04  0.10493182619E+04  0.17200000000E+03 0. -1.
         -6    1    1    2    0  503 -0.91974040304E+02  0.10961679280E+03  0.27846533732E+03  0.35721423466E+03  0.17200000000E+03 0. -1.
</event>
<event>
 4    1  0.5801298E+000  0.2120992E+03  0.7818608E-02  0.1139914E+00
         21   -1    0    0  503  502  0.00000000000E+00  0.00000000000E+00  0.49358667148E+03  0.49358667148E+03  0.00000000000E+00 0.  1.
         21   -1    0    0  501  503 -0.00000000000E+00 -0.00000000000E+00 -0.96137087950E+02  0.96137087950E+02  0.00000000000E+00 0.  1.
          6    1    1    2  501    0 -0.66572628834E+02  0.10473860462E+03  0.13150785296E+03  0.24956042474E+03  0.17200000000E+03 0.  1.
         -6    1    1    2    0  502  0.66572628834E+02 -0.10473860462E+03  0.26594173057E+03  0.34016333469E+03  0.17200000000E+03 0.  1.
</event>
<event>
 4    1  0.5801298E+000  0.2291408E+03  0.7818608E-02  0.1127246E+00
         21   -1    0    0  503  502  0.00000000000E+00  0.00000000000E+00  0.11486534612E+04  0.11486534612E+04  0.00000000000E+00 0.  1.
         21   -1    0    0  501  503 -0.00000000000E+00 -0.00000000000E+00 -0.53006451737E+02  0.53006451737E+02  0.00000000000E+00 0.  1.
          6    1    1    2  501    0  0.56869967213E+02  0.14031140746E+03  0.32491367574E+03  0.39758569003E+03  0.17200000000E+03 0.  1.
         -6    1    1    2    0  502 -0.56869967213E+02 -0.14031140746E+03  0.77073333377E+03  0.80407422295E+03  0.17200000000E+03 0.  1.
</event>
<event>
 4    1  0.5801298E+000  0.2118101E+03  0.7818608E-02  0.1140141E+00
         21   -1    0    0  501  502  0.00000000000E+00  0.00000000000E+00  0.11679003513E+03  0.11679003513E+03  0.00000000000E+00 0.  1.
         21   -1    0    0  502  503 -0.00000000000E+00 -0.00000000000E+00 -0.43049879933E+03  0.43049879933E+03  0.00000000000E+00 0.  1.
          6    1    1    2  501    0 -0.12283867168E+03 -0.13791173401E+02 -0.24665395364E+03  0.32511799176E+03  0.17200000000E+03 0.  1.
         -6    1    1    2    0  503  0.12283867168E+03  0.13791173401E+02 -0.67054810566E+02  0.22217084269E+03  0.17200000000E+03 0.  1.
</event>
<event>
 4    1  0.5801298E+000  0.1908960E+03  0.7818608E-02  0.1157656E+00
         21   -1    0    0  503  502  0.00000000000E+00  0.00000000000E+00  0.86141042978E+03  0.86141042978E+03  0.00000000000E+00 0.  1.
         21   -1    0    0  501  503 -0.00000000000E+00 -0.00000000000E+00 -0.79484170270E+02  0.79484170270E+02  0.00000000000E+00 0. -1.
          6    1    1    2  501    0 -0.80079055891E+02 -0.21086452460E+02  0.69208297392E+02  0.20305438212E+03  0.17200000000E+03 0. -1.
         -6    1    1    2    0  502  0.80079055891E+02  0.21086452460E+02  0.71271796212E+03  0.73784021793E+03  0.17200000000E+03 0.  1.
</event>
<event>
 4    1  0.5801298E+000  0.2360061E+03  0.7818608E-02  0.1122482E+00
         21   -1    0    0  503  502  0.00000000000E+00  0.00000000000E+00  0.27802100722E+03  0.27802100722E+03  0.00000000000E+00 0.  1.
         21   -1    0    0  501  503 -0.00000000000E+00 -0.00000000000E+00 -0.20083220185E+03  0.20083220185E+03  0.00000000000E+00 0. -1.
          6    1    1    2  501    0 -0.66381335923E+02  0.14733765718E+03  0.26747423523E+02  0.23751692918E+03  0.17200000000E+03 0. -1.
         -6    1    1    2    0  502  0.66381335923E+02 -0.14733765718E+03  0.50441381847E+02  0.24133627988E+03  0.17200000000E+03 0. -1.
</event>
<event>
 4    1  0.5801298E+000  0.3583469E+03  0.7818608E-02  0.1059240E+00
         21   -1    0    0  503  502  0.00000000000E+00  0.00000000000E+00  0.16237145842E+03  0.16237145842E+03  0.00000000000E+00 0. -1.
         21   -1    0    0  501  503 -0.00000000000E+00 -0.00000000000E+00 -0.11991709548E+04  0.11991709548E+04  0.00000000000E+00 0. -1.
          6    1    1    2  501    0  0.14406815227E+03 -0.27941520635E+03 -0.91564445100E+03  0.98326865641E+03  0.17200000000E+03 0. -1.
         -6    1    1    2    0  502 -0.14406815227E+03  0.27941520635E+03 -0.12115504533E+03  0.37827375676E+03  0.17200000000E+03 0. -1.
</event>
<event>
 4    1  0.5801298E+000  0.2770525E+03  0.7818608E-02  0.1097310E+00
         21   -1    0    0  503  502  0.00000000000E+00  0.00000000000E+00  0.17932509369E+03  0.17932509369E+03  0.00000000000E+00 0. -1.
         21   -1    0    0  501  503 -0.00000000000E+00 -0.00000000000E+00 -0.47537555687E+03  0.47537555687E+03  0.00000000000E+00 0. -1.
          6    1    1    2  501    0 -0.19571012956E+03  0.94189295898E+02 -0.44726710058E+02  0.28063954972E+03  0.17200000000E+03 0. -1.
         -6    1    1    2    0  502  0.19571012956E+03 -0.94189295898E+02 -0.25132375313E+03  0.37406110084E+03  0.17200000000E+03 0. -1.
</event>
<event>
 4    1  0.5801298E+000  0.1731540E+03  0.7818608E-02  0.1174598E+00
         21   -1    0    0  501  502  0.00000000000E+00  0.00000000000E+00  0.17672448387E+03  0.17672448387E+03  0.00000000000E+00 0.  1.
         21   -1    0    0  502  503 -0.00000000000E+00 -0.00000000000E+00 -0.41225527291E+03  0.41225527291E+03  0.00000000000E+00 0.  1.
          6    1    1    2  501    0  0.10482640920E+02  0.16983103359E+02  0.10814296490E+03  0.20414997530E+03  0.17200000000E+03 0.  1.
         -6    1    1    2    0  503 -0.10482640920E+02 -0.16983103359E+02 -0.34367375394E+03  0.38482978147E+03  0.17200000000E+03 0.  1.
</event>
<event>
 4    1  0.5801298E+000  0.1850802E+03  0.7818608E-02  0.1162975E+00
         21   -1    0    0  503  502  0.00000000000E+00  0.00000000000E+00  0.59561031948E+03  0.59561031948E+03  0.00000000000E+00 0.  1.
         21   -1    0    0  501  503 -0.00000000000E+00 -0.00000000000E+00 -0.60910636144E+02  0.60910636144E+02  0.00000000000E+00 0.  1.
          6    1    1    2  501    0  0.51905525658E+02  0.44457655337E+02  0.18980868024E+03  0.26510752876E+03  0.17200000000E+03 0. -1.
         -6    1    1    2    0  502 -0.51905525658E+02 -0.44457655337E+02  0.34489100310E+03  0.39141342687E+03  0.17200000000E+03 0. -1.
</event>
<event>
 4    1  0.5801298E+000  0.2286162E+03  0.7818608E-02  0.1127618E+00
         21   -1    0    0  503  502  0.00000000000E+00  0.00000000000E+00  0.70633739786E+03  0.70633739786E+03  0.00000000000E+00 0. -1.
         21   -1    0    0  501  503 -0.00000000000E+00 -0.00000000000E+00 -0.81050078141E+02  0.81050078141E+02  0.00000000000E+00 0. -1.
          6    1    1    2  501    0  0.19268926781E+02 -0.14936563282E+03  0.19648944704E+03  0.30145229574E+03  0.17200000000E+03 0. -1.
         -6    1    1    2    0  502 -0.19268926781E+02  0.14936563282E+03  0.42879787267E+03  0.48593518026E+03  0.17200000000E+03 0. -1.
</event>
<event>
 4    1  0.5801298E+000  0.2880176E+03  0.7818608E-02  0.1091389E+00
         21   -1    0    0  503  502  0.00000000000E+00  0.00000000000E+00  0.44660931317E+03  0.44660931317E+03  0.00000000000E+00 0. -1.
         21   -1    0    0  501  503 -0.00000000000E+00 -0.00000000000E+00 -0.20038701213E+03  0.20038701213E+03  0.00000000000E+00 0. -1.
          6    1    1    2  501    0 -0.93314326355E+02  0.21133528169E+03  0.35657088867E+02  0.29021645849E+03  0.17200000000E+03 0. -1.
         -6    1    1    2    0  502  0.93314326355E+02 -0.21133528169E+03  0.21056521217E+03  0.35677986681E+03  0.17200000000E+03 0. -1.
</event>
<event>
 4    1  0.5801298E+000  0.3537324E+03  0.7818608E-02  0.1061093E+00
         21   -1    0    0  501  502  0.00000000000E+00  0.00000000000E+00  0.27788362635E+03  0.27788362635E+03  0.00000000000E+00 0.  1.
         21   -1    0    0  502  503 -0.00000000000E+00 -0.00000000000E+00 -0.65241717762E+03  0.65241717762E+03  0.00000000000E+00 0. -1.
          6    1    1    2  501    0  0.83591502105E+02 -0.29758204891E+03  0.71643484053E+02  0.36091467671E+03  0.17200000000E+03 0.  1.
         -6    1    1    2    0  503 -0.83591502105E+02  0.29758204891E+03 -0.44617703533E+03  0.56938612726E+03  0.17200000000E+03 0.  1.
</event>
<event>
 4    1  0.5801298E+000  0.1922869E+03  0.7818608E-02  0.1156415E+00
         21   -1    0    0  503  502  0.00000000000E+00  0.00000000000E+00  0.50618121631E+02  0.50618121631E+02  0.00000000000E+00 0.  1.
         21   -1    0    0  501  503 -0.00000000000E+00 -0.00000000000E+00 -0.74213035315E+03  0.74213035315E+03  0.00000000000E+00 0.  1.
          6    1    1    2  501    0 -0.56460399930E+02 -0.64826623754E+02 -0.39547226038E+03  0.43974148842E+03  0.17200000000E+03 0.  1.
         -6    1    1    2    0  502  0.56460399930E+02  0.64826623754E+02 -0.29603997114E+03  0.35300698636E+03  0.17200000000E+03 0.  1.
</event>
<event>
 4    1  0.5801298E+000  0.1937547E+03  0.7818608E-02  0.1155118E+00
         21   -1    0    0  503  502  0.00000000000E+00  0.00000000000E+00  0.60438453461E+03  0.60438453461E+03  0.00000000000E+00 0. -1.
         21   -1    0    0  501  503 -0.00000000000E+00 -0.00000000000E+00 -0.62212467166E+02  0.62212467166E+02  0.00000000000E+00 0.  1.
          6    1    1    2  501    0  0.88100657030E+02  0.13969356854E+02  0.28433170139E+03  0.34407177320E+03  0.17200000000E+03 0.  1.
         -6    1    1    2    0  502 -0.88100657030E+02 -0.13969356854E+02  0.25784036606E+03  0.32252522858E+03  0.17200000000E+03 0.  1.
</event>
<event>
 4    1  0.5801298E+000  0.2673691E+03  0.7818608E-02  0.1102795E+00
         21   -1    0    0  503  502  0.00000000000E+00  0.00000000000E+00  0.95130599530E+03  0.95130599530E+03  0.00000000000E+00 0.  1.
         21   -1    0    0  501  503 -0.00000000000E+00 -0.00000000000E+00 -0.84273373840E+02  0.84273373840E+02  0.00000000000E+00 0.  1.
          6    1    1    2  501    0 -0.24707404713E+02 -0.20320379687E+03  0.26310588441E+03  0.37511457626E+03  0.17200000000E+03 0.  1.
         -6    1    1    2    0  502  0.24707404713E+02  0.20320379687E+03  0.60392673705E+03  0.66046479288E+03  0.17200000000E+03 0.  1.
</event>
<event>
 4    1  0.5801298E+000  0.1965789E+03  0.7818608E-02  0.1152658E+00
         21   -1    0    0  503  502  0.00000000000E+00  0.00000000000E+00  0.68210381441E+03  0.68210381441E+03  0.00000000000E+00 0.  1.
         21   -1    0    0  501  503 -0.00000000000E+00 -0.00000000000E+00 -0.26210309172E+03  0.26210309172E+03  0.00000000000E+00 0.  1.
          6    1    1    2  501    0  0.34406286737E+02 -0.88743933761E+02 -0.20797838191E+03  0.28617876527E+03  0.17200000000E+03 0.  1.
         -6    1    1    2    0  502 -0.34406286737E+02  0.88743933761E+02  0.62797910461E+03  0.65802814086E+03  0.17200000000E+03 0.  1.
</event>
<event>
 4    1  0.5801298E+000  0.3487954E+03  0.7818608E-02  0.1063111E+00
         21   -1    0    0  501  502  0.00000000000E+00  0.00000000000E+00  0.20974868852E+03  0.20974868852E+03  0.00000000000E+00 0. -1.
         21   -1    0    0  502  503 -0.00000000000E+00 -0.00000000000E+00 -0.63342656212E+03  0.63342656212E+03  0.00000000000E+00 0.  1.
          6    1    1    2  501    0  0.20674822476E+03  0.22210225982E+03 -0.89422212740E+02  0.36007578979E+03  0.17200000000E+03 0. -1.
         -6    1    1    2    0  503 -0.20674822476E+03 -0.22210225982E+03 -0.33425566086E+03  0.48309946085E+03  0.17200000000E+03 0.  1.
</event>
<event>
 4    1  0.5801298E+000  0.2971046E+03  0.7818608E-02  0.1086697E+00
         21   -1    0    0  503  502  0.00000000000E+00  0.00000000000E+00  0.38947301578E+03  0.38947301578E+03  0.00000000000E+00 0. -1.
         21   -1    0    0  501  503 -0.00000000000E+00 -0.00000000000E+00 -0.24691104854E+03  0.24691104854E+03  0.00000000000E+00 0. -1.
          6    1    1    2  501    0 -0.15790957788E+03 -0.18371637269E+03 -0.19884469922E+02  0.29776926055E+03  0.17200000000E+03 0. -1.
         -6    1    1    2    0  502  0.15790957788E+03  0.18371637269E+03  0.16244643716E+03  0.33861480377E+03  0.17200000000E+03 0. -1.
</event>
<event>
 4    1  0.5801298E+000  0.3200535E+03  0.7818608E-02  0.1075625E+00
         21   -1    0    0  501  502  0.00000000000E+00  0.00000000000E+00  0.18303962785E+03  0.18303962785E+03  0.00000000000E+00 0. -1.
         21   -1    0    0  502  503 -0.00000000000E+00 -0.00000000000E+00 -0.60164248711E+03  0.60164248711E+03  0.00000000000E+00 0.  1.
          6    1    1    2  501    0  0.11683919277E+03 -0.24330817973E+03 -0.10562277743E+03  0.33703180622E+03  0.17200000000E+03 0. -1.
         -6    1    1    2    0  503 -0.11683919277E+03  0.24330817973E+03 -0.31298008184E+03  0.44765030874E+03  0.17200000000E+03 0.  1.
</event>
<event>
 4    1  0.5801298E+000  0.1997312E+03  0.7818608E-02  0.1149966E+00
         21   -1    0    0  501  502  0.00000000000E+00  0.00000000000E+00  0.27958928945E+03  0.27958928945E+03  0.00000000000E+00 0.  1.
         21   -1    0    0  502  503 -0.00000000000E+00 -0.00000000000E+00 -0.16029145506E+03  0.16029145506E+03  0.00000000000E+00 0.  1.
          6    1    1    2  501    0 -0.87777566967E+02  0.51025916145E+02  0.13254673162E+03  0.23971062021E+03  0.17200000000E+03 0.  1.
         -6    1    1    2    0  503  0.87777566967E+02 -0.51025916145E+02 -0.13248897231E+02  0.20017012429E+03  0.17200000000E+03 0.  1.
</event>
<event>
 4    1  0.5801298E+000  0.1957324E+03  0.7818608E-02  0.1153390E+00
         21   -1    0    0  501  502  0.00000000000E+00  0.00000000000E+00  0.21582868066E+03  0.21582868066E+03  0.00000000000E+00 0.  1.
         21   -1    0    0  502  503 -0.00000000000E+00 -0.00000000000E+00 -0.17765542859E+03  0.17765542859E+03  0.00000000000E+00 0.  1.
          6    1    1    2  501    0  0.36314422379E+02 -0.86072232784E+02  0.13405606305E+02  0.19619091928E+03  0.17200000000E+03 0.  1.
         -6    1    1    2    0  503 -0.36314422379E+02  0.86072232784E+02  0.24767645771E+02  0.19729318996E+03  0.17200000000E+03 0.  1.
</event>
<event>
 4    1  0.5801298E+000  0.2175250E+03  0.7818608E-02  0.1135742E+00
         21   -1    0    0  503  502  0.00000000000E+00  0.00000000000E+00  0.46797247722E+03  0.46797247722E+03  0.00000000000E+00 0.  1.
         21   -1    0    0  501  503 -0.00000000000E+00 -0.00000000000E+00 -0.14965857608E+03  0.14965857608E+03  0.00000000000E+00 0.  1.
          6    1    1    2  501    0  0.79677799532E+02 -0.10669852256E+03 -0.16729533928E+02  0.21816737556E+03  0.17200000000E+03 0.  1.
         -6    1    1    2    0  502 -0.79677799532E+02  0.10669852256E+03  0.33504343506E+03  0.39946367774E+03  0.17200000000E+03 0.  1.
</event>
<event>
 4    1  0.5801298E+000  0.2075547E+03  0.7818608E-02  0.1143517E+00
         21   -1    0    0  501  502  0.00000000000E+00  0.00000000000E+00  0.30743398972E+04  0.30743398972E+04  0.00000000000E+00 0.  1.
         21   -1    0    0  502  503 -0.00000000000E+00 -0.00000000000E+00 -0.16721227976E+02  0.16721227976E+02  0.00000000000E+00 0.  1.
          6    1    1    2  501    0  0.11404327289E+03  0.22114992625E+02  0.21508698646E+04  0.21608609662E+04  0.17200000000E+03 0.  1.
         -6    1    1    2    0  503 -0.11404327289E+03 -0.22114992625E+02  0.90674880463E+03  0.93020015894E+03  0.17200000000E+03 0.  1.
</event>
<event>
 4    1  0.5801298E+000  0.2033166E+03  0.7818608E-02  0.1146971E+00
         21   -1    0    0  503  502  0.00000000000E+00  0.00000000000E+00  0.91934842359E+02  0.91934842359E+02  0.00000000000E+00 0. -1.
         21   -1    0    0  501  503 -0.00000000000E+00 -0.00000000000E+00 -0.52133647129E+03  0.52133647129E+03  0.00000000000E+00 0. -1.
          6    1    1    2  501    0  0.10235993391E+03  0.35722257896E+02 -0.32841397671E+03  0.38625558362E+03  0.17200000000E+03 0. -1.
         -6    1    1    2    0  502 -0.10235993391E+03 -0.35722257896E+02 -0.10098765222E+03  0.22701573003E+03  0.17200000000E+03 0. -1.
</event>
<event>
 4    1  0.5801298E+000  0.2422105E+03  0.7818608E-02  0.1118329E+00
         21   -1    0    0  501  502  0.00000000000E+00  0.00000000000E+00  0.82865806269E+02  0.82865806269E+02  0.00000000000E+00 0.  1.
         21   -1    0    0  502  503 -0.00000000000E+00 -0.00000000000E+00 -0.90834424027E+03  0.90834424027E+03  0.00000000000E+00 0.  1.
          6    1    1    2  501    0 -0.14673568608E+03 -0.86894084396E+02 -0.17996292156E+03  0.30174922802E+03  0.17200000000E+03 0.  1.
         -6    1    1    2    0  503  0.14673568608E+03  0.86894084396E+02 -0.64551551244E+03  0.68946081852E+03  0.17200000000E+03 0.  1.
</event>
<event>
 4    1  0.5801298E+000  0.2135577E+03  0.7818608E-02  0.1138779E+00
         21   -1    0    0  501  502  0.00000000000E+00  0.00000000000E+00  0.17066395026E+03  0.17066395026E+03  0.00000000000E+00 0.  1.
         21   -1    0    0  502  503 -0.00000000000E+00 -0.00000000000E+00 -0.30157526495E+03  0.30157526495E+03  0.00000000000E+00 0.  1.
          6    1    1    2  501    0 -0.61306200518E+02  0.11074499660E+03  0.14225137914E+02  0.21403097683E+03  0.17200000000E+03 0.  1.
         -6    1    1    2    0  503  0.61306200518E+02 -0.11074499660E+03 -0.14513645261E+03  0.25820823838E+03  0.17200000000E+03 0.  1.
</event>
<event>
 4    1  0.5801298E+000  0.2435143E+03  0.7818608E-02  0.1117474E+00
         21   -1    0    0  503  502  0.00000000000E+00  0.00000000000E+00  0.24625980479E+03  0.24625980479E+03  0.00000000000E+00 0. -1.
         21   -1    0    0  501  503 -0.00000000000E+00 -0.00000000000E+00 -0.32542790854E+03  0.32542790854E+03  0.00000000000E+00 0. -1.
          6    1    1    2  501    0 -0.13945520098E+03 -0.10132836546E+03 -0.18535132967E+03  0.30602991053E+03  0.17200000000E+03 0. -1.
         -6    1    1    2    0  502  0.13945520098E+03  0.10132836546E+03  0.10618322592E+03  0.26565780281E+03  0.17200000000E+03 0. -1.
</event>
<event>
 4    1  0.5801298E+000  0.2647395E+03  0.7818608E-02  0.1104329E+00
         21   -1    0    0  501  502  0.00000000000E+00  0.00000000000E+00  0.15595524750E+03  0.15595524750E+03  0.00000000000E+00 0.  1.
         21   -1    0    0  502  503 -0.00000000000E+00 -0.00000000000E+00 -0.45319154523E+03  0.45319154523E+03  0.00000000000E+00 0.  1.
          6    1    1    2  501    0  0.18627440615E+03 -0.76189638671E+02 -0.12077669093E+03  0.29098801435E+03  0.17200000000E+03 0.  1.
         -6    1    1    2    0  503 -0.18627440615E+03  0.76189638671E+02 -0.17645960680E+03  0.31815877838E+03  0.17200000000E+03 0.  1.
</event>
<event>
 4    1  0.5801298E+000  0.1732935E+03  0.7818608E-02  0.1174456E+00
         21   -1    0    0  503  502  0.00000000000E+00  0.00000000000E+00  0.20353981061E+03  0.20353981061E+03  0.00000000000E+00 0.  1.
         21   -1    0    0  501  503 -0.00000000000E+00 -0.00000000000E+00 -0.15376387973E+03  0.15376387973E+03  0.00000000000E+00 0.  1.
          6    1    1    2  501    0 -0.62636757848E+01 -0.20184336130E+02  0.60825330928E+02  0.18365827491E+03  0.17200000000E+03 0.  1.
         -6    1    1    2    0  502  0.62636757848E+01  0.20184336130E+02 -0.11049400053E+02  0.17364541543E+03  0.17200000000E+03 0.  1.
</event>
<event>
 4    1  0.5801298E+000  0.2627836E+03  0.7818608E-02  0.1105482E+00
         21   -1    0    0  503  502  0.00000000000E+00  0.00000000000E+00  0.17796842226E+04  0.17796842226E+04  0.00000000000E+00 0.  1.
         21   -1    0    0  501  503 -0.00000000000E+00 -0.00000000000E+00 -0.39126734151E+02  0.39126734151E+02  0.00000000000E+00 0. -1.
          6    1    1    2  501    0  0.64741174946E+02 -0.18782919532E+03  0.95313305850E+03  0.98869502555E+03  0.17200000000E+03 0. -1.
         -6    1    1    2    0  502 -0.64741174946E+02  0.18782919532E+03  0.78742442992E+03  0.83011593117E+03  0.17200000000E+03 0. -1.
</event>
<event>
 4    1  0.5801298E+000  0.1816967E+03  0.7818608E-02  0.1166171E+00
         21   -1    0    0  501  502  0.00000000000E+00  0.00000000000E+00  0.13113656877E+03  0.13113656877E+03  0.00000000000E+00 0.  1.
         21   -1    0    0  502  503 -0.00000000000E+00 -0.00000000000E+00 -0.43192418904E+03  0.43192418904E+03  0.00000000000E+00 0.  1.
          6    1    1    2  501    0 -0.40921462725E+01  0.58420438384E+02  0.31436893309E+02  0.18439623516E+03  0.17200000000E+03 0.  1.
         -6    1    1    2    0  503  0.40921462725E+01 -0.58420438384E+02 -0.33222451359E+03  0.37866452265E+03  0.17200000000E+03 0.  1.
</event>
<event>
 4    1  0.5801298E+000  0.1795592E+03  0.7818608E-02  0.1168230E+00
         21   -1    0    0  503  502  0.00000000000E+00  0.00000000000E+00  0.13779853913E+03  0.13779853913E+03  0.00000000000E+00 0. -1.
         21   -1    0    0  501  503 -0.00000000000E+00 -0.00000000000E+00 -0.41409790171E+03  0.41409790171E+03  0.00000000000E+00 0. -1.
          6    1    1    2  501    0 -0.13569980711E+02 -0.49732978880E+02 -0.32014477151E+03  0.36706155926E+03  0.17200000000E+03 0. -1.
         -6    1    1    2    0  502  0.13569980711E+02  0.49732978880E+02  0.43845408929E+02  0.18483488158E+03  0.17200000000E+03 0. -1.
</event>
<event>
 4    1  0.5801298E+000  0.2169890E+03  0.7818608E-02  0.1136148E+00
         21   -1    0    0  503  502  0.00000000000E+00  0.00000000000E+00  0.73591969893E+03  0.73591969893E+03  0.00000000000E+00 0.  1.
         21   -1    0    0  501  503 -0.00000000000E+00 -0.00000000000E+00 -0.11154130229E+03  0.11154130229E+03  0.00000000000E+00 0. -1.
          6    1    1    2  501    0  0.12010709708E+03 -0.55448308596E+02  0.35496182080E+02  0.21987316489E+03  0.17200000000E+03 0. -1.
         -6    1    1    2    0  502 -0.12010709708E+03  0.55448308596E+02  0.58888221455E+03  0.62758783633E+03  0.17200000000E+03 0.  1.
</event>
<event>
 4    1  0.5801298E+000  0.2131948E+03  0.7818608E-02  0.1139061E+00
         21   -1    0    0  501  502  0.00000000000E+00  0.00000000000E+00  0.11979999992E+03  0.11979999992E+03  0.00000000000E+00 0. -1.
         21   -1    0    0  502  503 -0.00000000000E+00 -0.00000000000E+00 -0.38431100954E+03  0.38431100954E+03  0.00000000000E+00 0.  1.
          6    1    1    2  501    0  0.12359635078E+03 -0.24330229228E+02 -0.10375990505E+03  0.23710363952E+03  0.17200000000E+03 0. -1.
         -6    1    1    2    0  503 -0.12359635078E+03  0.24330229228E+02 -0.16075110456E+03  0.26700736993E+03  0.17200000000E+03 0. -1.
</event>
<event>
 4    1  0.5801298E+000  0.1758127E+03  0.7818608E-02  0.1171918E+00
         21   -1    0    0  501  502  0.00000000000E+00  0.00000000000E+00  0.17809831177E+02  0.17809831177E+02  0.00000000000E+00 0.  1.
         21   -1    0    0  502  503 -0.00000000000E+00 -0.00000000000E+00 -0.20039017503E+04  0.20039017503E+04  0.00000000000E+00 0.  1.
          6    1    1    2  501    0 -0.33045081013E+02 -0.15300887136E+02 -0.62313924866E+03  0.64746630626E+03  0.17200000000E+03 0.  1.
         -6    1    1    2    0  503  0.33045081013E+02  0.15300887136E+02 -0.13629526705E+04  0.13742452753E+04  0.17200000000E+03 0.  1.
</event>
<event>
 4    1  0.5801298E+000  0.2155989E+03  0.7818608E-02  0.1137207E+00
         21   -1    0    0  501  502  0.00000000000E+00  0.00000000000E+00  0.27517338486E+03  0.27517338486E+03  0.00000000000E+00 0.  1.
         21   -1    0    0  502  503 -0.00000000000E+00 -0.00000000000E+00 -0.26862665229E+03  0.26862665229E+03  0.00000000000E+00 0.  1.
          6    1    1    2  501    0  0.12740117721E+03 -0.25842508557E+02  0.16892356085E+03  0.27389425809E+03  0.17200000000E+03 0.  1.
         -6    1    1    2    0  503 -0.12740117721E+03  0.25842508557E+02 -0.16237682828E+03  0.26990577905E+03  0.17200000000E+03 0.  1.
</event>
<event>
 4    1  0.5801298E+000  0.1899022E+03  0.7818608E-02  0.1158550E+00
         21   -1    0    0  501  502  0.00000000000E+00  0.00000000000E+00  0.57408351582E+03  0.57408351582E+03  0.00000000000E+00 0. -1.
         21   -1    0    0  502  503 -0.00000000000E+00 -0.00000000000E+00 -0.13819703072E+03  0.13819703072E+03  0.00000000000E+00 0. -1.
          6    1    1    2  501    0 -0.15254975027E+02  0.79032512672E+02  0.48096800346E+03  0.51710064076E+03  0.17200000000E+03 0. -1.
         -6    1    1    2    0  503  0.15254975027E+02 -0.79032512672E+02 -0.45081518360E+02  0.19517990578E+03  0.17200000000E+03 0. -1.
</event>
<event>
 4    1  0.5801298E+000  0.2154530E+03  0.7818608E-02  0.1137319E+00
         21   -1    0    0  501  502  0.00000000000E+00  0.00000000000E+00  0.73188328589E+03  0.73188328589E+03  0.00000000000E+00 0. -1.
         21   -1    0    0  502  503 -0.00000000000E+00 -0.00000000000E+00 -0.63814473173E+02  0.63814473173E+02  0.00000000000E+00 0. -1.
          6    1    1    2  501    0  0.12604288471E+03 -0.30809079677E+02  0.36509862615E+03  0.42393043650E+03  0.17200000000E+03 0. -1.
         -6    1    1    2    0  503 -0.12604288471E+03  0.30809079677E+02  0.30297018657E+03  0.37176732256E+03  0.17200000000E+03 0. -1.
</event>
<event>
 4    1  0.5801298E+000  0.2055103E+03  0.7818608E-02  0.1145171E+00
         21   -1    0    0  501  502  0.00000000000E+00  0.00000000000E+00  0.35072728289E+02  0.35072728289E+02  0.00000000000E+00 0. -1.
         21   -1    0    0  502  503 -0.00000000000E+00 -0.00000000000E+00 -0.13794752361E+04  0.13794752361E+04  0.00000000000E+00 0. -1.
          6    1    1    2  501    0 -0.23398905149E+02 -0.11001354404E+03 -0.42008884920E+03  0.46766347928E+03  0.17200000000E+03 0. -1.
         -6    1    1    2    0  503  0.23398905149E+02  0.11001354404E+03 -0.92431365860E+03  0.94688448509E+03  0.17200000000E+03 0. -1.
</event>
<event>
 4    1  0.5801298E+000  0.1754546E+03  0.7818608E-02  0.1172276E+00
         21   -1    0    0  503  502  0.00000000000E+00  0.00000000000E+00  0.84440839575E+03  0.84440839575E+03  0.00000000000E+00 0.  1.
         21   -1    0    0  501  503 -0.00000000000E+00 -0.00000000000E+00 -0.43034753617E+02  0.43034753617E+02  0.00000000000E+00 0.  1.
          6    1    1    2  501    0  0.33388972095E+02 -0.92454072576E+01  0.22720608627E+03  0.28706603187E+03  0.17200000000E+03 0.  1.
         -6    1    1    2    0  502 -0.33388972095E+02  0.92454072576E+01  0.57416755586E+03  0.60037711750E+03  0.17200000000E+03 0.  1.
</event>
<event>
 4    1  0.5801298E+000  0.1723405E+03  0.7818608E-02  0.1175429E+00
         21   -1    0    0  503  502  0.00000000000E+00  0.00000000000E+00  0.19746899955E+03  0.19746899955E+03  0.00000000000E+00 0.  1.
         21   -1    0    0  501  503 -0.00000000000E+00 -0.00000000000E+00 -0.15906481721E+03  0.15906481721E+03  0.00000000000E+00 0.  1.
          6    1    1    2  501    0  0.65258708446E+01  0.86400334047E+01 -0.22381515408E+02  0.17378771360E+03  0.17200000000E+03 0.  1.
         -6    1    1    2    0  502 -0.65258708446E+01 -0.86400334047E+01  0.60785697750E+02  0.18274610316E+03  0.17200000000E+03 0.  1.
</event>
<event>
 4    1  0.5801298E+000  0.2215805E+03  0.7818608E-02  0.1132710E+00
         21   -1    0    0  503  502  0.00000000000E+00  0.00000000000E+00  0.29514202124E+02  0.29514202124E+02  0.00000000000E+00 0. -1.
         21   -1    0    0  501  503 -0.00000000000E+00 -0.00000000000E+00 -0.20947957230E+04  0.20947957230E+04  0.00000000000E+00 0. -1.
          6    1    1    2  501    0 -0.91757535138E+02 -0.10533039509E+03 -0.15145735762E+04  0.15306962648E+04  0.17200000000E+03 0. -1.
         -6    1    1    2    0  502  0.91757535138E+02  0.10533039509E+03 -0.55070794471E+03  0.59361366035E+03  0.17200000000E+03 0. -1.
</event>
<event>
 4    1  0.5801298E+000  0.2277870E+03  0.7818608E-02  0.1128207E+00
         21   -1    0    0  503  502  0.00000000000E+00  0.00000000000E+00  0.31203257576E+03  0.31203257576E+03  0.00000000000E+00 0.  1.
         21   -1    0    0  501  503 -0.00000000000E+00 -0.00000000000E+00 -0.21591196488E+03  0.21591196488E+03  0.00000000000E+00 0. -1.
          6    1    1    2  501    0 -0.11432053965E+03 -0.96092238813E+02  0.17461284226E+03  0.28701315096E+03  0.17200000000E+03 0.  1.
         -6    1    1    2    0  502  0.11432053965E+03  0.96092238813E+02 -0.78492231379E+02  0.24093138968E+03  0.17200000000E+03 0. -1.
</event>
<event>
 4    1  0.5801298E+000  0.2095116E+03  0.7818608E-02  0.1141953E+00
         21   -1    0    0  503  502  0.00000000000E+00  0.00000000000E+00  0.11908970589E+03  0.11908970589E+03  0.00000000000E+00 0. -1.
         21   -1    0    0  501  503 -0.00000000000E+00 -0.00000000000E+00 -0.42047894765E+03  0.42047894765E+03  0.00000000000E+00 0. -1.
          6    1    1    2  501    0 -0.79574492800E+02  0.89325333751E+02 -0.24546827483E+03  0.32272246451E+03  0.17200000000E+03 0. -1.
         -6    1    1    2    0  502  0.79574492800E+02 -0.89325333751E+02 -0.55920966930E+02  0.21684618903E+03  0.17200000000E+03 0. -1.
</event>
<event>
 4    1  0.5801298E+000  0.1787151E+03  0.7818608E-02  0.1169052E+00
         21   -1    0    0  503  502  0.00000000000E+00  0.00000000000E+00  0.26042842196E+03  0.26042842196E+03  0.00000000000E+00 0. -1.
         21   -1    0    0  501  503 -0.00000000000E+00 -0.00000000000E+00 -0.15510177953E+03  0.15510177953E+03  0.00000000000E+00 0. -1.
          6    1    1    2  501    0 -0.47445310500E+02 -0.10198713897E+02 -0.42385567155E+02  0.18367255526E+03  0.17200000000E+03 0.  1.
         -6    1    1    2    0  502  0.47445310500E+02  0.10198713897E+02  0.14771220959E+03  0.23185764623E+03  0.17200000000E+03 0.  1.
</event>
<event>
 4    1  0.5801298E+000  0.2818655E+03  0.7818608E-02  0.1094674E+00
         21   -1    0    0  501  502  0.00000000000E+00  0.00000000000E+00  0.11433222303E+04  0.11433222303E+04  0.00000000000E+00 0. -1.
         21   -1    0    0  502  503 -0.00000000000E+00 -0.00000000000E+00 -0.74712236369E+02  0.74712236369E+02  0.00000000000E+00 0.  1.
          6    1    1    2  501    0  0.16541869783E+03  0.15000265321E+03  0.69533618085E+03  0.75029363982E+03  0.17200000000E+03 0. -1.
         -6    1    1    2    0  503 -0.16541869783E+03 -0.15000265321E+03  0.37327381307E+03  0.46774082684E+03  0.17200000000E+03 0.  1.
</event>
<event>
 4    1  0.5801298E+000  0.2297195E+03  0.7818608E-02  0.1126837E+00
         21   -1    0    0  503  502  0.00000000000E+00  0.00000000000E+00  0.12195864102E+03  0.12195864102E+03  0.00000000000E+00 0.  1.
         21   -1    0    0  501  503 -0.00000000000E+00 -0.00000000000E+00 -0.45205811182E+03  0.45205811182E+03  0.00000000000E+00 0.  1.
          6    1    1    2  501    0  0.14574003881E+03  0.44123509740E+02 -0.10565180301E+03  0.25285044295E+03  0.17200000000E+03 0.  1.
         -6    1    1    2    0  502 -0.14574003881E+03 -0.44123509740E+02 -0.22444766780E+03  0.32116630988E+03  0.17200000000E+03 0.  1.
</event>
<event>
 4    1  0.5801298E+000  0.2336317E+03  0.7818608E-02  0.1124109E+00
         21   -1    0    0  503  502  0.00000000000E+00  0.00000000000E+00  0.97489866467E+03  0.97489866467E+03  0.00000000000E+00 0. -1.
         21   -1    0    0  501  503 -0.00000000000E+00 -0.00000000000E+00 -0.71781613196E+02  0.71781613196E+02  0.00000000000E+00 0. -1.
          6    1    1    2  501    0 -0.21011942819E+02 -0.15671074118E+03  0.20608637609E+03  0.31153708055E+03  0.17200000000E+03 0. -1.
         -6    1    1    2    0  502  0.21011942819E+02  0.15671074118E+03  0.69703067538E+03  0.73514319732E+03  0.17200000000E+03 0. -1.
</event>
<event>
 4    1  0.5801298E+000  0.1862033E+03  0.7818608E-02  0.1161931E+00
         21   -1    0    0  501  502  0.00000000000E+00  0.00000000000E+00  0.26506782618E+02  0.26506782618E+02  0.00000000000E+00 0.  1.
         21   -1    0    0  502  503 -0.00000000000E+00 -0.00000000000E+00 -0.13880112821E+04  0.13880112821E+04  0.00000000000E+00 0.  1.
          6    1    1    2  501    0  0.18152246172E+02 -0.68979512267E+02 -0.51097670539E+03  0.54384636673E+03  0.17200000000E+03 0.  1.
         -6    1    1    2    0  503 -0.18152246172E+02  0.68979512267E+02 -0.85052779407E+03  0.87067169797E+03  0.17200000000E+03 0.  1.
</event>
<event>
 4    1  0.5801298E+000  0.1897806E+03  0.7818608E-02  0.1158659E+00
         21   -1    0    0  501  502  0.00000000000E+00  0.00000000000E+00  0.66641378560E+02  0.66641378560E+02  0.00000000000E+00 0. -1.
         21   -1    0    0  502  503 -0.00000000000E+00 -0.00000000000E+00 -0.71870777920E+03  0.71870777920E+03  0.00000000000E+00 0. -1.
          6    1    1    2  501    0  0.40500128245E+02 -0.69227209337E+02 -0.13047557414E+03  0.23030532418E+03  0.17200000000E+03 0.  1.
         -6    1    1    2    0  503 -0.40500128245E+02  0.69227209337E+02 -0.52159082650E+03  0.55504383358E+03  0.17200000000E+03 0.  1.
</event>
<event>
 4    1  0.5801298E+000  0.1770071E+03  0.7818608E-02  0.1170731E+00
         21   -1    0    0  503  502  0.00000000000E+00  0.00000000000E+00  0.24879635485E+02  0.24879635485E+02  0.00000000000E+00 0. -1.
         21   -1    0    0  501  503 -0.00000000000E+00 -0.00000000000E+00 -0.12863839048E+04  0.12863839048E+04  0.00000000000E+00 0. -1.
          6    1    1    2  501    0  0.27416137049E+02  0.31557443693E+02 -0.72584315742E+03  0.74711431923E+03  0.17200000000E+03 0. -1.
         -6    1    1    2    0  502 -0.27416137049E+02 -0.31557443693E+02 -0.53566111192E+03  0.56414922108E+03  0.17200000000E+03 0. -1.
</event>
<event>
 4    1  0.5801298E+000  0.1729471E+03  0.7818608E-02  0.1174809E+00
         21   -1    0    0  503  502  0.00000000000E+00  0.00000000000E+00  0.55753653007E+03  0.55753653007E+03  0.00000000000E+00 0. -1.
         21   -1    0    0  501  503 -0.00000000000E+00 -0.00000000000E+00 -0.12424333873E+03  0.12424333873E+03  0.00000000000E+00 0. -1.
          6    1    1    2  501    0  0.43652779044E+01  0.17539711078E+02 -0.40313543761E+02  0.17758344215E+03  0.17200000000E+03 0. -1.
         -6    1    1    2    0  502 -0.43652779044E+01 -0.17539711078E+02  0.47360673510E+03  0.50419642665E+03  0.17200000000E+03 0. -1.
</event>
<event>
 4    1  0.5801298E+000  0.3024234E+03  0.7818608E-02  0.1084035E+00
         21   -1    0    0  501  502  0.00000000000E+00  0.00000000000E+00  0.63891362594E+03  0.63891362594E+03  0.00000000000E+00 0. -1.
         21   -1    0    0  502  503 -0.00000000000E+00 -0.00000000000E+00 -0.14395889417E+03  0.14395889417E+03  0.00000000000E+00 0.  1.
          6    1    1    2  501    0 -0.69988984366E+02 -0.23869956564E+03  0.21812003849E+03  0.37287570551E+03  0.17200000000E+03 0. -1.
         -6    1    1    2    0  503  0.69988984366E+02  0.23869956564E+03  0.27683469329E+03  0.40999681459E+03  0.17200000000E+03 0. -1.
</event>
<event>
 4    1  0.5801298E+000  0.1902561E+03  0.7818608E-02  0.1158231E+00
         21   -1    0    0  503  502  0.00000000000E+00  0.00000000000E+00  0.18044328385E+03  0.18044328385E+03  0.00000000000E+00 0. -1.
         21   -1    0    0  501  503 -0.00000000000E+00 -0.00000000000E+00 -0.20240366110E+03  0.20240366110E+03  0.00000000000E+00 0.  1.
          6    1    1    2  501    0 -0.44075317267E+02 -0.68342977590E+02 -0.29037262257E+02  0.19245923926E+03  0.17200000000E+03 0.  1.
         -6    1    1    2    0  502  0.44075317267E+02  0.68342977590E+02  0.70768850093E+01  0.19038770569E+03  0.17200000000E+03 0. -1.
</event>
<event>
 4    1  0.5801298E+000  0.1763458E+03  0.7818608E-02  0.1171387E+00
         21   -1    0    0  501  502  0.00000000000E+00  0.00000000000E+00  0.10072838532E+03  0.10072838532E+03  0.00000000000E+00 0.  1.
         21   -1    0    0  502  503 -0.00000000000E+00 -0.00000000000E+00 -0.69071339772E+03  0.69071339772E+03  0.00000000000E+00 0.  1.
          6    1    1    2  501    0  0.17162254023E+02 -0.34918421588E+02 -0.58927368130E+03  0.61509455420E+03  0.17200000000E+03 0.  1.
         -6    1    1    2    0  503 -0.17162254023E+02  0.34918421588E+02 -0.71133109512E+00  0.17634722884E+03  0.17200000000E+03 0.  1.
</event>
<event>
 4    1  0.5801298E+000  0.2905696E+03  0.7818608E-02  0.1090052E+00
         21   -1    0    0  503  502  0.00000000000E+00  0.00000000000E+00  0.42359398156E+03  0.42359398156E+03  0.00000000000E+00 0. -1.
         21   -1    0    0  501  503 -0.00000000000E+00 -0.00000000000E+00 -0.25634897439E+03  0.25634897439E+03  0.00000000000E+00 0.  1.
          6    1    1    2  501    0 -0.16880746915E+03  0.16232916074E+03 -0.76729643876E+02  0.30052979273E+03  0.17200000000E+03 0.  1.
         -6    1    1    2    0  502  0.16880746915E+03 -0.16232916074E+03  0.24397465105E+03  0.37941316322E+03  0.17200000000E+03 0. -1.
</event>
<event>
 4    1  0.5801298E+000  0.1928889E+03  0.7818608E-02  0.1155881E+00
         21   -1    0    0  503  502  0.00000000000E+00  0.00000000000E+00  0.66431157482E+03  0.66431157482E+03  0.00000000000E+00 0. -1.
         21   -1    0    0  501  503 -0.00000000000E+00 -0.00000000000E+00 -0.82423090494E+02  0.82423090494E+02  0.00000000000E+00 0. -1.
          6    1    1    2  501    0  0.87227344803E+02  0.36747621785E+01  0.79572973630E+02  0.20865754645E+03  0.17200000000E+03 0. -1.
         -6    1    1    2    0  502 -0.87227344803E+02 -0.36747621785E+01  0.50231551070E+03  0.53807711887E+03  0.17200000000E+03 0. -1.
</event>
<event>
 4    1  0.5801298E+000  0.1737899E+03  0.7818608E-02  0.1173952E+00
         21   -1    0    0  503  502  0.00000000000E+00  0.00000000000E+00  0.11980251187E+03  0.11980251187E+03  0.00000000000E+00 0. -1.
         21   -1    0    0  501  503 -0.00000000000E+00 -0.00000000000E+00 -0.25786409170E+03  0.25786409170E+03  0.00000000000E+00 0. -1.
          6    1    1    2  501    0  0.10446555990E+02 -0.22578344033E+02 -0.97248950866E+02  0.19914886541E+03  0.17200000000E+03 0. -1.
         -6    1    1    2    0  502 -0.10446555990E+02  0.22578344033E+02 -0.40812628965E+02  0.17851773815E+03  0.17200000000E+03 0. -1.
</event>
<event>
 4    1  0.5801298E+000  0.2127956E+03  0.7818608E-02  0.1139371E+00
         21   -1    0    0  501  502  0.00000000000E+00  0.00000000000E+00  0.87059176448E+03  0.87059176448E+03  0.00000000000E+00 0.  1.
         21   -1    0    0  502  503 -0.00000000000E+00 -0.00000000000E+00 -0.54349962822E+02  0.54349962822E+02  0.00000000000E+00 0.  1.
          6    1    1    2  501    0  0.12210223476E+03 -0.28089154113E+02  0.31221951970E+03  0.37783989307E+03  0.17200000000E+03 0.  1.
         -6    1    1    2    0  503 -0.12210223476E+03  0.28089154113E+02  0.50402228196E+03  0.54710183423E+03  0.17200000000E+03 0.  1.
</event>
<event>
 4    1  0.5801298E+000  0.1822050E+03  0.7818608E-02  0.1165686E+00
         21   -1    0    0  503  502  0.00000000000E+00  0.00000000000E+00  0.33560007733E+03  0.33560007733E+03  0.00000000000E+00 0. -1.
         21   -1    0    0  501  503 -0.00000000000E+00 -0.00000000000E+00 -0.21870870069E+03  0.21870870069E+03  0.00000000000E+00 0.  1.
          6    1    1    2  501    0 -0.59070355789E+02  0.11196761251E+02 -0.14666610698E+03  0.23390087929E+03  0.17200000000E+03 0.  1.
         -6    1    1    2    0  502  0.59070355789E+02 -0.11196761251E+02  0.26355748362E+03  0.32040789873E+03  0.17200000000E+03 0. -1.
</event>
<event>
 4    1  0.5801298E+000  0.2227353E+03  0.7818608E-02  0.1131860E+00
         21   -1    0    0  503  502  0.00000000000E+00  0.00000000000E+00  0.51905126282E+02  0.51905126282E+02  0.00000000000E+00 0.  1.
         21   -1    0    0  501  503 -0.00000000000E+00 -0.00000000000E+00 -0.97016761306E+03  0.97016761306E+03  0.00000000000E+00 0. -1.
          6    1    1    2  501    0  0.14145034475E+03 -0.43378824096E+01 -0.52131720118E+03  0.56690620168E+03  0.17200000000E+03 0. -1.
         -6    1    1    2    0  502 -0.14145034475E+03  0.43378824096E+01 -0.39694528559E+03  0.45516653766E+03  0.17200000000E+03 0.  1.
</event>
<event>
 4    1  0.5801298E+000  0.2087609E+03  0.7818608E-02  0.1142551E+00
         21   -1    0    0  501  502  0.00000000000E+00  0.00000000000E+00  0.96288945155E+02  0.96288945155E+02  0.00000000000E+00 0.  1.
         21   -1    0    0  502  503 -0.00000000000E+00 -0.00000000000E+00 -0.71056056482E+03  0.71056056482E+03  0.00000000000E+00 0. -1.
          6    1    1    2  501    0 -0.11773368587E+03 -0.11656771860E+02 -0.64065273790E+02  0.21837000807E+03  0.17200000000E+03 0.  1.
         -6    1    1    2    0  503  0.11773368587E+03  0.11656771860E+02 -0.55020634587E+03  0.58847950190E+03  0.17200000000E+03 0. -1.
</event>
<event>
 4    1  0.5801298E+000  0.3033212E+03  0.7818608E-02  0.1083592E+00
         21   -1    0    0  503  502  0.00000000000E+00  0.00000000000E+00  0.25567426497E+03  0.25567426497E+03  0.00000000000E+00 0.  1.
         21   -1    0    0  501  503 -0.00000000000E+00 -0.00000000000E+00 -0.35993591067E+03  0.35993591067E+03  0.00000000000E+00 0. -1.
          6    1    1    2  501    0 -0.16461305926E+02  0.24929650973E+03 -0.47304521730E+02  0.30698769052E+03  0.17200000000E+03 0.  1.
         -6    1    1    2    0  502  0.16461305926E+02 -0.24929650973E+03 -0.56957123967E+02  0.30862248513E+03  0.17200000000E+03 0. -1.
</event>
<event>
 4    1  0.5801298E+000  0.2204037E+03  0.7818608E-02  0.1133582E+00
         21   -1    0    0  503  502  0.00000000000E+00  0.00000000000E+00  0.14027797006E+03  0.14027797006E+03  0.00000000000E+00 0. -1.
         21   -1    0    0  501  503 -0.00000000000E+00 -0.00000000000E+00 -0.65344053250E+03  0.65344053250E+03  0.00000000000E+00 0. -1.
          6    1    1    2  501    0 -0.81293972601E+02  0.11128825456E+03 -0.52866617880E+03  0.57277021063E+03  0.17200000000E+03 0. -1.
         -6    1    1    2    0  502  0.81293972601E+02 -0.11128825456E+03  0.15503616358E+02  0.22094829192E+03  0.17200000000E+03 0. -1.
</event>
<event>
 4    1  0.5801298E+000  0.1949942E+03  0.7818608E-02  0.1154032E+00
         21   -1    0    0  503  502  0.00000000000E+00  0.00000000000E+00  0.11932404614E+04  0.11932404614E+04  0.00000000000E+00 0. -1.
         21   -1    0    0  501  503 -0.00000000000E+00 -0.00000000000E+00 -0.38849938664E+02  0.38849938664E+02  0.00000000000E+00 0. -1.
          6    1    1    2  501    0 -0.11133675107E+02 -0.91185457288E+02  0.83840844080E+03  0.86078537391E+03  0.17200000000E+03 0. -1.
         -6    1    1    2    0  502  0.11133675107E+02  0.91185457288E+02  0.31598208197E+03  0.37130502618E+03  0.17200000000E+03 0. -1.
</event>
<event>
 4    1  0.5801298E+000  0.2128760E+03  0.7818608E-02  0.1139309E+00
         21   -1    0    0  503  502  0.00000000000E+00  0.00000000000E+00  0.30628200123E+03  0.30628200123E+03  0.00000000000E+00 0. -1.
         21   -1    0    0  501  503 -0.00000000000E+00 -0.00000000000E+00 -0.49814107345E+03  0.49814107345E+03  0.00000000000E+00 0. -1.
          6    1    1    2  501    0 -0.11793119561E+03  0.42713334515E+02 -0.43316038253E+03  0.48264284190E+03  0.17200000000E+03 0. -1.
         -6    1    1    2    0  502  0.11793119561E+03 -0.42713334515E+02  0.24130131031E+03  0.32178023277E+03  0.17200000000E+03 0. -1.
</event>
<event>
 4    1  0.5801298E+000  0.1896494E+03  0.7818608E-02  0.1158778E+00
         21   -1    0    0  501  502  0.00000000000E+00  0.00000000000E+00  0.75732502409E+03  0.75732502409E+03  0.00000000000E+00 0.  1.
         21   -1    0    0  502  503 -0.00000000000E+00 -0.00000000000E+00 -0.55620233639E+02  0.55620233639E+02  0.00000000000E+00 0.  1.
          6    1    1    2  501    0 -0.36969096562E+02  0.70824985951E+02  0.19546616038E+03  0.27234888028E+03  0.17200000000E+03 0.  1.
         -6    1    1    2    0  503  0.36969096562E+02 -0.70824985951E+02  0.50623863007E+03  0.54059637745E+03  0.17200000000E+03 0.  1.
</event>
<event>
 4    1  0.5801298E+000  0.2403614E+03  0.7818608E-02  0.1119552E+00
         21   -1    0    0  501  502  0.00000000000E+00  0.00000000000E+00  0.12159708910E+03  0.12159708910E+03  0.00000000000E+00 0. -1.
         21   -1    0    0  502  503 -0.00000000000E+00 -0.00000000000E+00 -0.54952679517E+03  0.54952679517E+03  0.00000000000E+00 0.  1.
          6    1    1    2  501    0  0.10099539239E+02  0.16759354603E+03 -0.90490931863E+02  0.25683108479E+03  0.17200000000E+03 0. -1.
         -6    1    1    2    0  503 -0.10099539239E+02 -0.16759354603E+03 -0.33743877421E+03  0.41429279949E+03  0.17200000000E+03 0.  1.
</event>
<event>
 4    1  0.5801298E+000  0.2431940E+03  0.7818608E-02  0.1117683E+00
         21   -1    0    0  501  502  0.00000000000E+00  0.00000000000E+00  0.20647417367E+03  0.20647417367E+03  0.00000000000E+00 0. -1.
         21   -1    0    0  502  503 -0.00000000000E+00 -0.00000000000E+00 -0.29222349535E+03  0.29222349535E+03  0.00000000000E+00 0.  1.
          6    1    1    2  501    0 -0.15492906430E+03 -0.74540601081E+02 -0.78083848739E+01  0.24331931089E+03  0.17200000000E+03 0. -1.
         -6    1    1    2    0  503  0.15492906430E+03  0.74540601081E+02 -0.77940936807E+02  0.25537835814E+03  0.17200000000E+03 0.  1.
</event>
<event>
 4    1  0.5801298E+000  0.2479734E+03  0.7818608E-02  0.1114592E+00
         21   -1    0    0  501  502  0.00000000000E+00  0.00000000000E+00  0.40606553534E+03  0.40606553534E+03  0.00000000000E+00 0.  1.
         21   -1    0    0  502  503 -0.00000000000E+00 -0.00000000000E+00 -0.15235681495E+03  0.15235681495E+03  0.00000000000E+00 0. -1.
          6    1    1    2  501    0  0.16050438127E+03  0.78391158375E+02  0.14862193937E+03  0.28910086644E+03  0.17200000000E+03 0.  1.
         -6    1    1    2    0  503 -0.16050438127E+03 -0.78391158375E+02  0.10508678102E+03  0.26932148385E+03  0.17200000000E+03 0.  1.
</event>
<event>
 4    1  0.5801298E+000  0.3153889E+03  0.7818608E-02  0.1077791E+00
         21   -1    0    0  503  502  0.00000000000E+00  0.00000000000E+00  0.44706299365E+03  0.44706299365E+03  0.00000000000E+00 0. -1.
         21   -1    0    0  501  503 -0.00000000000E+00 -0.00000000000E+00 -0.72099650285E+03  0.72099650285E+03  0.00000000000E+00 0.  1.
          6    1    1    2  501    0  0.21557813936E+03 -0.15301048473E+03 -0.62259147501E+03  0.69791853920E+03  0.17200000000E+03 0.  1.
         -6    1    1    2    0  502 -0.21557813936E+03  0.15301048473E+03  0.34865796581E+03  0.47014095730E+03  0.17200000000E+03 0. -1.
</event>
<event>
 4    1  0.5801298E+000  0.1914380E+03  0.7818608E-02  0.1157171E+00
         21   -1    0    0  501  502  0.00000000000E+00  0.00000000000E+00  0.97121645571E+02  0.97121645571E+02  0.00000000000E+00 0. -1.
         21   -1    0    0  502  503 -0.00000000000E+00 -0.00000000000E+00 -0.59752541657E+03  0.59752541657E+03  0.00000000000E+00 0. -1.
          6    1    1    2  501    0  0.87589492143E+01 -0.83593046209E+02 -0.39366333533E+02  0.19544366140E+03  0.17200000000E+03 0. -1.
         -6    1    1    2    0  503 -0.87589492143E+01  0.83593046209E+02 -0.46103743747E+03  0.49920340074E+03  0.17200000000E+03 0. -1.
</event>
<event>
 4    1  0.5801298E+000  0.3596234E+03  0.7818608E-02  0.1058733E+00
         21   -1    0    0  501  502  0.00000000000E+00  0.00000000000E+00  0.16024524694E+04  0.16024524694E+04  0.00000000000E+00 0. -1.
         21   -1    0    0  502  503 -0.00000000000E+00 -0.00000000000E+00 -0.84869590739E+02  0.84869590739E+02  0.00000000000E+00 0.  1.
          6    1    1    2  501    0 -0.29510272219E+03  0.11251403923E+03  0.57194826572E+03  0.67561367980E+03  0.17200000000E+03 0.  1.
         -6    1    1    2    0  503  0.29510272219E+03 -0.11251403923E+03  0.94563461299E+03  0.10117083804E+04  0.17200000000E+03 0. -1.
</event>
<event>
 4    1  0.5801298E+000  0.2971022E+03  0.7818608E-02  0.1086698E+00
         21   -1    0    0  501  502  0.00000000000E+00  0.00000000000E+00  0.69153195392E+02  0.69153195392E+02  0.00000000000E+00 0. -1.
         21   -1    0    0  502  503 -0.00000000000E+00 -0.00000000000E+00 -0.12975056592E+04  0.12975056592E+04  0.00000000000E+00 0. -1.
          6    1    1    2  501    0 -0.23235653346E+03  0.68528499523E+02 -0.70125082730E+03  0.76159204084E+03  0.17200000000E+03 0. -1.
         -6    1    1    2    0  503  0.23235653346E+03 -0.68528499523E+02 -0.52710163652E+03  0.60506681376E+03  0.17200000000E+03 0. -1.
</event>
<event>
 4    1  0.5801298E+000  0.2560403E+03  0.7818608E-02  0.1109546E+00
         21   -1    0    0  503  502  0.00000000000E+00  0.00000000000E+00  0.58580452944E+02  0.58580452944E+02  0.00000000000E+00 0. -1.
         21   -1    0    0  501  503 -0.00000000000E+00 -0.00000000000E+00 -0.12894461635E+04  0.12894461635E+04  0.00000000000E+00 0. -1.
          6    1    1    2  501    0 -0.48039265779E+02  0.18347988685E+03 -0.86042336034E+03  0.89771097740E+03  0.17200000000E+03 0. -1.
         -6    1    1    2    0  502  0.48039265779E+02 -0.18347988685E+03 -0.37044235026E+03  0.45031563908E+03  0.17200000000E+03 0. -1.
</event>
<event>
 4    1  0.5801298E+000  0.1979166E+03  0.7818608E-02  0.1151509E+00
         21   -1    0    0  501  502  0.00000000000E+00  0.00000000000E+00  0.37211185081E+03  0.37211185081E+03  0.00000000000E+00 0. -1.
         21   -1    0    0  502  503 -0.00000000000E+00 -0.00000000000E+00 -0.24374707820E+03  0.24374707820E+03  0.00000000000E+00 0.  1.
          6    1    1    2  501    0 -0.96114819998E+02  0.18679684491E+02  0.29628265687E+03  0.35630661234E+03  0.17200000000E+03 0. -1.
         -6    1    1    2    0  503  0.96114819998E+02 -0.18679684491E+02 -0.16791788426E+03  0.25955231667E+03  0.17200000000E+03 0.  1.
</event>
<event>
 4    1  0.5801298E+000  0.2086320E+03  0.7818608E-02  0.1142654E+00
         21   -1    0    0  501  502  0.00000000000E+00  0.00000000000E+00  0.28203921020E+03  0.28203921020E+03  0.00000000000E+00 0.  1.
         21   -1    0    0  502  503 -0.00000000000E+00 -0.00000000000E+00 -0.18802447869E+03  0.18802447869E+03  0.00000000000E+00 0.  1.
          6    1    1    2  501    0 -0.17133604504E+01  0.11806931908E+03  0.14650083575E+03  0.25493096043E+03  0.17200000000E+03 0.  1.
         -6    1    1    2    0  503  0.17133604504E+01 -0.11806931908E+03 -0.52486104241E+02  0.21513272845E+03  0.17200000000E+03 0.  1.
</event>
<event>
 4    1  0.5801298E+000  0.2106144E+03  0.7818608E-02  0.1141080E+00
         21   -1    0    0  501  502  0.00000000000E+00  0.00000000000E+00  0.36038737751E+02  0.36038737751E+02  0.00000000000E+00 0.  1.
         21   -1    0    0  502  503 -0.00000000000E+00 -0.00000000000E+00 -0.13476434210E+04  0.13476434210E+04  0.00000000000E+00 0.  1.
          6    1    1    2  501    0  0.63299925298E+02  0.10376683067E+03 -0.85946904040E+03  0.88489856317E+03  0.17200000000E+03 0.  1.
         -6    1    1    2    0  503 -0.63299925298E+02 -0.10376683067E+03 -0.45213564287E+03  0.49878359560E+03  0.17200000000E+03 0.  1.
</event>
<event>
 4    1  0.5801298E+000  0.2407777E+03  0.7818608E-02  0.1119276E+00
         21   -1    0    0  501  502  0.00000000000E+00  0.00000000000E+00  0.11712574758E+03  0.11712574758E+03  0.00000000000E+00 0.  1.
         21   -1    0    0  502  503 -0.00000000000E+00 -0.00000000000E+00 -0.77075006693E+03  0.77075006693E+03  0.00000000000E+00 0.  1.
          6    1    1    2  501    0 -0.15809152748E+03 -0.58283359089E+02 -0.61262423291E+02  0.24844912058E+03  0.17200000000E+03 0.  1.
         -6    1    1    2    0  503  0.15809152748E+03  0.58283359089E+02 -0.59236189606E+03  0.63942669394E+03  0.17200000000E+03 0.  1.
</event>
<event>
 4    1  0.5801298E+000  0.2289604E+03  0.7818608E-02  0.1127374E+00
         21   -1    0    0  503  502  0.00000000000E+00  0.00000000000E+00  0.21634223439E+03  0.21634223439E+03  0.00000000000E+00 0.  1.
         21   -1    0    0  501  503 -0.00000000000E+00 -0.00000000000E+00 -0.24302826597E+03  0.24302826597E+03  0.00000000000E+00 0.  1.
          6    1    1    2  501    0 -0.13929596222E+03 -0.58613021980E+02 -0.89514209679E+00  0.22896212070E+03  0.17200000000E+03 0.  1.
         -6    1    1    2    0  502  0.13929596222E+03  0.58613021980E+02 -0.25790889486E+02  0.23040837966E+03  0.17200000000E+03 0.  1.
</event>
<event>
 4    1  0.5801298E+000  0.1940637E+03  0.7818608E-02  0.1154846E+00
         21   -1    0    0  501  502  0.00000000000E+00  0.00000000000E+00  0.68859628605E+03  0.68859628605E+03  0.00000000000E+00 0.  1.
         21   -1    0    0  502  503 -0.00000000000E+00 -0.00000000000E+00 -0.61138331673E+02  0.61138331673E+02  0.00000000000E+00 0.  1.
          6    1    1    2  501    0  0.88929039189E+02  0.12974164941E+02  0.43545329521E+03  0.47673921097E+03  0.17200000000E+03 0.  1.
         -6    1    1    2    0  503 -0.88929039189E+02 -0.12974164941E+02  0.19200465917E+03  0.27299540676E+03  0.17200000000E+03 0.  1.
</event>
<event>
 4    1  0.5801298E+000  0.1862533E+03  0.7818608E-02  0.1161885E+00
         21   -1    0    0  503  502  0.00000000000E+00  0.00000000000E+00  0.23572099079E+03  0.23572099079E+03  0.00000000000E+00 0.  1.
         21   -1    0    0  501  503 -0.00000000000E+00 -0.00000000000E+00 -0.14748773715E+03  0.14748773715E+03  0.00000000000E+00 0. -1.
          6    1    1    2  501    0  0.67184998117E+02 -0.24340777348E+02  0.35178303222E+02  0.18954632793E+03  0.17200000000E+03 0.  1.
         -6    1    1    2    0  502 -0.67184998117E+02  0.24340777348E+02  0.53054950413E+02  0.19366240001E+03  0.17200000000E+03 0.  1.
</event>
<event>
 4    1  0.5801298E+000  0.1821310E+03  0.7818608E-02  0.1165756E+00
         21   -1    0    0  501  502  0.00000000000E+00  0.00000000000E+00  0.26606131953E+04  0.26606131953E+04  0.00000000000E+00 0. -1.
         21   -1    0    0  502  503 -0.00000000000E+00 -0.00000000000E+00 -0.13306343817E+02  0.13306343817E+02  0.00000000000E+00 0. -1.
          6    1    1    2  501    0  0.59272273335E+02  0.86315192847E+01  0.16592981675E+04  0.16692639438E+04  0.17200000000E+03 0.  1.
         -6    1    1    2    0  503 -0.59272273335E+02 -0.86315192847E+01  0.98800868402E+03  0.10046555953E+04  0.17200000000E+03 0.  1.
</event>
<event>
 4    1  0.5801298E+000  0.1983162E+03  0.7818608E-02  0.1151167E+00
         21   -1    0    0  501  502  0.00000000000E+00  0.00000000000E+00  0.12484527322E+04  0.12484527322E+04  0.00000000000E+00 0. -1.
         21   -1    0    0  502  503 -0.00000000000E+00 -0.00000000000E+00 -0.33679836188E+02  0.33679836188E+02  0.00000000000E+00 0. -1.
          6    1    1    2  501    0  0.62925027714E+02 -0.76064229959E+02  0.77038553451E+03  0.79550185291E+03  0.17200000000E+03 0. -1.
         -6    1    1    2    0  503 -0.62925027714E+02  0.76064229959E+02  0.44438736153E+03  0.48663071551E+03  0.17200000000E+03 0. -1.
</event>
<event>
 4    1  0.5801298E+000  0.1751684E+03  0.7818608E-02  0.1172563E+00
         21   -1    0    0  503  502  0.00000000000E+00  0.00000000000E+00  0.32585780364E+03  0.32585780364E+03  0.00000000000E+00 0.  1.
         21   -1    0    0  501  503 -0.00000000000E+00 -0.00000000000E+00 -0.22741841463E+03  0.22741841463E+03  0.00000000000E+00 0.  1.
          6    1    1    2  501    0  0.10822434985E+02  0.31350113564E+02 -0.16253867979E+03  0.23896187384E+03  0.17200000000E+03 0.  1.
         -6    1    1    2    0  502 -0.10822434985E+02 -0.31350113564E+02  0.26097806881E+03  0.31431434444E+03  0.17200000000E+03 0.  1.
</event>
<event>
 4    1  0.5801298E+000  0.2886306E+03  0.7818608E-02  0.1091066E+00
         21   -1    0    0  503  502  0.00000000000E+00  0.00000000000E+00  0.17412313219E+03  0.17412313219E+03  0.00000000000E+00 0.  1.
         21   -1    0    0  501  503 -0.00000000000E+00 -0.00000000000E+00 -0.22563550731E+04  0.22563550731E+04  0.00000000000E+00 0. -1.
          6    1    1    2  501    0  0.10369283797E+03 -0.20729548420E+03 -0.21198476014E+04  0.21394068046E+04  0.17200000000E+03 0. -1.
         -6    1    1    2    0  502 -0.10369283797E+03  0.20729548420E+03  0.37615660453E+02  0.29107140074E+03  0.17200000000E+03 0.  1.
</event>
<event>
 4    1  0.5801298E+000  0.1949075E+03  0.7818608E-02  0.1154108E+00
         21   -1    0    0  503  502  0.00000000000E+00  0.00000000000E+00  0.16721303681E+03  0.16721303681E+03  0.00000000000E+00 0.  1.
         21   -1    0    0  501  503 -0.00000000000E+00 -0.00000000000E+00 -0.23388708087E+03  0.23388708087E+03  0.00000000000E+00 0.  1.
          6    1    1    2  501    0 -0.62915467673E+02 -0.66682668941E+02 -0.67276123444E+02  0.20619168556E+03  0.17200000000E+03 0.  1.
         -6    1    1    2    0  502  0.62915467673E+02  0.66682668941E+02  0.60207938016E+00  0.19490843211E+03  0.17200000000E+03 0.  1.
</event>
<event>
 4    1  0.5801298E+000  0.2852290E+03  0.7818608E-02  0.1092867E+00
         21   -1    0    0  501  502  0.00000000000E+00  0.00000000000E+00  0.70335153016E+02  0.70335153016E+02  0.00000000000E+00 0. -1.
         21   -1    0    0  502  503 -0.00000000000E+00 -0.00000000000E+00 -0.17400910789E+04  0.17400910789E+04  0.00000000000E+00 0.  1.
          6    1    1    2  501    0  0.21752069260E+03  0.66755635325E+02 -0.31073400135E+03  0.42179519455E+03  0.17200000000E+03 0. -1.
         -6    1    1    2    0  503 -0.21752069260E+03 -0.66755635325E+02 -0.13590219245E+04  0.13886310374E+04  0.17200000000E+03 0.  1.
</event>
<event>
 4    1  0.5801298E+000  0.1879342E+03  0.7818608E-02  0.1160338E+00
         21   -1    0    0  501  502  0.00000000000E+00  0.00000000000E+00  0.31981488061E+03  0.31981488061E+03  0.00000000000E+00 0.  1.
         21   -1    0    0  502  503 -0.00000000000E+00 -0.00000000000E+00 -0.11111603858E+03  0.11111603858E+03  0.00000000000E+00 0. -1.
          6    1    1    2  501    0  0.68281174460E+02  0.32756004447E+02  0.87501053673E+02  0.20730583447E+03  0.17200000000E+03 0. -1.
         -6    1    1    2    0  503 -0.68281174460E+02 -0.32756004447E+02  0.12119778836E+03  0.22362508472E+03  0.17200000000E+03 0. -1.
</event>
<event>
 4    1  0.5801298E+000  0.1875208E+03  0.7818608E-02  0.1160717E+00
         21   -1    0    0  503  502  0.00000000000E+00  0.00000000000E+00  0.13917167331E+04  0.13917167331E+04  0.00000000000E+00 0.  1.
         21   -1    0    0  501  503 -0.00000000000E+00 -0.00000000000E+00 -0.47032145668E+02  0.47032145668E+02  0.00000000000E+00 0.  1.
          6    1    1    2  501    0 -0.36818193733E+02 -0.64995989031E+02  0.18296748220E+03  0.26199457537E+03  0.17200000000E+03 0.  1.
         -6    1    1    2    0  502  0.36818193733E+02  0.64995989031E+02  0.11617171052E+04  0.11767543034E+04  0.17200000000E+03 0.  1.
</event>
<event>
 4    1  0.5801298E+000  0.1978614E+03  0.7818608E-02  0.1151556E+00
         21   -1    0    0  503  502  0.00000000000E+00  0.00000000000E+00  0.96977228169E+02  0.96977228169E+02  0.00000000000E+00 0.  1.
         21   -1    0    0  501  503 -0.00000000000E+00 -0.00000000000E+00 -0.83263002103E+03  0.83263002103E+03  0.00000000000E+00 0.  1.
          6    1    1    2  501    0  0.89483318559E+02  0.39469703965E+02 -0.34215866553E+02  0.20079802627E+03  0.17200000000E+03 0.  1.
         -6    1    1    2    0  502 -0.89483318559E+02 -0.39469703965E+02 -0.70143692631E+03  0.72880922293E+03  0.17200000000E+03 0.  1.
</event>
<event>
 4    1  0.5801298E+000  0.2094006E+03  0.7818608E-02  0.1142042E+00
         21   -1    0    0  501  502  0.00000000000E+00  0.00000000000E+00  0.13821226720E+04  0.13821226720E+04  0.00000000000E+00 0.  1.
         21   -1    0    0  502  503 -0.00000000000E+00 -0.00000000000E+00 -0.33853432538E+02  0.33853432538E+02  0.00000000000E+00 0.  1.
          6    1    1    2  501    0  0.69987908556E+02 -0.96779662444E+02  0.49663485831E+03  0.53897568859E+03  0.17200000000E+03 0.  1.
         -6    1    1    2    0  503 -0.69987908556E+02  0.96779662444E+02  0.85163438117E+03  0.87700041596E+03  0.17200000000E+03 0.  1.
</event>
<event>
 4    1  0.5801298E+000  0.3382994E+03  0.7818608E-02  0.1067523E+00
         21   -1    0    0  503  502  0.00000000000E+00  0.00000000000E+00  0.16046372676E+03  0.16046372676E+03  0.00000000000E+00 0. -1.
         21   -1    0    0  501  503 -0.00000000000E+00 -0.00000000000E+00 -0.73455866937E+03  0.73455866937E+03  0.00000000000E+00 0. -1.
          6    1    1    2  501    0  0.54344214998E+02  0.28619781463E+03 -0.21077991114E+03  0.39859083500E+03  0.17200000000E+03 0. -1.
         -6    1    1    2    0  502 -0.54344214998E+02 -0.28619781463E+03 -0.36331503147E+03  0.49643156114E+03  0.17200000000E+03 0. -1.
</event>
<event>
 4    1  0.5801298E+000  0.2243218E+03  0.7818608E-02  0.1130701E+00
         21   -1    0    0  501  502  0.00000000000E+00  0.00000000000E+00  0.31889272582E+03  0.31889272582E+03  0.00000000000E+00 0. -1.
         21   -1    0    0  502  503 -0.00000000000E+00 -0.00000000000E+00 -0.26543208699E+03  0.26543208699E+03  0.00000000000E+00 0. -1.
          6    1    1    2  501    0  0.24162721698E+02  0.14195922688E+03  0.21277827879E+03  0.30918417673E+03  0.17200000000E+03 0. -1.
         -6    1    1    2    0  503 -0.24162721698E+02 -0.14195922688E+03 -0.15931763997E+03  0.27514063608E+03  0.17200000000E+03 0. -1.
</event>
<event>
 4    1  0.5801298E+000  0.2146961E+03  0.7818608E-02  0.1137900E+00
         21   -1    0    0  503  502  0.00000000000E+00  0.00000000000E+00  0.26961777203E+03  0.26961777203E+03  0.00000000000E+00 0.  1.
         21   -1    0    0  501  503 -0.00000000000E+00 -0.00000000000E+00 -0.25804661540E+03  0.25804661540E+03  0.00000000000E+00 0.  1.
          6    1    1    2  501    0 -0.10505189298E+03 -0.73990065192E+02 -0.14748157360E+03  0.26047119709E+03  0.17200000000E+03 0.  1.
         -6    1    1    2    0  502  0.10505189298E+03  0.73990065192E+02  0.15905273023E+03  0.26719319033E+03  0.17200000000E+03 0.  1.
</event>
<event>
 4    1  0.5801298E+000  0.1803453E+03  0.7818608E-02  0.1167469E+00
         21   -1    0    0  501  502  0.00000000000E+00  0.00000000000E+00  0.29561638663E+03  0.29561638663E+03  0.00000000000E+00 0.  1.
         21   -1    0    0  502  503 -0.00000000000E+00 -0.00000000000E+00 -0.13078712479E+03  0.13078712479E+03  0.00000000000E+00 0.  1.
          6    1    1    2  501    0 -0.50581601386E+02  0.19543379403E+02  0.16736607047E+03  0.24604032926E+03  0.17200000000E+03 0. -1.
         -6    1    1    2    0  503  0.50581601386E+02 -0.19543379403E+02 -0.25368086342E+01  0.18036318215E+03  0.17200000000E+03 0. -1.
</event>
<event>
 4    1  0.5801298E+000  0.1962094E+03  0.7818608E-02  0.1152977E+00
         21   -1    0    0  501  502  0.00000000000E+00  0.00000000000E+00  0.11777978237E+03  0.11777978237E+03  0.00000000000E+00 0.  1.
         21   -1    0    0  502  503 -0.00000000000E+00 -0.00000000000E+00 -0.43182559827E+03  0.43182559827E+03  0.00000000000E+00 0.  1.
          6    1    1    2  501    0 -0.72760852568E+02  0.60166378446E+02 -0.21541679530E+02  0.19738839560E+03  0.17200000000E+03 0.  1.
         -6    1    1    2    0  503  0.72760852568E+02 -0.60166378446E+02 -0.29250413637E+03  0.35221698505E+03  0.17200000000E+03 0.  1.
</event>
<event>
 4    1  0.5801298E+000  0.1809568E+03  0.7818608E-02  0.1166880E+00
         21   -1    0    0  501  502  0.00000000000E+00  0.00000000000E+00  0.16749286722E+03  0.16749286722E+03  0.00000000000E+00 0.  1.
         21   -1    0    0  502  503 -0.00000000000E+00 -0.00000000000E+00 -0.25709461554E+03  0.25709461554E+03  0.00000000000E+00 0.  1.
          6    1    1    2  501    0 -0.44171245556E+02 -0.34788993113E+02 -0.14870939999E+03  0.23422181500E+03  0.17200000000E+03 0.  1.
         -6    1    1    2    0  503  0.44171245556E+02  0.34788993113E+02  0.59107651678E+02  0.19036566776E+03  0.17200000000E+03 0.  1.
</event>
<event>
 4    1  0.5801298E+000  0.1901409E+03  0.7818608E-02  0.1158334E+00
         21   -1    0    0  503  502  0.00000000000E+00  0.00000000000E+00  0.25931680278E+03  0.25931680278E+03  0.00000000000E+00 0.  1.
         21   -1    0    0  501  503 -0.00000000000E+00 -0.00000000000E+00 -0.14011846662E+03  0.14011846662E+03  0.00000000000E+00 0.  1.
          6    1    1    2  501    0  0.33684905916E+02  0.73721723723E+02  0.73714805443E+02  0.20392998303E+03  0.17200000000E+03 0. -1.
         -6    1    1    2    0  502 -0.33684905916E+02 -0.73721723723E+02  0.45483530712E+02  0.19550528638E+03  0.17200000000E+03 0. -1.
</event>
<event>
 4    1  0.5801298E+000  0.1928732E+03  0.7818608E-02  0.1155895E+00
         21   -1    0    0  503  502  0.00000000000E+00  0.00000000000E+00  0.66073527694E+02  0.66073527694E+02  0.00000000000E+00 0. -1.
         21   -1    0    0  501  503 -0.00000000000E+00 -0.00000000000E+00 -0.57514795376E+03  0.57514795376E+03  0.00000000000E+00 0. -1.
          6    1    1    2  501    0  0.55862156033E+01  0.87091103205E+02 -0.30111281931E+03  0.35758774589E+03  0.17200000000E+03 0. -1.
         -6    1    1    2    0  502 -0.55862156033E+01 -0.87091103205E+02 -0.20796160676E+03  0.28363373556E+03  0.17200000000E+03 0. -1.
</event>
<event>
 4    1  0.5801298E+000  0.1975900E+03  0.7818608E-02  0.1151788E+00
         21   -1    0    0  503  502  0.00000000000E+00  0.00000000000E+00  0.41232983136E+03  0.41232983136E+03  0.00000000000E+00 0. -1.
         21   -1    0    0  501  503 -0.00000000000E+00 -0.00000000000E+00 -0.95441354757E+02  0.95441354757E+02  0.00000000000E+00 0.  1.
          6    1    1    2  501    0 -0.51065000476E+02  0.82765843533E+02  0.18103211554E+03  0.26798217476E+03  0.17200000000E+03 0.  1.
         -6    1    1    2    0  502  0.51065000476E+02 -0.82765843533E+02  0.13585636107E+03  0.23978901137E+03  0.17200000000E+03 0. -1.
</event>
<event>
 4    1  0.5801298E+000  0.2263447E+03  0.7818608E-02  0.1129239E+00
         21   -1    0    0  501  502  0.00000000000E+00  0.00000000000E+00  0.19819981479E+03  0.19819981479E+03  0.00000000000E+00 0.  1.
         21   -1    0    0  502  503 -0.00000000000E+00 -0.00000000000E+00 -0.26618319134E+03  0.26618319134E+03  0.00000000000E+00 0.  1.
          6    1    1    2  501    0 -0.13880072411E+02  0.14647618712E+03 -0.73475100704E+02  0.23797167947E+03  0.17200000000E+03 0.  1.
         -6    1    1    2    0  503  0.13880072411E+02 -0.14647618712E+03  0.54917241540E+01  0.22641132666E+03  0.17200000000E+03 0.  1.
</event>
<event>
 4    1  0.5801298E+000  0.1730353E+03  0.7818608E-02  0.1174719E+00
         21   -1    0    0  501  502  0.00000000000E+00  0.00000000000E+00  0.27953018423E+03  0.27953018423E+03  0.00000000000E+00 0.  1.
         21   -1    0    0  502  503 -0.00000000000E+00 -0.00000000000E+00 -0.14863061847E+03  0.14863061847E+03  0.00000000000E+00 0.  1.
          6    1    1    2  501    0 -0.36686821752E+01  0.18541106079E+02  0.17859613870E+03  0.24867209856E+03  0.17200000000E+03 0.  1.
         -6    1    1    2    0  503  0.36686821752E+01 -0.18541106079E+02 -0.47696572933E+02  0.17948870414E+03  0.17200000000E+03 0.  1.
</event>
<event>
 4    1  0.5801298E+000  0.2720798E+03  0.7818608E-02  0.1100095E+00
         21   -1    0    0  503  502  0.00000000000E+00  0.00000000000E+00  0.21106595560E+03  0.21106595560E+03  0.00000000000E+00 0. -1.
         21   -1    0    0  501  503 -0.00000000000E+00 -0.00000000000E+00 -0.12843611649E+04  0.12843611649E+04  0.00000000000E+00 0.  1.
          6    1    1    2  501    0 -0.21275300786E+02 -0.20973981878E+03 -0.11741459321E+04  0.12052576902E+04  0.17200000000E+03 0.  1.
         -6    1    1    2    0  502  0.21275300786E+02  0.20973981878E+03  0.10085072276E+03  0.29016943031E+03  0.17200000000E+03 0. -1.
</event>
<event>
 4    1  0.5801298E+000  0.1817876E+03  0.7818608E-02  0.1166084E+00
         21   -1    0    0  503  502  0.00000000000E+00  0.00000000000E+00  0.22909731991E+03  0.22909731991E+03  0.00000000000E+00 0.  1.
         21   -1    0    0  501  503 -0.00000000000E+00 -0.00000000000E+00 -0.38374407183E+03  0.38374407183E+03  0.00000000000E+00 0.  1.
          6    1    1    2  501    0 -0.58647162953E+02 -0.48193465969E+01 -0.31939668383E+03  0.36750640466E+03  0.17200000000E+03 0.  1.
         -6    1    1    2    0  502  0.58647162953E+02  0.48193465969E+01  0.16474993190E+03  0.24533498708E+03  0.17200000000E+03 0.  1.
</event>
<event>
 4    1  0.5801298E+000  0.2090322E+03  0.7818608E-02  0.1142335E+00
         21   -1    0    0  503  502  0.00000000000E+00  0.00000000000E+00  0.34214326137E+02  0.34214326137E+02  0.00000000000E+00 0.  1.
         21   -1    0    0  501  503 -0.00000000000E+00 -0.00000000000E+00 -0.12935901602E+04  0.12935901602E+04  0.00000000000E+00 0.  1.
          6    1    1    2  501    0 -0.89508781957E+01  0.11844982349E+03 -0.55468757381E+03  0.59276705664E+03  0.17200000000E+03 0.  1.
         -6    1    1    2    0  502  0.89508781957E+01 -0.11844982349E+03 -0.70468826024E+03  0.73503742968E+03  0.17200000000E+03 0.  1.
</event>
<event>
 4    1  0.5801298E+000  0.2043600E+03  0.7818608E-02  0.1146112E+00
         21   -1    0    0  503  502  0.00000000000E+00  0.00000000000E+00  0.42519466383E+03  0.42519466383E+03  0.00000000000E+00 0.  1.
         21   -1    0    0  501  503 -0.00000000000E+00 -0.00000000000E+00 -0.27751286376E+03  0.27751286376E+03  0.00000000000E+00 0.  1.
          6    1    1    2  501    0 -0.74135245964E+02 -0.81749354402E+02 -0.20857132580E+03  0.29200169449E+03  0.17200000000E+03 0.  1.
         -6    1    1    2    0  502  0.74135245964E+02  0.81749354402E+02  0.35625312588E+03  0.41070583310E+03  0.17200000000E+03 0.  1.
</event>
<event>
 4    1  0.5801298E+000  0.2235752E+03  0.7818608E-02  0.1131245E+00
         21   -1    0    0  501  502  0.00000000000E+00  0.00000000000E+00  0.56914629059E+02  0.56914629059E+02  0.00000000000E+00 0. -1.
         21   -1    0    0  502  503 -0.00000000000E+00 -0.00000000000E+00 -0.11344184678E+04  0.11344184678E+04  0.00000000000E+00 0. -1.
          6    1    1    2  501    0 -0.33830368957E+02  0.13877101965E+03 -0.25569731981E+03  0.33965719353E+03  0.17200000000E+03 0. -1.
         -6    1    1    2    0  503  0.33830368957E+02 -0.13877101965E+03 -0.82180651892E+03  0.85167590332E+03  0.17200000000E+03 0. -1.
</event>
<event>
 4    1  0.5801298E+000  0.1780474E+03  0.7818608E-02  0.1169706E+00
         21   -1    0    0  503  502  0.00000000000E+00  0.00000000000E+00  0.57219506985E+02  0.57219506985E+02  0.00000000000E+00 0. -1.
         21   -1    0    0  501  503 -0.00000000000E+00 -0.00000000000E+00 -0.56865119554E+03  0.56865119554E+03  0.00000000000E+00 0. -1.
          6    1    1    2  501    0  0.45344062208E+02 -0.77974502015E+01 -0.30590814109E+03  0.35395010241E+03  0.17200000000E+03 0. -1.
         -6    1    1    2    0  502 -0.45344062208E+02  0.77974502015E+01 -0.20552354746E+03  0.27192060012E+03  0.17200000000E+03 0. -1.
</event>
<event>
 4    1  0.5801298E+000  0.3359325E+03  0.7818608E-02  0.1068542E+00
         21   -1    0    0  501  502  0.00000000000E+00  0.00000000000E+00  0.25876644212E+04  0.25876644212E+04  0.00000000000E+00 0. -1.
         21   -1    0    0  502  503 -0.00000000000E+00 -0.00000000000E+00 -0.59845675225E+02  0.59845675225E+02  0.00000000000E+00 0.  1.
          6    1    1    2  501    0 -0.30056342860E+02  0.28698994286E+03  0.19533758580E+04  0.19820514256E+04  0.17200000000E+03 0. -1.
         -6    1    1    2    0  503  0.30056342860E+02 -0.28698994286E+03  0.57444288798E+03  0.66545867084E+03  0.17200000000E+03 0.  1.
</event>
<event>
 4    1  0.5801298E+000  0.2224250E+03  0.7818608E-02  0.1132088E+00
         21   -1    0    0  501  502  0.00000000000E+00  0.00000000000E+00  0.24558052737E+03  0.24558052737E+03  0.00000000000E+00 0. -1.
         21   -1    0    0  502  503 -0.00000000000E+00 -0.00000000000E+00 -0.29645722856E+03  0.29645722856E+03  0.00000000000E+00 0. -1.
          6    1    1    2  501    0 -0.40335340584E+02  0.13513675869E+03  0.12798464597E+03  0.25661830187E+03  0.17200000000E+03 0. -1.
         -6    1    1    2    0  503  0.40335340584E+02 -0.13513675869E+03 -0.17886134716E+03  0.28541945406E+03  0.17200000000E+03 0. -1.
</event>
<event>
 4    1  0.5801298E+000  0.1797471E+03  0.7818608E-02  0.1168048E+00
         21   -1    0    0  503  502  0.00000000000E+00  0.00000000000E+00  0.12336165575E+04  0.12336165575E+04  0.00000000000E+00 0.  1.
         21   -1    0    0  501  503 -0.00000000000E+00 -0.00000000000E+00 -0.28036597455E+02  0.28036597455E+02  0.00000000000E+00 0.  1.
          6    1    1    2  501    0 -0.41957359151E+02 -0.31057829922E+02  0.76466397611E+03  0.78550620949E+03  0.17200000000E+03 0.  1.
         -6    1    1    2    0  502  0.41957359151E+02  0.31057829922E+02  0.44091598392E+03  0.47614694545E+03  0.17200000000E+03 0.  1.
</event>
<event>
 4    1  0.5801298E+000  0.1882552E+03  0.7818608E-02  0.1160045E+00
         21   -1    0    0  501  502  0.00000000000E+00  0.00000000000E+00  0.81679655566E+02  0.81679655566E+02  0.00000000000E+00 0.  1.
         21   -1    0    0  502  503 -0.00000000000E+00 -0.00000000000E+00 -0.66753880288E+03  0.66753880288E+03  0.00000000000E+00 0.  1.
          6    1    1    2  501    0 -0.39330277434E+01 -0.76423398766E+02 -0.71303026242E+02  0.20130605092E+03  0.17200000000E+03 0.  1.
         -6    1    1    2    0  503  0.39330277434E+01  0.76423398766E+02 -0.51455612107E+03  0.54791240752E+03  0.17200000000E+03 0.  1.
</event>
<event>
 4    1  0.5801298E+000  0.3109513E+03  0.7818608E-02  0.1079891E+00
         21   -1    0    0  503  502  0.00000000000E+00  0.00000000000E+00  0.12550198539E+04  0.12550198539E+04  0.00000000000E+00 0. -1.
         21   -1    0    0  501  503 -0.00000000000E+00 -0.00000000000E+00 -0.77064530195E+02  0.77064530195E+02  0.00000000000E+00 0. -1.
          6    1    1    2  501    0 -0.14271674544E+03  0.21619118964E+03  0.60006793559E+03  0.67584926369E+03  0.17200000000E+03 0. -1.
         -6    1    1    2    0  502  0.14271674544E+03 -0.21619118964E+03  0.57788738809E+03  0.65623512038E+03  0.17200000000E+03 0. -1.
</event>
<event>
 4    1  0.5801298E+000  0.1795451E+03  0.7818608E-02  0.1168244E+00
         21   -1    0    0  501  502  0.00000000000E+00  0.00000000000E+00  0.64023213723E+03  0.64023213723E+03  0.00000000000E+00 0.  1.
         21   -1    0    0  502  503 -0.00000000000E+00 -0.00000000000E+00 -0.22259835595E+03  0.22259835595E+03  0.00000000000E+00 0.  1.
          6    1    1    2  501    0  0.42769679553E+02  0.28691689920E+02  0.58831580583E+03  0.61510319943E+03  0.17200000000E+03 0.  1.
         -6    1    1    2    0  503 -0.42769679553E+02 -0.28691689920E+02 -0.17068202455E+03  0.24772729374E+03  0.17200000000E+03 0.  1.
</event>
<event>
 4    1  0.5801298E+000  0.2189396E+03  0.7818608E-02  0.1134676E+00
         21   -1    0    0  501  502  0.00000000000E+00  0.00000000000E+00  0.32077794806E+03  0.32077794806E+03  0.00000000000E+00 0.  1.
         21   -1    0    0  502  503 -0.00000000000E+00 -0.00000000000E+00 -0.18245170778E+03  0.18245170778E+03  0.00000000000E+00 0.  1.
          6    1    1    2  501    0  0.75555408108E+02 -0.11243629863E+03  0.17620354883E+03  0.28103777605E+03  0.17200000000E+03 0.  1.
         -6    1    1    2    0  503 -0.75555408108E+02  0.11243629863E+03 -0.37877308557E+02  0.22219187980E+03  0.17200000000E+03 0.  1.
</event>
<event>
 4    1  0.5801298E+000  0.1774379E+03  0.7818608E-02  0.1170306E+00
         21   -1    0    0  501  502  0.00000000000E+00  0.00000000000E+00  0.68725173586E+02  0.68725173586E+02  0.00000000000E+00 0.  1.
         21   -1    0    0  502  503 -0.00000000000E+00 -0.00000000000E+00 -0.47822644917E+03  0.47822644917E+03  0.00000000000E+00 0.  1.
          6    1    1    2  501    0 -0.54110253219E+00 -0.43587824487E+02 -0.14867180975E+03  0.23148973682E+03  0.17200000000E+03 0.  1.
         -6    1    1    2    0  503  0.54110253219E+00  0.43587824487E+02 -0.26082946583E+03  0.31546188594E+03  0.17200000000E+03 0.  1.
</event>
<event>
 4    1  0.5801298E+000  0.2836792E+03  0.7818608E-02  0.1093696E+00
         21   -1    0    0  501  502  0.00000000000E+00  0.00000000000E+00  0.37982621348E+03  0.37982621348E+03  0.00000000000E+00 0. -1.
         21   -1    0    0  502  503 -0.00000000000E+00 -0.00000000000E+00 -0.22118331041E+03  0.22118331041E+03  0.00000000000E+00 0. -1.
          6    1    1    2  501    0  0.22234978073E+03 -0.38085205973E+02  0.17659202652E+02  0.28422835070E+03  0.17200000000E+03 0. -1.
         -6    1    1    2    0  503 -0.22234978073E+03  0.38085205973E+02  0.14098370042E+03  0.31678117319E+03  0.17200000000E+03 0. -1.
</event>
<event>
 4    1  0.5801298E+000  0.2538165E+03  0.7818608E-02  0.1110916E+00
         21   -1    0    0  501  502  0.00000000000E+00  0.00000000000E+00  0.27887823821E+03  0.27887823821E+03  0.00000000000E+00 0.  1.
         21   -1    0    0  502  503 -0.00000000000E+00 -0.00000000000E+00 -0.27842056124E+03  0.27842056124E+03  0.00000000000E+00 0. -1.
          6    1    1    2  501    0  0.57281147256E+02 -0.17764476536E+03 -0.11476095249E+03  0.27855496532E+03  0.17200000000E+03 0.  1.
         -6    1    1    2    0  503 -0.57281147256E+02  0.17764476536E+03  0.11521862946E+03  0.27874383413E+03  0.17200000000E+03 0. -1.
</event>
<event>
 4    1  0.5801298E+000  0.2171536E+03  0.7818608E-02  0.1136023E+00
         21   -1    0    0  503  502  0.00000000000E+00  0.00000000000E+00  0.10682033284E+04  0.10682033284E+04  0.00000000000E+00 0.  1.
         21   -1    0    0  501  503 -0.00000000000E+00 -0.00000000000E+00 -0.49485149451E+02  0.49485149451E+02  0.00000000000E+00 0. -1.
          6    1    1    2  501    0 -0.13254548437E+03  0.18425342325E+01  0.69294324730E+03  0.72617218643E+03  0.17200000000E+03 0.  1.
         -6    1    1    2    0  502  0.13254548437E+03 -0.18425342325E+01  0.32577493165E+03  0.39151629142E+03  0.17200000000E+03 0. -1.
</event>
<event>
 4    1  0.5801298E+000  0.1746770E+03  0.7818608E-02  0.1173056E+00
         21   -1    0    0  503  502  0.00000000000E+00  0.00000000000E+00  0.30840095529E+03  0.30840095529E+03  0.00000000000E+00 0.  1.
         21   -1    0    0  501  503 -0.00000000000E+00 -0.00000000000E+00 -0.10189125192E+03  0.10189125192E+03  0.00000000000E+00 0.  1.
          6    1    1    2  501    0  0.25172600756E+02  0.17158361068E+02  0.68319483318E+02  0.18756231227E+03  0.17200000000E+03 0.  1.
         -6    1    1    2    0  502 -0.25172600756E+02 -0.17158361068E+02  0.13819022005E+03  0.22272989494E+03  0.17200000000E+03 0.  1.
</event>
<event>
 4    1  0.5801298E+000  0.1948961E+03  0.7818608E-02  0.1154118E+00
         21   -1    0    0  501  502  0.00000000000E+00  0.00000000000E+00  0.61281430884E+03  0.61281430884E+03  0.00000000000E+00 0. -1.
         21   -1    0    0  502  503 -0.00000000000E+00 -0.00000000000E+00 -0.62276503323E+02  0.62276503323E+02  0.00000000000E+00 0. -1.
          6    1    1    2  501    0 -0.72117841985E+02  0.56564305440E+02  0.25212420965E+03  0.31867086606E+03  0.17200000000E+03 0. -1.
         -6    1    1    2    0  503  0.72117841985E+02 -0.56564305440E+02  0.29841359587E+03  0.35641994610E+03  0.17200000000E+03 0. -1.
</event>
<event>
 4    1  0.5801298E+000  0.2215408E+03  0.7818608E-02  0.1132740E+00
         21   -1    0    0  503  502  0.00000000000E+00  0.00000000000E+00  0.57415340524E+02  0.57415340524E+02  0.00000000000E+00 0.  1.
         21   -1    0    0  501  503 -0.00000000000E+00 -0.00000000000E+00 -0.10510566224E+04  0.10510566224E+04  0.00000000000E+00 0. -1.
          6    1    1    2  501    0 -0.10043450955E+03  0.97001112465E+02 -0.73629640611E+03  0.76890357274E+03  0.17200000000E+03 0.  1.
         -6    1    1    2    0  502  0.10043450955E+03 -0.97001112465E+02 -0.25734487577E+03  0.33956839018E+03  0.17200000000E+03 0. -1.
</event>
<event>
 4    1  0.5801298E+000  0.1970237E+03  0.7818608E-02  0.1152275E+00
         21   -1    0    0  501  502  0.00000000000E+00  0.00000000000E+00  0.73853269899E+03  0.73853269899E+03  0.00000000000E+00 0. -1.
         21   -1    0    0  502  503 -0.00000000000E+00 -0.00000000000E+00 -0.69032169151E+02  0.69032169151E+02  0.00000000000E+00 0. -1.
          6    1    1    2  501    0 -0.56274001186E+02 -0.77894546902E+02  0.53198273089E+03  0.56729529314E+03  0.17200000000E+03 0. -1.
         -6    1    1    2    0  503  0.56274001186E+02  0.77894546902E+02  0.13751779895E+03  0.24026957501E+03  0.17200000000E+03 0. -1.
</event>
<event>
 4    1  0.5801298E+000  0.2141016E+03  0.7818608E-02  0.1138358E+00
         21   -1    0    0  501  502  0.00000000000E+00  0.00000000000E+00  0.82208947561E+02  0.82208947561E+02  0.00000000000E+00 0.  1.
         21   -1    0    0  502  503 -0.00000000000E+00 -0.00000000000E+00 -0.85147282186E+03  0.85147282186E+03  0.00000000000E+00 0. -1.
          6    1    1    2  501    0 -0.12734252577E+03  0.62766173975E+01 -0.11037037403E+03  0.24087576520E+03  0.17200000000E+03 0.  1.
         -6    1    1    2    0  503  0.12734252577E+03 -0.62766173975E+01 -0.65889350026E+03  0.69280600422E+03  0.17200000000E+03 0.  1.
</event>
<event>
 4    1  0.5801298E+000  0.2330514E+03  0.7818608E-02  0.1124510E+00
         21   -1    0    0  503  502  0.00000000000E+00  0.00000000000E+00  0.17639373966E+04  0.17639373966E+04  0.00000000000E+00 0. -1.
         21   -1    0    0  501  503 -0.00000000000E+00 -0.00000000000E+00 -0.37371260523E+02  0.37371260523E+02  0.00000000000E+00 0.  1.
          6    1    1    2  501    0  0.10031547098E+03 -0.12110233090E+03  0.48534658238E+03  0.53839973374E+03  0.17200000000E+03 0.  1.
         -6    1    1    2    0  502 -0.10031547098E+03  0.12110233090E+03  0.12412195537E+04  0.12629089234E+04  0.17200000000E+03 0. -1.
</event>
<event>
 4    1  0.5801298E+000  0.1776779E+03  0.7818608E-02  0.1170069E+00
         21   -1    0    0  503  502  0.00000000000E+00  0.00000000000E+00  0.31556366396E+03  0.31556366396E+03  0.00000000000E+00 0. -1.
         21   -1    0    0  501  503 -0.00000000000E+00 -0.00000000000E+00 -0.11509534579E+03  0.11509534579E+03  0.00000000000E+00 0. -1.
          6    1    1    2  501    0  0.42695236296E+02  0.12749717995E+02  0.17810941359E+03  0.25157981183E+03  0.17200000000E+03 0. -1.
         -6    1    1    2    0  502 -0.42695236296E+02 -0.12749717995E+02  0.22358904579E+02  0.17907919791E+03  0.17200000000E+03 0. -1.
</event>
<event>
 4    1  0.5801298E+000  0.2095521E+03  0.7818608E-02  0.1141921E+00
         21   -1    0    0  501  502  0.00000000000E+00  0.00000000000E+00  0.26815016714E+03  0.26815016714E+03  0.00000000000E+00 0.  1.
         21   -1    0    0  502  503 -0.00000000000E+00 -0.00000000000E+00 -0.20737599759E+03  0.20737599759E+03  0.00000000000E+00 0.  1.
          6    1    1    2  501    0 -0.22534921122E+02 -0.11755952249E+03  0.13942861398E+03  0.25169903138E+03  0.17200000000E+03 0.  1.
         -6    1    1    2    0  503  0.22534921122E+02  0.11755952249E+03 -0.78654444431E+02  0.22382713336E+03  0.17200000000E+03 0.  1.
</event>
<event>
 4    1  0.5801298E+000  0.2432879E+03  0.7818608E-02  0.1117622E+00
         21   -1    0    0  501  502  0.00000000000E+00  0.00000000000E+00  0.14986214828E+03  0.14986214828E+03  0.00000000000E+00 0.  1.
         21   -1    0    0  502  503 -0.00000000000E+00 -0.00000000000E+00 -0.42481686789E+03  0.42481686789E+03  0.00000000000E+00 0.  1.
          6    1    1    2  501    0  0.24729503663E+02 -0.17027462593E+03 -0.61296890291E+02  0.25089102285E+03  0.17200000000E+03 0.  1.
         -6    1    1    2    0  503 -0.24729503663E+02  0.17027462593E+03 -0.21365782932E+03  0.32378799332E+03  0.17200000000E+03 0.  1.
</event>
<event>
 4    1  0.5801298E+000  0.2218020E+03  0.7818608E-02  0.1132547E+00
         21   -1    0    0  503  502  0.00000000000E+00  0.00000000000E+00  0.87982462959E+03  0.87982462959E+03  0.00000000000E+00 0.  1.
         21   -1    0    0  501  503 -0.00000000000E+00 -0.00000000000E+00 -0.57052233777E+02  0.57052233777E+02  0.00000000000E+00 0. -1.
          6    1    1    2  501    0  0.86631487792E+02  0.11003241680E+03  0.34527461899E+03  0.41037873963E+03  0.17200000000E+03 0. -1.
         -6    1    1    2    0  502 -0.86631487792E+02 -0.11003241680E+03  0.47749777683E+03  0.52649812374E+03  0.17200000000E+03 0.  1.
</event>
<event>
 4    1  0.5801298E+000  0.1831259E+03  0.7818608E-02  0.1164812E+00
         21   -1    0    0  501  502  0.00000000000E+00  0.00000000000E+00  0.13633947847E+03  0.13633947847E+03  0.00000000000E+00 0. -1.
         21   -1    0    0  502  503 -0.00000000000E+00 -0.00000000000E+00 -0.24728843888E+03  0.24728843888E+03  0.00000000000E+00 0. -1.
          6    1    1    2  501    0  0.39789767517E+01  0.62731579713E+02 -0.69493460790E+02  0.19586838551E+03  0.17200000000E+03 0. -1.
         -6    1    1    2    0  503 -0.39789767517E+01 -0.62731579713E+02 -0.41455499621E+02  0.18775953184E+03  0.17200000000E+03 0. -1.
</event>
<event>
 4    1  0.5801298E+000  0.2314894E+03  0.7818608E-02  0.1125596E+00
         21   -1    0    0  503  502  0.00000000000E+00  0.00000000000E+00  0.28462344559E+03  0.28462344559E+03  0.00000000000E+00 0. -1.
         21   -1    0    0  501  503 -0.00000000000E+00 -0.00000000000E+00 -0.23408410668E+03  0.23408410668E+03  0.00000000000E+00 0. -1.
          6    1    1    2  501    0  0.14658157247E+03  0.50171486177E+02  0.14000176291E+03  0.27053249164E+03  0.17200000000E+03 0. -1.
         -6    1    1    2    0  502 -0.14658157247E+03 -0.50171486177E+02 -0.89462423995E+02  0.24817506063E+03  0.17200000000E+03 0. -1.
</event>
<event>
 4    1  0.5801298E+000  0.1976715E+03  0.7818608E-02  0.1151719E+00
         21   -1    0    0  503  502  0.00000000000E+00  0.00000000000E+00  0.29637125478E+03  0.29637125478E+03  0.00000000000E+00 0. -1.
         21   -1    0    0  501  503 -0.00000000000E+00 -0.00000000000E+00 -0.33399108181E+03  0.33399108181E+03  0.00000000000E+00 0. -1.
          6    1    1    2  501    0 -0.47312308306E+02 -0.85156062191E+02 -0.26401491637E+03  0.32981492615E+03  0.17200000000E+03 0. -1.
         -6    1    1    2    0  502  0.47312308306E+02  0.85156062191E+02  0.22639508934E+03  0.30054741044E+03  0.17200000000E+03 0. -1.
</event>
<event>
 4    1  0.5801298E+000  0.1949191E+03  0.7818608E-02  0.1154098E+00
         21   -1    0    0  501  502  0.00000000000E+00  0.00000000000E+00  0.11242045875E+04  0.11242045875E+04  0.00000000000E+00 0.  1.
         21   -1    0    0  502  503 -0.00000000000E+00 -0.00000000000E+00 -0.35714135945E+02  0.35714135945E+02  0.00000000000E+00 0.  1.
          6    1    1    2  501    0  0.11476351257E+01 -0.91695971767E+02  0.67865544189E+03  0.70609254146E+03  0.17200000000E+03 0.  1.
         -6    1    1    2    0  503 -0.11476351257E+01  0.91695971767E+02  0.40983500968E+03  0.45382618199E+03  0.17200000000E+03 0.  1.
</event>
<event>
 4    1  0.5801298E+000  0.2119940E+03  0.7818608E-02  0.1139997E+00
         21   -1    0    0  501  502  0.00000000000E+00  0.00000000000E+00  0.72032857435E+02  0.72032857435E+02  0.00000000000E+00 0.  1.
         21   -1    0    0  502  503 -0.00000000000E+00 -0.00000000000E+00 -0.66374898361E+03  0.66374898361E+03  0.00000000000E+00 0.  1.
          6    1    1    2  501    0  0.12180826472E+03 -0.22807897897E+02 -0.20571877501E+03  0.29540085977E+03  0.17200000000E+03 0. -1.
         -6    1    1    2    0  503 -0.12180826472E+03  0.22807897897E+02 -0.38599735117E+03  0.44038098128E+03  0.17200000000E+03 0. -1.
</event>
<event>
 4    1  0.5801298E+000  0.2375022E+03  0.7818608E-02  0.1121468E+00
         21   -1    0    0  503  502  0.00000000000E+00  0.00000000000E+00  0.50553899752E+03  0.50553899752E+03  0.00000000000E+00 0.  1.
         21   -1    0    0  501  503 -0.00000000000E+00 -0.00000000000E+00 -0.11278361017E+03  0.11278361017E+03  0.00000000000E+00 0. -1.
          6    1    1    2  501    0  0.68152608977E+02  0.14892454022E+03  0.22833503254E+03  0.32946044357E+03  0.17200000000E+03 0. -1.
         -6    1    1    2    0  502 -0.68152608977E+02 -0.14892454022E+03  0.16442035481E+03  0.28886216413E+03  0.17200000000E+03 0. -1.
</event>
<event>
 4    1  0.5801298E+000  0.2329805E+03  0.7818608E-02  0.1124559E+00
         21   -1    0    0  501  502  0.00000000000E+00  0.00000000000E+00  0.23756112332E+02  0.23756112332E+02  0.00000000000E+00 0.  1.
         21   -1    0    0  502  503 -0.00000000000E+00 -0.00000000000E+00 -0.24826600799E+04  0.24826600799E+04  0.00000000000E+00 0. -1.
          6    1    1    2  501    0 -0.10923838413E+03 -0.11297301803E+03 -0.87573737539E+03  0.90619858642E+03  0.17200000000E+03 0. -1.
         -6    1    1    2    0  503  0.10923838413E+03  0.11297301803E+03 -0.15831665922E+04  0.16002176058E+04  0.17200000000E+03 0.  1.
</event>
<event>
 4    1  0.5801298E+000  0.1837575E+03  0.7818608E-02  0.1164215E+00
         21   -1    0    0  501  502  0.00000000000E+00  0.00000000000E+00  0.40396772954E+03  0.40396772954E+03  0.00000000000E+00 0.  1.
         21   -1    0    0  502  503 -0.00000000000E+00 -0.00000000000E+00 -0.12715852929E+04  0.12715852929E+04  0.00000000000E+00 0.  1.
          6    1    1    2  501    0 -0.30280918842E+02 -0.57147886117E+02  0.37596400027E+03  0.41846833145E+03  0.17200000000E+03 0.  1.
         -6    1    1    2    0  503  0.30280918842E+02  0.57147886117E+02 -0.12435815636E+04  0.12570846910E+04  0.17200000000E+03 0.  1.
</event>
<event>
 4    1  0.5801298E+000  0.1904025E+03  0.7818608E-02  0.1158099E+00
         21   -1    0    0  503  502  0.00000000000E+00  0.00000000000E+00  0.27287902813E+03  0.27287902813E+03  0.00000000000E+00 0. -1.
         21   -1    0    0  501  503 -0.00000000000E+00 -0.00000000000E+00 -0.14874467294E+03  0.14874467294E+03  0.00000000000E+00 0. -1.
          6    1    1    2  501    0  0.45560896133E+02  0.67774014537E+02 -0.68366514015E+01  0.19052520071E+03  0.17200000000E+03 0. -1.
         -6    1    1    2    0  502 -0.45560896133E+02 -0.67774014537E+02  0.13097100659E+03  0.23109850036E+03  0.17200000000E+03 0. -1.
</event>
<event>
 4    1  0.5801298E+000  0.2134080E+03  0.7818608E-02  0.1138895E+00
         21   -1    0    0  501  502  0.00000000000E+00  0.00000000000E+00  0.20528780539E+03  0.20528780539E+03  0.00000000000E+00 0.  1.
         21   -1    0    0  502  503 -0.00000000000E+00 -0.00000000000E+00 -0.24217313004E+03  0.24217313004E+03  0.00000000000E+00 0.  1.
          6    1    1    2  501    0  0.13343063257E+02  0.12562223051E+03  0.46370552875E+02  0.21838775219E+03  0.17200000000E+03 0. -1.
         -6    1    1    2    0  503 -0.13343063257E+02 -0.12562223051E+03 -0.83255877534E+02  0.22907318324E+03  0.17200000000E+03 0. -1.
</event>
<event>
 4    1  0.5801298E+000  0.2179125E+03  0.7818608E-02  0.1135449E+00
         21   -1    0    0  501  502  0.00000000000E+00  0.00000000000E+00  0.64098048474E+03  0.64098048474E+03  0.00000000000E+00 0.  1.
         21   -1    0    0  502  503 -0.00000000000E+00 -0.00000000000E+00 -0.78176394351E+02  0.78176394351E+02  0.00000000000E+00 0. -1.
          6    1    1    2  501    0 -0.30526561648E+02  0.13026883781E+03  0.36368136281E+03  0.42396930870E+03  0.17200000000E+03 0.  1.
         -6    1    1    2    0  503  0.30526561648E+02 -0.13026883781E+03  0.19912272758E+03  0.29518757038E+03  0.17200000000E+03 0. -1.
</event>
<event>
 4    1  0.5801298E+000  0.1954911E+03  0.7818608E-02  0.1153600E+00
         21   -1    0    0  501  502  0.00000000000E+00  0.00000000000E+00  0.21566498308E+03  0.21566498308E+03  0.00000000000E+00 0.  1.
         21   -1    0    0  502  503 -0.00000000000E+00 -0.00000000000E+00 -0.17736409589E+03  0.17736409589E+03  0.00000000000E+00 0.  1.
          6    1    1    2  501    0 -0.74893534359E+02  0.54988472784E+02  0.25048020812E+02  0.19708926144E+03  0.17200000000E+03 0.  1.
         -6    1    1    2    0  503  0.74893534359E+02 -0.54988472784E+02  0.13252866374E+02  0.19593981753E+03  0.17200000000E+03 0.  1.
</event>
<event>
 4    1  0.5801298E+000  0.1982028E+03  0.7818608E-02  0.1151264E+00
         21   -1    0    0  501  502  0.00000000000E+00  0.00000000000E+00  0.77115253600E+02  0.77115253600E+02  0.00000000000E+00 0.  1.
         21   -1    0    0  502  503 -0.00000000000E+00 -0.00000000000E+00 -0.58291833310E+03  0.58291833310E+03  0.00000000000E+00 0.  1.
          6    1    1    2  501    0  0.95764602442E+02  0.23010858189E+02 -0.13572000094E+03  0.24021714621E+03  0.17200000000E+03 0.  1.
         -6    1    1    2    0  503 -0.95764602442E+02 -0.23010858189E+02 -0.37008307855E+03  0.41981644049E+03  0.17200000000E+03 0.  1.
</event>
<event>
 4    1  0.5801298E+000  0.2382092E+03  0.7818608E-02  0.1120992E+00
         21   -1    0    0  501  502  0.00000000000E+00  0.00000000000E+00  0.67439473858E+02  0.67439473858E+02  0.00000000000E+00 0.  1.
         21   -1    0    0  502  503 -0.00000000000E+00 -0.00000000000E+00 -0.88837221634E+03  0.88837221634E+03  0.00000000000E+00 0.  1.
          6    1    1    2  501    0  0.11811988507E+03  0.11492307009E+03 -0.30057534417E+03  0.38352204214E+03  0.17200000000E+03 0.  1.
         -6    1    1    2    0  503 -0.11811988507E+03 -0.11492307009E+03 -0.52035739832E+03  0.57228964806E+03  0.17200000000E+03 0.  1.
</event>
<event>
 4    1  0.5801298E+000  0.3201205E+03  0.7818608E-02  0.1075594E+00
         21   -1    0    0  503  502  0.00000000000E+00  0.00000000000E+00  0.70146063737E+03  0.70146063737E+03  0.00000000000E+00 0. -1.
         21   -1    0    0  501  503 -0.00000000000E+00 -0.00000000000E+00 -0.16148007230E+03  0.16148007230E+03  0.00000000000E+00 0.  1.
          6    1    1    2  501    0  0.20673307766E+03  0.17365074035E+03  0.13679264367E+03  0.34812263986E+03  0.17200000000E+03 0.  1.
         -6    1    1    2    0  502 -0.20673307766E+03 -0.17365074035E+03  0.40318792140E+03  0.51481806980E+03  0.17200000000E+03 0. -1.
</event>
<event>
 4    1  0.5801298E+000  0.3448247E+03  0.7818608E-02  0.1064759E+00
         21   -1    0    0  503  502  0.00000000000E+00  0.00000000000E+00  0.10138081339E+04  0.10138081339E+04  0.00000000000E+00 0. -1.
         21   -1    0    0  501  503 -0.00000000000E+00 -0.00000000000E+00 -0.11731011659E+03  0.11731011659E+03  0.00000000000E+00 0.  1.
          6    1    1    2  501    0  0.20890733000E+03 -0.21372363501E+03  0.43990523737E+03  0.55894604619E+03  0.17200000000E+03 0.  1.
         -6    1    1    2    0  502 -0.20890733000E+03  0.21372363501E+03  0.45659277996E+03  0.57217220432E+03  0.17200000000E+03 0.  1.
</event>
<event>
 4    1  0.5801298E+000  0.1754690E+03  0.7818608E-02  0.1172262E+00
         21   -1    0    0  501  502  0.00000000000E+00  0.00000000000E+00  0.20942626720E+02  0.20942626720E+02  0.00000000000E+00 0.  1.
         21   -1    0    0  502  503 -0.00000000000E+00 -0.00000000000E+00 -0.19820775185E+04  0.19820775185E+04  0.00000000000E+00 0.  1.
          6    1    1    2  501    0 -0.28618835537E+02 -0.19655598551E+02 -0.47160288708E+03  0.50318849689E+03  0.17200000000E+03 0.  1.
         -6    1    1    2    0  503  0.28618835537E+02  0.19655598551E+02 -0.14895320047E+04  0.14998316484E+04  0.17200000000E+03 0.  1.
</event>
<event>
 4    1  0.5801298E+000  0.2095676E+03  0.7818608E-02  0.1141909E+00
         21   -1    0    0  501  502  0.00000000000E+00  0.00000000000E+00  0.44887830702E+03  0.44887830702E+03  0.00000000000E+00 0.  1.
         21   -1    0    0  502  503 -0.00000000000E+00 -0.00000000000E+00 -0.11015082626E+03  0.11015082626E+03  0.00000000000E+00 0.  1.
          6    1    1    2  501    0  0.49492165989E+02 -0.10901885160E+03  0.26280553321E+03  0.33613290940E+03  0.17200000000E+03 0.  1.
         -6    1    1    2    0  503 -0.49492165989E+02  0.10901885160E+03  0.75921947548E+02  0.22289622387E+03  0.17200000000E+03 0.  1.
</event>
<event>
 4    1  0.5801298E+000  0.2531265E+03  0.7818608E-02  0.1111345E+00
         21   -1    0    0  503  502  0.00000000000E+00  0.00000000000E+00  0.33441534792E+03  0.33441534792E+03  0.00000000000E+00 0.  1.
         21   -1    0    0  501  503 -0.00000000000E+00 -0.00000000000E+00 -0.35216950181E+03  0.35216950181E+03  0.00000000000E+00 0.  1.
          6    1    1    2  501    0 -0.63818388093E+01 -0.18560253511E+03 -0.24068257239E+03  0.34928660088E+03  0.17200000000E+03 0.  1.
         -6    1    1    2    0  502  0.63818388093E+01  0.18560253511E+03  0.22292841850E+03  0.33729824885E+03  0.17200000000E+03 0.  1.
</event>
<event>
 4    1  0.5801298E+000  0.1764762E+03  0.7818608E-02  0.1171258E+00
         21   -1    0    0  501  502  0.00000000000E+00  0.00000000000E+00  0.38098119502E+02  0.38098119502E+02  0.00000000000E+00 0.  1.
         21   -1    0    0  502  503 -0.00000000000E+00 -0.00000000000E+00 -0.90706750820E+03  0.90706750820E+03  0.00000000000E+00 0.  1.
          6    1    1    2  501    0 -0.25019531434E+02  0.30559601158E+02 -0.28595303455E+03  0.33602530283E+03  0.17200000000E+03 0. -1.
         -6    1    1    2    0  503  0.25019531434E+02 -0.30559601158E+02 -0.58301635415E+03  0.60914032487E+03  0.17200000000E+03 0. -1.
</event>
<event>
 4    1  0.5801298E+000  0.1982647E+03  0.7818608E-02  0.1151211E+00
         21   -1    0    0  501  502  0.00000000000E+00  0.00000000000E+00  0.92234487714E+02  0.92234487714E+02  0.00000000000E+00 0.  1.
         21   -1    0    0  502  503 -0.00000000000E+00 -0.00000000000E+00 -0.64097239497E+03  0.64097239497E+03  0.00000000000E+00 0. -1.
          6    1    1    2  501    0 -0.72804290603E+02 -0.66516463358E+02 -0.62151146050E+02  0.20777793334E+03  0.17200000000E+03 0. -1.
         -6    1    1    2    0  503  0.72804290603E+02  0.66516463358E+02 -0.48658676120E+03  0.52542894934E+03  0.17200000000E+03 0. -1.
</event>
<event>
 4    1  0.5801298E+000  0.3097799E+03  0.7818608E-02  0.1080451E+00
         21   -1    0    0  503  502  0.00000000000E+00  0.00000000000E+00  0.25908959146E+03  0.25908959146E+03  0.00000000000E+00 0. -1.
         21   -1    0    0  501  503 -0.00000000000E+00 -0.00000000000E+00 -0.65387155585E+03  0.65387155585E+03  0.00000000000E+00 0.  1.
          6    1    1    2  501    0  0.21052902577E+03  0.14851632768E+03 -0.49795730947E+03  0.58645123611E+03  0.17200000000E+03 0.  1.
         -6    1    1    2    0  502 -0.21052902577E+03 -0.14851632768E+03  0.10317534508E+03  0.32650991120E+03  0.17200000000E+03 0. -1.
</event>
<event>
 4    1  0.5801298E+000  0.1839487E+03  0.7818608E-02  0.1164035E+00
         21   -1    0    0  501  502  0.00000000000E+00  0.00000000000E+00  0.22455359834E+03  0.22455359834E+03  0.00000000000E+00 0. -1.
         21   -1    0    0  502  503 -0.00000000000E+00 -0.00000000000E+00 -0.27931643906E+03  0.27931643906E+03  0.00000000000E+00 0.  1.
          6    1    1    2  501    0  0.56960777194E+02 -0.31758642300E+02 -0.19834819946E+03  0.27051645002E+03  0.17200000000E+03 0.  1.
         -6    1    1    2    0  503 -0.56960777194E+02  0.31758642300E+02  0.14358535874E+03  0.23335358738E+03  0.17200000000E+03 0. -1.
</event>
<event>
 4    1  0.5801298E+000  0.1843630E+03  0.7818608E-02  0.1163646E+00
         21   -1    0    0  503  502  0.00000000000E+00  0.00000000000E+00  0.14637451435E+03  0.14637451435E+03  0.00000000000E+00 0.  1.
         21   -1    0    0  501  503 -0.00000000000E+00 -0.00000000000E+00 -0.41122013310E+03  0.41122013310E+03  0.00000000000E+00 0.  1.
          6    1    1    2  501    0  0.52713704402E+02  0.40335647094E+02 -0.31636850003E+03  0.36616762127E+03  0.17200000000E+03 0.  1.
         -6    1    1    2    0  502 -0.52713704402E+02 -0.40335647094E+02  0.51522881277E+02  0.19142702618E+03  0.17200000000E+03 0.  1.
</event>
<event>
 4    1  0.5801298E+000  0.2053048E+03  0.7818608E-02  0.1145339E+00
         21   -1    0    0  501  502  0.00000000000E+00  0.00000000000E+00  0.25410554400E+03  0.25410554400E+03  0.00000000000E+00 0. -1.
         21   -1    0    0  502  503 -0.00000000000E+00 -0.00000000000E+00 -0.31812898366E+03  0.31812898366E+03  0.00000000000E+00 0.  1.
          6    1    1    2  501    0 -0.11067551425E+03 -0.17804638437E+02  0.16592437356E+03  0.26397153700E+03  0.17200000000E+03 0. -1.
         -6    1    1    2    0  503  0.11067551425E+03  0.17804638437E+02 -0.22994781322E+03  0.30826299066E+03  0.17200000000E+03 0.  1.
</event>
<event>
 4    1  0.5801298E+000  0.2617016E+03  0.7818608E-02  0.1106125E+00
         21   -1    0    0  503  502  0.00000000000E+00  0.00000000000E+00  0.81960621591E+03  0.81960621591E+03  0.00000000000E+00 0. -1.
         21   -1    0    0  501  503 -0.00000000000E+00 -0.00000000000E+00 -0.84126471186E+02  0.84126471186E+02  0.00000000000E+00 0.  1.
          6    1    1    2  501    0 -0.91019091789E+02 -0.17498358099E+03  0.40476198356E+03  0.48199584233E+03  0.17200000000E+03 0.  1.
         -6    1    1    2    0  502  0.91019091789E+02  0.17498358099E+03  0.33071776117E+03  0.42173684477E+03  0.17200000000E+03 0.  1.
</event>
<event>
 4    1  0.5801298E+000  0.1888970E+03  0.7818608E-02  0.1159460E+00
         21   -1    0    0  503  502  0.00000000000E+00  0.00000000000E+00  0.15179910371E+03  0.15179910371E+03  0.00000000000E+00 0.  1.
         21   -1    0    0  501  503 -0.00000000000E+00 -0.00000000000E+00 -0.23900761351E+03  0.23900761351E+03  0.00000000000E+00 0. -1.
          6    1    1    2  501    0 -0.30170668914E+02  0.72026329828E+02 -0.18494990758E+02  0.18980022691E+03  0.17200000000E+03 0.  1.
         -6    1    1    2    0  502  0.30170668914E+02 -0.72026329828E+02 -0.68713519039E+02  0.20100649032E+03  0.17200000000E+03 0. -1.
</event>
<event>
 4    1  0.5801298E+000  0.2038111E+03  0.7818608E-02  0.1146563E+00
         21   -1    0    0  503  502  0.00000000000E+00  0.00000000000E+00  0.12536008198E+03  0.12536008198E+03  0.00000000000E+00 0.  1.
         21   -1    0    0  501  503 -0.00000000000E+00 -0.00000000000E+00 -0.42303201681E+03  0.42303201681E+03  0.00000000000E+00 0.  1.
          6    1    1    2  501    0 -0.15718982639E+02 -0.10820297658E+03 -0.27647970398E+03  0.34348216441E+03  0.17200000000E+03 0.  1.
         -6    1    1    2    0  502  0.15718982639E+02  0.10820297658E+03 -0.21192230851E+02  0.20490993437E+03  0.17200000000E+03 0.  1.
</event>
<event>
 4    1  0.5801298E+000  0.1912047E+03  0.7818608E-02  0.1157379E+00
         21   -1    0    0  501  502  0.00000000000E+00  0.00000000000E+00  0.20997261264E+03  0.20997261264E+03  0.00000000000E+00 0.  1.
         21   -1    0    0  502  503 -0.00000000000E+00 -0.00000000000E+00 -0.33618783774E+03  0.33618783774E+03  0.00000000000E+00 0.  1.
          6    1    1    2  501    0 -0.33907002204E+02  0.76325255475E+02  0.12649981302E+03  0.22926280142E+03  0.17200000000E+03 0.  1.
         -6    1    1    2    0  503  0.33907002204E+02 -0.76325255475E+02 -0.25271503812E+03  0.31689764896E+03  0.17200000000E+03 0.  1.
</event>
<event>
 4    1  0.5801298E+000  0.1957367E+03  0.7818608E-02  0.1153387E+00
         21   -1    0    0  503  502  0.00000000000E+00  0.00000000000E+00  0.24652269014E+03  0.24652269014E+03  0.00000000000E+00 0. -1.
         21   -1    0    0  501  503 -0.00000000000E+00 -0.00000000000E+00 -0.20728558696E+03  0.20728558696E+03  0.00000000000E+00 0. -1.
          6    1    1    2  501    0  0.92054264485E+02 -0.15964030119E+02 -0.93889507797E+02  0.21709002175E+03  0.17200000000E+03 0. -1.
         -6    1    1    2    0  502 -0.92054264485E+02  0.15964030119E+02  0.13312661098E+03  0.23671825535E+03  0.17200000000E+03 0. -1.
</event>
<event>
 4    1  0.5801298E+000  0.1891861E+03  0.7818608E-02  0.1159197E+00
         21   -1    0    0  503  502  0.00000000000E+00  0.00000000000E+00  0.18330496027E+03  0.18330496027E+03  0.00000000000E+00 0. -1.
         21   -1    0    0  501  503 -0.00000000000E+00 -0.00000000000E+00 -0.35533243725E+03  0.35533243725E+03  0.00000000000E+00 0. -1.
          6    1    1    2  501    0 -0.74911252756E+02  0.24406462779E+02 -0.26677815706E+03  0.32705038801E+03  0.17200000000E+03 0. -1.
         -6    1    1    2    0  502  0.74911252756E+02 -0.24406462779E+02  0.94750680081E+02  0.21158700950E+03  0.17200000000E+03 0. -1.
</event>
<event>
 4    1  0.5801298E+000  0.1750850E+03  0.7818608E-02  0.1172646E+00
         21   -1    0    0  501  502  0.00000000000E+00  0.00000000000E+00  0.12787537926E+03  0.12787537926E+03  0.00000000000E+00 0. -1.
         21   -1    0    0  502  503 -0.00000000000E+00 -0.00000000000E+00 -0.45464065056E+03  0.45464065056E+03  0.00000000000E+00 0. -1.
          6    1    1    2  501    0  0.30268338338E+02 -0.12433889008E+02  0.36870336482E+02  0.17892511175E+03  0.17200000000E+03 0. -1.
         -6    1    1    2    0  503 -0.30268338338E+02  0.12433889008E+02 -0.36363560778E+03  0.40359091807E+03  0.17200000000E+03 0. -1.
</event>
<event>
 4    1  0.5801298E+000  0.3624386E+03  0.7818608E-02  0.1057622E+00
         21   -1    0    0  501  502  0.00000000000E+00  0.00000000000E+00  0.19607097907E+03  0.19607097907E+03  0.00000000000E+00 0.  1.
         21   -1    0    0  502  503 -0.00000000000E+00 -0.00000000000E+00 -0.90018240054E+03  0.90018240054E+03  0.00000000000E+00 0. -1.
          6    1    1    2  501    0 -0.31146368628E+03 -0.69051479771E+02 -0.74864309062E+02  0.37008971817E+03  0.17200000000E+03 0.  1.
         -6    1    1    2    0  503  0.31146368628E+03  0.69051479771E+02 -0.62924711240E+03  0.72616366144E+03  0.17200000000E+03 0. -1.
</event>
<event>
 4    1  0.5801298E+000  0.2253462E+03  0.7818608E-02  0.1129959E+00
         21   -1    0    0  503  502  0.00000000000E+00  0.00000000000E+00  0.16759466992E+03  0.16759466992E+03  0.00000000000E+00 0.  1.
         21   -1    0    0  501  503 -0.00000000000E+00 -0.00000000000E+00 -0.38922752337E+03  0.38922752337E+03  0.00000000000E+00 0.  1.
          6    1    1    2  501    0 -0.13522681466E+03 -0.53950036941E+02 -0.24185888744E+03  0.33057014282E+03  0.17200000000E+03 0.  1.
         -6    1    1    2    0  502  0.13522681466E+03  0.53950036941E+02  0.20226033992E+02  0.22625205047E+03  0.17200000000E+03 0.  1.
</event>
<event>
 4    1  0.5801298E+000  0.2006417E+03  0.7818608E-02  0.1149199E+00
         21   -1    0    0  503  502  0.00000000000E+00  0.00000000000E+00  0.42784871273E+03  0.42784871273E+03  0.00000000000E+00 0. -1.
         21   -1    0    0  501  503 -0.00000000000E+00 -0.00000000000E+00 -0.38078163876E+03  0.38078163876E+03  0.00000000000E+00 0. -1.
          6    1    1    2  501    0  0.19071229026E+02  0.10153520231E+03 -0.32728949586E+03  0.38389519818E+03  0.17200000000E+03 0. -1.
         -6    1    1    2    0  502 -0.19071229026E+02 -0.10153520231E+03  0.37435656983E+03  0.42473515331E+03  0.17200000000E+03 0. -1.
</event>
<event>
 4    1  0.5801298E+000  0.3402734E+03  0.7818608E-02  0.1066680E+00
         21   -1    0    0  503  502  0.00000000000E+00  0.00000000000E+00  0.40878364084E+03  0.40878364084E+03  0.00000000000E+00 0.  1.
         21   -1    0    0  501  503 -0.00000000000E+00 -0.00000000000E+00 -0.48646869620E+03  0.48646869620E+03  0.00000000000E+00 0. -1.
          6    1    1    2  501    0 -0.18977942995E+03 -0.22402177730E+03 -0.32816023684E+03  0.47273156207E+03  0.17200000000E+03 0. -1.
         -6    1    1    2    0  502  0.18977942995E+03  0.22402177730E+03  0.25047518149E+03  0.42252077497E+03  0.17200000000E+03 0.  1.
</event>
<event>
 4    1  0.5801298E+000  0.2413550E+03  0.7818608E-02  0.1118893E+00
         21   -1    0    0  503  502  0.00000000000E+00  0.00000000000E+00  0.82516665067E+03  0.82516665067E+03  0.00000000000E+00 0.  1.
         21   -1    0    0  501  503 -0.00000000000E+00 -0.00000000000E+00 -0.96902388763E+02  0.96902388763E+02  0.00000000000E+00 0. -1.
          6    1    1    2  501    0 -0.37002897136E+02 -0.16522420320E+03  0.12391224579E+03  0.27130517204E+03  0.17200000000E+03 0. -1.
         -6    1    1    2    0  502  0.37002897136E+02  0.16522420320E+03  0.60435201612E+03  0.65076386740E+03  0.17200000000E+03 0.  1.
</event>
<event>
 4    1  0.5801298E+000  0.3396694E+03  0.7818608E-02  0.1066937E+00
         21   -1    0    0  501  502  0.00000000000E+00  0.00000000000E+00  0.19801120264E+03  0.19801120264E+03  0.00000000000E+00 0.  1.
         21   -1    0    0  502  503 -0.00000000000E+00 -0.00000000000E+00 -0.10892719739E+04  0.10892719739E+04  0.00000000000E+00 0. -1.
          6    1    1    2  501    0  0.18924779475E+03  0.22355438848E+03 -0.66863577606E+01  0.33973519071E+03  0.17200000000E+03 0.  1.
         -6    1    1    2    0  503 -0.18924779475E+03 -0.22355438848E+03 -0.88457441352E+03  0.94754798585E+03  0.17200000000E+03 0. -1.
</event>
<event>
 4    1  0.5801298E+000  0.2254177E+03  0.7818608E-02  0.1129907E+00
         21   -1    0    0  501  502  0.00000000000E+00  0.00000000000E+00  0.52090877574E+02  0.52090877574E+02  0.00000000000E+00 0.  1.
         21   -1    0    0  502  503 -0.00000000000E+00 -0.00000000000E+00 -0.13683284310E+04  0.13683284310E+04  0.00000000000E+00 0. -1.
          6    1    1    2  501    0  0.13409154783E+03 -0.56996616523E+02 -0.27757142725E+03  0.35757384513E+03  0.17200000000E+03 0.  1.
         -6    1    1    2    0  503 -0.13409154783E+03  0.56996616523E+02 -0.10386661262E+04  0.10628454635E+04  0.17200000000E+03 0. -1.
</event>
<event>
 4    1  0.5801298E+000  0.1987007E+03  0.7818608E-02  0.1150840E+00
         21   -1    0    0  501  502  0.00000000000E+00  0.00000000000E+00  0.19657404357E+03  0.19657404357E+03  0.00000000000E+00 0.  1.
         21   -1    0    0  502  503 -0.00000000000E+00 -0.00000000000E+00 -0.56962853127E+03  0.56962853127E+03  0.00000000000E+00 0.  1.
          6    1    1    2  501    0 -0.97711658480E+02  0.18719134109E+02  0.12172079871E+03  0.23301915591E+03  0.17200000000E+03 0.  1.
         -6    1    1    2    0  503  0.97711658480E+02 -0.18719134109E+02 -0.49477528640E+03  0.53318341893E+03  0.17200000000E+03 0.  1.
</event>
<event>
 4    1  0.5801298E+000  0.1903144E+03  0.7818608E-02  0.1158178E+00
         21   -1    0    0  503  502  0.00000000000E+00  0.00000000000E+00  0.20919319179E+03  0.20919319179E+03  0.00000000000E+00 0.  1.
         21   -1    0    0  501  503 -0.00000000000E+00 -0.00000000000E+00 -0.36084136831E+03  0.36084136831E+03  0.00000000000E+00 0.  1.
          6    1    1    2  501    0  0.73774522439E+02  0.34538266090E+02 -0.28138830084E+03  0.33970420639E+03  0.17200000000E+03 0.  1.
         -6    1    1    2    0  502 -0.73774522439E+02 -0.34538266090E+02  0.12974012432E+03  0.23033035372E+03  0.17200000000E+03 0.  1.
</event>
<event>
 4    1  0.5801298E+000  0.2429700E+03  0.7818608E-02  0.1117830E+00
         21   -1    0    0  503  502  0.00000000000E+00  0.00000000000E+00  0.39834762458E+03  0.39834762458E+03  0.00000000000E+00 0. -1.
         21   -1    0    0  501  503 -0.00000000000E+00 -0.00000000000E+00 -0.15209264345E+03  0.15209264345E+03  0.00000000000E+00 0.  1.
          6    1    1    2  501    0  0.12807753498E+03  0.11422157122E+03  0.79087642817E+02  0.25551766582E+03  0.17200000000E+03 0.  1.
         -6    1    1    2    0  502 -0.12807753498E+03 -0.11422157122E+03  0.16716733831E+03  0.29492260221E+03  0.17200000000E+03 0.  1.
</event>
<event>
 4    1  0.5801298E+000  0.3197735E+03  0.7818608E-02  0.1075754E+00
         21   -1    0    0  501  502  0.00000000000E+00  0.00000000000E+00  0.16743265409E+03  0.16743265409E+03  0.00000000000E+00 0. -1.
         21   -1    0    0  502  503 -0.00000000000E+00 -0.00000000000E+00 -0.81443828672E+03  0.81443828672E+03  0.00000000000E+00 0. -1.
          6    1    1    2  501    0 -0.12136567285E+03 -0.24071030254E+03 -0.77971737886E+02  0.32914232211E+03  0.17200000000E+03 0. -1.
         -6    1    1    2    0  503  0.12136567285E+03  0.24071030254E+03 -0.56903389475E+03  0.65272861870E+03  0.17200000000E+03 0. -1.
</event>
<event>
 4    1  0.5801298E+000  0.1916330E+03  0.7818608E-02  0.1156997E+00
         21   -1    0    0  503  502  0.00000000000E+00  0.00000000000E+00  0.31516772079E+03  0.31516772079E+03  0.00000000000E+00 0. -1.
         21   -1    0    0  501  503 -0.00000000000E+00 -0.00000000000E+00 -0.24681102459E+03  0.24681102459E+03  0.00000000000E+00 0. -1.
          6    1    1    2  501    0 -0.84295433261E+02 -0.57860541626E+01 -0.16997928882E+03  0.25615650903E+03  0.17200000000E+03 0. -1.
         -6    1    1    2    0  502  0.84295433261E+02  0.57860541626E+01  0.23833598501E+03  0.30582223635E+03  0.17200000000E+03 0. -1.
</event>
<event>
 4    1  0.5801298E+000  0.2107281E+03  0.7818608E-02  0.1140991E+00
         21   -1    0    0  503  502  0.00000000000E+00  0.00000000000E+00  0.19622541900E+04  0.19622541900E+04  0.00000000000E+00 0.  1.
         21   -1    0    0  501  503 -0.00000000000E+00 -0.00000000000E+00 -0.36402409011E+02  0.36402409011E+02  0.00000000000E+00 0.  1.
          6    1    1    2  501    0  0.39491250316E+01 -0.12168299464E+03  0.34825338819E+03  0.40704639681E+03  0.17200000000E+03 0.  1.
         -6    1    1    2    0  502 -0.39491250316E+01  0.12168299464E+03  0.15775983928E+04  0.15916102022E+04  0.17200000000E+03 0.  1.
</event>
<event>
 4    1  0.5801298E+000  0.2104202E+03  0.7818608E-02  0.1141234E+00
         21   -1    0    0  503  502  0.00000000000E+00  0.00000000000E+00  0.48450995848E+03  0.48450995848E+03  0.00000000000E+00 0.  1.
         21   -1    0    0  501  503 -0.00000000000E+00 -0.00000000000E+00 -0.18470010080E+03  0.18470010080E+03  0.00000000000E+00 0.  1.
          6    1    1    2  501    0  0.10395151582E+03  0.62343726912E+02 -0.87930325393E+02  0.22805350260E+03  0.17200000000E+03 0. -1.
         -6    1    1    2    0  502 -0.10395151582E+03 -0.62343726912E+02  0.38774018307E+03  0.44115655667E+03  0.17200000000E+03 0. -1.
</event>
<event>
 4    1  0.5801298E+000  0.1999126E+03  0.7818608E-02  0.1149813E+00
         21   -1    0    0  501  502  0.00000000000E+00  0.00000000000E+00  0.16742951677E+03  0.16742951677E+03  0.00000000000E+00 0. -1.
         21   -1    0    0  502  503 -0.00000000000E+00 -0.00000000000E+00 -0.24942247903E+03  0.24942247903E+03  0.00000000000E+00 0. -1.
          6    1    1    2  501    0  0.41054279632E+02 -0.93250192698E+02  0.22227313765E+01  0.19992496805E+03  0.17200000000E+03 0.  1.
         -6    1    1    2    0  503 -0.41054279632E+02  0.93250192698E+02 -0.84215693636E+02  0.21692702775E+03  0.17200000000E+03 0.  1.
</event>
<event>
 4    1  0.5801298E+000  0.1767772E+03  0.7818608E-02  0.1170959E+00
         21   -1    0    0  501  502  0.00000000000E+00  0.00000000000E+00  0.10650529968E+04  0.10650529968E+04  0.00000000000E+00 0. -1.
         21   -1    0    0  502  503 -0.00000000000E+00 -0.00000000000E+00 -0.38509896947E+02  0.38509896947E+02  0.00000000000E+00 0.  1.
          6    1    1    2  501    0 -0.37361505007E+02 -0.16440321661E+02  0.78250532328E+03  0.80222487321E+03  0.17200000000E+03 0. -1.
         -6    1    1    2    0  503  0.37361505007E+02  0.16440321661E+02  0.24403777662E+03  0.30133802059E+03  0.17200000000E+03 0.  1.
</event>
<event>
 4    1  0.5801298E+000  0.2107799E+03  0.7818608E-02  0.1140950E+00
         21   -1    0    0  503  502  0.00000000000E+00  0.00000000000E+00  0.14002411206E+03  0.14002411206E+03  0.00000000000E+00 0.  1.
         21   -1    0    0  501  503 -0.00000000000E+00 -0.00000000000E+00 -0.70897988340E+03  0.70897988340E+03  0.00000000000E+00 0.  1.
          6    1    1    2  501    0  0.64699755823E+02 -0.10323807127E+03 -0.60000328615E+03  0.63594976307E+03  0.17200000000E+03 0.  1.
         -6    1    1    2    0  502 -0.64699755823E+02  0.10323807127E+03  0.31047514809E+02  0.21305423239E+03  0.17200000000E+03 0.  1.
</event>
<event>
 4    1  0.5801298E+000  0.3342610E+03  0.7818608E-02  0.1069267E+00
         21   -1    0    0  503  502  0.00000000000E+00  0.00000000000E+00  0.59699384725E+03  0.59699384725E+03  0.00000000000E+00 0. -1.
         21   -1    0    0  501  503 -0.00000000000E+00 -0.00000000000E+00 -0.20192977790E+03  0.20192977790E+03  0.00000000000E+00 0.  1.
          6    1    1    2  501    0 -0.28543105668E+03  0.25990872864E+02  0.89479533607E+02  0.34603034625E+03  0.17200000000E+03 0.  1.
         -6    1    1    2    0  502  0.28543105668E+03 -0.25990872864E+02  0.30558453574E+03  0.45289327890E+03  0.17200000000E+03 0. -1.
</event>
<event>
 4    1  0.5801298E+000  0.2018184E+03  0.7818608E-02  0.1148214E+00
         21   -1    0    0  503  502  0.00000000000E+00  0.00000000000E+00  0.34316645457E+03  0.34316645457E+03  0.00000000000E+00 0. -1.
         21   -1    0    0  501  503 -0.00000000000E+00 -0.00000000000E+00 -0.14270919664E+03  0.14270919664E+03  0.00000000000E+00 0. -1.
          6    1    1    2  501    0  0.16293689745E+02 -0.10431285525E+03  0.56370281929E+00  0.20181916127E+03  0.17200000000E+03 0. -1.
         -6    1    1    2    0  502 -0.16293689745E+02  0.10431285525E+03  0.19989355511E+03  0.28405648993E+03  0.17200000000E+03 0. -1.
</event>
<event>
 4    1  0.5801298E+000  0.1921617E+03  0.7818608E-02  0.1156526E+00
         21   -1    0    0  501  502  0.00000000000E+00  0.00000000000E+00  0.29661163582E+03  0.29661163582E+03  0.00000000000E+00 0. -1.
         21   -1    0    0  502  503 -0.00000000000E+00 -0.00000000000E+00 -0.12449343326E+03  0.12449343326E+03  0.00000000000E+00 0. -1.
          6    1    1    2  501    0 -0.59920570342E+02  0.61250698275E+02  0.85752891541E+02  0.21042737749E+03  0.17200000000E+03 0. -1.
         -6    1    1    2    0  503  0.59920570342E+02 -0.61250698275E+02  0.86365311013E+02  0.21067769159E+03  0.17200000000E+03 0. -1.
</event>
<event>
 4    1  0.5801298E+000  0.1997416E+03  0.7818608E-02  0.1149957E+00
         21   -1    0    0  503  502  0.00000000000E+00  0.00000000000E+00  0.80013011817E+03  0.80013011817E+03  0.00000000000E+00 0.  1.
         21   -1    0    0  501  503 -0.00000000000E+00 -0.00000000000E+00 -0.76217073815E+02  0.76217073815E+02  0.00000000000E+00 0.  1.
          6    1    1    2  501    0  0.90413687182E+02 -0.46239161597E+02  0.10429715449E+03  0.22533217997E+03  0.17200000000E+03 0.  1.
         -6    1    1    2    0  502 -0.90413687182E+02  0.46239161597E+02  0.61961588987E+03  0.65101501201E+03  0.17200000000E+03 0.  1.
</event>
<event>
 4    1  0.5801298E+000  0.1730810E+03  0.7818608E-02  0.1174672E+00
         21   -1    0    0  503  502  0.00000000000E+00  0.00000000000E+00  0.36044570895E+03  0.36044570895E+03  0.00000000000E+00 0.  1.
         21   -1    0    0  501  503 -0.00000000000E+00 -0.00000000000E+00 -0.26544611154E+03  0.26544611154E+03  0.00000000000E+00 0.  1.
          6    1    1    2  501    0  0.13166779450E+02  0.14130218574E+02 -0.21186806869E+03  0.27357833556E+03  0.17200000000E+03 0.  1.
         -6    1    1    2    0  502 -0.13166779450E+02 -0.14130218574E+02  0.30686766611E+03  0.35231348493E+03  0.17200000000E+03 0.  1.
</event>
<event>
 4    1  0.5801298E+000  0.1816839E+03  0.7818608E-02  0.1166183E+00
         21   -1    0    0  501  502  0.00000000000E+00  0.00000000000E+00  0.12806760785E+04  0.12806760785E+04  0.00000000000E+00 0.  1.
         21   -1    0    0  502  503 -0.00000000000E+00 -0.00000000000E+00 -0.29816188993E+02  0.29816188993E+02  0.00000000000E+00 0.  1.
          6    1    1    2  501    0 -0.41516031616E+02 -0.41248831180E+02  0.86666970116E+03  0.88550856453E+03  0.17200000000E+03 0.  1.
         -6    1    1    2    0  503  0.41516031616E+02  0.41248831180E+02  0.38419018830E+03  0.42498370291E+03  0.17200000000E+03 0.  1.
</event>
<event>
 4    1  0.5801298E+000  0.1934840E+03  0.7818608E-02  0.1155356E+00
         21   -1    0    0  501  502  0.00000000000E+00  0.00000000000E+00  0.10231534361E+03  0.10231534361E+03  0.00000000000E+00 0.  1.
         21   -1    0    0  502  503 -0.00000000000E+00 -0.00000000000E+00 -0.46848386492E+03  0.46848386492E+03  0.00000000000E+00 0.  1.
          6    1    1    2  501    0 -0.84755740220E+02  0.25856008599E+02 -0.49526645860E+02  0.19972220040E+03  0.17200000000E+03 0.  1.
         -6    1    1    2    0  503  0.84755740220E+02 -0.25856008599E+02 -0.31664187545E+03  0.37107700814E+03  0.17200000000E+03 0.  1.
</event>
<event>
 4    1  0.5801298E+000  0.1810210E+03  0.7818608E-02  0.1166819E+00
         21   -1    0    0  503  502  0.00000000000E+00  0.00000000000E+00  0.14327240967E+03  0.14327240967E+03  0.00000000000E+00 0. -1.
         21   -1    0    0  501  503 -0.00000000000E+00 -0.00000000000E+00 -0.33832886285E+03  0.33832886285E+03  0.00000000000E+00 0.  1.
          6    1    1    2  501    0 -0.13845476879E+02  0.54707524977E+02 -0.23459115258E+03  0.29631338038E+03  0.17200000000E+03 0.  1.
         -6    1    1    2    0  502  0.13845476879E+02 -0.54707524977E+02  0.39534699396E+02  0.18528789214E+03  0.17200000000E+03 0. -1.
</event>
<event>
 4    1  0.5801298E+000  0.1828374E+03  0.7818608E-02  0.1165085E+00
         21   -1    0    0  501  502  0.00000000000E+00  0.00000000000E+00  0.38752880001E+03  0.38752880001E+03  0.00000000000E+00 0. -1.
         21   -1    0    0  502  503 -0.00000000000E+00 -0.00000000000E+00 -0.14722184296E+03  0.14722184296E+03  0.00000000000E+00 0.  1.
          6    1    1    2  501    0  0.55138327043E+02  0.28377608374E+02 -0.51895613880E+02  0.19005967091E+03  0.17200000000E+03 0.  1.
         -6    1    1    2    0  503 -0.55138327043E+02 -0.28377608374E+02  0.29220257093E+03  0.34469097207E+03  0.17200000000E+03 0. -1.
</event>
<event>
 4    1  0.5801298E+000  0.1847059E+03  0.7818608E-02  0.1163325E+00
         21   -1    0    0  501  502  0.00000000000E+00  0.00000000000E+00  0.25504161399E+03  0.25504161399E+03  0.00000000000E+00 0.  1.
         21   -1    0    0  502  503 -0.00000000000E+00 -0.00000000000E+00 -0.12184360876E+04  0.12184360876E+04  0.00000000000E+00 0.  1.
          6    1    1    2  501    0  0.42840462927E+02  0.51932446740E+02  0.21342426583E+03  0.28225201777E+03  0.17200000000E+03 0.  1.
         -6    1    1    2    0  503 -0.42840462927E+02 -0.51932446740E+02 -0.11768187394E+04  0.11912256838E+04  0.17200000000E+03 0.  1.
</event>
<event>
 4    1  0.5801298E+000  0.2948763E+03  0.7818608E-02  0.1087830E+00
         21   -1    0    0  501  502  0.00000000000E+00  0.00000000000E+00  0.43926845447E+03  0.43926845447E+03  0.00000000000E+00 0.  1.
         21   -1    0    0  502  503 -0.00000000000E+00 -0.00000000000E+00 -0.21638663509E+03  0.21638663509E+03  0.00000000000E+00 0.  1.
          6    1    1    2  501    0  0.14438377155E+03 -0.19110569424E+03  0.20713858096E+03  0.36035878174E+03  0.17200000000E+03 0.  1.
         -6    1    1    2    0  503 -0.14438377155E+03  0.19110569424E+03  0.15743238414E+02  0.29529630782E+03  0.17200000000E+03 0.  1.
</event>
<event>
 4    1  0.5801298E+000  0.2283386E+03  0.7818608E-02  0.1127815E+00
         21   -1    0    0  503  502  0.00000000000E+00  0.00000000000E+00  0.32906709451E+02  0.32906709451E+02  0.00000000000E+00 0.  1.
         21   -1    0    0  501  503 -0.00000000000E+00 -0.00000000000E+00 -0.16033072606E+04  0.16033072606E+04  0.00000000000E+00 0. -1.
          6    1    1    2  501    0 -0.10427346857E+03 -0.10808118823E+03 -0.69643796256E+03  0.73291495768E+03  0.17200000000E+03 0. -1.
         -6    1    1    2    0  502  0.10427346857E+03  0.10808118823E+03 -0.87396258860E+03  0.90329901238E+03  0.17200000000E+03 0. -1.
</event>
<event>
 4    1  0.5801298E+000  0.2295945E+03  0.7818608E-02  0.1126926E+00
         21   -1    0    0  501  502  0.00000000000E+00  0.00000000000E+00  0.94607698742E+02  0.94607698742E+02  0.00000000000E+00 0.  1.
         21   -1    0    0  502  503 -0.00000000000E+00 -0.00000000000E+00 -0.64784793552E+03  0.64784793552E+03  0.00000000000E+00 0. -1.
          6    1    1    2  501    0 -0.15079985160E+03 -0.19723875144E+02 -0.13774383716E+03  0.26774426449E+03  0.17200000000E+03 0. -1.
         -6    1    1    2    0  503  0.15079985160E+03  0.19723875144E+02 -0.41549639962E+03  0.47471136977E+03  0.17200000000E+03 0.  1.
</event>
<event>
 4    1  0.5801298E+000  0.2042447E+03  0.7818608E-02  0.1146206E+00
         21   -1    0    0  503  502  0.00000000000E+00  0.00000000000E+00  0.31318062161E+02  0.31318062161E+02  0.00000000000E+00 0.  1.
         21   -1    0    0  501  503 -0.00000000000E+00 -0.00000000000E+00 -0.13556025605E+04  0.13556025605E+04  0.00000000000E+00 0.  1.
          6    1    1    2  501    0  0.79195486817E+02 -0.76550446782E+02 -0.75363048999E+03  0.78081675922E+03  0.17200000000E+03 0.  1.
         -6    1    1    2    0  502 -0.79195486817E+02  0.76550446782E+02 -0.57065400836E+03  0.60610386345E+03  0.17200000000E+03 0.  1.
</event>
<event>
 4    1  0.5801298E+000  0.1774005E+03  0.7818608E-02  0.1170343E+00
         21   -1    0    0  501  502  0.00000000000E+00  0.00000000000E+00  0.99453654640E+02  0.99453654640E+02  0.00000000000E+00 0. -1.
         21   -1    0    0  502  503 -0.00000000000E+00 -0.00000000000E+00 -0.33526498775E+03  0.33526498775E+03  0.00000000000E+00 0. -1.
          6    1    1    2  501    0 -0.43205592779E+02  0.44947787503E+01 -0.66397825671E+02  0.18941910552E+03  0.17200000000E+03 0.  1.
         -6    1    1    2    0  503  0.43205592779E+02 -0.44947787503E+01 -0.16941350744E+03  0.24529953686E+03  0.17200000000E+03 0.  1.
</event>
<event>
 4    1  0.5801298E+000  0.3227348E+03  0.7818608E-02  0.1074398E+00
         21   -1    0    0  503  502  0.00000000000E+00  0.00000000000E+00  0.98326345716E+02  0.98326345716E+02  0.00000000000E+00 0.  1.
         21   -1    0    0  501  503 -0.00000000000E+00 -0.00000000000E+00 -0.27454198193E+04  0.27454198193E+04  0.00000000000E+00 0. -1.
          6    1    1    2  501    0  0.24633233623E+03  0.11787323347E+03 -0.24378408948E+04  0.24591108042E+04  0.17200000000E+03 0. -1.
         -6    1    1    2    0  502 -0.24633233623E+03 -0.11787323347E+03 -0.20925257876E+03  0.38463536077E+03  0.17200000000E+03 0.  1.
</event>
<event>
 4    1  0.5801298E+000  0.1858752E+03  0.7818608E-02  0.1162235E+00
         21   -1    0    0  501  502  0.00000000000E+00  0.00000000000E+00  0.57870655822E+03  0.57870655822E+03  0.00000000000E+00 0. -1.
         21   -1    0    0  502  503 -0.00000000000E+00 -0.00000000000E+00 -0.70874711807E+02  0.70874711807E+02  0.00000000000E+00 0. -1.
          6    1    1    2  501    0 -0.54581918766E+02 -0.44569059303E+02  0.38287412427E+03  0.42560801442E+03  0.17200000000E+03 0. -1.
         -6    1    1    2    0  503  0.54581918766E+02  0.44569059303E+02  0.12495772214E+03  0.22397325560E+03  0.17200000000E+03 0. -1.
</event>
<event>
 4    1  0.5801298E+000  0.1901389E+03  0.7818608E-02  0.1158336E+00
         21   -1    0    0  501  502  0.00000000000E+00  0.00000000000E+00  0.67649397964E+03  0.67649397964E+03  0.00000000000E+00 0.  1.
         21   -1    0    0  502  503 -0.00000000000E+00 -0.00000000000E+00 -0.73221137534E+02  0.73221137534E+02  0.00000000000E+00 0.  1.
          6    1    1    2  501    0 -0.32099827673E+02  0.74420353939E+02  0.49646750902E+03  0.53163218068E+03  0.17200000000E+03 0.  1.
         -6    1    1    2    0  503  0.32099827673E+02 -0.74420353939E+02  0.10680533309E+03  0.21808293650E+03  0.17200000000E+03 0.  1.
</event>
<event>
 4    1  0.5801298E+000  0.1721954E+03  0.7818608E-02  0.1175578E+00
         21   -1    0    0  501  502  0.00000000000E+00  0.00000000000E+00  0.84976262131E+03  0.84976262131E+03  0.00000000000E+00 0. -1.
         21   -1    0    0  502  503 -0.00000000000E+00 -0.00000000000E+00 -0.43093759201E+02  0.43093759201E+02  0.00000000000E+00 0. -1.
          6    1    1    2  501    0  0.20635353789E+01  0.79362220716E+01  0.59807510095E+03  0.62237052322E+03  0.17200000000E+03 0. -1.
         -6    1    1    2    0  503 -0.20635353789E+01 -0.79362220716E+01  0.20859376116E+03  0.27048585729E+03  0.17200000000E+03 0. -1.
</event>
<event>
 4    1  0.5801298E+000  0.2012039E+03  0.7818608E-02  0.1148727E+00
         21   -1    0    0  503  502  0.00000000000E+00  0.00000000000E+00  0.24954733045E+03  0.24954733045E+03  0.00000000000E+00 0.  1.
         21   -1    0    0  501  503 -0.00000000000E+00 -0.00000000000E+00 -0.17552218838E+03  0.17552218838E+03  0.00000000000E+00 0. -1.
          6    1    1    2  501    0 -0.53826618963E+02 -0.89452147030E+02 -0.21484262638E+02  0.20234763418E+03  0.17200000000E+03 0. -1.
         -6    1    1    2    0  502  0.53826618963E+02  0.89452147030E+02  0.95509404707E+02  0.22272188466E+03  0.17200000000E+03 0. -1.
</event>
<event>
 4    1  0.5801298E+000  0.4340808E+03  0.7818608E-02  0.1032579E+00
         21   -1    0    0  503  502  0.00000000000E+00  0.00000000000E+00  0.19294278344E+03  0.19294278344E+03  0.00000000000E+00 0.  1.
         21   -1    0    0  501  503 -0.00000000000E+00 -0.00000000000E+00 -0.10042772000E+04  0.10042772000E+04  0.00000000000E+00 0.  1.
          6    1    1    2  501    0 -0.13526719286E+03  0.37489320986E+03 -0.50505911301E+03  0.66596609515E+03  0.17200000000E+03 0.  1.
         -6    1    1    2    0  502  0.13526719286E+03 -0.37489320986E+03 -0.30627530355E+03  0.53125388829E+03  0.17200000000E+03 0.  1.
</event>
<event>
 4    1  0.5801298E+000  0.2051967E+03  0.7818608E-02  0.1145427E+00
         21   -1    0    0  501  502  0.00000000000E+00  0.00000000000E+00  0.36827880149E+03  0.36827880149E+03  0.00000000000E+00 0.  1.
         21   -1    0    0  502  503 -0.00000000000E+00 -0.00000000000E+00 -0.14989182279E+03  0.14989182279E+03  0.00000000000E+00 0. -1.
          6    1    1    2  501    0  0.80596931701E+02 -0.77626264434E+02  0.23538769473E+03  0.31227082663E+03  0.17200000000E+03 0.  1.
         -6    1    1    2    0  503 -0.80596931701E+02  0.77626264434E+02 -0.17000716029E+02  0.20589979766E+03  0.17200000000E+03 0. -1.
</event>
<event>
 4    1  0.5801298E+000  0.2720772E+03  0.7818608E-02  0.1100097E+00
         21   -1    0    0  503  502  0.00000000000E+00  0.00000000000E+00  0.73205530996E+03  0.73205530996E+03  0.00000000000E+00 0.  1.
         21   -1    0    0  501  503 -0.00000000000E+00 -0.00000000000E+00 -0.30725471263E+03  0.30725471263E+03  0.00000000000E+00 0. -1.
          6    1    1    2  501    0  0.20253201477E+03  0.58504791433E+02 -0.21323785802E+03  0.34568253025E+03  0.17200000000E+03 0. -1.
         -6    1    1    2    0  502 -0.20253201477E+03 -0.58504791433E+02  0.63803845534E+03  0.69362749234E+03  0.17200000000E+03 0.  1.
</event>
<event>
 4    1  0.5801298E+000  0.1946352E+03  0.7818608E-02  0.1154346E+00
         21   -1    0    0  501  502  0.00000000000E+00  0.00000000000E+00  0.90898862417E+03  0.90898862417E+03  0.00000000000E+00 0.  1.
         21   -1    0    0  502  503 -0.00000000000E+00 -0.00000000000E+00 -0.57353842802E+02  0.57353842802E+02  0.00000000000E+00 0.  1.
          6    1    1    2  501    0 -0.46306632425E+02  0.78451092699E+02  0.67843578437E+03  0.70580308279E+03  0.17200000000E+03 0.  1.
         -6    1    1    2    0  503  0.46306632425E+02 -0.78451092699E+02  0.17319899700E+03  0.26053938419E+03  0.17200000000E+03 0.  1.
</event>
<event>
 4    1  0.5801298E+000  0.1767182E+03  0.7818608E-02  0.1171017E+00
         21   -1    0    0  503  502  0.00000000000E+00  0.00000000000E+00  0.10899406986E+03  0.10899406986E+03  0.00000000000E+00 0. -1.
         21   -1    0    0  501  503 -0.00000000000E+00 -0.00000000000E+00 -0.10507285083E+04  0.10507285083E+04  0.00000000000E+00 0. -1.
          6    1    1    2  501    0 -0.34139256567E+02 -0.21905282104E+02 -0.96538724414E+03  0.98142848001E+03  0.17200000000E+03 0. -1.
         -6    1    1    2    0  502  0.34139256567E+02  0.21905282104E+02  0.23652805688E+02  0.17829409816E+03  0.17200000000E+03 0. -1.
</event>
<event>
 4    1  0.5801298E+000  0.2270358E+03  0.7818608E-02  0.1128744E+00
         21   -1    0    0  501  502  0.00000000000E+00  0.00000000000E+00  0.90016573350E+02  0.90016573350E+02  0.00000000000E+00 0.  1.
         21   -1    0    0  502  503 -0.00000000000E+00 -0.00000000000E+00 -0.16245574632E+04  0.16245574632E+04  0.00000000000E+00 0.  1.
          6    1    1    2  501    0 -0.14772385878E+03  0.11785806830E+02 -0.77421862326E+02  0.23987369273E+03  0.17200000000E+03 0.  1.
         -6    1    1    2    0  503  0.14772385878E+03 -0.11785806830E+02 -0.14571190275E+04  0.14747003438E+04  0.17200000000E+03 0.  1.
</event>
<event>
 4    1  0.5801298E+000  0.2062667E+03  0.7818608E-02  0.1144557E+00
         21   -1    0    0  501  502  0.00000000000E+00  0.00000000000E+00  0.51955981804E+03  0.51955981804E+03  0.00000000000E+00 0.  1.
         21   -1    0    0  502  503 -0.00000000000E+00 -0.00000000000E+00 -0.43062976251E+03  0.43062976251E+03  0.00000000000E+00 0.  1.
          6    1    1    2  501    0 -0.11193855061E+03  0.20777705988E+02  0.47200816631E+03  0.51510936824E+03  0.17200000000E+03 0.  1.
         -6    1    1    2    0  503  0.11193855061E+03 -0.20777705988E+02 -0.38307811079E+03  0.43508021231E+03  0.17200000000E+03 0.  1.
</event>
<event>
 4    1  0.5801298E+000  0.2436321E+03  0.7818608E-02  0.1117397E+00
         21   -1    0    0  503  502  0.00000000000E+00  0.00000000000E+00  0.12281056465E+03  0.12281056465E+03  0.00000000000E+00 0.  1.
         21   -1    0    0  501  503 -0.00000000000E+00 -0.00000000000E+00 -0.54444948241E+03  0.54444948241E+03  0.00000000000E+00 0. -1.
          6    1    1    2  501    0  0.17218096337E+03 -0.11238261741E+02 -0.32261334103E+03  0.40427212430E+03  0.17200000000E+03 0.  1.
         -6    1    1    2    0  502 -0.17218096337E+03  0.11238261741E+02 -0.99025576722E+02  0.26298792276E+03  0.17200000000E+03 0.  1.
</event>
<event>
 4    1  0.5801298E+000  0.1948009E+03  0.7818608E-02  0.1154201E+00
         21   -1    0    0  503  502  0.00000000000E+00  0.00000000000E+00  0.42314590095E+02  0.42314590095E+02  0.00000000000E+00 0. -1.
         21   -1    0    0  501  503 -0.00000000000E+00 -0.00000000000E+00 -0.93705012212E+03  0.93705012212E+03  0.00000000000E+00 0. -1.
          6    1    1    2  501    0  0.50985863269E+02  0.75919822797E+02 -0.54886654987E+03  0.58241039424E+03  0.17200000000E+03 0. -1.
         -6    1    1    2    0  502 -0.50985863269E+02 -0.75919822797E+02 -0.34586898215E+03  0.39695431798E+03  0.17200000000E+03 0. -1.
</event>
<event>
 4    1  0.5801298E+000  0.3407578E+03  0.7818608E-02  0.1066474E+00
         21   -1    0    0  501  502  0.00000000000E+00  0.00000000000E+00  0.12056221701E+04  0.12056221701E+04  0.00000000000E+00 0.  1.
         21   -1    0    0  502  503 -0.00000000000E+00 -0.00000000000E+00 -0.22728386100E+03  0.22728386100E+03  0.00000000000E+00 0. -1.
          6    1    1    2  501    0  0.29051239781E+03  0.46200082430E+02  0.10330357558E+04  0.10877861801E+04  0.17200000000E+03 0.  1.
         -6    1    1    2    0  503 -0.29051239781E+03 -0.46200082430E+02 -0.54697446661E+02  0.34511985102E+03  0.17200000000E+03 0. -1.
</event>
<event>
 4    1  0.5801298E+000  0.2799999E+03  0.7818608E-02  0.1095689E+00
         21   -1    0    0  503  502  0.00000000000E+00  0.00000000000E+00  0.64542038658E+02  0.64542038658E+02  0.00000000000E+00 0. -1.
         21   -1    0    0  501  503 -0.00000000000E+00 -0.00000000000E+00 -0.12469945645E+04  0.12469945645E+04  0.00000000000E+00 0. -1.
          6    1    1    2  501    0  0.78824639793E+02 -0.20640399321E+03 -0.69673976868E+03  0.75089695533E+03  0.17200000000E+03 0. -1.
         -6    1    1    2    0  502 -0.78824639793E+02  0.20640399321E+03 -0.48571275716E+03  0.56063964783E+03  0.17200000000E+03 0. -1.
</event>
<event>
 4    1  0.5801298E+000  0.1737193E+03  0.7818608E-02  0.1174024E+00
         21   -1    0    0  501  502  0.00000000000E+00  0.00000000000E+00  0.12175650134E+04  0.12175650134E+04  0.00000000000E+00 0. -1.
         21   -1    0    0  502  503 -0.00000000000E+00 -0.00000000000E+00 -0.36687385965E+02  0.36687385965E+02  0.00000000000E+00 0. -1.
          6    1    1    2  501    0  0.19731034131E+02 -0.14321175208E+02  0.94762748631E+03  0.96341904828E+03  0.17200000000E+03 0. -1.
         -6    1    1    2    0  503 -0.19731034131E+02  0.14321175208E+02  0.23325014108E+03  0.29083335105E+03  0.17200000000E+03 0. -1.
</event>
<event>
 4    1  0.5801298E+000  0.1807928E+03  0.7818608E-02  0.1167038E+00
         21   -1    0    0  501  502  0.00000000000E+00  0.00000000000E+00  0.27979735085E+03  0.27979735085E+03  0.00000000000E+00 0.  1.
         21   -1    0    0  502  503 -0.00000000000E+00 -0.00000000000E+00 -0.12490494285E+03  0.12490494285E+03  0.00000000000E+00 0.  1.
          6    1    1    2  501    0 -0.10612907704E+02 -0.54675503896E+02  0.12892673365E+03  0.22205437889E+03  0.17200000000E+03 0. -1.
         -6    1    1    2    0  503  0.10612907704E+02  0.54675503896E+02  0.25965674351E+02  0.18264791480E+03  0.17200000000E+03 0. -1.
</event>
<event>
 4    1  0.5801298E+000  0.1794459E+03  0.7818608E-02  0.1168340E+00
         21   -1    0    0  501  502  0.00000000000E+00  0.00000000000E+00  0.87454030635E+02  0.87454030635E+02  0.00000000000E+00 0. -1.
         21   -1    0    0  502  503 -0.00000000000E+00 -0.00000000000E+00 -0.37467836308E+03  0.37467836308E+03  0.00000000000E+00 0.  1.
          6    1    1    2  501    0 -0.38001669120E+02 -0.34244567048E+02 -0.17398928218E+03  0.24994616929E+03  0.17200000000E+03 0.  1.
         -6    1    1    2    0  503  0.38001669120E+02  0.34244567048E+02 -0.11323505027E+03  0.21218622443E+03  0.17200000000E+03 0.  1.
</event>
<event>
 4    1  0.5801298E+000  0.4767741E+03  0.7818608E-02  0.1020026E+00
         21   -1    0    0  503  502  0.00000000000E+00  0.00000000000E+00  0.10391721132E+04  0.10391721132E+04  0.00000000000E+00 0. -1.
         21   -1    0    0  501  503 -0.00000000000E+00 -0.00000000000E+00 -0.36342779047E+03  0.36342779047E+03  0.00000000000E+00 0.  1.
          6    1    1    2  501    0 -0.28339582486E+03  0.34266062466E+03  0.78036218023E+03  0.91448271147E+03  0.17200000000E+03 0. -1.
         -6    1    1    2    0  502  0.28339582486E+03 -0.34266062466E+03 -0.10461785748E+03  0.48811719222E+03  0.17200000000E+03 0.  1.
</event>
<event>
 4    1  0.5801298E+000  0.2099250E+03  0.7818608E-02  0.1141625E+00
         21   -1    0    0  501  502  0.00000000000E+00  0.00000000000E+00  0.98247884792E+02  0.98247884792E+02  0.00000000000E+00 0.  1.
         21   -1    0    0  502  503 -0.00000000000E+00 -0.00000000000E+00 -0.50706605331E+03  0.50706605331E+03  0.00000000000E+00 0.  1.
          6    1    1    2  501    0  0.62690284188E+02  0.10273478602E+03 -0.10158902324E+03  0.23321414544E+03  0.17200000000E+03 0.  1.
         -6    1    1    2    0  503 -0.62690284188E+02 -0.10273478602E+03 -0.30722914528E+03  0.37209979266E+03  0.17200000000E+03 0.  1.
</event>
<event>
 4    1  0.5801298E+000  0.1977351E+03  0.7818608E-02  0.1151664E+00
         21   -1    0    0  503  502  0.00000000000E+00  0.00000000000E+00  0.20841896413E+03  0.20841896413E+03  0.00000000000E+00 0.  1.
         21   -1    0    0  501  503 -0.00000000000E+00 -0.00000000000E+00 -0.45357714022E+03  0.45357714022E+03  0.00000000000E+00 0.  1.
          6    1    1    2  501    0 -0.75693762405E+02 -0.61527563169E+02 -0.37604691491E+03  0.42486523617E+03  0.17200000000E+03 0.  1.
         -6    1    1    2    0  502  0.75693762405E+02  0.61527563169E+02  0.13088873881E+03  0.23713086818E+03  0.17200000000E+03 0.  1.
</event>
<event>
 4    1  0.5801298E+000  0.2230549E+03  0.7818608E-02  0.1131626E+00
         21   -1    0    0  501  502  0.00000000000E+00  0.00000000000E+00  0.20899297751E+02  0.20899297751E+02  0.00000000000E+00 0.  1.
         21   -1    0    0  502  503 -0.00000000000E+00 -0.00000000000E+00 -0.24586470339E+04  0.24586470339E+04  0.00000000000E+00 0.  1.
          6    1    1    2  501    0  0.13698426612E+03  0.37480572276E+02 -0.99802735140E+03  0.10226495375E+04  0.17200000000E+03 0.  1.
         -6    1    1    2    0  503 -0.13698426612E+03 -0.37480572276E+02 -0.14397203848E+04  0.14568967941E+04  0.17200000000E+03 0.  1.
</event>
<event>
 4    1  0.5801298E+000  0.2327945E+03  0.7818608E-02  0.1124688E+00
         21   -1    0    0  501  502  0.00000000000E+00  0.00000000000E+00  0.39752655519E+03  0.39752655519E+03  0.00000000000E+00 0.  1.
         21   -1    0    0  502  503 -0.00000000000E+00 -0.00000000000E+00 -0.13648851637E+03  0.13648851637E+03  0.00000000000E+00 0. -1.
          6    1    1    2  501    0 -0.10012844644E+03  0.12076239216E+03  0.13972851330E+03  0.27150933423E+03  0.17200000000E+03 0.  1.
         -6    1    1    2    0  503  0.10012844644E+03 -0.12076239216E+03  0.12130952552E+03  0.26250573732E+03  0.17200000000E+03 0. -1.
</event>
<event>
 4    1  0.5801298E+000  0.1760028E+03  0.7818608E-02  0.1171729E+00
         21   -1    0    0  503  502  0.00000000000E+00  0.00000000000E+00  0.17068088214E+03  0.17068088214E+03  0.00000000000E+00 0.  1.
         21   -1    0    0  501  503 -0.00000000000E+00 -0.00000000000E+00 -0.20305036683E+03  0.20305036683E+03  0.00000000000E+00 0.  1.
          6    1    1    2  501    0 -0.14652920389E+02  0.34325855629E+02 -0.77075271760E+02  0.19213945445E+03  0.17200000000E+03 0. -1.
         -6    1    1    2    0  502  0.14652920389E+02 -0.34325855629E+02  0.44705787064E+02  0.18159179452E+03  0.17200000000E+03 0. -1.
</event>
<event>
 4    1  0.5801298E+000  0.2114690E+03  0.7818608E-02  0.1140408E+00
         21   -1    0    0  501  502  0.00000000000E+00  0.00000000000E+00  0.55713730658E+02  0.55713730658E+02  0.00000000000E+00 0. -1.
         21   -1    0    0  502  503 -0.00000000000E+00 -0.00000000000E+00 -0.97716192561E+03  0.97716192561E+03  0.00000000000E+00 0. -1.
          6    1    1    2  501    0 -0.12302472872E+03 -0.26744957121E+00 -0.24248351756E+03  0.32174121852E+03  0.17200000000E+03 0. -1.
         -6    1    1    2    0  503  0.12302472872E+03  0.26744957121E+00 -0.67896467739E+03  0.71113443775E+03  0.17200000000E+03 0. -1.
</event>
<event>
 4    1  0.5801298E+000  0.2052090E+03  0.7818608E-02  0.1145417E+00
         21   -1    0    0  501  502  0.00000000000E+00  0.00000000000E+00  0.27170835581E+03  0.27170835581E+03  0.00000000000E+00 0.  1.
         21   -1    0    0  502  503 -0.00000000000E+00 -0.00000000000E+00 -0.15511115007E+03  0.15511115007E+03  0.00000000000E+00 0. -1.
          6    1    1    2  501    0  0.96893474417E+02 -0.56021431243E+02  0.64382302971E+02  0.21507167893E+03  0.17200000000E+03 0.  1.
         -6    1    1    2    0  503 -0.96893474417E+02  0.56021431243E+02  0.52214902767E+02  0.21174782694E+03  0.17200000000E+03 0.  1.
</event>
<event>
 4    1  0.5801298E+000  0.1848170E+03  0.7818608E-02  0.1163221E+00
         21   -1    0    0  501  502  0.00000000000E+00  0.00000000000E+00  0.80621076815E+02  0.80621076815E+02  0.00000000000E+00 0.  1.
         21   -1    0    0  502  503 -0.00000000000E+00 -0.00000000000E+00 -0.56540033678E+03  0.56540033678E+03  0.00000000000E+00 0.  1.
          6    1    1    2  501    0  0.36534644131E+02  0.56908275052E+02 -0.80671434596E+02  0.20165617360E+03  0.17200000000E+03 0.  1.
         -6    1    1    2    0  503 -0.36534644131E+02 -0.56908275052E+02 -0.40410782537E+03  0.44436524000E+03  0.17200000000E+03 0.  1.
</event>
<event>
 4    1  0.5801298E+000  0.1762983E+03  0.7818608E-02  0.1171434E+00
         21   -1    0    0  503  502  0.00000000000E+00  0.00000000000E+00  0.45425519068E+02  0.45425519068E+02  0.00000000000E+00 0. -1.
         21   -1    0    0  501  503 -0.00000000000E+00 -0.00000000000E+00 -0.68531199593E+03  0.68531199593E+03  0.00000000000E+00 0. -1.
          6    1    1    2  501    0  0.38609167594E+02 -0.25333522411E+01 -0.30536397614E+03  0.35260210382E+03  0.17200000000E+03 0.  1.
         -6    1    1    2    0  502 -0.38609167594E+02  0.25333522411E+01 -0.33452250072E+03  0.37813541118E+03  0.17200000000E+03 0.  1.
</event>
<event>
 4    1  0.5801298E+000  0.1871977E+03  0.7818608E-02  0.1161013E+00
         21   -1    0    0  503  502  0.00000000000E+00  0.00000000000E+00  0.54900673963E+03  0.54900673963E+03  0.00000000000E+00 0.  1.
         21   -1    0    0  501  503 -0.00000000000E+00 -0.00000000000E+00 -0.70204168334E+02  0.70204168334E+02  0.00000000000E+00 0.  1.
          6    1    1    2  501    0 -0.17965563657E+02  0.71667409871E+02  0.14610885031E+03  0.23746741935E+03  0.17200000000E+03 0. -1.
         -6    1    1    2    0  502  0.17965563657E+02 -0.71667409871E+02  0.33269372099E+03  0.38174348861E+03  0.17200000000E+03 0. -1.
</event>
<event>
 4    1  0.5801298E+000  0.2956337E+03  0.7818608E-02  0.1087444E+00
         21   -1    0    0  503  502  0.00000000000E+00  0.00000000000E+00  0.51960618041E+03  0.51960618041E+03  0.00000000000E+00 0.  1.
         21   -1    0    0  501  503 -0.00000000000E+00 -0.00000000000E+00 -0.16866917506E+03  0.16866917506E+03  0.00000000000E+00 0. -1.
          6    1    1    2  501    0  0.61864051136E+02  0.23235346587E+03  0.19356151136E+03  0.35336291911E+03  0.17200000000E+03 0.  1.
         -6    1    1    2    0  502 -0.61864051136E+02 -0.23235346587E+03  0.15737549399E+03  0.33491243636E+03  0.17200000000E+03 0. -1.
</event>
<event>
 4    1  0.5801298E+000  0.1931760E+03  0.7818608E-02  0.1155628E+00
         21   -1    0    0  503  502  0.00000000000E+00  0.00000000000E+00  0.11305081529E+03  0.11305081529E+03  0.00000000000E+00 0. -1.
         21   -1    0    0  501  503 -0.00000000000E+00 -0.00000000000E+00 -0.34837757654E+03  0.34837757654E+03  0.00000000000E+00 0. -1.
          6    1    1    2  501    0  0.87748915393E+02 -0.57520993721E+01 -0.64803557634E+02  0.20375588306E+03  0.17200000000E+03 0.  1.
         -6    1    1    2    0  502 -0.87748915393E+02  0.57520993721E+01 -0.17052320362E+03  0.25767250876E+03  0.17200000000E+03 0.  1.
</event>
<event>
 4    1  0.5801298E+000  0.1832073E+03  0.7818608E-02  0.1164735E+00
         21   -1    0    0  503  502  0.00000000000E+00  0.00000000000E+00  0.70769644168E+02  0.70769644168E+02  0.00000000000E+00 0.  1.
         21   -1    0    0  501  503 -0.00000000000E+00 -0.00000000000E+00 -0.53708739697E+03  0.53708739697E+03  0.00000000000E+00 0.  1.
          6    1    1    2  501    0 -0.29153900112E+02  0.55954884922E+02 -0.33708891154E+03  0.38365848527E+03  0.17200000000E+03 0.  1.
         -6    1    1    2    0  502  0.29153900112E+02 -0.55954884922E+02 -0.12922884126E+03  0.22419855587E+03  0.17200000000E+03 0.  1.
</event>
<event>
 4    1  0.5801298E+000  0.2255196E+03  0.7818608E-02  0.1129834E+00
         21   -1    0    0  501  502  0.00000000000E+00  0.00000000000E+00  0.45391334007E+03  0.45391334007E+03  0.00000000000E+00 0. -1.
         21   -1    0    0  502  503 -0.00000000000E+00 -0.00000000000E+00 -0.19164306580E+03  0.19164306580E+03  0.00000000000E+00 0.  1.
          6    1    1    2  501    0 -0.11906460570E+03 -0.84253852952E+02  0.33915589138E+03  0.40729081837E+03  0.17200000000E+03 0.  1.
         -6    1    1    2    0  503  0.11906460570E+03  0.84253852952E+02 -0.76885617109E+02  0.23826558750E+03  0.17200000000E+03 0.  1.
</event>
<event>
 4    1  0.5801298E+000  0.3203199E+03  0.7818608E-02  0.1075502E+00
         21   -1    0    0  501  502  0.00000000000E+00  0.00000000000E+00  0.36610245613E+03  0.36610245613E+03  0.00000000000E+00 0.  1.
         21   -1    0    0  502  503 -0.00000000000E+00 -0.00000000000E+00 -0.52050082519E+03  0.52050082519E+03  0.00000000000E+00 0.  1.
          6    1    1    2  501    0 -0.21686919045E+03 -0.16120969178E+03  0.22396943734E+03  0.39085434545E+03  0.17200000000E+03 0.  1.
         -6    1    1    2    0  503  0.21686919045E+03  0.16120969178E+03 -0.37836780640E+03  0.49574893587E+03  0.17200000000E+03 0.  1.
</event>
<event>
 4    1  0.5801298E+000  0.2363209E+03  0.7818608E-02  0.1122268E+00
         21   -1    0    0  503  502  0.00000000000E+00  0.00000000000E+00  0.32397392012E+03  0.32397392012E+03  0.00000000000E+00 0.  1.
         21   -1    0    0  501  503 -0.00000000000E+00 -0.00000000000E+00 -0.28961384758E+03  0.28961384758E+03  0.00000000000E+00 0. -1.
          6    1    1    2  501    0  0.70187099772E+02  0.14607307018E+03 -0.17801021980E+03  0.29586349751E+03  0.17200000000E+03 0. -1.
         -6    1    1    2    0  502 -0.70187099772E+02 -0.14607307018E+03  0.21237029234E+03  0.31772427020E+03  0.17200000000E+03 0.  1.
</event>
<event>
 4    1  0.5801298E+000  0.1952118E+03  0.7818608E-02  0.1153843E+00
         21   -1    0    0  503  502  0.00000000000E+00  0.00000000000E+00  0.57850693561E+03  0.57850693561E+03  0.00000000000E+00 0.  1.
         21   -1    0    0  501  503 -0.00000000000E+00 -0.00000000000E+00 -0.38295852738E+03  0.38295852738E+03  0.00000000000E+00 0.  1.
          6    1    1    2  501    0 -0.43479032176E+01 -0.92221189597E+02 -0.33966371560E+03  0.39176407667E+03  0.17200000000E+03 0.  1.
         -6    1    1    2    0  502  0.43479032176E+01  0.92221189597E+02  0.53521212384E+03  0.56970138632E+03  0.17200000000E+03 0.  1.
</event>
<event>
 4    1  0.5801298E+000  0.2042807E+03  0.7818608E-02  0.1146177E+00
         21   -1    0    0  501  502  0.00000000000E+00  0.00000000000E+00  0.17535170401E+03  0.17535170401E+03  0.00000000000E+00 0. -1.
         21   -1    0    0  502  503 -0.00000000000E+00 -0.00000000000E+00 -0.24722745330E+03  0.24722745330E+03  0.00000000000E+00 0. -1.
          6    1    1    2  501    0 -0.18299773248E+02  0.10868181135E+03  0.49208349167E+01  0.20433999226E+03  0.17200000000E+03 0. -1.
         -6    1    1    2    0  503  0.18299773248E+02 -0.10868181135E+03 -0.76796584200E+02  0.21823916505E+03  0.17200000000E+03 0. -1.
</event>
<event>
 4    1  0.5801298E+000  0.3104444E+03  0.7818608E-02  0.1080133E+00
         21   -1    0    0  503  502  0.00000000000E+00  0.00000000000E+00  0.18384168109E+03  0.18384168109E+03  0.00000000000E+00 0.  1.
         21   -1    0    0  501  503 -0.00000000000E+00 -0.00000000000E+00 -0.20987386175E+04  0.20987386175E+04  0.00000000000E+00 0. -1.
          6    1    1    2  501    0 -0.13721443092E+03  0.21900665166E+03 -0.19459768001E+04  0.19705840302E+04  0.17200000000E+03 0. -1.
         -6    1    1    2    0  502  0.13721443092E+03 -0.21900665166E+03  0.31079863748E+02  0.31199626834E+03  0.17200000000E+03 0.  1.
</event>
<event>
 4    1  0.5801298E+000  0.3335987E+03  0.7818608E-02  0.1069556E+00
         21   -1    0    0  503  502  0.00000000000E+00  0.00000000000E+00  0.34731671180E+03  0.34731671180E+03  0.00000000000E+00 0. -1.
         21   -1    0    0  501  503 -0.00000000000E+00 -0.00000000000E+00 -0.41459411730E+03  0.41459411730E+03  0.00000000000E+00 0. -1.
          6    1    1    2  501    0 -0.20871364902E+03  0.19530156890E+03 -0.21519971301E+03  0.39698741363E+03  0.17200000000E+03 0. -1.
         -6    1    1    2    0  502  0.20871364902E+03 -0.19530156890E+03  0.14792230751E+03  0.36492341547E+03  0.17200000000E+03 0. -1.
</event>
<event>
 4    1  0.5801298E+000  0.2197901E+03  0.7818608E-02  0.1134040E+00
         21   -1    0    0  501  502  0.00000000000E+00  0.00000000000E+00  0.14192837076E+03  0.14192837076E+03  0.00000000000E+00 0. -1.
         21   -1    0    0  502  503 -0.00000000000E+00 -0.00000000000E+00 -0.13319462237E+04  0.13319462237E+04  0.00000000000E+00 0. -1.
          6    1    1    2  501    0  0.83650840428E+02 -0.10828771972E+03  0.40835638511E+02  0.22355143193E+03  0.17200000000E+03 0. -1.
         -6    1    1    2    0  503 -0.83650840428E+02  0.10828771972E+03 -0.12308534915E+04  0.12503231626E+04  0.17200000000E+03 0. -1.
</event>
<event>
 4    1  0.5801298E+000  0.1725645E+03  0.7818608E-02  0.1175200E+00
         21   -1    0    0  501  502  0.00000000000E+00  0.00000000000E+00  0.21096059931E+03  0.21096059931E+03  0.00000000000E+00 0. -1.
         21   -1    0    0  502  503 -0.00000000000E+00 -0.00000000000E+00 -0.16046897671E+03  0.16046897671E+03  0.00000000000E+00 0. -1.
          6    1    1    2  501    0 -0.64548595413E+01 -0.12363333262E+02  0.89672657637E+02  0.19447288435E+03  0.17200000000E+03 0. -1.
         -6    1    1    2    0  503  0.64548595413E+01  0.12363333262E+02 -0.39181035039E+02  0.17695669167E+03  0.17200000000E+03 0. -1.
</event>
<event>
 4    1  0.5801298E+000  0.1789571E+03  0.7818608E-02  0.1168816E+00
         21   -1    0    0  503  502  0.00000000000E+00  0.00000000000E+00  0.76046388760E+02  0.76046388760E+02  0.00000000000E+00 0. -1.
         21   -1    0    0  501  503 -0.00000000000E+00 -0.00000000000E+00 -0.42882259457E+03  0.42882259457E+03  0.00000000000E+00 0. -1.
          6    1    1    2  501    0 -0.19667522279E+02 -0.45330329017E+02 -0.21019141364E+03  0.27605448833E+03  0.17200000000E+03 0.  1.
         -6    1    1    2    0  502  0.19667522279E+02  0.45330329017E+02 -0.14258479217E+03  0.22881449499E+03  0.17200000000E+03 0.  1.
</event>
<event>
 4    1  0.5801298E+000  0.1864624E+03  0.7818608E-02  0.1161691E+00
         21   -1    0    0  503  502  0.00000000000E+00  0.00000000000E+00  0.96073618015E+02  0.96073618015E+02  0.00000000000E+00 0. -1.
         21   -1    0    0  501  503 -0.00000000000E+00 -0.00000000000E+00 -0.38548723443E+03  0.38548723443E+03  0.00000000000E+00 0. -1.
          6    1    1    2  501    0  0.59521045047E+01 -0.71755063981E+02 -0.20427765703E+03  0.27658195515E+03  0.17200000000E+03 0. -1.
         -6    1    1    2    0  502 -0.59521045047E+01  0.71755063981E+02 -0.85135959386E+02  0.20497889729E+03  0.17200000000E+03 0. -1.
</event>
<event>
 4    1  0.5801298E+000  0.2261847E+03  0.7818608E-02  0.1129354E+00
         21   -1    0    0  503  502  0.00000000000E+00  0.00000000000E+00  0.18674816797E+03  0.18674816797E+03  0.00000000000E+00 0.  1.
         21   -1    0    0  501  503 -0.00000000000E+00 -0.00000000000E+00 -0.58407630878E+03  0.58407630878E+03  0.00000000000E+00 0.  1.
          6    1    1    2  501    0  0.22778587718E+01  0.14686844150E+03 -0.47950506921E+03  0.53017415926E+03  0.17200000000E+03 0.  1.
         -6    1    1    2    0  502 -0.22778587718E+01 -0.14686844150E+03  0.82176928400E+02  0.24065031750E+03  0.17200000000E+03 0.  1.
</event>
<event>
 4    1  0.5801298E+000  0.1989172E+03  0.7818608E-02  0.1150656E+00
         21   -1    0    0  503  502  0.00000000000E+00  0.00000000000E+00  0.26341986497E+03  0.26341986497E+03  0.00000000000E+00 0. -1.
         21   -1    0    0  501  503 -0.00000000000E+00 -0.00000000000E+00 -0.21863411555E+03  0.21863411555E+03  0.00000000000E+00 0. -1.
          6    1    1    2  501    0 -0.98393806353E+02 -0.17398041674E+02  0.15723155730E+03  0.25355432474E+03  0.17200000000E+03 0. -1.
         -6    1    1    2    0  502  0.98393806353E+02  0.17398041674E+02 -0.11244580788E+03  0.22849965578E+03  0.17200000000E+03 0. -1.
</event>
<event>
 4    1  0.5801298E+000  0.1810821E+03  0.7818608E-02  0.1166760E+00
         21   -1    0    0  501  502  0.00000000000E+00  0.00000000000E+00  0.62850971129E+02  0.62850971129E+02  0.00000000000E+00 0.  1.
         21   -1    0    0  502  503 -0.00000000000E+00 -0.00000000000E+00 -0.53469921239E+03  0.53469921239E+03  0.00000000000E+00 0.  1.
          6    1    1    2  501    0  0.52851740970E+02  0.20332919081E+02 -0.28246990849E+03  0.33552940754E+03  0.17200000000E+03 0.  1.
         -6    1    1    2    0  503 -0.52851740970E+02 -0.20332919081E+02 -0.18937833278E+03  0.26202077598E+03  0.17200000000E+03 0.  1.
</event>
<event>
 4    1  0.5801298E+000  0.1841599E+03  0.7818608E-02  0.1163837E+00
         21   -1    0    0  503  502  0.00000000000E+00  0.00000000000E+00  0.46515673863E+02  0.46515673863E+02  0.00000000000E+00 0.  1.
         21   -1    0    0  501  503 -0.00000000000E+00 -0.00000000000E+00 -0.10874716744E+04  0.10874716744E+04  0.00000000000E+00 0.  1.
          6    1    1    2  501    0 -0.10179492907E+02 -0.65017364072E+02 -0.84596387200E+03  0.86577696460E+03  0.17200000000E+03 0.  1.
         -6    1    1    2    0  502  0.10179492907E+02  0.65017364072E+02 -0.19499212850E+03  0.26821038362E+03  0.17200000000E+03 0.  1.
</event>
<event>
 4    1  0.5801298E+000  0.1899985E+03  0.7818608E-02  0.1158463E+00
         21   -1    0    0  501  502  0.00000000000E+00  0.00000000000E+00  0.13379463915E+03  0.13379463915E+03  0.00000000000E+00 0.  1.
         21   -1    0    0  502  503 -0.00000000000E+00 -0.00000000000E+00 -0.27645939482E+03  0.27645939482E+03  0.00000000000E+00 0.  1.
          6    1    1    2  501    0 -0.78058423540E+02  0.20550228078E+02 -0.39525169321E+02  0.19406614432E+03  0.17200000000E+03 0.  1.
         -6    1    1    2    0  503  0.78058423540E+02 -0.20550228078E+02 -0.10313958635E+03  0.21618788965E+03  0.17200000000E+03 0.  1.
</event>
<event>
 4    1  0.5801298E+000  0.1804996E+03  0.7818608E-02  0.1167320E+00
         21   -1    0    0  501  502  0.00000000000E+00  0.00000000000E+00  0.34554044500E+03  0.34554044500E+03  0.00000000000E+00 0.  1.
         21   -1    0    0  502  503 -0.00000000000E+00 -0.00000000000E+00 -0.94581633368E+02  0.94581633368E+02  0.00000000000E+00 0. -1.
          6    1    1    2  501    0  0.54458920738E+02  0.55076163192E+01  0.13775353135E+03  0.22705977910E+03  0.17200000000E+03 0.  1.
         -6    1    1    2    0  503 -0.54458920738E+02 -0.55076163192E+01  0.11320528028E+03  0.21306229927E+03  0.17200000000E+03 0. -1.
</event>
<event>
 4    1  0.5801298E+000  0.1789809E+03  0.7818608E-02  0.1168793E+00
         21   -1    0    0  503  502  0.00000000000E+00  0.00000000000E+00  0.60492119443E+02  0.60492119443E+02  0.00000000000E+00 0. -1.
         21   -1    0    0  501  503 -0.00000000000E+00 -0.00000000000E+00 -0.10678960570E+04  0.10678960570E+04  0.00000000000E+00 0. -1.
          6    1    1    2  501    0  0.47234727669E+02  0.14799526784E+02 -0.90428374041E+03  0.92182602950E+03  0.17200000000E+03 0. -1.
         -6    1    1    2    0  502 -0.47234727669E+02 -0.14799526784E+02 -0.10312019715E+03  0.20656214695E+03  0.17200000000E+03 0. -1.
</event>
<event>
 4    1  0.5801298E+000  0.2067848E+03  0.7818608E-02  0.1144138E+00
         21   -1    0    0  503  502  0.00000000000E+00  0.00000000000E+00  0.15598267472E+04  0.15598267472E+04  0.00000000000E+00 0. -1.
         21   -1    0    0  501  503 -0.00000000000E+00 -0.00000000000E+00 -0.43258867534E+02  0.43258867534E+02  0.00000000000E+00 0. -1.
          6    1    1    2  501    0 -0.10654885692E+03  0.42700128041E+02  0.27317040925E+03  0.34261061329E+03  0.17200000000E+03 0. -1.
         -6    1    1    2    0  502  0.10654885692E+03 -0.42700128041E+02  0.12433974704E+04  0.12604750015E+04  0.17200000000E+03 0. -1.
</event>
<event>
 4    1  0.5801298E+000  0.1831354E+03  0.7818608E-02  0.1164803E+00
         21   -1    0    0  503  502  0.00000000000E+00  0.00000000000E+00  0.38180981223E+03  0.38180981223E+03  0.00000000000E+00 0. -1.
         21   -1    0    0  501  503 -0.00000000000E+00 -0.00000000000E+00 -0.19579125976E+03  0.19579125976E+03  0.00000000000E+00 0. -1.
          6    1    1    2  501    0  0.58383409027E+01 -0.62613729534E+02 -0.12143434859E+03  0.21973817685E+03  0.17200000000E+03 0. -1.
         -6    1    1    2    0  502 -0.58383409027E+01  0.62613729534E+02  0.30745290105E+03  0.35786289513E+03  0.17200000000E+03 0. -1.
</event>
<event>
 4    1  0.5801298E+000  0.2129063E+03  0.7818608E-02  0.1139285E+00
         21   -1    0    0  503  502  0.00000000000E+00  0.00000000000E+00  0.15205611966E+03  0.15205611966E+03  0.00000000000E+00 0. -1.
         21   -1    0    0  501  503 -0.00000000000E+00 -0.00000000000E+00 -0.31284580851E+03  0.31284580851E+03  0.00000000000E+00 0. -1.
          6    1    1    2  501    0 -0.12354483013E+03  0.21949261384E+02 -0.13084790755E+03  0.24990052029E+03  0.17200000000E+03 0. -1.
         -6    1    1    2    0  502  0.12354483013E+03 -0.21949261384E+02 -0.29941781296E+02  0.21500140789E+03  0.17200000000E+03 0. -1.
</event>
<event>
 4    1  0.5801298E+000  0.1758790E+03  0.7818608E-02  0.1171852E+00
         21   -1    0    0  501  502  0.00000000000E+00  0.00000000000E+00  0.38040537103E+03  0.38040537103E+03  0.00000000000E+00 0.  1.
         21   -1    0    0  502  503 -0.00000000000E+00 -0.00000000000E+00 -0.85528872627E+02  0.85528872627E+02  0.00000000000E+00 0. -1.
          6    1    1    2  501    0  0.15131284556E+02  0.33473228852E+02  0.19913667625E+03  0.26568558232E+03  0.17200000000E+03 0. -1.
         -6    1    1    2    0  503 -0.15131284556E+02 -0.33473228852E+02  0.95739822147E+02  0.20024866134E+03  0.17200000000E+03 0.  1.
</event>
<event>
 4    1  0.5801298E+000  0.1905417E+03  0.7818608E-02  0.1157974E+00
         21   -1    0    0  503  502  0.00000000000E+00  0.00000000000E+00  0.15464328880E+04  0.15464328880E+04  0.00000000000E+00 0.  1.
         21   -1    0    0  501  503 -0.00000000000E+00 -0.00000000000E+00 -0.23477668248E+02  0.23477668248E+02  0.00000000000E+00 0.  1.
          6    1    1    2  501    0  0.80896152049E+02 -0.13340343874E+02  0.75860534658E+03  0.78216892296E+03  0.17200000000E+03 0.  1.
         -6    1    1    2    0  502 -0.80896152049E+02  0.13340343874E+02  0.76434987316E+03  0.78774163327E+03  0.17200000000E+03 0.  1.
</event>
<event>
 4    1  0.5801298E+000  0.2065765E+03  0.7818608E-02  0.1144306E+00
         21   -1    0    0  503  502  0.00000000000E+00  0.00000000000E+00  0.19095584903E+03  0.19095584903E+03  0.00000000000E+00 0. -1.
         21   -1    0    0  501  503 -0.00000000000E+00 -0.00000000000E+00 -0.24449107217E+03  0.24449107217E+03  0.00000000000E+00 0. -1.
          6    1    1    2  501    0 -0.11407060049E+03  0.88180200666E+01  0.37066004452E+02  0.20987555375E+03  0.17200000000E+03 0. -1.
         -6    1    1    2    0  502  0.11407060049E+03 -0.88180200666E+01 -0.90601227594E+02  0.22557136746E+03  0.17200000000E+03 0. -1.
</event>
<event>
 4    1  0.5801298E+000  0.1761848E+03  0.7818608E-02  0.1171547E+00
         21   -1    0    0  501  502  0.00000000000E+00  0.00000000000E+00  0.12494903456E+03  0.12494903456E+03  0.00000000000E+00 0. -1.
         21   -1    0    0  502  503 -0.00000000000E+00 -0.00000000000E+00 -0.33554064947E+03  0.33554064947E+03  0.00000000000E+00 0. -1.
          6    1    1    2  501    0  0.29852750632E+02 -0.23788530477E+02  0.12019077749E+02  0.17659427831E+03  0.17200000000E+03 0. -1.
         -6    1    1    2    0  503 -0.29852750632E+02  0.23788530477E+02 -0.22261069266E+03  0.28389540572E+03  0.17200000000E+03 0. -1.
</event>
<event>
 4    1  0.5801298E+000  0.2080532E+03  0.7818608E-02  0.1143117E+00
         21   -1    0    0  501  502  0.00000000000E+00  0.00000000000E+00  0.67367130500E+02  0.67367130500E+02  0.00000000000E+00 0. -1.
         21   -1    0    0  502  503 -0.00000000000E+00 -0.00000000000E+00 -0.64402901914E+03  0.64402901914E+03  0.00000000000E+00 0. -1.
          6    1    1    2  501    0  0.89873216624E+02  0.74999501709E+02 -0.30543042950E+03  0.36955901773E+03  0.17200000000E+03 0.  1.
         -6    1    1    2    0  503 -0.89873216624E+02 -0.74999501709E+02 -0.27123145914E+03  0.34183713191E+03  0.17200000000E+03 0.  1.
</event>
<event>
 4    1  0.5801298E+000  0.1948051E+03  0.7818608E-02  0.1154197E+00
         21   -1    0    0  503  502  0.00000000000E+00  0.00000000000E+00  0.19214922207E+02  0.19214922207E+02  0.00000000000E+00 0.  1.
         21   -1    0    0  501  503 -0.00000000000E+00 -0.00000000000E+00 -0.19807621171E+04  0.19807621171E+04  0.00000000000E+00 0. -1.
          6    1    1    2  501    0  0.91188201377E+02 -0.70532030695E+01 -0.92673269769E+03  0.94698602350E+03  0.17200000000E+03 0. -1.
         -6    1    1    2    0  502 -0.91188201377E+02  0.70532030695E+01 -0.10348144973E+04  0.10529910159E+04  0.17200000000E+03 0.  1.
</event>
<event>
 4    1  0.5801298E+000  0.1817864E+03  0.7818608E-02  0.1166085E+00
         21   -1    0    0  503  502  0.00000000000E+00  0.00000000000E+00  0.47378280420E+03  0.47378280420E+03  0.00000000000E+00 0.  1.
         21   -1    0    0  501  503 -0.00000000000E+00 -0.00000000000E+00 -0.76982914547E+02  0.76982914547E+02  0.00000000000E+00 0.  1.
          6    1    1    2  501    0  0.21525624981E+01  0.58801916816E+02  0.11398882339E+03  0.21456875542E+03  0.17200000000E+03 0. -1.
         -6    1    1    2    0  502 -0.21525624981E+01 -0.58801916816E+02  0.28281106626E+03  0.33619696332E+03  0.17200000000E+03 0. -1.
</event>
<event>
 4    1  0.5801298E+000  0.1844572E+03  0.7818608E-02  0.1163558E+00
         21   -1    0    0  501  502  0.00000000000E+00  0.00000000000E+00  0.28735283968E+03  0.28735283968E+03  0.00000000000E+00 0.  1.
         21   -1    0    0  502  503 -0.00000000000E+00 -0.00000000000E+00 -0.43525240095E+03  0.43525240095E+03  0.00000000000E+00 0.  1.
          6    1    1    2  501    0 -0.26984068432E+02 -0.60928722193E+02  0.23431546034E+03  0.29820828978E+03  0.17200000000E+03 0.  1.
         -6    1    1    2    0  503  0.26984068432E+02  0.60928722193E+02 -0.38221502162E+03  0.42439695085E+03  0.17200000000E+03 0.  1.
</event>
<event>
 4    1  0.5801298E+000  0.2002785E+03  0.7818608E-02  0.1149504E+00
         21   -1    0    0  503  502  0.00000000000E+00  0.00000000000E+00  0.22156441093E+03  0.22156441093E+03  0.00000000000E+00 0.  1.
         21   -1    0    0  501  503 -0.00000000000E+00 -0.00000000000E+00 -0.21942159014E+03  0.21942159014E+03  0.00000000000E+00 0. -1.
          6    1    1    2  501    0  0.28406645126E+02  0.98592823734E+02 -0.91149703213E+02  0.22004488355E+03  0.17200000000E+03 0. -1.
         -6    1    1    2    0  502 -0.28406645126E+02 -0.98592823734E+02  0.93292524005E+02  0.22094111753E+03  0.17200000000E+03 0.  1.
</event>
<event>
 4    1  0.5801298E+000  0.2888507E+03  0.7818608E-02  0.1090951E+00
         21   -1    0    0  503  502  0.00000000000E+00  0.00000000000E+00  0.10935735439E+03  0.10935735439E+03  0.00000000000E+00 0. -1.
         21   -1    0    0  501  503 -0.00000000000E+00 -0.00000000000E+00 -0.89529269107E+03  0.89529269107E+03  0.00000000000E+00 0.  1.
          6    1    1    2  501    0 -0.23059949854E+03 -0.25973379064E+02 -0.19984022237E+03  0.35124188193E+03  0.17200000000E+03 0. -1.
         -6    1    1    2    0  502  0.23059949854E+03  0.25973379064E+02 -0.58609511431E+03  0.65340816353E+03  0.17200000000E+03 0.  1.
</event>
<event>
 4    1  0.5801298E+000  0.1940103E+03  0.7818608E-02  0.1154893E+00
         21   -1    0    0  503  502  0.00000000000E+00  0.00000000000E+00  0.65281413866E+03  0.65281413866E+03  0.00000000000E+00 0.  1.
         21   -1    0    0  501  503 -0.00000000000E+00 -0.00000000000E+00 -0.62067282540E+02  0.62067282540E+02  0.00000000000E+00 0. -1.
          6    1    1    2  501    0  0.11273703902E+02  0.89044327796E+02  0.39064301163E+03  0.43616734317E+03  0.17200000000E+03 0. -1.
         -6    1    1    2    0  502 -0.11273703902E+02 -0.89044327796E+02  0.20010384449E+03  0.27871407803E+03  0.17200000000E+03 0. -1.
</event>
<event>
 4    1  0.5801298E+000  0.1855794E+03  0.7818608E-02  0.1162510E+00
         21   -1    0    0  503  502  0.00000000000E+00  0.00000000000E+00  0.13364964946E+03  0.13364964946E+03  0.00000000000E+00 0. -1.
         21   -1    0    0  501  503 -0.00000000000E+00 -0.00000000000E+00 -0.45717767551E+03  0.45717767551E+03  0.00000000000E+00 0.  1.
          6    1    1    2  501    0  0.53388264044E+02 -0.44781705530E+02 -0.35690564583E+03  0.40227024239E+03  0.17200000000E+03 0.  1.
         -6    1    1    2    0  502 -0.53388264044E+02  0.44781705530E+02  0.33377619778E+02  0.18855708258E+03  0.17200000000E+03 0. -1.
</event>
<event>
 4    1  0.5801298E+000  0.3129194E+03  0.7818608E-02  0.1078955E+00
         21   -1    0    0  501  502  0.00000000000E+00  0.00000000000E+00  0.58159816158E+03  0.58159816158E+03  0.00000000000E+00 0.  1.
         21   -1    0    0  502  503 -0.00000000000E+00 -0.00000000000E+00 -0.18936935448E+03  0.18936935448E+03  0.00000000000E+00 0. -1.
          6    1    1    2  501    0 -0.87839729706E+02 -0.24620871449E+03  0.32450861845E+03  0.45080416220E+03  0.17200000000E+03 0.  1.
         -6    1    1    2    0  503  0.87839729706E+02  0.24620871449E+03  0.67720188645E+02  0.32016335386E+03  0.17200000000E+03 0.  1.
</event>
<event>
 4    1  0.5801298E+000  0.2823066E+03  0.7818608E-02  0.1094436E+00
         21   -1    0    0  501  502  0.00000000000E+00  0.00000000000E+00  0.16470907065E+03  0.16470907065E+03  0.00000000000E+00 0.  1.
         21   -1    0    0  502  503 -0.00000000000E+00 -0.00000000000E+00 -0.64825318798E+03  0.64825318798E+03  0.00000000000E+00 0. -1.
          6    1    1    2  501    0 -0.12318116110E+03 -0.18692089934E+03 -0.37079135550E+02  0.28473124759E+03  0.17200000000E+03 0.  1.
         -6    1    1    2    0  503  0.12318116110E+03  0.18692089934E+03 -0.44646498178E+03  0.52823101103E+03  0.17200000000E+03 0. -1.
</event>
<event>
 4    1  0.5801298E+000  0.2566301E+03  0.7818608E-02  0.1109185E+00
         21   -1    0    0  503  502  0.00000000000E+00  0.00000000000E+00  0.30298430426E+03  0.30298430426E+03  0.00000000000E+00 0. -1.
         21   -1    0    0  501  503 -0.00000000000E+00 -0.00000000000E+00 -0.28041622612E+03  0.28041622612E+03  0.00000000000E+00 0. -1.
          6    1    1    2  501    0 -0.11993802489E+03  0.14795227912E+03 -0.12703203776E+03  0.28634969064E+03  0.17200000000E+03 0. -1.
         -6    1    1    2    0  502  0.11993802489E+03 -0.14795227912E+03  0.14960011590E+03  0.29705083974E+03  0.17200000000E+03 0. -1.
</event>
<event>
 4    1  0.5801298E+000  0.2044813E+03  0.7818608E-02  0.1146012E+00
         21   -1    0    0  503  502  0.00000000000E+00  0.00000000000E+00  0.19729142723E+04  0.19729142723E+04  0.00000000000E+00 0.  1.
         21   -1    0    0  501  503 -0.00000000000E+00 -0.00000000000E+00 -0.53422410182E+02  0.53422410182E+02  0.00000000000E+00 0. -1.
          6    1    1    2  501    0 -0.10506556506E+03 -0.34493859603E+02  0.17280178481E+03  0.26771824022E+03  0.17200000000E+03 0. -1.
         -6    1    1    2    0  502  0.10506556506E+03  0.34493859603E+02  0.17466900773E+04  0.17586184423E+04  0.17200000000E+03 0.  1.
</event>
<event>
 4    1  0.5801298E+000  0.1755751E+03  0.7818608E-02  0.1172156E+00
         21   -1    0    0  503  502  0.00000000000E+00  0.00000000000E+00  0.10389572701E+04  0.10389572701E+04  0.00000000000E+00 0.  1.
         21   -1    0    0  501  503 -0.00000000000E+00 -0.00000000000E+00 -0.36445560722E+02  0.36445560722E+02  0.00000000000E+00 0.  1.
          6    1    1    2  501    0  0.18012451465E+02  0.30301056418E+02  0.26942638189E+03  0.32158541274E+03  0.17200000000E+03 0.  1.
         -6    1    1    2    0  502 -0.18012451465E+02 -0.30301056418E+02  0.73308532748E+03  0.75381741807E+03  0.17200000000E+03 0.  1.
</event>
<event>
 4    1  0.5801298E+000  0.1841856E+03  0.7818608E-02  0.1163813E+00
         21   -1    0    0  503  502  0.00000000000E+00  0.00000000000E+00  0.11507568383E+03  0.11507568383E+03  0.00000000000E+00 0. -1.
         21   -1    0    0  501  503 -0.00000000000E+00 -0.00000000000E+00 -0.46464610021E+03  0.46464610021E+03  0.00000000000E+00 0. -1.
          6    1    1    2  501    0  0.31892814250E+02 -0.57647183217E+02 -0.35003432851E+03  0.39553556157E+03  0.17200000000E+03 0. -1.
         -6    1    1    2    0  502 -0.31892814250E+02  0.57647183217E+02  0.46391212978E+00  0.18418622247E+03  0.17200000000E+03 0. -1.
</event>
<event>
 4    1  0.5801298E+000  0.1722835E+03  0.7818608E-02  0.1175487E+00
         21   -1    0    0  501  502  0.00000000000E+00  0.00000000000E+00  0.18125374337E+03  0.18125374337E+03  0.00000000000E+00 0. -1.
         21   -1    0    0  502  503 -0.00000000000E+00 -0.00000000000E+00 -0.72109614545E+03  0.72109614545E+03  0.00000000000E+00 0. -1.
          6    1    1    2  501    0 -0.83125320220E+00 -0.98438239959E+01  0.12672939530E+03  0.21387363439E+03  0.17200000000E+03 0. -1.
         -6    1    1    2    0  503  0.83125320220E+00  0.98438239959E+01 -0.66657179738E+03  0.68847625443E+03  0.17200000000E+03 0. -1.
</event>
<event>
 4    1  0.5801298E+000  0.1747586E+03  0.7818608E-02  0.1172974E+00
         21   -1    0    0  503  502  0.00000000000E+00  0.00000000000E+00  0.33511249835E+02  0.33511249835E+02  0.00000000000E+00 0.  1.
         21   -1    0    0  501  503 -0.00000000000E+00 -0.00000000000E+00 -0.10470016904E+04  0.10470016904E+04  0.00000000000E+00 0.  1.
          6    1    1    2  501    0 -0.24090665328E+02 -0.19395871900E+02 -0.70120731119E+03  0.72265638672E+03  0.17200000000E+03 0.  1.
         -6    1    1    2    0  502  0.24090665328E+02  0.19395871900E+02 -0.31228312941E+03  0.35785655354E+03  0.17200000000E+03 0.  1.
</event>
<event>
 4    1  0.5801298E+000  0.1741397E+03  0.7818608E-02  0.1173598E+00
         21   -1    0    0  501  502  0.00000000000E+00  0.00000000000E+00  0.10630477781E+03  0.10630477781E+03  0.00000000000E+00 0.  1.
         21   -1    0    0  502  503 -0.00000000000E+00 -0.00000000000E+00 -0.28605994106E+03  0.28605994106E+03  0.00000000000E+00 0.  1.
          6    1    1    2  501    0  0.24788094557E+01  0.27101226736E+02 -0.10024459382E+03  0.20093182818E+03  0.17200000000E+03 0.  1.
         -6    1    1    2    0  503 -0.24788094557E+01 -0.27101226736E+02 -0.79510569429E+02  0.19143289069E+03  0.17200000000E+03 0.  1.
</event>
<event>
 4    1  0.5801298E+000  0.1999081E+03  0.7818608E-02  0.1149817E+00
         21   -1    0    0  501  502  0.00000000000E+00  0.00000000000E+00  0.16223259000E+03  0.16223259000E+03  0.00000000000E+00 0. -1.
         21   -1    0    0  502  503 -0.00000000000E+00 -0.00000000000E+00 -0.33568181791E+03  0.33568181791E+03  0.00000000000E+00 0.  1.
          6    1    1    2  501    0  0.25117534225E+02  0.98733705594E+02  0.41716858508E+02  0.20421442513E+03  0.17200000000E+03 0. -1.
         -6    1    1    2    0  503 -0.25117534225E+02 -0.98733705594E+02 -0.21516608641E+03  0.29369998278E+03  0.17200000000E+03 0.  1.
</event>
<event>
 4    1  0.5801298E+000  0.1820073E+03  0.7818608E-02  0.1165874E+00
         21   -1    0    0  503  502  0.00000000000E+00  0.00000000000E+00  0.65164643921E+03  0.65164643921E+03  0.00000000000E+00 0.  1.
         21   -1    0    0  501  503 -0.00000000000E+00 -0.00000000000E+00 -0.61797183073E+02  0.61797183073E+02  0.00000000000E+00 0.  1.
          6    1    1    2  501    0  0.29205923194E+02 -0.51862030440E+02  0.14468396751E+03  0.23250829363E+03  0.17200000000E+03 0.  1.
         -6    1    1    2    0  502 -0.29205923194E+02  0.51862030440E+02  0.44516528863E+03  0.48093532866E+03  0.17200000000E+03 0.  1.
</event>
<event>
 4    1  0.5801298E+000  0.1803999E+03  0.7818608E-02  0.1167417E+00
         21   -1    0    0  503  502  0.00000000000E+00  0.00000000000E+00  0.63267164714E+03  0.63267164714E+03  0.00000000000E+00 0.  1.
         21   -1    0    0  501  503 -0.00000000000E+00 -0.00000000000E+00 -0.15322306485E+03  0.15322306485E+03  0.00000000000E+00 0.  1.
          6    1    1    2  501    0 -0.42442553007E+02  0.34040551887E+02 -0.80542380623E+02  0.19756316599E+03  0.17200000000E+03 0.  1.
         -6    1    1    2    0  502  0.42442553007E+02 -0.34040551887E+02  0.55999096291E+03  0.58833154600E+03  0.17200000000E+03 0.  1.
</event>
<event>
 4    1  0.5801298E+000  0.2190934E+03  0.7818608E-02  0.1134561E+00
         21   -1    0    0  503  502  0.00000000000E+00  0.00000000000E+00  0.12963801913E+03  0.12963801913E+03  0.00000000000E+00 0.  1.
         21   -1    0    0  501  503 -0.00000000000E+00 -0.00000000000E+00 -0.41358839510E+03  0.41358839510E+03  0.00000000000E+00 0.  1.
          6    1    1    2  501    0 -0.13418085817E+03  0.20332859240E+02 -0.22987130524E+03  0.31755746698E+03  0.17200000000E+03 0.  1.
         -6    1    1    2    0  502  0.13418085817E+03 -0.20332859240E+02 -0.54079070724E+02  0.22566894725E+03  0.17200000000E+03 0.  1.
</event>
<event>
 4    1  0.5801298E+000  0.1766816E+03  0.7818608E-02  0.1171054E+00
         21   -1    0    0  501  502  0.00000000000E+00  0.00000000000E+00  0.23132842744E+03  0.23132842744E+03  0.00000000000E+00 0.  1.
         21   -1    0    0  502  503 -0.00000000000E+00 -0.00000000000E+00 -0.30036082516E+03  0.30036082516E+03  0.00000000000E+00 0.  1.
          6    1    1    2  501    0  0.12887214315E+02 -0.38292542926E+02  0.16276967619E+03  0.24022982043E+03  0.17200000000E+03 0.  1.
         -6    1    1    2    0  503 -0.12887214315E+02  0.38292542926E+02 -0.23180207391E+03  0.29145943218E+03  0.17200000000E+03 0.  1.
</event>
<event>
 4    1  0.5801298E+000  0.1838298E+03  0.7818608E-02  0.1164147E+00
         21   -1    0    0  503  502  0.00000000000E+00  0.00000000000E+00  0.73799340340E+03  0.73799340340E+03  0.00000000000E+00 0.  1.
         21   -1    0    0  501  503 -0.00000000000E+00 -0.00000000000E+00 -0.48503647305E+02  0.48503647305E+02  0.00000000000E+00 0.  1.
          6    1    1    2  501    0 -0.47928555571E+02 -0.43729355742E+02  0.43774474178E+03  0.47477769740E+03  0.17200000000E+03 0.  1.
         -6    1    1    2    0  502  0.47928555571E+02  0.43729355742E+02  0.25174501431E+03  0.31171935330E+03  0.17200000000E+03 0.  1.
</event>
<event>
 4    1  0.5801298E+000  0.1780822E+03  0.7818608E-02  0.1169672E+00
         21   -1    0    0  501  502  0.00000000000E+00  0.00000000000E+00  0.51442219581E+03  0.51442219581E+03  0.00000000000E+00 0. -1.
         21   -1    0    0  502  503 -0.00000000000E+00 -0.00000000000E+00 -0.65907291362E+02  0.65907291362E+02  0.00000000000E+00 0. -1.
          6    1    1    2  501    0 -0.41922538774E+02  0.19281766672E+02  0.29801867807E+03  0.34717202978E+03  0.17200000000E+03 0. -1.
         -6    1    1    2    0  503  0.41922538774E+02 -0.19281766672E+02  0.15049622638E+03  0.23315745739E+03  0.17200000000E+03 0. -1.
</event>
<event>
 4    1  0.5801298E+000  0.1811792E+03  0.7818608E-02  0.1166667E+00
         21   -1    0    0  501  502  0.00000000000E+00  0.00000000000E+00  0.13614657377E+04  0.13614657377E+04  0.00000000000E+00 0. -1.
         21   -1    0    0  502  503 -0.00000000000E+00 -0.00000000000E+00 -0.37929338261E+02  0.37929338261E+02  0.00000000000E+00 0. -1.
          6    1    1    2  501    0 -0.56854471790E+02 -0.30801975198E+01  0.10841012117E+04  0.10991366411E+04  0.17200000000E+03 0. -1.
         -6    1    1    2    0  503  0.56854471790E+02  0.30801975198E+01  0.23943518771E+03  0.30025843484E+03  0.17200000000E+03 0. -1.
</event>
<event>
 4    1  0.5801298E+000  0.1769028E+03  0.7818608E-02  0.1170835E+00
         21   -1    0    0  503  502  0.00000000000E+00  0.00000000000E+00  0.85774232994E+03  0.85774232994E+03  0.00000000000E+00 0.  1.
         21   -1    0    0  501  503 -0.00000000000E+00 -0.00000000000E+00 -0.41155097087E+02  0.41155097087E+02  0.00000000000E+00 0.  1.
          6    1    1    2  501    0 -0.35474118811E+02 -0.21264945762E+02  0.25688950411E+03  0.31190836530E+03  0.17200000000E+03 0.  1.
         -6    1    1    2    0  502  0.35474118811E+02  0.21264945762E+02  0.55969772874E+03  0.58698906172E+03  0.17200000000E+03 0.  1.
</event>
<event>
 4    1  0.5801298E+000  0.1734591E+03  0.7818608E-02  0.1174288E+00
         21   -1    0    0  503  502  0.00000000000E+00  0.00000000000E+00  0.11736824135E+03  0.11736824135E+03  0.00000000000E+00 0.  1.
         21   -1    0    0  501  503 -0.00000000000E+00 -0.00000000000E+00 -0.74516591992E+03  0.74516591992E+03  0.00000000000E+00 0.  1.
          6    1    1    2  501    0  0.21656511936E+02 -0.59206017855E+01 -0.66319177535E+03  0.68550083073E+03  0.17200000000E+03 0.  1.
         -6    1    1    2    0  502 -0.21656511936E+02  0.59206017855E+01  0.35394096784E+02  0.17703333054E+03  0.17200000000E+03 0.  1.
</event>
<event>
 4    1  0.5801298E+000  0.1993257E+03  0.7818608E-02  0.1150309E+00
         21   -1    0    0  503  502  0.00000000000E+00  0.00000000000E+00  0.95188625652E+02  0.95188625652E+02  0.00000000000E+00 0. -1.
         21   -1    0    0  501  503 -0.00000000000E+00 -0.00000000000E+00 -0.60949334151E+03  0.60949334151E+03  0.00000000000E+00 0. -1.
          6    1    1    2  501    0  0.10072369340E+03 -0.12105841126E+01 -0.45496168389E+03  0.49671003788E+03  0.17200000000E+03 0. -1.
         -6    1    1    2    0  502 -0.10072369340E+03  0.12105841126E+01 -0.59343031968E+02  0.20797192928E+03  0.17200000000E+03 0. -1.
</event>
<event>
 4    1  0.5801298E+000  0.1944051E+03  0.7818608E-02  0.1154547E+00
         21   -1    0    0  501  502  0.00000000000E+00  0.00000000000E+00  0.67563648113E+02  0.67563648113E+02  0.00000000000E+00 0. -1.
         21   -1    0    0  502  503 -0.00000000000E+00 -0.00000000000E+00 -0.64429078223E+03  0.64429078223E+03  0.00000000000E+00 0. -1.
          6    1    1    2  501    0  0.37991018908E+02  0.82255915112E+02 -0.15914741223E+03  0.25123943144E+03  0.17200000000E+03 0. -1.
         -6    1    1    2    0  503 -0.37991018908E+02 -0.82255915112E+02 -0.41757972188E+03  0.46061499891E+03  0.17200000000E+03 0. -1.
</event>
<event>
 4    1  0.5801298E+000  0.2379074E+03  0.7818608E-02  0.1121195E+00
         21   -1    0    0  503  502  0.00000000000E+00  0.00000000000E+00  0.11854380071E+04  0.11854380071E+04  0.00000000000E+00 0. -1.
         21   -1    0    0  501  503 -0.00000000000E+00 -0.00000000000E+00 -0.55175065444E+02  0.55175065444E+02  0.00000000000E+00 0. -1.
          6    1    1    2  501    0 -0.53914692534E+01  0.16427683153E+03  0.79274678206E+03  0.82767590625E+03  0.17200000000E+03 0. -1.
         -6    1    1    2    0  502  0.53914692534E+01 -0.16427683153E+03  0.33751615959E+03  0.41293716629E+03  0.17200000000E+03 0. -1.
</event>
<event>
 4    1  0.5801298E+000  0.3288767E+03  0.7818608E-02  0.1071635E+00
         21   -1    0    0  501  502  0.00000000000E+00  0.00000000000E+00  0.26807783412E+03  0.26807783412E+03  0.00000000000E+00 0.  1.
         21   -1    0    0  502  503 -0.00000000000E+00 -0.00000000000E+00 -0.40844287868E+03  0.40844287868E+03  0.00000000000E+00 0. -1.
          6    1    1    2  501    0 -0.28031266845E+03 -0.83738580372E+00 -0.32837841588E+02  0.33051205296E+03  0.17200000000E+03 0.  1.
         -6    1    1    2    0  503  0.28031266845E+03  0.83738580372E+00 -0.10752720297E+03  0.34600865985E+03  0.17200000000E+03 0.  1.
</event>
<event>
 4    1  0.5801298E+000  0.1793970E+03  0.7818608E-02  0.1168388E+00
         21   -1    0    0  503  502  0.00000000000E+00  0.00000000000E+00  0.23984206188E+03  0.23984206188E+03  0.00000000000E+00 0. -1.
         21   -1    0    0  501  503 -0.00000000000E+00 -0.00000000000E+00 -0.13650233100E+03  0.13650233100E+03  0.00000000000E+00 0. -1.
          6    1    1    2  501    0 -0.11379675879E+01 -0.50970620841E+02  0.27154211911E+02  0.18144048717E+03  0.17200000000E+03 0. -1.
         -6    1    1    2    0  502  0.11379675879E+01  0.50970620841E+02  0.76185518974E+02  0.19490390571E+03  0.17200000000E+03 0. -1.
</event>
<event>
 4    1  0.5801298E+000  0.4235454E+03  0.7818608E-02  0.1035919E+00
         21   -1    0    0  503  502  0.00000000000E+00  0.00000000000E+00  0.17846896159E+03  0.17846896159E+03  0.00000000000E+00 0.  1.
         21   -1    0    0  501  503 -0.00000000000E+00 -0.00000000000E+00 -0.11559810760E+04  0.11559810760E+04  0.00000000000E+00 0. -1.
          6    1    1    2  501    0  0.15270478382E+03 -0.35565149484E+03 -0.24775390782E+03  0.49068598474E+03  0.17200000000E+03 0.  1.
         -6    1    1    2    0  502 -0.15270478382E+03  0.35565149484E+03 -0.72975820660E+03  0.84376405285E+03  0.17200000000E+03 0. -1.
</event>
<event>
 4    1  0.5801298E+000  0.1996763E+03  0.7818608E-02  0.1150012E+00
         21   -1    0    0  501  502  0.00000000000E+00  0.00000000000E+00  0.10489738208E+03  0.10489738208E+03  0.00000000000E+00 0. -1.
         21   -1    0    0  502  503 -0.00000000000E+00 -0.00000000000E+00 -0.98413969921E+03  0.98413969921E+03  0.00000000000E+00 0. -1.
          6    1    1    2  501    0 -0.90769156491E+02 -0.45250294968E+02 -0.13021989351E+02  0.20010047769E+03  0.17200000000E+03 0. -1.
         -6    1    1    2    0  503  0.90769156491E+02  0.45250294968E+02 -0.86622032778E+03  0.88893660360E+03  0.17200000000E+03 0. -1.
</event>
<event>
 4    1  0.5801298E+000  0.2304375E+03  0.7818608E-02  0.1126332E+00
         21   -1    0    0  501  502  0.00000000000E+00  0.00000000000E+00  0.65323759739E+03  0.65323759739E+03  0.00000000000E+00 0. -1.
         21   -1    0    0  502  503 -0.00000000000E+00 -0.00000000000E+00 -0.22639381130E+03  0.22639381130E+03  0.00000000000E+00 0. -1.
          6    1    1    2  501    0  0.11821009605E+03 -0.97692536573E+02  0.56553191325E+03  0.61067815043E+03  0.17200000000E+03 0. -1.
         -6    1    1    2    0  503 -0.11821009605E+03  0.97692536573E+02 -0.13868812716E+03  0.26895325825E+03  0.17200000000E+03 0. -1.
</event>
<event>
 4    1  0.5801298E+000  0.3191166E+03  0.7818608E-02  0.1076057E+00
         21   -1    0    0  501  502  0.00000000000E+00  0.00000000000E+00  0.85038684882E+03  0.85038684882E+03  0.00000000000E+00 0.  1.
         21   -1    0    0  502  503 -0.00000000000E+00 -0.00000000000E+00 -0.31515080055E+03  0.31515080055E+03  0.00000000000E+00 0. -1.
          6    1    1    2  501    0  0.19200147477E+03 -0.18811395165E+03  0.72649702305E+03  0.79349439167E+03  0.17200000000E+03 0.  1.
         -6    1    1    2    0  503 -0.19200147477E+03  0.18811395165E+03 -0.19126097478E+03  0.37204325769E+03  0.17200000000E+03 0. -1.
</event>
<event>
 4    1  0.5801298E+000  0.2020396E+03  0.7818608E-02  0.1148029E+00
         21   -1    0    0  501  502  0.00000000000E+00  0.00000000000E+00  0.77503445207E+03  0.77503445207E+03  0.00000000000E+00 0. -1.
         21   -1    0    0  502  503 -0.00000000000E+00 -0.00000000000E+00 -0.72055963099E+02  0.72055963099E+02  0.00000000000E+00 0. -1.
          6    1    1    2  501    0  0.10598295546E+03 -0.19056502569E+01  0.57118598801E+03  0.60586586903E+03  0.17200000000E+03 0.  1.
         -6    1    1    2    0  503 -0.10598295546E+03  0.19056502569E+01  0.13179250096E+03  0.24122454614E+03  0.17200000000E+03 0.  1.
</event>
<event>
 4    1  0.5801298E+000  0.2170664E+03  0.7818608E-02  0.1136089E+00
         21   -1    0    0  501  502  0.00000000000E+00  0.00000000000E+00  0.13889341398E+03  0.13889341398E+03  0.00000000000E+00 0.  1.
         21   -1    0    0  502  503 -0.00000000000E+00 -0.00000000000E+00 -0.52083578391E+03  0.52083578391E+03  0.00000000000E+00 0. -1.
          6    1    1    2  501    0 -0.80057464688E+02  0.10547331241E+03  0.38075284922E+01  0.21709978018E+03  0.17200000000E+03 0.  1.
         -6    1    1    2    0  503  0.80057464688E+02 -0.10547331241E+03 -0.38574989843E+03  0.44262941771E+03  0.17200000000E+03 0. -1.
</event>
<event>
 4    1  0.5801298E+000  0.2147384E+03  0.7818608E-02  0.1137868E+00
         21   -1    0    0  503  502  0.00000000000E+00  0.00000000000E+00  0.13035926549E+03  0.13035926549E+03  0.00000000000E+00 0.  1.
         21   -1    0    0  501  503 -0.00000000000E+00 -0.00000000000E+00 -0.39051463013E+03  0.39051463013E+03  0.00000000000E+00 0. -1.
          6    1    1    2  501    0  0.39147609511E+02  0.12245831508E+03 -0.21000410256E+03  0.30035694990E+03  0.17200000000E+03 0. -1.
         -6    1    1    2    0  502 -0.39147609511E+02 -0.12245831508E+03 -0.50151262076E+02  0.22051694572E+03  0.17200000000E+03 0.  1.
</event>
<event>
 4    1  0.5801298E+000  0.1721677E+03  0.7818608E-02  0.1175606E+00
         21   -1    0    0  501  502  0.00000000000E+00  0.00000000000E+00  0.22980833549E+03  0.22980833549E+03  0.00000000000E+00 0. -1.
         21   -1    0    0  502  503 -0.00000000000E+00 -0.00000000000E+00 -0.12990473882E+03  0.12990473882E+03  0.00000000000E+00 0. -1.
          6    1    1    2  501    0 -0.22245698569E+01 -0.72647198782E+01  0.34814370812E+02  0.17565239902E+03  0.17200000000E+03 0.  1.
         -6    1    1    2    0  503  0.22245698569E+01  0.72647198782E+01  0.65089225853E+02  0.18406067529E+03  0.17200000000E+03 0.  1.
</event>
<event>
 4    1  0.5801298E+000  0.1942851E+03  0.7818608E-02  0.1154652E+00
         21   -1    0    0  503  502  0.00000000000E+00  0.00000000000E+00  0.47954037030E+03  0.47954037030E+03  0.00000000000E+00 0.  1.
         21   -1    0    0  501  503 -0.00000000000E+00 -0.00000000000E+00 -0.86569149997E+02  0.86569149997E+02  0.00000000000E+00 0.  1.
          6    1    1    2  501    0 -0.87715466573E+02  0.21649753827E+02  0.11122349847E+03  0.22386911696E+03  0.17200000000E+03 0.  1.
         -6    1    1    2    0  502  0.87715466573E+02 -0.21649753827E+02  0.28174772183E+03  0.34224040333E+03  0.17200000000E+03 0.  1.
</event>
<event>
 4    1  0.5801298E+000  0.3202440E+03  0.7818608E-02  0.1075537E+00
         21   -1    0    0  503  502  0.00000000000E+00  0.00000000000E+00  0.18857304319E+04  0.18857304319E+04  0.00000000000E+00 0. -1.
         21   -1    0    0  501  503 -0.00000000000E+00 -0.00000000000E+00 -0.64075838711E+02  0.64075838711E+02  0.00000000000E+00 0. -1.
          6    1    1    2  501    0  0.16149501036E+03 -0.21654465757E+03  0.12899552098E+04  0.13291127380E+04  0.17200000000E+03 0. -1.
         -6    1    1    2    0  502 -0.16149501036E+03  0.21654465757E+03  0.53169938338E+03  0.62069353258E+03  0.17200000000E+03 0. -1.
</event>
<event>
 4    1  0.5801298E+000  0.1783492E+03  0.7818608E-02  0.1169410E+00
         21   -1    0    0  503  502  0.00000000000E+00  0.00000000000E+00  0.63380954404E+03  0.63380954404E+03  0.00000000000E+00 0. -1.
         21   -1    0    0  501  503 -0.00000000000E+00 -0.00000000000E+00 -0.50781472073E+02  0.50781472073E+02  0.00000000000E+00 0. -1.
          6    1    1    2  501    0 -0.46236413646E+02 -0.93071532005E+01  0.32857723062E+03  0.37386016842E+03  0.17200000000E+03 0. -1.
         -6    1    1    2    0  502  0.46236413646E+02  0.93071532005E+01  0.25445084134E+03  0.31073084769E+03  0.17200000000E+03 0. -1.
</event>
<event>
 4    1  0.5801298E+000  0.1953046E+03  0.7818608E-02  0.1153762E+00
         21   -1    0    0  503  502  0.00000000000E+00  0.00000000000E+00  0.38888229903E+03  0.38888229903E+03  0.00000000000E+00 0. -1.
         21   -1    0    0  501  503 -0.00000000000E+00 -0.00000000000E+00 -0.23925582966E+03  0.23925582966E+03  0.00000000000E+00 0. -1.
          6    1    1    2  501    0 -0.92055638131E+02 -0.92538616415E+01 -0.16643546384E+03  0.25660210071E+03  0.17200000000E+03 0. -1.
         -6    1    1    2    0  502  0.92055638131E+02  0.92538616415E+01  0.31606193320E+03  0.37153602798E+03  0.17200000000E+03 0. -1.
</event>
<event>
 4    1  0.5801298E+000  0.1994408E+03  0.7818608E-02  0.1150212E+00
         21   -1    0    0  503  502  0.00000000000E+00  0.00000000000E+00  0.39843871670E+03  0.39843871670E+03  0.00000000000E+00 0.  1.
         21   -1    0    0  501  503 -0.00000000000E+00 -0.00000000000E+00 -0.17638246456E+03  0.17638246456E+03  0.00000000000E+00 0.  1.
          6    1    1    2  501    0  0.90894499073E+02 -0.43941074844E+02 -0.78315703777E+02  0.21426613703E+03  0.17200000000E+03 0.  1.
         -6    1    1    2    0  502 -0.90894499073E+02  0.43941074844E+02  0.30037195592E+03  0.36055504423E+03  0.17200000000E+03 0.  1.
</event>
<event>
 4    1  0.5801298E+000  0.1749822E+03  0.7818608E-02  0.1172750E+00
         21   -1    0    0  501  502  0.00000000000E+00  0.00000000000E+00  0.12754454308E+04  0.12754454308E+04  0.00000000000E+00 0.  1.
         21   -1    0    0  502  503 -0.00000000000E+00 -0.00000000000E+00 -0.10939530862E+03  0.10939530862E+03  0.00000000000E+00 0.  1.
          6    1    1    2  501    0 -0.91296974756E+01  0.30845030612E+02  0.11947714146E+04  0.12075170808E+04  0.17200000000E+03 0.  1.
         -6    1    1    2    0  503  0.91296974756E+01 -0.30845030612E+02 -0.28721292371E+02  0.17732365867E+03  0.17200000000E+03 0.  1.
</event>
<event>
 4    1  0.5801298E+000  0.1757554E+03  0.7818608E-02  0.1171975E+00
         21   -1    0    0  503  502  0.00000000000E+00  0.00000000000E+00  0.10005431195E+04  0.10005431195E+04  0.00000000000E+00 0. -1.
         21   -1    0    0  501  503 -0.00000000000E+00 -0.00000000000E+00 -0.35120795073E+02  0.35120795073E+02  0.00000000000E+00 0. -1.
          6    1    1    2  501    0  0.90909556880E+00  0.36126596255E+02  0.30262565386E+03  0.34996034602E+03  0.17200000000E+03 0. -1.
         -6    1    1    2    0  502 -0.90909556880E+00 -0.36126596255E+02  0.66279667053E+03  0.68570356852E+03  0.17200000000E+03 0. -1.
</event>
<event>
 4    1  0.5801298E+000  0.2482859E+03  0.7818608E-02  0.1114393E+00
         21   -1    0    0  503  502  0.00000000000E+00  0.00000000000E+00  0.53455742762E+02  0.53455742762E+02  0.00000000000E+00 0.  1.
         21   -1    0    0  501  503 -0.00000000000E+00 -0.00000000000E+00 -0.12145574417E+04  0.12145574417E+04  0.00000000000E+00 0. -1.
          6    1    1    2  501    0  0.10523478198E+03  0.14487070569E+03 -0.72303639686E+03  0.76447858825E+03  0.17200000000E+03 0. -1.
         -6    1    1    2    0  502 -0.10523478198E+03 -0.14487070569E+03 -0.43806530209E+03  0.50353459623E+03  0.17200000000E+03 0.  1.
</event>
<event>
 4    1  0.5801298E+000  0.2137194E+03  0.7818608E-02  0.1138654E+00
         21   -1    0    0  501  502  0.00000000000E+00  0.00000000000E+00  0.45465877226E+03  0.45465877226E+03  0.00000000000E+00 0. -1.
         21   -1    0    0  502  503 -0.00000000000E+00 -0.00000000000E+00 -0.35063129267E+03  0.35063129267E+03  0.00000000000E+00 0. -1.
          6    1    1    2  501    0  0.12196010214E+03 -0.34895681096E+02  0.39211944916E+03  0.44657993404E+03  0.17200000000E+03 0. -1.
         -6    1    1    2    0  503 -0.12196010214E+03  0.34895681096E+02 -0.28809196957E+03  0.35871013089E+03  0.17200000000E+03 0. -1.
</event>
<event>
 4    1  0.5801298E+000  0.1846721E+03  0.7818608E-02  0.1163356E+00
         21   -1    0    0  501  502  0.00000000000E+00  0.00000000000E+00  0.24977312486E+03  0.24977312486E+03  0.00000000000E+00 0. -1.
         21   -1    0    0  502  503 -0.00000000000E+00 -0.00000000000E+00 -0.14864232571E+03  0.14864232571E+03  0.00000000000E+00 0. -1.
          6    1    1    2  501    0  0.55969706397E+02 -0.37244698638E+02  0.10740972034E+03  0.21363666266E+03  0.17200000000E+03 0.  1.
         -6    1    1    2    0  503 -0.55969706397E+02  0.37244698638E+02 -0.62789211939E+01  0.18477878791E+03  0.17200000000E+03 0.  1.
</event>
<event>
 4    1  0.5801298E+000  0.1850740E+03  0.7818608E-02  0.1162981E+00
         21   -1    0    0  501  502  0.00000000000E+00  0.00000000000E+00  0.38903500558E+03  0.38903500558E+03  0.00000000000E+00 0. -1.
         21   -1    0    0  502  503 -0.00000000000E+00 -0.00000000000E+00 -0.95736716499E+02  0.95736716499E+02  0.00000000000E+00 0.  1.
          6    1    1    2  501    0 -0.35102837841E+02 -0.58618945362E+02  0.21535503214E+03  0.28395453835E+03  0.17200000000E+03 0. -1.
         -6    1    1    2    0  503  0.35102837841E+02  0.58618945362E+02  0.77943256941E+02  0.20081718373E+03  0.17200000000E+03 0.  1.
</event>
<event>
 4    1  0.5801298E+000  0.4295802E+03  0.7818608E-02  0.1033993E+00
         21   -1    0    0  503  502  0.00000000000E+00  0.00000000000E+00  0.30142139724E+03  0.30142139724E+03  0.00000000000E+00 0.  1.
         21   -1    0    0  501  503 -0.00000000000E+00 -0.00000000000E+00 -0.70791239394E+03  0.70791239394E+03  0.00000000000E+00 0.  1.
          6    1    1    2  501    0 -0.90961862470E+02 -0.38298967295E+03 -0.38878296316E+03  0.57938876625E+03  0.17200000000E+03 0.  1.
         -6    1    1    2    0  502  0.90961862470E+02  0.38298967295E+03 -0.17708033536E+02  0.42994502493E+03  0.17200000000E+03 0.  1.
</event>
<event>
 4    1  0.5801298E+000  0.1992822E+03  0.7818608E-02  0.1150346E+00
         21   -1    0    0  501  502  0.00000000000E+00  0.00000000000E+00  0.62013779708E+02  0.62013779708E+02  0.00000000000E+00 0. -1.
         21   -1    0    0  502  503 -0.00000000000E+00 -0.00000000000E+00 -0.77875825671E+03  0.77875825671E+03  0.00000000000E+00 0. -1.
          6    1    1    2  501    0 -0.93598309736E+02  0.36996867630E+02 -0.53556862262E+03  0.57144305170E+03  0.17200000000E+03 0. -1.
         -6    1    1    2    0  503  0.93598309736E+02 -0.36996867630E+02 -0.18117585439E+03  0.26932898472E+03  0.17200000000E+03 0. -1.
</event>
<event>
 4    1  0.5801298E+000  0.2125500E+03  0.7818608E-02  0.1139562E+00
         21   -1    0    0  501  502  0.00000000000E+00  0.00000000000E+00  0.44636780888E+03  0.44636780888E+03  0.00000000000E+00 0.  1.
         21   -1    0    0  502  503 -0.00000000000E+00 -0.00000000000E+00 -0.17794054938E+03  0.17794054938E+03  0.00000000000E+00 0.  1.
          6    1    1    2  501    0  0.92751626618E+02  0.83609916631E+02  0.33919390045E+03  0.40028737740E+03  0.17200000000E+03 0.  1.
         -6    1    1    2    0  503 -0.92751626618E+02 -0.83609916631E+02 -0.70766640951E+02  0.22402098087E+03  0.17200000000E+03 0.  1.
</event>
<event>
 4    1  0.5801298E+000  0.2026676E+03  0.7818608E-02  0.1147508E+00
         21   -1    0    0  501  502  0.00000000000E+00  0.00000000000E+00  0.23800327950E+03  0.23800327950E+03  0.00000000000E+00 0. -1.
         21   -1    0    0  502  503 -0.00000000000E+00 -0.00000000000E+00 -0.40486997006E+03  0.40486997006E+03  0.00000000000E+00 0. -1.
          6    1    1    2  501    0 -0.14559843104E+02 -0.10619863025E+03  0.16004180528E+03  0.25823926412E+03  0.17200000000E+03 0. -1.
         -6    1    1    2    0  503  0.14559843104E+02  0.10619863025E+03 -0.32690849584E+03  0.38463398543E+03  0.17200000000E+03 0. -1.
</event>
<event>
 4    1  0.5801298E+000  0.2257773E+03  0.7818608E-02  0.1129648E+00
         21   -1    0    0  503  502  0.00000000000E+00  0.00000000000E+00  0.15740605421E+04  0.15740605421E+04  0.00000000000E+00 0. -1.
         21   -1    0    0  501  503 -0.00000000000E+00 -0.00000000000E+00 -0.41541467989E+02  0.41541467989E+02  0.00000000000E+00 0. -1.
          6    1    1    2  501    0  0.42749143006E+02  0.13987108434E+03  0.38700078318E+03  0.44804577405E+03  0.17200000000E+03 0. -1.
         -6    1    1    2    0  502 -0.42749143006E+02 -0.13987108434E+03  0.11455182910E+04  0.11675562361E+04  0.17200000000E+03 0. -1.
</event>
<event>
 4    1  0.5801298E+000  0.1786869E+03  0.7818608E-02  0.1169080E+00
         21   -1    0    0  501  502  0.00000000000E+00  0.00000000000E+00  0.14560584643E+04  0.14560584643E+04  0.00000000000E+00 0. -1.
         21   -1    0    0  502  503 -0.00000000000E+00 -0.00000000000E+00 -0.82900635027E+02  0.82900635027E+02  0.00000000000E+00 0.  1.
          6    1    1    2  501    0  0.64445309396E+01  0.47994374518E+02  0.13464883075E+04  0.13582929559E+04  0.17200000000E+03 0. -1.
         -6    1    1    2    0  503 -0.64445309396E+01 -0.47994374518E+02  0.26669521759E+02  0.18066614336E+03  0.17200000000E+03 0.  1.
</event>
<event>
 4    1  0.5801298E+000  0.1824326E+03  0.7818608E-02  0.1165469E+00
         21   -1    0    0  503  502  0.00000000000E+00  0.00000000000E+00  0.20753635448E+03  0.20753635448E+03  0.00000000000E+00 0.  1.
         21   -1    0    0  501  503 -0.00000000000E+00 -0.00000000000E+00 -0.17004377247E+03  0.17004377247E+03  0.00000000000E+00 0.  1.
          6    1    1    2  501    0 -0.20526694435E+02  0.57239151687E+02 -0.26293699759E+02  0.18431772654E+03  0.17200000000E+03 0.  1.
         -6    1    1    2    0  502  0.20526694435E+02 -0.57239151687E+02  0.63786281773E+02  0.19326240041E+03  0.17200000000E+03 0.  1.
</event>
<event>
 4    1  0.5801298E+000  0.2042201E+03  0.7818608E-02  0.1146227E+00
         21   -1    0    0  501  502  0.00000000000E+00  0.00000000000E+00  0.58732190759E+03  0.58732190759E+03  0.00000000000E+00 0.  1.
         21   -1    0    0  502  503 -0.00000000000E+00 -0.00000000000E+00 -0.72386997369E+02  0.72386997369E+02  0.00000000000E+00 0. -1.
          6    1    1    2  501    0  0.10680947756E+03 -0.26713300777E+02  0.21197681673E+03  0.29434679506E+03  0.17200000000E+03 0. -1.
         -6    1    1    2    0  503 -0.10680947756E+03  0.26713300777E+02  0.30295809350E+03  0.36536210990E+03  0.17200000000E+03 0. -1.
</event>
<event>
 4    1  0.5801298E+000  0.1902353E+03  0.7818608E-02  0.1158249E+00
         21   -1    0    0  503  502  0.00000000000E+00  0.00000000000E+00  0.36164782775E+03  0.36164782775E+03  0.00000000000E+00 0.  1.
         21   -1    0    0  501  503 -0.00000000000E+00 -0.00000000000E+00 -0.11823721461E+03  0.11823721461E+03  0.00000000000E+00 0.  1.
          6    1    1    2  501    0 -0.79770545422E+02 -0.15560308924E+02  0.27647405747E+02  0.19223382162E+03  0.17200000000E+03 0.  1.
         -6    1    1    2    0  502  0.79770545422E+02  0.15560308924E+02  0.21576320739E+03  0.28765122074E+03  0.17200000000E+03 0.  1.
</event>
<event>
 4    1  0.5801298E+000  0.3371288E+03  0.7818608E-02  0.1068025E+00
         21   -1    0    0  503  502  0.00000000000E+00  0.00000000000E+00  0.15335516583E+04  0.15335516583E+04  0.00000000000E+00 0.  1.
         21   -1    0    0  501  503 -0.00000000000E+00 -0.00000000000E+00 -0.46781860787E+03  0.46781860787E+03  0.00000000000E+00 0. -1.
          6    1    1    2  501    0 -0.22780529828E+02  0.28905518157E+03 -0.38513752376E+03  0.51184642495E+03  0.17200000000E+03 0. -1.
         -6    1    1    2    0  502  0.22780529828E+02 -0.28905518157E+03  0.14508705742E+04  0.14895238412E+04  0.17200000000E+03 0.  1.
</event>
<event>
 4    1  0.5801298E+000  0.1781374E+03  0.7818608E-02  0.1169618E+00
         21   -1    0    0  501  502  0.00000000000E+00  0.00000000000E+00  0.17308228223E+03  0.17308228223E+03  0.00000000000E+00 0. -1.
         21   -1    0    0  502  503 -0.00000000000E+00 -0.00000000000E+00 -0.18849518598E+03  0.18849518598E+03  0.00000000000E+00 0.  1.
          6    1    1    2  501    0 -0.28392554879E+02  0.36644198792E+02  0.22191151691E+02  0.17951429383E+03  0.17200000000E+03 0.  1.
         -6    1    1    2    0  503  0.28392554879E+02 -0.36644198792E+02 -0.37604055447E+02  0.18206317438E+03  0.17200000000E+03 0.  1.
</event>
<event>
 4    1  0.5801298E+000  0.1921349E+03  0.7818608E-02  0.1156550E+00
         21   -1    0    0  503  502  0.00000000000E+00  0.00000000000E+00  0.43942647489E+03  0.43942647489E+03  0.00000000000E+00 0.  1.
         21   -1    0    0  501  503 -0.00000000000E+00 -0.00000000000E+00 -0.15190589952E+03  0.15190589952E+03  0.00000000000E+00 0. -1.
          6    1    1    2  501    0 -0.67632411250E+02 -0.52513570448E+02 -0.53908921658E+02  0.19955447869E+03  0.17200000000E+03 0. -1.
         -6    1    1    2    0  502  0.67632411250E+02  0.52513570448E+02  0.34142949703E+03  0.39177789572E+03  0.17200000000E+03 0.  1.
</event>
<event>
 4    1  0.5801298E+000  0.1949801E+03  0.7818608E-02  0.1154045E+00
         21   -1    0    0  503  502  0.00000000000E+00  0.00000000000E+00  0.72947976273E+03  0.72947976273E+03  0.00000000000E+00 0. -1.
         21   -1    0    0  501  503 -0.00000000000E+00 -0.00000000000E+00 -0.86646930887E+02  0.86646930887E+02  0.00000000000E+00 0.  1.
          6    1    1    2  501    0  0.33088753292E+02 -0.85664200423E+02  0.63809140063E+02  0.20515561699E+03  0.17200000000E+03 0.  1.
         -6    1    1    2    0  502 -0.33088753292E+02  0.85664200423E+02  0.57902369178E+03  0.61097107663E+03  0.17200000000E+03 0. -1.
</event>
<event>
 4    1  0.5801298E+000  0.3442538E+03  0.7818608E-02  0.1064999E+00
         21   -1    0    0  501  502  0.00000000000E+00  0.00000000000E+00  0.38621636547E+03  0.38621636547E+03  0.00000000000E+00 0. -1.
         21   -1    0    0  502  503 -0.00000000000E+00 -0.00000000000E+00 -0.31098453757E+03  0.31098453757E+03  0.00000000000E+00 0.  1.
          6    1    1    2  501    0  0.28876309476E+03 -0.74448407760E+02 -0.25765855115E+01  0.34426345886E+03  0.17200000000E+03 0. -1.
         -6    1    1    2    0  503 -0.28876309476E+03  0.74448407760E+02  0.77808413410E+02  0.35293744419E+03  0.17200000000E+03 0.  1.
</event>
<event>
 4    1  0.5801298E+000  0.2374787E+03  0.7818608E-02  0.1121484E+00
         21   -1    0    0  503  502  0.00000000000E+00  0.00000000000E+00  0.20537776449E+03  0.20537776449E+03  0.00000000000E+00 0. -1.
         21   -1    0    0  501  503 -0.00000000000E+00 -0.00000000000E+00 -0.34339148254E+03  0.34339148254E+03  0.00000000000E+00 0. -1.
          6    1    1    2  501    0 -0.10415817083E+03 -0.12634557673E+03  0.53805377617E+02  0.24349773710E+03  0.17200000000E+03 0. -1.
         -6    1    1    2    0  502  0.10415817083E+03  0.12634557673E+03 -0.19181909567E+03  0.30527150993E+03  0.17200000000E+03 0. -1.
</event>
<event>
 4    1  0.5801298E+000  0.2200067E+03  0.7818608E-02  0.1133878E+00
         21   -1    0    0  503  502  0.00000000000E+00  0.00000000000E+00  0.64206574893E+02  0.64206574893E+02  0.00000000000E+00 0.  1.
         21   -1    0    0  501  503 -0.00000000000E+00 -0.00000000000E+00 -0.81413437549E+03  0.81413437549E+03  0.00000000000E+00 0.  1.
          6    1    1    2  501    0 -0.87720677563E+02  0.10547054109E+03 -0.49445653518E+03  0.54119332728E+03  0.17200000000E+03 0.  1.
         -6    1    1    2    0  502  0.87720677563E+02 -0.10547054109E+03 -0.25547126543E+03  0.33714762311E+03  0.17200000000E+03 0.  1.
</event>
<event>
 4    1  0.5801298E+000  0.1803287E+03  0.7818608E-02  0.1167485E+00
         21   -1    0    0  503  502  0.00000000000E+00  0.00000000000E+00  0.14080155871E+03  0.14080155871E+03  0.00000000000E+00 0.  1.
         21   -1    0    0  501  503 -0.00000000000E+00 -0.00000000000E+00 -0.24646521164E+03  0.24646521164E+03  0.00000000000E+00 0.  1.
          6    1    1    2  501    0  0.51035251818E+02  0.18161195988E+02 -0.10141108246E+03  0.20688797359E+03  0.17200000000E+03 0.  1.
         -6    1    1    2    0  502 -0.51035251818E+02 -0.18161195988E+02 -0.42525704637E+01  0.18037879677E+03  0.17200000000E+03 0.  1.
</event>
<event>
 4    1  0.5801298E+000  0.2552019E+03  0.7818608E-02  0.1110061E+00
         21   -1    0    0  501  502  0.00000000000E+00  0.00000000000E+00  0.12165987449E+03  0.12165987449E+03  0.00000000000E+00 0.  1.
         21   -1    0    0  502  503 -0.00000000000E+00 -0.00000000000E+00 -0.82205054456E+03  0.82205054456E+03  0.00000000000E+00 0. -1.
          6    1    1    2  501    0 -0.80368130151E+02  0.17054317810E+03 -0.71525506765E+02  0.26503567696E+03  0.17200000000E+03 0.  1.
         -6    1    1    2    0  503  0.80368130151E+02 -0.17054317810E+03 -0.62886516331E+03  0.67867474210E+03  0.17200000000E+03 0.  1.
</event>
<event>
 4    1  0.5801298E+000  0.1961193E+03  0.7818608E-02  0.1153055E+00
         21   -1    0    0  501  502  0.00000000000E+00  0.00000000000E+00  0.10977645334E+04  0.10977645334E+04  0.00000000000E+00 0.  1.
         21   -1    0    0  502  503 -0.00000000000E+00 -0.00000000000E+00 -0.46152945279E+02  0.46152945279E+02  0.00000000000E+00 0.  1.
          6    1    1    2  501    0  0.88129793131E+02  0.33345557283E+02  0.80649834138E+03  0.83000142246E+03  0.17200000000E+03 0.  1.
         -6    1    1    2    0  503 -0.88129793131E+02 -0.33345557283E+02  0.24511324674E+03  0.31391605623E+03  0.17200000000E+03 0.  1.
</event>
<event>
 4    1  0.5801298E+000  0.2788248E+03  0.7818608E-02  0.1096333E+00
         21   -1    0    0  501  502  0.00000000000E+00  0.00000000000E+00  0.10996572016E+04  0.10996572016E+04  0.00000000000E+00 0. -1.
         21   -1    0    0  502  503 -0.00000000000E+00 -0.00000000000E+00 -0.71443621954E+02  0.71443621954E+02  0.00000000000E+00 0.  1.
          6    1    1    2  501    0 -0.60227087780E+01 -0.21936953918E+03  0.57393700585E+03  0.63808068019E+03  0.17200000000E+03 0.  1.
         -6    1    1    2    0  503  0.60227087780E+01  0.21936953918E+03  0.45427657383E+03  0.53302014340E+03  0.17200000000E+03 0.  1.
</event>
<event>
 4    1  0.5801298E+000  0.2027617E+03  0.7818608E-02  0.1147430E+00
         21   -1    0    0  503  502  0.00000000000E+00  0.00000000000E+00  0.10992669241E+03  0.10992669241E+03  0.00000000000E+00 0.  1.
         21   -1    0    0  501  503 -0.00000000000E+00 -0.00000000000E+00 -0.68625592293E+03  0.68625592293E+03  0.00000000000E+00 0.  1.
          6    1    1    2  501    0  0.10193325658E+03  0.33732993879E+02 -0.19632179469E+02  0.20370990684E+03  0.17200000000E+03 0.  1.
         -6    1    1    2    0  502 -0.10193325658E+03 -0.33732993879E+02 -0.55669705105E+03  0.59247270851E+03  0.17200000000E+03 0.  1.
</event>
<event>
 4    1  0.5801298E+000  0.3059738E+03  0.7818608E-02  0.1082292E+00
         21   -1    0    0  501  502  0.00000000000E+00  0.00000000000E+00  0.20455223945E+04  0.20455223945E+04  0.00000000000E+00 0. -1.
         21   -1    0    0  502  503 -0.00000000000E+00 -0.00000000000E+00 -0.68728331417E+02  0.68728331417E+02  0.00000000000E+00 0.  1.
          6    1    1    2  501    0 -0.25245206031E+03  0.17434035747E+02  0.15994027395E+04  0.16284069244E+04  0.17200000000E+03 0. -1.
         -6    1    1    2    0  503  0.25245206031E+03 -0.17434035747E+02  0.37739132366E+03  0.48584380158E+03  0.17200000000E+03 0.  1.
</event>
<event>
 4    1  0.5801298E+000  0.2167094E+03  0.7818608E-02  0.1136360E+00
         21   -1    0    0  501  502  0.00000000000E+00  0.00000000000E+00  0.10306936165E+04  0.10306936165E+04  0.00000000000E+00 0.  1.
         21   -1    0    0  502  503 -0.00000000000E+00 -0.00000000000E+00 -0.59362698619E+02  0.59362698619E+02  0.00000000000E+00 0.  1.
          6    1    1    2  501    0 -0.16646736637E+02  0.13077400926E+03  0.74843474409E+03  0.77917746470E+03  0.17200000000E+03 0.  1.
         -6    1    1    2    0  503  0.16646736637E+02 -0.13077400926E+03  0.22289617375E+03  0.31087885038E+03  0.17200000000E+03 0.  1.
</event>
<event>
 4    1  0.5801298E+000  0.2972272E+03  0.7818608E-02  0.1086635E+00
         21   -1    0    0  501  502  0.00000000000E+00  0.00000000000E+00  0.61791398475E+03  0.61791398475E+03  0.00000000000E+00 0.  1.
         21   -1    0    0  502  503 -0.00000000000E+00 -0.00000000000E+00 -0.21265799258E+03  0.21265799258E+03  0.00000000000E+00 0.  1.
          6    1    1    2  501    0  0.22073383601E+03  0.10018271337E+03  0.44035644946E+03  0.53127940389E+03  0.17200000000E+03 0.  1.
         -6    1    1    2    0  503 -0.22073383601E+03 -0.10018271337E+03 -0.35100457286E+02  0.29929257345E+03  0.17200000000E+03 0.  1.
</event>
<event>
 4    1  0.5801298E+000  0.2447746E+03  0.7818608E-02  0.1116652E+00
         21   -1    0    0  501  502  0.00000000000E+00  0.00000000000E+00  0.64134204066E+03  0.64134204066E+03  0.00000000000E+00 0. -1.
         21   -1    0    0  502  503 -0.00000000000E+00 -0.00000000000E+00 -0.13620325236E+03  0.13620325236E+03  0.00000000000E+00 0. -1.
          6    1    1    2  501    0 -0.58402861850E+02 -0.16407226825E+03  0.47045846994E+03  0.53032610290E+03  0.17200000000E+03 0. -1.
         -6    1    1    2    0  503  0.58402861850E+02  0.16407226825E+03  0.34680318348E+02  0.24721919011E+03  0.17200000000E+03 0. -1.
</event>
<event>
 4    1  0.5801298E+000  0.2749065E+03  0.7818608E-02  0.1098504E+00
         21   -1    0    0  503  502  0.00000000000E+00  0.00000000000E+00  0.37519496239E+03  0.37519496239E+03  0.00000000000E+00 0. -1.
         21   -1    0    0  501  503 -0.00000000000E+00 -0.00000000000E+00 -0.30418500692E+03  0.30418500692E+03  0.00000000000E+00 0.  1.
          6    1    1    2  501    0  0.19531460305E+03 -0.88553889765E+02 -0.16193097475E+03  0.31905364148E+03  0.17200000000E+03 0.  1.
         -6    1    1    2    0  502 -0.19531460305E+03  0.88553889765E+02  0.23294093022E+03  0.36032632783E+03  0.17200000000E+03 0. -1.
</event>
<event>
 4    1  0.5801298E+000  0.2086286E+03  0.7818608E-02  0.1142657E+00
         21   -1    0    0  501  502  0.00000000000E+00  0.00000000000E+00  0.69611045384E+03  0.69611045384E+03  0.00000000000E+00 0.  1.
         21   -1    0    0  502  503 -0.00000000000E+00 -0.00000000000E+00 -0.79038043241E+02  0.79038043241E+02  0.00000000000E+00 0. -1.
          6    1    1    2  501    0  0.49829720661E+02 -0.10704622990E+03  0.13139469655E+03  0.24655721989E+03  0.17200000000E+03 0. -1.
         -6    1    1    2    0  503 -0.49829720661E+02  0.10704622990E+03  0.48567771405E+03  0.52859127720E+03  0.17200000000E+03 0.  1.
</event>
<event>
 4    1  0.5801298E+000  0.1928923E+03  0.7818608E-02  0.1155878E+00
         21   -1    0    0  501  502  0.00000000000E+00  0.00000000000E+00  0.20494677562E+02  0.20494677562E+02  0.00000000000E+00 0.  1.
         21   -1    0    0  502  503 -0.00000000000E+00 -0.00000000000E+00 -0.18644583328E+04  0.18644583328E+04  0.00000000000E+00 0.  1.
          6    1    1    2  501    0  0.13583016850E+01 -0.87301828615E+02 -0.76920959807E+03  0.79302639302E+03  0.17200000000E+03 0.  1.
         -6    1    1    2    0  503 -0.13583016850E+01  0.87301828615E+02 -0.10747540572E+04  0.10919266174E+04  0.17200000000E+03 0.  1.
</event>
<event>
 4    1  0.5801298E+000  0.1748672E+03  0.7818608E-02  0.1172865E+00
         21   -1    0    0  501  502  0.00000000000E+00  0.00000000000E+00  0.97760017667E+02  0.97760017667E+02  0.00000000000E+00 0. -1.
         21   -1    0    0  502  503 -0.00000000000E+00 -0.00000000000E+00 -0.41513903273E+03  0.41513903273E+03  0.00000000000E+00 0. -1.
          6    1    1    2  501    0 -0.68987696299E+01  0.30772254033E+02 -0.31355817567E+02  0.17765616211E+03  0.17200000000E+03 0. -1.
         -6    1    1    2    0  503  0.68987696299E+01 -0.30772254033E+02 -0.28602319749E+03  0.33524288828E+03  0.17200000000E+03 0. -1.
</event>
<event>
 4    1  0.5801298E+000  0.2043849E+03  0.7818608E-02  0.1146091E+00
         21   -1    0    0  503  502  0.00000000000E+00  0.00000000000E+00  0.10772070329E+04  0.10772070329E+04  0.00000000000E+00 0.  1.
         21   -1    0    0  501  503 -0.00000000000E+00 -0.00000000000E+00 -0.44093666131E+02  0.44093666131E+02  0.00000000000E+00 0.  1.
          6    1    1    2  501    0  0.91628193964E+02  0.61590922422E+02  0.71119846192E+03  0.73998406733E+03  0.17200000000E+03 0.  1.
         -6    1    1    2    0  502 -0.91628193964E+02 -0.61590922422E+02  0.32191490485E+03  0.38131663171E+03  0.17200000000E+03 0.  1.
</event>
<event>
 4    1  0.5801298E+000  0.1738491E+03  0.7818608E-02  0.1173892E+00
         21   -1    0    0  501  502  0.00000000000E+00  0.00000000000E+00  0.42342119605E+03  0.42342119605E+03  0.00000000000E+00 0. -1.
         21   -1    0    0  502  503 -0.00000000000E+00 -0.00000000000E+00 -0.99092617526E+02  0.99092617526E+02  0.00000000000E+00 0. -1.
          6    1    1    2  501    0 -0.22149568044E+02  0.12202937509E+02  0.30032713491E+03  0.34701571004E+03  0.17200000000E+03 0. -1.
         -6    1    1    2    0  503  0.22149568044E+02 -0.12202937509E+02  0.24001443606E+02  0.17549810353E+03  0.17200000000E+03 0. -1.
</event>
<event>
 4    1  0.5801298E+000  0.2011956E+03  0.7818608E-02  0.1148734E+00
         21   -1    0    0  501  502  0.00000000000E+00  0.00000000000E+00  0.22707192581E+03  0.22707192581E+03  0.00000000000E+00 0.  1.
         21   -1    0    0  502  503 -0.00000000000E+00 -0.00000000000E+00 -0.17887933211E+03  0.17887933211E+03  0.00000000000E+00 0. -1.
          6    1    1    2  501    0 -0.42194354245E+02 -0.95474147239E+02  0.12231129589E+02  0.20156705299E+03  0.17200000000E+03 0. -1.
         -6    1    1    2    0  503  0.42194354245E+02  0.95474147239E+02  0.35961464118E+02  0.20438420492E+03  0.17200000000E+03 0.  1.
</event>
<event>
 4    1  0.5801298E+000  0.2124784E+03  0.7818608E-02  0.1139618E+00
         21   -1    0    0  501  502  0.00000000000E+00  0.00000000000E+00  0.68463977224E+02  0.68463977224E+02  0.00000000000E+00 0. -1.
         21   -1    0    0  502  503 -0.00000000000E+00 -0.00000000000E+00 -0.90718779364E+03  0.90718779364E+03  0.00000000000E+00 0.  1.
          6    1    1    2  501    0  0.99348602109E+01 -0.12435589513E+03 -0.16442581968E+03  0.26866883012E+03  0.17200000000E+03 0. -1.
         -6    1    1    2    0  503 -0.99348602109E+01  0.12435589513E+03 -0.67429799673E+03  0.70698294074E+03  0.17200000000E+03 0.  1.
</event>
<event>
 4    1  0.5801298E+000  0.2260543E+03  0.7818608E-02  0.1129448E+00
         21   -1    0    0  503  502  0.00000000000E+00  0.00000000000E+00  0.13468830122E+03  0.13468830122E+03  0.00000000000E+00 0. -1.
         21   -1    0    0  501  503 -0.00000000000E+00 -0.00000000000E+00 -0.38105923919E+03  0.38105923919E+03  0.00000000000E+00 0.  1.
          6    1    1    2  501    0  0.23253699942E+02 -0.14483027628E+03 -0.14020931650E+03  0.26600600730E+03  0.17200000000E+03 0. -1.
         -6    1    1    2    0  502 -0.23253699942E+02  0.14483027628E+03 -0.10616162147E+03  0.24974153311E+03  0.17200000000E+03 0.  1.
</event>
<event>
 4    1  0.5801298E+000  0.1727589E+03  0.7818608E-02  0.1175001E+00
         21   -1    0    0  503  502  0.00000000000E+00  0.00000000000E+00  0.48664952306E+03  0.48664952306E+03  0.00000000000E+00 0. -1.
         21   -1    0    0  501  503 -0.00000000000E+00 -0.00000000000E+00 -0.14701568973E+03  0.14701568973E+03  0.00000000000E+00 0. -1.
          6    1    1    2  501    0  0.91660893204E+01 -0.13326949875E+02 -0.72066029902E+02  0.18718743936E+03  0.17200000000E+03 0. -1.
         -6    1    1    2    0  502 -0.91660893204E+01  0.13326949875E+02  0.41169986323E+03  0.44647777344E+03  0.17200000000E+03 0. -1.
</event>
<event>
 4    1  0.5801298E+000  0.2307059E+03  0.7818608E-02  0.1126144E+00
         21   -1    0    0  503  502  0.00000000000E+00  0.00000000000E+00  0.19025805169E+03  0.19025805169E+03  0.00000000000E+00 0.  1.
         21   -1    0    0  501  503 -0.00000000000E+00 -0.00000000000E+00 -0.29555373443E+03  0.29555373443E+03  0.00000000000E+00 0.  1.
          6    1    1    2  501    0 -0.14764779056E+03  0.42910603688E+02  0.35168755310E+01  0.23073265564E+03  0.17200000000E+03 0. -1.
         -6    1    1    2    0  502  0.14764779056E+03 -0.42910603688E+02 -0.10881255827E+03  0.25507913047E+03  0.17200000000E+03 0. -1.
</event>
<event>
 4    1  0.5801298E+000  0.2420371E+03  0.7818608E-02  0.1118443E+00
         21   -1    0    0  503  502  0.00000000000E+00  0.00000000000E+00  0.42113177020E+03  0.42113177020E+03  0.00000000000E+00 0.  1.
         21   -1    0    0  501  503 -0.00000000000E+00 -0.00000000000E+00 -0.19917985348E+03  0.19917985348E+03  0.00000000000E+00 0. -1.
          6    1    1    2  501    0  0.15411154999E+03 -0.72440137981E+02 -0.59357542633E+02  0.24920927210E+03  0.17200000000E+03 0. -1.
         -6    1    1    2    0  502 -0.15411154999E+03  0.72440137981E+02  0.28130945935E+03  0.37110235159E+03  0.17200000000E+03 0.  1.
</event>
<event>
 4    1  0.5801298E+000  0.1813154E+03  0.7818608E-02  0.1166536E+00
         21   -1    0    0  503  502  0.00000000000E+00  0.00000000000E+00  0.30764869463E+02  0.30764869463E+02  0.00000000000E+00 0. -1.
         21   -1    0    0  501  503 -0.00000000000E+00 -0.00000000000E+00 -0.10982361835E+04  0.10982361835E+04  0.00000000000E+00 0. -1.
          6    1    1    2  501    0 -0.13754043990E+02  0.55696454994E+02 -0.44100049220E+03  0.47681936092E+03  0.17200000000E+03 0. -1.
         -6    1    1    2    0  502  0.13754043990E+02 -0.55696454994E+02 -0.62647082181E+03  0.65218169202E+03  0.17200000000E+03 0. -1.
</event>
<event>
 4    1  0.5801298E+000  0.2473626E+03  0.7818608E-02  0.1114983E+00
         21   -1    0    0  501  502  0.00000000000E+00  0.00000000000E+00  0.16338869381E+03  0.16338869381E+03  0.00000000000E+00 0.  1.
         21   -1    0    0  502  503 -0.00000000000E+00 -0.00000000000E+00 -0.37836804687E+03  0.37836804687E+03  0.00000000000E+00 0. -1.
          6    1    1    2  501    0  0.17559483007E+03 -0.27761418024E+02 -0.80083636034E+02  0.26000313352E+03  0.17200000000E+03 0. -1.
         -6    1    1    2    0  503 -0.17559483007E+03  0.27761418024E+02 -0.13489571703E+03  0.28175360717E+03  0.17200000000E+03 0.  1.
</event>
<event>
 4    1  0.5801298E+000  0.2253758E+03  0.7818608E-02  0.1129937E+00
         21   -1    0    0  503  502  0.00000000000E+00  0.00000000000E+00  0.22356379686E+03  0.22356379686E+03  0.00000000000E+00 0. -1.
         21   -1    0    0  501  503 -0.00000000000E+00 -0.00000000000E+00 -0.69633625801E+03  0.69633625801E+03  0.00000000000E+00 0.  1.
          6    1    1    2  501    0 -0.71246264718E+02  0.12702060424E+03 -0.61391448939E+03  0.65397650143E+03  0.17200000000E+03 0.  1.
         -6    1    1    2    0  502  0.71246264718E+02 -0.12702060424E+03  0.14114202824E+03  0.26592355344E+03  0.17200000000E+03 0. -1.
</event>
<event>
 4    1  0.5801298E+000  0.2077733E+03  0.7818608E-02  0.1143342E+00
         21   -1    0    0  501  502  0.00000000000E+00  0.00000000000E+00  0.97071428119E+02  0.97071428119E+02  0.00000000000E+00 0. -1.
         21   -1    0    0  502  503 -0.00000000000E+00 -0.00000000000E+00 -0.72706341145E+03  0.72706341145E+03  0.00000000000E+00 0.  1.
          6    1    1    2  501    0 -0.23107960134E+02  0.11424424333E+03 -0.58210775894E+02  0.21577353727E+03  0.17200000000E+03 0. -1.
         -6    1    1    2    0  503  0.23107960134E+02 -0.11424424333E+03 -0.57178120744E+03  0.60836130230E+03  0.17200000000E+03 0.  1.
</event>
<event>
 4    1  0.5801298E+000  0.1739881E+03  0.7818608E-02  0.1173752E+00
         21   -1    0    0  501  502  0.00000000000E+00  0.00000000000E+00  0.26675711665E+03  0.26675711665E+03  0.00000000000E+00 0. -1.
         21   -1    0    0  502  503 -0.00000000000E+00 -0.00000000000E+00 -0.16514613672E+03  0.16514613672E+03  0.00000000000E+00 0. -1.
          6    1    1    2  501    0 -0.21016685120E+02  0.15688880388E+02  0.17159282901E+03  0.24436845334E+03  0.17200000000E+03 0. -1.
         -6    1    1    2    0  503  0.21016685120E+02 -0.15688880388E+02 -0.69981849073E+02  0.18753480003E+03  0.17200000000E+03 0. -1.
</event>
<event>
 4    1  0.5801298E+000  0.1891517E+03  0.7818608E-02  0.1159229E+00
         21   -1    0    0  501  502  0.00000000000E+00  0.00000000000E+00  0.85528538006E+02  0.85528538006E+02  0.00000000000E+00 0. -1.
         21   -1    0    0  502  503 -0.00000000000E+00 -0.00000000000E+00 -0.66032326904E+03  0.66032326904E+03  0.00000000000E+00 0. -1.
          6    1    1    2  501    0  0.52310982974E+02 -0.58804194804E+02 -0.61633679490E+02  0.19893989724E+03  0.17200000000E+03 0. -1.
         -6    1    1    2    0  503 -0.52310982974E+02  0.58804194804E+02 -0.51316105154E+03  0.54691190981E+03  0.17200000000E+03 0. -1.
</event>
<event>
 4    1  0.5801298E+000  0.1786554E+03  0.7818608E-02  0.1169111E+00
         21   -1    0    0  501  502  0.00000000000E+00  0.00000000000E+00  0.13231771585E+03  0.13231771585E+03  0.00000000000E+00 0.  1.
         21   -1    0    0  502  503 -0.00000000000E+00 -0.00000000000E+00 -0.32485617011E+03  0.32485617011E+03  0.00000000000E+00 0. -1.
          6    1    1    2  501    0 -0.46551983020E+02 -0.12910050928E+02  0.19715662886E+02  0.17973998971E+03  0.17200000000E+03 0.  1.
         -6    1    1    2    0  503  0.46551983020E+02  0.12910050928E+02 -0.21225411715E+03  0.27743389624E+03  0.17200000000E+03 0. -1.
</event>
<event>
 4    1  0.5801298E+000  0.1892137E+03  0.7818608E-02  0.1159172E+00
         21   -1    0    0  503  502  0.00000000000E+00  0.00000000000E+00  0.29575734373E+03  0.29575734373E+03  0.00000000000E+00 0. -1.
         21   -1    0    0  501  503 -0.00000000000E+00 -0.00000000000E+00 -0.12931470459E+03  0.12931470459E+03  0.00000000000E+00 0. -1.
          6    1    1    2  501    0 -0.63743612846E+02 -0.46417431383E+02  0.29495041362E+02  0.19149878219E+03  0.17200000000E+03 0. -1.
         -6    1    1    2    0  502  0.63743612846E+02  0.46417431383E+02  0.13694759778E+03  0.23357326613E+03  0.17200000000E+03 0. -1.
</event>
<event>
 4    1  0.5801298E+000  0.1765513E+03  0.7818608E-02  0.1171183E+00
         21   -1    0    0  501  502  0.00000000000E+00  0.00000000000E+00  0.45073077469E+03  0.45073077469E+03  0.00000000000E+00 0.  1.
         21   -1    0    0  502  503 -0.00000000000E+00 -0.00000000000E+00 -0.70542151992E+02  0.70542151992E+02  0.00000000000E+00 0.  1.
          6    1    1    2  501    0 -0.17747422378E+02  0.35656772389E+02  0.22664046645E+03  0.28729127633E+03  0.17200000000E+03 0.  1.
         -6    1    1    2    0  503  0.17747422378E+02 -0.35656772389E+02  0.15354815625E+03  0.23398165036E+03  0.17200000000E+03 0.  1.
</event>
<event>
 4    1  0.5801298E+000  0.2700843E+03  0.7818608E-02  0.1101231E+00
         21   -1    0    0  501  502  0.00000000000E+00  0.00000000000E+00  0.80755770011E+03  0.80755770011E+03  0.00000000000E+00 0. -1.
         21   -1    0    0  502  503 -0.00000000000E+00 -0.00000000000E+00 -0.12417773744E+03  0.12417773744E+03  0.00000000000E+00 0.  1.
          6    1    1    2  501    0 -0.18673049661E+03  0.92158927119E+02  0.58491857648E+03  0.64426336798E+03  0.17200000000E+03 0. -1.
         -6    1    1    2    0  503  0.18673049661E+03 -0.92158927119E+02  0.98461386194E+02  0.28747206957E+03  0.17200000000E+03 0.  1.
</event>
<event>
 4    1  0.5801298E+000  0.1880709E+03  0.7818608E-02  0.1160213E+00
         21   -1    0    0  503  502  0.00000000000E+00  0.00000000000E+00  0.11561894858E+03  0.11561894858E+03  0.00000000000E+00 0. -1.
         21   -1    0    0  501  503 -0.00000000000E+00 -0.00000000000E+00 -0.54890731166E+03  0.54890731166E+03  0.00000000000E+00 0. -1.
          6    1    1    2  501    0  0.66864505737E+02 -0.36274174288E+02 -0.43770936686E+03  0.47640336657E+03  0.17200000000E+03 0. -1.
         -6    1    1    2    0  502 -0.66864505737E+02  0.36274174288E+02  0.44210037823E+01  0.18812289367E+03  0.17200000000E+03 0. -1.
</event>
<event>
 4    1  0.5801298E+000  0.1937825E+03  0.7818608E-02  0.1155093E+00
         21   -1    0    0  501  502  0.00000000000E+00  0.00000000000E+00  0.31680687162E+03  0.31680687162E+03  0.00000000000E+00 0. -1.
         21   -1    0    0  502  503 -0.00000000000E+00 -0.00000000000E+00 -0.11877536021E+03  0.11877536021E+03  0.00000000000E+00 0. -1.
          6    1    1    2  501    0 -0.52095002356E+02  0.72482936702E+02  0.89151918694E+02  0.21330665716E+03  0.17200000000E+03 0. -1.
         -6    1    1    2    0  503  0.52095002356E+02 -0.72482936702E+02  0.10887959272E+03  0.22227557467E+03  0.17200000000E+03 0. -1.
</event>
<event>
 4    1  0.5801298E+000  0.1737788E+03  0.7818608E-02  0.1173964E+00
         21   -1    0    0  501  502  0.00000000000E+00  0.00000000000E+00  0.56565651093E+03  0.56565651093E+03  0.00000000000E+00 0.  1.
         21   -1    0    0  502  503 -0.00000000000E+00 -0.00000000000E+00 -0.54749230616E+02  0.54749230616E+02  0.00000000000E+00 0. -1.
          6    1    1    2  501    0 -0.23426407031E+02  0.81403757868E+01  0.30437304653E+03  0.35048825047E+03  0.17200000000E+03 0.  1.
         -6    1    1    2    0  503  0.23426407031E+02 -0.81403757868E+01  0.20653423379E+03  0.26991749108E+03  0.17200000000E+03 0. -1.
</event>
<event>
 4    1  0.5801298E+000  0.2958412E+03  0.7818608E-02  0.1087338E+00
         21   -1    0    0  503  502  0.00000000000E+00  0.00000000000E+00  0.84628845810E+02  0.84628845810E+02  0.00000000000E+00 0.  1.
         21   -1    0    0  501  503 -0.00000000000E+00 -0.00000000000E+00 -0.10712200080E+04  0.10712200080E+04  0.00000000000E+00 0. -1.
          6    1    1    2  501    0  0.43543253161E+02  0.23673191868E+03 -0.38584006907E+03  0.48620425247E+03  0.17200000000E+03 0.  1.
         -6    1    1    2    0  502 -0.43543253161E+02 -0.23673191868E+03 -0.60075109311E+03  0.66964460133E+03  0.17200000000E+03 0. -1.
</event>
<event>
 4    1  0.5801298E+000  0.2124673E+03  0.7818608E-02  0.1139627E+00
         21   -1    0    0  501  502  0.00000000000E+00  0.00000000000E+00  0.77502524308E+02  0.77502524308E+02  0.00000000000E+00 0.  1.
         21   -1    0    0  502  503 -0.00000000000E+00 -0.00000000000E+00 -0.60105874556E+03  0.60105874556E+03  0.00000000000E+00 0.  1.
          6    1    1    2  501    0  0.11551620696E+03  0.47057196704E+02 -0.20210148708E+03  0.29323605664E+03  0.17200000000E+03 0.  1.
         -6    1    1    2    0  503 -0.11551620696E+03 -0.47057196704E+02 -0.32145473417E+03  0.38532521323E+03  0.17200000000E+03 0.  1.
</event>
<event>
 4    1  0.5801298E+000  0.2131655E+03  0.7818608E-02  0.1139084E+00
         21   -1    0    0  501  502  0.00000000000E+00  0.00000000000E+00  0.26967073091E+02  0.26967073091E+02  0.00000000000E+00 0.  1.
         21   -1    0    0  502  503 -0.00000000000E+00 -0.00000000000E+00 -0.26837794858E+04  0.26837794858E+04  0.00000000000E+00 0. -1.
          6    1    1    2  501    0  0.67084540212E+01  0.12573989247E+03 -0.50156851549E+03  0.54498669676E+03  0.17200000000E+03 0.  1.
         -6    1    1    2    0  503 -0.67084540212E+01 -0.12573989247E+03 -0.21552438972E+04  0.21657598621E+04  0.17200000000E+03 0. -1.
</event>
<event>
 4    1  0.5801298E+000  0.1928140E+03  0.7818608E-02  0.1155947E+00
         21   -1    0    0  501  502  0.00000000000E+00  0.00000000000E+00  0.74405847128E+03  0.74405847128E+03  0.00000000000E+00 0.  1.
         21   -1    0    0  502  503 -0.00000000000E+00 -0.00000000000E+00 -0.75725080604E+02  0.75725080604E+02  0.00000000000E+00 0.  1.
          6    1    1    2  501    0  0.87138526146E+02 -0.35642568610E+00  0.57323322058E+03  0.60479217501E+03  0.17200000000E+03 0.  1.
         -6    1    1    2    0  503 -0.87138526146E+02  0.35642568610E+00  0.95100170099E+02  0.21499137688E+03  0.17200000000E+03 0.  1.
</event>
<event>
 4    1  0.5801298E+000  0.1875540E+03  0.7818608E-02  0.1160686E+00
         21   -1    0    0  503  502  0.00000000000E+00  0.00000000000E+00  0.32511319317E+03  0.32511319317E+03  0.00000000000E+00 0.  1.
         21   -1    0    0  501  503 -0.00000000000E+00 -0.00000000000E+00 -0.12786745884E+03  0.12786745884E+03  0.00000000000E+00 0.  1.
          6    1    1    2  501    0 -0.74053279860E+02 -0.10422124165E+02  0.97909888331E+01  0.18780940443E+03  0.17200000000E+03 0.  1.
         -6    1    1    2    0  502  0.74053279860E+02  0.10422124165E+02  0.18745474550E+03  0.26517124758E+03  0.17200000000E+03 0.  1.
</event>
<event>
 4    1  0.5801298E+000  0.1845825E+03  0.7818608E-02  0.1163440E+00
         21   -1    0    0  501  502  0.00000000000E+00  0.00000000000E+00  0.43197480111E+02  0.43197480111E+02  0.00000000000E+00 0. -1.
         21   -1    0    0  502  503 -0.00000000000E+00 -0.00000000000E+00 -0.21337933064E+04  0.21337933064E+04  0.00000000000E+00 0. -1.
          6    1    1    2  501    0  0.45801633868E+02  0.48876490446E+02 -0.18107961746E+03  0.25857402972E+03  0.17200000000E+03 0. -1.
         -6    1    1    2    0  503 -0.45801633868E+02 -0.48876490446E+02 -0.19095162088E+04  0.19184167568E+04  0.17200000000E+03 0. -1.
</event>
<event>
 4    1  0.5801298E+000  0.1934715E+03  0.7818608E-02  0.1155367E+00
         21   -1    0    0  503  502  0.00000000000E+00  0.00000000000E+00  0.31867091005E+03  0.31867091005E+03  0.00000000000E+00 0. -1.
         21   -1    0    0  501  503 -0.00000000000E+00 -0.00000000000E+00 -0.12827144926E+03  0.12827144926E+03  0.00000000000E+00 0. -1.
          6    1    1    2  501    0 -0.56226499669E+02 -0.68453046788E+02  0.16007643548E+03  0.25110894862E+03  0.17200000000E+03 0. -1.
         -6    1    1    2    0  502  0.56226499669E+02  0.68453046788E+02  0.30323025314E+02  0.19583341069E+03  0.17200000000E+03 0. -1.
</event>
<event>
 4    1  0.5801298E+000  0.2514597E+03  0.7818608E-02  0.1112386E+00
         21   -1    0    0  501  502  0.00000000000E+00  0.00000000000E+00  0.34707332247E+04  0.34707332247E+04  0.00000000000E+00 0.  1.
         21   -1    0    0  502  503 -0.00000000000E+00 -0.00000000000E+00 -0.21299885712E+02  0.21299885712E+02  0.00000000000E+00 0. -1.
          6    1    1    2  501    0  0.15819990309E+03 -0.92848024965E+02  0.23888027709E+04  0.24020013829E+04  0.17200000000E+03 0.  1.
         -6    1    1    2    0  503 -0.15819990309E+03  0.92848024965E+02  0.10606305681E+04  0.10900317276E+04  0.17200000000E+03 0. -1.
</event>
<event>
 4    1  0.5801298E+000  0.2481904E+03  0.7818608E-02  0.1114454E+00
         21   -1    0    0  503  502  0.00000000000E+00  0.00000000000E+00  0.86659843196E+02  0.86659843196E+02  0.00000000000E+00 0. -1.
         21   -1    0    0  501  503 -0.00000000000E+00 -0.00000000000E+00 -0.77254869602E+03  0.77254869602E+03  0.00000000000E+00 0. -1.
          6    1    1    2  501    0  0.16231264193E+03  0.75293444289E+02 -0.46439287151E+03  0.52655411459E+03  0.17200000000E+03 0. -1.
         -6    1    1    2    0  502 -0.16231264193E+03 -0.75293444289E+02 -0.22149598132E+03  0.33265442463E+03  0.17200000000E+03 0. -1.
</event>
<event>
 4    1  0.5801298E+000  0.1779138E+03  0.7818608E-02  0.1169837E+00
         21   -1    0    0  501  502  0.00000000000E+00  0.00000000000E+00  0.46474479342E+02  0.46474479342E+02  0.00000000000E+00 0. -1.
         21   -1    0    0  502  503 -0.00000000000E+00 -0.00000000000E+00 -0.13256472413E+04  0.13256472413E+04  0.00000000000E+00 0.  1.
          6    1    1    2  501    0 -0.40672214842E+01 -0.45307613357E+02 -0.16119949512E+03  0.24008040183E+03  0.17200000000E+03 0. -1.
         -6    1    1    2    0  503  0.40672214842E+01  0.45307613357E+02 -0.11179732669E+04  0.11320413188E+04  0.17200000000E+03 0.  1.
</event>
<event>
 4    1  0.5801298E+000  0.1913340E+03  0.7818608E-02  0.1157264E+00
         21   -1    0    0  501  502  0.00000000000E+00  0.00000000000E+00  0.12121519270E+03  0.12121519270E+03  0.00000000000E+00 0. -1.
         21   -1    0    0  502  503 -0.00000000000E+00 -0.00000000000E+00 -0.37817229322E+03  0.37817229322E+03  0.00000000000E+00 0. -1.
          6    1    1    2  501    0 -0.15659038901E+01  0.83798949503E+02 -0.24053082648E+03  0.30734962905E+03  0.17200000000E+03 0. -1.
         -6    1    1    2    0  503  0.15659038901E+01 -0.83798949503E+02 -0.16426274039E+02  0.19203785687E+03  0.17200000000E+03 0. -1.
</event>
<event>
 4    1  0.5801298E+000  0.2101968E+03  0.7818608E-02  0.1141410E+00
         21   -1    0    0  503  502  0.00000000000E+00  0.00000000000E+00  0.24777387415E+03  0.24777387415E+03  0.00000000000E+00 0.  1.
         21   -1    0    0  501  503 -0.00000000000E+00 -0.00000000000E+00 -0.25846436526E+03  0.25846436526E+03  0.00000000000E+00 0.  1.
          6    1    1    2  501    0 -0.11943749681E+03 -0.18258821060E+02 -0.14629515346E+03  0.25609563080E+03  0.17200000000E+03 0.  1.
         -6    1    1    2    0  502  0.11943749681E+03  0.18258821060E+02  0.13560466234E+03  0.25014260861E+03  0.17200000000E+03 0.  1.
</event>
<event>
 4    1  0.5801298E+000  0.1726860E+03  0.7818608E-02  0.1175075E+00
         21   -1    0    0  503  502  0.00000000000E+00  0.00000000000E+00  0.22746515415E+02  0.22746515415E+02  0.00000000000E+00 0.  1.
         21   -1    0    0  501  503 -0.00000000000E+00 -0.00000000000E+00 -0.13251312619E+04  0.13251312619E+04  0.00000000000E+00 0.  1.
          6    1    1    2  501    0 -0.69199937227E+01 -0.13731745143E+02 -0.58157142286E+03  0.60666775670E+03  0.17200000000E+03 0.  1.
         -6    1    1    2    0  502  0.69199937227E+01  0.13731745143E+02 -0.72081332361E+03  0.74121002060E+03  0.17200000000E+03 0.  1.
</event>
<event>
 4    1  0.5801298E+000  0.2490188E+03  0.7818608E-02  0.1113926E+00
         21   -1    0    0  501  502  0.00000000000E+00  0.00000000000E+00  0.24605571977E+03  0.24605571977E+03  0.00000000000E+00 0. -1.
         21   -1    0    0  502  503 -0.00000000000E+00 -0.00000000000E+00 -0.29257359446E+03  0.29257359446E+03  0.00000000000E+00 0. -1.
          6    1    1    2  501    0  0.16095692776E+03  0.80741775055E+02  0.77010843441E+02  0.26065501499E+03  0.17200000000E+03 0. -1.
         -6    1    1    2    0  503 -0.16095692776E+03 -0.80741775055E+02 -0.12352871813E+03  0.27797429924E+03  0.17200000000E+03 0. -1.
</event>
<event>
 4    1  0.5801298E+000  0.1730729E+03  0.7818608E-02  0.1174681E+00
         21   -1    0    0  501  502  0.00000000000E+00  0.00000000000E+00  0.24478056491E+03  0.24478056491E+03  0.00000000000E+00 0. -1.
         21   -1    0    0  502  503 -0.00000000000E+00 -0.00000000000E+00 -0.14462918185E+03  0.14462918185E+03  0.00000000000E+00 0. -1.
          6    1    1    2  501    0 -0.13789739304E+02  0.13419222343E+02  0.12645683054E+03  0.21434916009E+03  0.17200000000E+03 0. -1.
         -6    1    1    2    0  503  0.13789739304E+02 -0.13419222343E+02 -0.26305447483E+02  0.17506058667E+03  0.17200000000E+03 0. -1.
</event>
<event>
 4    1  0.5801298E+000  0.1783369E+03  0.7818608E-02  0.1169422E+00
         21   -1    0    0  503  502  0.00000000000E+00  0.00000000000E+00  0.39369845220E+02  0.39369845220E+02  0.00000000000E+00 0.  1.
         21   -1    0    0  501  503 -0.00000000000E+00 -0.00000000000E+00 -0.82845867997E+03  0.82845867997E+03  0.00000000000E+00 0.  1.
          6    1    1    2  501    0 -0.70436631485E+01  0.46587998280E+02 -0.46301871025E+03  0.49617575598E+03  0.17200000000E+03 0.  1.
         -6    1    1    2    0  502  0.70436631485E+01 -0.46587998280E+02 -0.32607012449E+03  0.37165276921E+03  0.17200000000E+03 0.  1.
</event>
<event>
 4    1  0.5801298E+000  0.2172090E+03  0.7818608E-02  0.1135981E+00
         21   -1    0    0  503  502  0.00000000000E+00  0.00000000000E+00  0.59136212317E+03  0.59136212317E+03  0.00000000000E+00 0.  1.
         21   -1    0    0  501  503 -0.00000000000E+00 -0.00000000000E+00 -0.17690333883E+03  0.17690333883E+03  0.00000000000E+00 0.  1.
          6    1    1    2  501    0  0.11423029230E+03  0.67432787927E+02 -0.77394799493E+02  0.23058554932E+03  0.17200000000E+03 0.  1.
         -6    1    1    2    0  502 -0.11423029230E+03 -0.67432787927E+02  0.49185358383E+03  0.53767991268E+03  0.17200000000E+03 0.  1.
</event>
<event>
 4    1  0.5801298E+000  0.1791656E+03  0.7818608E-02  0.1168613E+00
         21   -1    0    0  501  502  0.00000000000E+00  0.00000000000E+00  0.31677283010E+03  0.31677283010E+03  0.00000000000E+00 0. -1.
         21   -1    0    0  502  503 -0.00000000000E+00 -0.00000000000E+00 -0.10139516466E+03  0.10139516466E+03  0.00000000000E+00 0. -1.
          6    1    1    2  501    0 -0.10740656420E+01 -0.50151324103E+02  0.11276397917E+03  0.21169795446E+03  0.17200000000E+03 0. -1.
         -6    1    1    2    0  503  0.10740656420E+01  0.50151324103E+02  0.10261368628E+03  0.20647004029E+03  0.17200000000E+03 0. -1.
</event>
<event>
 4    1  0.5801298E+000  0.2040743E+03  0.7818608E-02  0.1146346E+00
         21   -1    0    0  503  502  0.00000000000E+00  0.00000000000E+00  0.92906207432E+02  0.92906207432E+02  0.00000000000E+00 0.  1.
         21   -1    0    0  501  503 -0.00000000000E+00 -0.00000000000E+00 -0.50909369161E+03  0.50909369161E+03  0.00000000000E+00 0. -1.
          6    1    1    2  501    0 -0.97029213996E+02 -0.51455265364E+02 -0.31214153748E+03  0.37293250344E+03  0.17200000000E+03 0.  1.
         -6    1    1    2    0  502  0.97029213996E+02  0.51455265364E+02 -0.10404594670E+03  0.22906739560E+03  0.17200000000E+03 0.  1.
</event>
<event>
 4    1  0.5801298E+000  0.1855469E+03  0.7818608E-02  0.1162540E+00
         21   -1    0    0  503  502  0.00000000000E+00  0.00000000000E+00  0.11269911514E+04  0.11269911514E+04  0.00000000000E+00 0.  1.
         21   -1    0    0  501  503 -0.00000000000E+00 -0.00000000000E+00 -0.33663682629E+02  0.33663682629E+02  0.00000000000E+00 0. -1.
          6    1    1    2  501    0 -0.68853595403E+02  0.10141028906E+02  0.37012161829E+03  0.41402617114E+03  0.17200000000E+03 0. -1.
         -6    1    1    2    0  502  0.68853595403E+02 -0.10141028906E+02  0.72320585044E+03  0.74662866284E+03  0.17200000000E+03 0.  1.
</event>
<event>
 4    1  0.5801298E+000  0.1805259E+03  0.7818608E-02  0.1167295E+00
         21   -1    0    0  503  502  0.00000000000E+00  0.00000000000E+00  0.32175912100E+02  0.32175912100E+02  0.00000000000E+00 0. -1.
         21   -1    0    0  501  503 -0.00000000000E+00 -0.00000000000E+00 -0.11140730616E+04  0.11140730616E+04  0.00000000000E+00 0. -1.
          6    1    1    2  501    0  0.54771094493E+02 -0.23901114836E+01 -0.71369842120E+03  0.73617594490E+03  0.17200000000E+03 0. -1.
         -6    1    1    2    0  502 -0.54771094493E+02  0.23901114836E+01 -0.36819872826E+03  0.41007302876E+03  0.17200000000E+03 0. -1.
</event>
<event>
 4    1  0.5801298E+000  0.1866955E+03  0.7818608E-02  0.1161476E+00
         21   -1    0    0  501  502  0.00000000000E+00  0.00000000000E+00  0.34452398334E+03  0.34452398334E+03  0.00000000000E+00 0. -1.
         21   -1    0    0  502  503 -0.00000000000E+00 -0.00000000000E+00 -0.20319032490E+03  0.20319032490E+03  0.00000000000E+00 0.  1.
          6    1    1    2  501    0 -0.57140543708E+02 -0.44790304994E+02 -0.12338495866E+03  0.22378351409E+03  0.17200000000E+03 0.  1.
         -6    1    1    2    0  503  0.57140543708E+02  0.44790304994E+02  0.26471861709E+03  0.32393079414E+03  0.17200000000E+03 0. -1.
</event>
<event>
 4    1  0.5801298E+000  0.1917432E+03  0.7818608E-02  0.1156898E+00
         21   -1    0    0  503  502  0.00000000000E+00  0.00000000000E+00  0.39685006024E+02  0.39685006024E+02  0.00000000000E+00 0. -1.
         21   -1    0    0  501  503 -0.00000000000E+00 -0.00000000000E+00 -0.93746093464E+03  0.93746093464E+03  0.00000000000E+00 0. -1.
          6    1    1    2  501    0 -0.76577320410E+02 -0.36295543339E+02 -0.39589440159E+03  0.43988388204E+03  0.17200000000E+03 0. -1.
         -6    1    1    2    0  502  0.76577320410E+02  0.36295543339E+02 -0.50188152702E+03  0.53726205862E+03  0.17200000000E+03 0. -1.
</event>
<event>
 4    1  0.5801298E+000  0.1808528E+03  0.7818608E-02  0.1166980E+00
         21   -1    0    0  503  502  0.00000000000E+00  0.00000000000E+00  0.90490141252E+03  0.90490141252E+03  0.00000000000E+00 0.  1.
         21   -1    0    0  501  503 -0.00000000000E+00 -0.00000000000E+00 -0.46043400964E+02  0.46043400964E+02  0.00000000000E+00 0. -1.
          6    1    1    2  501    0  0.16365228045E+02  0.53440758445E+02  0.20897278762E+03  0.27636454425E+03  0.17200000000E+03 0. -1.
         -6    1    1    2    0  502 -0.16365228045E+02 -0.53440758445E+02  0.64988522393E+03  0.67458026923E+03  0.17200000000E+03 0.  1.
</event>
<event>
 4    1  0.5801298E+000  0.2009062E+03  0.7818608E-02  0.1148977E+00
         21   -1    0    0  503  502  0.00000000000E+00  0.00000000000E+00  0.22479253744E+03  0.22479253744E+03  0.00000000000E+00 0. -1.
         21   -1    0    0  501  503 -0.00000000000E+00 -0.00000000000E+00 -0.19165740573E+03  0.19165740573E+03  0.00000000000E+00 0.  1.
          6    1    1    2  501    0  0.91938132258E+02 -0.48235534359E+02 -0.35750652622E+02  0.20406223585E+03  0.17200000000E+03 0.  1.
         -6    1    1    2    0  502 -0.91938132258E+02  0.48235534359E+02  0.68885784326E+02  0.21238770732E+03  0.17200000000E+03 0. -1.
</event>
<event>
 4    1  0.5801298E+000  0.2204595E+03  0.7818608E-02  0.1133541E+00
         21   -1    0    0  501  502  0.00000000000E+00  0.00000000000E+00  0.18644376254E+03  0.18644376254E+03  0.00000000000E+00 0.  1.
         21   -1    0    0  502  503 -0.00000000000E+00 -0.00000000000E+00 -0.38290318828E+03  0.38290318828E+03  0.00000000000E+00 0.  1.
          6    1    1    2  501    0  0.11124348403E+03  0.81506385081E+02  0.62603965900E+02  0.22917604607E+03  0.17200000000E+03 0.  1.
         -6    1    1    2    0  503 -0.11124348403E+03 -0.81506385081E+02 -0.25906339165E+03  0.34017090475E+03  0.17200000000E+03 0.  1.
</event>
<event>
 4    1  0.5801298E+000  0.1880372E+03  0.7818608E-02  0.1160244E+00
         21   -1    0    0  501  502  0.00000000000E+00  0.00000000000E+00  0.10659397610E+04  0.10659397610E+04  0.00000000000E+00 0.  1.
         21   -1    0    0  502  503 -0.00000000000E+00 -0.00000000000E+00 -0.66256837469E+02  0.66256837469E+02  0.00000000000E+00 0.  1.
          6    1    1    2  501    0  0.55271665643E+02 -0.52144186840E+02  0.89987785381E+03  0.91931394258E+03  0.17200000000E+03 0.  1.
         -6    1    1    2    0  503 -0.55271665643E+02  0.52144186840E+02  0.99805069755E+02  0.21288265592E+03  0.17200000000E+03 0.  1.
</event>
<event>
 4    1  0.5801298E+000  0.1840432E+03  0.7818608E-02  0.1163946E+00
         21   -1    0    0  501  502  0.00000000000E+00  0.00000000000E+00  0.22316850090E+02  0.22316850090E+02  0.00000000000E+00 0. -1.
         21   -1    0    0  502  503 -0.00000000000E+00 -0.00000000000E+00 -0.17737428224E+04  0.17737428224E+04  0.00000000000E+00 0. -1.
          6    1    1    2  501    0 -0.56150654627E+02 -0.33689646257E+02 -0.53456662353E+03  0.56536126793E+03  0.17200000000E+03 0. -1.
         -6    1    1    2    0  503  0.56150654627E+02  0.33689646257E+02 -0.12168593488E+04  0.12306984046E+04  0.17200000000E+03 0. -1.
</event>
<event>
 4    1  0.5801298E+000  0.1731096E+03  0.7818608E-02  0.1174643E+00
         21   -1    0    0  503  502  0.00000000000E+00  0.00000000000E+00  0.68271097061E+03  0.68271097061E+03  0.00000000000E+00 0. -1.
         21   -1    0    0  501  503 -0.00000000000E+00 -0.00000000000E+00 -0.10007654139E+03  0.10007654139E+03  0.00000000000E+00 0. -1.
          6    1    1    2  501    0  0.19173527300E+02 -0.39111892336E+01 -0.19397966308E+01  0.17312043311E+03  0.17200000000E+03 0. -1.
         -6    1    1    2    0  502 -0.19173527300E+02  0.39111892336E+01  0.58457422585E+03  0.60966707889E+03  0.17200000000E+03 0. -1.
</event>
<event>
 4    1  0.5801298E+000  0.2438521E+03  0.7818608E-02  0.1117253E+00
         21   -1    0    0  503  502  0.00000000000E+00  0.00000000000E+00  0.95745892260E+03  0.95745892260E+03  0.00000000000E+00 0. -1.
         21   -1    0    0  501  503 -0.00000000000E+00 -0.00000000000E+00 -0.62918421589E+02  0.62918421589E+02  0.00000000000E+00 0.  1.
          6    1    1    2  501    0  0.10103352079E+03  0.14025709631E+03  0.38929192125E+03  0.45936045252E+03  0.17200000000E+03 0.  1.
         -6    1    1    2    0  502 -0.10103352079E+03 -0.14025709631E+03  0.50524857976E+03  0.56101689167E+03  0.17200000000E+03 0. -1.
</event>
<event>
 4    1  0.5801298E+000  0.1775444E+03  0.7818608E-02  0.1170201E+00
         21   -1    0    0  501  502  0.00000000000E+00  0.00000000000E+00  0.17514653184E+04  0.17514653184E+04  0.00000000000E+00 0.  1.
         21   -1    0    0  502  503 -0.00000000000E+00 -0.00000000000E+00 -0.20566253261E+02  0.20566253261E+02  0.00000000000E+00 0.  1.
          6    1    1    2  501    0 -0.43579239363E+02  0.62336973665E+01  0.55231967172E+03  0.58015431469E+03  0.17200000000E+03 0.  1.
         -6    1    1    2    0  503  0.43579239363E+02 -0.62336973665E+01  0.11785793934E+04  0.11918772569E+04  0.17200000000E+03 0.  1.
</event>
<event>
 4    1  0.5801298E+000  0.1792603E+03  0.7818608E-02  0.1168521E+00
         21   -1    0    0  501  502  0.00000000000E+00  0.00000000000E+00  0.10493844428E+04  0.10493844428E+04  0.00000000000E+00 0. -1.
         21   -1    0    0  502  503 -0.00000000000E+00 -0.00000000000E+00 -0.62549435395E+02  0.62549435395E+02  0.00000000000E+00 0. -1.
          6    1    1    2  501    0 -0.41494975357E+02 -0.28782380261E+02  0.89062664573E+03  0.90848779875E+03  0.17200000000E+03 0. -1.
         -6    1    1    2    0  503  0.41494975357E+02  0.28782380261E+02  0.96208361712E+02  0.20344607948E+03  0.17200000000E+03 0. -1.
</event>
<event>
 4    1  0.5801298E+000  0.2405465E+03  0.7818608E-02  0.1119429E+00
         21   -1    0    0  501  502  0.00000000000E+00  0.00000000000E+00  0.56278808234E+02  0.56278808234E+02  0.00000000000E+00 0.  1.
         21   -1    0    0  502  503 -0.00000000000E+00 -0.00000000000E+00 -0.10530310854E+04  0.10530310854E+04  0.00000000000E+00 0.  1.
          6    1    1    2  501    0 -0.39055181053E+02 -0.16356436855E+03 -0.41310417942E+03  0.47803522138E+03  0.17200000000E+03 0.  1.
         -6    1    1    2    0  503  0.39055181053E+02  0.16356436855E+03 -0.58364809775E+03  0.63127467225E+03  0.17200000000E+03 0.  1.
</event>
<event>
 4    1  0.5801298E+000  0.2398720E+03  0.7818608E-02  0.1119878E+00
         21   -1    0    0  503  502  0.00000000000E+00  0.00000000000E+00  0.14525815606E+03  0.14525815606E+03  0.00000000000E+00 0.  1.
         21   -1    0    0  501  503 -0.00000000000E+00 -0.00000000000E+00 -0.39901196736E+03  0.39901196736E+03  0.00000000000E+00 0. -1.
          6    1    1    2  501    0  0.16716309420E+03  0.33266603474E+01 -0.10367877298E+03  0.26131944952E+03  0.17200000000E+03 0.  1.
         -6    1    1    2    0  502 -0.16716309420E+03 -0.33266603474E+01 -0.15007503833E+03  0.28295067390E+03  0.17200000000E+03 0. -1.
</event>
<event>
 4    1  0.5801298E+000  0.2078951E+03  0.7818608E-02  0.1143244E+00
         21   -1    0    0  503  502  0.00000000000E+00  0.00000000000E+00  0.88630892130E+03  0.88630892130E+03  0.00000000000E+00 0. -1.
         21   -1    0    0  501  503 -0.00000000000E+00 -0.00000000000E+00 -0.61608065815E+02  0.61608065815E+02  0.00000000000E+00 0. -1.
          6    1    1    2  501    0  0.11085462275E+02  0.11624757610E+03  0.19594666523E+03  0.28568423484E+03  0.17200000000E+03 0. -1.
         -6    1    1    2    0  502 -0.11085462275E+02 -0.11624757610E+03  0.62875419025E+03  0.66223275227E+03  0.17200000000E+03 0. -1.
</event>
<event>
 4    1  0.5801298E+000  0.1835728E+03  0.7818608E-02  0.1164389E+00
         21   -1    0    0  501  502  0.00000000000E+00  0.00000000000E+00  0.85706158700E+03  0.85706158700E+03  0.00000000000E+00 0. -1.
         21   -1    0    0  502  503 -0.00000000000E+00 -0.00000000000E+00 -0.47888204265E+02  0.47888204265E+02  0.00000000000E+00 0. -1.
          6    1    1    2  501    0  0.39358883246E+02  0.50654084383E+02  0.59598845014E+03  0.62361942774E+03  0.17200000000E+03 0. -1.
         -6    1    1    2    0  503 -0.39358883246E+02 -0.50654084383E+02  0.21318493259E+03  0.28133036352E+03  0.17200000000E+03 0. -1.
</event>
<event>
 4    1  0.5801298E+000  0.2466297E+03  0.7818608E-02  0.1115453E+00
         21   -1    0    0  501  502  0.00000000000E+00  0.00000000000E+00  0.56794241345E+02  0.56794241345E+02  0.00000000000E+00 0. -1.
         21   -1    0    0  502  503 -0.00000000000E+00 -0.00000000000E+00 -0.12191764595E+04  0.12191764595E+04  0.00000000000E+00 0. -1.
          6    1    1    2  501    0 -0.15056081011E+02 -0.17611223331E+03 -0.35876893719E+03  0.43536347411E+03  0.17200000000E+03 0. -1.
         -6    1    1    2    0  503  0.15056081011E+02  0.17611223331E+03 -0.80361328101E+03  0.84060722678E+03  0.17200000000E+03 0. -1.
</event>
<event>
 4    1  0.5801298E+000  0.1767031E+03  0.7818608E-02  0.1171033E+00
         21   -1    0    0  501  502  0.00000000000E+00  0.00000000000E+00  0.43075200609E+03  0.43075200609E+03  0.00000000000E+00 0.  1.
         21   -1    0    0  502  503 -0.00000000000E+00 -0.00000000000E+00 -0.10566519427E+03  0.10566519427E+03  0.00000000000E+00 0.  1.
          6    1    1    2  501    0  0.34797681018E+02  0.20714623538E+02  0.31283416590E+03  0.35928984064E+03  0.17200000000E+03 0.  1.
         -6    1    1    2    0  503 -0.34797681018E+02 -0.20714623538E+02  0.12252645919E+02  0.17712735973E+03  0.17200000000E+03 0.  1.
</event>
<event>
 4    1  0.5801298E+000  0.1770273E+03  0.7818608E-02  0.1170711E+00
         21   -1    0    0  501  502  0.00000000000E+00  0.00000000000E+00  0.38302805021E+02  0.38302805021E+02  0.00000000000E+00 0. -1.
         21   -1    0    0  502  503 -0.00000000000E+00 -0.00000000000E+00 -0.96380748415E+03  0.96380748415E+03  0.00000000000E+00 0. -1.
          6    1    1    2  501    0  0.29936909483E+02 -0.29299337845E+02 -0.26798823937E+03  0.32117964784E+03  0.17200000000E+03 0. -1.
         -6    1    1    2    0  503 -0.29936909483E+02  0.29299337845E+02 -0.65751643976E+03  0.68093064133E+03  0.17200000000E+03 0. -1.
</event>
<event>
 4    1  0.5801298E+000  0.1848228E+03  0.7818608E-02  0.1163215E+00
         21   -1    0    0  503  502  0.00000000000E+00  0.00000000000E+00  0.48979521986E+02  0.48979521986E+02  0.00000000000E+00 0.  1.
         21   -1    0    0  501  503 -0.00000000000E+00 -0.00000000000E+00 -0.90035298379E+03  0.90035298379E+03  0.00000000000E+00 0.  1.
          6    1    1    2  501    0 -0.63648351111E+02  0.22898790657E+02 -0.65103518363E+03  0.67676161057E+03  0.17200000000E+03 0.  1.
         -6    1    1    2    0  502  0.63648351111E+02 -0.22898790657E+02 -0.20033827817E+03  0.27257089520E+03  0.17200000000E+03 0.  1.
</event>
<event>
 4    1  0.5801298E+000  0.1994009E+03  0.7818608E-02  0.1150245E+00
         21   -1    0    0  501  502  0.00000000000E+00  0.00000000000E+00  0.26008128524E+03  0.26008128524E+03  0.00000000000E+00 0.  1.
         21   -1    0    0  502  503 -0.00000000000E+00 -0.00000000000E+00 -0.15683442047E+03  0.15683442047E+03  0.00000000000E+00 0.  1.
          6    1    1    2  501    0  0.99219204084E+02  0.18228514051E+02  0.84732278769E+02  0.21665707523E+03  0.17200000000E+03 0.  1.
         -6    1    1    2    0  503 -0.99219204084E+02 -0.18228514051E+02  0.18514586005E+02  0.20025863047E+03  0.17200000000E+03 0.  1.
</event>
<event>
 4    1  0.5801298E+000  0.2096136E+03  0.7818608E-02  0.1141872E+00
         21   -1    0    0  503  502  0.00000000000E+00  0.00000000000E+00  0.97624225811E+03  0.97624225811E+03  0.00000000000E+00 0.  1.
         21   -1    0    0  501  503 -0.00000000000E+00 -0.00000000000E+00 -0.45245846768E+02  0.45245846768E+02  0.00000000000E+00 0. -1.
          6    1    1    2  501    0 -0.11961615776E+03  0.67687154475E+01  0.42839807247E+03  0.47693054966E+03  0.17200000000E+03 0. -1.
         -6    1    1    2    0  502  0.11961615776E+03 -0.67687154475E+01  0.50259833888E+03  0.54455755522E+03  0.17200000000E+03 0.  1.
</event>
<event>
 4    1  0.5801298E+000  0.1973200E+03  0.7818608E-02  0.1152020E+00
         21   -1    0    0  503  502  0.00000000000E+00  0.00000000000E+00  0.24744548775E+03  0.24744548775E+03  0.00000000000E+00 0.  1.
         21   -1    0    0  501  503 -0.00000000000E+00 -0.00000000000E+00 -0.15932431323E+03  0.15932431323E+03  0.00000000000E+00 0.  1.
          6    1    1    2  501    0 -0.83040536544E+02  0.49552409742E+02  0.66709770108E+02  0.20829153955E+03  0.17200000000E+03 0.  1.
         -6    1    1    2    0  502  0.83040536544E+02 -0.49552409742E+02  0.21411404420E+02  0.19847826143E+03  0.17200000000E+03 0.  1.
</event>
<event>
 4    1  0.5801298E+000  0.2523974E+03  0.7818608E-02  0.1111799E+00
         21   -1    0    0  501  502  0.00000000000E+00  0.00000000000E+00  0.66747647286E+02  0.66747647286E+02  0.00000000000E+00 0.  1.
         21   -1    0    0  502  503 -0.00000000000E+00 -0.00000000000E+00 -0.10312299980E+04  0.10312299980E+04  0.00000000000E+00 0.  1.
          6    1    1    2  501    0 -0.13745221339E+03  0.12339899669E+03 -0.33239995768E+03  0.41736573316E+03  0.17200000000E+03 0. -1.
         -6    1    1    2    0  503  0.13745221339E+03 -0.12339899669E+03 -0.63208239305E+03  0.68061191215E+03  0.17200000000E+03 0. -1.
</event>
<event>
 4    1  0.5801298E+000  0.1758909E+03  0.7818608E-02  0.1171840E+00
         21   -1    0    0  501  502  0.00000000000E+00  0.00000000000E+00  0.55715085027E+03  0.55715085027E+03  0.00000000000E+00 0. -1.
         21   -1    0    0  502  503 -0.00000000000E+00 -0.00000000000E+00 -0.55627589882E+02  0.55627589882E+02  0.00000000000E+00 0. -1.
          6    1    1    2  501    0 -0.31939299662E+02  0.18262020086E+02  0.23781500201E+03  0.29579316325E+03  0.17200000000E+03 0. -1.
         -6    1    1    2    0  503  0.31939299662E+02 -0.18262020086E+02  0.26370825837E+03  0.31698527691E+03  0.17200000000E+03 0. -1.
</event>
<event>
 4    1  0.5801298E+000  0.1759157E+03  0.7818608E-02  0.1171815E+00
         21   -1    0    0  503  502  0.00000000000E+00  0.00000000000E+00  0.25489066380E+03  0.25489066380E+03  0.00000000000E+00 0. -1.
         21   -1    0    0  501  503 -0.00000000000E+00 -0.00000000000E+00 -0.19662133890E+03  0.19662133890E+03  0.00000000000E+00 0. -1.
          6    1    1    2  501    0  0.38250420235E+01  0.36711090743E+02 -0.11049090915E+03  0.20773679533E+03  0.17200000000E+03 0. -1.
         -6    1    1    2    0  502 -0.38250420235E+01 -0.36711090743E+02  0.16876023405E+03  0.24377520737E+03  0.17200000000E+03 0. -1.
</event>
<event>
 4    1  0.5801298E+000  0.2085970E+03  0.7818608E-02  0.1142682E+00
         21   -1    0    0  503  502  0.00000000000E+00  0.00000000000E+00  0.28346620062E+03  0.28346620062E+03  0.00000000000E+00 0.  1.
         21   -1    0    0  501  503 -0.00000000000E+00 -0.00000000000E+00 -0.15364987356E+03  0.15364987356E+03  0.00000000000E+00 0.  1.
          6    1    1    2  501    0  0.92614709718E+02 -0.73152155249E+02  0.58135479792E+02  0.21654666076E+03  0.17200000000E+03 0.  1.
         -6    1    1    2    0  502 -0.92614709718E+02  0.73152155249E+02  0.71680847274E+02  0.22056941343E+03  0.17200000000E+03 0.  1.
</event>
<event>
 4    1  0.5801298E+000  0.2489343E+03  0.7818608E-02  0.1113980E+00
         21   -1    0    0  503  502  0.00000000000E+00  0.00000000000E+00  0.63585379867E+03  0.63585379867E+03  0.00000000000E+00 0. -1.
         21   -1    0    0  501  503 -0.00000000000E+00 -0.00000000000E+00 -0.12044590041E+03  0.12044590041E+03  0.00000000000E+00 0.  1.
          6    1    1    2  501    0 -0.63208035502E+02  0.16849050923E+03  0.92496947482E+02  0.26556353806E+03  0.17200000000E+03 0.  1.
         -6    1    1    2    0  502  0.63208035502E+02 -0.16849050923E+03  0.42291095077E+03  0.49073616102E+03  0.17200000000E+03 0. -1.
</event>
<event>
 4    1  0.5801298E+000  0.2416970E+03  0.7818608E-02  0.1118667E+00
         21   -1    0    0  501  502  0.00000000000E+00  0.00000000000E+00  0.54677116553E+03  0.54677116553E+03  0.00000000000E+00 0. -1.
         21   -1    0    0  502  503 -0.00000000000E+00 -0.00000000000E+00 -0.10732483154E+03  0.10732483154E+03  0.00000000000E+00 0. -1.
          6    1    1    2  501    0 -0.16927230981E+03  0.13427818588E+02  0.24168847210E+03  0.34180511805E+03  0.17200000000E+03 0. -1.
         -6    1    1    2    0  503  0.16927230981E+03 -0.13427818588E+02  0.19775786190E+03  0.31229087902E+03  0.17200000000E+03 0. -1.
</event>
<event>
 4    1  0.5801298E+000  0.1979145E+03  0.7818608E-02  0.1151511E+00
         21   -1    0    0  503  502  0.00000000000E+00  0.00000000000E+00  0.19295273173E+03  0.19295273173E+03  0.00000000000E+00 0.  1.
         21   -1    0    0  501  503 -0.00000000000E+00 -0.00000000000E+00 -0.22475613108E+03  0.22475613108E+03  0.00000000000E+00 0.  1.
          6    1    1    2  501    0  0.61594111018E+02 -0.76107290463E+02 -0.80875755009E+02  0.21380140767E+03  0.17200000000E+03 0.  1.
         -6    1    1    2    0  502 -0.61594111018E+02  0.76107290463E+02  0.49072355654E+02  0.20390745514E+03  0.17200000000E+03 0.  1.
</event>
<event>
 4    1  0.5801298E+000  0.1807729E+03  0.7818608E-02  0.1167057E+00
         21   -1    0    0  503  502  0.00000000000E+00  0.00000000000E+00  0.22491121477E+02  0.22491121477E+02  0.00000000000E+00 0.  1.
         21   -1    0    0  501  503 -0.00000000000E+00 -0.00000000000E+00 -0.17912176551E+04  0.17912176551E+04  0.00000000000E+00 0. -1.
          6    1    1    2  501    0 -0.54385874559E+02 -0.11705881759E+02 -0.12784418932E+04  0.12911593725E+04  0.17200000000E+03 0. -1.
         -6    1    1    2    0  502  0.54385874559E+02  0.11705881759E+02 -0.49028464040E+03  0.52254940401E+03  0.17200000000E+03 0.  1.
</event>
<event>
 4    1  0.5801298E+000  0.2534777E+03  0.7818608E-02  0.1111127E+00
         21   -1    0    0  503  502  0.00000000000E+00  0.00000000000E+00  0.24178970854E+03  0.24178970854E+03  0.00000000000E+00 0. -1.
         21   -1    0    0  501  503 -0.00000000000E+00 -0.00000000000E+00 -0.47858648918E+03  0.47858648918E+03  0.00000000000E+00 0. -1.
          6    1    1    2  501    0 -0.37048465685E+02  0.18246738598E+03 -0.35860885813E+03  0.43914832219E+03  0.17200000000E+03 0. -1.
         -6    1    1    2    0  502  0.37048465685E+02 -0.18246738598E+03  0.12181207748E+03  0.28122787553E+03  0.17200000000E+03 0. -1.
</event>
<event>
 4    1  0.5801298E+000  0.1738497E+03  0.7818608E-02  0.1173892E+00
         21   -1    0    0  503  502  0.00000000000E+00  0.00000000000E+00  0.10655783869E+04  0.10655783869E+04  0.00000000000E+00 0.  1.
         21   -1    0    0  501  503 -0.00000000000E+00 -0.00000000000E+00 -0.55819351473E+02  0.55819351473E+02  0.00000000000E+00 0.  1.
          6    1    1    2  501    0 -0.22154948473E+02  0.12201046132E+02  0.11164335564E+03  0.20661061475E+03  0.17200000000E+03 0.  1.
         -6    1    1    2    0  502  0.22154948473E+02 -0.12201046132E+02  0.89811567982E+03  0.91478712366E+03  0.17200000000E+03 0.  1.
</event>
<event>
 4    1  0.5801298E+000  0.1838137E+03  0.7818608E-02  0.1164162E+00
         21   -1    0    0  501  502  0.00000000000E+00  0.00000000000E+00  0.20064943294E+03  0.20064943294E+03  0.00000000000E+00 0.  1.
         21   -1    0    0  502  503 -0.00000000000E+00 -0.00000000000E+00 -0.24653722197E+03  0.24653722197E+03  0.00000000000E+00 0.  1.
          6    1    1    2  501    0  0.92361857984E+01  0.64172925788E+02 -0.14882854835E+03  0.23651090532E+03  0.17200000000E+03 0.  1.
         -6    1    1    2    0  503 -0.92361857984E+01 -0.64172925788E+02  0.10294075932E+03  0.21067574958E+03  0.17200000000E+03 0.  1.
</event>
<event>
 4    1  0.5801298E+000  0.1815705E+03  0.7818608E-02  0.1166292E+00
         21   -1    0    0  501  502  0.00000000000E+00  0.00000000000E+00  0.23028148681E+03  0.23028148681E+03  0.00000000000E+00 0.  1.
         21   -1    0    0  502  503 -0.00000000000E+00 -0.00000000000E+00 -0.42805835269E+03  0.42805835269E+03  0.00000000000E+00 0.  1.
          6    1    1    2  501    0 -0.26035365348E+02  0.52019202301E+02  0.16965292051E+03  0.24849537439E+03  0.17200000000E+03 0.  1.
         -6    1    1    2    0  503  0.26035365348E+02 -0.52019202301E+02 -0.36742978639E+03  0.40984446511E+03  0.17200000000E+03 0.  1.
</event>
<event>
 4    1  0.5801298E+000  0.3060212E+03  0.7818608E-02  0.1082269E+00
         21   -1    0    0  501  502  0.00000000000E+00  0.00000000000E+00  0.13599662011E+03  0.13599662011E+03  0.00000000000E+00 0. -1.
         21   -1    0    0  502  503 -0.00000000000E+00 -0.00000000000E+00 -0.69189131159E+03  0.69189131159E+03  0.00000000000E+00 0.  1.
          6    1    1    2  501    0 -0.21242951189E+03 -0.13761781177E+03 -0.30644355837E+03  0.43307806929E+03  0.17200000000E+03 0. -1.
         -6    1    1    2    0  503  0.21242951189E+03  0.13761781177E+03 -0.24945113311E+03  0.39480986240E+03  0.17200000000E+03 0.  1.
</event>
<event>
 4    1  0.5801298E+000  0.1726457E+03  0.7818608E-02  0.1175117E+00
         21   -1    0    0  501  502  0.00000000000E+00  0.00000000000E+00  0.11645694970E+03  0.11645694970E+03  0.00000000000E+00 0.  1.
         21   -1    0    0  502  503 -0.00000000000E+00 -0.00000000000E+00 -0.83713352191E+03  0.83713352191E+03  0.00000000000E+00 0.  1.
          6    1    1    2  501    0  0.17351951166E+01 -0.14816268653E+02  0.36938498718E+02  0.17655306683E+03  0.17200000000E+03 0.  1.
         -6    1    1    2    0  503 -0.17351951166E+01  0.14816268653E+02 -0.75761507094E+03  0.77703740478E+03  0.17200000000E+03 0.  1.
</event>
<event>
 4    1  0.5801298E+000  0.2253761E+03  0.7818608E-02  0.1129937E+00
         21   -1    0    0  503  502  0.00000000000E+00  0.00000000000E+00  0.11682357580E+03  0.11682357580E+03  0.00000000000E+00 0.  1.
         21   -1    0    0  501  503 -0.00000000000E+00 -0.00000000000E+00 -0.48810409351E+03  0.48810409351E+03  0.00000000000E+00 0.  1.
          6    1    1    2  501    0 -0.30021926976E+02 -0.14250992730E+03 -0.28559761947E+03  0.36381368271E+03  0.17200000000E+03 0.  1.
         -6    1    1    2    0  502  0.30021926976E+02  0.14250992730E+03 -0.85682898243E+02  0.24111398659E+03  0.17200000000E+03 0.  1.
</event>
<event>
 4    1  0.5801298E+000  0.1842534E+03  0.7818608E-02  0.1163749E+00
         21   -1    0    0  503  502  0.00000000000E+00  0.00000000000E+00  0.10465792376E+03  0.10465792376E+03  0.00000000000E+00 0. -1.
         21   -1    0    0  501  503 -0.00000000000E+00 -0.00000000000E+00 -0.46840926104E+03  0.46840926104E+03  0.00000000000E+00 0. -1.
          6    1    1    2  501    0 -0.58785448319E+02  0.30159341626E+02 -0.34076060931E+03  0.38738496057E+03  0.17200000000E+03 0. -1.
         -6    1    1    2    0  502  0.58785448319E+02 -0.30159341626E+02 -0.22990727967E+02  0.18568222423E+03  0.17200000000E+03 0. -1.
</event>
<event>
 4    1  0.5801298E+000  0.2210848E+03  0.7818608E-02  0.1133077E+00
         21   -1    0    0  501  502  0.00000000000E+00  0.00000000000E+00  0.58971773753E+02  0.58971773753E+02  0.00000000000E+00 0.  1.
         21   -1    0    0  502  503 -0.00000000000E+00 -0.00000000000E+00 -0.98955288667E+03  0.98955288667E+03  0.00000000000E+00 0.  1.
          6    1    1    2  501    0  0.40923025619E+02  0.13273952917E+03 -0.25401592233E+03  0.33675297390E+03  0.17200000000E+03 0.  1.
         -6    1    1    2    0  503 -0.40923025619E+02 -0.13273952917E+03 -0.67656519058E+03  0.71177168653E+03  0.17200000000E+03 0.  1.
</event>
<event>
 4    1  0.5801298E+000  0.1799242E+03  0.7818608E-02  0.1167876E+00
         21   -1    0    0  503  502  0.00000000000E+00  0.00000000000E+00  0.43161868815E+02  0.43161868815E+02  0.00000000000E+00 0. -1.
         21   -1    0    0  501  503 -0.00000000000E+00 -0.00000000000E+00 -0.78907887070E+03  0.78907887070E+03  0.00000000000E+00 0. -1.
          6    1    1    2  501    0  0.47505583296E+02  0.23063459860E+02 -0.28039024409E+03  0.33315370718E+03  0.17200000000E+03 0. -1.
         -6    1    1    2    0  502 -0.47505583296E+02 -0.23063459860E+02 -0.46552675780E+03  0.49908703234E+03  0.17200000000E+03 0. -1.
</event>
<event>
 4    1  0.5801298E+000  0.1868768E+03  0.7818608E-02  0.1161309E+00
         21   -1    0    0  501  502  0.00000000000E+00  0.00000000000E+00  0.63244831270E+02  0.63244831270E+02  0.00000000000E+00 0.  1.
         21   -1    0    0  502  503 -0.00000000000E+00 -0.00000000000E+00 -0.55468778096E+03  0.55468778096E+03  0.00000000000E+00 0.  1.
          6    1    1    2  501    0  0.13650961488E+02  0.71781510648E+02 -0.22497334093E+03  0.29246527683E+03  0.17200000000E+03 0.  1.
         -6    1    1    2    0  503 -0.13650961488E+02 -0.71781510648E+02 -0.26646960876E+03  0.32546733540E+03  0.17200000000E+03 0.  1.
</event>
<event>
 4    1  0.5801298E+000  0.2062052E+03  0.7818608E-02  0.1144607E+00
         21   -1    0    0  501  502  0.00000000000E+00  0.00000000000E+00  0.56975289287E+02  0.56975289287E+02  0.00000000000E+00 0.  1.
         21   -1    0    0  502  503 -0.00000000000E+00 -0.00000000000E+00 -0.81747907712E+03  0.81747907712E+03  0.00000000000E+00 0.  1.
          6    1    1    2  501    0  0.10744893867E+03  0.37300519225E+02 -0.50926919902E+03  0.54943217982E+03  0.17200000000E+03 0.  1.
         -6    1    1    2    0  503 -0.10744893867E+03 -0.37300519225E+02 -0.25123458881E+03  0.32502218658E+03  0.17200000000E+03 0.  1.
</event>
<event>
 4    1  0.5801298E+000  0.2465777E+03  0.7818608E-02  0.1115487E+00
         21   -1    0    0  503  502  0.00000000000E+00  0.00000000000E+00  0.63352978385E+02  0.63352978385E+02  0.00000000000E+00 0. -1.
         21   -1    0    0  501  503 -0.00000000000E+00 -0.00000000000E+00 -0.20539411251E+04  0.20539411251E+04  0.00000000000E+00 0.  1.
          6    1    1    2  501    0  0.17648422457E+03  0.83609316606E+01 -0.17679949703E+04  0.17851069441E+04  0.17200000000E+03 0.  1.
         -6    1    1    2    0  502 -0.17648422457E+03 -0.83609316606E+01 -0.22259317639E+03  0.33218715941E+03  0.17200000000E+03 0. -1.
</event>
<event>
 4    1  0.5801298E+000  0.2065347E+03  0.7818608E-02  0.1144340E+00
         21   -1    0    0  501  502  0.00000000000E+00  0.00000000000E+00  0.39233121155E+03  0.39233121155E+03  0.00000000000E+00 0.  1.
         21   -1    0    0  502  503 -0.00000000000E+00 -0.00000000000E+00 -0.10921542425E+03  0.10921542425E+03  0.00000000000E+00 0.  1.
          6    1    1    2  501    0  0.66621268719E+02  0.92920338715E+02  0.15834613785E+03  0.26025003778E+03  0.17200000000E+03 0.  1.
         -6    1    1    2    0  503 -0.66621268719E+02 -0.92920338715E+02  0.12476964945E+03  0.24129659802E+03  0.17200000000E+03 0.  1.
</event>
<event>
 4    1  0.5801298E+000  0.2363789E+03  0.7818608E-02  0.1122229E+00
         21   -1    0    0  501  502  0.00000000000E+00  0.00000000000E+00  0.17104239016E+03  0.17104239016E+03  0.00000000000E+00 0. -1.
         21   -1    0    0  502  503 -0.00000000000E+00 -0.00000000000E+00 -0.36036353292E+03  0.36036353292E+03  0.00000000000E+00 0. -1.
          6    1    1    2  501    0  0.16186620639E+03  0.95045892886E+01 -0.13419230813E+02  0.23675954415E+03  0.17200000000E+03 0. -1.
         -6    1    1    2    0  503 -0.16186620639E+03 -0.95045892886E+01 -0.17590191195E+03  0.29464637893E+03  0.17200000000E+03 0. -1.
</event>
<event>
 4    1  0.5801298E+000  0.1762067E+03  0.7818608E-02  0.1171526E+00
         21   -1    0    0  503  502  0.00000000000E+00  0.00000000000E+00  0.18887475819E+02  0.18887475819E+02  0.00000000000E+00 0. -1.
         21   -1    0    0  501  503 -0.00000000000E+00 -0.00000000000E+00 -0.16928724791E+04  0.16928724791E+04  0.00000000000E+00 0. -1.
          6    1    1    2  501    0  0.28246103312E+02 -0.25825345124E+02 -0.69139483674E+03  0.71349534762E+03  0.17200000000E+03 0. -1.
         -6    1    1    2    0  502 -0.28246103312E+02  0.25825345124E+02 -0.98259016653E+03  0.99826460729E+03  0.17200000000E+03 0. -1.
</event>
<event>
 4    1  0.5801298E+000  0.2155294E+03  0.7818608E-02  0.1137261E+00
         21   -1    0    0  503  502  0.00000000000E+00  0.00000000000E+00  0.84390577329E+02  0.84390577329E+02  0.00000000000E+00 0. -1.
         21   -1    0    0  501  503 -0.00000000000E+00 -0.00000000000E+00 -0.57768409720E+03  0.57768409720E+03  0.00000000000E+00 0. -1.
          6    1    1    2  501    0  0.10989481396E+03  0.69224742346E+02 -0.31852126514E+03  0.38458904227E+03  0.17200000000E+03 0. -1.
         -6    1    1    2    0  502 -0.10989481396E+03 -0.69224742346E+02 -0.17477225473E+03  0.27748563226E+03  0.17200000000E+03 0. -1.
</event>
<event>
 4    1  0.5801298E+000  0.2235040E+03  0.7818608E-02  0.1131297E+00
         21   -1    0    0  503  502  0.00000000000E+00  0.00000000000E+00  0.23653582338E+03  0.23653582338E+03  0.00000000000E+00 0. -1.
         21   -1    0    0  501  503 -0.00000000000E+00 -0.00000000000E+00 -0.21258221101E+03  0.21258221101E+03  0.00000000000E+00 0.  1.
          6    1    1    2  501    0 -0.13665100521E+03  0.41189276590E+02 -0.61944308623E+01  0.22358985823E+03  0.17200000000E+03 0.  1.
         -6    1    1    2    0  502  0.13665100521E+03 -0.41189276590E+02  0.30148043226E+02  0.22552817616E+03  0.17200000000E+03 0. -1.
</event>
<event>
 4    1  0.5801298E+000  0.2084008E+03  0.7818608E-02  0.1142839E+00
         21   -1    0    0  501  502  0.00000000000E+00  0.00000000000E+00  0.47671255070E+03  0.47671255070E+03  0.00000000000E+00 0.  1.
         21   -1    0    0  502  503 -0.00000000000E+00 -0.00000000000E+00 -0.18524808159E+03  0.18524808159E+03  0.00000000000E+00 0.  1.
          6    1    1    2  501    0  0.10411069184E+03 -0.54843797544E+02  0.38168202832E+03  0.43487015192E+03  0.17200000000E+03 0.  1.
         -6    1    1    2    0  503 -0.10411069184E+03  0.54843797544E+02 -0.90217559218E+02  0.22709048037E+03  0.17200000000E+03 0.  1.
</event>
<event>
 4    1  0.5801298E+000  0.1835763E+03  0.7818608E-02  0.1164386E+00
         21   -1    0    0  503  502  0.00000000000E+00  0.00000000000E+00  0.27414660337E+03  0.27414660337E+03  0.00000000000E+00 0. -1.
         21   -1    0    0  501  503 -0.00000000000E+00 -0.00000000000E+00 -0.12313502182E+03  0.12313502182E+03  0.00000000000E+00 0. -1.
          6    1    1    2  501    0 -0.37245373175E+02 -0.52240137645E+02  0.83653836923E+02  0.20173798412E+03  0.17200000000E+03 0. -1.
         -6    1    1    2    0  502  0.37245373175E+02  0.52240137645E+02  0.67357744630E+02  0.19554364108E+03  0.17200000000E+03 0. -1.
</event>
<event>
 4    1  0.5801298E+000  0.2080424E+03  0.7818608E-02  0.1143126E+00
         21   -1    0    0  501  502  0.00000000000E+00  0.00000000000E+00  0.20357345194E+03  0.20357345194E+03  0.00000000000E+00 0.  1.
         21   -1    0    0  502  503 -0.00000000000E+00 -0.00000000000E+00 -0.24351940783E+03  0.24351940783E+03  0.00000000000E+00 0.  1.
          6    1    1    2  501    0 -0.20676273662E+02 -0.11519603581E+03  0.59670518370E+02  0.21643060255E+03  0.17200000000E+03 0.  1.
         -6    1    1    2    0  503  0.20676273662E+02  0.11519603581E+03 -0.99616474264E+02  0.23066225722E+03  0.17200000000E+03 0.  1.
</event>
<event>
 4    1  0.5801298E+000  0.1855134E+03  0.7818608E-02  0.1162571E+00
         21   -1    0    0  501  502  0.00000000000E+00  0.00000000000E+00  0.80239927460E+02  0.80239927460E+02  0.00000000000E+00 0. -1.
         21   -1    0    0  502  503 -0.00000000000E+00 -0.00000000000E+00 -0.59981092952E+03  0.59981092952E+03  0.00000000000E+00 0. -1.
          6    1    1    2  501    0 -0.57092521272E+02  0.39644284545E+02 -0.78282398153E+02  0.20135381581E+03  0.17200000000E+03 0. -1.
         -6    1    1    2    0  503  0.57092521272E+02 -0.39644284545E+02 -0.44128860390E+03  0.47869704116E+03  0.17200000000E+03 0. -1.
</event>
<event>
 4    1  0.5801298E+000  0.2452044E+03  0.7818608E-02  0.1116374E+00
         21   -1    0    0  503  502  0.00000000000E+00  0.00000000000E+00  0.38151444152E+03  0.38151444152E+03  0.00000000000E+00 0.  1.
         21   -1    0    0  501  503 -0.00000000000E+00 -0.00000000000E+00 -0.16817036589E+03  0.16817036589E+03  0.00000000000E+00 0. -1.
          6    1    1    2  501    0 -0.64353061599E+02 -0.16248036449E+03  0.17559029109E+03  0.30159100734E+03  0.17200000000E+03 0. -1.
         -6    1    1    2    0  502  0.64353061599E+02  0.16248036449E+03  0.37753784542E+02  0.24809380006E+03  0.17200000000E+03 0. -1.
</event>
<event>
 4    1  0.5801298E+000  0.1869113E+03  0.7818608E-02  0.1161277E+00
         21   -1    0    0  501  502  0.00000000000E+00  0.00000000000E+00  0.52690450488E+03  0.52690450488E+03  0.00000000000E+00 0. -1.
         21   -1    0    0  502  503 -0.00000000000E+00 -0.00000000000E+00 -0.66484658877E+02  0.66484658877E+02  0.00000000000E+00 0. -1.
          6    1    1    2  501    0  0.13458160665E+02 -0.71907735472E+02  0.21474132208E+03  0.28469225476E+03  0.17200000000E+03 0.  1.
         -6    1    1    2    0  503 -0.13458160665E+02  0.71907735472E+02  0.24567852391E+03  0.30869690899E+03  0.17200000000E+03 0.  1.
</event>
<event>
 4    1  0.5801298E+000  0.2140944E+03  0.7818608E-02  0.1138364E+00
         21   -1    0    0  501  502  0.00000000000E+00  0.00000000000E+00  0.54860604180E+02  0.54860604180E+02  0.00000000000E+00 0. -1.
         21   -1    0    0  502  503 -0.00000000000E+00 -0.00000000000E+00 -0.86826569993E+03  0.86826569993E+03  0.00000000000E+00 0. -1.
          6    1    1    2  501    0 -0.10377753593E+03 -0.74044825829E+02 -0.49635637146E+03  0.54056087602E+03  0.17200000000E+03 0. -1.
         -6    1    1    2    0  503  0.10377753593E+03  0.74044825829E+02 -0.31704872429E+03  0.38256542809E+03  0.17200000000E+03 0. -1.
</event>
<event>
 4    1  0.5801298E+000  0.2533293E+03  0.7818608E-02  0.1111219E+00
         21   -1    0    0  501  502  0.00000000000E+00  0.00000000000E+00  0.97571539079E+02  0.97571539079E+02  0.00000000000E+00 0.  1.
         21   -1    0    0  502  503 -0.00000000000E+00 -0.00000000000E+00 -0.66500437931E+03  0.66500437931E+03  0.00000000000E+00 0. -1.
          6    1    1    2  501    0 -0.14112349903E+03  0.12114416408E+03 -0.32359429962E+03  0.41096109453E+03  0.17200000000E+03 0. -1.
         -6    1    1    2    0  503  0.14112349903E+03 -0.12114416408E+03 -0.24383854060E+03  0.35161482385E+03  0.17200000000E+03 0.  1.
</event>
<event>
 4    1  0.5801298E+000  0.1899754E+03  0.7818608E-02  0.1158484E+00
         21   -1    0    0  503  502  0.00000000000E+00  0.00000000000E+00  0.15772349745E+03  0.15772349745E+03  0.00000000000E+00 0.  1.
         21   -1    0    0  501  503 -0.00000000000E+00 -0.00000000000E+00 -0.27335053296E+03  0.27335053296E+03  0.00000000000E+00 0.  1.
          6    1    1    2  501    0  0.80522254672E+02  0.47768904322E+01  0.29178553566E+02  0.19220312216E+03  0.17200000000E+03 0.  1.
         -6    1    1    2    0  502 -0.80522254672E+02 -0.47768904322E+01 -0.14480558908E+03  0.23887090825E+03  0.17200000000E+03 0.  1.
</event>
<event>
 4    1  0.5801298E+000  0.2582519E+03  0.7818608E-02  0.1108198E+00
         21   -1    0    0  503  502  0.00000000000E+00  0.00000000000E+00  0.93253399373E+03  0.93253399373E+03  0.00000000000E+00 0.  1.
         21   -1    0    0  501  503 -0.00000000000E+00 -0.00000000000E+00 -0.73308259371E+02  0.73308259371E+02  0.00000000000E+00 0.  1.
          6    1    1    2  501    0 -0.12620015829E+03  0.14554575135E+03  0.35104572690E+03  0.43580631943E+03  0.17200000000E+03 0.  1.
         -6    1    1    2    0  502  0.12620015829E+03 -0.14554575135E+03  0.50818000746E+03  0.57003593366E+03  0.17200000000E+03 0.  1.
</event>
<event>
 4    1  0.5801298E+000  0.2228499E+03  0.7818608E-02  0.1131776E+00
         21   -1    0    0  501  502  0.00000000000E+00  0.00000000000E+00  0.14027184779E+04  0.14027184779E+04  0.00000000000E+00 0.  1.
         21   -1    0    0  502  503 -0.00000000000E+00 -0.00000000000E+00 -0.46993063988E+02  0.46993063988E+02  0.00000000000E+00 0. -1.
          6    1    1    2  501    0  0.72033748873E+02  0.12202140620E+03  0.10378239145E+04  0.10614803635E+04  0.17200000000E+03 0.  1.
         -6    1    1    2    0  503 -0.72033748873E+02 -0.12202140620E+03  0.31790149933E+03  0.38823117833E+03  0.17200000000E+03 0. -1.
</event>
<event>
 4    1  0.5801298E+000  0.2735758E+03  0.7818608E-02  0.1099250E+00
         21   -1    0    0  503  502  0.00000000000E+00  0.00000000000E+00  0.27002326614E+03  0.27002326614E+03  0.00000000000E+00 0. -1.
         21   -1    0    0  501  503 -0.00000000000E+00 -0.00000000000E+00 -0.27735901837E+03  0.27735901837E+03  0.00000000000E+00 0.  1.
          6    1    1    2  501    0  0.20241376893E+03 -0.65485925335E+02  0.33788738061E+01  0.27359670513E+03  0.17200000000E+03 0.  1.
         -6    1    1    2    0  502 -0.20241376893E+03  0.65485925335E+02 -0.10714626036E+02  0.27378557938E+03  0.17200000000E+03 0.  1.
</event>
<event>
 4    1  0.5801298E+000  0.1740403E+03  0.7818608E-02  0.1173699E+00
         21   -1    0    0  501  502  0.00000000000E+00  0.00000000000E+00  0.25991651749E+02  0.25991651749E+02  0.00000000000E+00 0.  1.
         21   -1    0    0  502  503 -0.00000000000E+00 -0.00000000000E+00 -0.11915737291E+04  0.11915737291E+04  0.00000000000E+00 0.  1.
          6    1    1    2  501    0  0.15809263126E+02  0.21356436665E+02 -0.49252194791E+03  0.52236759026E+03  0.17200000000E+03 0. -1.
         -6    1    1    2    0  503 -0.15809263126E+02 -0.21356436665E+02 -0.67306012941E+03  0.69519779055E+03  0.17200000000E+03 0. -1.
</event>
<event>
 4    1  0.5801298E+000  0.2901339E+03  0.7818608E-02  0.1090279E+00
         21   -1    0    0  501  502  0.00000000000E+00  0.00000000000E+00  0.49557343880E+03  0.49557343880E+03  0.00000000000E+00 0. -1.
         21   -1    0    0  502  503 -0.00000000000E+00 -0.00000000000E+00 -0.18790540632E+03  0.18790540632E+03  0.00000000000E+00 0.  1.
          6    1    1    2  501    0 -0.14362072716E+02 -0.23321107956E+03  0.25973967294E+03  0.38941285863E+03  0.17200000000E+03 0.  1.
         -6    1    1    2    0  503  0.14362072716E+02  0.23321107956E+03  0.47928359533E+02  0.29406598649E+03  0.17200000000E+03 0. -1.
</event>
<event>
 4    1  0.5801298E+000  0.1904122E+03  0.7818608E-02  0.1158090E+00
         21   -1    0    0  503  502  0.00000000000E+00  0.00000000000E+00  0.35031766331E+03  0.35031766331E+03  0.00000000000E+00 0. -1.
         21   -1    0    0  501  503 -0.00000000000E+00 -0.00000000000E+00 -0.14684996973E+03  0.14684996973E+03  0.00000000000E+00 0. -1.
          6    1    1    2  501    0  0.47095372408E+02 -0.66744495144E+02 -0.33332051455E+02  0.19330759786E+03  0.17200000000E+03 0. -1.
         -6    1    1    2    0  502 -0.47095372408E+02  0.66744495144E+02  0.23679974503E+03  0.30386003518E+03  0.17200000000E+03 0. -1.
</event>
<event>
 4    1  0.5801298E+000  0.2004091E+03  0.7818608E-02  0.1149394E+00
         21   -1    0    0  503  502  0.00000000000E+00  0.00000000000E+00  0.15179723590E+04  0.15179723590E+04  0.00000000000E+00 0. -1.
         21   -1    0    0  501  503 -0.00000000000E+00 -0.00000000000E+00 -0.55283710170E+02  0.55283710170E+02  0.00000000000E+00 0. -1.
          6    1    1    2  501    0  0.83354493861E+02 -0.60264549802E+02  0.16333624902E+03  0.25853919984E+03  0.17200000000E+03 0. -1.
         -6    1    1    2    0  502 -0.83354493861E+02  0.60264549802E+02  0.12993523998E+04  0.13147168693E+04  0.17200000000E+03 0. -1.
</event>
<event>
 4    1  0.5801298E+000  0.2163106E+03  0.7818608E-02  0.1136664E+00
         21   -1    0    0  501  502  0.00000000000E+00  0.00000000000E+00  0.29937220169E+03  0.29937220169E+03  0.00000000000E+00 0. -1.
         21   -1    0    0  502  503 -0.00000000000E+00 -0.00000000000E+00 -0.20587851405E+03  0.20587851405E+03  0.00000000000E+00 0. -1.
          6    1    1    2  501    0 -0.94958512372E+02 -0.90494039952E+02  0.17072391338E+03  0.27556658894E+03  0.17200000000E+03 0. -1.
         -6    1    1    2    0  503  0.94958512372E+02  0.90494039952E+02 -0.77230225743E+02  0.22968412681E+03  0.17200000000E+03 0. -1.
</event>
<event>
 4    1  0.5801298E+000  0.2303968E+03  0.7818608E-02  0.1126361E+00
         21   -1    0    0  501  502  0.00000000000E+00  0.00000000000E+00  0.25396573710E+02  0.25396573710E+02  0.00000000000E+00 0.  1.
         21   -1    0    0  502  503 -0.00000000000E+00 -0.00000000000E+00 -0.20912128696E+04  0.20912128696E+04  0.00000000000E+00 0. -1.
          6    1    1    2  501    0 -0.15177443328E+03 -0.21522287667E+02 -0.10090663917E+04  0.10350351058E+04  0.17200000000E+03 0.  1.
         -6    1    1    2    0  503  0.15177443328E+03  0.21522287667E+02 -0.10567499041E+04  0.10815743374E+04  0.17200000000E+03 0.  1.
</event>
<event>
 4    1  0.5801298E+000  0.2104950E+03  0.7818608E-02  0.1141175E+00
         21   -1    0    0  503  502  0.00000000000E+00  0.00000000000E+00  0.20850078733E+03  0.20850078733E+03  0.00000000000E+00 0. -1.
         21   -1    0    0  501  503 -0.00000000000E+00 -0.00000000000E+00 -0.24426636097E+03  0.24426636097E+03  0.00000000000E+00 0.  1.
          6    1    1    2  501    0 -0.63787451912E+02  0.10322454958E+03 -0.99510966107E+02  0.23283165385E+03  0.17200000000E+03 0. -1.
         -6    1    1    2    0  502  0.63787451912E+02 -0.10322454958E+03  0.63745392472E+02  0.21993549445E+03  0.17200000000E+03 0.  1.
</event>
<event>
 4    1  0.5801298E+000  0.1849453E+03  0.7818608E-02  0.1163101E+00
         21   -1    0    0  501  502  0.00000000000E+00  0.00000000000E+00  0.84769007654E+02  0.84769007654E+02  0.00000000000E+00 0. -1.
         21   -1    0    0  502  503 -0.00000000000E+00 -0.00000000000E+00 -0.66489999946E+03  0.66489999946E+03  0.00000000000E+00 0. -1.
          6    1    1    2  501    0 -0.67469284325E+02  0.82863398529E+01 -0.52508805391E+03  0.55670659428E+03  0.17200000000E+03 0. -1.
         -6    1    1    2    0  503  0.67469284325E+02 -0.82863398529E+01 -0.55042937899E+02  0.19296241284E+03  0.17200000000E+03 0. -1.
</event>
<event>
 4    1  0.5801298E+000  0.1762947E+03  0.7818608E-02  0.1171438E+00
         21   -1    0    0  503  502  0.00000000000E+00  0.00000000000E+00  0.52230892352E+02  0.52230892352E+02  0.00000000000E+00 0. -1.
         21   -1    0    0  501  503 -0.00000000000E+00 -0.00000000000E+00 -0.67590257144E+03  0.67590257144E+03  0.00000000000E+00 0. -1.
          6    1    1    2  501    0 -0.35797037928E+02 -0.14642323763E+02 -0.43775576196E+03  0.47192153236E+03  0.17200000000E+03 0.  1.
         -6    1    1    2    0  502  0.35797037928E+02  0.14642323763E+02 -0.18591591712E+03  0.25621193143E+03  0.17200000000E+03 0.  1.
</event>
<event>
 4    1  0.5801298E+000  0.1898604E+03  0.7818608E-02  0.1158587E+00
         21   -1    0    0  501  502  0.00000000000E+00  0.00000000000E+00  0.14996557115E+04  0.14996557115E+04  0.00000000000E+00 0.  1.
         21   -1    0    0  502  503 -0.00000000000E+00 -0.00000000000E+00 -0.25316106554E+02  0.25316106554E+02  0.00000000000E+00 0.  1.
          6    1    1    2  501    0  0.45131424464E+02  0.66529147969E+02  0.90857152273E+03  0.92819673826E+03  0.17200000000E+03 0.  1.
         -6    1    1    2    0  503 -0.45131424464E+02 -0.66529147969E+02  0.56576808217E+03  0.59677507975E+03  0.17200000000E+03 0.  1.
</event>
<event>
 4    1  0.5801298E+000  0.1870491E+03  0.7818608E-02  0.1161150E+00
         21   -1    0    0  503  502  0.00000000000E+00  0.00000000000E+00  0.17306131758E+03  0.17306131758E+03  0.00000000000E+00 0. -1.
         21   -1    0    0  501  503 -0.00000000000E+00 -0.00000000000E+00 -0.20588741180E+03  0.20588741180E+03  0.00000000000E+00 0. -1.
          6    1    1    2  501    0  0.56117769981E+02 -0.47478159806E+02 -0.41881344503E+02  0.19168053314E+03  0.17200000000E+03 0. -1.
         -6    1    1    2    0  502 -0.56117769981E+02  0.47478159806E+02  0.90552502790E+01  0.18726819624E+03  0.17200000000E+03 0. -1.
</event>
<event>
 4    1  0.5801298E+000  0.2931106E+03  0.7818608E-02  0.1088736E+00
         21   -1    0    0  501  502  0.00000000000E+00  0.00000000000E+00  0.15513210690E+03  0.15513210690E+03  0.00000000000E+00 0.  1.
         21   -1    0    0  502  503 -0.00000000000E+00 -0.00000000000E+00 -0.85337874207E+03  0.85337874207E+03  0.00000000000E+00 0. -1.
          6    1    1    2  501    0  0.41179085073E+01  0.23730333520E+03 -0.50359936655E+02  0.29740536863E+03  0.17200000000E+03 0.  1.
         -6    1    1    2    0  503 -0.41179085073E+01 -0.23730333520E+03 -0.64788669851E+03  0.71110548034E+03  0.17200000000E+03 0. -1.
</event>
<event>
 4    1  0.5801298E+000  0.2501986E+03  0.7818608E-02  0.1113179E+00
         21   -1    0    0  501  502  0.00000000000E+00  0.00000000000E+00  0.13181459976E+03  0.13181459976E+03  0.00000000000E+00 0. -1.
         21   -1    0    0  502  503 -0.00000000000E+00 -0.00000000000E+00 -0.53726364172E+03  0.53726364172E+03  0.00000000000E+00 0.  1.
          6    1    1    2  501    0  0.13600367698E+03 -0.12049200969E+03 -0.88751034891E+02  0.26547329573E+03  0.17200000000E+03 0. -1.
         -6    1    1    2    0  503 -0.13600367698E+03  0.12049200969E+03 -0.31669800707E+03  0.40360494575E+03  0.17200000000E+03 0.  1.
</event>
<event>
 4    1  0.5801298E+000  0.1754567E+03  0.7818608E-02  0.1172274E+00
         21   -1    0    0  501  502  0.00000000000E+00  0.00000000000E+00  0.18462576784E+03  0.18462576784E+03  0.00000000000E+00 0. -1.
         21   -1    0    0  502  503 -0.00000000000E+00 -0.00000000000E+00 -0.16771648851E+03  0.16771648851E+03  0.00000000000E+00 0. -1.
          6    1    1    2  501    0 -0.33250008060E+02 -0.97713088985E+01 -0.49676882921E+01  0.17552697639E+03  0.17200000000E+03 0. -1.
         -6    1    1    2    0  503  0.33250008060E+02  0.97713088985E+01  0.21876967624E+02  0.17681527996E+03  0.17200000000E+03 0. -1.
</event>
<event>
 4    1  0.5801298E+000  0.2145985E+03  0.7818608E-02  0.1137975E+00
         21   -1    0    0  503  502  0.00000000000E+00  0.00000000000E+00  0.96714294684E+03  0.96714294684E+03  0.00000000000E+00 0.  1.
         21   -1    0    0  501  503 -0.00000000000E+00 -0.00000000000E+00 -0.51634410959E+02  0.51634410959E+02  0.00000000000E+00 0. -1.
          6    1    1    2  501    0  0.12818593614E+03 -0.60714510524E+01  0.31566870495E+03  0.38170568246E+03  0.17200000000E+03 0. -1.
         -6    1    1    2    0  502 -0.12818593614E+03  0.60714510524E+01  0.59983983093E+03  0.63707167533E+03  0.17200000000E+03 0.  1.
</event>
<event>
 4    1  0.5801298E+000  0.1890873E+03  0.7818608E-02  0.1159287E+00
         21   -1    0    0  501  502  0.00000000000E+00  0.00000000000E+00  0.32924842249E+03  0.32924842249E+03  0.00000000000E+00 0. -1.
         21   -1    0    0  502  503 -0.00000000000E+00 -0.00000000000E+00 -0.10923227357E+03  0.10923227357E+03  0.00000000000E+00 0. -1.
          6    1    1    2  501    0 -0.39687475707E+02  0.67785744428E+02  0.12678304156E+03  0.22765751141E+03  0.17200000000E+03 0. -1.
         -6    1    1    2    0  503  0.39687475707E+02 -0.67785744428E+02  0.93233107363E+02  0.21082318465E+03  0.17200000000E+03 0. -1.
</event>
<event>
 4    1  0.5801298E+000  0.2812315E+03  0.7818608E-02  0.1095018E+00
         21   -1    0    0  503  502  0.00000000000E+00  0.00000000000E+00  0.26568581717E+03  0.26568581717E+03  0.00000000000E+00 0.  1.
         21   -1    0    0  501  503 -0.00000000000E+00 -0.00000000000E+00 -0.55880996627E+03  0.55880996627E+03  0.00000000000E+00 0. -1.
          6    1    1    2  501    0 -0.22230050711E+03  0.94664712707E+01 -0.42836738374E+03  0.51243511296E+03  0.17200000000E+03 0. -1.
         -6    1    1    2    0  502  0.22230050711E+03 -0.94664712707E+01  0.13524323465E+03  0.31206067048E+03  0.17200000000E+03 0.  1.
</event>
<event>
 4    1  0.5801298E+000  0.1734610E+03  0.7818608E-02  0.1174286E+00
         21   -1    0    0  501  502  0.00000000000E+00  0.00000000000E+00  0.15305346374E+03  0.15305346374E+03  0.00000000000E+00 0. -1.
         21   -1    0    0  502  503 -0.00000000000E+00 -0.00000000000E+00 -0.21140501309E+03  0.21140501309E+03  0.00000000000E+00 0. -1.
          6    1    1    2  501    0 -0.52157989922E+01  0.21852240804E+02  0.19065275008E+02  0.17450561509E+03  0.17200000000E+03 0. -1.
         -6    1    1    2    0  503  0.52157989922E+01 -0.21852240804E+02 -0.77416824366E+02  0.18995286174E+03  0.17200000000E+03 0. -1.
</event>
<event>
 4    1  0.5801298E+000  0.2260373E+03  0.7818608E-02  0.1129460E+00
         21   -1    0    0  503  502  0.00000000000E+00  0.00000000000E+00  0.22468559201E+03  0.22468559201E+03  0.00000000000E+00 0.  1.
         21   -1    0    0  501  503 -0.00000000000E+00 -0.00000000000E+00 -0.15442568366E+04  0.15442568366E+04  0.00000000000E+00 0. -1.
          6    1    1    2  501    0 -0.13849230679E+03  0.48257150342E+02 -0.14765441582E+04  0.14937454679E+04  0.17200000000E+03 0. -1.
         -6    1    1    2    0  502  0.13849230679E+03 -0.48257150342E+02  0.15697291361E+03  0.27519696075E+03  0.17200000000E+03 0.  1.
</event>
<event>
 4    1  0.5801298E+000  0.2292040E+03  0.7818608E-02  0.1127201E+00
         21   -1    0    0  503  502  0.00000000000E+00  0.00000000000E+00  0.13737222552E+03  0.13737222552E+03  0.00000000000E+00 0.  1.
         21   -1    0    0  501  503 -0.00000000000E+00 -0.00000000000E+00 -0.59090314540E+03  0.59090314540E+03  0.00000000000E+00 0. -1.
          6    1    1    2  501    0  0.54307359458E+02 -0.14142550785E+03 -0.44305652362E+03  0.49883218288E+03  0.17200000000E+03 0. -1.
         -6    1    1    2    0  502 -0.54307359458E+02  0.14142550785E+03 -0.10474396263E+02  0.22944318804E+03  0.17200000000E+03 0.  1.
</event>
<event>
 4    1  0.5801298E+000  0.3521151E+03  0.7818608E-02  0.1061750E+00
         21   -1    0    0  503  502  0.00000000000E+00  0.00000000000E+00  0.36917745545E+03  0.36917745545E+03  0.00000000000E+00 0.  1.
         21   -1    0    0  501  503 -0.00000000000E+00 -0.00000000000E+00 -0.42768773717E+03  0.42768773717E+03  0.00000000000E+00 0.  1.
          6    1    1    2  501    0  0.20665913047E+03 -0.22736107833E+03 -0.21389373898E+03  0.41198979079E+03  0.17200000000E+03 0.  1.
         -6    1    1    2    0  502 -0.20665913047E+03  0.22736107833E+03  0.15538345726E+03  0.38487540183E+03  0.17200000000E+03 0.  1.
</event>
<event>
 4    1  0.5801298E+000  0.1775197E+03  0.7818608E-02  0.1170225E+00
         21   -1    0    0  503  502  0.00000000000E+00  0.00000000000E+00  0.14978725037E+02  0.14978725037E+02  0.00000000000E+00 0. -1.
         21   -1    0    0  501  503 -0.00000000000E+00 -0.00000000000E+00 -0.21314950754E+04  0.21314950754E+04  0.00000000000E+00 0. -1.
          6    1    1    2  501    0 -0.20334606627E+02  0.38932683179E+02 -0.11804455289E+04  0.11937189354E+04  0.17200000000E+03 0. -1.
         -6    1    1    2    0  502  0.20334606627E+02 -0.38932683179E+02 -0.93607082144E+03  0.95275486501E+03  0.17200000000E+03 0. -1.
</event>
<event>
 4    1  0.5801298E+000  0.3899122E+03  0.7818608E-02  0.1047330E+00
         21   -1    0    0  501  502  0.00000000000E+00  0.00000000000E+00  0.12016732065E+03  0.12016732065E+03  0.00000000000E+00 0. -1.
         21   -1    0    0  502  503 -0.00000000000E+00 -0.00000000000E+00 -0.13596119049E+04  0.13596119049E+04  0.00000000000E+00 0.  1.
          6    1    1    2  501    0  0.46256812858E+02 -0.34685423195E+03 -0.42471443232E+03  0.57655346672E+03  0.17200000000E+03 0. -1.
         -6    1    1    2    0  503 -0.46256812858E+02  0.34685423195E+03 -0.81473015198E+03  0.90322575888E+03  0.17200000000E+03 0.  1.
</event>
<event>
 4    1  0.5801298E+000  0.1968705E+03  0.7818608E-02  0.1152407E+00
         21   -1    0    0  501  502  0.00000000000E+00  0.00000000000E+00  0.67655391218E+03  0.67655391218E+03  0.00000000000E+00 0. -1.
         21   -1    0    0  502  503 -0.00000000000E+00 -0.00000000000E+00 -0.61772711849E+02  0.61772711849E+02  0.00000000000E+00 0. -1.
          6    1    1    2  501    0  0.87859386008E+02 -0.38140744115E+02  0.40686662435E+03  0.45199384739E+03  0.17200000000E+03 0. -1.
         -6    1    1    2    0  503 -0.87859386008E+02  0.38140744115E+02  0.20791457599E+03  0.28633277664E+03  0.17200000000E+03 0. -1.
</event>
<event>
 4    1  0.5801298E+000  0.1819005E+03  0.7818608E-02  0.1165976E+00
         21   -1    0    0  503  502  0.00000000000E+00  0.00000000000E+00  0.38981826512E+03  0.38981826512E+03  0.00000000000E+00 0.  1.
         21   -1    0    0  501  503 -0.00000000000E+00 -0.00000000000E+00 -0.19300406586E+03  0.19300406586E+03  0.00000000000E+00 0.  1.
          6    1    1    2  501    0 -0.97868899053E+01 -0.58378258646E+02  0.31652132380E+03  0.36506650451E+03  0.17200000000E+03 0.  1.
         -6    1    1    2    0  502  0.97868899053E+01  0.58378258646E+02 -0.11970712454E+03  0.21775582647E+03  0.17200000000E+03 0.  1.
</event>
<event>
 4    1  0.5801298E+000  0.3077298E+03  0.7818608E-02  0.1081439E+00
         21   -1    0    0  501  502  0.00000000000E+00  0.00000000000E+00  0.19528531135E+03  0.19528531135E+03  0.00000000000E+00 0.  1.
         21   -1    0    0  502  503 -0.00000000000E+00 -0.00000000000E+00 -0.80641217760E+03  0.80641217760E+03  0.00000000000E+00 0.  1.
          6    1    1    2  501    0 -0.10622246100E+03 -0.23201386596E+03 -0.62180112335E+03  0.69378259002E+03  0.17200000000E+03 0.  1.
         -6    1    1    2    0  503  0.10622246100E+03  0.23201386596E+03  0.10674257102E+02  0.30791489893E+03  0.17200000000E+03 0.  1.
</event>
<event>
 4    1  0.5801298E+000  0.1730555E+03  0.7818608E-02  0.1174698E+00
         21   -1    0    0  503  502  0.00000000000E+00  0.00000000000E+00  0.60438782373E+02  0.60438782373E+02  0.00000000000E+00 0.  1.
         21   -1    0    0  501  503 -0.00000000000E+00 -0.00000000000E+00 -0.68285422684E+03  0.68285422684E+03  0.00000000000E+00 0.  1.
          6    1    1    2  501    0 -0.14018098425E+02 -0.12949705308E+02 -0.50587042078E+03  0.53465230250E+03  0.17200000000E+03 0.  1.
         -6    1    1    2    0  502  0.14018098425E+02  0.12949705308E+02 -0.11654502369E+03  0.20864070671E+03  0.17200000000E+03 0.  1.
</event>
<event>
 4    1  0.5801298E+000  0.1986977E+03  0.7818608E-02  0.1150842E+00
         21   -1    0    0  503  502  0.00000000000E+00  0.00000000000E+00  0.32226158033E+03  0.32226158033E+03  0.00000000000E+00 0. -1.
         21   -1    0    0  501  503 -0.00000000000E+00 -0.00000000000E+00 -0.27565169001E+03  0.27565169001E+03  0.00000000000E+00 0. -1.
          6    1    1    2  501    0 -0.88908983187E+02  0.44631259721E+02  0.24613431233E+03  0.31632713501E+03  0.17200000000E+03 0. -1.
         -6    1    1    2    0  502  0.88908983187E+02 -0.44631259721E+02 -0.19952442201E+03  0.28158613534E+03  0.17200000000E+03 0. -1.
</event>
<event>
 4    1  0.5801298E+000  0.1748884E+03  0.7818608E-02  0.1172844E+00
         21   -1    0    0  501  502  0.00000000000E+00  0.00000000000E+00  0.24470562520E+03  0.24470562520E+03  0.00000000000E+00 0. -1.
         21   -1    0    0  502  503 -0.00000000000E+00 -0.00000000000E+00 -0.13142478836E+03  0.13142478836E+03  0.00000000000E+00 0. -1.
          6    1    1    2  501    0  0.21651260343E+02  0.23090801958E+02  0.98251453623E+02  0.20059738370E+03  0.17200000000E+03 0.  1.
         -6    1    1    2    0  503 -0.21651260343E+02 -0.23090801958E+02  0.15029383218E+02  0.17553302985E+03  0.17200000000E+03 0.  1.
</event>
<event>
 4    1  0.5801298E+000  0.1878026E+03  0.7818608E-02  0.1160458E+00
         21   -1    0    0  501  502  0.00000000000E+00  0.00000000000E+00  0.35068857402E+03  0.35068857402E+03  0.00000000000E+00 0. -1.
         21   -1    0    0  502  503 -0.00000000000E+00 -0.00000000000E+00 -0.10382999321E+03  0.10382999321E+03  0.00000000000E+00 0. -1.
          6    1    1    2  501    0 -0.46105267752E+02  0.59666833286E+02  0.83179470555E+02  0.20539876103E+03  0.17200000000E+03 0. -1.
         -6    1    1    2    0  503  0.46105267752E+02 -0.59666833286E+02  0.16367911026E+03  0.24911980620E+03  0.17200000000E+03 0. -1.
</event>
<event>
 4    1  0.5801298E+000  0.2401154E+03  0.7818608E-02  0.1119716E+00
         21   -1    0    0  503  502  0.00000000000E+00  0.00000000000E+00  0.67212944062E+02  0.67212944062E+02  0.00000000000E+00 0. -1.
         21   -1    0    0  501  503 -0.00000000000E+00 -0.00000000000E+00 -0.96814419997E+03  0.96814419997E+03  0.00000000000E+00 0. -1.
          6    1    1    2  501    0 -0.79159849975E+02 -0.14766564025E+03 -0.27569830136E+03  0.36560221078E+03  0.17200000000E+03 0. -1.
         -6    1    1    2    0  502  0.79159849975E+02  0.14766564025E+03 -0.62523295455E+03  0.66975493325E+03  0.17200000000E+03 0. -1.
</event>
<event>
 4    1  0.5801298E+000  0.1749229E+03  0.7818608E-02  0.1172809E+00
         21   -1    0    0  501  502  0.00000000000E+00  0.00000000000E+00  0.36630656272E+03  0.36630656272E+03  0.00000000000E+00 0.  1.
         21   -1    0    0  502  503 -0.00000000000E+00 -0.00000000000E+00 -0.14330114436E+03  0.14330114436E+03  0.00000000000E+00 0.  1.
          6    1    1    2  501    0 -0.20869968153E+02 -0.24051434496E+02  0.27606206746E+03  0.32681537933E+03  0.17200000000E+03 0.  1.
         -6    1    1    2    0  503  0.20869968153E+02  0.24051434496E+02 -0.53056649108E+02  0.18279232776E+03  0.17200000000E+03 0.  1.
</event>
<event>
 4    1  0.5801298E+000  0.1782747E+03  0.7818608E-02  0.1169483E+00
         21   -1    0    0  501  502  0.00000000000E+00  0.00000000000E+00  0.20471597764E+03  0.20471597764E+03  0.00000000000E+00 0.  1.
         21   -1    0    0  502  503 -0.00000000000E+00 -0.00000000000E+00 -0.17733561410E+03  0.17733561410E+03  0.00000000000E+00 0.  1.
          6    1    1    2  501    0  0.19578360735E+02 -0.42597610448E+02  0.81106115632E+02  0.19585727104E+03  0.17200000000E+03 0.  1.
         -6    1    1    2    0  503 -0.19578360735E+02  0.42597610448E+02 -0.53725752095E+02  0.18619432071E+03  0.17200000000E+03 0.  1.
</event>
<event>
 4    1  0.5801298E+000  0.1823304E+03  0.7818608E-02  0.1165567E+00
         21   -1    0    0  501  502  0.00000000000E+00  0.00000000000E+00  0.23981262554E+03  0.23981262554E+03  0.00000000000E+00 0.  1.
         21   -1    0    0  502  503 -0.00000000000E+00 -0.00000000000E+00 -0.21973805852E+03  0.21973805852E+03  0.00000000000E+00 0.  1.
          6    1    1    2  501    0  0.19336256618E+02  0.57327886671E+02  0.14963947530E+03  0.23587358898E+03  0.17200000000E+03 0.  1.
         -6    1    1    2    0  503 -0.19336256618E+02 -0.57327886671E+02 -0.12956490827E+03  0.22367709508E+03  0.17200000000E+03 0.  1.
</event>
<event>
 4    1  0.5801298E+000  0.1915848E+03  0.7818608E-02  0.1157040E+00
         21   -1    0    0  503  502  0.00000000000E+00  0.00000000000E+00  0.41704913650E+03  0.41704913650E+03  0.00000000000E+00 0. -1.
         21   -1    0    0  501  503 -0.00000000000E+00 -0.00000000000E+00 -0.11434215383E+03  0.11434215383E+03  0.00000000000E+00 0. -1.
          6    1    1    2  501    0  0.51556249540E+02  0.66803266945E+02  0.23850633609E+02  0.19306365806E+03  0.17200000000E+03 0. -1.
         -6    1    1    2    0  502 -0.51556249540E+02 -0.66803266945E+02  0.27885634907E+03  0.33832763227E+03  0.17200000000E+03 0. -1.
</event>
<event>
 4    1  0.5801298E+000  0.2030623E+03  0.7818608E-02  0.1147181E+00
         21   -1    0    0  501  502  0.00000000000E+00  0.00000000000E+00  0.56009255523E+03  0.56009255523E+03  0.00000000000E+00 0.  1.
         21   -1    0    0  502  503 -0.00000000000E+00 -0.00000000000E+00 -0.95930082702E+02  0.95930082702E+02  0.00000000000E+00 0.  1.
          6    1    1    2  501    0 -0.83775151165E+02  0.68058923587E+02  0.39026327211E+03  0.43993148852E+03  0.17200000000E+03 0.  1.
         -6    1    1    2    0  503  0.83775151165E+02 -0.68058923587E+02  0.73899200420E+02  0.21609114941E+03  0.17200000000E+03 0.  1.
</event>
<event>
 4    1  0.5801298E+000  0.1793202E+03  0.7818608E-02  0.1168463E+00
         21   -1    0    0  501  502  0.00000000000E+00  0.00000000000E+00  0.43927322771E+03  0.43927322771E+03  0.00000000000E+00 0.  1.
         21   -1    0    0  502  503 -0.00000000000E+00 -0.00000000000E+00 -0.83059720185E+02  0.83059720185E+02  0.00000000000E+00 0.  1.
          6    1    1    2  501    0  0.13311549675E+02 -0.48934118794E+02  0.26807869710E+03  0.32252431408E+03  0.17200000000E+03 0.  1.
         -6    1    1    2    0  503 -0.13311549675E+02  0.48934118794E+02  0.88134810427E+02  0.19980863381E+03  0.17200000000E+03 0.  1.
</event>
<event>
 4    1  0.5801298E+000  0.1853443E+03  0.7818608E-02  0.1162729E+00
         21   -1    0    0  501  502  0.00000000000E+00  0.00000000000E+00  0.14167470238E+03  0.14167470238E+03  0.00000000000E+00 0.  1.
         21   -1    0    0  502  503 -0.00000000000E+00 -0.00000000000E+00 -0.27523934259E+03  0.27523934259E+03  0.00000000000E+00 0.  1.
          6    1    1    2  501    0 -0.62001823226E+02 -0.30401826903E+02  0.51403119867E+01  0.18541553325E+03  0.17200000000E+03 0.  1.
         -6    1    1    2    0  503  0.62001823226E+02  0.30401826903E+02 -0.13870495220E+03  0.23149851172E+03  0.17200000000E+03 0.  1.
</event>
<event>
 4    1  0.5801298E+000  0.2135490E+03  0.7818608E-02  0.1138786E+00
         21   -1    0    0  501  502  0.00000000000E+00  0.00000000000E+00  0.16736866837E+03  0.16736866837E+03  0.00000000000E+00 0. -1.
         21   -1    0    0  502  503 -0.00000000000E+00 -0.00000000000E+00 -0.27294015834E+03  0.27294015834E+03  0.00000000000E+00 0.  1.
          6    1    1    2  501    0 -0.85912003728E+02 -0.92942470828E+02 -0.43662097346E+02  0.21796686448E+03  0.17200000000E+03 0. -1.
         -6    1    1    2    0  503  0.85912003728E+02  0.92942470828E+02 -0.61909392627E+02  0.22234196222E+03  0.17200000000E+03 0.  1.
</event>
<event>
 4    1  0.5801298E+000  0.1947296E+03  0.7818608E-02  0.1154263E+00
         21   -1    0    0  501  502  0.00000000000E+00  0.00000000000E+00  0.25241278878E+03  0.25241278878E+03  0.00000000000E+00 0. -1.
         21   -1    0    0  502  503 -0.00000000000E+00 -0.00000000000E+00 -0.16018809013E+03  0.16018809013E+03  0.00000000000E+00 0. -1.
          6    1    1    2  501    0 -0.46245810281E+02  0.78720767508E+02  0.97552514788E+02  0.21779836397E+03  0.17200000000E+03 0. -1.
         -6    1    1    2    0  503  0.46245810281E+02 -0.78720767508E+02 -0.53278161366E+01  0.19480251495E+03  0.17200000000E+03 0. -1.
</event>
<event>
 4    1  0.5801298E+000  0.2250353E+03  0.7818608E-02  0.1130184E+00
         21   -1    0    0  503  502  0.00000000000E+00  0.00000000000E+00  0.97394958621E+03  0.97394958621E+03  0.00000000000E+00 0. -1.
         21   -1    0    0  501  503 -0.00000000000E+00 -0.00000000000E+00 -0.52101836440E+02  0.52101836440E+02  0.00000000000E+00 0. -1.
          6    1    1    2  501    0  0.67980203542E+02 -0.12820125049E+03  0.43773285708E+03  0.49218992561E+03  0.17200000000E+03 0. -1.
         -6    1    1    2    0  502 -0.67980203542E+02  0.12820125049E+03  0.48411489269E+03  0.53386149704E+03  0.17200000000E+03 0. -1.
</event>
<event>
 4    1  0.5801298E+000  0.2560109E+03  0.7818608E-02  0.1109564E+00
         21   -1    0    0  501  502  0.00000000000E+00  0.00000000000E+00  0.76903984608E+02  0.76903984608E+02  0.00000000000E+00 0.  1.
         21   -1    0    0  502  503 -0.00000000000E+00 -0.00000000000E+00 -0.89507522273E+03  0.89507522273E+03  0.00000000000E+00 0. -1.
          6    1    1    2  501    0 -0.10913634107E+03  0.15507036630E+03 -0.51538675127E+03  0.57546942823E+03  0.17200000000E+03 0. -1.
         -6    1    1    2    0  503  0.10913634107E+03 -0.15507036630E+03 -0.30278448685E+03  0.39650977910E+03  0.17200000000E+03 0. -1.
</event>
<event>
 4    1  0.5801298E+000  0.1778920E+03  0.7818608E-02  0.1169859E+00
         21   -1    0    0  503  502  0.00000000000E+00  0.00000000000E+00  0.36162711002E+03  0.36162711002E+03  0.00000000000E+00 0. -1.
         21   -1    0    0  501  503 -0.00000000000E+00 -0.00000000000E+00 -0.94332408015E+02  0.94332408015E+02  0.00000000000E+00 0. -1.
          6    1    1    2  501    0 -0.45189239855E+02  0.44136101928E+01  0.72331397071E+02  0.19203483631E+03  0.17200000000E+03 0. -1.
         -6    1    1    2    0  502  0.45189239855E+02 -0.44136101928E+01  0.19496330493E+03  0.26392468172E+03  0.17200000000E+03 0. -1.
</event>
<event>
 4    1  0.5801298E+000  0.2211785E+03  0.7818608E-02  0.1133007E+00
         21   -1    0    0  501  502  0.00000000000E+00  0.00000000000E+00  0.53454874225E+03  0.53454874225E+03  0.00000000000E+00 0. -1.
         21   -1    0    0  502  503 -0.00000000000E+00 -0.00000000000E+00 -0.94609160941E+02  0.94609160941E+02  0.00000000000E+00 0. -1.
          6    1    1    2  501    0  0.13057196113E+03  0.47821467707E+02  0.27684753650E+03  0.35435079832E+03  0.17200000000E+03 0. -1.
         -6    1    1    2    0  503 -0.13057196113E+03 -0.47821467707E+02  0.16309204481E+03  0.27480710487E+03  0.17200000000E+03 0. -1.
</event>
<event>
 4    1  0.5801298E+000  0.1785615E+03  0.7818608E-02  0.1169202E+00
         21   -1    0    0  501  502  0.00000000000E+00  0.00000000000E+00  0.29219360763E+02  0.29219360763E+02  0.00000000000E+00 0. -1.
         21   -1    0    0  502  503 -0.00000000000E+00 -0.00000000000E+00 -0.11606560063E+04  0.11606560063E+04  0.00000000000E+00 0. -1.
          6    1    1    2  501    0 -0.29171934655E+02  0.38068647782E+02 -0.42018297275E+03  0.45655005674E+03  0.17200000000E+03 0. -1.
         -6    1    1    2    0  503  0.29171934655E+02 -0.38068647782E+02 -0.71125367280E+03  0.73332531034E+03  0.17200000000E+03 0. -1.
</event>
<event>
 4    1  0.5801298E+000  0.2530979E+03  0.7818608E-02  0.1111363E+00
         21   -1    0    0  501  502  0.00000000000E+00  0.00000000000E+00  0.30872633731E+03  0.30872633731E+03  0.00000000000E+00 0.  1.
         21   -1    0    0  502  503 -0.00000000000E+00 -0.00000000000E+00 -0.21105679355E+03  0.21105679355E+03  0.00000000000E+00 0. -1.
          6    1    1    2  501    0 -0.18536919355E+03  0.10620856191E+02  0.15063187880E+02  0.25354573578E+03  0.17200000000E+03 0.  1.
         -6    1    1    2    0  503  0.18536919355E+03 -0.10620856191E+02  0.82606355878E+02  0.26623739507E+03  0.17200000000E+03 0. -1.
</event>
<event>
 4    1  0.5801298E+000  0.1728506E+03  0.7818608E-02  0.1174907E+00
         21   -1    0    0  503  502  0.00000000000E+00  0.00000000000E+00  0.51802982325E+03  0.51802982325E+03  0.00000000000E+00 0.  1.
         21   -1    0    0  501  503 -0.00000000000E+00 -0.00000000000E+00 -0.62796140637E+02  0.62796140637E+02  0.00000000000E+00 0. -1.
          6    1    1    2  501    0 -0.47773440436E+01  0.16447211128E+02  0.31055146354E+03  0.35541461039E+03  0.17200000000E+03 0.  1.
         -6    1    1    2    0  502  0.47773440436E+01 -0.16447211128E+02  0.14468221907E+03  0.22541135349E+03  0.17200000000E+03 0. -1.
</event>
<event>
 4    1  0.5801298E+000  0.2741444E+03  0.7818608E-02  0.1098931E+00
         21   -1    0    0  503  502  0.00000000000E+00  0.00000000000E+00  0.11554651946E+03  0.11554651946E+03  0.00000000000E+00 0.  1.
         21   -1    0    0  501  503 -0.00000000000E+00 -0.00000000000E+00 -0.86345622090E+03  0.86345622090E+03  0.00000000000E+00 0. -1.
          6    1    1    2  501    0 -0.20629101170E+03  0.54910668625E+02 -0.61709023139E+03  0.67524478281E+03  0.17200000000E+03 0. -1.
         -6    1    1    2    0  502  0.20629101170E+03 -0.54910668625E+02 -0.13081947005E+03  0.30375795756E+03  0.17200000000E+03 0.  1.
</event>
<event>
 4    1  0.5801298E+000  0.1722564E+03  0.7818608E-02  0.1175515E+00
         21   -1    0    0  501  502  0.00000000000E+00  0.00000000000E+00  0.27339498544E+03  0.27339498544E+03  0.00000000000E+00 0.  1.
         21   -1    0    0  502  503 -0.00000000000E+00 -0.00000000000E+00 -0.11898423340E+03  0.11898423340E+03  0.00000000000E+00 0.  1.
          6    1    1    2  501    0 -0.40689163543E+01  0.84677661969E+01  0.13535194540E+03  0.21907169664E+03  0.17200000000E+03 0.  1.
         -6    1    1    2    0  503  0.40689163543E+01 -0.84677661969E+01  0.19058806642E+02  0.17330752221E+03  0.17200000000E+03 0.  1.
</event>
<event>
 4    1  0.5801298E+000  0.1776567E+03  0.7818608E-02  0.1170090E+00
         21   -1    0    0  501  502  0.00000000000E+00  0.00000000000E+00  0.27541490787E+02  0.27541490787E+02  0.00000000000E+00 0.  1.
         21   -1    0    0  502  503 -0.00000000000E+00 -0.00000000000E+00 -0.12033744957E+04  0.12033744957E+04  0.00000000000E+00 0. -1.
          6    1    1    2  501    0  0.38914011931E+02 -0.21531805815E+02 -0.45350267810E+03  0.48705913197E+03  0.17200000000E+03 0.  1.
         -6    1    1    2    0  503 -0.38914011931E+02  0.21531805815E+02 -0.72233032683E+03  0.74385685453E+03  0.17200000000E+03 0. -1.
</event>
<event>
 4    1  0.5801298E+000  0.1776477E+03  0.7818608E-02  0.1170099E+00
         21   -1    0    0  501  502  0.00000000000E+00  0.00000000000E+00  0.84506058211E+02  0.84506058211E+02  0.00000000000E+00 0.  1.
         21   -1    0    0  502  503 -0.00000000000E+00 -0.00000000000E+00 -0.45094772241E+03  0.45094772241E+03  0.00000000000E+00 0.  1.
          6    1    1    2  501    0 -0.89684287431E+01 -0.43523346958E+02 -0.72232893668E+02  0.19177149260E+03  0.17200000000E+03 0. -1.
         -6    1    1    2    0  503  0.89684287431E+01  0.43523346958E+02 -0.29420877053E+03  0.34368228802E+03  0.17200000000E+03 0. -1.
</event>
<event>
 4    1  0.5801298E+000  0.2071874E+03  0.7818608E-02  0.1143813E+00
         21   -1    0    0  501  502  0.00000000000E+00  0.00000000000E+00  0.85311294713E+02  0.85311294713E+02  0.00000000000E+00 0.  1.
         21   -1    0    0  502  503 -0.00000000000E+00 -0.00000000000E+00 -0.10642395373E+04  0.10642395373E+04  0.00000000000E+00 0.  1.
          6    1    1    2  501    0  0.40413461209E+02  0.10820990764E+03 -0.72129562379E+02  0.21938392313E+03  0.17200000000E+03 0.  1.
         -6    1    1    2    0  503 -0.40413461209E+02 -0.10820990764E+03 -0.90679868019E+03  0.93016690887E+03  0.17200000000E+03 0.  1.
</event>
<event>
 4    1  0.5801298E+000  0.1885219E+03  0.7818608E-02  0.1159801E+00
         21   -1    0    0  501  502  0.00000000000E+00  0.00000000000E+00  0.20040608030E+03  0.20040608030E+03  0.00000000000E+00 0. -1.
         21   -1    0    0  502  503 -0.00000000000E+00 -0.00000000000E+00 -0.55874383935E+03  0.55874383935E+03  0.00000000000E+00 0. -1.
          6    1    1    2  501    0  0.69834228201E+02 -0.32858676284E+02  0.13443562855E+03  0.23154578437E+03  0.17200000000E+03 0. -1.
         -6    1    1    2    0  503 -0.69834228201E+02  0.32858676284E+02 -0.49277338760E+03  0.52760413528E+03  0.17200000000E+03 0. -1.
</event>
<event>
 4    1  0.5801298E+000  0.1803347E+03  0.7818608E-02  0.1167480E+00
         21   -1    0    0  501  502  0.00000000000E+00  0.00000000000E+00  0.29693122872E+03  0.29693122872E+03  0.00000000000E+00 0.  1.
         21   -1    0    0  502  503 -0.00000000000E+00 -0.00000000000E+00 -0.11814959808E+03  0.11814959808E+03  0.00000000000E+00 0.  1.
          6    1    1    2  501    0  0.52053345823E+02  0.15067818860E+02  0.14547288738E+03  0.23169581554E+03  0.17200000000E+03 0. -1.
         -6    1    1    2    0  503 -0.52053345823E+02 -0.15067818860E+02  0.33308743259E+02  0.18338501126E+03  0.17200000000E+03 0. -1.
</event>
<event>
 4    1  0.5801298E+000  0.2245235E+03  0.7818608E-02  0.1130555E+00
         21   -1    0    0  501  502  0.00000000000E+00  0.00000000000E+00  0.91821972939E+03  0.91821972939E+03  0.00000000000E+00 0.  1.
         21   -1    0    0  502  503 -0.00000000000E+00 -0.00000000000E+00 -0.10754035204E+03  0.10754035204E+03  0.00000000000E+00 0.  1.
          6    1    1    2  501    0  0.13743962625E+01  0.14430846832E+03  0.76416820450E+03  0.79646962765E+03  0.17200000000E+03 0.  1.
         -6    1    1    2    0  503 -0.13743962625E+01 -0.14430846832E+03  0.46511172843E+02  0.22929045378E+03  0.17200000000E+03 0.  1.
</event>
<event>
 4    1  0.5801298E+000  0.1752182E+03  0.7818608E-02  0.1172513E+00
         21   -1    0    0  501  502  0.00000000000E+00  0.00000000000E+00  0.18007769366E+03  0.18007769366E+03  0.00000000000E+00 0.  1.
         21   -1    0    0  502  503 -0.00000000000E+00 -0.00000000000E+00 -0.17122825241E+03  0.17122825241E+03  0.00000000000E+00 0.  1.
          6    1    1    2  501    0 -0.23922259409E+02  0.23348250952E+02 -0.71103518168E+01  0.17536240310E+03  0.17200000000E+03 0.  1.
         -6    1    1    2    0  503  0.23922259409E+02 -0.23348250952E+02  0.15959793064E+02  0.17594354297E+03  0.17200000000E+03 0.  1.
</event>
<event>
 4    1  0.5801298E+000  0.1898435E+03  0.7818608E-02  0.1158603E+00
         21   -1    0    0  503  502  0.00000000000E+00  0.00000000000E+00  0.11399118132E+03  0.11399118132E+03  0.00000000000E+00 0. -1.
         21   -1    0    0  501  503 -0.00000000000E+00 -0.00000000000E+00 -0.45001442457E+03  0.45001442457E+03  0.00000000000E+00 0. -1.
          6    1    1    2  501    0 -0.83825389578E+01  0.79914202038E+02 -0.32180618827E+03  0.37363052533E+03  0.17200000000E+03 0. -1.
         -6    1    1    2    0  502  0.83825389578E+01 -0.79914202038E+02 -0.14217054976E+02  0.19037508056E+03  0.17200000000E+03 0. -1.
</event>
<event>
 4    1  0.5801298E+000  0.1940672E+03  0.7818608E-02  0.1154843E+00
         21   -1    0    0  501  502  0.00000000000E+00  0.00000000000E+00  0.93026386089E+02  0.93026386089E+02  0.00000000000E+00 0.  1.
         21   -1    0    0  502  503 -0.00000000000E+00 -0.00000000000E+00 -0.54452402498E+03  0.54452402498E+03  0.00000000000E+00 0.  1.
          6    1    1    2  501    0 -0.12356001473E+02 -0.89024849390E+02 -0.64302636009E+02  0.20444295923E+03  0.17200000000E+03 0.  1.
         -6    1    1    2    0  503  0.12356001473E+02  0.89024849390E+02 -0.38719500288E+03  0.43310745184E+03  0.17200000000E+03 0.  1.
</event>
<event>
 4    1  0.5801298E+000  0.2075114E+03  0.7818608E-02  0.1143552E+00
         21   -1    0    0  501  502  0.00000000000E+00  0.00000000000E+00  0.25186610656E+03  0.25186610656E+03  0.00000000000E+00 0. -1.
         21   -1    0    0  502  503 -0.00000000000E+00 -0.00000000000E+00 -0.22150935616E+03  0.22150935616E+03  0.00000000000E+00 0. -1.
          6    1    1    2  501    0 -0.82316581670E+02 -0.81859275241E+02  0.12823723130E+03  0.24393800043E+03  0.17200000000E+03 0. -1.
         -6    1    1    2    0  503  0.82316581670E+02  0.81859275241E+02 -0.97880480908E+02  0.22943746229E+03  0.17200000000E+03 0. -1.
</event>
<event>
 4    1  0.5801298E+000  0.1862141E+03  0.7818608E-02  0.1161921E+00
         21   -1    0    0  503  502  0.00000000000E+00  0.00000000000E+00  0.11354422953E+03  0.11354422953E+03  0.00000000000E+00 0. -1.
         21   -1    0    0  501  503 -0.00000000000E+00 -0.00000000000E+00 -0.36097796004E+03  0.36097796004E+03  0.00000000000E+00 0. -1.
          6    1    1    2  501    0  0.69321471094E+02 -0.16918261567E+02 -0.21681951631E+03  0.28580832140E+03  0.17200000000E+03 0. -1.
         -6    1    1    2    0  502 -0.69321471094E+02  0.16918261567E+02 -0.30614214207E+02  0.18871386817E+03  0.17200000000E+03 0. -1.
</event>
<event>
 4    1  0.5801298E+000  0.1931422E+03  0.7818608E-02  0.1155657E+00
         21   -1    0    0  503  502  0.00000000000E+00  0.00000000000E+00  0.96371885223E+03  0.96371885223E+03  0.00000000000E+00 0. -1.
         21   -1    0    0  501  503 -0.00000000000E+00 -0.00000000000E+00 -0.85987968427E+02  0.85987968427E+02  0.00000000000E+00 0.  1.
          6    1    1    2  501    0 -0.87138624991E+02 -0.11259073232E+02  0.49680125494E+02  0.19942923949E+03  0.17200000000E+03 0.  1.
         -6    1    1    2    0  502  0.87138624991E+02  0.11259073232E+02  0.82805075831E+03  0.85027758117E+03  0.17200000000E+03 0. -1.
</event>
<event>
 4    1  0.5801298E+000  0.1977470E+03  0.7818608E-02  0.1151654E+00
         21   -1    0    0  503  502  0.00000000000E+00  0.00000000000E+00  0.17968293672E+03  0.17968293672E+03  0.00000000000E+00 0. -1.
         21   -1    0    0  501  503 -0.00000000000E+00 -0.00000000000E+00 -0.29314832111E+03  0.29314832111E+03  0.00000000000E+00 0. -1.
          6    1    1    2  501    0  0.94326879042E+02 -0.24946038612E+02 -0.17672880105E+03  0.26521111227E+03  0.17200000000E+03 0. -1.
         -6    1    1    2    0  502 -0.94326879042E+02  0.24946038612E+02  0.63263416658E+02  0.20762014555E+03  0.17200000000E+03 0. -1.
</event>
<event>
 4    1  0.5801298E+000  0.1887793E+03  0.7818608E-02  0.1159567E+00
         21   -1    0    0  501  502  0.00000000000E+00  0.00000000000E+00  0.47849142102E+03  0.47849142102E+03  0.00000000000E+00 0.  1.
         21   -1    0    0  502  503 -0.00000000000E+00 -0.00000000000E+00 -0.80296509920E+02  0.80296509920E+02  0.00000000000E+00 0.  1.
          6    1    1    2  501    0  0.18195979741E+02 -0.75647447273E+02  0.27429990643E+03  0.33298358612E+03  0.17200000000E+03 0.  1.
         -6    1    1    2    0  503 -0.18195979741E+02  0.75647447273E+02  0.12389500467E+03  0.22580434482E+03  0.17200000000E+03 0.  1.
</event>
<event>
 4    1  0.5801298E+000  0.2735554E+03  0.7818608E-02  0.1099262E+00
         21   -1    0    0  501  502  0.00000000000E+00  0.00000000000E+00  0.38995622201E+03  0.38995622201E+03  0.00000000000E+00 0. -1.
         21   -1    0    0  502  503 -0.00000000000E+00 -0.00000000000E+00 -0.25483342818E+03  0.25483342818E+03  0.00000000000E+00 0.  1.
          6    1    1    2  501    0 -0.37299176350E+02  0.20942138582E+03 -0.92652813214E+02  0.28882016756E+03  0.17200000000E+03 0.  1.
         -6    1    1    2    0  503  0.37299176350E+02 -0.20942138582E+03  0.22777560704E+03  0.35596948262E+03  0.17200000000E+03 0. -1.
</event>
<event>
 4    1  0.5801298E+000  0.2068701E+03  0.7818608E-02  0.1144069E+00
         21   -1    0    0  503  502  0.00000000000E+00  0.00000000000E+00  0.11854579147E+03  0.11854579147E+03  0.00000000000E+00 0.  1.
         21   -1    0    0  501  503 -0.00000000000E+00 -0.00000000000E+00 -0.38014433077E+03  0.38014433077E+03  0.00000000000E+00 0. -1.
          6    1    1    2  501    0 -0.47901468055E+02 -0.10448295505E+03 -0.74845838809E+02  0.21999349564E+03  0.17200000000E+03 0.  1.
         -6    1    1    2    0  502  0.47901468055E+02  0.10448295505E+03 -0.18675270049E+03  0.27869662660E+03  0.17200000000E+03 0. -1.
</event>
<event>
 4    1  0.5801298E+000  0.1773615E+03  0.7818608E-02  0.1170381E+00
         21   -1    0    0  503  502  0.00000000000E+00  0.00000000000E+00  0.64693768409E+03  0.64693768409E+03  0.00000000000E+00 0.  1.
         21   -1    0    0  501  503 -0.00000000000E+00 -0.00000000000E+00 -0.54787635424E+02  0.54787635424E+02  0.00000000000E+00 0.  1.
          6    1    1    2  501    0  0.43216497304E+02  0.23277377877E+01  0.17839755516E+03  0.25156067198E+03  0.17200000000E+03 0.  1.
         -6    1    1    2    0  502 -0.43216497304E+02 -0.23277377877E+01  0.41375249351E+03  0.45016464753E+03  0.17200000000E+03 0.  1.
</event>
<event>
 4    1  0.5801298E+000  0.1989913E+03  0.7818608E-02  0.1150593E+00
         21   -1    0    0  501  502  0.00000000000E+00  0.00000000000E+00  0.12072876880E+03  0.12072876880E+03  0.00000000000E+00 0. -1.
         21   -1    0    0  502  503 -0.00000000000E+00 -0.00000000000E+00 -0.35096242968E+03  0.35096242968E+03  0.00000000000E+00 0.  1.
          6    1    1    2  501    0  0.40559074181E+02 -0.91479535566E+02 -0.17545932190E+03  0.26529892116E+03  0.17200000000E+03 0.  1.
         -6    1    1    2    0  503 -0.40559074181E+02  0.91479535566E+02 -0.54774338984E+02  0.20639227732E+03  0.17200000000E+03 0. -1.
</event>
<event>
 4    1  0.5801298E+000  0.1792223E+03  0.7818608E-02  0.1168558E+00
         21   -1    0    0  501  502  0.00000000000E+00  0.00000000000E+00  0.73433214611E+02  0.73433214611E+02  0.00000000000E+00 0. -1.
         21   -1    0    0  502  503 -0.00000000000E+00 -0.00000000000E+00 -0.69778821807E+03  0.69778821807E+03  0.00000000000E+00 0.  1.
          6    1    1    2  501    0  0.18036980311E+02 -0.47024395812E+02 -0.76625235792E+02  0.19491550277E+03  0.17200000000E+03 0. -1.
         -6    1    1    2    0  503 -0.18036980311E+02  0.47024395812E+02 -0.54772976767E+03  0.57630592991E+03  0.17200000000E+03 0.  1.
</event>
<event>
 4    1  0.5801298E+000  0.1805672E+03  0.7818608E-02  0.1167255E+00
         21   -1    0    0  501  502  0.00000000000E+00  0.00000000000E+00  0.26293045096E+03  0.26293045096E+03  0.00000000000E+00 0. -1.
         21   -1    0    0  502  503 -0.00000000000E+00 -0.00000000000E+00 -0.21029470096E+03  0.21029470096E+03  0.00000000000E+00 0. -1.
          6    1    1    2  501    0 -0.13802799994E+02  0.53197562173E+02  0.17788499026E+03  0.25347103911E+03  0.17200000000E+03 0. -1.
         -6    1    1    2    0  503  0.13802799994E+02 -0.53197562173E+02 -0.12524924026E+03  0.21975411281E+03  0.17200000000E+03 0. -1.
</event>
<event>
 4    1  0.5801298E+000  0.1813284E+03  0.7818608E-02  0.1166524E+00
         21   -1    0    0  501  502  0.00000000000E+00  0.00000000000E+00  0.64902107211E+02  0.64902107211E+02  0.00000000000E+00 0.  1.
         21   -1    0    0  502  503 -0.00000000000E+00 -0.00000000000E+00 -0.53315734496E+03  0.53315734496E+03  0.00000000000E+00 0. -1.
          6    1    1    2  501    0  0.22581359481E+02 -0.52783181561E+02 -0.16739985088E+03  0.24678470805E+03  0.17200000000E+03 0.  1.
         -6    1    1    2    0  503 -0.22581359481E+02  0.52783181561E+02 -0.30085538687E+03  0.35127474412E+03  0.17200000000E+03 0. -1.
</event>
<event>
 4    1  0.5801298E+000  0.2105058E+03  0.7818608E-02  0.1141166E+00
         21   -1    0    0  501  502  0.00000000000E+00  0.00000000000E+00  0.69773984241E+03  0.69773984241E+03  0.00000000000E+00 0.  1.
         21   -1    0    0  502  503 -0.00000000000E+00 -0.00000000000E+00 -0.11560317450E+03  0.11560317450E+03  0.00000000000E+00 0. -1.
          6    1    1    2  501    0  0.11797860502E+03 -0.28456172883E+02  0.56406275588E+03  0.60206270237E+03  0.17200000000E+03 0.  1.
         -6    1    1    2    0  503 -0.11797860502E+03  0.28456172883E+02  0.18073912029E+02  0.21128031454E+03  0.17200000000E+03 0. -1.
</event>
<event>
 4    1  0.5801298E+000  0.2727600E+03  0.7818608E-02  0.1099710E+00
         21   -1    0    0  503  502  0.00000000000E+00  0.00000000000E+00  0.69811602880E+03  0.69811602880E+03  0.00000000000E+00 0.  1.
         21   -1    0    0  501  503 -0.00000000000E+00 -0.00000000000E+00 -0.25926427473E+03  0.25926427473E+03  0.00000000000E+00 0. -1.
          6    1    1    2  501    0  0.18913712101E+03  0.95085012211E+02 -0.14793674736E+03  0.31029549031E+03  0.17200000000E+03 0. -1.
         -6    1    1    2    0  502 -0.18913712101E+03 -0.95085012211E+02  0.58678850142E+03  0.64708481321E+03  0.17200000000E+03 0.  1.
</event>
<event>
 4    1  0.5801298E+000  0.4655903E+03  0.7818608E-02  0.1023172E+00
         21   -1    0    0  501  502  0.00000000000E+00  0.00000000000E+00  0.18518268404E+04  0.18518268404E+04  0.00000000000E+00 0.  1.
         21   -1    0    0  502  503 -0.00000000000E+00 -0.00000000000E+00 -0.14188744887E+03  0.14188744887E+03  0.00000000000E+00 0. -1.
          6    1    1    2  501    0  0.10345120956E+03  0.42010493702E+03  0.12719634306E+04  0.13544981653E+04  0.17200000000E+03 0.  1.
         -6    1    1    2    0  503 -0.10345120956E+03 -0.42010493702E+03  0.43797596095E+03  0.63921612404E+03  0.17200000000E+03 0. -1.
</event>
<event>
 4    1  0.5801298E+000  0.2694883E+03  0.7818608E-02  0.1101573E+00
         21   -1    0    0  501  502  0.00000000000E+00  0.00000000000E+00  0.22914776851E+03  0.22914776851E+03  0.00000000000E+00 0.  1.
         21   -1    0    0  502  503 -0.00000000000E+00 -0.00000000000E+00 -0.14297152445E+04  0.14297152445E+04  0.00000000000E+00 0. -1.
          6    1    1    2  501    0 -0.13837051407E+03 -0.15457543098E+03  0.13146384498E+03  0.29984446896E+03  0.17200000000E+03 0.  1.
         -6    1    1    2    0  503  0.13837051407E+03  0.15457543098E+03 -0.13320313209E+04  0.13590185440E+04  0.17200000000E+03 0. -1.
</event>
<event>
 4    1  0.5801298E+000  0.2228523E+03  0.7818608E-02  0.1131774E+00
         21   -1    0    0  501  502  0.00000000000E+00  0.00000000000E+00  0.11264716185E+03  0.11264716185E+03  0.00000000000E+00 0. -1.
         21   -1    0    0  502  503 -0.00000000000E+00 -0.00000000000E+00 -0.65980882879E+03  0.65980882879E+03  0.00000000000E+00 0. -1.
          6    1    1    2  501    0 -0.51051763551E+02  0.13218490434E+03 -0.51099918268E+02  0.22863580897E+03  0.17200000000E+03 0. -1.
         -6    1    1    2    0  503  0.51051763551E+02 -0.13218490434E+03 -0.49606174867E+03  0.54382018167E+03  0.17200000000E+03 0. -1.
</event>
<event>
 4    1  0.5801298E+000  0.2211576E+03  0.7818608E-02  0.1133023E+00
         21   -1    0    0  503  502  0.00000000000E+00  0.00000000000E+00  0.88904078017E+03  0.88904078017E+03  0.00000000000E+00 0.  1.
         21   -1    0    0  501  503 -0.00000000000E+00 -0.00000000000E+00 -0.20458932851E+03  0.20458932851E+03  0.00000000000E+00 0.  1.
          6    1    1    2  501    0  0.32451838669E+02 -0.13517972852E+03 -0.12532349542E+03  0.25419807107E+03  0.17200000000E+03 0.  1.
         -6    1    1    2    0  502 -0.32451838669E+02  0.13517972852E+03  0.80977494708E+03  0.83943203761E+03  0.17200000000E+03 0.  1.
</event>
<event>
 4    1  0.5801298E+000  0.2195458E+03  0.7818608E-02  0.1134222E+00
         21   -1    0    0  503  502  0.00000000000E+00  0.00000000000E+00  0.32650648303E+03  0.32650648303E+03  0.00000000000E+00 0. -1.
         21   -1    0    0  501  503 -0.00000000000E+00 -0.00000000000E+00 -0.18286259773E+03  0.18286259773E+03  0.00000000000E+00 0. -1.
          6    1    1    2  501    0 -0.38360702127E+02 -0.13093827994E+03 -0.39979133909E+02  0.22315624071E+03  0.17200000000E+03 0. -1.
         -6    1    1    2    0  502  0.38360702127E+02  0.13093827994E+03  0.18362301921E+03  0.28621284004E+03  0.17200000000E+03 0. -1.
</event>
<event>
 4    1  0.5801298E+000  0.2597965E+03  0.7818608E-02  0.1107266E+00
         21   -1    0    0  503  502  0.00000000000E+00  0.00000000000E+00  0.70346425231E+03  0.70346425231E+03  0.00000000000E+00 0. -1.
         21   -1    0    0  501  503 -0.00000000000E+00 -0.00000000000E+00 -0.10281931761E+03  0.10281931761E+03  0.00000000000E+00 0.  1.
          6    1    1    2  501    0  0.88518143388E+02  0.17342075995E+03  0.19608597108E+03  0.32549029132E+03  0.17200000000E+03 0. -1.
         -6    1    1    2    0  502 -0.88518143388E+02 -0.17342075995E+03  0.40455896363E+03  0.48079327860E+03  0.17200000000E+03 0.  1.
</event>
<event>
 4    1  0.5801298E+000  0.1743810E+03  0.7818608E-02  0.1173355E+00
         21   -1    0    0  501  502  0.00000000000E+00  0.00000000000E+00  0.64079946375E+03  0.64079946375E+03  0.00000000000E+00 0. -1.
         21   -1    0    0  502  503 -0.00000000000E+00 -0.00000000000E+00 -0.49420029297E+02  0.49420029297E+02  0.00000000000E+00 0. -1.
          6    1    1    2  501    0 -0.22855975888E+02 -0.17388162859E+02  0.22686280322E+03  0.28613890915E+03  0.17200000000E+03 0. -1.
         -6    1    1    2    0  503  0.22855975888E+02  0.17388162859E+02  0.36451663123E+03  0.40408058390E+03  0.17200000000E+03 0. -1.
</event>
<event>
 4    1  0.5801298E+000  0.1767073E+03  0.7818608E-02  0.1171028E+00
         21   -1    0    0  503  502  0.00000000000E+00  0.00000000000E+00  0.15639118701E+03  0.15639118701E+03  0.00000000000E+00 0. -1.
         21   -1    0    0  501  503 -0.00000000000E+00 -0.00000000000E+00 -0.73900536010E+03  0.73900536010E+03  0.00000000000E+00 0. -1.
          6    1    1    2  501    0  0.18113974388E+02  0.36240347169E+02 -0.67377414171E+03  0.69656088957E+03  0.17200000000E+03 0. -1.
         -6    1    1    2    0  502 -0.18113974388E+02 -0.36240347169E+02  0.91159968623E+02  0.19883565754E+03  0.17200000000E+03 0. -1.
</event>
<event>
 4    1  0.5801298E+000  0.1856631E+03  0.7818608E-02  0.1162432E+00
         21   -1    0    0  501  502  0.00000000000E+00  0.00000000000E+00  0.31558291681E+03  0.31558291681E+03  0.00000000000E+00 0. -1.
         21   -1    0    0  502  503 -0.00000000000E+00 -0.00000000000E+00 -0.11436706869E+03  0.11436706869E+03  0.00000000000E+00 0. -1.
          6    1    1    2  501    0 -0.35432338417E+01 -0.69815740245E+02  0.14617375766E+03  0.23629972391E+03  0.17200000000E+03 0. -1.
         -6    1    1    2    0  503  0.35432338417E+01  0.69815740245E+02  0.55042090457E+02  0.19365026159E+03  0.17200000000E+03 0. -1.
</event>
<event>
 4    1  0.5801298E+000  0.2100688E+03  0.7818608E-02  0.1141512E+00
         21   -1    0    0  503  502  0.00000000000E+00  0.00000000000E+00  0.45929337611E+02  0.45929337611E+02  0.00000000000E+00 0.  1.
         21   -1    0    0  501  503 -0.00000000000E+00 -0.00000000000E+00 -0.96153176244E+03  0.96153176244E+03  0.00000000000E+00 0.  1.
          6    1    1    2  501    0 -0.23665665848E+01  0.12057899538E+03 -0.47170023616E+03  0.51636228325E+03  0.17200000000E+03 0.  1.
         -6    1    1    2    0  502  0.23665665848E+01 -0.12057899538E+03 -0.44390218867E+03  0.49109881680E+03  0.17200000000E+03 0.  1.
</event>
<event>
 4    1  0.5801298E+000  0.2440608E+03  0.7818608E-02  0.1117117E+00
         21   -1    0    0  503  502  0.00000000000E+00  0.00000000000E+00  0.31582194742E+03  0.31582194742E+03  0.00000000000E+00 0. -1.
         21   -1    0    0  501  503 -0.00000000000E+00 -0.00000000000E+00 -0.73094828929E+03  0.73094828929E+03  0.00000000000E+00 0. -1.
          6    1    1    2  501    0 -0.11362459298E+03  0.13065645395E+03 -0.65839555432E+03  0.70217545032E+03  0.17200000000E+03 0. -1.
         -6    1    1    2    0  502  0.11362459298E+03 -0.13065645395E+03  0.24326921244E+03  0.34459478639E+03  0.17200000000E+03 0. -1.
</event>
<event>
 4    1  0.5801298E+000  0.1931242E+03  0.7818608E-02  0.1155673E+00
         21   -1    0    0  501  502  0.00000000000E+00  0.00000000000E+00  0.13429371605E+03  0.13429371605E+03  0.00000000000E+00 0. -1.
         21   -1    0    0  502  503 -0.00000000000E+00 -0.00000000000E+00 -0.65163014775E+03  0.65163014775E+03  0.00000000000E+00 0. -1.
          6    1    1    2  501    0 -0.85478722119E+02  0.20157938848E+02  0.38998046387E+02  0.19702233898E+03  0.17200000000E+03 0. -1.
         -6    1    1    2    0  503  0.85478722119E+02 -0.20157938848E+02 -0.55633447808E+03  0.58890152482E+03  0.17200000000E+03 0. -1.
</event>
<event>
 4    1  0.5801298E+000  0.2115149E+03  0.7818608E-02  0.1140372E+00
         21   -1    0    0  501  502  0.00000000000E+00  0.00000000000E+00  0.55134503850E+03  0.55134503850E+03  0.00000000000E+00 0. -1.
         21   -1    0    0  502  503 -0.00000000000E+00 -0.00000000000E+00 -0.91918426053E+02  0.91918426053E+02  0.00000000000E+00 0. -1.
          6    1    1    2  501    0 -0.11853652480E+03 -0.33221083288E+02  0.33982847075E+03  0.40027732589E+03  0.17200000000E+03 0. -1.
         -6    1    1    2    0  503  0.11853652480E+03  0.33221083288E+02  0.11959814169E+03  0.24298613866E+03  0.17200000000E+03 0. -1.
</event>
<event>
 4    1  0.5801298E+000  0.1812485E+03  0.7818608E-02  0.1166600E+00
         21   -1    0    0  501  502  0.00000000000E+00  0.00000000000E+00  0.41893618359E+03  0.41893618359E+03  0.00000000000E+00 0. -1.
         21   -1    0    0  502  503 -0.00000000000E+00 -0.00000000000E+00 -0.95842963753E+02  0.95842963753E+02  0.00000000000E+00 0. -1.
          6    1    1    2  501    0  0.41555908583E+02  0.39244215473E+02  0.27130318685E+03  0.32627660226E+03  0.17200000000E+03 0. -1.
         -6    1    1    2    0  503 -0.41555908583E+02 -0.39244215473E+02  0.51790032986E+02  0.18850254508E+03  0.17200000000E+03 0. -1.
</event>
<event>
 4    1  0.5801298E+000  0.1974497E+03  0.7818608E-02  0.1151909E+00
         21   -1    0    0  503  502  0.00000000000E+00  0.00000000000E+00  0.13682288220E+03  0.13682288220E+03  0.00000000000E+00 0.  1.
         21   -1    0    0  501  503 -0.00000000000E+00 -0.00000000000E+00 -0.56572426617E+03  0.56572426617E+03  0.00000000000E+00 0.  1.
          6    1    1    2  501    0 -0.43445373031E+02 -0.86688384531E+02 -0.46192441729E+03  0.50235499772E+03  0.17200000000E+03 0.  1.
         -6    1    1    2    0  502  0.43445373031E+02  0.86688384531E+02  0.33023033325E+02  0.20019215065E+03  0.17200000000E+03 0.  1.
</event>
<event>
 4    1  0.5801298E+000  0.1796524E+03  0.7818608E-02  0.1168140E+00
         21   -1    0    0  501  502  0.00000000000E+00  0.00000000000E+00  0.30524730439E+02  0.30524730439E+02  0.00000000000E+00 0. -1.
         21   -1    0    0  502  503 -0.00000000000E+00 -0.00000000000E+00 -0.18592695738E+04  0.18592695738E+04  0.00000000000E+00 0.  1.
          6    1    1    2  501    0  0.28423516088E+02  0.43394689297E+02 -0.29381542122E+03  0.34438713256E+03  0.17200000000E+03 0. -1.
         -6    1    1    2    0  503 -0.28423516088E+02 -0.43394689297E+02 -0.15349294221E+04  0.15454071717E+04  0.17200000000E+03 0.  1.
</event>
<event>
 4    1  0.5801298E+000  0.1901435E+03  0.7818608E-02  0.1158332E+00
         21   -1    0    0  503  502  0.00000000000E+00  0.00000000000E+00  0.16484875919E+03  0.16484875919E+03  0.00000000000E+00 0.  1.
         21   -1    0    0  501  503 -0.00000000000E+00 -0.00000000000E+00 -0.40880713100E+03  0.40880713100E+03  0.00000000000E+00 0.  1.
          6    1    1    2  501    0  0.74332564305E+02 -0.32329734889E+02 -0.31725690868E+03  0.36987361082E+03  0.17200000000E+03 0.  1.
         -6    1    1    2    0  502 -0.74332564305E+02  0.32329734889E+02  0.73298536876E+02  0.20378227936E+03  0.17200000000E+03 0.  1.
</event>
<event>
 4    1  0.5801298E+000  0.2234209E+03  0.7818608E-02  0.1131358E+00
         21   -1    0    0  501  502  0.00000000000E+00  0.00000000000E+00  0.80816581618E+02  0.80816581618E+02  0.00000000000E+00 0. -1.
         21   -1    0    0  502  503 -0.00000000000E+00 -0.00000000000E+00 -0.78572113449E+03  0.78572113449E+03  0.00000000000E+00 0. -1.
          6    1    1    2  501    0 -0.14029487592E+03 -0.25500031594E+02 -0.15206914699E+03  0.27026270421E+03  0.17200000000E+03 0. -1.
         -6    1    1    2    0  503  0.14029487592E+03  0.25500031594E+02 -0.55283540588E+03  0.59627501189E+03  0.17200000000E+03 0. -1.
</event>
<event>
 4    1  0.5801298E+000  0.3654698E+03  0.7818608E-02  0.1056439E+00
         21   -1    0    0  501  502  0.00000000000E+00  0.00000000000E+00  0.10956222833E+03  0.10956222833E+03  0.00000000000E+00 0.  1.
         21   -1    0    0  502  503 -0.00000000000E+00 -0.00000000000E+00 -0.20256199572E+04  0.20256199572E+04  0.00000000000E+00 0.  1.
          6    1    1    2  501    0 -0.96369331110E+00 -0.32246432038E+03 -0.28438335595E+03  0.46307889152E+03  0.17200000000E+03 0.  1.
         -6    1    1    2    0  503  0.96369331110E+00  0.32246432038E+03 -0.16316743729E+04  0.16721032940E+04  0.17200000000E+03 0.  1.
</event>
<event>
 4    1  0.5801298E+000  0.2915738E+03  0.7818608E-02  0.1089530E+00
         21   -1    0    0  503  502  0.00000000000E+00  0.00000000000E+00  0.69860249234E+03  0.69860249234E+03  0.00000000000E+00 0.  1.
         21   -1    0    0  501  503 -0.00000000000E+00 -0.00000000000E+00 -0.13896730708E+03  0.13896730708E+03  0.00000000000E+00 0. -1.
          6    1    1    2  501    0  0.23382487425E+03  0.27517773790E+02  0.13216869336E+03  0.32013100943E+03  0.17200000000E+03 0. -1.
         -6    1    1    2    0  502 -0.23382487425E+03 -0.27517773790E+02  0.42746649190E+03  0.51743878999E+03  0.17200000000E+03 0.  1.
</event>
<event>
 4    1  0.5801298E+000  0.1836309E+03  0.7818608E-02  0.1164335E+00
         21   -1    0    0  503  502  0.00000000000E+00  0.00000000000E+00  0.26005739235E+03  0.26005739235E+03  0.00000000000E+00 0. -1.
         21   -1    0    0  501  503 -0.00000000000E+00 -0.00000000000E+00 -0.13557169068E+03  0.13557169068E+03  0.00000000000E+00 0. -1.
          6    1    1    2  501    0  0.29522250421E+02 -0.57137920467E+02  0.10353343142E+03  0.21080672818E+03  0.17200000000E+03 0. -1.
         -6    1    1    2    0  502 -0.29522250421E+02  0.57137920467E+02  0.20952270247E+02  0.18482235485E+03  0.17200000000E+03 0. -1.
</event>
<event>
 4    1  0.5801298E+000  0.1822378E+03  0.7818608E-02  0.1165655E+00
         21   -1    0    0  503  502  0.00000000000E+00  0.00000000000E+00  0.23285886475E+03  0.23285886475E+03  0.00000000000E+00 0.  1.
         21   -1    0    0  501  503 -0.00000000000E+00 -0.00000000000E+00 -0.22260281334E+03  0.22260281334E+03  0.00000000000E+00 0.  1.
          6    1    1    2  501    0  0.12583097175E+02  0.58892010918E+02 -0.13137795789E+03  0.22465700769E+03  0.17200000000E+03 0.  1.
         -6    1    1    2    0  502 -0.12583097175E+02 -0.58892010918E+02  0.14163400931E+03  0.23080467040E+03  0.17200000000E+03 0.  1.
</event>
<event>
 4    1  0.5801298E+000  0.2932600E+03  0.7818608E-02  0.1088659E+00
         21   -1    0    0  503  502  0.00000000000E+00  0.00000000000E+00  0.20487585998E+03  0.20487585998E+03  0.00000000000E+00 0. -1.
         21   -1    0    0  501  503 -0.00000000000E+00 -0.00000000000E+00 -0.52502606993E+03  0.52502606993E+03  0.00000000000E+00 0. -1.
          6    1    1    2  501    0  0.23484260042E+03  0.35586470197E+02 -0.32347830863E+03  0.43662301816E+03  0.17200000000E+03 0. -1.
         -6    1    1    2    0  502 -0.23484260042E+03 -0.35586470197E+02  0.33280986736E+01  0.29327891175E+03  0.17200000000E+03 0. -1.
</event>
<event>
 4    1  0.5801298E+000  0.2284026E+03  0.7818608E-02  0.1127769E+00
         21   -1    0    0  501  502  0.00000000000E+00  0.00000000000E+00  0.16508691205E+04  0.16508691205E+04  0.00000000000E+00 0. -1.
         21   -1    0    0  502  503 -0.00000000000E+00 -0.00000000000E+00 -0.37994078685E+03  0.37994078685E+03  0.00000000000E+00 0. -1.
          6    1    1    2  501    0  0.15027886572E+03  0.17215882042E+00  0.16077262937E+04  0.16238693305E+04  0.17200000000E+03 0. -1.
         -6    1    1    2    0  503 -0.15027886572E+03 -0.17215882042E+00 -0.33679796009E+03  0.40694057680E+03  0.17200000000E+03 0. -1.
</event>
<event>
 4    1  0.5801298E+000  0.1945333E+03  0.7818608E-02  0.1154435E+00
         21   -1    0    0  501  502  0.00000000000E+00  0.00000000000E+00  0.13144243777E+03  0.13144243777E+03  0.00000000000E+00 0. -1.
         21   -1    0    0  502  503 -0.00000000000E+00 -0.00000000000E+00 -0.29137537530E+03  0.29137537530E+03  0.00000000000E+00 0. -1.
          6    1    1    2  501    0  0.60375853896E+02 -0.67926045201E+02 -0.56900960252E+02  0.20268426340E+03  0.17200000000E+03 0. -1.
         -6    1    1    2    0  503 -0.60375853896E+02  0.67926045201E+02 -0.10303197728E+03  0.22013354967E+03  0.17200000000E+03 0. -1.
</event>
<event>
 4    1  0.5801298E+000  0.1762246E+03  0.7818608E-02  0.1171508E+00
         21   -1    0    0  503  502  0.00000000000E+00  0.00000000000E+00  0.43155533255E+02  0.43155533255E+02  0.00000000000E+00 0. -1.
         21   -1    0    0  501  503 -0.00000000000E+00 -0.00000000000E+00 -0.72842964232E+03  0.72842964232E+03  0.00000000000E+00 0. -1.
          6    1    1    2  501    0 -0.35294058515E+02 -0.15015018019E+02 -0.30018450383E+03  0.34808886462E+03  0.17200000000E+03 0.  1.
         -6    1    1    2    0  502  0.35294058515E+02  0.15015018019E+02 -0.38508960524E+03  0.42349631096E+03  0.17200000000E+03 0.  1.
</event>
<event>
 4    1  0.5801298E+000  0.2544831E+03  0.7818608E-02  0.1110504E+00
         21   -1    0    0  501  502  0.00000000000E+00  0.00000000000E+00  0.85393584063E+02  0.85393584063E+02  0.00000000000E+00 0.  1.
         21   -1    0    0  502  503 -0.00000000000E+00 -0.00000000000E+00 -0.10169066633E+04  0.10169066633E+04  0.00000000000E+00 0.  1.
          6    1    1    2  501    0  0.43753779901E+02 -0.18238218288E+03 -0.18786616827E+03  0.31631527163E+03  0.17200000000E+03 0.  1.
         -6    1    1    2    0  503 -0.43753779901E+02  0.18238218288E+03 -0.74364691098E+03  0.78598497574E+03  0.17200000000E+03 0.  1.
</event>
<event>
 4    1  0.5801298E+000  0.2307234E+03  0.7818608E-02  0.1126132E+00
         21   -1    0    0  503  502  0.00000000000E+00  0.00000000000E+00  0.52755943700E+03  0.52755943700E+03  0.00000000000E+00 0.  1.
         21   -1    0    0  501  503 -0.00000000000E+00 -0.00000000000E+00 -0.25802285013E+03  0.25802285013E+03  0.00000000000E+00 0.  1.
          6    1    1    2  501    0 -0.13993542280E+03 -0.63775996759E+02 -0.17174237042E+03  0.28762604561E+03  0.17200000000E+03 0.  1.
         -6    1    1    2    0  502  0.13993542280E+03  0.63775996759E+02  0.44127895729E+03  0.49795624152E+03  0.17200000000E+03 0.  1.
</event>
<event>
 4    1  0.5801298E+000  0.2812488E+03  0.7818608E-02  0.1095009E+00
         21   -1    0    0  503  502  0.00000000000E+00  0.00000000000E+00  0.20489815674E+03  0.20489815674E+03  0.00000000000E+00 0.  1.
         21   -1    0    0  501  503 -0.00000000000E+00 -0.00000000000E+00 -0.13016002122E+04  0.13016002122E+04  0.00000000000E+00 0.  1.
          6    1    1    2  501    0 -0.13624921085E+03 -0.17593472642E+03 -0.11800948674E+04  0.12131466406E+04  0.17200000000E+03 0.  1.
         -6    1    1    2    0  502  0.13624921085E+03  0.17593472642E+03  0.83392811998E+02  0.29335172833E+03  0.17200000000E+03 0.  1.
</event>
<event>
 4    1  0.5801298E+000  0.2749189E+03  0.7818608E-02  0.1098497E+00
         21   -1    0    0  503  502  0.00000000000E+00  0.00000000000E+00  0.56544137988E+03  0.56544137988E+03  0.00000000000E+00 0.  1.
         21   -1    0    0  501  503 -0.00000000000E+00 -0.00000000000E+00 -0.13438291962E+03  0.13438291962E+03  0.00000000000E+00 0.  1.
          6    1    1    2  501    0 -0.20573763314E+03 -0.60567480805E+02  0.18997484337E+03  0.33417186377E+03  0.17200000000E+03 0.  1.
         -6    1    1    2    0  502  0.20573763314E+03  0.60567480805E+02  0.24108361689E+03  0.36565243573E+03  0.17200000000E+03 0.  1.
</event>
<event>
 4    1  0.5801298E+000  0.2033644E+03  0.7818608E-02  0.1146931E+00
         21   -1    0    0  503  502  0.00000000000E+00  0.00000000000E+00  0.80092695556E+02  0.80092695556E+02  0.00000000000E+00 0.  1.
         21   -1    0    0  501  503 -0.00000000000E+00 -0.00000000000E+00 -0.54192355347E+03  0.54192355347E+03  0.00000000000E+00 0.  1.
          6    1    1    2  501    0 -0.59603076445E+02  0.90667239425E+02 -0.29845678330E+03  0.36115582029E+03  0.17200000000E+03 0. -1.
         -6    1    1    2    0  502  0.59603076445E+02 -0.90667239425E+02 -0.16337407461E+03  0.26086042874E+03  0.17200000000E+03 0. -1.
</event>
<event>
 4    1  0.5801298E+000  0.1743552E+03  0.7818608E-02  0.1173381E+00
         21   -1    0    0  503  502  0.00000000000E+00  0.00000000000E+00  0.11359233351E+04  0.11359233351E+04  0.00000000000E+00 0.  1.
         21   -1    0    0  501  503 -0.00000000000E+00 -0.00000000000E+00 -0.28057101752E+02  0.28057101752E+02  0.00000000000E+00 0.  1.
          6    1    1    2  501    0  0.62556076008E+00  0.28554041921E+02  0.42890003922E+03  0.46298484671E+03  0.17200000000E+03 0.  1.
         -6    1    1    2    0  502 -0.62556076008E+00 -0.28554041921E+02  0.67896619411E+03  0.70099559013E+03  0.17200000000E+03 0.  1.
</event>
<event>
 4    1  0.5801298E+000  0.1788843E+03  0.7818608E-02  0.1168887E+00
         21   -1    0    0  501  502  0.00000000000E+00  0.00000000000E+00  0.51672764212E+03  0.51672764212E+03  0.00000000000E+00 0. -1.
         21   -1    0    0  502  503 -0.00000000000E+00 -0.00000000000E+00 -0.19713884007E+03  0.19713884007E+03  0.00000000000E+00 0. -1.
          6    1    1    2  501    0 -0.26755936930E+02  0.41227674236E+02  0.45539656590E+03  0.48927051159E+03  0.17200000000E+03 0. -1.
         -6    1    1    2    0  503  0.26755936930E+02 -0.41227674236E+02 -0.13580776385E+03  0.22459597059E+03  0.17200000000E+03 0. -1.
</event>
<event>
 4    1  0.5801298E+000  0.2146276E+03  0.7818608E-02  0.1137953E+00
         21   -1    0    0  503  502  0.00000000000E+00  0.00000000000E+00  0.20696887084E+04  0.20696887084E+04  0.00000000000E+00 0. -1.
         21   -1    0    0  501  503 -0.00000000000E+00 -0.00000000000E+00 -0.23062518969E+02  0.23062518969E+02  0.00000000000E+00 0.  1.
          6    1    1    2  501    0 -0.56558749083E+02  0.11524797171E+03  0.82775228408E+03  0.85512503816E+03  0.17200000000E+03 0.  1.
         -6    1    1    2    0  502  0.56558749083E+02 -0.11524797171E+03  0.12188739054E+04  0.12376261892E+04  0.17200000000E+03 0. -1.
</event>
<event>
 4    1  0.5801298E+000  0.2022613E+03  0.7818608E-02  0.1147845E+00
         21   -1    0    0  501  502  0.00000000000E+00  0.00000000000E+00  0.65140870125E+02  0.65140870125E+02  0.00000000000E+00 0. -1.
         21   -1    0    0  502  503 -0.00000000000E+00 -0.00000000000E+00 -0.63759450145E+03  0.63759450145E+03  0.00000000000E+00 0.  1.
          6    1    1    2  501    0  0.10510860159E+03 -0.16667926906E+02 -0.24316490011E+03  0.31628911862E+03  0.17200000000E+03 0. -1.
         -6    1    1    2    0  503 -0.10510860159E+03  0.16667926906E+02 -0.32928873122E+03  0.38644625296E+03  0.17200000000E+03 0. -1.
</event>
<event>
 4    1  0.5801298E+000  0.1880491E+03  0.7818608E-02  0.1160233E+00
         21   -1    0    0  501  502  0.00000000000E+00  0.00000000000E+00  0.12530430980E+04  0.12530430980E+04  0.00000000000E+00 0.  1.
         21   -1    0    0  502  503 -0.00000000000E+00 -0.00000000000E+00 -0.39644248752E+02  0.39644248752E+02  0.00000000000E+00 0.  1.
          6    1    1    2  501    0  0.60802055818E+02  0.45624372782E+02  0.95364631752E+03  0.97201017089E+03  0.17200000000E+03 0.  1.
         -6    1    1    2    0  503 -0.60802055818E+02 -0.45624372782E+02  0.25975253173E+03  0.32067717587E+03  0.17200000000E+03 0.  1.
</event>
<event>
 4    1  0.5801298E+000  0.1769013E+03  0.7818608E-02  0.1170836E+00
         21   -1    0    0  501  502  0.00000000000E+00  0.00000000000E+00  0.33262723836E+02  0.33262723836E+02  0.00000000000E+00 0. -1.
         21   -1    0    0  502  503 -0.00000000000E+00 -0.00000000000E+00 -0.94145647095E+03  0.94145647095E+03  0.00000000000E+00 0. -1.
          6    1    1    2  501    0 -0.38846385610E+02  0.14177910858E+02 -0.46682274082E+03  0.49921691295E+03  0.17200000000E+03 0. -1.
         -6    1    1    2    0  503  0.38846385610E+02 -0.14177910858E+02 -0.44137100629E+03  0.47550228183E+03  0.17200000000E+03 0. -1.
</event>
<event>
 4    1  0.5801298E+000  0.4247176E+03  0.7818608E-02  0.1035542E+00
         21   -1    0    0  501  502  0.00000000000E+00  0.00000000000E+00  0.35373893434E+03  0.35373893434E+03  0.00000000000E+00 0. -1.
         21   -1    0    0  502  503 -0.00000000000E+00 -0.00000000000E+00 -0.56291933356E+03  0.56291933356E+03  0.00000000000E+00 0.  1.
          6    1    1    2  501    0  0.38831558809E+03  0.34702767388E+01  0.36019248249E+02  0.42624221403E+03  0.17200000000E+03 0. -1.
         -6    1    1    2    0  503 -0.38831558809E+03 -0.34702767388E+01 -0.24519964747E+03  0.49041605387E+03  0.17200000000E+03 0.  1.
</event>
<event>
 4    1  0.5801298E+000  0.2221380E+03  0.7818608E-02  0.1132299E+00
         21   -1    0    0  501  502  0.00000000000E+00  0.00000000000E+00  0.21582672187E+03  0.21582672187E+03  0.00000000000E+00 0. -1.
         21   -1    0    0  502  503 -0.00000000000E+00 -0.00000000000E+00 -0.23235470796E+03  0.23235470796E+03  0.00000000000E+00 0. -1.
          6    1    1    2  501    0 -0.14010531131E+03 -0.11480015225E+02  0.20093714264E+02  0.22304494246E+03  0.17200000000E+03 0. -1.
         -6    1    1    2    0  503  0.14010531131E+03  0.11480015225E+02 -0.36621700357E+02  0.22513648737E+03  0.17200000000E+03 0. -1.
</event>
<event>
 4    1  0.5801298E+000  0.2680845E+03  0.7818608E-02  0.1102381E+00
         21   -1    0    0  503  502  0.00000000000E+00  0.00000000000E+00  0.67359211505E+03  0.67359211505E+03  0.00000000000E+00 0. -1.
         21   -1    0    0  501  503 -0.00000000000E+00 -0.00000000000E+00 -0.19022923163E+03  0.19022923163E+03  0.00000000000E+00 0.  1.
          6    1    1    2  501    0  0.10086923912E+03  0.17919461055E+03 -0.44529348432E+02  0.27175756608E+03  0.17200000000E+03 0.  1.
         -6    1    1    2    0  502 -0.10086923912E+03 -0.17919461055E+03  0.52789223185E+03  0.59206378060E+03  0.17200000000E+03 0. -1.
</event>
<event>
 4    1  0.5801298E+000  0.2166535E+03  0.7818608E-02  0.1136403E+00
         21   -1    0    0  503  502  0.00000000000E+00  0.00000000000E+00  0.13289232041E+03  0.13289232041E+03  0.00000000000E+00 0. -1.
         21   -1    0    0  501  503 -0.00000000000E+00 -0.00000000000E+00 -0.45431822207E+03  0.45431822207E+03  0.00000000000E+00 0. -1.
          6    1    1    2  501    0 -0.12781607865E+03 -0.31902470622E+02 -0.22203343417E+02  0.21778821376E+03  0.17200000000E+03 0. -1.
         -6    1    1    2    0  502  0.12781607865E+03  0.31902470622E+02 -0.29922255824E+03  0.36942232872E+03  0.17200000000E+03 0. -1.
</event>
<event>
 4    1  0.5801298E+000  0.1837977E+03  0.7818608E-02  0.1164177E+00
         21   -1    0    0  503  502  0.00000000000E+00  0.00000000000E+00  0.55612331101E+03  0.55612331101E+03  0.00000000000E+00 0.  1.
         21   -1    0    0  501  503 -0.00000000000E+00 -0.00000000000E+00 -0.94063944076E+02  0.94063944076E+02  0.00000000000E+00 0. -1.
          6    1    1    2  501    0 -0.59259335354E+02  0.26190506103E+02  0.42451305221E+03  0.46259371259E+03  0.17200000000E+03 0.  1.
         -6    1    1    2    0  502  0.59259335354E+02 -0.26190506103E+02  0.37546314730E+02  0.18759354250E+03  0.17200000000E+03 0. -1.
</event>
<event>
 4    1  0.5801298E+000  0.3453732E+03  0.7818608E-02  0.1064530E+00
         21   -1    0    0  503  502  0.00000000000E+00  0.00000000000E+00  0.36023498937E+03  0.36023498937E+03  0.00000000000E+00 0. -1.
         21   -1    0    0  501  503 -0.00000000000E+00 -0.00000000000E+00 -0.33670637619E+03  0.33670637619E+03  0.00000000000E+00 0. -1.
          6    1    1    2  501    0  0.29943915119E+03 -0.59035425800E+01 -0.33102775959E+02  0.34695597827E+03  0.17200000000E+03 0. -1.
         -6    1    1    2    0  502 -0.29943915119E+03  0.59035425800E+01  0.56631389135E+02  0.34998538729E+03  0.17200000000E+03 0. -1.
</event>
<event>
 4    1  0.5801298E+000  0.2287405E+03  0.7818608E-02  0.1127529E+00
         21   -1    0    0  501  502  0.00000000000E+00  0.00000000000E+00  0.16770157408E+03  0.16770157408E+03  0.00000000000E+00 0.  1.
         21   -1    0    0  502  503 -0.00000000000E+00 -0.00000000000E+00 -0.31233250339E+03  0.31233250339E+03  0.00000000000E+00 0. -1.
          6    1    1    2  501    0 -0.59435777921E+01 -0.15067484262E+03 -0.80192708472E+02  0.24239039752E+03  0.17200000000E+03 0. -1.
         -6    1    1    2    0  503  0.59435777921E+01  0.15067484262E+03 -0.64438220839E+02  0.23764367995E+03  0.17200000000E+03 0.  1.
</event>
<event>
 4    1  0.5801298E+000  0.2219121E+03  0.7818608E-02  0.1132465E+00
         21   -1    0    0  503  502  0.00000000000E+00  0.00000000000E+00  0.38482208526E+02  0.38482208526E+02  0.00000000000E+00 0.  1.
         21   -1    0    0  501  503 -0.00000000000E+00 -0.00000000000E+00 -0.14739660687E+04  0.14739660687E+04  0.00000000000E+00 0. -1.
          6    1    1    2  501    0 -0.12703711684E+03 -0.59351268038E+02 -0.99229419125E+03  0.10168051751E+04  0.17200000000E+03 0. -1.
         -6    1    1    2    0  502  0.12703711684E+03  0.59351268038E+02 -0.44318966896E+03  0.49564310219E+03  0.17200000000E+03 0.  1.
</event>
<event>
 4    1  0.5801298E+000  0.1888865E+03  0.7818608E-02  0.1159469E+00
         21   -1    0    0  503  502  0.00000000000E+00  0.00000000000E+00  0.78325055755E+02  0.78325055755E+02  0.00000000000E+00 0.  1.
         21   -1    0    0  501  503 -0.00000000000E+00 -0.00000000000E+00 -0.10360255081E+04  0.10360255081E+04  0.00000000000E+00 0.  1.
          6    1    1    2  501    0 -0.74059009473E+02 -0.24685413182E+02 -0.89592342885E+03  0.91561831397E+03  0.17200000000E+03 0.  1.
         -6    1    1    2    0  502  0.74059009473E+02  0.24685413182E+02 -0.61777023474E+02  0.19873224987E+03  0.17200000000E+03 0.  1.
</event>
<event>
 4    1  0.5801298E+000  0.2255623E+03  0.7818608E-02  0.1129803E+00
         21   -1    0    0  503  502  0.00000000000E+00  0.00000000000E+00  0.53179931020E+02  0.53179931020E+02  0.00000000000E+00 0. -1.
         21   -1    0    0  501  503 -0.00000000000E+00 -0.00000000000E+00 -0.15832046236E+04  0.15832046236E+04  0.00000000000E+00 0. -1.
          6    1    1    2  501    0  0.11585890451E+03 -0.88718994620E+02 -0.25032702249E+03  0.33695988478E+03  0.17200000000E+03 0. -1.
         -6    1    1    2    0  502 -0.11585890451E+03  0.88718994620E+02 -0.12796976701E+04  0.12994246699E+04  0.17200000000E+03 0. -1.
</event>
<event>
 4    1  0.5801298E+000  0.2197517E+03  0.7818608E-02  0.1134068E+00
         21   -1    0    0  501  502  0.00000000000E+00  0.00000000000E+00  0.59462114939E+03  0.59462114939E+03  0.00000000000E+00 0.  1.
         21   -1    0    0  502  503 -0.00000000000E+00 -0.00000000000E+00 -0.10489749460E+03  0.10489749460E+03  0.00000000000E+00 0. -1.
          6    1    1    2  501    0  0.13420239721E+03  0.26391979185E+02  0.41105802167E+03  0.46611105668E+03  0.17200000000E+03 0. -1.
         -6    1    1    2    0  503 -0.13420239721E+03 -0.26391979185E+02  0.78665633115E+02  0.23340758731E+03  0.17200000000E+03 0. -1.
</event>
<event>
 4    1  0.5801298E+000  0.2164317E+03  0.7818608E-02  0.1136572E+00
         21   -1    0    0  501  502  0.00000000000E+00  0.00000000000E+00  0.11766100791E+04  0.11766100791E+04  0.00000000000E+00 0.  1.
         21   -1    0    0  502  503 -0.00000000000E+00 -0.00000000000E+00 -0.42237614929E+02  0.42237614929E+02  0.00000000000E+00 0.  1.
          6    1    1    2  501    0 -0.11951867943E+03 -0.54534194927E+02  0.71324218942E+03  0.74535703788E+03  0.17200000000E+03 0.  1.
         -6    1    1    2    0  503  0.11951867943E+03  0.54534194927E+02  0.42113027475E+03  0.47349065615E+03  0.17200000000E+03 0.  1.
</event>
<event>
 4    1  0.5801298E+000  0.1758572E+03  0.7818608E-02  0.1171874E+00
         21   -1    0    0  503  502  0.00000000000E+00  0.00000000000E+00  0.10144578373E+03  0.10144578373E+03  0.00000000000E+00 0.  1.
         21   -1    0    0  501  503 -0.00000000000E+00 -0.00000000000E+00 -0.70271303464E+03  0.70271303464E+03  0.00000000000E+00 0.  1.
          6    1    1    2  501    0 -0.26561962936E+02  0.25223305030E+02 -0.60317835554E+03  0.62829123946E+03  0.17200000000E+03 0.  1.
         -6    1    1    2    0  502  0.26561962936E+02 -0.25223305030E+02  0.19111046344E+01  0.17586757891E+03  0.17200000000E+03 0.  1.
</event>
<event>
 4    1  0.5801298E+000  0.2478420E+03  0.7818608E-02  0.1114676E+00
         21   -1    0    0  501  502  0.00000000000E+00  0.00000000000E+00  0.19444059184E+03  0.19444059184E+03  0.00000000000E+00 0. -1.
         21   -1    0    0  502  503 -0.00000000000E+00 -0.00000000000E+00 -0.40723743916E+03  0.40723743916E+03  0.00000000000E+00 0.  1.
          6    1    1    2  501    0  0.17420863815E+03 -0.38639526516E+02  0.36067743936E+02  0.25045267970E+03  0.17200000000E+03 0. -1.
         -6    1    1    2    0  503 -0.17420863815E+03  0.38639526516E+02 -0.24886459126E+03  0.35122535130E+03  0.17200000000E+03 0.  1.
</event>
<event>
 4    1  0.5801298E+000  0.1780779E+03  0.7818608E-02  0.1169676E+00
         21   -1    0    0  503  502  0.00000000000E+00  0.00000000000E+00  0.25983460269E+03  0.25983460269E+03  0.00000000000E+00 0.  1.
         21   -1    0    0  501  503 -0.00000000000E+00 -0.00000000000E+00 -0.17531268421E+03  0.17531268421E+03  0.00000000000E+00 0.  1.
          6    1    1    2  501    0 -0.25662535555E+02  0.38329878727E+02 -0.77669057670E+02  0.19427873752E+03  0.17200000000E+03 0.  1.
         -6    1    1    2    0  502  0.25662535555E+02 -0.38329878727E+02  0.16219097615E+03  0.24086854937E+03  0.17200000000E+03 0.  1.
</event>
<event>
 4    1  0.5801298E+000  0.2119979E+03  0.7818608E-02  0.1139994E+00
         21   -1    0    0  501  502  0.00000000000E+00  0.00000000000E+00  0.50968741886E+02  0.50968741886E+02  0.00000000000E+00 0. -1.
         21   -1    0    0  502  503 -0.00000000000E+00 -0.00000000000E+00 -0.10743064641E+04  0.10743064641E+04  0.00000000000E+00 0.  1.
          6    1    1    2  501    0 -0.11232302032E+03  0.52370360623E+02 -0.74985261004E+03  0.77924453951E+03  0.17200000000E+03 0.  1.
         -6    1    1    2    0  503  0.11232302032E+03 -0.52370360623E+02 -0.27348511219E+03  0.34603066649E+03  0.17200000000E+03 0. -1.
</event>
<event>
 4    1  0.5801298E+000  0.1990059E+03  0.7818608E-02  0.1150580E+00
         21   -1    0    0  503  502  0.00000000000E+00  0.00000000000E+00  0.40832707387E+03  0.40832707387E+03  0.00000000000E+00 0. -1.
         21   -1    0    0  501  503 -0.00000000000E+00 -0.00000000000E+00 -0.24105486480E+03  0.24105486480E+03  0.00000000000E+00 0. -1.
          6    1    1    2  501    0 -0.19258379489E+02 -0.98226631793E+02 -0.16737466498E+03  0.26003391096E+03  0.17200000000E+03 0. -1.
         -6    1    1    2    0  502  0.19258379489E+02  0.98226631793E+02  0.33464687405E+03  0.38934802771E+03  0.17200000000E+03 0. -1.
</event>
<event>
 4    1  0.5801298E+000  0.2008593E+03  0.7818608E-02  0.1149016E+00
         21   -1    0    0  503  502  0.00000000000E+00  0.00000000000E+00  0.14686806045E+03  0.14686806045E+03  0.00000000000E+00 0.  1.
         21   -1    0    0  501  503 -0.00000000000E+00 -0.00000000000E+00 -0.35094945950E+03  0.35094945950E+03  0.00000000000E+00 0.  1.
          6    1    1    2  501    0 -0.98737005398E+02  0.31803285132E+02 -0.21806270521E+03  0.29647223915E+03  0.17200000000E+03 0.  1.
         -6    1    1    2    0  502  0.98737005398E+02 -0.31803285132E+02  0.13981306157E+02  0.20134528080E+03  0.17200000000E+03 0.  1.
</event>
<event>
 4    1  0.5801298E+000  0.2463060E+03  0.7818608E-02  0.1115662E+00
         21   -1    0    0  503  502  0.00000000000E+00  0.00000000000E+00  0.44827620404E+03  0.44827620404E+03  0.00000000000E+00 0. -1.
         21   -1    0    0  501  503 -0.00000000000E+00 -0.00000000000E+00 -0.18729483244E+03  0.18729483244E+03  0.00000000000E+00 0. -1.
          6    1    1    2  501    0  0.12947505215E+03 -0.11966136429E+03 -0.36892874964E+02  0.24905363971E+03  0.17200000000E+03 0. -1.
         -6    1    1    2    0  502 -0.12947505215E+03  0.11966136429E+03  0.29787424657E+03  0.38651739676E+03  0.17200000000E+03 0. -1.
</event>
<event>
 4    1  0.5801298E+000  0.1855108E+03  0.7818608E-02  0.1162574E+00
         21   -1    0    0  501  502  0.00000000000E+00  0.00000000000E+00  0.22867199294E+03  0.22867199294E+03  0.00000000000E+00 0. -1.
         21   -1    0    0  502  503 -0.00000000000E+00 -0.00000000000E+00 -0.33847105577E+03  0.33847105577E+03  0.00000000000E+00 0. -1.
          6    1    1    2  501    0 -0.20978802314E+02  0.66258194026E+02  0.15642590187E+03  0.24265885765E+03  0.17200000000E+03 0. -1.
         -6    1    1    2    0  503  0.20978802314E+02 -0.66258194026E+02 -0.26622496469E+03  0.32448419106E+03  0.17200000000E+03 0. -1.
</event>
<event>
 4    1  0.5801298E+000  0.2301038E+03  0.7818608E-02  0.1126567E+00
         21   -1    0    0  503  502  0.00000000000E+00  0.00000000000E+00  0.98592067850E+02  0.98592067850E+02  0.00000000000E+00 0.  1.
         21   -1    0    0  501  503 -0.00000000000E+00 -0.00000000000E+00 -0.57855270052E+03  0.57855270052E+03  0.00000000000E+00 0. -1.
          6    1    1    2  501    0 -0.11263687607E+03  0.10332799717E+03 -0.33067423425E+03  0.40285628957E+03  0.17200000000E+03 0.  1.
         -6    1    1    2    0  502  0.11263687607E+03 -0.10332799717E+03 -0.14928639842E+03  0.27428847880E+03  0.17200000000E+03 0. -1.
</event>
<event>
 4    1  0.5801298E+000  0.1944008E+03  0.7818608E-02  0.1154551E+00
         21   -1    0    0  503  502  0.00000000000E+00  0.00000000000E+00  0.30559166154E+03  0.30559166154E+03  0.00000000000E+00 0.  1.
         21   -1    0    0  501  503 -0.00000000000E+00 -0.00000000000E+00 -0.12452810909E+03  0.12452810909E+03  0.00000000000E+00 0.  1.
          6    1    1    2  501    0  0.49141304985E+02 -0.76110489301E+02  0.72650575602E+02  0.20753260123E+03  0.17200000000E+03 0. -1.
         -6    1    1    2    0  502 -0.49141304985E+02  0.76110489301E+02  0.10841297685E+03  0.22258716941E+03  0.17200000000E+03 0. -1.
</event>
<event>
 4    1  0.5801298E+000  0.2056135E+03  0.7818608E-02  0.1145088E+00
         21   -1    0    0  503  502  0.00000000000E+00  0.00000000000E+00  0.36514142605E+02  0.36514142605E+02  0.00000000000E+00 0. -1.
         21   -1    0    0  501  503 -0.00000000000E+00 -0.00000000000E+00 -0.12599968443E+04  0.12599968443E+04  0.00000000000E+00 0. -1.
          6    1    1    2  501    0 -0.10733094456E+03 -0.34248518775E+02 -0.79634173124E+03  0.82245792939E+03  0.17200000000E+03 0. -1.
         -6    1    1    2    0  502  0.10733094456E+03  0.34248518775E+02 -0.42714097045E+03  0.47405305752E+03  0.17200000000E+03 0. -1.
</event>
<event>
 4    1  0.5801298E+000  0.1859713E+03  0.7818608E-02  0.1162146E+00
         21   -1    0    0  501  502  0.00000000000E+00  0.00000000000E+00  0.94149229100E+02  0.94149229100E+02  0.00000000000E+00 0. -1.
         21   -1    0    0  502  503 -0.00000000000E+00 -0.00000000000E+00 -0.11133819632E+04  0.11133819632E+04  0.00000000000E+00 0. -1.
          6    1    1    2  501    0 -0.41985873310E+02  0.56907963517E+02 -0.15389679408E+02  0.18660699907E+03  0.17200000000E+03 0. -1.
         -6    1    1    2    0  503  0.41985873310E+02 -0.56907963517E+02 -0.10038430547E+04  0.10209241932E+04  0.17200000000E+03 0. -1.
</event>
<event>
 4    1  0.5801298E+000  0.1882412E+03  0.7818608E-02  0.1160057E+00
         21   -1    0    0  503  502  0.00000000000E+00  0.00000000000E+00  0.22995178763E+03  0.22995178763E+03  0.00000000000E+00 0.  1.
         21   -1    0    0  501  503 -0.00000000000E+00 -0.00000000000E+00 -0.31990121929E+03  0.31990121929E+03  0.00000000000E+00 0.  1.
          6    1    1    2  501    0  0.72945055556E+02  0.23017048033E+02 -0.24290265597E+03  0.30730516740E+03  0.17200000000E+03 0.  1.
         -6    1    1    2    0  502 -0.72945055556E+02 -0.23017048033E+02  0.15295322431E+03  0.24254783952E+03  0.17200000000E+03 0.  1.
</event>
<event>
 4    1  0.5801298E+000  0.2201607E+03  0.7818608E-02  0.1133763E+00
         21   -1    0    0  501  502  0.00000000000E+00  0.00000000000E+00  0.77023404886E+03  0.77023404886E+03  0.00000000000E+00 0.  1.
         21   -1    0    0  502  503 -0.00000000000E+00 -0.00000000000E+00 -0.84429970774E+02  0.84429970774E+02  0.00000000000E+00 0. -1.
          6    1    1    2  501    0  0.83372335073E+01  0.13717583608E+03  0.12725799239E+03  0.25429375945E+03  0.17200000000E+03 0. -1.
         -6    1    1    2    0  503 -0.83372335073E+01 -0.13717583608E+03  0.55854608570E+03  0.60037026018E+03  0.17200000000E+03 0.  1.
</event>
<event>
 4    1  0.5801298E+000  0.2393686E+03  0.7818608E-02  0.1120214E+00
         21   -1    0    0  501  502  0.00000000000E+00  0.00000000000E+00  0.20788460581E+04  0.20788460581E+04  0.00000000000E+00 0.  1.
         21   -1    0    0  502  503 -0.00000000000E+00 -0.00000000000E+00 -0.89036123988E+02  0.89036123988E+02  0.00000000000E+00 0. -1.
          6    1    1    2  501    0 -0.16646845184E+03  0.12512886152E+01  0.18955807101E+04  0.19106343291E+04  0.17200000000E+03 0.  1.
         -6    1    1    2    0  503  0.16646845184E+03 -0.12512886152E+01  0.94229223989E+02  0.25724785293E+03  0.17200000000E+03 0. -1.
</event>
<event>
 4    1  0.5801298E+000  0.1755223E+03  0.7818608E-02  0.1172208E+00
         21   -1    0    0  503  502  0.00000000000E+00  0.00000000000E+00  0.82224527203E+03  0.82224527203E+03  0.00000000000E+00 0. -1.
         21   -1    0    0  501  503 -0.00000000000E+00 -0.00000000000E+00 -0.63494745489E+02  0.63494745489E+02  0.00000000000E+00 0. -1.
          6    1    1    2  501    0 -0.22569354940E+02 -0.26733606019E+02  0.95834484398E+02  0.19998077376E+03  0.17200000000E+03 0. -1.
         -6    1    1    2    0  502  0.22569354940E+02  0.26733606019E+02  0.66291604214E+03  0.68575924376E+03  0.17200000000E+03 0. -1.
</event>
<event>
 4    1  0.5801298E+000  0.2800642E+03  0.7818608E-02  0.1095654E+00
         21   -1    0    0  501  502  0.00000000000E+00  0.00000000000E+00  0.14819036565E+03  0.14819036565E+03  0.00000000000E+00 0. -1.
         21   -1    0    0  502  503 -0.00000000000E+00 -0.00000000000E+00 -0.89153307431E+03  0.89153307431E+03  0.00000000000E+00 0.  1.
          6    1    1    2  501    0 -0.17062125120E+03 -0.14050028737E+03 -0.40297614369E+02  0.28294847558E+03  0.17200000000E+03 0. -1.
         -6    1    1    2    0  503  0.17062125120E+03  0.14050028737E+03 -0.70304509428E+03  0.75677496438E+03  0.17200000000E+03 0.  1.
</event>
<event>
 4    1  0.5801298E+000  0.1754900E+03  0.7818608E-02  0.1172241E+00
         21   -1    0    0  503  502  0.00000000000E+00  0.00000000000E+00  0.60512367654E+02  0.60512367654E+02  0.00000000000E+00 0.  1.
         21   -1    0    0  501  503 -0.00000000000E+00 -0.00000000000E+00 -0.64832597704E+03  0.64832597704E+03  0.00000000000E+00 0.  1.
          6    1    1    2  501    0  0.28126896646E+02 -0.20533566008E+02 -0.45824583294E+03  0.49069949364E+03  0.17200000000E+03 0.  1.
         -6    1    1    2    0  502 -0.28126896646E+02  0.20533566008E+02 -0.12956777645E+03  0.21813885106E+03  0.17200000000E+03 0.  1.
</event>
<event>
 4    1  0.5801298E+000  0.2763953E+03  0.7818608E-02  0.1097674E+00
         21   -1    0    0  503  502  0.00000000000E+00  0.00000000000E+00  0.74607620914E+02  0.74607620914E+02  0.00000000000E+00 0.  1.
         21   -1    0    0  501  503 -0.00000000000E+00 -0.00000000000E+00 -0.10396613094E+04  0.10396613094E+04  0.00000000000E+00 0. -1.
          6    1    1    2  501    0 -0.13084299869E+03  0.17230916587E+03 -0.55101968635E+03  0.61645521629E+03  0.17200000000E+03 0.  1.
         -6    1    1    2    0  502  0.13084299869E+03 -0.17230916587E+03 -0.41403400218E+03  0.49781371407E+03  0.17200000000E+03 0.  1.
</event>
<event>
 4    1  0.5801298E+000  0.2561016E+03  0.7818608E-02  0.1109508E+00
         21   -1    0    0  501  502  0.00000000000E+00  0.00000000000E+00  0.44237089273E+02  0.44237089273E+02  0.00000000000E+00 0.  1.
         21   -1    0    0  502  503 -0.00000000000E+00 -0.00000000000E+00 -0.23860106040E+04  0.23860106040E+04  0.00000000000E+00 0. -1.
          6    1    1    2  501    0  0.18353212864E+03  0.48166437446E+02 -0.42320751018E+03  0.49466417356E+03  0.17200000000E+03 0.  1.
         -6    1    1    2    0  503 -0.18353212864E+03 -0.48166437446E+02 -0.19185660045E+04  0.19355835197E+04  0.17200000000E+03 0. -1.
</event>
<event>
 4    1  0.5801298E+000  0.1812567E+03  0.7818608E-02  0.1166592E+00
         21   -1    0    0  501  502  0.00000000000E+00  0.00000000000E+00  0.82263418533E+03  0.82263418533E+03  0.00000000000E+00 0.  1.
         21   -1    0    0  502  503 -0.00000000000E+00 -0.00000000000E+00 -0.45848957359E+02  0.45848957359E+02  0.00000000000E+00 0.  1.
          6    1    1    2  501    0  0.30893280528E+02  0.48120641898E+02  0.23246887471E+03  0.29478088247E+03  0.17200000000E+03 0.  1.
         -6    1    1    2    0  503 -0.30893280528E+02 -0.48120641898E+02  0.54431635326E+03  0.57370226022E+03  0.17200000000E+03 0.  1.
</event>
<event>
 4    1  0.5801298E+000  0.2124768E+03  0.7818608E-02  0.1139619E+00
         21   -1    0    0  501  502  0.00000000000E+00  0.00000000000E+00  0.86297306672E+03  0.86297306672E+03  0.00000000000E+00 0.  1.
         21   -1    0    0  502  503 -0.00000000000E+00 -0.00000000000E+00 -0.56581046170E+02  0.56581046170E+02  0.00000000000E+00 0.  1.
          6    1    1    2  501    0  0.89327900547E+02  0.87080022922E+02  0.52944457776E+03  0.57048923314E+03  0.17200000000E+03 0.  1.
         -6    1    1    2    0  503 -0.89327900547E+02 -0.87080022922E+02  0.27694744280E+03  0.34906487976E+03  0.17200000000E+03 0.  1.
</event>
<event>
 4    1  0.5801298E+000  0.1935169E+03  0.7818608E-02  0.1155327E+00
         21   -1    0    0  501  502  0.00000000000E+00  0.00000000000E+00  0.70839384562E+03  0.70839384562E+03  0.00000000000E+00 0.  1.
         21   -1    0    0  502  503 -0.00000000000E+00 -0.00000000000E+00 -0.53083748432E+02  0.53083748432E+02  0.00000000000E+00 0.  1.
          6    1    1    2  501    0 -0.64915657275E+02  0.60421341632E+02  0.35213225538E+03  0.40180331801E+03  0.17200000000E+03 0.  1.
         -6    1    1    2    0  503  0.64915657275E+02 -0.60421341632E+02  0.30317784181E+03  0.35967427605E+03  0.17200000000E+03 0.  1.
</event>
<event>
 4    1  0.5801298E+000  0.1857927E+03  0.7818608E-02  0.1162312E+00
         21   -1    0    0  501  502  0.00000000000E+00  0.00000000000E+00  0.11309908519E+03  0.11309908519E+03  0.00000000000E+00 0. -1.
         21   -1    0    0  502  503 -0.00000000000E+00 -0.00000000000E+00 -0.36931299365E+03  0.36931299365E+03  0.00000000000E+00 0. -1.
          6    1    1    2  501    0  0.70232605968E+02  0.15249742848E+01 -0.27615100517E+02  0.18783380490E+03  0.17200000000E+03 0. -1.
         -6    1    1    2    0  503 -0.70232605968E+02 -0.15249742848E+01 -0.22859880794E+03  0.29457827394E+03  0.17200000000E+03 0. -1.
</event>
<event>
 4    1  0.5801298E+000  0.1728615E+03  0.7818608E-02  0.1174896E+00
         21   -1    0    0  501  502  0.00000000000E+00  0.00000000000E+00  0.94852324218E+03  0.94852324218E+03  0.00000000000E+00 0.  1.
         21   -1    0    0  502  503 -0.00000000000E+00 -0.00000000000E+00 -0.42547156909E+02  0.42547156909E+02  0.00000000000E+00 0.  1.
          6    1    1    2  501    0  0.17063216224E+02  0.24394046521E+01  0.70545826179E+03  0.72632806856E+03  0.17200000000E+03 0.  1.
         -6    1    1    2    0  503 -0.17063216224E+02 -0.24394046521E+01  0.20051782348E+03  0.26474233053E+03  0.17200000000E+03 0.  1.
</event>
<event>
 4    1  0.5801298E+000  0.1741955E+03  0.7818608E-02  0.1173542E+00
         21   -1    0    0  501  502  0.00000000000E+00  0.00000000000E+00  0.52423235525E+03  0.52423235525E+03  0.00000000000E+00 0.  1.
         21   -1    0    0  502  503 -0.00000000000E+00 -0.00000000000E+00 -0.57883172034E+02  0.57883172034E+02  0.00000000000E+00 0.  1.
          6    1    1    2  501    0 -0.61139669340E-01 -0.27569601659E+02  0.23253849667E+03  0.29054817003E+03  0.17200000000E+03 0. -1.
         -6    1    1    2    0  503  0.61139669340E-01  0.27569601659E+02  0.23381068655E+03  0.29156735726E+03  0.17200000000E+03 0. -1.
</event>
<event>
 4    1  0.5801298E+000  0.2205304E+03  0.7818608E-02  0.1133488E+00
         21   -1    0    0  501  502  0.00000000000E+00  0.00000000000E+00  0.40160785495E+03  0.40160785495E+03  0.00000000000E+00 0. -1.
         21   -1    0    0  502  503 -0.00000000000E+00 -0.00000000000E+00 -0.16055373555E+03  0.16055373555E+03  0.00000000000E+00 0. -1.
          6    1    1    2  501    0  0.88689829500E+02  0.10575325687E+03  0.25986832492E+03  0.34083013877E+03  0.17200000000E+03 0. -1.
         -6    1    1    2    0  503 -0.88689829500E+02 -0.10575325687E+03 -0.18814205526E+02  0.22133145173E+03  0.17200000000E+03 0. -1.
</event>
<event>
 4    1  0.5801298E+000  0.1807935E+03  0.7818608E-02  0.1167037E+00
         21   -1    0    0  503  502  0.00000000000E+00  0.00000000000E+00  0.14195685123E+04  0.14195685123E+04  0.00000000000E+00 0. -1.
         21   -1    0    0  501  503 -0.00000000000E+00 -0.00000000000E+00 -0.30986064707E+02  0.30986064707E+02  0.00000000000E+00 0. -1.
          6    1    1    2  501    0  0.42440977941E+02  0.36070282900E+02  0.10619054277E+04  0.10771858889E+04  0.17200000000E+03 0. -1.
         -6    1    1    2    0  502 -0.42440977941E+02 -0.36070282900E+02  0.32667701991E+03  0.37336868811E+03  0.17200000000E+03 0. -1.
</event>
<event>
 4    1  0.5801298E+000  0.3129978E+03  0.7818608E-02  0.1078918E+00
         21   -1    0    0  501  502  0.00000000000E+00  0.00000000000E+00  0.97564151513E+02  0.97564151513E+02  0.00000000000E+00 0. -1.
         21   -1    0    0  502  503 -0.00000000000E+00 -0.00000000000E+00 -0.13399445014E+04  0.13399445014E+04  0.00000000000E+00 0.  1.
          6    1    1    2  501    0  0.21870837332E+03 -0.14335371491E+03 -0.26137195309E+03  0.40777804993E+03  0.17200000000E+03 0. -1.
         -6    1    1    2    0  503 -0.21870837332E+03  0.14335371491E+03 -0.98100839679E+03  0.10297306030E+04  0.17200000000E+03 0.  1.
</event>
<event>
 4    1  0.5801298E+000  0.2424097E+03  0.7818608E-02  0.1118198E+00
         21   -1    0    0  503  502  0.00000000000E+00  0.00000000000E+00  0.49383884550E+03  0.49383884550E+03  0.00000000000E+00 0.  1.
         21   -1    0    0  501  503 -0.00000000000E+00 -0.00000000000E+00 -0.23290227616E+03  0.23290227616E+03  0.00000000000E+00 0.  1.
          6    1    1    2  501    0 -0.12100446904E+03  0.12056693418E+03 -0.12365583521E+03  0.27212723628E+03  0.17200000000E+03 0.  1.
         -6    1    1    2    0  502  0.12100446904E+03 -0.12056693418E+03  0.38459240455E+03  0.45461388538E+03  0.17200000000E+03 0.  1.
</event>
<event>
 4    1  0.5801298E+000  0.2009360E+03  0.7818608E-02  0.1148952E+00
         21   -1    0    0  503  502  0.00000000000E+00  0.00000000000E+00  0.65580915368E+02  0.65580915368E+02  0.00000000000E+00 0. -1.
         21   -1    0    0  501  503 -0.00000000000E+00 -0.00000000000E+00 -0.64520058465E+03  0.64520058465E+03  0.00000000000E+00 0. -1.
          6    1    1    2  501    0  0.10043227884E+03  0.26544899949E+02 -0.36585975678E+03  0.41740703872E+03  0.17200000000E+03 0. -1.
         -6    1    1    2    0  502 -0.10043227884E+03 -0.26544899949E+02 -0.21375991250E+03  0.29337446129E+03  0.17200000000E+03 0. -1.
</event>
<event>
 4    1  0.5801298E+000  0.1787050E+03  0.7818608E-02  0.1169062E+00
         21   -1    0    0  503  502  0.00000000000E+00  0.00000000000E+00  0.55925800578E+03  0.55925800578E+03  0.00000000000E+00 0.  1.
         21   -1    0    0  501  503 -0.00000000000E+00 -0.00000000000E+00 -0.92336770358E+02  0.92336770358E+02  0.00000000000E+00 0. -1.
          6    1    1    2  501    0 -0.28561540074E+02 -0.39188262277E+02  0.32209673271E+02  0.18158453823E+03  0.17200000000E+03 0. -1.
         -6    1    1    2    0  502  0.28561540074E+02  0.39188262277E+02  0.43471156216E+03  0.47001023791E+03  0.17200000000E+03 0.  1.
</event>
<event>
 4    1  0.5801298E+000  0.2224663E+03  0.7818608E-02  0.1132058E+00
         21   -1    0    0  501  502  0.00000000000E+00  0.00000000000E+00  0.11267003636E+04  0.11267003636E+04  0.00000000000E+00 0.  1.
         21   -1    0    0  502  503 -0.00000000000E+00 -0.00000000000E+00 -0.44307258384E+02  0.44307258384E+02  0.00000000000E+00 0.  1.
          6    1    1    2  501    0  0.13346133252E+03 -0.45774602218E+02  0.48687121894E+03  0.53528947805E+03  0.17200000000E+03 0.  1.
         -6    1    1    2    0  503 -0.13346133252E+03  0.45774602218E+02  0.59552188628E+03  0.63571814393E+03  0.17200000000E+03 0.  1.
</event>
<event>
 4    1  0.5801298E+000  0.1812232E+03  0.7818608E-02  0.1166624E+00
         21   -1    0    0  503  502  0.00000000000E+00  0.00000000000E+00  0.25087738483E+03  0.25087738483E+03  0.00000000000E+00 0.  1.
         21   -1    0    0  501  503 -0.00000000000E+00 -0.00000000000E+00 -0.17715929858E+03  0.17715929858E+03  0.00000000000E+00 0.  1.
          6    1    1    2  501    0 -0.83632578875E+01  0.56461543408E+02 -0.72494059565E+02  0.19518513939E+03  0.17200000000E+03 0.  1.
         -6    1    1    2    0  502  0.83632578875E+01 -0.56461543408E+02  0.14621214582E+03  0.23285154402E+03  0.17200000000E+03 0.  1.
</event>
<event>
 4    1  0.5801298E+000  0.1789903E+03  0.7818608E-02  0.1168784E+00
         21   -1    0    0  503  502  0.00000000000E+00  0.00000000000E+00  0.53465752206E+03  0.53465752206E+03  0.00000000000E+00 0. -1.
         21   -1    0    0  501  503 -0.00000000000E+00 -0.00000000000E+00 -0.84586598234E+02  0.84586598234E+02  0.00000000000E+00 0. -1.
          6    1    1    2  501    0 -0.38579215356E+02 -0.31067031302E+02  0.57840974170E+02  0.18810394622E+03  0.17200000000E+03 0. -1.
         -6    1    1    2    0  502  0.38579215356E+02  0.31067031302E+02  0.39222994966E+03  0.43114017407E+03  0.17200000000E+03 0. -1.
</event>
<event>
 4    1  0.5801298E+000  0.1978248E+03  0.7818608E-02  0.1151587E+00
         21   -1    0    0  503  502  0.00000000000E+00  0.00000000000E+00  0.10563641004E+04  0.10563641004E+04  0.00000000000E+00 0. -1.
         21   -1    0    0  501  503 -0.00000000000E+00 -0.00000000000E+00 -0.51190321016E+02  0.51190321016E+02  0.00000000000E+00 0. -1.
          6    1    1    2  501    0 -0.29176542968E+02 -0.93270567299E+02  0.79367429411E+03  0.81795693928E+03  0.17200000000E+03 0. -1.
         -6    1    1    2    0  502  0.29176542968E+02  0.93270567299E+02  0.21149948524E+03  0.28959748210E+03  0.17200000000E+03 0. -1.
</event>
<event>
 4    1  0.5801298E+000  0.2170300E+03  0.7818608E-02  0.1136117E+00
         21   -1    0    0  503  502  0.00000000000E+00  0.00000000000E+00  0.72304865538E+02  0.72304865538E+02  0.00000000000E+00 0.  1.
         21   -1    0    0  501  503 -0.00000000000E+00 -0.00000000000E+00 -0.81970863884E+03  0.81970863884E+03  0.00000000000E+00 0.  1.
          6    1    1    2  501    0  0.10119793705E+03 -0.85305307172E+02 -0.57577939347E+03  0.61532424610E+03  0.17200000000E+03 0.  1.
         -6    1    1    2    0  502 -0.10119793705E+03  0.85305307172E+02 -0.17162437984E+03  0.27668925828E+03  0.17200000000E+03 0.  1.
</event>
<event>
 4    1  0.5801298E+000  0.2037125E+03  0.7818608E-02  0.1146644E+00
         21   -1    0    0  501  502  0.00000000000E+00  0.00000000000E+00  0.20811677747E+03  0.20811677747E+03  0.00000000000E+00 0. -1.
         21   -1    0    0  502  503 -0.00000000000E+00 -0.00000000000E+00 -0.28066778088E+03  0.28066778088E+03  0.00000000000E+00 0. -1.
          6    1    1    2  501    0  0.28600218848E+02  0.10534139717E+03  0.95230807073E+02  0.22487260636E+03  0.17200000000E+03 0. -1.
         -6    1    1    2    0  503 -0.28600218848E+02 -0.10534139717E+03 -0.16778181049E+03  0.26391195200E+03  0.17200000000E+03 0. -1.
</event>
<event>
 4    1  0.5801298E+000  0.1851534E+03  0.7818608E-02  0.1162907E+00
         21   -1    0    0  501  502  0.00000000000E+00  0.00000000000E+00  0.14718185690E+03  0.14718185690E+03  0.00000000000E+00 0. -1.
         21   -1    0    0  502  503 -0.00000000000E+00 -0.00000000000E+00 -0.23373151030E+03  0.23373151030E+03  0.00000000000E+00 0. -1.
          6    1    1    2  501    0  0.39362562384E+02  0.56110257899E+02 -0.32060645300E+02  0.18790864093E+03  0.17200000000E+03 0. -1.
         -6    1    1    2    0  503 -0.39362562384E+02 -0.56110257899E+02 -0.54489008094E+02  0.19300472627E+03  0.17200000000E+03 0. -1.
</event>
<event>
 4    1  0.5801298E+000  0.2616997E+03  0.7818608E-02  0.1106126E+00
         21   -1    0    0  503  502  0.00000000000E+00  0.00000000000E+00  0.37248760357E+03  0.37248760357E+03  0.00000000000E+00 0. -1.
         21   -1    0    0  501  503 -0.00000000000E+00 -0.00000000000E+00 -0.20423091502E+03  0.20423091502E+03  0.00000000000E+00 0. -1.
          6    1    1    2  501    0  0.16907344973E+03 -0.10157227652E+03 -0.69351747292E+01  0.26179162593E+03  0.17200000000E+03 0. -1.
         -6    1    1    2    0  502 -0.16907344973E+03  0.10157227652E+03  0.17519186328E+03  0.31492689266E+03  0.17200000000E+03 0. -1.
</event>
<event>
 4    1  0.5801298E+000  0.2413909E+03  0.7818608E-02  0.1118870E+00
         21   -1    0    0  503  502  0.00000000000E+00  0.00000000000E+00  0.14057594594E+03  0.14057594594E+03  0.00000000000E+00 0. -1.
         21   -1    0    0  501  503 -0.00000000000E+00 -0.00000000000E+00 -0.43142015249E+03  0.43142015249E+03  0.00000000000E+00 0. -1.
          6    1    1    2  501    0 -0.12307744089E+03  0.11635080617E+03 -0.88793145239E+02  0.25720378923E+03  0.17200000000E+03 0. -1.
         -6    1    1    2    0  502  0.12307744089E+03 -0.11635080617E+03 -0.20205106132E+03  0.31479230920E+03  0.17200000000E+03 0. -1.
</event>
<event>
 4    1  0.5801298E+000  0.1845259E+03  0.7818608E-02  0.1163493E+00
         21   -1    0    0  503  502  0.00000000000E+00  0.00000000000E+00  0.51596325236E+03  0.51596325236E+03  0.00000000000E+00 0.  1.
         21   -1    0    0  501  503 -0.00000000000E+00 -0.00000000000E+00 -0.69128654977E+02  0.69128654977E+02  0.00000000000E+00 0.  1.
          6    1    1    2  501    0 -0.65333428070E+02  0.14048099821E+02  0.28572622184E+03  0.34013126845E+03  0.17200000000E+03 0.  1.
         -6    1    1    2    0  502  0.65333428070E+02 -0.14048099821E+02  0.16110837554E+03  0.24496063888E+03  0.17200000000E+03 0.  1.
</event>
<event>
 4    1  0.5801298E+000  0.1989210E+03  0.7818608E-02  0.1150653E+00
         21   -1    0    0  501  502  0.00000000000E+00  0.00000000000E+00  0.16237726828E+04  0.16237726828E+04  0.00000000000E+00 0.  1.
         21   -1    0    0  502  503 -0.00000000000E+00 -0.00000000000E+00 -0.41015029327E+02  0.41015029327E+02  0.00000000000E+00 0. -1.
          6    1    1    2  501    0  0.96978405400E+02  0.24098548393E+02  0.13216695246E+04  0.13365552302E+04  0.17200000000E+03 0.  1.
         -6    1    1    2    0  503 -0.96978405400E+02 -0.24098548393E+02  0.26108812889E+03  0.32823248193E+03  0.17200000000E+03 0. -1.
</event>
<event>
 4    1  0.5801298E+000  0.1908593E+03  0.7818608E-02  0.1157689E+00
         21   -1    0    0  503  502  0.00000000000E+00  0.00000000000E+00  0.13414615847E+04  0.13414615847E+04  0.00000000000E+00 0. -1.
         21   -1    0    0  501  503 -0.00000000000E+00 -0.00000000000E+00 -0.29150990595E+02  0.29150990595E+02  0.00000000000E+00 0. -1.
          6    1    1    2  501    0 -0.25267175424E+02  0.78770809224E+02  0.47682777936E+03  0.51360685520E+03  0.17200000000E+03 0.  1.
         -6    1    1    2    0  502  0.25267175424E+02 -0.78770809224E+02  0.83548281478E+03  0.85700572013E+03  0.17200000000E+03 0.  1.
</event>
<event>
 4    1  0.5801298E+000  0.2659774E+03  0.7818608E-02  0.1103604E+00
         21   -1    0    0  501  502  0.00000000000E+00  0.00000000000E+00  0.12274366773E+03  0.12274366773E+03  0.00000000000E+00 0.  1.
         21   -1    0    0  502  503 -0.00000000000E+00 -0.00000000000E+00 -0.62948025054E+03  0.62948025054E+03  0.00000000000E+00 0.  1.
          6    1    1    2  501    0 -0.19854930216E+03  0.41690993340E+02 -0.14410473595E+03  0.30250642842E+03  0.17200000000E+03 0.  1.
         -6    1    1    2    0  503  0.19854930216E+03 -0.41690993340E+02 -0.36263184686E+03  0.44971748985E+03  0.17200000000E+03 0.  1.
</event>
<event>
 4    1  0.5801298E+000  0.1989856E+03  0.7818608E-02  0.1150598E+00
         21   -1    0    0  503  502  0.00000000000E+00  0.00000000000E+00  0.30666513708E+03  0.30666513708E+03  0.00000000000E+00 0. -1.
         21   -1    0    0  501  503 -0.00000000000E+00 -0.00000000000E+00 -0.19827697351E+03  0.19827697351E+03  0.00000000000E+00 0.  1.
          6    1    1    2  501    0  0.94380927888E+02 -0.33218814364E+02 -0.94916100264E+02  0.22046386386E+03  0.17200000000E+03 0.  1.
         -6    1    1    2    0  502 -0.94380927888E+02  0.33218814364E+02  0.20330426383E+03  0.28447824674E+03  0.17200000000E+03 0. -1.
</event>
<event>
 4    1  0.5801298E+000  0.2152699E+03  0.7818608E-02  0.1137459E+00
         21   -1    0    0  503  502  0.00000000000E+00  0.00000000000E+00  0.88186979486E+03  0.88186979486E+03  0.00000000000E+00 0.  1.
         21   -1    0    0  501  503 -0.00000000000E+00 -0.00000000000E+00 -0.66627055531E+02  0.66627055531E+02  0.00000000000E+00 0.  1.
          6    1    1    2  501    0  0.23207046507E+02  0.12735209620E+03  0.18962144714E+03  0.28687526319E+03  0.17200000000E+03 0.  1.
         -6    1    1    2    0  502 -0.23207046507E+02 -0.12735209620E+03  0.62562129218E+03  0.66162158720E+03  0.17200000000E+03 0.  1.
</event>
<event>
 4    1  0.5801298E+000  0.1844126E+03  0.7818608E-02  0.1163600E+00
         21   -1    0    0  503  502  0.00000000000E+00  0.00000000000E+00  0.18558924452E+03  0.18558924452E+03  0.00000000000E+00 0. -1.
         21   -1    0    0  501  503 -0.00000000000E+00 -0.00000000000E+00 -0.18347279588E+03  0.18347279588E+03  0.00000000000E+00 0. -1.
          6    1    1    2  501    0 -0.42724790703E+02 -0.50976591136E+02 -0.54654549717E+01  0.18449360906E+03  0.17200000000E+03 0.  1.
         -6    1    1    2    0  502  0.42724790703E+02  0.50976591136E+02  0.75819036106E+01  0.18456843134E+03  0.17200000000E+03 0.  1.
</event>
<event>
 4    1  0.5801298E+000  0.1810260E+03  0.7818608E-02  0.1166814E+00
         21   -1    0    0  503  502  0.00000000000E+00  0.00000000000E+00  0.46179731563E+02  0.46179731563E+02  0.00000000000E+00 0.  1.
         21   -1    0    0  501  503 -0.00000000000E+00 -0.00000000000E+00 -0.93412653848E+03  0.93412653848E+03  0.00000000000E+00 0.  1.
          6    1    1    2  501    0 -0.54701459158E+02  0.13934467426E+02 -0.68426353217E+03  0.70780435184E+03  0.17200000000E+03 0.  1.
         -6    1    1    2    0  502  0.54701459158E+02 -0.13934467426E+02 -0.20368327475E+03  0.27250191821E+03  0.17200000000E+03 0.  1.
</event>
<event>
 4    1  0.5801298E+000  0.2382293E+03  0.7818608E-02  0.1120978E+00
         21   -1    0    0  503  502  0.00000000000E+00  0.00000000000E+00  0.21540595782E+03  0.21540595782E+03  0.00000000000E+00 0. -1.
         21   -1    0    0  501  503 -0.00000000000E+00 -0.00000000000E+00 -0.19335154199E+04  0.19335154199E+04  0.00000000000E+00 0.  1.
          6    1    1    2  501    0 -0.79962928215E+02  0.14413579957E+03 -0.18576298410E+04  0.18728432462E+04  0.17200000000E+03 0.  1.
         -6    1    1    2    0  502  0.79962928215E+02 -0.14413579957E+03  0.13952037888E+03  0.27607813157E+03  0.17200000000E+03 0. -1.
</event>
<event>
 4    1  0.5801298E+000  0.1942996E+03  0.7818608E-02  0.1154640E+00
         21   -1    0    0  501  502  0.00000000000E+00  0.00000000000E+00  0.80050340054E+03  0.80050340054E+03  0.00000000000E+00 0. -1.
         21   -1    0    0  502  503 -0.00000000000E+00 -0.00000000000E+00 -0.68346631761E+02  0.68346631761E+02  0.00000000000E+00 0.  1.
          6    1    1    2  501    0 -0.19266260596E+01  0.90358394859E+02  0.60794693558E+03  0.63824119883E+03  0.17200000000E+03 0. -1.
         -6    1    1    2    0  503  0.19266260596E+01 -0.90358394859E+02  0.12420983320E+03  0.23060883347E+03  0.17200000000E+03 0.  1.
</event>
<event>
 4    1  0.5801298E+000  0.1805697E+03  0.7818608E-02  0.1167253E+00
         21   -1    0    0  501  502  0.00000000000E+00  0.00000000000E+00  0.20180567070E+03  0.20180567070E+03  0.00000000000E+00 0. -1.
         21   -1    0    0  502  503 -0.00000000000E+00 -0.00000000000E+00 -0.61117196315E+03  0.61117196315E+03  0.00000000000E+00 0. -1.
          6    1    1    2  501    0  0.98081523038E+01  0.54085396474E+02  0.14396048575E+03  0.23093300202E+03  0.17200000000E+03 0. -1.
         -6    1    1    2    0  503 -0.98081523038E+01 -0.54085396474E+02 -0.55332677821E+03  0.58204463183E+03  0.17200000000E+03 0. -1.
</event>
<event>
 4    1  0.5801298E+000  0.1746076E+03  0.7818608E-02  0.1173126E+00
         21   -1    0    0  501  502  0.00000000000E+00  0.00000000000E+00  0.19679653974E+03  0.19679653974E+03  0.00000000000E+00 0.  1.
         21   -1    0    0  502  503 -0.00000000000E+00 -0.00000000000E+00 -0.15507455417E+03  0.15507455417E+03  0.00000000000E+00 0.  1.
          6    1    1    2  501    0  0.13895092029E+02 -0.26659900543E+02  0.15316263661E+02  0.17527809849E+03  0.17200000000E+03 0.  1.
         -6    1    1    2    0  503 -0.13895092029E+02  0.26659900543E+02  0.26405721915E+02  0.17659299541E+03  0.17200000000E+03 0.  1.
</event>
<event>
 4    1  0.5801298E+000  0.1849267E+03  0.7818608E-02  0.1163118E+00
         21   -1    0    0  503  502  0.00000000000E+00  0.00000000000E+00  0.13156513682E+03  0.13156513682E+03  0.00000000000E+00 0.  1.
         21   -1    0    0  501  503 -0.00000000000E+00 -0.00000000000E+00 -0.28461842616E+03  0.28461842616E+03  0.00000000000E+00 0.  1.
          6    1    1    2  501    0 -0.27251776869E+02 -0.62219031753E+02 -0.13781256072E+03  0.23062993983E+03  0.17200000000E+03 0.  1.
         -6    1    1    2    0  502  0.27251776869E+02  0.62219031753E+02 -0.15240728623E+02  0.18555362315E+03  0.17200000000E+03 0.  1.
</event>
<event>
 4    1  0.5801298E+000  0.2746308E+03  0.7818608E-02  0.1098658E+00
         21   -1    0    0  501  502  0.00000000000E+00  0.00000000000E+00  0.26932094966E+04  0.26932094966E+04  0.00000000000E+00 0.  1.
         21   -1    0    0  502  503 -0.00000000000E+00 -0.00000000000E+00 -0.37906570798E+02  0.37906570798E+02  0.00000000000E+00 0. -1.
          6    1    1    2  501    0 -0.21035265421E+03 -0.39873003389E+02  0.20255865451E+04  0.20441191128E+04  0.17200000000E+03 0. -1.
         -6    1    1    2    0  503  0.21035265421E+03  0.39873003389E+02  0.62971638069E+03  0.68699695460E+03  0.17200000000E+03 0.  1.
</event>
<event>
 4    1  0.5801298E+000  0.2220518E+03  0.7818608E-02  0.1132363E+00
         21   -1    0    0  503  502  0.00000000000E+00  0.00000000000E+00  0.81289204849E+02  0.81289204849E+02  0.00000000000E+00 0.  1.
         21   -1    0    0  501  503 -0.00000000000E+00 -0.00000000000E+00 -0.12975728880E+04  0.12975728880E+04  0.00000000000E+00 0.  1.
          6    1    1    2  501    0  0.14028452250E+03  0.65776877506E+01 -0.11112566818E+04  0.11332247906E+04  0.17200000000E+03 0.  1.
         -6    1    1    2    0  502 -0.14028452250E+03 -0.65776877506E+01 -0.10502700134E+03  0.24563730221E+03  0.17200000000E+03 0.  1.
</event>
<event>
 4    1  0.5801298E+000  0.2001501E+03  0.7818608E-02  0.1149612E+00
         21   -1    0    0  501  502  0.00000000000E+00  0.00000000000E+00  0.55593258526E+02  0.55593258526E+02  0.00000000000E+00 0.  1.
         21   -1    0    0  502  503 -0.00000000000E+00 -0.00000000000E+00 -0.75326787086E+03  0.75326787086E+03  0.00000000000E+00 0. -1.
          6    1    1    2  501    0 -0.10177839657E+03  0.10826377346E+02 -0.26460408317E+03  0.33177608908E+03  0.17200000000E+03 0.  1.
         -6    1    1    2    0  503  0.10177839657E+03 -0.10826377346E+02 -0.43307052917E+03  0.47708504031E+03  0.17200000000E+03 0. -1.
</event>
<event>
 4    1  0.5801298E+000  0.2247803E+03  0.7818608E-02  0.1130368E+00
         21   -1    0    0  501  502  0.00000000000E+00  0.00000000000E+00  0.52287515368E+02  0.52287515368E+02  0.00000000000E+00 0. -1.
         21   -1    0    0  502  503 -0.00000000000E+00 -0.00000000000E+00 -0.11676813985E+04  0.11676813985E+04  0.00000000000E+00 0.  1.
          6    1    1    2  501    0  0.85830662035E+01  0.14445944595E+03 -0.30438813272E+03  0.37838913289E+03  0.17200000000E+03 0. -1.
         -6    1    1    2    0  503 -0.85830662035E+01 -0.14445944595E+03 -0.81100575038E+03  0.84157978095E+03  0.17200000000E+03 0.  1.
</event>
<event>
 4    1  0.5801298E+000  0.2076385E+03  0.7818608E-02  0.1143450E+00
         21   -1    0    0  501  502  0.00000000000E+00  0.00000000000E+00  0.57801907187E+03  0.57801907187E+03  0.00000000000E+00 0.  1.
         21   -1    0    0  502  503 -0.00000000000E+00 -0.00000000000E+00 -0.75035461432E+02  0.75035461432E+02  0.00000000000E+00 0.  1.
          6    1    1    2  501    0 -0.36963476776E+00 -0.11631690478E+03  0.27668405612E+03  0.34593037721E+03  0.17200000000E+03 0.  1.
         -6    1    1    2    0  503  0.36963476776E+00  0.11631690478E+03  0.22629955432E+03  0.30712415609E+03  0.17200000000E+03 0.  1.
</event>
<event>
 4    1  0.5801298E+000  0.1829467E+03  0.7818608E-02  0.1164981E+00
         21   -1    0    0  503  502  0.00000000000E+00  0.00000000000E+00  0.95674788499E+02  0.95674788499E+02  0.00000000000E+00 0.  1.
         21   -1    0    0  501  503 -0.00000000000E+00 -0.00000000000E+00 -0.39996662818E+03  0.39996662818E+03  0.00000000000E+00 0.  1.
          6    1    1    2  501    0 -0.31368172117E+01 -0.62254685908E+02 -0.64400885497E+02  0.19395092058E+03  0.17200000000E+03 0.  1.
         -6    1    1    2    0  502  0.31368172117E+01  0.62254685908E+02 -0.23989095419E+03  0.30169049611E+03  0.17200000000E+03 0.  1.
</event>
<event>
 4    1  0.5801298E+000  0.1771929E+03  0.7818608E-02  0.1170548E+00
         21   -1    0    0  503  502  0.00000000000E+00  0.00000000000E+00  0.97804614507E+03  0.97804614507E+03  0.00000000000E+00 0.  1.
         21   -1    0    0  501  503 -0.00000000000E+00 -0.00000000000E+00 -0.35449502233E+02  0.35449502233E+02  0.00000000000E+00 0.  1.
          6    1    1    2  501    0  0.37195557388E+02 -0.20731743667E+02  0.31557913362E+03  0.36192195880E+03  0.17200000000E+03 0.  1.
         -6    1    1    2    0  502 -0.37195557388E+02  0.20731743667E+02  0.62701750922E+03  0.65157368851E+03  0.17200000000E+03 0.  1.
</event>
<event>
 4    1  0.5801298E+000  0.1848936E+03  0.7818608E-02  0.1163149E+00
         21   -1    0    0  501  502  0.00000000000E+00  0.00000000000E+00  0.58614094061E+03  0.58614094061E+03  0.00000000000E+00 0. -1.
         21   -1    0    0  502  503 -0.00000000000E+00 -0.00000000000E+00 -0.14306274139E+03  0.14306274139E+03  0.00000000000E+00 0. -1.
          6    1    1    2  501    0  0.56614322334E+02 -0.37369422551E+02  0.50214607713E+03  0.53510404410E+03  0.17200000000E+03 0. -1.
         -6    1    1    2    0  503 -0.56614322334E+02  0.37369422551E+02 -0.59067877908E+02  0.19409963791E+03  0.17200000000E+03 0. -1.
</event>
<event>
 4    1  0.5801298E+000  0.1744766E+03  0.7818608E-02  0.1173258E+00
         21   -1    0    0  503  502  0.00000000000E+00  0.00000000000E+00  0.91340196645E+02  0.91340196645E+02  0.00000000000E+00 0.  1.
         21   -1    0    0  501  503 -0.00000000000E+00 -0.00000000000E+00 -0.34100463885E+03  0.34100463885E+03  0.00000000000E+00 0.  1.
          6    1    1    2  501    0  0.13327675912E+02  0.26085698390E+02 -0.15736255136E+03  0.23495757740E+03  0.17200000000E+03 0.  1.
         -6    1    1    2    0  502 -0.13327675912E+02 -0.26085698390E+02 -0.92301890846E+02  0.19738725810E+03  0.17200000000E+03 0.  1.
</event>
<event>
 4    1  0.5801298E+000  0.1869143E+03  0.7818608E-02  0.1161274E+00
         21   -1    0    0  503  502  0.00000000000E+00  0.00000000000E+00  0.19194299264E+03  0.19194299264E+03  0.00000000000E+00 0.  1.
         21   -1    0    0  501  503 -0.00000000000E+00 -0.00000000000E+00 -0.23664254648E+03  0.23664254648E+03  0.00000000000E+00 0.  1.
          6    1    1    2  501    0  0.25627744726E+02  0.68528742508E+02 -0.12530711336E+03  0.22503075903E+03  0.17200000000E+03 0. -1.
         -6    1    1    2    0  502 -0.25627744726E+02 -0.68528742508E+02  0.80607559521E+02  0.20355478010E+03  0.17200000000E+03 0. -1.
</event>
<event>
 4    1  0.5801298E+000  0.1852933E+03  0.7818608E-02  0.1162776E+00
         21   -1    0    0  503  502  0.00000000000E+00  0.00000000000E+00  0.10661618978E+04  0.10661618978E+04  0.00000000000E+00 0.  1.
         21   -1    0    0  501  503 -0.00000000000E+00 -0.00000000000E+00 -0.35014011958E+02  0.35014011958E+02  0.00000000000E+00 0.  1.
          6    1    1    2  501    0  0.27572447762E+02 -0.63161299707E+02  0.35956887590E+03  0.40450385187E+03  0.17200000000E+03 0.  1.
         -6    1    1    2    0  502 -0.27572447762E+02  0.63161299707E+02  0.67157900994E+03  0.69667205789E+03  0.17200000000E+03 0.  1.
</event>
<event>
 4    1  0.5801298E+000  0.1774665E+03  0.7818608E-02  0.1170278E+00
         21   -1    0    0  501  502  0.00000000000E+00  0.00000000000E+00  0.43949293109E+03  0.43949293109E+03  0.00000000000E+00 0.  1.
         21   -1    0    0  502  503 -0.00000000000E+00 -0.00000000000E+00 -0.87420058324E+02  0.87420058324E+02  0.00000000000E+00 0.  1.
          6    1    1    2  501    0  0.28636276756E+02  0.33020147853E+02  0.28789591016E+03  0.33819879006E+03  0.17200000000E+03 0.  1.
         -6    1    1    2    0  503 -0.28636276756E+02 -0.33020147853E+02  0.64176962614E+02  0.18871419936E+03  0.17200000000E+03 0.  1.
</event>
<event>
 4    1  0.5801298E+000  0.1983978E+03  0.7818608E-02  0.1151098E+00
         21   -1    0    0  503  502  0.00000000000E+00  0.00000000000E+00  0.65418766864E+03  0.65418766864E+03  0.00000000000E+00 0.  1.
         21   -1    0    0  501  503 -0.00000000000E+00 -0.00000000000E+00 -0.65081300842E+02  0.65081300842E+02  0.00000000000E+00 0.  1.
          6    1    1    2  501    0  0.81013094288E+02  0.56697120957E+02  0.19574687581E+03  0.27870867292E+03  0.17200000000E+03 0.  1.
         -6    1    1    2    0  502 -0.81013094288E+02 -0.56697120957E+02  0.39335949199E+03  0.44056029657E+03  0.17200000000E+03 0.  1.
</event>
<event>
 4    1  0.5801298E+000  0.3169054E+03  0.7818608E-02  0.1077082E+00
         21   -1    0    0  501  502  0.00000000000E+00  0.00000000000E+00  0.52120019377E+03  0.52120019377E+03  0.00000000000E+00 0. -1.
         21   -1    0    0  502  503 -0.00000000000E+00 -0.00000000000E+00 -0.19786485796E+03  0.19786485796E+03  0.00000000000E+00 0.  1.
          6    1    1    2  501    0 -0.12969049713E+03  0.23243364085E+03  0.10351267375E+03  0.33338250715E+03  0.17200000000E+03 0.  1.
         -6    1    1    2    0  503  0.12969049713E+03 -0.23243364085E+03  0.21982266206E+03  0.38568254458E+03  0.17200000000E+03 0. -1.
</event>
<event>
 4    1  0.5801298E+000  0.1868363E+03  0.7818608E-02  0.1161346E+00
         21   -1    0    0  503  502  0.00000000000E+00  0.00000000000E+00  0.64980146260E+02  0.64980146260E+02  0.00000000000E+00 0. -1.
         21   -1    0    0  501  503 -0.00000000000E+00 -0.00000000000E+00 -0.60261597577E+03  0.60261597577E+03  0.00000000000E+00 0.  1.
          6    1    1    2  501    0  0.42769821651E+02 -0.59114804660E+02 -0.37878955823E+03  0.42236163083E+03  0.17200000000E+03 0.  1.
         -6    1    1    2    0  502 -0.42769821651E+02  0.59114804660E+02 -0.15884627128E+03  0.24523449120E+03  0.17200000000E+03 0. -1.
</event>
<event>
 4    1  0.5801298E+000  0.1725816E+03  0.7818608E-02  0.1175182E+00
         21   -1    0    0  503  502  0.00000000000E+00  0.00000000000E+00  0.10347448300E+04  0.10347448300E+04  0.00000000000E+00 0.  1.
         21   -1    0    0  501  503 -0.00000000000E+00 -0.00000000000E+00 -0.35541360756E+02  0.35541360756E+02  0.00000000000E+00 0.  1.
          6    1    1    2  501    0 -0.87872278187E+01  0.11099740307E+02  0.26626593383E+03  0.31730421857E+03  0.17200000000E+03 0. -1.
         -6    1    1    2    0  502  0.87872278187E+01 -0.11099740307E+02  0.73293753538E+03  0.75298197215E+03  0.17200000000E+03 0. -1.
</event>
<event>
 4    1  0.5801298E+000  0.1727978E+03  0.7818608E-02  0.1174961E+00
         21   -1    0    0  501  502  0.00000000000E+00  0.00000000000E+00  0.74835334876E+02  0.74835334876E+02  0.00000000000E+00 0.  1.
         21   -1    0    0  502  503 -0.00000000000E+00 -0.00000000000E+00 -0.39911260806E+03  0.39911260806E+03  0.00000000000E+00 0.  1.
          6    1    1    2  501    0 -0.83903147445E+01  0.14306292565E+02 -0.16617337716E+03  0.23973455876E+03  0.17200000000E+03 0.  1.
         -6    1    1    2    0  503  0.83903147445E+01 -0.14306292565E+02 -0.15810389603E+03  0.23421338418E+03  0.17200000000E+03 0.  1.
</event>
<event>
 4    1  0.5801298E+000  0.2455905E+03  0.7818608E-02  0.1116124E+00
         21   -1    0    0  501  502  0.00000000000E+00  0.00000000000E+00  0.17309732173E+03  0.17309732173E+03  0.00000000000E+00 0. -1.
         21   -1    0    0  502  503 -0.00000000000E+00 -0.00000000000E+00 -0.35577271244E+03  0.35577271244E+03  0.00000000000E+00 0.  1.
          6    1    1    2  501    0  0.31185094936E+02  0.17250557787E+03 -0.53384084468E+02  0.25132557573E+03  0.17200000000E+03 0.  1.
         -6    1    1    2    0  503 -0.31185094936E+02 -0.17250557787E+03 -0.12929130623E+03  0.27754445844E+03  0.17200000000E+03 0. -1.
</event>
<event>
 4    1  0.5801298E+000  0.2137044E+03  0.7818608E-02  0.1138666E+00
         21   -1    0    0  501  502  0.00000000000E+00  0.00000000000E+00  0.54928552170E+02  0.54928552170E+02  0.00000000000E+00 0. -1.
         21   -1    0    0  502  503 -0.00000000000E+00 -0.00000000000E+00 -0.84091170656E+03  0.84091170656E+03  0.00000000000E+00 0. -1.
          6    1    1    2  501    0  0.84805900725E+01 -0.12654511460E+03 -0.34544418484E+03  0.40620348506E+03  0.17200000000E+03 0. -1.
         -6    1    1    2    0  503 -0.84805900725E+01  0.12654511460E+03 -0.44053896955E+03  0.48963677367E+03  0.17200000000E+03 0. -1.
</event>
<event>
 4    1  0.5801298E+000  0.1825469E+03  0.7818608E-02  0.1165361E+00
         21   -1    0    0  503  502  0.00000000000E+00  0.00000000000E+00  0.45443808186E+02  0.45443808186E+02  0.00000000000E+00 0. -1.
         21   -1    0    0  501  503 -0.00000000000E+00 -0.00000000000E+00 -0.73964875556E+03  0.73964875556E+03  0.00000000000E+00 0. -1.
          6    1    1    2  501    0  0.67693488079E+01 -0.60774460545E+02 -0.38350760167E+03  0.42473690643E+03  0.17200000000E+03 0.  1.
         -6    1    1    2    0  502 -0.67693488079E+01  0.60774460545E+02 -0.31069734570E+03  0.36035565732E+03  0.17200000000E+03 0.  1.
</event>
<event>
 4    1  0.5801298E+000  0.1895383E+03  0.7818608E-02  0.1158878E+00
         21   -1    0    0  501  502  0.00000000000E+00  0.00000000000E+00  0.22036130287E+04  0.22036130287E+04  0.00000000000E+00 0. -1.
         21   -1    0    0  502  503 -0.00000000000E+00 -0.00000000000E+00 -0.18958670352E+02  0.18958670352E+02  0.00000000000E+00 0. -1.
          6    1    1    2  501    0  0.62723318104E+02 -0.49056760922E+02  0.15082720251E+04  0.15201346263E+04  0.17200000000E+03 0. -1.
         -6    1    1    2    0  503 -0.62723318104E+02  0.49056760922E+02  0.67638233329E+03  0.70243707278E+03  0.17200000000E+03 0. -1.
</event>
<event>
 4    1  0.5801298E+000  0.1827478E+03  0.7818608E-02  0.1165170E+00
         21   -1    0    0  501  502  0.00000000000E+00  0.00000000000E+00  0.85517339185E+03  0.85517339185E+03  0.00000000000E+00 0. -1.
         21   -1    0    0  502  503 -0.00000000000E+00 -0.00000000000E+00 -0.47863516693E+02  0.47863516693E+02  0.00000000000E+00 0. -1.
          6    1    1    2  501    0  0.46221839528E+01  0.61574258056E+02  0.59737896026E+03  0.62470663195E+03  0.17200000000E+03 0. -1.
         -6    1    1    2    0  503 -0.46221839528E+01 -0.61574258056E+02  0.20993091489E+03  0.27833027659E+03  0.17200000000E+03 0. -1.
</event>
<event>
 4    1  0.5801298E+000  0.1829590E+03  0.7818608E-02  0.1164970E+00
         21   -1    0    0  503  502  0.00000000000E+00  0.00000000000E+00  0.91829394777E+02  0.91829394777E+02  0.00000000000E+00 0. -1.
         21   -1    0    0  501  503 -0.00000000000E+00 -0.00000000000E+00 -0.43480752493E+03  0.43480752493E+03  0.00000000000E+00 0.  1.
          6    1    1    2  501    0 -0.44893145791E+01  0.62208101507E+02 -0.27735594202E+03  0.33226543668E+03  0.17200000000E+03 0.  1.
         -6    1    1    2    0  502  0.44893145791E+01 -0.62208101507E+02 -0.65622188133E+02  0.19437148303E+03  0.17200000000E+03 0.  1.
</event>
<event>
 4    1  0.5801298E+000  0.1764898E+03  0.7818608E-02  0.1171244E+00
         21   -1    0    0  503  502  0.00000000000E+00  0.00000000000E+00  0.68096570694E+03  0.68096570694E+03  0.00000000000E+00 0.  1.
         21   -1    0    0  501  503 -0.00000000000E+00 -0.00000000000E+00 -0.46648505569E+02  0.46648505569E+02  0.00000000000E+00 0.  1.
          6    1    1    2  501    0  0.47571701631E+01 -0.39268593451E+02  0.36787702846E+03  0.40802225573E+03  0.17200000000E+03 0.  1.
         -6    1    1    2    0  502 -0.47571701631E+01  0.39268593451E+02  0.26644017292E+03  0.31959195679E+03  0.17200000000E+03 0.  1.
</event>
<event>
 4    1  0.5801298E+000  0.1979363E+03  0.7818608E-02  0.1151492E+00
         21   -1    0    0  503  502  0.00000000000E+00  0.00000000000E+00  0.72841853755E+02  0.72841853755E+02  0.00000000000E+00 0. -1.
         21   -1    0    0  501  503 -0.00000000000E+00 -0.00000000000E+00 -0.56973828992E+03  0.56973828992E+03  0.00000000000E+00 0. -1.
          6    1    1    2  501    0  0.27710653199E+02 -0.93951500644E+02 -0.32444634215E+03  0.38005814517E+03  0.17200000000E+03 0. -1.
         -6    1    1    2    0  502 -0.27710653199E+02  0.93951500644E+02 -0.17245009401E+03  0.26252199851E+03  0.17200000000E+03 0. -1.
</event>
<event>
 4    1  0.5801298E+000  0.2338157E+03  0.7818608E-02  0.1123983E+00
         21   -1    0    0  503  502  0.00000000000E+00  0.00000000000E+00  0.75845530628E+03  0.75845530628E+03  0.00000000000E+00 0.  1.
         21   -1    0    0  501  503 -0.00000000000E+00 -0.00000000000E+00 -0.76843131538E+02  0.76843131538E+02  0.00000000000E+00 0. -1.
          6    1    1    2  501    0  0.13528031197E+02  0.15780612102E+03  0.23682936119E+03  0.33280313367E+03  0.17200000000E+03 0. -1.
         -6    1    1    2    0  502 -0.13528031197E+02 -0.15780612102E+03  0.44478281355E+03  0.50249530414E+03  0.17200000000E+03 0.  1.
</event>
<event>
 4    1  0.5801298E+000  0.1831509E+03  0.7818608E-02  0.1164788E+00
         21   -1    0    0  503  502  0.00000000000E+00  0.00000000000E+00  0.23977547305E+03  0.23977547305E+03  0.00000000000E+00 0.  1.
         21   -1    0    0  501  503 -0.00000000000E+00 -0.00000000000E+00 -0.14526086843E+03  0.14526086843E+03  0.00000000000E+00 0.  1.
          6    1    1    2  501    0 -0.15344969511E+02  0.61031156328E+02  0.84245978575E+02  0.20159775554E+03  0.17200000000E+03 0.  1.
         -6    1    1    2    0  502  0.15344969511E+02 -0.61031156328E+02  0.10268626042E+02  0.18343858594E+03  0.17200000000E+03 0.  1.
</event>
<event>
 4    1  0.5801298E+000  0.2055994E+03  0.7818608E-02  0.1145099E+00
         21   -1    0    0  503  502  0.00000000000E+00  0.00000000000E+00  0.75369881989E+02  0.75369881989E+02  0.00000000000E+00 0. -1.
         21   -1    0    0  501  503 -0.00000000000E+00 -0.00000000000E+00 -0.56444992786E+03  0.56444992786E+03  0.00000000000E+00 0. -1.
          6    1    1    2  501    0 -0.65730178588E+02 -0.91469389350E+02 -0.27009268137E+03  0.33944242825E+03  0.17200000000E+03 0. -1.
         -6    1    1    2    0  502  0.65730178588E+02  0.91469389350E+02 -0.21898736449E+03  0.30037738159E+03  0.17200000000E+03 0. -1.
</event>
<event>
 4    1  0.5801298E+000  0.2315965E+03  0.7818608E-02  0.1125521E+00
         21   -1    0    0  501  502  0.00000000000E+00  0.00000000000E+00  0.17734582472E+03  0.17734582472E+03  0.00000000000E+00 0.  1.
         21   -1    0    0  502  503 -0.00000000000E+00 -0.00000000000E+00 -0.30650059907E+03  0.30650059907E+03  0.00000000000E+00 0. -1.
          6    1    1    2  501    0  0.86809919649E+02  0.12851831752E+03 -0.36740444103E+02  0.23449260184E+03  0.17200000000E+03 0. -1.
         -6    1    1    2    0  503 -0.86809919649E+02 -0.12851831752E+03 -0.92414330246E+02  0.24935382195E+03  0.17200000000E+03 0.  1.
</event>
<event>
 4    1  0.5801298E+000  0.1923300E+03  0.7818608E-02  0.1156377E+00
         21   -1    0    0  503  502  0.00000000000E+00  0.00000000000E+00  0.30869190108E+03  0.30869190108E+03  0.00000000000E+00 0.  1.
         21   -1    0    0  501  503 -0.00000000000E+00 -0.00000000000E+00 -0.19000871744E+03  0.19000871744E+03  0.00000000000E+00 0.  1.
          6    1    1    2  501    0 -0.70278020243E+02  0.49677069547E+02  0.21088018343E+03  0.28541419575E+03  0.17200000000E+03 0.  1.
         -6    1    1    2    0  502  0.70278020243E+02 -0.49677069547E+02 -0.92196999797E+02  0.21328642277E+03  0.17200000000E+03 0.  1.
</event>
<event>
 4    1  0.5801298E+000  0.1906861E+03  0.7818608E-02  0.1157844E+00
         21   -1    0    0  503  502  0.00000000000E+00  0.00000000000E+00  0.84027873872E+02  0.84027873872E+02  0.00000000000E+00 0.  1.
         21   -1    0    0  501  503 -0.00000000000E+00 -0.00000000000E+00 -0.44663940399E+03  0.44663940399E+03  0.00000000000E+00 0.  1.
          6    1    1    2  501    0  0.48256115201E+02  0.66697266408E+02 -0.22813379939E+03  0.29733181536E+03  0.17200000000E+03 0.  1.
         -6    1    1    2    0  502 -0.48256115201E+02 -0.66697266408E+02 -0.13447773073E+03  0.23333546251E+03  0.17200000000E+03 0.  1.
</event>
<event>
 4    1  0.5801298E+000  0.2674110E+03  0.7818608E-02  0.1102771E+00
         21   -1    0    0  503  502  0.00000000000E+00  0.00000000000E+00  0.31332536033E+03  0.31332536033E+03  0.00000000000E+00 0. -1.
         21   -1    0    0  501  503 -0.00000000000E+00 -0.00000000000E+00 -0.29024334926E+03  0.29024334926E+03  0.00000000000E+00 0. -1.
          6    1    1    2  501    0  0.20451103706E+03  0.99936470565E+01 -0.12795962338E+03  0.29644949397E+03  0.17200000000E+03 0. -1.
         -6    1    1    2    0  502 -0.20451103706E+03 -0.99936470565E+01  0.15104163445E+03  0.30711921562E+03  0.17200000000E+03 0. -1.
</event>
<event>
 4    1  0.5801298E+000  0.2666031E+03  0.7818608E-02  0.1103240E+00
         21   -1    0    0  503  502  0.00000000000E+00  0.00000000000E+00  0.36840938752E+03  0.36840938752E+03  0.00000000000E+00 0.  1.
         21   -1    0    0  501  503 -0.00000000000E+00 -0.00000000000E+00 -0.21070080436E+03  0.21070080436E+03  0.00000000000E+00 0.  1.
          6    1    1    2  501    0 -0.58784573400E+02 -0.19503231954E+03 -0.52370678609E+01  0.26665456796E+03  0.17200000000E+03 0. -1.
         -6    1    1    2    0  502  0.58784573400E+02  0.19503231954E+03  0.16294565102E+03  0.31245562392E+03  0.17200000000E+03 0. -1.
</event>
<event>
 4    1  0.5801298E+000  0.1727203E+03  0.7818608E-02  0.1175040E+00
         21   -1    0    0  501  502  0.00000000000E+00  0.00000000000E+00  0.65969258410E+02  0.65969258410E+02  0.00000000000E+00 0. -1.
         21   -1    0    0  502  503 -0.00000000000E+00 -0.00000000000E+00 -0.10011022167E+04  0.10011022167E+04  0.00000000000E+00 0. -1.
          6    1    1    2  501    0 -0.12467054584E+02 -0.96366286415E+01 -0.72503951238E+02  0.18732088780E+03  0.17200000000E+03 0. -1.
         -6    1    1    2    0  503  0.12467054584E+02  0.96366286415E+01 -0.86262900707E+03  0.87975058733E+03  0.17200000000E+03 0. -1.
</event>
<event>
 4    1  0.5801298E+000  0.2197672E+03  0.7818608E-02  0.1134057E+00
         21   -1    0    0  503  502  0.00000000000E+00  0.00000000000E+00  0.56890753525E+03  0.56890753525E+03  0.00000000000E+00 0.  1.
         21   -1    0    0  501  503 -0.00000000000E+00 -0.00000000000E+00 -0.15857726106E+03  0.15857726106E+03  0.00000000000E+00 0. -1.
          6    1    1    2  501    0 -0.10700912880E+03 -0.85221352723E+02 -0.42778954539E+02  0.22389209803E+03  0.17200000000E+03 0. -1.
         -6    1    1    2    0  502  0.10700912880E+03  0.85221352723E+02  0.45310922872E+03  0.50359269828E+03  0.17200000000E+03 0.  1.
</event>
<event>
 4    1  0.5801298E+000  0.3005358E+03  0.7818608E-02  0.1084973E+00
         21   -1    0    0  501  502  0.00000000000E+00  0.00000000000E+00  0.50141565390E+03  0.50141565390E+03  0.00000000000E+00 0.  1.
         21   -1    0    0  502  503 -0.00000000000E+00 -0.00000000000E+00 -0.18733726691E+03  0.18733726691E+03  0.00000000000E+00 0. -1.
          6    1    1    2  501    0  0.10200681158E+02  0.24623917862E+03  0.22456960136E+03  0.37517101812E+03  0.17200000000E+03 0.  1.
         -6    1    1    2    0  503 -0.10200681158E+02 -0.24623917862E+03  0.89508785642E+02  0.31358190269E+03  0.17200000000E+03 0. -1.
</event>
<event>
 4    1  0.5801298E+000  0.1868655E+03  0.7818608E-02  0.1161319E+00
         21   -1    0    0  503  502  0.00000000000E+00  0.00000000000E+00  0.39068768839E+03  0.39068768839E+03  0.00000000000E+00 0.  1.
         21   -1    0    0  501  503 -0.00000000000E+00 -0.00000000000E+00 -0.11717876693E+03  0.11717876693E+03  0.00000000000E+00 0.  1.
          6    1    1    2  501    0  0.77772888181E+01 -0.72623983472E+02  0.26044217350E+03  0.32054462238E+03  0.17200000000E+03 0. -1.
         -6    1    1    2    0  502 -0.77772888181E+01  0.72623983472E+02  0.13066747955E+02  0.18732183295E+03  0.17200000000E+03 0. -1.
</event>
<event>
 4    1  0.5801298E+000  0.2314480E+03  0.7818608E-02  0.1125625E+00
         21   -1    0    0  501  502  0.00000000000E+00  0.00000000000E+00  0.84097148175E+02  0.84097148175E+02  0.00000000000E+00 0. -1.
         21   -1    0    0  502  503 -0.00000000000E+00 -0.00000000000E+00 -0.64232099469E+03  0.64232099469E+03  0.00000000000E+00 0. -1.
          6    1    1    2  501    0 -0.15461211240E+03 -0.89026317321E+01 -0.24599036989E+03  0.33775645698E+03  0.17200000000E+03 0. -1.
         -6    1    1    2    0  503  0.15461211240E+03  0.89026317321E+01 -0.31223347662E+03  0.38866168589E+03  0.17200000000E+03 0. -1.
</event>
<event>
 4    1  0.5801298E+000  0.1915920E+03  0.7818608E-02  0.1157033E+00
         21   -1    0    0  501  502  0.00000000000E+00  0.00000000000E+00  0.18835180122E+02  0.18835180122E+02  0.00000000000E+00 0.  1.
         21   -1    0    0  502  503 -0.00000000000E+00 -0.00000000000E+00 -0.19493479528E+04  0.19493479528E+04  0.00000000000E+00 0.  1.
          6    1    1    2  501    0 -0.82949927454E+02 -0.15582530782E+02 -0.98050373945E+03  0.99904709038E+03  0.17200000000E+03 0.  1.
         -6    1    1    2    0  503  0.82949927454E+02  0.15582530782E+02 -0.95000903327E+03  0.96913604258E+03  0.17200000000E+03 0.  1.
</event>
<event>
 4    1  0.5801298E+000  0.2865994E+03  0.7818608E-02  0.1092138E+00
         21   -1    0    0  501  502  0.00000000000E+00  0.00000000000E+00  0.57725102924E+03  0.57725102924E+03  0.00000000000E+00 0.  1.
         21   -1    0    0  502  503 -0.00000000000E+00 -0.00000000000E+00 -0.16198620140E+03  0.16198620140E+03  0.00000000000E+00 0.  1.
          6    1    1    2  501    0 -0.22827363016E+03  0.21126920913E+02  0.33650633247E+03  0.44201324505E+03  0.17200000000E+03 0.  1.
         -6    1    1    2    0  503  0.22827363016E+03 -0.21126920913E+02  0.78758495378E+02  0.29722398558E+03  0.17200000000E+03 0.  1.
</event>
<event>
 4    1  0.5801298E+000  0.1878146E+03  0.7818608E-02  0.1160447E+00
         21   -1    0    0  503  502  0.00000000000E+00  0.00000000000E+00  0.19832155905E+03  0.19832155905E+03  0.00000000000E+00 0. -1.
         21   -1    0    0  501  503 -0.00000000000E+00 -0.00000000000E+00 -0.20108111714E+03  0.20108111714E+03  0.00000000000E+00 0. -1.
          6    1    1    2  501    0  0.37710946292E+02 -0.65331648439E+02 -0.69236987208E+02  0.20017017799E+03  0.17200000000E+03 0. -1.
         -6    1    1    2    0  502 -0.37710946292E+02  0.65331648439E+02  0.66477429116E+02  0.19923249820E+03  0.17200000000E+03 0. -1.
</event>
<event>
 4    1  0.5801298E+000  0.2159627E+03  0.7818608E-02  0.1136929E+00
         21   -1    0    0  503  502  0.00000000000E+00  0.00000000000E+00  0.18888888418E+03  0.18888888418E+03  0.00000000000E+00 0. -1.
         21   -1    0    0  501  503 -0.00000000000E+00 -0.00000000000E+00 -0.30224345234E+03  0.30224345234E+03  0.00000000000E+00 0. -1.
          6    1    1    2  501    0  0.12374118619E+03 -0.41761292484E+02 -0.16174185347E+03  0.26981533291E+03  0.17200000000E+03 0. -1.
         -6    1    1    2    0  502 -0.12374118619E+03  0.41761292484E+02  0.48387285314E+02  0.22131700361E+03  0.17200000000E+03 0. -1.
</event>
<event>
 4    1  0.5801298E+000  0.2263703E+03  0.7818608E-02  0.1129221E+00
         21   -1    0    0  501  502  0.00000000000E+00  0.00000000000E+00  0.34498826901E+03  0.34498826901E+03  0.00000000000E+00 0.  1.
         21   -1    0    0  502  503 -0.00000000000E+00 -0.00000000000E+00 -0.14887076016E+03  0.14887076016E+03  0.00000000000E+00 0.  1.
          6    1    1    2  501    0 -0.72646051841E+02  0.12799236602E+03  0.86365425402E+02  0.24228594947E+03  0.17200000000E+03 0.  1.
         -6    1    1    2    0  503  0.72646051841E+02 -0.12799236602E+03  0.10975208344E+03  0.25157307969E+03  0.17200000000E+03 0.  1.
</event>
<event>
 4    1  0.5801298E+000  0.1975536E+03  0.7818608E-02  0.1151820E+00
         21   -1    0    0  503  502  0.00000000000E+00  0.00000000000E+00  0.22338241449E+03  0.22338241449E+03  0.00000000000E+00 0.  1.
         21   -1    0    0  501  503 -0.00000000000E+00 -0.00000000000E+00 -0.31177313419E+03  0.31177313419E+03  0.00000000000E+00 0.  1.
          6    1    1    2  501    0  0.83016161345E+02 -0.50514938400E+02 -0.22160976983E+03  0.29688100668E+03  0.17200000000E+03 0.  1.
         -6    1    1    2    0  502 -0.83016161345E+02  0.50514938400E+02  0.13321905013E+03  0.23827454200E+03  0.17200000000E+03 0.  1.
</event>
<event>
 4    1  0.5801298E+000  0.2136127E+03  0.7818608E-02  0.1138737E+00
         21   -1    0    0  501  502  0.00000000000E+00  0.00000000000E+00  0.28586519332E+03  0.28586519332E+03  0.00000000000E+00 0.  1.
         21   -1    0    0  502  503 -0.00000000000E+00 -0.00000000000E+00 -0.17271164535E+03  0.17271164535E+03  0.00000000000E+00 0.  1.
          6    1    1    2  501    0 -0.78721562555E+02  0.99243579802E+02  0.11969943920E+03  0.24486389748E+03  0.17200000000E+03 0.  1.
         -6    1    1    2    0  503  0.78721562555E+02 -0.99243579802E+02 -0.65458912309E+01  0.21371294120E+03  0.17200000000E+03 0.  1.
</event>
<event>
 4    1  0.5801298E+000  0.2415959E+03  0.7818608E-02  0.1118734E+00
         21   -1    0    0  503  502  0.00000000000E+00  0.00000000000E+00  0.29645879764E+03  0.29645879764E+03  0.00000000000E+00 0.  1.
         21   -1    0    0  501  503 -0.00000000000E+00 -0.00000000000E+00 -0.20333881898E+03  0.20333881898E+03  0.00000000000E+00 0.  1.
          6    1    1    2  501    0  0.15695172944E+03 -0.64426037615E+02  0.20423775282E+01  0.24160449293E+03  0.17200000000E+03 0.  1.
         -6    1    1    2    0  502 -0.15695172944E+03  0.64426037615E+02  0.91077601124E+02  0.25819312369E+03  0.17200000000E+03 0.  1.
</event>
<event>
 4    1  0.5801298E+000  0.2601127E+03  0.7818608E-02  0.1107076E+00
         21   -1    0    0  501  502  0.00000000000E+00  0.00000000000E+00  0.17546855257E+03  0.17546855257E+03  0.00000000000E+00 0.  1.
         21   -1    0    0  502  503 -0.00000000000E+00 -0.00000000000E+00 -0.49938455956E+03  0.49938455956E+03  0.00000000000E+00 0. -1.
          6    1    1    2  501    0 -0.21624947489E+02 -0.19392512454E+03 -0.88379391229E+00  0.26011415450E+03  0.17200000000E+03 0.  1.
         -6    1    1    2    0  503  0.21624947489E+02  0.19392512454E+03 -0.32303221308E+03  0.41473895762E+03  0.17200000000E+03 0. -1.
</event>
<event>
 4    1  0.5801298E+000  0.1908116E+03  0.7818608E-02  0.1157731E+00
         21   -1    0    0  501  502  0.00000000000E+00  0.00000000000E+00  0.25432244603E+03  0.25432244603E+03  0.00000000000E+00 0. -1.
         21   -1    0    0  502  503 -0.00000000000E+00 -0.00000000000E+00 -0.15059845338E+03  0.15059845338E+03  0.00000000000E+00 0. -1.
          6    1    1    2  501    0  0.74576934663E+02  0.35543756784E+02  0.96854434492E+02  0.21398565211E+03  0.17200000000E+03 0.  1.
         -6    1    1    2    0  503 -0.74576934663E+02 -0.35543756784E+02  0.68695581510E+01  0.19093524729E+03  0.17200000000E+03 0.  1.
</event>
<event>
 4    1  0.5801298E+000  0.2396121E+03  0.7818608E-02  0.1120052E+00
         21   -1    0    0  501  502  0.00000000000E+00  0.00000000000E+00  0.20961272662E+03  0.20961272662E+03  0.00000000000E+00 0. -1.
         21   -1    0    0  502  503 -0.00000000000E+00 -0.00000000000E+00 -0.71379203897E+03  0.71379203897E+03  0.00000000000E+00 0.  1.
          6    1    1    2  501    0 -0.14791819872E+03 -0.77137217020E+02  0.11035935550E+03  0.26380510061E+03  0.17200000000E+03 0. -1.
         -6    1    1    2    0  503  0.14791819872E+03  0.77137217020E+02 -0.61453866785E+03  0.65959966498E+03  0.17200000000E+03 0.  1.
</event>
<event>
 4    1  0.5801298E+000  0.2320979E+03  0.7818608E-02  0.1125172E+00
         21   -1    0    0  501  502  0.00000000000E+00  0.00000000000E+00  0.11303292209E+03  0.11303292209E+03  0.00000000000E+00 0.  1.
         21   -1    0    0  502  503 -0.00000000000E+00 -0.00000000000E+00 -0.61439650468E+03  0.61439650468E+03  0.00000000000E+00 0.  1.
          6    1    1    2  501    0  0.15581485288E+03 -0.26735866103E+01 -0.78421761277E+02  0.24498854889E+03  0.17200000000E+03 0.  1.
         -6    1    1    2    0  503 -0.15581485288E+03  0.26735866103E+01 -0.42294182131E+03  0.48244087789E+03  0.17200000000E+03 0.  1.
</event>
<event>
 4    1  0.5801298E+000  0.2376391E+03  0.7818608E-02  0.1121376E+00
         21   -1    0    0  503  502  0.00000000000E+00  0.00000000000E+00  0.20333739586E+03  0.20333739586E+03  0.00000000000E+00 0.  1.
         21   -1    0    0  501  503 -0.00000000000E+00 -0.00000000000E+00 -0.57094172495E+03  0.57094172495E+03  0.00000000000E+00 0. -1.
          6    1    1    2  501    0  0.10950739254E+03  0.12205120288E+03 -0.46123908633E+03  0.51885822717E+03  0.17200000000E+03 0. -1.
         -6    1    1    2    0  502 -0.10950739254E+03 -0.12205120288E+03  0.93634757241E+02  0.25542089364E+03  0.17200000000E+03 0.  1.
</event>
<event>
 4    1  0.5801298E+000  0.2577721E+03  0.7818608E-02  0.1108489E+00
         21   -1    0    0  501  502  0.00000000000E+00  0.00000000000E+00  0.19492986788E+03  0.19492986788E+03  0.00000000000E+00 0. -1.
         21   -1    0    0  502  503 -0.00000000000E+00 -0.00000000000E+00 -0.52222279915E+03  0.52222279915E+03  0.00000000000E+00 0.  1.
          6    1    1    2  501    0  0.26753781987E+00 -0.19199583231E+03  0.47659312573E+02  0.26214095688E+03  0.17200000000E+03 0. -1.
         -6    1    1    2    0  503 -0.26753781987E+00  0.19199583231E+03 -0.37495224385E+03  0.45501171015E+03  0.17200000000E+03 0.  1.
</event>
<event>
 4    1  0.5801298E+000  0.1905786E+03  0.7818608E-02  0.1157941E+00
         21   -1    0    0  503  502  0.00000000000E+00  0.00000000000E+00  0.29773363765E+03  0.29773363765E+03  0.00000000000E+00 0.  1.
         21   -1    0    0  501  503 -0.00000000000E+00 -0.00000000000E+00 -0.48929292878E+03  0.48929292878E+03  0.00000000000E+00 0.  1.
          6    1    1    2  501    0 -0.66084596092E+02  0.48672683715E+02 -0.43672734394E+03  0.47649866414E+03  0.17200000000E+03 0.  1.
         -6    1    1    2    0  502  0.66084596092E+02 -0.48672683715E+02  0.24516805282E+03  0.31052790229E+03  0.17200000000E+03 0.  1.
</event>
<event>
 4    1  0.5801298E+000  0.1879668E+03  0.7818608E-02  0.1160308E+00
         21   -1    0    0  503  502  0.00000000000E+00  0.00000000000E+00  0.27195498487E+03  0.27195498487E+03  0.00000000000E+00 0. -1.
         21   -1    0    0  501  503 -0.00000000000E+00 -0.00000000000E+00 -0.33737200633E+03  0.33737200633E+03  0.00000000000E+00 0.  1.
          6    1    1    2  501    0 -0.72439146809E+02  0.22362410793E+02 -0.27161509648E+03  0.33031237949E+03  0.17200000000E+03 0.  1.
         -6    1    1    2    0  502  0.72439146809E+02 -0.22362410793E+02  0.20619807502E+03  0.27901461171E+03  0.17200000000E+03 0. -1.
</event>
<event>
 4    1  0.5801298E+000  0.1897490E+03  0.7818608E-02  0.1158688E+00
         21   -1    0    0  503  502  0.00000000000E+00  0.00000000000E+00  0.53296168813E+03  0.53296168813E+03  0.00000000000E+00 0. -1.
         21   -1    0    0  501  503 -0.00000000000E+00 -0.00000000000E+00 -0.67664681580E+02  0.67664681580E+02  0.00000000000E+00 0. -1.
          6    1    1    2  501    0 -0.69055629834E+02  0.40644920895E+02  0.22060551255E+03  0.29098364520E+03  0.17200000000E+03 0.  1.
         -6    1    1    2    0  502  0.69055629834E+02 -0.40644920895E+02  0.24469149399E+03  0.30964272451E+03  0.17200000000E+03 0.  1.
</event>
<event>
 4    1  0.5801298E+000  0.3489415E+03  0.7818608E-02  0.1063050E+00
         21   -1    0    0  503  502  0.00000000000E+00  0.00000000000E+00  0.84248000639E+03  0.84248000639E+03  0.00000000000E+00 0. -1.
         21   -1    0    0  501  503 -0.00000000000E+00 -0.00000000000E+00 -0.15761380907E+03  0.15761380907E+03  0.00000000000E+00 0.  1.
          6    1    1    2  501    0 -0.27661330005E+03  0.12514494149E+03  0.48652809030E+03  0.59872343932E+03  0.17200000000E+03 0. -1.
         -6    1    1    2    0  502  0.27661330005E+03 -0.12514494149E+03  0.19833810703E+03  0.40137037614E+03  0.17200000000E+03 0.  1.
</event>
<event>
 4    1  0.5801298E+000  0.1833833E+03  0.7818608E-02  0.1164568E+00
         21   -1    0    0  501  502  0.00000000000E+00  0.00000000000E+00  0.20073008624E+03  0.20073008624E+03  0.00000000000E+00 0. -1.
         21   -1    0    0  502  503 -0.00000000000E+00 -0.00000000000E+00 -0.25409067211E+03  0.25409067211E+03  0.00000000000E+00 0.  1.
          6    1    1    2  501    0 -0.61695771443E+02  0.15462035592E+02  0.10604756671E+03  0.21183845063E+03  0.17200000000E+03 0. -1.
         -6    1    1    2    0  503  0.61695771443E+02 -0.15462035592E+02 -0.15940815258E+03  0.24298230773E+03  0.17200000000E+03 0.  1.
</event>
<event>
 4    1  0.5801298E+000  0.1792673E+03  0.7818608E-02  0.1168514E+00
         21   -1    0    0  501  502  0.00000000000E+00  0.00000000000E+00  0.74565867151E+02  0.74565867151E+02  0.00000000000E+00 0.  1.
         21   -1    0    0  502  503 -0.00000000000E+00 -0.00000000000E+00 -0.87226168706E+03  0.87226168706E+03  0.00000000000E+00 0.  1.
          6    1    1    2  501    0 -0.28081293876E+02  0.42002411858E+02 -0.62124707977E+02  0.18972675354E+03  0.17200000000E+03 0.  1.
         -6    1    1    2    0  503  0.28081293876E+02 -0.42002411858E+02 -0.73557111193E+03  0.75710080067E+03  0.17200000000E+03 0.  1.
</event>
<event>
 4    1  0.5801298E+000  0.2015641E+03  0.7818608E-02  0.1148426E+00
         21   -1    0    0  501  502  0.00000000000E+00  0.00000000000E+00  0.77769496490E+03  0.77769496490E+03  0.00000000000E+00 0. -1.
         21   -1    0    0  502  503 -0.00000000000E+00 -0.00000000000E+00 -0.57613843028E+02  0.57613843028E+02  0.00000000000E+00 0. -1.
          6    1    1    2  501    0 -0.93344001575E+02 -0.48280260308E+02  0.48757530397E+03  0.52759621227E+03  0.17200000000E+03 0. -1.
         -6    1    1    2    0  503  0.93344001575E+02  0.48280260308E+02  0.23250581791E+03  0.30771259566E+03  0.17200000000E+03 0. -1.
</event>
<event>
 4    1  0.5801298E+000  0.1821510E+03  0.7818608E-02  0.1165737E+00
         21   -1    0    0  503  502  0.00000000000E+00  0.00000000000E+00  0.10254423082E+03  0.10254423082E+03  0.00000000000E+00 0. -1.
         21   -1    0    0  501  503 -0.00000000000E+00 -0.00000000000E+00 -0.45182741277E+03  0.45182741277E+03  0.00000000000E+00 0.  1.
          6    1    1    2  501    0 -0.57868278770E+02  0.15692452188E+02 -0.26953140862E+02  0.18413436004E+03  0.17200000000E+03 0. -1.
         -6    1    1    2    0  502  0.57868278770E+02 -0.15692452188E+02 -0.32233004109E+03  0.37023728355E+03  0.17200000000E+03 0.  1.
</event>
<event>
 4    1  0.5801298E+000  0.2516134E+03  0.7818608E-02  0.1112289E+00
         21   -1    0    0  501  502  0.00000000000E+00  0.00000000000E+00  0.62893700729E+03  0.62893700729E+03  0.00000000000E+00 0.  1.
         21   -1    0    0  502  503 -0.00000000000E+00 -0.00000000000E+00 -0.12449709572E+03  0.12449709572E+03  0.00000000000E+00 0.  1.
          6    1    1    2  501    0  0.18253973467E+03  0.20113234166E+02  0.41705711772E+03  0.48707898370E+03  0.17200000000E+03 0.  1.
         -6    1    1    2    0  503 -0.18253973467E+03 -0.20113234166E+02  0.87382793857E+02  0.26635511932E+03  0.17200000000E+03 0.  1.
</event>
<event>
 4    1  0.5801298E+000  0.1743660E+03  0.7818608E-02  0.1173370E+00
         21   -1    0    0  501  502  0.00000000000E+00  0.00000000000E+00  0.44657762318E+03  0.44657762318E+03  0.00000000000E+00 0.  1.
         21   -1    0    0  502  503 -0.00000000000E+00 -0.00000000000E+00 -0.83943669579E+02  0.83943669579E+02  0.00000000000E+00 0.  1.
          6    1    1    2  501    0 -0.23956629941E+02  0.15671043664E+02  0.29662656931E+03  0.34407967587E+03  0.17200000000E+03 0.  1.
         -6    1    1    2    0  503  0.23956629941E+02 -0.15671043664E+02  0.66007384298E+02  0.18644161689E+03  0.17200000000E+03 0.  1.
</event>
<event>
 4    1  0.5801298E+000  0.1841568E+03  0.7818608E-02  0.1163840E+00
         21   -1    0    0  503  502  0.00000000000E+00  0.00000000000E+00  0.34923562833E+03  0.34923562833E+03  0.00000000000E+00 0.  1.
         21   -1    0    0  501  503 -0.00000000000E+00 -0.00000000000E+00 -0.32191373629E+03  0.32191373629E+03  0.00000000000E+00 0. -1.
          6    1    1    2  501    0  0.44484442906E+02  0.48485514500E+02 -0.26676794063E+03  0.32415867245E+03  0.17200000000E+03 0.  1.
         -6    1    1    2    0  502 -0.44484442906E+02 -0.48485514500E+02  0.29408983266E+03  0.34699069217E+03  0.17200000000E+03 0.  1.
</event>
<event>
 4    1  0.5801298E+000  0.2495857E+03  0.7818608E-02  0.1113567E+00
         21   -1    0    0  503  502  0.00000000000E+00  0.00000000000E+00  0.46781505827E+03  0.46781505827E+03  0.00000000000E+00 0.  1.
         21   -1    0    0  501  503 -0.00000000000E+00 -0.00000000000E+00 -0.26393463380E+03  0.26393463380E+03  0.00000000000E+00 0.  1.
          6    1    1    2  501    0  0.18083686669E+03 -0.26574485429E+01 -0.15560319889E+03  0.29411798635E+03  0.17200000000E+03 0.  1.
         -6    1    1    2    0  502 -0.18083686669E+03  0.26574485429E+01  0.35948362337E+03  0.43763170573E+03  0.17200000000E+03 0.  1.
</event>
<event>
 4    1  0.5801298E+000  0.1984264E+03  0.7818608E-02  0.1151074E+00
         21   -1    0    0  503  502  0.00000000000E+00  0.00000000000E+00  0.95348803412E+03  0.95348803412E+03  0.00000000000E+00 0. -1.
         21   -1    0    0  501  503 -0.00000000000E+00 -0.00000000000E+00 -0.61132860274E+02  0.61132860274E+02  0.00000000000E+00 0. -1.
          6    1    1    2  501    0  0.14159977715E+02 -0.97920999517E+02  0.15717725584E+03  0.25313576766E+03  0.17200000000E+03 0. -1.
         -6    1    1    2    0  502 -0.14159977715E+02  0.97920999517E+02  0.73517791801E+03  0.76148512674E+03  0.17200000000E+03 0. -1.
</event>
<event>
 4    1  0.5801298E+000  0.1897096E+03  0.7818608E-02  0.1158723E+00
         21   -1    0    0  501  502  0.00000000000E+00  0.00000000000E+00  0.11161268987E+03  0.11161268987E+03  0.00000000000E+00 0. -1.
         21   -1    0    0  502  503 -0.00000000000E+00 -0.00000000000E+00 -0.33845390282E+03  0.33845390282E+03  0.00000000000E+00 0.  1.
          6    1    1    2  501    0  0.17667537181E+02 -0.78061502786E+02 -0.16235139598E+03  0.24969524598E+03  0.17200000000E+03 0.  1.
         -6    1    1    2    0  503 -0.17667537181E+02  0.78061502786E+02 -0.64489816970E+02  0.20037134670E+03  0.17200000000E+03 0.  1.
</event>
<event>
 4    1  0.5801298E+000  0.2918006E+03  0.7818608E-02  0.1089413E+00
         21   -1    0    0  501  502  0.00000000000E+00  0.00000000000E+00  0.28776809552E+03  0.28776809552E+03  0.00000000000E+00 0.  1.
         21   -1    0    0  502  503 -0.00000000000E+00 -0.00000000000E+00 -0.35152802736E+03  0.35152802736E+03  0.00000000000E+00 0.  1.
          6    1    1    2  501    0 -0.20414229058E+03  0.11785385667E+03  0.95288447448E+02  0.30696497284E+03  0.17200000000E+03 0.  1.
         -6    1    1    2    0  503  0.20414229058E+03 -0.11785385667E+03 -0.15904837929E+03  0.33233115004E+03  0.17200000000E+03 0.  1.
</event>
<event>
 4    1  0.5801298E+000  0.1803922E+03  0.7818608E-02  0.1167424E+00
         21   -1    0    0  501  502  0.00000000000E+00  0.00000000000E+00  0.15767561379E+03  0.15767561379E+03  0.00000000000E+00 0. -1.
         21   -1    0    0  502  503 -0.00000000000E+00 -0.00000000000E+00 -0.21461434970E+03  0.21461434970E+03  0.00000000000E+00 0. -1.
          6    1    1    2  501    0  0.19925506739E+02 -0.50599547980E+02  0.79888393590E+01  0.18056899410E+03  0.17200000000E+03 0. -1.
         -6    1    1    2    0  503 -0.19925506739E+02  0.50599547980E+02 -0.64927575264E+02  0.19172096939E+03  0.17200000000E+03 0. -1.
</event>
<event>
 4    1  0.5801298E+000  0.1860701E+03  0.7818608E-02  0.1162054E+00
         21   -1    0    0  503  502  0.00000000000E+00  0.00000000000E+00  0.40183472198E+03  0.40183472198E+03  0.00000000000E+00 0. -1.
         21   -1    0    0  501  503 -0.00000000000E+00 -0.00000000000E+00 -0.12601617129E+03  0.12601617129E+03  0.00000000000E+00 0. -1.
          6    1    1    2  501    0 -0.66061006968E+02  0.25961792987E+02 -0.10518789711E+02  0.18636715449E+03  0.17200000000E+03 0. -1.
         -6    1    1    2    0  502  0.66061006968E+02 -0.25961792987E+02  0.28633734041E+03  0.34148373877E+03  0.17200000000E+03 0. -1.
</event>
<event>
 4    1  0.5801298E+000  0.3264561E+03  0.7818608E-02  0.1072716E+00
         21   -1    0    0  501  502  0.00000000000E+00  0.00000000000E+00  0.22055421759E+04  0.22055421759E+04  0.00000000000E+00 0.  1.
         21   -1    0    0  502  503 -0.00000000000E+00 -0.00000000000E+00 -0.48336844772E+02  0.48336844772E+02  0.00000000000E+00 0. -1.
          6    1    1    2  501    0 -0.26037828063E+03 -0.95878751122E+02  0.10580770660E+04  0.11072942977E+04  0.17200000000E+03 0. -1.
         -6    1    1    2    0  503  0.26037828063E+03  0.95878751122E+02  0.10991282651E+04  0.11465847231E+04  0.17200000000E+03 0.  1.
</event>
<event>
 4    1  0.5801298E+000  0.2747291E+03  0.7818608E-02  0.1098603E+00
         21   -1    0    0  501  502  0.00000000000E+00  0.00000000000E+00  0.74664258115E+03  0.74664258115E+03  0.00000000000E+00 0.  1.
         21   -1    0    0  502  503 -0.00000000000E+00 -0.00000000000E+00 -0.31479010827E+03  0.31479010827E+03  0.00000000000E+00 0. -1.
          6    1    1    2  501    0 -0.68686788553E+02  0.20291422953E+03  0.65320367524E+03  0.70862620670E+03  0.17200000000E+03 0.  1.
         -6    1    1    2    0  503  0.68686788553E+02 -0.20291422953E+03 -0.22135120236E+03  0.35280648272E+03  0.17200000000E+03 0. -1.
</event>
<event>
 4    1  0.5801298E+000  0.1942596E+03  0.7818608E-02  0.1154675E+00
         21   -1    0    0  503  502  0.00000000000E+00  0.00000000000E+00  0.17981799870E+03  0.17981799870E+03  0.00000000000E+00 0.  1.
         21   -1    0    0  501  503 -0.00000000000E+00 -0.00000000000E+00 -0.87983260047E+03  0.87983260047E+03  0.00000000000E+00 0.  1.
          6    1    1    2  501    0 -0.80247468668E+02 -0.41389815362E+02 -0.81234668047E+03  0.83525080205E+03  0.17200000000E+03 0.  1.
         -6    1    1    2    0  502  0.80247468668E+02  0.41389815362E+02  0.11233207870E+03  0.22439979712E+03  0.17200000000E+03 0.  1.
</event>
<event>
 4    1  0.5801298E+000  0.1941601E+03  0.7818608E-02  0.1154762E+00
         21   -1    0    0  501  502  0.00000000000E+00  0.00000000000E+00  0.20574728776E+04  0.20574728776E+04  0.00000000000E+00 0.  1.
         21   -1    0    0  502  503 -0.00000000000E+00 -0.00000000000E+00 -0.40139055927E+02  0.40139055927E+02  0.00000000000E+00 0.  1.
          6    1    1    2  501    0 -0.42049260190E+02 -0.79661699123E+02  0.17818890537E+04  0.17924359755E+04  0.17200000000E+03 0.  1.
         -6    1    1    2    0  503  0.42049260190E+02  0.79661699123E+02  0.23544476798E+03  0.30517595803E+03  0.17200000000E+03 0.  1.
</event>
<event>
 4    1  0.5801298E+000  0.1888070E+03  0.7818608E-02  0.1159542E+00
         21   -1    0    0  503  502  0.00000000000E+00  0.00000000000E+00  0.14855499854E+04  0.14855499854E+04  0.00000000000E+00 0.  1.
         21   -1    0    0  501  503 -0.00000000000E+00 -0.00000000000E+00 -0.26208067117E+02  0.26208067117E+02  0.00000000000E+00 0. -1.
          6    1    1    2  501    0  0.47266789825E+02 -0.61886546065E+02  0.94924382104E+03  0.96783879121E+03  0.17200000000E+03 0.  1.
         -6    1    1    2    0  502 -0.47266789825E+02  0.61886546065E+02  0.51009809729E+03  0.54391926134E+03  0.17200000000E+03 0. -1.
</event>
<event>
 4    1  0.5801298E+000  0.2080372E+03  0.7818608E-02  0.1143130E+00
         21   -1    0    0  501  502  0.00000000000E+00  0.00000000000E+00  0.14356032059E+03  0.14356032059E+03  0.00000000000E+00 0. -1.
         21   -1    0    0  502  503 -0.00000000000E+00 -0.00000000000E+00 -0.31726729892E+03  0.31726729892E+03  0.00000000000E+00 0.  1.
          6    1    1    2  501    0 -0.74801109066E+02 -0.90001391812E+02 -0.35442496052E+02  0.21103465822E+03  0.17200000000E+03 0.  1.
         -6    1    1    2    0  503  0.74801109066E+02  0.90001391812E+02 -0.13826448228E+03  0.24979296128E+03  0.17200000000E+03 0. -1.
</event>
<event>
 4    1  0.5801298E+000  0.1839450E+03  0.7818608E-02  0.1164039E+00
         21   -1    0    0  503  502  0.00000000000E+00  0.00000000000E+00  0.57605009215E+03  0.57605009215E+03  0.00000000000E+00 0. -1.
         21   -1    0    0  501  503 -0.00000000000E+00 -0.00000000000E+00 -0.87475814245E+02  0.87475814245E+02  0.00000000000E+00 0.  1.
          6    1    1    2  501    0 -0.59284478547E+02 -0.27149897681E+02  0.54129305527E+02  0.19174396485E+03  0.17200000000E+03 0.  1.
         -6    1    1    2    0  502  0.59284478547E+02  0.27149897681E+02  0.43444497238E+03  0.47178194154E+03  0.17200000000E+03 0. -1.
</event>
<event>
 4    1  0.5801298E+000  0.1724503E+03  0.7818608E-02  0.1175316E+00
         21   -1    0    0  503  502  0.00000000000E+00  0.00000000000E+00  0.38721087138E+03  0.38721087138E+03  0.00000000000E+00 0.  1.
         21   -1    0    0  501  503 -0.00000000000E+00 -0.00000000000E+00 -0.13640121255E+03  0.13640121255E+03  0.00000000000E+00 0.  1.
          6    1    1    2  501    0  0.35051788270E+00  0.12448991938E+02 -0.47650833203E+02  0.17891255453E+03  0.17200000000E+03 0.  1.
         -6    1    1    2    0  502 -0.35051788270E+00 -0.12448991938E+02  0.29846049203E+03  0.34469952940E+03  0.17200000000E+03 0.  1.
</event>
<event>
 4    1  0.5801298E+000  0.2132909E+03  0.7818608E-02  0.1138986E+00
         21   -1    0    0  501  502  0.00000000000E+00  0.00000000000E+00  0.22592157736E+03  0.22592157736E+03  0.00000000000E+00 0. -1.
         21   -1    0    0  502  503 -0.00000000000E+00 -0.00000000000E+00 -0.73867276842E+03  0.73867276842E+03  0.00000000000E+00 0.  1.
          6    1    1    2  501    0 -0.12612450436E+03  0.12747236128E+01  0.15496319276E+03  0.26364105642E+03  0.17200000000E+03 0. -1.
         -6    1    1    2    0  503  0.12612450436E+03 -0.12747236128E+01 -0.66771438382E+03  0.70095328937E+03  0.17200000000E+03 0.  1.
</event>
<event>
 4    1  0.5801298E+000  0.2135263E+03  0.7818608E-02  0.1138804E+00
         21   -1    0    0  503  502  0.00000000000E+00  0.00000000000E+00  0.29860964363E+03  0.29860964363E+03  0.00000000000E+00 0.  1.
         21   -1    0    0  501  503 -0.00000000000E+00 -0.00000000000E+00 -0.16673829557E+03  0.16673829557E+03  0.00000000000E+00 0.  1.
          6    1    1    2  501    0  0.12607041181E+03  0.10758265380E+02 -0.16111526199E+01  0.21353239759E+03  0.17200000000E+03 0.  1.
         -6    1    1    2    0  502 -0.12607041181E+03 -0.10758265380E+02  0.13348250068E+03  0.25181554161E+03  0.17200000000E+03 0.  1.
</event>
<event>
 4    1  0.5801298E+000  0.2571235E+03  0.7818608E-02  0.1108884E+00
         21   -1    0    0  503  502  0.00000000000E+00  0.00000000000E+00  0.10085726796E+03  0.10085726796E+03  0.00000000000E+00 0. -1.
         21   -1    0    0  501  503 -0.00000000000E+00 -0.00000000000E+00 -0.75962344173E+03  0.75962344173E+03  0.00000000000E+00 0.  1.
          6    1    1    2  501    0  0.15954380739E+03  0.10523426186E+03 -0.48866817242E+03  0.55218571068E+03  0.17200000000E+03 0. -1.
         -6    1    1    2    0  502 -0.15954380739E+03 -0.10523426186E+03 -0.17009800135E+03  0.30829499900E+03  0.17200000000E+03 0. -1.
</event>
<event>
 4    1  0.5801298E+000  0.2437588E+03  0.7818608E-02  0.1117314E+00
         21   -1    0    0  501  502  0.00000000000E+00  0.00000000000E+00  0.72664966282E+03  0.72664966282E+03  0.00000000000E+00 0. -1.
         21   -1    0    0  502  503 -0.00000000000E+00 -0.00000000000E+00 -0.12480824812E+03  0.12480824812E+03  0.00000000000E+00 0.  1.
          6    1    1    2  501    0  0.15831963854E+03  0.69059804910E+02  0.55091914750E+03  0.60243694415E+03  0.17200000000E+03 0. -1.
         -6    1    1    2    0  503 -0.15831963854E+03 -0.69059804910E+02  0.50922267200E+02  0.24902096679E+03  0.17200000000E+03 0.  1.
</event>
<event>
 4    1  0.5801298E+000  0.2018101E+03  0.7818608E-02  0.1148221E+00
         21   -1    0    0  501  502  0.00000000000E+00  0.00000000000E+00  0.22320445556E+03  0.22320445556E+03  0.00000000000E+00 0. -1.
         21   -1    0    0  502  503 -0.00000000000E+00 -0.00000000000E+00 -0.40720662654E+03  0.40720662654E+03  0.00000000000E+00 0.  1.
          6    1    1    2  501    0 -0.34001435497E+02  0.99936031823E+02  0.14216654185E+03  0.24685751699E+03  0.17200000000E+03 0. -1.
         -6    1    1    2    0  503  0.34001435497E+02 -0.99936031823E+02 -0.32616871284E+03  0.38355356511E+03  0.17200000000E+03 0.  1.
</event>
<event>
 4    1  0.5801298E+000  0.2597554E+03  0.7818608E-02  0.1107290E+00
         21   -1    0    0  503  502  0.00000000000E+00  0.00000000000E+00  0.10589943469E+04  0.10589943469E+04  0.00000000000E+00 0. -1.
         21   -1    0    0  501  503 -0.00000000000E+00 -0.00000000000E+00 -0.94330945684E+02  0.94330945684E+02  0.00000000000E+00 0. -1.
          6    1    1    2  501    0 -0.61987170767E+02  0.18451686630E+03  0.15380182322E+03  0.30187395402E+03  0.17200000000E+03 0. -1.
         -6    1    1    2    0  502  0.61987170767E+02 -0.18451686630E+03  0.81086157804E+03  0.85145133861E+03  0.17200000000E+03 0. -1.
</event>
<event>
 4    1  0.5801298E+000  0.1767829E+03  0.7818608E-02  0.1170953E+00
         21   -1    0    0  503  502  0.00000000000E+00  0.00000000000E+00  0.24642489434E+03  0.24642489434E+03  0.00000000000E+00 0.  1.
         21   -1    0    0  501  503 -0.00000000000E+00 -0.00000000000E+00 -0.12862274686E+03  0.12862274686E+03  0.00000000000E+00 0. -1.
          6    1    1    2  501    0  0.35177962104E+01  0.40691777485E+02  0.36715223667E+02  0.18055526382E+03  0.17200000000E+03 0. -1.
         -6    1    1    2    0  502 -0.35177962104E+01 -0.40691777485E+02  0.81086923816E+02  0.19449237738E+03  0.17200000000E+03 0.  1.
</event>
<event>
 4    1  0.5801298E+000  0.1811968E+03  0.7818608E-02  0.1166650E+00
         21   -1    0    0  501  502  0.00000000000E+00  0.00000000000E+00  0.24889330624E+03  0.24889330624E+03  0.00000000000E+00 0. -1.
         21   -1    0    0  502  503 -0.00000000000E+00 -0.00000000000E+00 -0.15400794052E+03  0.15400794052E+03  0.00000000000E+00 0. -1.
          6    1    1    2  501    0 -0.21195425653E+02 -0.52905907652E+02 -0.28860516783E+02  0.18348081797E+03  0.17200000000E+03 0. -1.
         -6    1    1    2    0  503  0.21195425653E+02  0.52905907652E+02  0.12374588250E+03  0.21942042879E+03  0.17200000000E+03 0. -1.
</event>
<event>
 4    1  0.5801298E+000  0.1977376E+03  0.7818608E-02  0.1151662E+00
         21   -1    0    0  503  502  0.00000000000E+00  0.00000000000E+00  0.32779627378E+03  0.32779627378E+03  0.00000000000E+00 0. -1.
         21   -1    0    0  501  503 -0.00000000000E+00 -0.00000000000E+00 -0.12402154622E+03  0.12402154622E+03  0.00000000000E+00 0. -1.
          6    1    1    2  501    0  0.95606443241E+02 -0.19379087591E+02  0.57724143593E+02  0.20599081965E+03  0.17200000000E+03 0. -1.
         -6    1    1    2    0  502 -0.95606443241E+02  0.19379087591E+02  0.14605058397E+03  0.24582700036E+03  0.17200000000E+03 0. -1.
</event>
<event>
 4    1  0.5801298E+000  0.1796128E+03  0.7818608E-02  0.1168178E+00
         21   -1    0    0  501  502  0.00000000000E+00  0.00000000000E+00  0.18832795875E+03  0.18832795875E+03  0.00000000000E+00 0. -1.
         21   -1    0    0  502  503 -0.00000000000E+00 -0.00000000000E+00 -0.27525498427E+03  0.27525498427E+03  0.00000000000E+00 0. -1.
          6    1    1    2  501    0  0.39764485961E+02  0.33098909062E+02  0.98982598831E+02  0.20508122049E+03  0.17200000000E+03 0. -1.
         -6    1    1    2    0  503 -0.39764485961E+02 -0.33098909062E+02 -0.18590962435E+03  0.25850172253E+03  0.17200000000E+03 0. -1.
</event>
<event>
 4    1  0.5801298E+000  0.1996095E+03  0.7818608E-02  0.1150069E+00
         21   -1    0    0  503  502  0.00000000000E+00  0.00000000000E+00  0.98807376487E+03  0.98807376487E+03  0.00000000000E+00 0.  1.
         21   -1    0    0  501  503 -0.00000000000E+00 -0.00000000000E+00 -0.40755713007E+02  0.40755713007E+02  0.00000000000E+00 0.  1.
          6    1    1    2  501    0 -0.92717269871E+02  0.40785510641E+02  0.52654940684E+03  0.56311475549E+03  0.17200000000E+03 0.  1.
         -6    1    1    2    0  502  0.92717269871E+02 -0.40785510641E+02  0.42076864503E+03  0.46571472239E+03  0.17200000000E+03 0.  1.
</event>
<event>
 4    1  0.5801298E+000  0.1752902E+03  0.7818608E-02  0.1172441E+00
         21   -1    0    0  503  502  0.00000000000E+00  0.00000000000E+00  0.96505036764E+03  0.96505036764E+03  0.00000000000E+00 0. -1.
         21   -1    0    0  501  503 -0.00000000000E+00 -0.00000000000E+00 -0.10899347544E+03  0.10899347544E+03  0.00000000000E+00 0. -1.
          6    1    1    2  501    0 -0.24558050866E+02  0.23228710521E+02 -0.23797393932E+02  0.17689823858E+03  0.17200000000E+03 0. -1.
         -6    1    1    2    0  502  0.24558050866E+02 -0.23228710521E+02  0.87985428613E+03  0.89714560450E+03  0.17200000000E+03 0. -1.
</event>
<event>
 4    1  0.5801298E+000  0.2225909E+03  0.7818608E-02  0.1131966E+00
         21   -1    0    0  503  502  0.00000000000E+00  0.00000000000E+00  0.53505660298E+02  0.53505660298E+02  0.00000000000E+00 0.  1.
         21   -1    0    0  501  503 -0.00000000000E+00 -0.00000000000E+00 -0.19930475853E+04  0.19930475853E+04  0.00000000000E+00 0.  1.
          6    1    1    2  501    0  0.32449959646E+02 -0.13751252980E+03 -0.17184994966E+04  0.17328552206E+04  0.17200000000E+03 0.  1.
         -6    1    1    2    0  502 -0.32449959646E+02  0.13751252980E+03 -0.22104242839E+03  0.31369802499E+03  0.17200000000E+03 0.  1.
</event>
<event>
 4    1  0.5801298E+000  0.2407115E+03  0.7818608E-02  0.1119320E+00
         21   -1    0    0  503  502  0.00000000000E+00  0.00000000000E+00  0.17332050433E+03  0.17332050433E+03  0.00000000000E+00 0.  1.
         21   -1    0    0  501  503 -0.00000000000E+00 -0.00000000000E+00 -0.40932433770E+03  0.40932433770E+03  0.00000000000E+00 0.  1.
          6    1    1    2  501    0 -0.78699516880E+02  0.14887711480E+03 -0.24271875761E+03  0.34183973520E+03  0.17200000000E+03 0.  1.
         -6    1    1    2    0  502  0.78699516880E+02 -0.14887711480E+03  0.67149242439E+01  0.24080510683E+03  0.17200000000E+03 0.  1.
</event>
<event>
 4    1  0.5801298E+000  0.2365278E+03  0.7818608E-02  0.1122128E+00
         21   -1    0    0  503  502  0.00000000000E+00  0.00000000000E+00  0.14328736929E+04  0.14328736929E+04  0.00000000000E+00 0.  1.
         21   -1    0    0  501  503 -0.00000000000E+00 -0.00000000000E+00 -0.45561153626E+02  0.45561153626E+02  0.00000000000E+00 0. -1.
          6    1    1    2  501    0 -0.15624181594E+03  0.44157384205E+02  0.41408161873E+03  0.47687416223E+03  0.17200000000E+03 0.  1.
         -6    1    1    2    0  502  0.15624181594E+03 -0.44157384205E+02  0.97323092051E+03  0.10015606843E+04  0.17200000000E+03 0. -1.
</event>
<event>
 4    1  0.5801298E+000  0.1907264E+03  0.7818608E-02  0.1157808E+00
         21   -1    0    0  501  502  0.00000000000E+00  0.00000000000E+00  0.80525713698E+03  0.80525713698E+03  0.00000000000E+00 0. -1.
         21   -1    0    0  502  503 -0.00000000000E+00 -0.00000000000E+00 -0.46013807410E+02  0.46013807410E+02  0.00000000000E+00 0. -1.
          6    1    1    2  501    0  0.45689145574E+02 -0.68593542389E+02  0.43712858728E+03  0.47692554335E+03  0.17200000000E+03 0. -1.
         -6    1    1    2    0  503 -0.45689145574E+02  0.68593542389E+02  0.32211474229E+03  0.37434540104E+03  0.17200000000E+03 0. -1.
</event>
<event>
 4    1  0.5801298E+000  0.1937351E+03  0.7818608E-02  0.1155135E+00
         21   -1    0    0  503  502  0.00000000000E+00  0.00000000000E+00  0.10229587498E+03  0.10229587498E+03  0.00000000000E+00 0.  1.
         21   -1    0    0  501  503 -0.00000000000E+00 -0.00000000000E+00 -0.37241632782E+03  0.37241632782E+03  0.00000000000E+00 0.  1.
          6    1    1    2  501    0 -0.72759329661E+02 -0.51530408479E+02 -0.10619688939E+03  0.22093230268E+03  0.17200000000E+03 0.  1.
         -6    1    1    2    0  502  0.72759329661E+02  0.51530408479E+02 -0.16392356346E+03  0.25377990012E+03  0.17200000000E+03 0.  1.
</event>
<event>
 4    1  0.5801298E+000  0.1895048E+03  0.7818608E-02  0.1158909E+00
         21   -1    0    0  503  502  0.00000000000E+00  0.00000000000E+00  0.13813724045E+03  0.13813724045E+03  0.00000000000E+00 0.  1.
         21   -1    0    0  501  503 -0.00000000000E+00 -0.00000000000E+00 -0.55886430394E+03  0.55886430394E+03  0.00000000000E+00 0.  1.
          6    1    1    2  501    0  0.52795816554E+02  0.59503640159E+02 -0.46522637428E+03  0.50234217498E+03  0.17200000000E+03 0.  1.
         -6    1    1    2    0  502 -0.52795816554E+02 -0.59503640159E+02  0.44499310789E+02  0.19465936941E+03  0.17200000000E+03 0.  1.
</event>
<event>
 4    1  0.5801298E+000  0.1789661E+03  0.7818608E-02  0.1168807E+00
         21   -1    0    0  501  502  0.00000000000E+00  0.00000000000E+00  0.47566299581E+03  0.47566299581E+03  0.00000000000E+00 0. -1.
         21   -1    0    0  502  503 -0.00000000000E+00 -0.00000000000E+00 -0.78214762825E+02  0.78214762825E+02  0.00000000000E+00 0. -1.
          6    1    1    2  501    0  0.41653329502E+02  0.26643060976E+02  0.30201113057E+03  0.35105494661E+03  0.17200000000E+03 0. -1.
         -6    1    1    2    0  503 -0.41653329502E+02 -0.26643060976E+02  0.95437102417E+02  0.20282281202E+03  0.17200000000E+03 0. -1.
</event>
<event>
 4    1  0.5801298E+000  0.1883113E+03  0.7818608E-02  0.1159993E+00
         21   -1    0    0  501  502  0.00000000000E+00  0.00000000000E+00  0.89873521819E+03  0.89873521819E+03  0.00000000000E+00 0.  1.
         21   -1    0    0  502  503 -0.00000000000E+00 -0.00000000000E+00 -0.61502244710E+02  0.61502244710E+02  0.00000000000E+00 0.  1.
          6    1    1    2  501    0  0.76430639311E+02  0.59596792567E+01  0.70606707726E+03  0.73074747895E+03  0.17200000000E+03 0.  1.
         -6    1    1    2    0  503 -0.76430639311E+02 -0.59596792567E+01  0.13116589622E+03  0.22948998395E+03  0.17200000000E+03 0.  1.
</event>
<event>
 4    1  0.5801298E+000  0.1748653E+03  0.7818608E-02  0.1172867E+00
         21   -1    0    0  501  502  0.00000000000E+00  0.00000000000E+00  0.34629711562E+03  0.34629711562E+03  0.00000000000E+00 0. -1.
         21   -1    0    0  502  503 -0.00000000000E+00 -0.00000000000E+00 -0.90699628499E+02  0.90699628499E+02  0.00000000000E+00 0. -1.
          6    1    1    2  501    0  0.23916975306E+02 -0.20539176266E+02  0.16334207866E+03  0.23928751353E+03  0.17200000000E+03 0. -1.
         -6    1    1    2    0  503 -0.23916975306E+02  0.20539176266E+02  0.92255408454E+02  0.19770923058E+03  0.17200000000E+03 0. -1.
</event>
<event>
 4    1  0.5801298E+000  0.2017060E+03  0.7818608E-02  0.1148308E+00
         21   -1    0    0  501  502  0.00000000000E+00  0.00000000000E+00  0.17180201150E+04  0.17180201150E+04  0.00000000000E+00 0.  1.
         21   -1    0    0  502  503 -0.00000000000E+00 -0.00000000000E+00 -0.72482969355E+02  0.72482969355E+02  0.00000000000E+00 0. -1.
          6    1    1    2  501    0 -0.91720919835E+02 -0.51851623425E+02  0.15573559730E+04  0.15703639529E+04  0.17200000000E+03 0.  1.
         -6    1    1    2    0  503  0.91720919835E+02  0.51851623425E+02  0.88181172672E+02  0.22013913146E+03  0.17200000000E+03 0. -1.
</event>
<event>
 4    1  0.5801298E+000  0.1860352E+03  0.7818608E-02  0.1162087E+00
         21   -1    0    0  503  502  0.00000000000E+00  0.00000000000E+00  0.29830216490E+03  0.29830216490E+03  0.00000000000E+00 0.  1.
         21   -1    0    0  501  503 -0.00000000000E+00 -0.00000000000E+00 -0.13084522026E+03  0.13084522026E+03  0.00000000000E+00 0.  1.
          6    1    1    2  501    0  0.70517814568E+02 -0.72330701203E+01  0.11502223179E+02  0.18639039839E+03  0.17200000000E+03 0. -1.
         -6    1    1    2    0  502 -0.70517814568E+02  0.72330701203E+01  0.15595472146E+03  0.24275698676E+03  0.17200000000E+03 0. -1.
</event>
<event>
 4    1  0.5801298E+000  0.1743036E+03  0.7818608E-02  0.1173433E+00
         21   -1    0    0  501  502  0.00000000000E+00  0.00000000000E+00  0.15964257582E+03  0.15964257582E+03  0.00000000000E+00 0.  1.
         21   -1    0    0  502  503 -0.00000000000E+00 -0.00000000000E+00 -0.29037471294E+03  0.29037471294E+03  0.00000000000E+00 0.  1.
          6    1    1    2  501    0  0.85914879083E+01 -0.26905782450E+02  0.66720348624E+02  0.18663691948E+03  0.17200000000E+03 0.  1.
         -6    1    1    2    0  503 -0.85914879083E+01  0.26905782450E+02 -0.19745248575E+03  0.26338036928E+03  0.17200000000E+03 0.  1.
</event>
<event>
 4    1  0.5801298E+000  0.1838958E+03  0.7818608E-02  0.1164085E+00
         21   -1    0    0  503  502  0.00000000000E+00  0.00000000000E+00  0.37385650320E+03  0.37385650320E+03  0.00000000000E+00 0. -1.
         21   -1    0    0  501  503 -0.00000000000E+00 -0.00000000000E+00 -0.21001606946E+03  0.21001606946E+03  0.00000000000E+00 0. -1.
          6    1    1    2  501    0  0.51260593310E+02  0.40075262296E+02 -0.13834927759E+03  0.23012648193E+03  0.17200000000E+03 0. -1.
         -6    1    1    2    0  502 -0.51260593310E+02 -0.40075262296E+02  0.30218971133E+03  0.35374609073E+03  0.17200000000E+03 0. -1.
</event>
<event>
 4    1  0.5801298E+000  0.1818400E+03  0.7818608E-02  0.1166034E+00
         21   -1    0    0  501  502  0.00000000000E+00  0.00000000000E+00  0.13521661398E+03  0.13521661398E+03  0.00000000000E+00 0.  1.
         21   -1    0    0  502  503 -0.00000000000E+00 -0.00000000000E+00 -0.44995436206E+03  0.44995436206E+03  0.00000000000E+00 0.  1.
          6    1    1    2  501    0  0.58913123904E+02  0.33235987869E+01  0.40321027476E+02  0.18625677903E+03  0.17200000000E+03 0.  1.
         -6    1    1    2    0  503 -0.58913123904E+02 -0.33235987869E+01 -0.35505877555E+03  0.39891419701E+03  0.17200000000E+03 0.  1.
</event>
<event>
 4    1  0.5801298E+000  0.1886520E+03  0.7818608E-02  0.1159683E+00
         21   -1    0    0  503  502  0.00000000000E+00  0.00000000000E+00  0.49311300090E+02  0.49311300090E+02  0.00000000000E+00 0.  1.
         21   -1    0    0  501  503 -0.00000000000E+00 -0.00000000000E+00 -0.75023117008E+03  0.75023117008E+03  0.00000000000E+00 0.  1.
          6    1    1    2  501    0 -0.59427852549E+02  0.49738577681E+02 -0.42837509724E+03  0.46807565596E+03  0.17200000000E+03 0.  1.
         -6    1    1    2    0  502  0.59427852549E+02 -0.49738577681E+02 -0.27254477275E+03  0.33146681421E+03  0.17200000000E+03 0.  1.
</event>
<event>
 4    1  0.5801298E+000  0.3135054E+03  0.7818608E-02  0.1078678E+00
         21   -1    0    0  501  502  0.00000000000E+00  0.00000000000E+00  0.32819217331E+03  0.32819217331E+03  0.00000000000E+00 0. -1.
         21   -1    0    0  502  503 -0.00000000000E+00 -0.00000000000E+00 -0.47439217482E+03  0.47439217482E+03  0.00000000000E+00 0.  1.
          6    1    1    2  501    0  0.14664440813E+03 -0.21724877403E+03  0.17057286516E+03  0.35690434935E+03  0.17200000000E+03 0. -1.
         -6    1    1    2    0  503 -0.14664440813E+03  0.21724877403E+03 -0.31677286667E+03  0.44567999878E+03  0.17200000000E+03 0.  1.
</event>
<event>
 4    1  0.5801298E+000  0.2232995E+03  0.7818608E-02  0.1131447E+00
         21   -1    0    0  503  502  0.00000000000E+00  0.00000000000E+00  0.78354908860E+03  0.78354908860E+03  0.00000000000E+00 0.  1.
         21   -1    0    0  501  503 -0.00000000000E+00 -0.00000000000E+00 -0.66781551897E+02  0.66781551897E+02  0.00000000000E+00 0. -1.
          6    1    1    2  501    0  0.52388571336E+02 -0.13241633376E+03  0.26612349542E+03  0.34739654959E+03  0.17200000000E+03 0. -1.
         -6    1    1    2    0  502 -0.52388571336E+02  0.13241633376E+03  0.45064404129E+03  0.50293409091E+03  0.17200000000E+03 0.  1.
</event>
<event>
 4    1  0.5801298E+000  0.2378058E+03  0.7818608E-02  0.1121263E+00
         21   -1    0    0  503  502  0.00000000000E+00  0.00000000000E+00  0.53485018723E+03  0.53485018723E+03  0.00000000000E+00 0.  1.
         21   -1    0    0  501  503 -0.00000000000E+00 -0.00000000000E+00 -0.11199443450E+03  0.11199443450E+03  0.00000000000E+00 0.  1.
          6    1    1    2  501    0  0.12576250662E+02  0.16373591971E+03  0.28789756315E+03  0.37341213204E+03  0.17200000000E+03 0.  1.
         -6    1    1    2    0  502 -0.12576250662E+02 -0.16373591971E+03  0.13495818958E+03  0.27343248969E+03  0.17200000000E+03 0.  1.
</event>
<event>
 4    1  0.5801298E+000  0.3253224E+03  0.7818608E-02  0.1073226E+00
         21   -1    0    0  501  502  0.00000000000E+00  0.00000000000E+00  0.12497666893E+04  0.12497666893E+04  0.00000000000E+00 0.  1.
         21   -1    0    0  502  503 -0.00000000000E+00 -0.00000000000E+00 -0.88280632285E+02  0.88280632285E+02  0.00000000000E+00 0. -1.
          6    1    1    2  501    0  0.20718972642E+03  0.18254612066E+03  0.71578988465E+03  0.78625048673E+03  0.17200000000E+03 0.  1.
         -6    1    1    2    0  503 -0.20718972642E+03 -0.18254612066E+03  0.44569617236E+03  0.55179683486E+03  0.17200000000E+03 0. -1.
</event>
<event>
 4    1  0.5801298E+000  0.2790667E+03  0.7818608E-02  0.1096200E+00
         21   -1    0    0  503  502  0.00000000000E+00  0.00000000000E+00  0.72796096168E+03  0.72796096168E+03  0.00000000000E+00 0.  1.
         21   -1    0    0  501  503 -0.00000000000E+00 -0.00000000000E+00 -0.10865465756E+03  0.10865465756E+03  0.00000000000E+00 0. -1.
          6    1    1    2  501    0 -0.21786451743E+03  0.28796733803E+02  0.36156517958E+03  0.45673578677E+03  0.17200000000E+03 0.  1.
         -6    1    1    2    0  502  0.21786451743E+03 -0.28796733803E+02  0.25774112455E+03  0.37987983247E+03  0.17200000000E+03 0. -1.
</event>
<event>
 4    1  0.5801298E+000  0.1945687E+03  0.7818608E-02  0.1154404E+00
         21   -1    0    0  503  502  0.00000000000E+00  0.00000000000E+00  0.20130773741E+03  0.20130773741E+03  0.00000000000E+00 0.  1.
         21   -1    0    0  501  503 -0.00000000000E+00 -0.00000000000E+00 -0.33132031562E+03  0.33132031562E+03  0.00000000000E+00 0.  1.
          6    1    1    2  501    0 -0.67178416367E+01 -0.90707443745E+02 -0.24012808930E+03  0.30906062353E+03  0.17200000000E+03 0.  1.
         -6    1    1    2    0  502  0.67178416367E+01  0.90707443745E+02  0.11011551110E+03  0.22356742950E+03  0.17200000000E+03 0.  1.
</event>
<event>
 4    1  0.5801298E+000  0.2545178E+03  0.7818608E-02  0.1110483E+00
         21   -1    0    0  503  502  0.00000000000E+00  0.00000000000E+00  0.22998346373E+03  0.22998346373E+03  0.00000000000E+00 0. -1.
         21   -1    0    0  501  503 -0.00000000000E+00 -0.00000000000E+00 -0.67738893461E+03  0.67738893461E+03  0.00000000000E+00 0.  1.
          6    1    1    2  501    0 -0.18621553123E+03 -0.22783510089E+02 -0.57046373397E+03  0.62466645834E+03  0.17200000000E+03 0.  1.
         -6    1    1    2    0  502  0.18621553123E+03  0.22783510089E+02  0.12305826309E+03  0.28270594001E+03  0.17200000000E+03 0. -1.
</event>
<event>
 4    1  0.5801298E+000  0.1930878E+03  0.7818608E-02  0.1155705E+00
         21   -1    0    0  503  502  0.00000000000E+00  0.00000000000E+00  0.12621710578E+03  0.12621710578E+03  0.00000000000E+00 0.  1.
         21   -1    0    0  501  503 -0.00000000000E+00 -0.00000000000E+00 -0.29864416431E+03  0.29864416431E+03  0.00000000000E+00 0. -1.
          6    1    1    2  501    0  0.80931386086E+02 -0.33896980529E+02 -0.10839849389E+03  0.22143425214E+03  0.17200000000E+03 0.  1.
         -6    1    1    2    0  502 -0.80931386086E+02  0.33896980529E+02 -0.64028564633E+02  0.20342701795E+03  0.17200000000E+03 0.  1.
</event>
<event>
 4    1  0.5801298E+000  0.3292745E+03  0.7818608E-02  0.1071458E+00
         21   -1    0    0  503  502  0.00000000000E+00  0.00000000000E+00  0.61408888785E+02  0.61408888785E+02  0.00000000000E+00 0. -1.
         21   -1    0    0  501  503 -0.00000000000E+00 -0.00000000000E+00 -0.21851739823E+04  0.21851739823E+04  0.00000000000E+00 0.  1.
          6    1    1    2  501    0  0.16340372040E+03 -0.22833503462E+03 -0.15541141264E+04  0.15886133519E+04  0.17200000000E+03 0.  1.
         -6    1    1    2    0  502 -0.16340372040E+03  0.22833503462E+03 -0.56965096712E+03  0.65796951921E+03  0.17200000000E+03 0. -1.
</event>
<event>
 4    1  0.5801298E+000  0.2636911E+03  0.7818608E-02  0.1104946E+00
         21   -1    0    0  503  502  0.00000000000E+00  0.00000000000E+00  0.84036591066E+02  0.84036591066E+02  0.00000000000E+00 0.  1.
         21   -1    0    0  501  503 -0.00000000000E+00 -0.00000000000E+00 -0.83361283819E+03  0.83361283819E+03  0.00000000000E+00 0.  1.
          6    1    1    2  501    0 -0.66701750546E+02  0.18841406470E+03 -0.41435651308E+03  0.49114590830E+03  0.17200000000E+03 0.  1.
         -6    1    1    2    0  502  0.66701750546E+02 -0.18841406470E+03 -0.33521973404E+03  0.42650352096E+03  0.17200000000E+03 0.  1.
</event>
<event>
 4    1  0.5801298E+000  0.3440791E+03  0.7818608E-02  0.1065072E+00
         21   -1    0    0  503  502  0.00000000000E+00  0.00000000000E+00  0.46371464939E+03  0.46371464939E+03  0.00000000000E+00 0.  1.
         21   -1    0    0  501  503 -0.00000000000E+00 -0.00000000000E+00 -0.26818915680E+03  0.26818915680E+03  0.00000000000E+00 0. -1.
          6    1    1    2  501    0  0.42981963754E+02  0.29488811838E+03  0.17564182697E+02  0.34452714274E+03  0.17200000000E+03 0. -1.
         -6    1    1    2    0  502 -0.42981963754E+02 -0.29488811838E+03  0.17796130989E+03  0.38737666345E+03  0.17200000000E+03 0.  1.
</event>
