<event>
 4    1  0.5874615E+000  0.3619438E+03  0.7818608E-02  0.1057817E+00
         21   -1    0    0  503  502  0.00000000000E+00  0.00000000000E+00  0.10869032336E+04  0.10869032336E+04  0.00000000000E+00 0.  1.
         21   -1    0    0  501  503 -0.00000000000E+00 -0.00000000000E+00 -0.20198002759E+03  0.20198002759E+03  0.00000000000E+00 0.  1.
          6    1    1    2  501    0  0.21929422159E+03 -0.23093147055E+03  0.33221857789E+02  0.36346525494E+03  0.17200000000E+03 0.  1.
         -6    1    1    2    0  502 -0.21929422159E+03  0.23093147055E+03  0.85170134820E+03  0.92541800623E+03  0.17200000000E+03 0.  1.
</event>
<event>
 4    1  0.5874615E+000  0.1867444E+03  0.7818608E-02  0.1161431E+00
         21   -1    0    0  503  502  0.00000000000E+00  0.00000000000E+00  0.20006335463E+04  0.20006335463E+04  0.00000000000E+00 0. -1.
         21   -1    0    0  501  503 -0.00000000000E+00 -0.00000000000E+00 -0.17669942909E+02  0.17669942909E+02  0.00000000000E+00 0.  1.
          6    1    1    2  501    0  0.36591148226E+02  0.62853532102E+02  0.87418446249E+03  0.89390824645E+03  0.17200000000E+03 0.  1.
         -6    1    1    2    0  502 -0.36591148226E+02 -0.62853532102E+02  0.11087791409E+04  0.11243952428E+04  0.17200000000E+03 0. -1.
</event>
<event>
 4    1  0.5874615E+000  0.3099911E+03  0.7818608E-02  0.1080350E+00
         21   -1    0    0  503  502  0.00000000000E+00  0.00000000000E+00  0.33265468347E+03  0.33265468347E+03  0.00000000000E+00 0.  1.
         21   -1    0    0  501  503 -0.00000000000E+00 -0.00000000000E+00 -0.47963860253E+03  0.47963860253E+03  0.00000000000E+00 0.  1.
          6    1    1    2  501    0 -0.66401598353E+02 -0.24920128637E+03 -0.32963205017E+03  0.45249501864E+03  0.17200000000E+03 0.  1.
         -6    1    1    2    0  502  0.66401598353E+02  0.24920128637E+03  0.18264813112E+03  0.35979826736E+03  0.17200000000E+03 0.  1.
</event>
<event>
 4    1  0.5874615E+000  0.2256798E+03  0.7818608E-02  0.1129718E+00
         21   -1    0    0  503  502  0.00000000000E+00  0.00000000000E+00  0.72326247208E+02  0.72326247208E+02  0.00000000000E+00 0.  1.
         21   -1    0    0  501  503 -0.00000000000E+00 -0.00000000000E+00 -0.15194641776E+04  0.15194641776E+04  0.00000000000E+00 0. -1.
          6    1    1    2  501    0 -0.40193476739E+02 -0.14047019564E+03 -0.13065609825E+04  0.13259083651E+04  0.17200000000E+03 0. -1.
         -6    1    1    2    0  502  0.40193476739E+02  0.14047019564E+03 -0.14057694787E+03  0.26588205977E+03  0.17200000000E+03 0.  1.
</event>
<event>
 4    1  0.5874615E+000  0.2027580E+03  0.7818608E-02  0.1147433E+00
         21   -1    0    0  503  502  0.00000000000E+00  0.00000000000E+00  0.84228007038E+03  0.84228007038E+03  0.00000000000E+00 0.  1.
         21   -1    0    0  501  503 -0.00000000000E+00 -0.00000000000E+00 -0.68268416285E+02  0.68268416285E+02  0.00000000000E+00 0.  1.
          6    1    1    2  501    0 -0.27007475725E+02  0.10391049841E+03  0.14393727856E+03  0.24865384691E+03  0.17200000000E+03 0.  1.
         -6    1    1    2    0  502  0.27007475725E+02 -0.10391049841E+03  0.63007437553E+03  0.66189463975E+03  0.17200000000E+03 0.  1.
</event>
<event>
 4    1  0.5874615E+000  0.1819435E+03  0.7818608E-02  0.1165935E+00
         21   -1    0    0  503  502  0.00000000000E+00  0.00000000000E+00  0.11675814312E+03  0.11675814312E+03  0.00000000000E+00 0. -1.
         21   -1    0    0  501  503 -0.00000000000E+00 -0.00000000000E+00 -0.77532562777E+03  0.77532562777E+03  0.00000000000E+00 0.  1.
          6    1    1    2  501    0 -0.59126922375E+02  0.48431409525E+01 -0.68453010400E+03  0.70829719204E+03  0.17200000000E+03 0.  1.
         -6    1    1    2    0  502  0.59126922375E+02 -0.48431409525E+01  0.25962619354E+02  0.18378657886E+03  0.17200000000E+03 0. -1.
</event>
<event>
 4    1  0.5874615E+000  0.1807780E+03  0.7818608E-02  0.1167052E+00
         21   -1    0    0  503  502  0.00000000000E+00  0.00000000000E+00  0.51687426283E+02  0.51687426283E+02  0.00000000000E+00 0. -1.
         21   -1    0    0  501  503 -0.00000000000E+00 -0.00000000000E+00 -0.64185569371E+03  0.64185569371E+03  0.00000000000E+00 0. -1.
          6    1    1    2  501    0  0.48881440940E+02 -0.26594708387E+02 -0.33745042773E+03  0.38282302042E+03  0.17200000000E+03 0.  1.
         -6    1    1    2    0  502 -0.48881440940E+02  0.26594708387E+02 -0.25271783969E+03  0.31072009958E+03  0.17200000000E+03 0.  1.
</event>
<event>
 4    1  0.5874615E+000  0.1929013E+03  0.7818608E-02  0.1155870E+00
         21   -1    0    0  501  502  0.00000000000E+00  0.00000000000E+00  0.21747403612E+03  0.21747403612E+03  0.00000000000E+00 0. -1.
         21   -1    0    0  502  503 -0.00000000000E+00 -0.00000000000E+00 -0.17138729625E+03  0.17138729625E+03  0.00000000000E+00 0. -1.
          6    1    1    2  501    0  0.72486133037E+02  0.48710014177E+02  0.30933653033E+02  0.19536580011E+03  0.17200000000E+03 0. -1.
         -6    1    1    2    0  503 -0.72486133037E+02 -0.48710014177E+02  0.15153086831E+02  0.19349553226E+03  0.17200000000E+03 0. -1.
</event>
<event>
 4    1  0.5874615E+000  0.2180099E+03  0.7818608E-02  0.1135375E+00
         21   -1    0    0  503  502  0.00000000000E+00  0.00000000000E+00  0.46785321403E+03  0.46785321403E+03  0.00000000000E+00 0.  1.
         21   -1    0    0  501  503 -0.00000000000E+00 -0.00000000000E+00 -0.16091089198E+03  0.16091089198E+03  0.00000000000E+00 0.  1.
          6    1    1    2  501    0 -0.85009114772E+02  0.10352674036E+03 -0.37415546413E+02  0.22119732972E+03  0.17200000000E+03 0.  1.
         -6    1    1    2    0  502  0.85009114772E+02 -0.10352674036E+03  0.34435786846E+03  0.40756677629E+03  0.17200000000E+03 0.  1.
</event>
<event>
 4    1  0.5874615E+000  0.2012376E+03  0.7818608E-02  0.1148699E+00
         21   -1    0    0  501  502  0.00000000000E+00  0.00000000000E+00  0.46511937249E+03  0.46511937249E+03  0.00000000000E+00 0.  1.
         21   -1    0    0  502  503 -0.00000000000E+00 -0.00000000000E+00 -0.89230221989E+02  0.89230221989E+02  0.00000000000E+00 0.  1.
          6    1    1    2  501    0 -0.81951068887E+02  0.64781147712E+02  0.14478843443E+03  0.24791181000E+03  0.17200000000E+03 0.  1.
         -6    1    1    2    0  503  0.81951068887E+02 -0.64781147712E+02  0.23110071607E+03  0.30643778448E+03  0.17200000000E+03 0.  1.
</event>
<event>
 4    1  0.5874615E+000  0.1955765E+03  0.7818608E-02  0.1153526E+00
         21   -1    0    0  503  502  0.00000000000E+00  0.00000000000E+00  0.14125053594E+03  0.14125053594E+03  0.00000000000E+00 0. -1.
         21   -1    0    0  501  503 -0.00000000000E+00 -0.00000000000E+00 -0.31463639022E+03  0.31463639022E+03  0.00000000000E+00 0. -1.
          6    1    1    2  501    0 -0.57664322297E+02 -0.73082174492E+02 -0.17177859849E+03  0.26030379405E+03  0.17200000000E+03 0. -1.
         -6    1    1    2    0  502  0.57664322297E+02  0.73082174492E+02 -0.16072557899E+01  0.19558313211E+03  0.17200000000E+03 0. -1.
</event>
<event>
 4    1  0.5874615E+000  0.2001281E+03  0.7818608E-02  0.1149631E+00
         21   -1    0    0  503  502  0.00000000000E+00  0.00000000000E+00  0.20894757208E+04  0.20894757208E+04  0.00000000000E+00 0. -1.
         21   -1    0    0  501  503 -0.00000000000E+00 -0.00000000000E+00 -0.21183381387E+02  0.21183381387E+02  0.00000000000E+00 0. -1.
          6    1    1    2  501    0 -0.48771067457E+02 -0.89936916979E+02  0.13596521710E+04  0.13743017471E+04  0.17200000000E+03 0. -1.
         -6    1    1    2    0  502  0.48771067457E+02  0.89936916979E+02  0.70864016836E+03  0.73635735501E+03  0.17200000000E+03 0. -1.
</event>
<event>
 4    1  0.5874615E+000  0.2293410E+03  0.7818608E-02  0.1127104E+00
         21   -1    0    0  501  502  0.00000000000E+00  0.00000000000E+00  0.30131190825E+03  0.30131190825E+03  0.00000000000E+00 0.  1.
         21   -1    0    0  502  503 -0.00000000000E+00 -0.00000000000E+00 -0.19736989217E+03  0.19736989217E+03  0.00000000000E+00 0.  1.
          6    1    1    2  501    0 -0.14945742437E+03 -0.25995414436E+02 -0.32791919733E+02  0.23167346259E+03  0.17200000000E+03 0.  1.
         -6    1    1    2    0  503  0.14945742437E+03  0.25995414436E+02  0.13673393581E+03  0.26700833783E+03  0.17200000000E+03 0.  1.
</event>
<event>
 4    1  0.5874615E+000  0.2350171E+03  0.7818608E-02  0.1123158E+00
         21   -1    0    0  503  502  0.00000000000E+00  0.00000000000E+00  0.21207869226E+03  0.21207869226E+03  0.00000000000E+00 0. -1.
         21   -1    0    0  501  503 -0.00000000000E+00 -0.00000000000E+00 -0.29003173118E+03  0.29003173118E+03  0.00000000000E+00 0. -1.
          6    1    1    2  501    0 -0.10344556937E+03 -0.12226215979E+03  0.41220407311E+02  0.23860457564E+03  0.17200000000E+03 0. -1.
         -6    1    1    2    0  502  0.10344556937E+03  0.12226215979E+03 -0.11917344623E+03  0.26350584780E+03  0.17200000000E+03 0. -1.
</event>
<event>
 4    1  0.5874615E+000  0.1726826E+03  0.7818608E-02  0.1175079E+00
         21   -1    0    0  503  502  0.00000000000E+00  0.00000000000E+00  0.88558886015E+02  0.88558886015E+02  0.00000000000E+00 0. -1.
         21   -1    0    0  501  503 -0.00000000000E+00 -0.00000000000E+00 -0.36680908293E+03  0.36680908293E+03  0.00000000000E+00 0. -1.
          6    1    1    2  501    0  0.16038721812E+01 -0.15254345387E+02 -0.20433894041E+03  0.26753255882E+03  0.17200000000E+03 0. -1.
         -6    1    1    2    0  502 -0.16038721812E+01  0.15254345387E+02 -0.73911256501E+02  0.18783541012E+03  0.17200000000E+03 0. -1.
</event>
<event>
 4    1  0.5874615E+000  0.1766190E+03  0.7818608E-02  0.1171116E+00
         21   -1    0    0  503  502  0.00000000000E+00  0.00000000000E+00  0.18434433069E+03  0.18434433069E+03  0.00000000000E+00 0.  1.
         21   -1    0    0  501  503 -0.00000000000E+00 -0.00000000000E+00 -0.17317931519E+03  0.17317931519E+03  0.00000000000E+00 0.  1.
          6    1    1    2  501    0  0.15512057705E+01  0.40098167050E+02  0.32620789334E+02  0.17960619459E+03  0.17200000000E+03 0. -1.
         -6    1    1    2    0  502 -0.15512057705E+01 -0.40098167050E+02 -0.21455773834E+02  0.17791745128E+03  0.17200000000E+03 0. -1.
</event>
<event>
 4    1  0.5874615E+000  0.2131084E+03  0.7818608E-02  0.1139128E+00
         21   -1    0    0  503  502  0.00000000000E+00  0.00000000000E+00  0.67344314231E+03  0.67344314231E+03  0.00000000000E+00 0. -1.
         21   -1    0    0  501  503 -0.00000000000E+00 -0.00000000000E+00 -0.67555858146E+02  0.67555858146E+02  0.00000000000E+00 0. -1.
          6    1    1    2  501    0  0.54714659830E+01 -0.12570309456E+03  0.31846299725E+03  0.38318909893E+03  0.17200000000E+03 0. -1.
         -6    1    1    2    0  502 -0.54714659830E+01  0.12570309456E+03  0.28742428691E+03  0.35780990152E+03  0.17200000000E+03 0. -1.
</event>
<event>
 4    1  0.5874615E+000  0.1775845E+03  0.7818608E-02  0.1170161E+00
         21   -1    0    0  501  502  0.00000000000E+00  0.00000000000E+00  0.41161467273E+03  0.41161467273E+03  0.00000000000E+00 0. -1.
         21   -1    0    0  502  503 -0.00000000000E+00 -0.00000000000E+00 -0.19445112764E+03  0.19445112764E+03  0.00000000000E+00 0. -1.
          6    1    1    2  501    0  0.44109944506E+01  0.43963682439E+02  0.34447852997E+03  0.38755866634E+03  0.17200000000E+03 0. -1.
         -6    1    1    2    0  503 -0.44109944506E+01 -0.43963682439E+02 -0.12731498488E+03  0.21850713403E+03  0.17200000000E+03 0. -1.
</event>
<event>
 4    1  0.5874615E+000  0.1889238E+03  0.7818608E-02  0.1159436E+00
         21   -1    0    0  503  502  0.00000000000E+00  0.00000000000E+00  0.45042085652E+03  0.45042085652E+03  0.00000000000E+00 0. -1.
         21   -1    0    0  501  503 -0.00000000000E+00 -0.00000000000E+00 -0.10594550878E+03  0.10594550878E+03  0.00000000000E+00 0.  1.
          6    1    1    2  501    0 -0.67453980245E+02  0.39473563732E+02  0.31189850581E+03  0.36465446605E+03  0.17200000000E+03 0.  1.
         -6    1    1    2    0  502  0.67453980245E+02 -0.39473563732E+02  0.32576841933E+02  0.19171189925E+03  0.17200000000E+03 0.  1.
</event>
<event>
 4    1  0.5874615E+000  0.2042103E+03  0.7818608E-02  0.1146235E+00
         21   -1    0    0  503  502  0.00000000000E+00  0.00000000000E+00  0.11521364458E+04  0.11521364458E+04  0.00000000000E+00 0.  1.
         21   -1    0    0  501  503 -0.00000000000E+00 -0.00000000000E+00 -0.36325321709E+02  0.36325321709E+02  0.00000000000E+00 0.  1.
          6    1    1    2  501    0  0.92029418394E+02  0.60402293995E+02  0.59346580217E+03  0.62761732713E+03  0.17200000000E+03 0.  1.
         -6    1    1    2    0  502 -0.92029418394E+02 -0.60402293995E+02  0.52234532191E+03  0.56084444037E+03  0.17200000000E+03 0.  1.
</event>
<event>
 4    1  0.5874615E+000  0.1871266E+03  0.7818608E-02  0.1161079E+00
         21   -1    0    0  501  502  0.00000000000E+00  0.00000000000E+00  0.33501129665E+03  0.33501129665E+03  0.00000000000E+00 0.  1.
         21   -1    0    0  502  503 -0.00000000000E+00 -0.00000000000E+00 -0.28948283311E+03  0.28948283311E+03  0.00000000000E+00 0. -1.
          6    1    1    2  501    0 -0.72175132739E+02  0.14937238581E+02  0.27235339332E+03  0.33044325040E+03  0.17200000000E+03 0.  1.
         -6    1    1    2    0  503  0.72175132739E+02 -0.14937238581E+02 -0.22682492978E+03  0.29405087936E+03  0.17200000000E+03 0. -1.
</event>
<event>
 4    1  0.5874615E+000  0.2994583E+03  0.7818608E-02  0.1085512E+00
         21   -1    0    0  501  502  0.00000000000E+00  0.00000000000E+00  0.34324734011E+03  0.34324734011E+03  0.00000000000E+00 0.  1.
         21   -1    0    0  502  503 -0.00000000000E+00 -0.00000000000E+00 -0.28628442562E+03  0.28628442562E+03  0.00000000000E+00 0. -1.
          6    1    1    2  501    0  0.19378034848E+03  0.15013469319E+03  0.12155152832E+03  0.32318728872E+03  0.17200000000E+03 0.  1.
         -6    1    1    2    0  503 -0.19378034848E+03 -0.15013469319E+03 -0.64588613837E+02  0.30634447701E+03  0.17200000000E+03 0. -1.
</event>
<event>
 4    1  0.5874615E+000  0.1866260E+03  0.7818608E-02  0.1161540E+00
         21   -1    0    0  503  502  0.00000000000E+00  0.00000000000E+00  0.63292983965E+03  0.63292983965E+03  0.00000000000E+00 0. -1.
         21   -1    0    0  501  503 -0.00000000000E+00 -0.00000000000E+00 -0.56256088865E+02  0.56256088865E+02  0.00000000000E+00 0. -1.
          6    1    1    2  501    0 -0.70652529071E+02 -0.15920650639E+02  0.33923822518E+03  0.38718447852E+03  0.17200000000E+03 0. -1.
         -6    1    1    2    0  502  0.70652529071E+02  0.15920650639E+02  0.23743552560E+03  0.30200144999E+03  0.17200000000E+03 0. -1.
</event>
<event>
 4    1  0.5874615E+000  0.1794252E+03  0.7818608E-02  0.1168361E+00
         21   -1    0    0  503  502  0.00000000000E+00  0.00000000000E+00  0.13158404948E+03  0.13158404948E+03  0.00000000000E+00 0. -1.
         21   -1    0    0  501  503 -0.00000000000E+00 -0.00000000000E+00 -0.62491619401E+03  0.62491619401E+03  0.00000000000E+00 0. -1.
          6    1    1    2  501    0 -0.79448554389E+01 -0.50460620456E+02 -0.54172323083E+03  0.57066404632E+03  0.17200000000E+03 0. -1.
         -6    1    1    2    0  502  0.79448554389E+01  0.50460620456E+02  0.48391086297E+02  0.18583619717E+03  0.17200000000E+03 0. -1.
</event>
<event>
 4    1  0.5874615E+000  0.1741580E+03  0.7818608E-02  0.1173580E+00
         21   -1    0    0  501  502  0.00000000000E+00  0.00000000000E+00  0.58278238782E+02  0.58278238782E+02  0.00000000000E+00 0. -1.
         21   -1    0    0  502  503 -0.00000000000E+00 -0.00000000000E+00 -0.52111562470E+03  0.52111562470E+03  0.00000000000E+00 0. -1.
          6    1    1    2  501    0 -0.78936415112E+01  0.26166727316E+02 -0.22107815128E+03  0.28143659351E+03  0.17200000000E+03 0. -1.
         -6    1    1    2    0  503  0.78936415112E+01 -0.26166727316E+02 -0.24175923463E+03  0.29795726997E+03  0.17200000000E+03 0. -1.
</event>
<event>
 4    1  0.5874615E+000  0.2699799E+03  0.7818608E-02  0.1101291E+00
         21   -1    0    0  503  502  0.00000000000E+00  0.00000000000E+00  0.27736938992E+03  0.27736938992E+03  0.00000000000E+00 0.  1.
         21   -1    0    0  501  503 -0.00000000000E+00 -0.00000000000E+00 -0.29271380063E+03  0.29271380063E+03  0.00000000000E+00 0.  1.
          6    1    1    2  501    0 -0.17462792737E+03 -0.11318231825E+03  0.83468982566E+02  0.28258843082E+03  0.17200000000E+03 0.  1.
         -6    1    1    2    0  502  0.17462792737E+03  0.11318231825E+03 -0.98813393277E+02  0.28749475973E+03  0.17200000000E+03 0.  1.
</event>
<event>
 4    1  0.5874615E+000  0.1837854E+03  0.7818608E-02  0.1164189E+00
         21   -1    0    0  503  502  0.00000000000E+00  0.00000000000E+00  0.57173968546E+02  0.57173968546E+02  0.00000000000E+00 0.  1.
         21   -1    0    0  501  503 -0.00000000000E+00 -0.00000000000E+00 -0.64569920823E+03  0.64569920823E+03  0.00000000000E+00 0.  1.
          6    1    1    2  501    0  0.63658304990E+02 -0.11861864882E+02 -0.39675807222E+03  0.43725742019E+03  0.17200000000E+03 0.  1.
         -6    1    1    2    0  502 -0.63658304990E+02  0.11861864882E+02 -0.19176716746E+03  0.26561575659E+03  0.17200000000E+03 0.  1.
</event>
<event>
 4    1  0.5874615E+000  0.1876869E+03  0.7818608E-02  0.1160564E+00
         21   -1    0    0  503  502  0.00000000000E+00  0.00000000000E+00  0.46010419048E+02  0.46010419048E+02  0.00000000000E+00 0. -1.
         21   -1    0    0  501  503 -0.00000000000E+00 -0.00000000000E+00 -0.99276037794E+03  0.99276037794E+03  0.00000000000E+00 0. -1.
          6    1    1    2  501    0 -0.67332778946E+02 -0.33296665587E+02 -0.22493738941E+03  0.29295596975E+03  0.17200000000E+03 0. -1.
         -6    1    1    2    0  502  0.67332778946E+02  0.33296665587E+02 -0.72181256948E+03  0.74581482723E+03  0.17200000000E+03 0. -1.
</event>
<event>
 4    1  0.5874615E+000  0.1947037E+03  0.7818608E-02  0.1154286E+00
         21   -1    0    0  501  502  0.00000000000E+00  0.00000000000E+00  0.54450363356E+03  0.54450363356E+03  0.00000000000E+00 0. -1.
         21   -1    0    0  502  503 -0.00000000000E+00 -0.00000000000E+00 -0.71576912564E+02  0.71576912564E+02  0.00000000000E+00 0. -1.
          6    1    1    2  501    0 -0.91171848143E+02  0.36381910442E+01  0.28736856367E+03  0.34711703173E+03  0.17200000000E+03 0. -1.
         -6    1    1    2    0  503  0.91171848143E+02 -0.36381910442E+01  0.18555815733E+03  0.26896351440E+03  0.17200000000E+03 0. -1.
</event>
<event>
 4    1  0.5874615E+000  0.1886165E+03  0.7818608E-02  0.1159715E+00
         21   -1    0    0  501  502  0.00000000000E+00  0.00000000000E+00  0.74972365764E+03  0.74972365764E+03  0.00000000000E+00 0. -1.
         21   -1    0    0  502  503 -0.00000000000E+00 -0.00000000000E+00 -0.75352695817E+02  0.75352695817E+02  0.00000000000E+00 0. -1.
          6    1    1    2  501    0 -0.28432983059E+02  0.71998295534E+02  0.58821172546E+03  0.61771289694E+03  0.17200000000E+03 0. -1.
         -6    1    1    2    0  503  0.28432983059E+02 -0.71998295534E+02  0.86159236364E+02  0.20736345651E+03  0.17200000000E+03 0. -1.
</event>
<event>
 4    1  0.5874615E+000  0.1804664E+03  0.7818608E-02  0.1167352E+00
         21   -1    0    0  501  502  0.00000000000E+00  0.00000000000E+00  0.85178349734E+03  0.85178349734E+03  0.00000000000E+00 0. -1.
         21   -1    0    0  502  503 -0.00000000000E+00 -0.00000000000E+00 -0.19734860496E+03  0.19734860496E+03  0.00000000000E+00 0. -1.
          6    1    1    2  501    0 -0.40152517667E+02  0.37039368256E+02  0.79823434801E+03  0.81838023792E+03  0.17200000000E+03 0. -1.
         -6    1    1    2    0  503  0.40152517667E+02 -0.37039368256E+02 -0.14379945563E+03  0.23075186438E+03  0.17200000000E+03 0. -1.
</event>
<event>
 4    1  0.5874615E+000  0.1902236E+03  0.7818608E-02  0.1158260E+00
         21   -1    0    0  503  502  0.00000000000E+00  0.00000000000E+00  0.79918055484E+03  0.79918055484E+03  0.00000000000E+00 0. -1.
         21   -1    0    0  501  503 -0.00000000000E+00 -0.00000000000E+00 -0.84426715181E+02  0.84426715181E+02  0.00000000000E+00 0. -1.
          6    1    1    2  501    0  0.48947906485E+02  0.64846962025E+02  0.56526946630E+02  0.19844475737E+03  0.17200000000E+03 0. -1.
         -6    1    1    2    0  502 -0.48947906485E+02 -0.64846962025E+02  0.65822689302E+03  0.68516251264E+03  0.17200000000E+03 0. -1.
</event>
<event>
 4    1  0.5874615E+000  0.2152543E+03  0.7818608E-02  0.1137471E+00
         21   -1    0    0  501  502  0.00000000000E+00  0.00000000000E+00  0.10663333669E+04  0.10663333669E+04  0.00000000000E+00 0. -1.
         21   -1    0    0  502  503 -0.00000000000E+00 -0.00000000000E+00 -0.59974615398E+02  0.59974615398E+02  0.00000000000E+00 0. -1.
          6    1    1    2  501    0 -0.11426249563E+03  0.60782214314E+02  0.79876401813E+03  0.82725954340E+03  0.17200000000E+03 0. -1.
         -6    1    1    2    0  503  0.11426249563E+03 -0.60782214314E+02  0.20759473337E+03  0.29904843890E+03  0.17200000000E+03 0. -1.
</event>
<event>
 4    1  0.5874615E+000  0.2055630E+03  0.7818608E-02  0.1145129E+00
         21   -1    0    0  501  502  0.00000000000E+00  0.00000000000E+00  0.59215179852E+03  0.59215179852E+03  0.00000000000E+00 0. -1.
         21   -1    0    0  502  503 -0.00000000000E+00 -0.00000000000E+00 -0.13400476175E+03  0.13400476175E+03  0.00000000000E+00 0. -1.
          6    1    1    2  501    0  0.55388918540E+02  0.98001110018E+02  0.47731901502E+03  0.51970144502E+03  0.17200000000E+03 0. -1.
         -6    1    1    2    0  503 -0.55388918540E+02 -0.98001110018E+02 -0.19171978240E+02  0.20645511525E+03  0.17200000000E+03 0. -1.
</event>
<event>
 4    1  0.5874615E+000  0.1936514E+03  0.7818608E-02  0.1155209E+00
         21   -1    0    0  503  502  0.00000000000E+00  0.00000000000E+00  0.14136263665E+03  0.14136263665E+03  0.00000000000E+00 0.  1.
         21   -1    0    0  501  503 -0.00000000000E+00 -0.00000000000E+00 -0.46373347579E+03  0.46373347579E+03  0.00000000000E+00 0. -1.
          6    1    1    2  501    0  0.86922039443E+02  0.19010742107E+02 -0.35910473945E+03  0.40799149888E+03  0.17200000000E+03 0. -1.
         -6    1    1    2    0  502 -0.86922039443E+02 -0.19010742107E+02  0.36733900314E+02  0.19710461357E+03  0.17200000000E+03 0.  1.
</event>
<event>
 4    1  0.5874615E+000  0.1760622E+03  0.7818608E-02  0.1171669E+00
         21   -1    0    0  501  502  0.00000000000E+00  0.00000000000E+00  0.22501667481E+04  0.22501667481E+04  0.00000000000E+00 0.  1.
         21   -1    0    0  502  503 -0.00000000000E+00 -0.00000000000E+00 -0.20460245819E+02  0.20460245819E+02  0.00000000000E+00 0.  1.
          6    1    1    2  501    0  0.58159265135E+01 -0.37149203635E+02  0.17637752326E+04  0.17725408202E+04  0.17200000000E+03 0.  1.
         -6    1    1    2    0  503 -0.58159265135E+01  0.37149203635E+02  0.46593126971E+03  0.49808617370E+03  0.17200000000E+03 0.  1.
</event>
<event>
 4    1  0.5874615E+000  0.1811168E+03  0.7818608E-02  0.1166727E+00
         21   -1    0    0  503  502  0.00000000000E+00  0.00000000000E+00  0.22317946033E+03  0.22317946033E+03  0.00000000000E+00 0.  1.
         21   -1    0    0  501  503 -0.00000000000E+00 -0.00000000000E+00 -0.17336259261E+03  0.17336259261E+03  0.00000000000E+00 0.  1.
          6    1    1    2  501    0  0.50641585031E+02  0.25587880488E+02 -0.52435420630E+02  0.18855445659E+03  0.17200000000E+03 0.  1.
         -6    1    1    2    0  502 -0.50641585031E+02 -0.25587880488E+02  0.10225228835E+03  0.20798759635E+03  0.17200000000E+03 0.  1.
</event>
<event>
 4    1  0.5874615E+000  0.1732106E+03  0.7818608E-02  0.1174541E+00
         21   -1    0    0  503  502  0.00000000000E+00  0.00000000000E+00  0.60598347268E+02  0.60598347268E+02  0.00000000000E+00 0. -1.
         21   -1    0    0  501  503 -0.00000000000E+00 -0.00000000000E+00 -0.49549652165E+03  0.49549652165E+03  0.00000000000E+00 0. -1.
          6    1    1    2  501    0 -0.13420809668E+01  0.20398411086E+02 -0.22537101722E+03  0.28424283942E+03  0.17200000000E+03 0. -1.
         -6    1    1    2    0  502  0.13420809668E+01 -0.20398411086E+02 -0.20952715716E+03  0.27185202950E+03  0.17200000000E+03 0. -1.
</event>
<event>
 4    1  0.5874615E+000  0.1953493E+03  0.7818608E-02  0.1153723E+00
         21   -1    0    0  501  502  0.00000000000E+00  0.00000000000E+00  0.16895052796E+04  0.16895052796E+04  0.00000000000E+00 0. -1.
         21   -1    0    0  502  503 -0.00000000000E+00 -0.00000000000E+00 -0.26079888975E+02  0.26079888975E+02  0.00000000000E+00 0. -1.
          6    1    1    2  501    0  0.28013721392E+01  0.92571495908E+02  0.11456221340E+04  0.11621580802E+04  0.17200000000E+03 0. -1.
         -6    1    1    2    0  503 -0.28013721392E+01 -0.92571495908E+02  0.51780325663E+03  0.55342708835E+03  0.17200000000E+03 0. -1.
</event>
<event>
 4    1  0.5874615E+000  0.2199452E+03  0.7818608E-02  0.1133924E+00
         21   -1    0    0  503  502  0.00000000000E+00  0.00000000000E+00  0.14132671577E+04  0.14132671577E+04  0.00000000000E+00 0.  1.
         21   -1    0    0  501  503 -0.00000000000E+00 -0.00000000000E+00 -0.36259989847E+02  0.36259989847E+02  0.00000000000E+00 0. -1.
          6    1    1    2  501    0 -0.17259928854E+02 -0.13599260613E+03  0.85999708734E+03  0.88767724106E+03  0.17200000000E+03 0. -1.
         -6    1    1    2    0  502  0.17259928854E+02  0.13599260613E+03  0.51701008054E+03  0.56184990651E+03  0.17200000000E+03 0. -1.
</event>
<event>
 4    1  0.5874615E+000  0.1850468E+03  0.7818608E-02  0.1163006E+00
         21   -1    0    0  501  502  0.00000000000E+00  0.00000000000E+00  0.99249342006E+02  0.99249342006E+02  0.00000000000E+00 0.  1.
         21   -1    0    0  502  503 -0.00000000000E+00 -0.00000000000E+00 -0.52111369245E+03  0.52111369245E+03  0.00000000000E+00 0.  1.
          6    1    1    2  501    0  0.45073383163E+02  0.51251435091E+02 -0.30617892735E+02  0.18756272237E+03  0.17200000000E+03 0.  1.
         -6    1    1    2    0  503 -0.45073383163E+02 -0.51251435091E+02 -0.39124645771E+03  0.43280031208E+03  0.17200000000E+03 0.  1.
</event>
<event>
 4    1  0.5874615E+000  0.2445835E+03  0.7818608E-02  0.1116777E+00
         21   -1    0    0  501  502  0.00000000000E+00  0.00000000000E+00  0.62798712893E+02  0.62798712893E+02  0.00000000000E+00 0. -1.
         21   -1    0    0  502  503 -0.00000000000E+00 -0.00000000000E+00 -0.10097550965E+04  0.10097550965E+04  0.00000000000E+00 0.  1.
          6    1    1    2  501    0  0.86720671097E+02 -0.15072030452E+03 -0.34587334848E+03  0.42361475208E+03  0.17200000000E+03 0. -1.
         -6    1    1    2    0  503 -0.86720671097E+02  0.15072030452E+03 -0.60108303512E+03  0.64893905731E+03  0.17200000000E+03 0.  1.
</event>
<event>
 4    1  0.5874615E+000  0.2225033E+03  0.7818608E-02  0.1132030E+00
         21   -1    0    0  503  502  0.00000000000E+00  0.00000000000E+00  0.61358136140E+02  0.61358136140E+02  0.00000000000E+00 0.  1.
         21   -1    0    0  501  503 -0.00000000000E+00 -0.00000000000E+00 -0.11317478611E+04  0.11317478611E+04  0.00000000000E+00 0. -1.
          6    1    1    2  501    0 -0.13851138962E+03  0.27172279229E+02 -0.85481750274E+03  0.88330102502E+03  0.17200000000E+03 0. -1.
         -6    1    1    2    0  502  0.13851138962E+03 -0.27172279229E+02 -0.21557222219E+03  0.30980497218E+03  0.17200000000E+03 0.  1.
</event>
<event>
 4    1  0.5874615E+000  0.2793713E+03  0.7818608E-02  0.1096033E+00
         21   -1    0    0  501  502  0.00000000000E+00  0.00000000000E+00  0.10816852264E+04  0.10816852264E+04  0.00000000000E+00 0. -1.
         21   -1    0    0  502  503 -0.00000000000E+00 -0.00000000000E+00 -0.58431222636E+03  0.58431222636E+03  0.00000000000E+00 0. -1.
          6    1    1    2  501    0  0.11983426172E+03 -0.18467286115E+03  0.10285592939E+04  0.10658248154E+04  0.17200000000E+03 0. -1.
         -6    1    1    2    0  503 -0.11983426172E+03  0.18467286115E+03 -0.53118629386E+03  0.60017263742E+03  0.17200000000E+03 0. -1.
</event>
<event>
 4    1  0.5874615E+000  0.2056532E+03  0.7818608E-02  0.1145055E+00
         21   -1    0    0  503  502  0.00000000000E+00  0.00000000000E+00  0.28926970378E+04  0.28926970378E+04  0.00000000000E+00 0. -1.
         21   -1    0    0  501  503 -0.00000000000E+00 -0.00000000000E+00 -0.22451290954E+02  0.22451290954E+02  0.00000000000E+00 0. -1.
          6    1    1    2  501    0  0.81748982395E+02  0.77629515766E+02  0.57431259900E+03  0.61002311367E+03  0.17200000000E+03 0. -1.
         -6    1    1    2    0  502 -0.81748982395E+02 -0.77629515766E+02  0.22959331479E+04  0.23051252151E+04  0.17200000000E+03 0. -1.
</event>
<event>
 4    1  0.5874615E+000  0.2648662E+03  0.7818608E-02  0.1104254E+00
         21   -1    0    0  503  502  0.00000000000E+00  0.00000000000E+00  0.37258256026E+03  0.37258256026E+03  0.00000000000E+00 0.  1.
         21   -1    0    0  501  503 -0.00000000000E+00 -0.00000000000E+00 -0.37119803253E+03  0.37119803253E+03  0.00000000000E+00 0.  1.
          6    1    1    2  501    0  0.30842265330E+02  0.19904492318E+03 -0.26035949860E+03  0.37140435550E+03  0.17200000000E+03 0.  1.
         -6    1    1    2    0  502 -0.30842265330E+02 -0.19904492318E+03  0.26174402633E+03  0.37237623728E+03  0.17200000000E+03 0.  1.
</event>
<event>
 4    1  0.5874615E+000  0.2320738E+03  0.7818608E-02  0.1125189E+00
         21   -1    0    0  501  502  0.00000000000E+00  0.00000000000E+00  0.51270928731E+02  0.51270928731E+02  0.00000000000E+00 0. -1.
         21   -1    0    0  502  503 -0.00000000000E+00 -0.00000000000E+00 -0.10519966625E+04  0.10519966625E+04  0.00000000000E+00 0. -1.
          6    1    1    2  501    0 -0.14023691059E+03  0.67881235506E+02 -0.47930573845E+03  0.53253379624E+03  0.17200000000E+03 0. -1.
         -6    1    1    2    0  503  0.14023691059E+03 -0.67881235506E+02 -0.52141999532E+03  0.57073379499E+03  0.17200000000E+03 0. -1.
</event>
<event>
 4    1  0.5874615E+000  0.1841745E+03  0.7818608E-02  0.1163823E+00
         21   -1    0    0  501  502  0.00000000000E+00  0.00000000000E+00  0.64892429779E+03  0.64892429779E+03  0.00000000000E+00 0.  1.
         21   -1    0    0  502  503 -0.00000000000E+00 -0.00000000000E+00 -0.53215522135E+02  0.53215522135E+02  0.00000000000E+00 0.  1.
          6    1    1    2  501    0 -0.48521772389E+02  0.44518182610E+02  0.25109476382E+03  0.31139815573E+03  0.17200000000E+03 0.  1.
         -6    1    1    2    0  503  0.48521772389E+02 -0.44518182610E+02  0.34461401184E+03  0.39074166419E+03  0.17200000000E+03 0.  1.
</event>
<event>
 4    1  0.5874615E+000  0.2128555E+03  0.7818608E-02  0.1139324E+00
         21   -1    0    0  501  502  0.00000000000E+00  0.00000000000E+00  0.32883289218E+03  0.32883289218E+03  0.00000000000E+00 0.  1.
         21   -1    0    0  502  503 -0.00000000000E+00 -0.00000000000E+00 -0.22549619182E+03  0.22549619182E+03  0.00000000000E+00 0. -1.
          6    1    1    2  501    0  0.11206170848E+00  0.12539325920E+03  0.22453104410E+03  0.30938919144E+03  0.17200000000E+03 0.  1.
         -6    1    1    2    0  503 -0.11206170848E+00 -0.12539325920E+03 -0.12119434375E+03  0.24493989256E+03  0.17200000000E+03 0. -1.
</event>
<event>
 4    1  0.5874615E+000  0.1913860E+03  0.7818608E-02  0.1157217E+00
         21   -1    0    0  501  502  0.00000000000E+00  0.00000000000E+00  0.76342548749E+02  0.76342548749E+02  0.00000000000E+00 0. -1.
         21   -1    0    0  502  503 -0.00000000000E+00 -0.00000000000E+00 -0.85922348098E+03  0.85922348098E+03  0.00000000000E+00 0. -1.
          6    1    1    2  501    0  0.71284359223E+02  0.44307145017E+02 -0.80585528877E+02  0.20765984309E+03  0.17200000000E+03 0. -1.
         -6    1    1    2    0  503 -0.71284359223E+02 -0.44307145017E+02 -0.70229540336E+03  0.72790618664E+03  0.17200000000E+03 0. -1.
</event>
<event>
 4    1  0.5874615E+000  0.2046904E+03  0.7818608E-02  0.1145841E+00
         21   -1    0    0  503  502  0.00000000000E+00  0.00000000000E+00  0.14558221842E+03  0.14558221842E+03  0.00000000000E+00 0.  1.
         21   -1    0    0  501  503 -0.00000000000E+00 -0.00000000000E+00 -0.28780282912E+03  0.28780282912E+03  0.00000000000E+00 0. -1.
          6    1    1    2  501    0  0.58216053592E+01  0.11081628315E+03 -0.72077444842E+02  0.21700990243E+03  0.17200000000E+03 0.  1.
         -6    1    1    2    0  502 -0.58216053592E+01 -0.11081628315E+03 -0.70143165859E+02  0.21637514510E+03  0.17200000000E+03 0. -1.
</event>
<event>
 4    1  0.5874615E+000  0.1972834E+03  0.7818608E-02  0.1152051E+00
         21   -1    0    0  503  502  0.00000000000E+00  0.00000000000E+00  0.32481420676E+03  0.32481420676E+03  0.00000000000E+00 0.  1.
         21   -1    0    0  501  503 -0.00000000000E+00 -0.00000000000E+00 -0.52836363198E+03  0.52836363198E+03  0.00000000000E+00 0.  1.
          6    1    1    2  501    0  0.83525311043E+02 -0.48582576817E+02 -0.47688577339E+03  0.51608214968E+03  0.17200000000E+03 0.  1.
         -6    1    1    2    0  502 -0.83525311043E+02  0.48582576817E+02  0.27333634817E+03  0.33709568906E+03  0.17200000000E+03 0.  1.
</event>
<event>
 4    1  0.5874615E+000  0.2072165E+03  0.7818608E-02  0.1143789E+00
         21   -1    0    0  503  502  0.00000000000E+00  0.00000000000E+00  0.48926416246E+02  0.48926416246E+02  0.00000000000E+00 0. -1.
         21   -1    0    0  501  503 -0.00000000000E+00 -0.00000000000E+00 -0.87762117851E+03  0.87762117851E+03  0.00000000000E+00 0.  1.
          6    1    1    2  501    0 -0.46578780929E+02 -0.10575960831E+03 -0.41339490313E+03  0.46242191072E+03  0.17200000000E+03 0. -1.
         -6    1    1    2    0  502  0.46578780929E+02  0.10575960831E+03 -0.41529985914E+03  0.46412568404E+03  0.17200000000E+03 0. -1.
</event>
<event>
 4    1  0.5874615E+000  0.2132072E+03  0.7818608E-02  0.1139051E+00
         21   -1    0    0  501  502  0.00000000000E+00  0.00000000000E+00  0.41808057911E+03  0.41808057911E+03  0.00000000000E+00 0.  1.
         21   -1    0    0  502  503 -0.00000000000E+00 -0.00000000000E+00 -0.17066755211E+03  0.17066755211E+03  0.00000000000E+00 0.  1.
          6    1    1    2  501    0 -0.53727658951E+02 -0.11395901846E+03  0.30104621229E+03  0.36889855131E+03  0.17200000000E+03 0.  1.
         -6    1    1    2    0  503  0.53727658951E+02  0.11395901846E+03 -0.53633185293E+02  0.21984957991E+03  0.17200000000E+03 0.  1.
</event>
<event>
 4    1  0.5874615E+000  0.1910033E+03  0.7818608E-02  0.1157560E+00
         21   -1    0    0  501  502  0.00000000000E+00  0.00000000000E+00  0.20478344387E+03  0.20478344387E+03  0.00000000000E+00 0.  1.
         21   -1    0    0  502  503 -0.00000000000E+00 -0.00000000000E+00 -0.48537195079E+03  0.48537195079E+03  0.00000000000E+00 0.  1.
          6    1    1    2  501    0  0.81015962396E+02  0.18293742451E+02  0.13424560816E+03  0.23346119696E+03  0.17200000000E+03 0.  1.
         -6    1    1    2    0  503 -0.81015962396E+02 -0.18293742451E+02 -0.41483411508E+03  0.45669419770E+03  0.17200000000E+03 0.  1.
</event>
<event>
 4    1  0.5874615E+000  0.1945167E+03  0.7818608E-02  0.1154449E+00
         21   -1    0    0  501  502  0.00000000000E+00  0.00000000000E+00  0.35251950116E+02  0.35251950116E+02  0.00000000000E+00 0.  1.
         21   -1    0    0  502  503 -0.00000000000E+00 -0.00000000000E+00 -0.11382898267E+04  0.11382898267E+04  0.00000000000E+00 0.  1.
          6    1    1    2  501    0  0.84383135202E+02  0.33648714101E+02 -0.41133895480E+03  0.45501262093E+03  0.17200000000E+03 0.  1.
         -6    1    1    2    0  503 -0.84383135202E+02 -0.33648714101E+02 -0.69169892179E+03  0.71852915590E+03  0.17200000000E+03 0.  1.
</event>
<event>
 4    1  0.5874615E+000  0.2175975E+03  0.7818608E-02  0.1135687E+00
         21   -1    0    0  501  502  0.00000000000E+00  0.00000000000E+00  0.41175315789E+02  0.41175315789E+02  0.00000000000E+00 0. -1.
         21   -1    0    0  502  503 -0.00000000000E+00 -0.00000000000E+00 -0.11547684864E+04  0.11547684864E+04  0.00000000000E+00 0.  1.
          6    1    1    2  501    0 -0.99551560555E+02 -0.88623625938E+02 -0.59551031512E+03  0.63401987011E+03  0.17200000000E+03 0. -1.
         -6    1    1    2    0  503  0.99551560555E+02  0.88623625938E+02 -0.51808285546E+03  0.56192393204E+03  0.17200000000E+03 0.  1.
</event>
<event>
 4    1  0.5874615E+000  0.2780212E+03  0.7818608E-02  0.1096775E+00
         21   -1    0    0  501  502  0.00000000000E+00  0.00000000000E+00  0.10351264420E+04  0.10351264420E+04  0.00000000000E+00 0. -1.
         21   -1    0    0  502  503 -0.00000000000E+00 -0.00000000000E+00 -0.76801755632E+02  0.76801755632E+02  0.00000000000E+00 0. -1.
          6    1    1    2  501    0 -0.21184734798E+03  0.53221351477E+02  0.38659828665E+03  0.47618698674E+03  0.17200000000E+03 0. -1.
         -6    1    1    2    0  503  0.21184734798E+03 -0.53221351477E+02  0.57172639975E+03  0.63574121093E+03  0.17200000000E+03 0. -1.
</event>
<event>
 4    1  0.5874615E+000  0.1994042E+03  0.7818608E-02  0.1150243E+00
         21   -1    0    0  501  502  0.00000000000E+00  0.00000000000E+00  0.14246134913E+03  0.14246134913E+03  0.00000000000E+00 0. -1.
         21   -1    0    0  502  503 -0.00000000000E+00 -0.00000000000E+00 -0.34251858059E+03  0.34251858059E+03  0.00000000000E+00 0. -1.
          6    1    1    2  501    0  0.65774594839E+02  0.76496611699E+02 -0.20436465100E+03  0.28552922706E+03  0.17200000000E+03 0. -1.
         -6    1    1    2    0  503 -0.65774594839E+02 -0.76496611699E+02  0.43074195331E+01  0.19945070266E+03  0.17200000000E+03 0. -1.
</event>
<event>
 4    1  0.5874615E+000  0.1757109E+03  0.7818608E-02  0.1172020E+00
         21   -1    0    0  501  502  0.00000000000E+00  0.00000000000E+00  0.57126072293E+03  0.57126072293E+03  0.00000000000E+00 0.  1.
         21   -1    0    0  502  503 -0.00000000000E+00 -0.00000000000E+00 -0.60647680781E+02  0.60647680781E+02  0.00000000000E+00 0.  1.
          6    1    1    2  501    0  0.94930079671E+00 -0.35908360032E+02  0.35954952528E+03  0.40018767175E+03  0.17200000000E+03 0.  1.
         -6    1    1    2    0  503 -0.94930079671E+00  0.35908360032E+02  0.15106351687E+03  0.23172073196E+03  0.17200000000E+03 0.  1.
</event>
<event>
 4    1  0.5874615E+000  0.2080413E+03  0.7818608E-02  0.1143126E+00
         21   -1    0    0  501  502  0.00000000000E+00  0.00000000000E+00  0.10113231711E+04  0.10113231711E+04  0.00000000000E+00 0. -1.
         21   -1    0    0  502  503 -0.00000000000E+00 -0.00000000000E+00 -0.42988150809E+02  0.42988150809E+02  0.00000000000E+00 0. -1.
          6    1    1    2  501    0  0.27560923015E+02 -0.11374356528E+03  0.51935557595E+03  0.55947423300E+03  0.17200000000E+03 0. -1.
         -6    1    1    2    0  503 -0.27560923015E+02  0.11374356528E+03  0.44897944436E+03  0.49483708893E+03  0.17200000000E+03 0. -1.
</event>
<event>
 4    1  0.5874615E+000  0.2105249E+03  0.7818608E-02  0.1141151E+00
         21   -1    0    0  501  502  0.00000000000E+00  0.00000000000E+00  0.10957856942E+03  0.10957856942E+03  0.00000000000E+00 0.  1.
         21   -1    0    0  502  503 -0.00000000000E+00 -0.00000000000E+00 -0.40664295381E+03  0.40664295381E+03  0.00000000000E+00 0.  1.
          6    1    1    2  501    0 -0.11019635537E+03 -0.50926584520E+02 -0.12964482848E+03  0.24724185588E+03  0.17200000000E+03 0.  1.
         -6    1    1    2    0  503  0.11019635537E+03  0.50926584520E+02 -0.16741955592E+03  0.26897966736E+03  0.17200000000E+03 0.  1.
</event>
<event>
 4    1  0.5874615E+000  0.2197652E+03  0.7818608E-02  0.1134058E+00
         21   -1    0    0  503  502  0.00000000000E+00  0.00000000000E+00  0.35054330534E+03  0.35054330534E+03  0.00000000000E+00 0.  1.
         21   -1    0    0  501  503 -0.00000000000E+00 -0.00000000000E+00 -0.34417776545E+03  0.34417776545E+03  0.00000000000E+00 0.  1.
          6    1    1    2  501    0 -0.11987028109E+03 -0.65907941448E+02 -0.26581266755E+03  0.34489580349E+03  0.17200000000E+03 0.  1.
         -6    1    1    2    0  502  0.11987028109E+03  0.65907941448E+02  0.27217820744E+03  0.34982526730E+03  0.17200000000E+03 0.  1.
</event>
<event>
 4    1  0.5874615E+000  0.1760890E+03  0.7818608E-02  0.1171643E+00
         21   -1    0    0  501  502  0.00000000000E+00  0.00000000000E+00  0.39540014086E+03  0.39540014086E+03  0.00000000000E+00 0.  1.
         21   -1    0    0  502  503 -0.00000000000E+00 -0.00000000000E+00 -0.38031413915E+03  0.38031413915E+03  0.00000000000E+00 0.  1.
          6    1    1    2  501    0 -0.87821634401E+01 -0.36690561513E+02  0.35310646148E+03  0.39457761827E+03  0.17200000000E+03 0.  1.
         -6    1    1    2    0  503  0.87821634401E+01  0.36690561513E+02 -0.33802045977E+03  0.38113666174E+03  0.17200000000E+03 0.  1.
</event>
<event>
 4    1  0.5874615E+000  0.1940823E+03  0.7818608E-02  0.1154830E+00
         21   -1    0    0  501  502  0.00000000000E+00  0.00000000000E+00  0.56136845118E+02  0.56136845118E+02  0.00000000000E+00 0.  1.
         21   -1    0    0  502  503 -0.00000000000E+00 -0.00000000000E+00 -0.89736122261E+03  0.89736122261E+03  0.00000000000E+00 0.  1.
          6    1    1    2  501    0  0.89882892359E+02  0.22354684884E+01 -0.18116743157E+03  0.26549871925E+03  0.17200000000E+03 0.  1.
         -6    1    1    2    0  503 -0.89882892359E+02 -0.22354684884E+01 -0.66005694592E+03  0.68799934848E+03  0.17200000000E+03 0.  1.
</event>
<event>
 4    1  0.5874615E+000  0.1989028E+03  0.7818608E-02  0.1150668E+00
         21   -1    0    0  501  502  0.00000000000E+00  0.00000000000E+00  0.19084709538E+03  0.19084709538E+03  0.00000000000E+00 0. -1.
         21   -1    0    0  502  503 -0.00000000000E+00 -0.00000000000E+00 -0.64224892502E+03  0.64224892502E+03  0.00000000000E+00 0. -1.
          6    1    1    2  501    0  0.72365850890E+02  0.68858511742E+02  0.11709312769E+03  0.23080968690E+03  0.17200000000E+03 0. -1.
         -6    1    1    2    0  503 -0.72365850890E+02 -0.68858511742E+02 -0.56849495733E+03  0.60228633350E+03  0.17200000000E+03 0. -1.
</event>
<event>
 4    1  0.5874615E+000  0.2749560E+03  0.7818608E-02  0.1098476E+00
         21   -1    0    0  501  502  0.00000000000E+00  0.00000000000E+00  0.91577810504E+03  0.91577810504E+03  0.00000000000E+00 0. -1.
         21   -1    0    0  502  503 -0.00000000000E+00 -0.00000000000E+00 -0.10310418021E+03  0.10310418021E+03  0.00000000000E+00 0.  1.
          6    1    1    2  501    0  0.16974610968E+03  0.13116042482E+03  0.63377740877E+03  0.69085063701E+03  0.17200000000E+03 0.  1.
         -6    1    1    2    0  503 -0.16974610968E+03 -0.13116042482E+03  0.17889651606E+03  0.32803164825E+03  0.17200000000E+03 0.  1.
</event>
<event>
 4    1  0.5874615E+000  0.1752261E+03  0.7818608E-02  0.1172505E+00
         21   -1    0    0  501  502  0.00000000000E+00  0.00000000000E+00  0.14474250336E+03  0.14474250336E+03  0.00000000000E+00 0. -1.
         21   -1    0    0  502  503 -0.00000000000E+00 -0.00000000000E+00 -0.31067598138E+03  0.31067598138E+03  0.00000000000E+00 0. -1.
          6    1    1    2  501    0 -0.28150304567E+02 -0.18103957979E+02 -0.21121361667E+03  0.27443648592E+03  0.17200000000E+03 0. -1.
         -6    1    1    2    0  503  0.28150304567E+02  0.18103957979E+02  0.45280138646E+02  0.18098199882E+03  0.17200000000E+03 0. -1.
</event>
<event>
 4    1  0.5874615E+000  0.2483140E+03  0.7818608E-02  0.1114375E+00
         21   -1    0    0  501  502  0.00000000000E+00  0.00000000000E+00  0.26840133231E+02  0.26840133231E+02  0.00000000000E+00 0. -1.
         21   -1    0    0  502  503 -0.00000000000E+00 -0.00000000000E+00 -0.23200410564E+04  0.23200410564E+04  0.00000000000E+00 0. -1.
          6    1    1    2  501    0  0.15088056798E+03 -0.96492873305E+02 -0.10304221981E+04  0.10599196793E+04  0.17200000000E+03 0. -1.
         -6    1    1    2    0  503 -0.15088056798E+03  0.96492873305E+02 -0.12627787251E+04  0.12869615103E+04  0.17200000000E+03 0. -1.
</event>
<event>
 4    1  0.5874615E+000  0.2039065E+03  0.7818608E-02  0.1146484E+00
         21   -1    0    0  503  502  0.00000000000E+00  0.00000000000E+00  0.52036517022E+03  0.52036517022E+03  0.00000000000E+00 0. -1.
         21   -1    0    0  501  503 -0.00000000000E+00 -0.00000000000E+00 -0.11268135640E+03  0.11268135640E+03  0.00000000000E+00 0. -1.
          6    1    1    2  501    0  0.10447255120E+03 -0.32853668531E+02  0.33122007849E+02  0.20657914922E+03  0.17200000000E+03 0. -1.
         -6    1    1    2    0  502 -0.10447255120E+03  0.32853668531E+02  0.37456180597E+03  0.42646737739E+03  0.17200000000E+03 0. -1.
</event>
<event>
 4    1  0.5874615E+000  0.1725134E+03  0.7818608E-02  0.1175252E+00
         21   -1    0    0  501  502  0.00000000000E+00  0.00000000000E+00  0.13271929273E+03  0.13271929273E+03  0.00000000000E+00 0. -1.
         21   -1    0    0  502  503 -0.00000000000E+00 -0.00000000000E+00 -0.28296390240E+03  0.28296390240E+03  0.00000000000E+00 0. -1.
          6    1    1    2  501    0  0.93600427060E+01  0.94474701319E+01  0.19561880717E+02  0.17361892831E+03  0.17200000000E+03 0. -1.
         -6    1    1    2    0  503 -0.93600427060E+01 -0.94474701319E+01 -0.16980649039E+03  0.24206426682E+03  0.17200000000E+03 0. -1.
</event>
<event>
 4    1  0.5874615E+000  0.2301910E+03  0.7818608E-02  0.1126505E+00
         21   -1    0    0  503  502  0.00000000000E+00  0.00000000000E+00  0.18636429490E+03  0.18636429490E+03  0.00000000000E+00 0.  1.
         21   -1    0    0  501  503 -0.00000000000E+00 -0.00000000000E+00 -0.28545443443E+03  0.28545443443E+03  0.00000000000E+00 0.  1.
          6    1    1    2  501    0  0.15139276160E+03  0.22002754358E+02 -0.64389048391E+02  0.23902685836E+03  0.17200000000E+03 0.  1.
         -6    1    1    2    0  502 -0.15139276160E+03 -0.22002754358E+02 -0.34701091136E+02  0.23279187097E+03  0.17200000000E+03 0.  1.
</event>
<event>
 4    1  0.5874615E+000  0.2181549E+03  0.7818608E-02  0.1135266E+00
         21   -1    0    0  503  502  0.00000000000E+00  0.00000000000E+00  0.20686994463E+04  0.20686994463E+04  0.00000000000E+00 0.  1.
         21   -1    0    0  501  503 -0.00000000000E+00 -0.00000000000E+00 -0.23068467222E+02  0.23068467222E+02  0.00000000000E+00 0.  1.
          6    1    1    2  501    0  0.11320311811E+03 -0.72059846921E+02  0.10774366181E+04  0.10993003381E+04  0.17200000000E+03 0.  1.
         -6    1    1    2    0  502 -0.11320311811E+03  0.72059846921E+02  0.96819436104E+03  0.99246757541E+03  0.17200000000E+03 0.  1.
</event>
<event>
 4    1  0.5874615E+000  0.2561746E+03  0.7818608E-02  0.1109464E+00
         21   -1    0    0  501  502  0.00000000000E+00  0.00000000000E+00  0.72166888298E+02  0.72166888298E+02  0.00000000000E+00 0.  1.
         21   -1    0    0  502  503 -0.00000000000E+00 -0.00000000000E+00 -0.10272474369E+04  0.10272474369E+04  0.00000000000E+00 0. -1.
          6    1    1    2  501    0  0.18636428631E+03 -0.36190655095E+02 -0.66376379686E+03  0.71148280987E+03  0.17200000000E+03 0. -1.
         -6    1    1    2    0  503 -0.18636428631E+03  0.36190655095E+02 -0.29131675170E+03  0.38793151528E+03  0.17200000000E+03 0.  1.
</event>
<event>
 4    1  0.5874615E+000  0.2707884E+03  0.7818608E-02  0.1100829E+00
         21   -1    0    0  503  502  0.00000000000E+00  0.00000000000E+00  0.60923021159E+03  0.60923021159E+03  0.00000000000E+00 0.  1.
         21   -1    0    0  501  503 -0.00000000000E+00 -0.00000000000E+00 -0.17159921663E+03  0.17159921663E+03  0.00000000000E+00 0.  1.
          6    1    1    2  501    0 -0.17846000524E+03  0.10906137042E+03  0.54747131562E+01  0.27084373441E+03  0.17200000000E+03 0.  1.
         -6    1    1    2    0  502  0.17846000524E+03 -0.10906137042E+03  0.43215628180E+03  0.50998569380E+03  0.17200000000E+03 0.  1.
</event>
<event>
 4    1  0.5874615E+000  0.2172699E+03  0.7818608E-02  0.1135935E+00
         21   -1    0    0  503  502  0.00000000000E+00  0.00000000000E+00  0.10149647605E+03  0.10149647605E+03  0.00000000000E+00 0. -1.
         21   -1    0    0  501  503 -0.00000000000E+00 -0.00000000000E+00 -0.64849057568E+03  0.64849057568E+03  0.00000000000E+00 0.  1.
          6    1    1    2  501    0 -0.11862790361E+03 -0.59578719829E+02 -0.47291222215E+03  0.52043460034E+03  0.17200000000E+03 0.  1.
         -6    1    1    2    0  502  0.11862790361E+03  0.59578719829E+02 -0.74081877479E+02  0.22955245140E+03  0.17200000000E+03 0.  1.
</event>
<event>
 4    1  0.5874615E+000  0.1737769E+03  0.7818608E-02  0.1173965E+00
         21   -1    0    0  501  502  0.00000000000E+00  0.00000000000E+00  0.17707076573E+03  0.17707076573E+03  0.00000000000E+00 0. -1.
         21   -1    0    0  502  503 -0.00000000000E+00 -0.00000000000E+00 -0.14760064435E+04  0.14760064435E+04  0.00000000000E+00 0. -1.
          6    1    1    2  501    0  0.24446712328E+02 -0.40934906841E+01  0.12785453429E+03  0.21574332052E+03  0.17200000000E+03 0. -1.
         -6    1    1    2    0  503 -0.24446712328E+02  0.40934906841E+01 -0.14267902121E+04  0.14373338887E+04  0.17200000000E+03 0. -1.
</event>
<event>
 4    1  0.5874615E+000  0.1974732E+03  0.7818608E-02  0.1151889E+00
         21   -1    0    0  503  502  0.00000000000E+00  0.00000000000E+00  0.31644823489E+03  0.31644823489E+03  0.00000000000E+00 0. -1.
         21   -1    0    0  501  503 -0.00000000000E+00 -0.00000000000E+00 -0.54383851418E+03  0.54383851418E+03  0.00000000000E+00 0.  1.
          6    1    1    2  501    0 -0.50463230679E+02  0.82855992136E+02 -0.49197891633E+03  0.53013102833E+03  0.17200000000E+03 0.  1.
         -6    1    1    2    0  502  0.50463230679E+02 -0.82855992136E+02  0.26458863704E+03  0.33015572074E+03  0.17200000000E+03 0. -1.
</event>
<event>
 4    1  0.5874615E+000  0.1893100E+03  0.7818608E-02  0.1159085E+00
         21   -1    0    0  501  502  0.00000000000E+00  0.00000000000E+00  0.47757904951E+03  0.47757904951E+03  0.00000000000E+00 0.  1.
         21   -1    0    0  502  503 -0.00000000000E+00 -0.00000000000E+00 -0.75044490469E+02  0.75044490469E+02  0.00000000000E+00 0.  1.
          6    1    1    2  501    0  0.13332776844E+02 -0.77951970378E+02  0.19953797798E+03  0.27505213557E+03  0.17200000000E+03 0.  1.
         -6    1    1    2    0  503 -0.13332776844E+02  0.77951970378E+02  0.20299658106E+03  0.27757140441E+03  0.17200000000E+03 0.  1.
</event>
<event>
 4    1  0.5874615E+000  0.1817700E+03  0.7818608E-02  0.1166101E+00
         21   -1    0    0  503  502  0.00000000000E+00  0.00000000000E+00  0.36499773163E+03  0.36499773163E+03  0.00000000000E+00 0.  1.
         21   -1    0    0  501  503 -0.00000000000E+00 -0.00000000000E+00 -0.91197194743E+02  0.91197194743E+02  0.00000000000E+00 0.  1.
          6    1    1    2  501    0  0.18006184610E+02 -0.55965200848E+02  0.11727377474E+03  0.21631797113E+03  0.17200000000E+03 0.  1.
         -6    1    1    2    0  502 -0.18006184610E+02  0.55965200848E+02  0.15652676215E+03  0.23987695525E+03  0.17200000000E+03 0.  1.
</event>
<event>
 4    1  0.5874615E+000  0.2306083E+03  0.7818608E-02  0.1126212E+00
         21   -1    0    0  501  502  0.00000000000E+00  0.00000000000E+00  0.14483703533E+03  0.14483703533E+03  0.00000000000E+00 0.  1.
         21   -1    0    0  502  503 -0.00000000000E+00 -0.00000000000E+00 -0.36719486203E+03  0.36719486203E+03  0.00000000000E+00 0.  1.
          6    1    1    2  501    0 -0.14697503748E+03  0.44660046021E+02 -0.11317527336E+03  0.25688289911E+03  0.17200000000E+03 0.  1.
         -6    1    1    2    0  503  0.14697503748E+03 -0.44660046021E+02 -0.10918255334E+03  0.25514899825E+03  0.17200000000E+03 0.  1.
</event>
<event>
 4    1  0.5874615E+000  0.2020840E+03  0.7818608E-02  0.1147993E+00
         21   -1    0    0  501  502  0.00000000000E+00  0.00000000000E+00  0.32472244199E+02  0.32472244199E+02  0.00000000000E+00 0. -1.
         21   -1    0    0  502  503 -0.00000000000E+00 -0.00000000000E+00 -0.13231667958E+04  0.13231667958E+04  0.00000000000E+00 0. -1.
          6    1    1    2  501    0  0.90633155158E+02  0.55132443693E+02 -0.49449184891E+03  0.53419111168E+03  0.17200000000E+03 0. -1.
         -6    1    1    2    0  503 -0.90633155158E+02 -0.55132443693E+02 -0.79620270266E+03  0.82144792829E+03  0.17200000000E+03 0. -1.
</event>
<event>
 4    1  0.5874615E+000  0.2258733E+03  0.7818608E-02  0.1129578E+00
         21   -1    0    0  503  502  0.00000000000E+00  0.00000000000E+00  0.25546476172E+03  0.25546476172E+03  0.00000000000E+00 0. -1.
         21   -1    0    0  501  503 -0.00000000000E+00 -0.00000000000E+00 -0.77022533796E+03  0.77022533796E+03  0.00000000000E+00 0.  1.
          6    1    1    2  501    0 -0.12825968731E+03  0.70598890180E+02 -0.69875871621E+03  0.73435855967E+03  0.17200000000E+03 0.  1.
         -6    1    1    2    0  502  0.12825968731E+03 -0.70598890180E+02  0.18399813998E+03  0.29133154000E+03  0.17200000000E+03 0. -1.
</event>
<event>
 4    1  0.5874615E+000  0.2216929E+03  0.7818608E-02  0.1132627E+00
         21   -1    0    0  503  502  0.00000000000E+00  0.00000000000E+00  0.44745687866E+03  0.44745687866E+03  0.00000000000E+00 0. -1.
         21   -1    0    0  501  503 -0.00000000000E+00 -0.00000000000E+00 -0.17093601641E+03  0.17093601641E+03  0.00000000000E+00 0. -1.
          6    1    1    2  501    0 -0.70063178835E+02  0.12105748269E+03  0.32311547508E+03  0.39185631726E+03  0.17200000000E+03 0. -1.
         -6    1    1    2    0  502  0.70063178835E+02 -0.12105748269E+03 -0.46594612832E+02  0.22653657781E+03  0.17200000000E+03 0. -1.
</event>
<event>
 4    1  0.5874615E+000  0.2898868E+03  0.7818608E-02  0.1090408E+00
         21   -1    0    0  503  502  0.00000000000E+00  0.00000000000E+00  0.59510609447E+03  0.59510609447E+03  0.00000000000E+00 0. -1.
         21   -1    0    0  501  503 -0.00000000000E+00 -0.00000000000E+00 -0.27610795739E+03  0.27610795739E+03  0.00000000000E+00 0.  1.
          6    1    1    2  501    0  0.82860407591E+01  0.23319878018E+03 -0.14498160362E+03  0.32412034021E+03  0.17200000000E+03 0.  1.
         -6    1    1    2    0  502 -0.82860407591E+01 -0.23319878018E+03  0.46397974070E+03  0.54709371165E+03  0.17200000000E+03 0. -1.
</event>
<event>
 4    1  0.5874615E+000  0.1952471E+03  0.7818608E-02  0.1153812E+00
         21   -1    0    0  503  502  0.00000000000E+00  0.00000000000E+00  0.18584881106E+04  0.18584881106E+04  0.00000000000E+00 0.  1.
         21   -1    0    0  501  503 -0.00000000000E+00 -0.00000000000E+00 -0.21412749468E+02  0.21412749468E+02  0.00000000000E+00 0.  1.
          6    1    1    2  501    0 -0.43617106497E+02  0.81455295564E+02  0.72576006827E+03  0.75156443093E+03  0.17200000000E+03 0. -1.
         -6    1    1    2    0  502  0.43617106497E+02 -0.81455295564E+02  0.11113152929E+04  0.11283364291E+04  0.17200000000E+03 0. -1.
</event>
<event>
 4    1  0.5874615E+000  0.2920116E+03  0.7818608E-02  0.1089304E+00
         21   -1    0    0  501  502  0.00000000000E+00  0.00000000000E+00  0.87059775372E+03  0.87059775372E+03  0.00000000000E+00 0. -1.
         21   -1    0    0  502  503 -0.00000000000E+00 -0.00000000000E+00 -0.14114445370E+03  0.14114445370E+03  0.00000000000E+00 0. -1.
          6    1    1    2  501    0 -0.21965492205E+03  0.86246524198E+02  0.84862803846E+02  0.30409282003E+03  0.17200000000E+03 0. -1.
         -6    1    1    2    0  503  0.21965492205E+03 -0.86246524198E+02  0.64459049617E+03  0.70764938739E+03  0.17200000000E+03 0. -1.
</event>
<event>
 4    1  0.5874615E+000  0.1745493E+03  0.7818608E-02  0.1173185E+00
         21   -1    0    0  501  502  0.00000000000E+00  0.00000000000E+00  0.31990316534E+02  0.31990316534E+02  0.00000000000E+00 0. -1.
         21   -1    0    0  502  503 -0.00000000000E+00 -0.00000000000E+00 -0.95490946200E+03  0.95490946200E+03  0.00000000000E+00 0. -1.
          6    1    1    2  501    0 -0.25523347557E+02 -0.15232235764E+02 -0.48677373895E+03  0.51712294013E+03  0.17200000000E+03 0. -1.
         -6    1    1    2    0  503  0.25523347557E+02  0.15232235764E+02 -0.43614540651E+03  0.46977683840E+03  0.17200000000E+03 0. -1.
</event>
<event>
 4    1  0.5874615E+000  0.2188378E+03  0.7818608E-02  0.1134752E+00
         21   -1    0    0  501  502  0.00000000000E+00  0.00000000000E+00  0.56653269396E+03  0.56653269396E+03  0.00000000000E+00 0.  1.
         21   -1    0    0  502  503 -0.00000000000E+00 -0.00000000000E+00 -0.84543833408E+02  0.84543833408E+02  0.00000000000E+00 0. -1.
          6    1    1    2  501    0 -0.12152348991E+03 -0.59481299578E+02  0.24489095153E+03  0.32842283986E+03  0.17200000000E+03 0.  1.
         -6    1    1    2    0  503  0.12152348991E+03  0.59481299578E+02  0.23709790902E+03  0.32265368751E+03  0.17200000000E+03 0. -1.
</event>
<event>
 4    1  0.5874615E+000  0.1972304E+03  0.7818608E-02  0.1152097E+00
         21   -1    0    0  503  502  0.00000000000E+00  0.00000000000E+00  0.29231606374E+02  0.29231606374E+02  0.00000000000E+00 0. -1.
         21   -1    0    0  501  503 -0.00000000000E+00 -0.00000000000E+00 -0.20395494378E+04  0.20395494378E+04  0.00000000000E+00 0.  1.
          6    1    1    2  501    0 -0.96000526213E+02 -0.99870259385E+01 -0.16149489715E+04  0.16269480699E+04  0.17200000000E+03 0.  1.
         -6    1    1    2    0  502  0.96000526213E+02  0.99870259385E+01 -0.39536885988E+03  0.44183297419E+03  0.17200000000E+03 0. -1.
</event>
<event>
 4    1  0.5874615E+000  0.1740423E+03  0.7818608E-02  0.1173697E+00
         21   -1    0    0  503  502  0.00000000000E+00  0.00000000000E+00  0.30670752216E+02  0.30670752216E+02  0.00000000000E+00 0.  1.
         21   -1    0    0  501  503 -0.00000000000E+00 -0.00000000000E+00 -0.11948218737E+04  0.11948218737E+04  0.00000000000E+00 0.  1.
          6    1    1    2  501    0 -0.26220099254E+02  0.43842560546E+01 -0.83725010136E+03  0.85514820209E+03  0.17200000000E+03 0.  1.
         -6    1    1    2    0  502  0.26220099254E+02 -0.43842560546E+01 -0.32690102016E+03  0.37034442387E+03  0.17200000000E+03 0.  1.
</event>
<event>
 4    1  0.5874615E+000  0.1947814E+03  0.7818608E-02  0.1154218E+00
         21   -1    0    0  503  502  0.00000000000E+00  0.00000000000E+00  0.15772995684E+04  0.15772995684E+04  0.00000000000E+00 0.  1.
         21   -1    0    0  501  503 -0.00000000000E+00 -0.00000000000E+00 -0.41205256728E+02  0.41205256728E+02  0.00000000000E+00 0.  1.
          6    1    1    2  501    0 -0.63444060759E+02 -0.65807517769E+02  0.24593913537E+03  0.31372892207E+03  0.17200000000E+03 0.  1.
         -6    1    1    2    0  502  0.63444060759E+02  0.65807517769E+02  0.12901551763E+04  0.13047759030E+04  0.17200000000E+03 0.  1.
</event>
<event>
 4    1  0.5874615E+000  0.1760071E+03  0.7818608E-02  0.1171724E+00
         21   -1    0    0  501  502  0.00000000000E+00  0.00000000000E+00  0.10239200122E+03  0.10239200122E+03  0.00000000000E+00 0.  1.
         21   -1    0    0  502  503 -0.00000000000E+00 -0.00000000000E+00 -0.58044868313E+03  0.58044868313E+03  0.00000000000E+00 0.  1.
          6    1    1    2  501    0 -0.33214241109E+02  0.17067723494E+02 -0.27889566890E+01  0.17602917735E+03  0.17200000000E+03 0.  1.
         -6    1    1    2    0  503  0.33214241109E+02 -0.17067723494E+02 -0.47526772522E+03  0.50681150700E+03  0.17200000000E+03 0.  1.
</event>
<event>
 4    1  0.5874615E+000  0.2047043E+03  0.7818608E-02  0.1145830E+00
         21   -1    0    0  501  502  0.00000000000E+00  0.00000000000E+00  0.70900698281E+03  0.70900698281E+03  0.00000000000E+00 0.  1.
         21   -1    0    0  502  503 -0.00000000000E+00 -0.00000000000E+00 -0.10646857672E+03  0.10646857672E+03  0.00000000000E+00 0.  1.
          6    1    1    2  501    0  0.17883066491E+01  0.11098035593E+03  0.57322951996E+03  0.60868376025E+03  0.17200000000E+03 0.  1.
         -6    1    1    2    0  503 -0.17883066491E+01 -0.11098035593E+03  0.29308886130E+02  0.20679179928E+03  0.17200000000E+03 0.  1.
</event>
<event>
 4    1  0.5874615E+000  0.3969026E+03  0.7818608E-02  0.1044857E+00
         21   -1    0    0  503  502  0.00000000000E+00  0.00000000000E+00  0.92293970473E+03  0.92293970473E+03  0.00000000000E+00 0.  1.
         21   -1    0    0  501  503 -0.00000000000E+00 -0.00000000000E+00 -0.35197274972E+03  0.35197274972E+03  0.00000000000E+00 0. -1.
          6    1    1    2  501    0 -0.29930248390E+02 -0.35644335801E+03 -0.17200528964E+03  0.43257081143E+03  0.17200000000E+03 0.  1.
         -6    1    1    2    0  502  0.29930248390E+02  0.35644335801E+03  0.74297224465E+03  0.84234164302E+03  0.17200000000E+03 0.  1.
</event>
<event>
 4    1  0.5874615E+000  0.2072421E+03  0.7818608E-02  0.1143769E+00
         21   -1    0    0  501  502  0.00000000000E+00  0.00000000000E+00  0.28888228789E+03  0.28888228789E+03  0.00000000000E+00 0. -1.
         21   -1    0    0  502  503 -0.00000000000E+00 -0.00000000000E+00 -0.35234595599E+03  0.35234595599E+03  0.00000000000E+00 0.  1.
          6    1    1    2  501    0  0.34383984146E+02 -0.11037677966E+03  0.21202881341E+03  0.29648863312E+03  0.17200000000E+03 0. -1.
         -6    1    1    2    0  503 -0.34383984146E+02  0.11037677966E+03 -0.27549248151E+03  0.34473961075E+03  0.17200000000E+03 0.  1.
</event>
<event>
 4    1  0.5874615E+000  0.1725526E+03  0.7818608E-02  0.1175212E+00
         21   -1    0    0  503  502  0.00000000000E+00  0.00000000000E+00  0.19571861974E+03  0.19571861974E+03  0.00000000000E+00 0.  1.
         21   -1    0    0  501  503 -0.00000000000E+00 -0.00000000000E+00 -0.20795945023E+03  0.20795945023E+03  0.00000000000E+00 0.  1.
          6    1    1    2  501    0  0.13347413292E+02  0.34981637594E+01  0.98460666798E+02  0.19866779683E+03  0.17200000000E+03 0.  1.
         -6    1    1    2    0  502 -0.13347413292E+02 -0.34981637594E+01 -0.11070149729E+03  0.20501027314E+03  0.17200000000E+03 0.  1.
</event>
<event>
 4    1  0.5874615E+000  0.1928079E+03  0.7818608E-02  0.1155953E+00
         21   -1    0    0  501  502  0.00000000000E+00  0.00000000000E+00  0.83978990604E+02  0.83978990604E+02  0.00000000000E+00 0. -1.
         21   -1    0    0  502  503 -0.00000000000E+00 -0.00000000000E+00 -0.57435059422E+03  0.57435059422E+03  0.00000000000E+00 0. -1.
          6    1    1    2  501    0 -0.85747212537E+02  0.15436860533E+02 -0.87574387802E+02  0.21176438445E+03  0.17200000000E+03 0.  1.
         -6    1    1    2    0  503  0.85747212537E+02 -0.15436860533E+02 -0.40279721581E+03  0.44656520038E+03  0.17200000000E+03 0.  1.
</event>
<event>
 4    1  0.5874615E+000  0.2752272E+03  0.7818608E-02  0.1098325E+00
         21   -1    0    0  501  502  0.00000000000E+00  0.00000000000E+00  0.11439895241E+04  0.11439895241E+04  0.00000000000E+00 0. -1.
         21   -1    0    0  502  503 -0.00000000000E+00 -0.00000000000E+00 -0.66313699307E+02  0.66313699307E+02  0.00000000000E+00 0. -1.
          6    1    1    2  501    0  0.16950078658E+03 -0.13204356924E+03  0.51556966201E+03  0.58443314179E+03  0.17200000000E+03 0. -1.
         -6    1    1    2    0  503 -0.16950078658E+03  0.13204356924E+03  0.56210616274E+03  0.62587008158E+03  0.17200000000E+03 0. -1.
</event>
<event>
 4    1  0.5874615E+000  0.1851440E+03  0.7818608E-02  0.1162916E+00
         21   -1    0    0  501  502  0.00000000000E+00  0.00000000000E+00  0.22166411970E+04  0.22166411970E+04  0.00000000000E+00 0. -1.
         21   -1    0    0  502  503 -0.00000000000E+00 -0.00000000000E+00 -0.27569400806E+02  0.27569400806E+02  0.00000000000E+00 0. -1.
          6    1    1    2  501    0 -0.50391327685E+02  0.46422066923E+02  0.18380826557E+04  0.18473835940E+04  0.17200000000E+03 0. -1.
         -6    1    1    2    0  503  0.50391327685E+02 -0.46422066923E+02  0.35098914049E+03  0.39682700380E+03  0.17200000000E+03 0. -1.
</event>
<event>
 4    1  0.5874615E+000  0.3613296E+03  0.7818608E-02  0.1058059E+00
         21   -1    0    0  501  502  0.00000000000E+00  0.00000000000E+00  0.14181037790E+03  0.14181037790E+03  0.00000000000E+00 0.  1.
         21   -1    0    0  502  503 -0.00000000000E+00 -0.00000000000E+00 -0.13130601790E+04  0.13130601790E+04  0.00000000000E+00 0. -1.
          6    1    1    2  501    0 -0.31728841099E+03  0.17411313704E+02 -0.18796037670E+03  0.40729374265E+03  0.17200000000E+03 0.  1.
         -6    1    1    2    0  503  0.31728841099E+03 -0.17411313704E+02 -0.98328942437E+03  0.10475768142E+04  0.17200000000E+03 0. -1.
</event>
<event>
 4    1  0.5874615E+000  0.1920062E+03  0.7818608E-02  0.1156664E+00
         21   -1    0    0  501  502  0.00000000000E+00  0.00000000000E+00  0.25508971485E+03  0.25508971485E+03  0.00000000000E+00 0. -1.
         21   -1    0    0  502  503 -0.00000000000E+00 -0.00000000000E+00 -0.36385825460E+03  0.36385825460E+03  0.00000000000E+00 0. -1.
          6    1    1    2  501    0  0.41192096671E+02  0.74736896367E+02  0.18589262627E+03  0.26724981012E+03  0.17200000000E+03 0. -1.
         -6    1    1    2    0  503 -0.41192096671E+02 -0.74736896367E+02 -0.29466116603E+03  0.35169815933E+03  0.17200000000E+03 0. -1.
</event>
<event>
 4    1  0.5874615E+000  0.2071609E+03  0.7818608E-02  0.1143834E+00
         21   -1    0    0  501  502  0.00000000000E+00  0.00000000000E+00  0.79573233272E+03  0.79573233272E+03  0.00000000000E+00 0. -1.
         21   -1    0    0  502  503 -0.00000000000E+00 -0.00000000000E+00 -0.61525310887E+02  0.61525310887E+02  0.00000000000E+00 0. -1.
          6    1    1    2  501    0  0.44043294930E+02  0.10673256310E+03  0.51768178020E+03  0.55759311097E+03  0.17200000000E+03 0. -1.
         -6    1    1    2    0  503 -0.44043294930E+02 -0.10673256310E+03  0.21652524163E+03  0.29966453263E+03  0.17200000000E+03 0. -1.
</event>
<event>
 4    1  0.5874615E+000  0.2184170E+03  0.7818608E-02  0.1135069E+00
         21   -1    0    0  501  502  0.00000000000E+00  0.00000000000E+00  0.19446415293E+03  0.19446415293E+03  0.00000000000E+00 0. -1.
         21   -1    0    0  502  503 -0.00000000000E+00 -0.00000000000E+00 -0.24536735018E+03  0.24536735018E+03  0.00000000000E+00 0. -1.
          6    1    1    2  501    0 -0.43746822946E+02  0.12731141807E+03 -0.22402542454E+02  0.21956287390E+03  0.17200000000E+03 0. -1.
         -6    1    1    2    0  503  0.43746822946E+02 -0.12731141807E+03 -0.28500654803E+02  0.22026862921E+03  0.17200000000E+03 0. -1.
</event>
<event>
 4    1  0.5874615E+000  0.2204261E+03  0.7818608E-02  0.1133566E+00
         21   -1    0    0  501  502  0.00000000000E+00  0.00000000000E+00  0.23423417474E+04  0.23423417474E+04  0.00000000000E+00 0.  1.
         21   -1    0    0  502  503 -0.00000000000E+00 -0.00000000000E+00 -0.27233083885E+02  0.27233083885E+02  0.00000000000E+00 0.  1.
          6    1    1    2  501    0  0.12331181729E+03 -0.61626790865E+02  0.17359305818E+04  0.17498693239E+04  0.17200000000E+03 0.  1.
         -6    1    1    2    0  503 -0.12331181729E+03  0.61626790865E+02  0.57917808171E+03  0.61970550746E+03  0.17200000000E+03 0.  1.
</event>
<event>
 4    1  0.5874615E+000  0.1852562E+03  0.7818608E-02  0.1162811E+00
         21   -1    0    0  503  502  0.00000000000E+00  0.00000000000E+00  0.15460151731E+03  0.15460151731E+03  0.00000000000E+00 0. -1.
         21   -1    0    0  501  503 -0.00000000000E+00 -0.00000000000E+00 -0.26212642779E+03  0.26212642779E+03  0.00000000000E+00 0.  1.
          6    1    1    2  501    0  0.25730720516E+02 -0.63826307680E+02 -0.13529685859E+03  0.22940162919E+03  0.17200000000E+03 0.  1.
         -6    1    1    2    0  502 -0.25730720516E+02  0.63826307680E+02  0.27771948109E+02  0.18732631591E+03  0.17200000000E+03 0. -1.
</event>
<event>
 4    1  0.5874615E+000  0.1806828E+03  0.7818608E-02  0.1167144E+00
         21   -1    0    0  501  502  0.00000000000E+00  0.00000000000E+00  0.10940653256E+03  0.10940653256E+03  0.00000000000E+00 0.  1.
         21   -1    0    0  502  503 -0.00000000000E+00 -0.00000000000E+00 -0.66872306136E+03  0.66872306136E+03  0.00000000000E+00 0. -1.
          6    1    1    2  501    0 -0.46494455071E+02  0.30008968242E+02  0.98710745649E+01  0.18095223304E+03  0.17200000000E+03 0.  1.
         -6    1    1    2    0  503  0.46494455071E+02 -0.30008968242E+02 -0.56918760336E+03  0.59717736088E+03  0.17200000000E+03 0. -1.
</event>
<event>
 4    1  0.5874615E+000  0.2858624E+03  0.7818608E-02  0.1092529E+00
         21   -1    0    0  501  502  0.00000000000E+00  0.00000000000E+00  0.27295575423E+03  0.27295575423E+03  0.00000000000E+00 0. -1.
         21   -1    0    0  502  503 -0.00000000000E+00 -0.00000000000E+00 -0.48108765437E+03  0.48108765437E+03  0.00000000000E+00 0. -1.
          6    1    1    2  501    0 -0.81791931519E+02 -0.21317461321E+03  0.12764232741E+03  0.31306532789E+03  0.17200000000E+03 0. -1.
         -6    1    1    2    0  503  0.81791931519E+02  0.21317461321E+03 -0.33577422755E+03  0.44097808071E+03  0.17200000000E+03 0. -1.
</event>
<event>
 4    1  0.5874615E+000  0.1948144E+03  0.7818608E-02  0.1154189E+00
         21   -1    0    0  501  502  0.00000000000E+00  0.00000000000E+00  0.16780137688E+03  0.16780137688E+03  0.00000000000E+00 0.  1.
         21   -1    0    0  502  503 -0.00000000000E+00 -0.00000000000E+00 -0.22718878058E+03  0.22718878058E+03  0.00000000000E+00 0.  1.
          6    1    1    2  501    0 -0.88154805911E+02 -0.24441124741E+02 -0.16507249360E+02  0.19551247445E+03  0.17200000000E+03 0. -1.
         -6    1    1    2    0  503  0.88154805911E+02  0.24441124741E+02 -0.42880154331E+02  0.19947768301E+03  0.17200000000E+03 0. -1.
</event>
<event>
 4    1  0.5874615E+000  0.2059992E+03  0.7818608E-02  0.1144774E+00
         21   -1    0    0  503  502  0.00000000000E+00  0.00000000000E+00  0.64452949099E+02  0.64452949099E+02  0.00000000000E+00 0. -1.
         21   -1    0    0  501  503 -0.00000000000E+00 -0.00000000000E+00 -0.10347164283E+04  0.10347164283E+04  0.00000000000E+00 0. -1.
          6    1    1    2  501    0  0.87559541898E+02 -0.72006939879E+02 -0.81656941544E+03  0.84215276702E+03  0.17200000000E+03 0. -1.
         -6    1    1    2    0  502 -0.87559541898E+02  0.72006939879E+02 -0.15369406373E+03  0.25701661034E+03  0.17200000000E+03 0. -1.
</event>
<event>
 4    1  0.5874615E+000  0.1777387E+03  0.7818608E-02  0.1170010E+00
         21   -1    0    0  503  502  0.00000000000E+00  0.00000000000E+00  0.25396309323E+03  0.25396309323E+03  0.00000000000E+00 0.  1.
         21   -1    0    0  501  503 -0.00000000000E+00 -0.00000000000E+00 -0.32147966949E+03  0.32147966949E+03  0.00000000000E+00 0.  1.
          6    1    1    2  501    0  0.44737557008E+02 -0.23629845253E+01 -0.25903944409E+03  0.31415357120E+03  0.17200000000E+03 0.  1.
         -6    1    1    2    0  502 -0.44737557008E+02  0.23629845253E+01  0.19152286783E+03  0.26128919152E+03  0.17200000000E+03 0.  1.
</event>
<event>
 4    1  0.5874615E+000  0.2550018E+03  0.7818608E-02  0.1110184E+00
         21   -1    0    0  501  502  0.00000000000E+00  0.00000000000E+00  0.24419052200E+03  0.24419052200E+03  0.00000000000E+00 0. -1.
         21   -1    0    0  502  503 -0.00000000000E+00 -0.00000000000E+00 -0.95030426894E+03  0.95030426894E+03  0.00000000000E+00 0.  1.
          6    1    1    2  501    0 -0.16237092079E+03  0.95276384133E+02  0.15364787077E+03  0.29771391214E+03  0.17200000000E+03 0. -1.
         -6    1    1    2    0  503  0.16237092079E+03 -0.95276384133E+02 -0.85976161770E+03  0.89678087879E+03  0.17200000000E+03 0.  1.
</event>
<event>
 4    1  0.5874615E+000  0.2619649E+03  0.7818608E-02  0.1105968E+00
         21   -1    0    0  503  502  0.00000000000E+00  0.00000000000E+00  0.63571801748E+02  0.63571801748E+02  0.00000000000E+00 0. -1.
         21   -1    0    0  501  503 -0.00000000000E+00 -0.00000000000E+00 -0.19054478611E+04  0.19054478611E+04  0.00000000000E+00 0. -1.
          6    1    1    2  501    0 -0.18224175131E+03  0.76351409448E+02 -0.15691223586E+04  0.15908395802E+04  0.17200000000E+03 0. -1.
         -6    1    1    2    0  502  0.18224175131E+03 -0.76351409448E+02 -0.27275370076E+03  0.37818008267E+03  0.17200000000E+03 0. -1.
</event>
<event>
 4    1  0.5874615E+000  0.1954555E+03  0.7818608E-02  0.1153631E+00
         21   -1    0    0  503  502  0.00000000000E+00  0.00000000000E+00  0.41110578687E+03  0.41110578687E+03  0.00000000000E+00 0. -1.
         21   -1    0    0  501  503 -0.00000000000E+00 -0.00000000000E+00 -0.25692049909E+03  0.25692049909E+03  0.00000000000E+00 0. -1.
          6    1    1    2  501    0  0.43530319168E+02 -0.81999726891E+02 -0.18976364421E+03  0.27242078585E+03  0.17200000000E+03 0. -1.
         -6    1    1    2    0  502 -0.43530319168E+02  0.81999726891E+02  0.34394893199E+03  0.39560550011E+03  0.17200000000E+03 0. -1.
</event>
<event>
 4    1  0.5874615E+000  0.2870408E+03  0.7818608E-02  0.1091904E+00
         21   -1    0    0  501  502  0.00000000000E+00  0.00000000000E+00  0.70385709257E+03  0.70385709257E+03  0.00000000000E+00 0. -1.
         21   -1    0    0  502  503 -0.00000000000E+00 -0.00000000000E+00 -0.13487638822E+03  0.13487638822E+03  0.00000000000E+00 0. -1.
          6    1    1    2  501    0  0.63730351502E+02 -0.22078698055E+03  0.43691466864E+03  0.52276847281E+03  0.17200000000E+03 0. -1.
         -6    1    1    2    0  503 -0.63730351502E+02  0.22078698055E+03  0.13206603571E+03  0.31596500799E+03  0.17200000000E+03 0. -1.
</event>
<event>
 4    1  0.5874615E+000  0.1931366E+03  0.7818608E-02  0.1155662E+00
         21   -1    0    0  501  502  0.00000000000E+00  0.00000000000E+00  0.77866897903E+02  0.77866897903E+02  0.00000000000E+00 0.  1.
         21   -1    0    0  502  503 -0.00000000000E+00 -0.00000000000E+00 -0.49071628142E+03  0.49071628142E+03  0.00000000000E+00 0. -1.
          6    1    1    2  501    0 -0.65417950242E+02 -0.58636653411E+02 -0.25026806203E+03  0.31612634849E+03  0.17200000000E+03 0. -1.
         -6    1    1    2    0  503  0.65417950242E+02  0.58636653411E+02 -0.16258132148E+03  0.25245683083E+03  0.17200000000E+03 0.  1.
</event>
<event>
 4    1  0.5874615E+000  0.1899184E+03  0.7818608E-02  0.1158535E+00
         21   -1    0    0  501  502  0.00000000000E+00  0.00000000000E+00  0.94344988417E+02  0.94344988417E+02  0.00000000000E+00 0. -1.
         21   -1    0    0  502  503 -0.00000000000E+00 -0.00000000000E+00 -0.20126483584E+04  0.20126483584E+04  0.00000000000E+00 0. -1.
          6    1    1    2  501    0 -0.48716889377E+02  0.64122378746E+02 -0.10977525591E+02  0.19023543528E+03  0.17200000000E+03 0. -1.
         -6    1    1    2    0  503  0.48716889377E+02 -0.64122378746E+02 -0.19073258444E+04  0.19167579115E+04  0.17200000000E+03 0. -1.
</event>
<event>
 4    1  0.5874615E+000  0.1727531E+03  0.7818608E-02  0.1175007E+00
         21   -1    0    0  503  502  0.00000000000E+00  0.00000000000E+00  0.48562303771E+02  0.48562303771E+02  0.00000000000E+00 0. -1.
         21   -1    0    0  501  503 -0.00000000000E+00 -0.00000000000E+00 -0.61482149956E+03  0.61482149956E+03  0.00000000000E+00 0. -1.
          6    1    1    2  501    0 -0.14810735254E+02 -0.63456467280E+01 -0.29018874589E+03  0.33771753486E+03  0.17200000000E+03 0.  1.
         -6    1    1    2    0  502  0.14810735254E+02  0.63456467280E+01 -0.27607044990E+03  0.32566626847E+03  0.17200000000E+03 0.  1.
</event>
<event>
 4    1  0.5874615E+000  0.1785140E+03  0.7818608E-02  0.1169249E+00
         21   -1    0    0  501  502  0.00000000000E+00  0.00000000000E+00  0.44411179775E+02  0.44411179775E+02  0.00000000000E+00 0.  1.
         21   -1    0    0  502  503 -0.00000000000E+00 -0.00000000000E+00 -0.18042048016E+04  0.18042048016E+04  0.00000000000E+00 0.  1.
          6    1    1    2  501    0  0.46258730003E+02  0.11974344198E+02 -0.16256591975E+03  0.24144343703E+03  0.17200000000E+03 0.  1.
         -6    1    1    2    0  503 -0.46258730003E+02 -0.11974344198E+02 -0.15972277020E+04  0.16071725443E+04  0.17200000000E+03 0.  1.
</event>
<event>
 4    1  0.5874615E+000  0.2313641E+03  0.7818608E-02  0.1125683E+00
         21   -1    0    0  503  502  0.00000000000E+00  0.00000000000E+00  0.85644731534E+03  0.85644731534E+03  0.00000000000E+00 0. -1.
         21   -1    0    0  501  503 -0.00000000000E+00 -0.00000000000E+00 -0.92193567297E+02  0.92193567297E+02  0.00000000000E+00 0. -1.
          6    1    1    2  501    0 -0.14880297252E+03 -0.42462269950E+02  0.65130555716E+03  0.69117891880E+03  0.17200000000E+03 0. -1.
         -6    1    1    2    0  502  0.14880297252E+03  0.42462269950E+02  0.11294819088E+03  0.25746196384E+03  0.17200000000E+03 0. -1.
</event>
<event>
 4    1  0.5874615E+000  0.1970043E+03  0.7818608E-02  0.1152291E+00
         21   -1    0    0  503  502  0.00000000000E+00  0.00000000000E+00  0.75372135587E+03  0.75372135587E+03  0.00000000000E+00 0.  1.
         21   -1    0    0  501  503 -0.00000000000E+00 -0.00000000000E+00 -0.61813597534E+02  0.61813597534E+02  0.00000000000E+00 0.  1.
          6    1    1    2  501    0 -0.89155549846E+02 -0.35748885336E+02  0.17932819494E+03  0.26640063133E+03  0.17200000000E+03 0.  1.
         -6    1    1    2    0  502  0.89155549846E+02  0.35748885336E+02  0.51257956340E+03  0.54913432208E+03  0.17200000000E+03 0.  1.
</event>
<event>
 4    1  0.5874615E+000  0.2292545E+03  0.7818608E-02  0.1127166E+00
         21   -1    0    0  503  502  0.00000000000E+00  0.00000000000E+00  0.12173306575E+03  0.12173306575E+03  0.00000000000E+00 0. -1.
         21   -1    0    0  501  503 -0.00000000000E+00 -0.00000000000E+00 -0.43236368096E+03  0.43236368096E+03  0.00000000000E+00 0. -1.
          6    1    1    2  501    0  0.59518679103E+02 -0.13939564191E+03 -0.14483354062E+03  0.27117221951E+03  0.17200000000E+03 0.  1.
         -6    1    1    2    0  502 -0.59518679103E+02  0.13939564191E+03 -0.16579707460E+03  0.28292452720E+03  0.17200000000E+03 0.  1.
</event>
<event>
 4    1  0.5874615E+000  0.2311503E+03  0.7818608E-02  0.1125833E+00
         21   -1    0    0  503  502  0.00000000000E+00  0.00000000000E+00  0.24587210755E+02  0.24587210755E+02  0.00000000000E+00 0. -1.
         21   -1    0    0  501  503 -0.00000000000E+00 -0.00000000000E+00 -0.24767365731E+04  0.24767365731E+04  0.00000000000E+00 0. -1.
          6    1    1    2  501    0 -0.51831195313E+02  0.14546473021E+03 -0.16639770120E+04  0.16799553437E+04  0.17200000000E+03 0. -1.
         -6    1    1    2    0  502  0.51831195313E+02 -0.14546473021E+03 -0.78817235031E+03  0.82136844006E+03  0.17200000000E+03 0. -1.
</event>
<event>
 4    1  0.5874615E+000  0.2363642E+03  0.7818608E-02  0.1122239E+00
         21   -1    0    0  503  502  0.00000000000E+00  0.00000000000E+00  0.25144459985E+03  0.25144459985E+03  0.00000000000E+00 0. -1.
         21   -1    0    0  501  503 -0.00000000000E+00 -0.00000000000E+00 -0.22754211711E+03  0.22754211711E+03  0.00000000000E+00 0. -1.
          6    1    1    2  501    0 -0.13802475484E+03  0.85048183347E+02  0.48687747575E+02  0.24132659034E+03  0.17200000000E+03 0. -1.
         -6    1    1    2    0  502  0.13802475484E+03 -0.85048183347E+02 -0.24785264835E+02  0.23766012663E+03  0.17200000000E+03 0. -1.
</event>
<event>
 4    1  0.5874615E+000  0.2125956E+03  0.7818608E-02  0.1139527E+00
         21   -1    0    0  501  502  0.00000000000E+00  0.00000000000E+00  0.47298581267E+03  0.47298581267E+03  0.00000000000E+00 0.  1.
         21   -1    0    0  502  503 -0.00000000000E+00 -0.00000000000E+00 -0.20650171811E+03  0.20650171811E+03  0.00000000000E+00 0.  1.
          6    1    1    2  501    0 -0.10038300636E+03 -0.74405207229E+02  0.38226759113E+03  0.43740758344E+03  0.17200000000E+03 0.  1.
         -6    1    1    2    0  503  0.10038300636E+03  0.74405207229E+02 -0.11578349656E+03  0.24207994734E+03  0.17200000000E+03 0.  1.
</event>
<event>
 4    1  0.5874615E+000  0.1982537E+03  0.7818608E-02  0.1151221E+00
         21   -1    0    0  501  502  0.00000000000E+00  0.00000000000E+00  0.22798415736E+03  0.22798415736E+03  0.00000000000E+00 0. -1.
         21   -1    0    0  502  503 -0.00000000000E+00 -0.00000000000E+00 -0.18494435755E+03  0.18494435755E+03  0.00000000000E+00 0. -1.
          6    1    1    2  501    0 -0.10616582494E+01 -0.98587062346E+02  0.75290321476E+02  0.21206878245E+03  0.17200000000E+03 0. -1.
         -6    1    1    2    0  503  0.10616582494E+01  0.98587062346E+02 -0.32250521666E+02  0.20085973247E+03  0.17200000000E+03 0. -1.
</event>
<event>
 4    1  0.5874615E+000  0.1740064E+03  0.7818608E-02  0.1173733E+00
         21   -1    0    0  503  502  0.00000000000E+00  0.00000000000E+00  0.71003069083E+03  0.71003069083E+03  0.00000000000E+00 0.  1.
         21   -1    0    0  501  503 -0.00000000000E+00 -0.00000000000E+00 -0.11243698455E+03  0.11243698455E+03  0.00000000000E+00 0.  1.
          6    1    1    2  501    0 -0.25706921814E+02  0.57767196041E+01 -0.25200595131E+02  0.17582174585E+03  0.17200000000E+03 0.  1.
         -6    1    1    2    0  502  0.25706921814E+02 -0.57767196041E+01  0.62279430140E+03  0.64664592953E+03  0.17200000000E+03 0.  1.
</event>
<event>
 4    1  0.5874615E+000  0.3059129E+03  0.7818608E-02  0.1082322E+00
         21   -1    0    0  503  502  0.00000000000E+00  0.00000000000E+00  0.68077163463E+03  0.68077163463E+03  0.00000000000E+00 0.  1.
         21   -1    0    0  501  503 -0.00000000000E+00 -0.00000000000E+00 -0.14112491717E+03  0.14112491717E+03  0.00000000000E+00 0.  1.
          6    1    1    2  501    0 -0.13223368624E+03 -0.21566868360E+03  0.20365030351E+03  0.36749989794E+03  0.17200000000E+03 0.  1.
         -6    1    1    2    0  502  0.13223368624E+03  0.21566868360E+03  0.33599641394E+03  0.45439665386E+03  0.17200000000E+03 0.  1.
</event>
<event>
 4    1  0.5874615E+000  0.2253772E+03  0.7818608E-02  0.1129936E+00
         21   -1    0    0  503  502  0.00000000000E+00  0.00000000000E+00  0.78730587940E+03  0.78730587940E+03  0.00000000000E+00 0.  1.
         21   -1    0    0  501  503 -0.00000000000E+00 -0.00000000000E+00 -0.64521703390E+02  0.64521703390E+02  0.00000000000E+00 0. -1.
          6    1    1    2  501    0 -0.68734787551E+02 -0.12839942688E+03  0.35789096293E+03  0.42294305195E+03  0.17200000000E+03 0. -1.
         -6    1    1    2    0  502  0.68734787551E+02  0.12839942688E+03  0.36489321308E+03  0.42888453084E+03  0.17200000000E+03 0. -1.
</event>
<event>
 4    1  0.5874615E+000  0.1750280E+03  0.7818608E-02  0.1172704E+00
         21   -1    0    0  501  502  0.00000000000E+00  0.00000000000E+00  0.24170858477E+03  0.24170858477E+03  0.00000000000E+00 0.  1.
         21   -1    0    0  502  503 -0.00000000000E+00 -0.00000000000E+00 -0.12829319358E+03  0.12829319358E+03  0.00000000000E+00 0.  1.
          6    1    1    2  501    0  0.44094103739E+01 -0.32114568967E+02  0.77045914089E+02  0.19123509437E+03  0.17200000000E+03 0.  1.
         -6    1    1    2    0  503 -0.44094103739E+01  0.32114568967E+02  0.36369477103E+02  0.17876668399E+03  0.17200000000E+03 0.  1.
</event>
<event>
 4    1  0.5874615E+000  0.2976493E+03  0.7818608E-02  0.1086422E+00
         21   -1    0    0  501  502  0.00000000000E+00  0.00000000000E+00  0.21874894930E+03  0.21874894930E+03  0.00000000000E+00 0. -1.
         21   -1    0    0  502  503 -0.00000000000E+00 -0.00000000000E+00 -0.40832728761E+03  0.40832728761E+03  0.00000000000E+00 0.  1.
          6    1    1    2  501    0 -0.20783891379E+03 -0.12575408429E+03 -0.66520861341E+02  0.30499201432E+03  0.17200000000E+03 0. -1.
         -6    1    1    2    0  503  0.20783891379E+03  0.12575408429E+03 -0.12305747697E+03  0.32208422259E+03  0.17200000000E+03 0. -1.
</event>
<event>
 4    1  0.5874615E+000  0.1979073E+03  0.7818608E-02  0.1151517E+00
         21   -1    0    0  501  502  0.00000000000E+00  0.00000000000E+00  0.10782797209E+03  0.10782797209E+03  0.00000000000E+00 0. -1.
         21   -1    0    0  502  503 -0.00000000000E+00 -0.00000000000E+00 -0.36338444616E+03  0.36338444616E+03  0.00000000000E+00 0. -1.
          6    1    1    2  501    0  0.60419884618E+02  0.77024318262E+02 -0.13249436649E+03  0.23816394608E+03  0.17200000000E+03 0. -1.
         -6    1    1    2    0  503 -0.60419884618E+02 -0.77024318262E+02 -0.12306210759E+03  0.23304847218E+03  0.17200000000E+03 0. -1.
</event>
<event>
 4    1  0.5874615E+000  0.1887883E+03  0.7818608E-02  0.1159559E+00
         21   -1    0    0  501  502  0.00000000000E+00  0.00000000000E+00  0.99150053399E+03  0.99150053399E+03  0.00000000000E+00 0. -1.
         21   -1    0    0  502  503 -0.00000000000E+00 -0.00000000000E+00 -0.36039303604E+02  0.36039303604E+02  0.00000000000E+00 0. -1.
          6    1    1    2  501    0 -0.47672133009E+02 -0.61517461207E+02  0.45166728732E+03  0.48953484935E+03  0.17200000000E+03 0. -1.
         -6    1    1    2    0  503  0.47672133009E+02  0.61517461207E+02  0.50379394307E+03  0.53800498824E+03  0.17200000000E+03 0. -1.
</event>
<event>
 4    1  0.5874615E+000  0.1734590E+03  0.7818608E-02  0.1174288E+00
         21   -1    0    0  503  502  0.00000000000E+00  0.00000000000E+00  0.92329393933E+03  0.92329393933E+03  0.00000000000E+00 0.  1.
         21   -1    0    0  501  503 -0.00000000000E+00 -0.00000000000E+00 -0.33091383120E+02  0.33091383120E+02  0.00000000000E+00 0.  1.
          6    1    1    2  501    0  0.20396613424E+02  0.93818115470E+01  0.50409658413E+03  0.53310543644E+03  0.17200000000E+03 0.  1.
         -6    1    1    2    0  502 -0.20396613424E+02 -0.93818115470E+01  0.38610597208E+03  0.42327988601E+03  0.17200000000E+03 0.  1.
</event>
<event>
 4    1  0.5874615E+000  0.2108446E+03  0.7818608E-02  0.1140899E+00
         21   -1    0    0  503  502  0.00000000000E+00  0.00000000000E+00  0.10454563084E+04  0.10454563084E+04  0.00000000000E+00 0. -1.
         21   -1    0    0  501  503 -0.00000000000E+00 -0.00000000000E+00 -0.53273285694E+02  0.53273285694E+02  0.00000000000E+00 0.  1.
          6    1    1    2  501    0 -0.22515296580E+02  0.11985194373E+03  0.74288061043E+03  0.77222213666E+03  0.17200000000E+03 0. -1.
         -6    1    1    2    0  502  0.22515296580E+02 -0.11985194373E+03  0.24930241229E+03  0.32650745744E+03  0.17200000000E+03 0.  1.
</event>
<event>
 4    1  0.5874615E+000  0.1840770E+03  0.7818608E-02  0.1163915E+00
         21   -1    0    0  501  502  0.00000000000E+00  0.00000000000E+00  0.19452393217E+03  0.19452393217E+03  0.00000000000E+00 0. -1.
         21   -1    0    0  502  503 -0.00000000000E+00 -0.00000000000E+00 -0.17905043598E+03  0.17905043598E+03  0.00000000000E+00 0. -1.
          6    1    1    2  501    0 -0.64265031014E+02 -0.13052028257E+02  0.38507995797E+02  0.18806173293E+03  0.17200000000E+03 0. -1.
         -6    1    1    2    0  503  0.64265031014E+02  0.13052028257E+02 -0.23034499612E+02  0.18551263522E+03  0.17200000000E+03 0. -1.
</event>
<event>
 4    1  0.5874615E+000  0.2244176E+03  0.7818608E-02  0.1130632E+00
         21   -1    0    0  503  502  0.00000000000E+00  0.00000000000E+00  0.70913234002E+03  0.70913234002E+03  0.00000000000E+00 0.  1.
         21   -1    0    0  501  503 -0.00000000000E+00 -0.00000000000E+00 -0.71021365303E+02  0.71021365303E+02  0.00000000000E+00 0.  1.
          6    1    1    2  501    0 -0.33576332955E+01 -0.14411104363E+03  0.31997585071E+03  0.39082964528E+03  0.17200000000E+03 0.  1.
         -6    1    1    2    0  502  0.33576332955E+01  0.14411104363E+03  0.31813512401E+03  0.38932406004E+03  0.17200000000E+03 0.  1.
</event>
<event>
 4    1  0.5874615E+000  0.2084202E+03  0.7818608E-02  0.1142823E+00
         21   -1    0    0  503  502  0.00000000000E+00  0.00000000000E+00  0.84000021967E+03  0.84000021967E+03  0.00000000000E+00 0.  1.
         21   -1    0    0  501  503 -0.00000000000E+00 -0.00000000000E+00 -0.74929122546E+02  0.74929122546E+02  0.00000000000E+00 0.  1.
          6    1    1    2  501    0 -0.31356827030E+02  0.11345364251E+03  0.12789559678E+03  0.24453274479E+03  0.17200000000E+03 0.  1.
         -6    1    1    2    0  502  0.31356827030E+02 -0.11345364251E+03  0.63717550035E+03  0.67039659743E+03  0.17200000000E+03 0.  1.
</event>
<event>
 4    1  0.5874615E+000  0.1872047E+03  0.7818608E-02  0.1161007E+00
         21   -1    0    0  501  502  0.00000000000E+00  0.00000000000E+00  0.49655292298E+03  0.49655292298E+03  0.00000000000E+00 0. -1.
         21   -1    0    0  502  503 -0.00000000000E+00 -0.00000000000E+00 -0.98880733731E+02  0.98880733731E+02  0.00000000000E+00 0. -1.
          6    1    1    2  501    0  0.69896262307E+02 -0.24002347397E+02  0.35811690895E+03  0.40409568253E+03  0.17200000000E+03 0. -1.
         -6    1    1    2    0  503 -0.69896262307E+02  0.24002347397E+02  0.39555280306E+02  0.19133797419E+03  0.17200000000E+03 0. -1.
</event>
<event>
 4    1  0.5874615E+000  0.1981084E+03  0.7818608E-02  0.1151345E+00
         21   -1    0    0  501  502  0.00000000000E+00  0.00000000000E+00  0.29128741701E+03  0.29128741701E+03  0.00000000000E+00 0.  1.
         21   -1    0    0  502  503 -0.00000000000E+00 -0.00000000000E+00 -0.13480703377E+03  0.13480703377E+03  0.00000000000E+00 0.  1.
          6    1    1    2  501    0 -0.15792332561E+02  0.97023324791E+02  0.83128088716E+02  0.21484227343E+03  0.17200000000E+03 0.  1.
         -6    1    1    2    0  503  0.15792332561E+02 -0.97023324791E+02  0.73352294522E+02  0.21125217734E+03  0.17200000000E+03 0.  1.
</event>
<event>
 4    1  0.5874615E+000  0.1932091E+03  0.7818608E-02  0.1155598E+00
         21   -1    0    0  501  502  0.00000000000E+00  0.00000000000E+00  0.18379739663E+02  0.18379739663E+02  0.00000000000E+00 0. -1.
         21   -1    0    0  502  503 -0.00000000000E+00 -0.00000000000E+00 -0.23643878907E+04  0.23643878907E+04  0.00000000000E+00 0. -1.
          6    1    1    2  501    0  0.72234406679E+02  0.50278502579E+02 -0.16203567287E+04  0.16318350608E+04  0.17200000000E+03 0. -1.
         -6    1    1    2    0  503 -0.72234406679E+02 -0.50278502579E+02 -0.72565142233E+03  0.75093256958E+03  0.17200000000E+03 0. -1.
</event>
<event>
 4    1  0.5874615E+000  0.1754710E+03  0.7818608E-02  0.1172260E+00
         21   -1    0    0  501  502  0.00000000000E+00  0.00000000000E+00  0.91905554251E+02  0.91905554251E+02  0.00000000000E+00 0. -1.
         21   -1    0    0  502  503 -0.00000000000E+00 -0.00000000000E+00 -0.48143567094E+03  0.48143567094E+03  0.00000000000E+00 0. -1.
          6    1    1    2  501    0 -0.34378905337E+02 -0.49146840455E+01 -0.36673016024E+02  0.17926230322E+03  0.17200000000E+03 0. -1.
         -6    1    1    2    0  503  0.34378905337E+02  0.49146840455E+01 -0.35285710067E+03  0.39407892197E+03  0.17200000000E+03 0. -1.
</event>
<event>
 4    1  0.5874615E+000  0.1994265E+03  0.7818608E-02  0.1150224E+00
         21   -1    0    0  503  502  0.00000000000E+00  0.00000000000E+00  0.18573789477E+03  0.18573789477E+03  0.00000000000E+00 0.  1.
         21   -1    0    0  501  503 -0.00000000000E+00 -0.00000000000E+00 -0.23572579893E+03  0.23572579893E+03  0.00000000000E+00 0.  1.
          6    1    1    2  501    0  0.80447553473E+02 -0.60951938984E+02 -0.88786685256E+02  0.21829801466E+03  0.17200000000E+03 0.  1.
         -6    1    1    2    0  502 -0.80447553473E+02  0.60951938984E+02  0.38798781090E+02  0.20316567904E+03  0.17200000000E+03 0.  1.
</event>
<event>
 4    1  0.5874615E+000  0.2293354E+03  0.7818608E-02  0.1127108E+00
         21   -1    0    0  503  502  0.00000000000E+00  0.00000000000E+00  0.56926057744E+03  0.56926057744E+03  0.00000000000E+00 0. -1.
         21   -1    0    0  501  503 -0.00000000000E+00 -0.00000000000E+00 -0.10889697826E+03  0.10889697826E+03  0.00000000000E+00 0.  1.
          6    1    1    2  501    0  0.10193344264E+03  0.11234013050E+03  0.98171072278E+02  0.24946400759E+03  0.17200000000E+03 0.  1.
         -6    1    1    2    0  502 -0.10193344264E+03 -0.11234013050E+03  0.36219252690E+03  0.42869354811E+03  0.17200000000E+03 0. -1.
</event>
<event>
 4    1  0.5874615E+000  0.2862483E+03  0.7818608E-02  0.1092324E+00
         21   -1    0    0  501  502  0.00000000000E+00  0.00000000000E+00  0.48907077398E+03  0.48907077398E+03  0.00000000000E+00 0.  1.
         21   -1    0    0  502  503 -0.00000000000E+00 -0.00000000000E+00 -0.25320686624E+03  0.25320686624E+03  0.00000000000E+00 0.  1.
          6    1    1    2  501    0  0.22880341097E+03  0.17608498691E+01 -0.97946506969E+02  0.30254193047E+03  0.17200000000E+03 0.  1.
         -6    1    1    2    0  503 -0.22880341097E+03 -0.17608498691E+01  0.33381041471E+03  0.43973570975E+03  0.17200000000E+03 0.  1.
</event>
<event>
 4    1  0.5874615E+000  0.2522807E+03  0.7818608E-02  0.1111872E+00
         21   -1    0    0  503  502  0.00000000000E+00  0.00000000000E+00  0.32310935030E+03  0.32310935030E+03  0.00000000000E+00 0.  1.
         21   -1    0    0  501  503 -0.00000000000E+00 -0.00000000000E+00 -0.26649468397E+03  0.26649468397E+03  0.00000000000E+00 0. -1.
          6    1    1    2  501    0  0.18087905794E+03 -0.36664657104E+02 -0.12225965424E+03  0.28034434850E+03  0.17200000000E+03 0.  1.
         -6    1    1    2    0  502 -0.18087905794E+03  0.36664657104E+02  0.17887432056E+03  0.30925968577E+03  0.17200000000E+03 0.  1.
</event>
<event>
 4    1  0.5874615E+000  0.3535611E+03  0.7818608E-02  0.1061163E+00
         21   -1    0    0  501  502  0.00000000000E+00  0.00000000000E+00  0.14176286782E+04  0.14176286782E+04  0.00000000000E+00 0. -1.
         21   -1    0    0  502  503 -0.00000000000E+00 -0.00000000000E+00 -0.88212255345E+02  0.88212255345E+02  0.00000000000E+00 0. -1.
          6    1    1    2  501    0  0.15635291972E+03 -0.26641173588E+03  0.65014666114E+03  0.74006494953E+03  0.17200000000E+03 0. -1.
         -6    1    1    2    0  503 -0.15635291972E+03  0.26641173588E+03  0.67926976168E+03  0.76577598399E+03  0.17200000000E+03 0. -1.
</event>
<event>
 4    1  0.5874615E+000  0.1894485E+03  0.7818608E-02  0.1158960E+00
         21   -1    0    0  501  502  0.00000000000E+00  0.00000000000E+00  0.10042220380E+03  0.10042220380E+03  0.00000000000E+00 0.  1.
         21   -1    0    0  502  503 -0.00000000000E+00 -0.00000000000E+00 -0.35817514007E+03  0.35817514007E+03  0.00000000000E+00 0. -1.
          6    1    1    2  501    0 -0.49376676944E+02  0.62198597731E+02 -0.11819752302E+03  0.22329661044E+03  0.17200000000E+03 0. -1.
         -6    1    1    2    0  503  0.49376676944E+02 -0.62198597731E+02 -0.13955541325E+03  0.23530073343E+03  0.17200000000E+03 0.  1.
</event>
<event>
 4    1  0.5874615E+000  0.2240638E+03  0.7818608E-02  0.1130889E+00
         21   -1    0    0  503  502  0.00000000000E+00  0.00000000000E+00  0.99676956805E+03  0.99676956805E+03  0.00000000000E+00 0.  1.
         21   -1    0    0  501  503 -0.00000000000E+00 -0.00000000000E+00 -0.17544002266E+03  0.17544002266E+03  0.00000000000E+00 0.  1.
          6    1    1    2  501    0 -0.73072485140E+02  0.12361625605E+03 -0.84206544580E+02  0.23936438539E+03  0.17200000000E+03 0.  1.
         -6    1    1    2    0  502  0.73072485140E+02 -0.12361625605E+03  0.90553608997E+03  0.93284520531E+03  0.17200000000E+03 0.  1.
</event>
<event>
 4    1  0.5874615E+000  0.2749427E+03  0.7818608E-02  0.1098484E+00
         21   -1    0    0  501  502  0.00000000000E+00  0.00000000000E+00  0.20344629201E+03  0.20344629201E+03  0.00000000000E+00 0. -1.
         21   -1    0    0  502  503 -0.00000000000E+00 -0.00000000000E+00 -0.47945147006E+03  0.47945147006E+03  0.00000000000E+00 0. -1.
          6    1    1    2  501    0 -0.15824592596E+03 -0.14480240391E+03  0.23968304990E+02  0.27598548677E+03  0.17200000000E+03 0. -1.
         -6    1    1    2    0  503  0.15824592596E+03  0.14480240391E+03 -0.29997348304E+03  0.40691227530E+03  0.17200000000E+03 0. -1.
</event>
<event>
 4    1  0.5874615E+000  0.2301319E+03  0.7818608E-02  0.1126547E+00
         21   -1    0    0  503  502  0.00000000000E+00  0.00000000000E+00  0.30687447079E+03  0.30687447079E+03  0.00000000000E+00 0.  1.
         21   -1    0    0  501  503 -0.00000000000E+00 -0.00000000000E+00 -0.72116476274E+03  0.72116476274E+03  0.00000000000E+00 0.  1.
          6    1    1    2  501    0  0.61263550975E+02 -0.14008377140E+03 -0.65546083889E+03  0.69468668982E+03  0.17200000000E+03 0.  1.
         -6    1    1    2    0  502 -0.61263550975E+02  0.14008377140E+03  0.24117054694E+03  0.33335254371E+03  0.17200000000E+03 0.  1.
</event>
<event>
 4    1  0.5874615E+000  0.2520409E+03  0.7818608E-02  0.1112022E+00
         21   -1    0    0  503  502  0.00000000000E+00  0.00000000000E+00  0.43947049168E+03  0.43947049168E+03  0.00000000000E+00 0. -1.
         21   -1    0    0  501  503 -0.00000000000E+00 -0.00000000000E+00 -0.15850368728E+03  0.15850368728E+03  0.00000000000E+00 0. -1.
          6    1    1    2  501    0 -0.18137117349E+03  0.32328584905E+02  0.51766521377E+02  0.25730218171E+03  0.17200000000E+03 0. -1.
         -6    1    1    2    0  502  0.18137117349E+03 -0.32328584905E+02  0.22920028302E+03  0.34067199725E+03  0.17200000000E+03 0. -1.
</event>
<event>
 4    1  0.5874615E+000  0.2163605E+03  0.7818608E-02  0.1136626E+00
         21   -1    0    0  501  502  0.00000000000E+00  0.00000000000E+00  0.79000968286E+03  0.79000968286E+03  0.00000000000E+00 0. -1.
         21   -1    0    0  502  503 -0.00000000000E+00 -0.00000000000E+00 -0.78270514190E+02  0.78270514190E+02  0.00000000000E+00 0. -1.
          6    1    1    2  501    0 -0.68334848211E+02  0.11206345086E+03  0.56985643544E+03  0.60954755804E+03  0.17200000000E+03 0. -1.
         -6    1    1    2    0  503  0.68334848211E+02 -0.11206345086E+03  0.14188273323E+03  0.25873263901E+03  0.17200000000E+03 0. -1.
</event>
<event>
 4    1  0.5874615E+000  0.1825975E+03  0.7818608E-02  0.1165313E+00
         21   -1    0    0  501  502  0.00000000000E+00  0.00000000000E+00  0.75760951096E+02  0.75760951096E+02  0.00000000000E+00 0.  1.
         21   -1    0    0  502  503 -0.00000000000E+00 -0.00000000000E+00 -0.44280690468E+03  0.44280690468E+03  0.00000000000E+00 0.  1.
          6    1    1    2  501    0  0.30584484831E+02  0.53126568056E+02 -0.16322334316E+03  0.24491570529E+03  0.17200000000E+03 0.  1.
         -6    1    1    2    0  503 -0.30584484831E+02 -0.53126568056E+02 -0.20382261042E+03  0.27365215048E+03  0.17200000000E+03 0.  1.
</event>
<event>
 4    1  0.5874615E+000  0.1752543E+03  0.7818608E-02  0.1172477E+00
         21   -1    0    0  503  502  0.00000000000E+00  0.00000000000E+00  0.69318877282E+03  0.69318877282E+03  0.00000000000E+00 0.  1.
         21   -1    0    0  501  503 -0.00000000000E+00 -0.00000000000E+00 -0.44536252197E+02  0.44536252197E+02  0.00000000000E+00 0.  1.
          6    1    1    2  501    0  0.21824787020E+02 -0.25568319446E+02  0.29794054646E+03  0.34566259490E+03  0.17200000000E+03 0.  1.
         -6    1    1    2    0  502 -0.21824787020E+02  0.25568319446E+02  0.35071197416E+03  0.39206243011E+03  0.17200000000E+03 0.  1.
</event>
<event>
 4    1  0.5874615E+000  0.2171697E+03  0.7818608E-02  0.1136011E+00
         21   -1    0    0  503  502  0.00000000000E+00  0.00000000000E+00  0.44237634346E+03  0.44237634346E+03  0.00000000000E+00 0.  1.
         21   -1    0    0  501  503 -0.00000000000E+00 -0.00000000000E+00 -0.10981010238E+03  0.10981010238E+03  0.00000000000E+00 0. -1.
          6    1    1    2  501    0  0.76273720696E+02  0.10844819631E+03  0.11916686170E+03  0.24771643603E+03  0.17200000000E+03 0.  1.
         -6    1    1    2    0  502 -0.76273720696E+02 -0.10844819631E+03  0.21339937939E+03  0.30447000981E+03  0.17200000000E+03 0. -1.
</event>
<event>
 4    1  0.5874615E+000  0.1993786E+03  0.7818608E-02  0.1150264E+00
         21   -1    0    0  501  502  0.00000000000E+00  0.00000000000E+00  0.18640759529E+04  0.18640759529E+04  0.00000000000E+00 0.  1.
         21   -1    0    0  502  503 -0.00000000000E+00 -0.00000000000E+00 -0.22417281858E+02  0.22417281858E+02  0.00000000000E+00 0.  1.
          6    1    1    2  501    0  0.86564129365E+02  0.51715301201E+02  0.11290186098E+04  0.11464880471E+04  0.17200000000E+03 0.  1.
         -6    1    1    2    0  503 -0.86564129365E+02 -0.51715301201E+02  0.71264006120E+03  0.74000518762E+03  0.17200000000E+03 0.  1.
</event>
<event>
 4    1  0.5874615E+000  0.1786537E+03  0.7818608E-02  0.1169112E+00
         21   -1    0    0  501  502  0.00000000000E+00  0.00000000000E+00  0.43411207021E+02  0.43411207021E+02  0.00000000000E+00 0. -1.
         21   -1    0    0  502  503 -0.00000000000E+00 -0.00000000000E+00 -0.23988960236E+04  0.23988960236E+04  0.00000000000E+00 0. -1.
          6    1    1    2  501    0 -0.32330011150E+02  0.35887525306E+02 -0.16079640374E+03  0.24035937167E+03  0.17200000000E+03 0. -1.
         -6    1    1    2    0  503  0.32330011150E+02 -0.35887525306E+02 -0.21946884128E+04  0.22019478590E+04  0.17200000000E+03 0. -1.
</event>
<event>
 4    1  0.5874615E+000  0.2077080E+03  0.7818608E-02  0.1143394E+00
         21   -1    0    0  501  502  0.00000000000E+00  0.00000000000E+00  0.72471402856E+02  0.72471402856E+02  0.00000000000E+00 0.  1.
         21   -1    0    0  502  503 -0.00000000000E+00 -0.00000000000E+00 -0.59867538975E+03  0.59867538975E+03  0.00000000000E+00 0.  1.
          6    1    1    2  501    0  0.87806687499E+02 -0.76476030005E+02 -0.23792384261E+03  0.31583279187E+03  0.17200000000E+03 0.  1.
         -6    1    1    2    0  503 -0.87806687499E+02  0.76476030005E+02 -0.28828014428E+03  0.35531400074E+03  0.17200000000E+03 0.  1.
</event>
<event>
 4    1  0.5874615E+000  0.1829864E+03  0.7818608E-02  0.1164944E+00
         21   -1    0    0  501  502  0.00000000000E+00  0.00000000000E+00  0.28631193797E+03  0.28631193797E+03  0.00000000000E+00 0.  1.
         21   -1    0    0  502  503 -0.00000000000E+00 -0.00000000000E+00 -0.11961671239E+03  0.11961671239E+03  0.00000000000E+00 0.  1.
          6    1    1    2  501    0  0.32122558143E+02  0.53555211837E+02  0.53039573054E+02  0.19051828197E+03  0.17200000000E+03 0.  1.
         -6    1    1    2    0  503 -0.32122558143E+02 -0.53555211837E+02  0.11365565252E+03  0.21541036838E+03  0.17200000000E+03 0.  1.
</event>
<event>
 4    1  0.5874615E+000  0.1759300E+03  0.7818608E-02  0.1171801E+00
         21   -1    0    0  501  502  0.00000000000E+00  0.00000000000E+00  0.53013868091E+03  0.53013868091E+03  0.00000000000E+00 0. -1.
         21   -1    0    0  502  503 -0.00000000000E+00 -0.00000000000E+00 -0.16058279422E+03  0.16058279422E+03  0.00000000000E+00 0. -1.
          6    1    1    2  501    0  0.55250399118E+01  0.36562841969E+02  0.46029427208E+03  0.49276991019E+03  0.17200000000E+03 0. -1.
         -6    1    1    2    0  503 -0.55250399118E+01 -0.36562841969E+02 -0.90738385396E+02  0.19795156494E+03  0.17200000000E+03 0. -1.
</event>
<event>
 4    1  0.5874615E+000  0.1791415E+03  0.7818608E-02  0.1168637E+00
         21   -1    0    0  501  502  0.00000000000E+00  0.00000000000E+00  0.16997002122E+03  0.16997002122E+03  0.00000000000E+00 0.  1.
         21   -1    0    0  502  503 -0.00000000000E+00 -0.00000000000E+00 -0.41861656100E+03  0.41861656100E+03  0.00000000000E+00 0.  1.
          6    1    1    2  501    0  0.48896800287E+02  0.10806275069E+02  0.93726388861E+02  0.20217890253E+03  0.17200000000E+03 0.  1.
         -6    1    1    2    0  503 -0.48896800287E+02 -0.10806275069E+02 -0.34237292864E+03  0.38640767969E+03  0.17200000000E+03 0.  1.
</event>
<event>
 4    1  0.5874615E+000  0.2064869E+03  0.7818608E-02  0.1144379E+00
         21   -1    0    0  503  502  0.00000000000E+00  0.00000000000E+00  0.28733034690E+04  0.28733034690E+04  0.00000000000E+00 0.  1.
         21   -1    0    0  501  503 -0.00000000000E+00 -0.00000000000E+00 -0.15135650833E+02  0.15135650833E+02  0.00000000000E+00 0.  1.
          6    1    1    2  501    0 -0.52500217549E+02  0.10147199005E+03  0.12268825199E+04  0.12441372735E+04  0.17200000000E+03 0.  1.
         -6    1    1    2    0  502  0.52500217549E+02 -0.10147199005E+03  0.16312852983E+04  0.16443018464E+04  0.17200000000E+03 0.  1.
</event>
<event>
 4    1  0.5874615E+000  0.1753916E+03  0.7818608E-02  0.1172339E+00
         21   -1    0    0  503  502  0.00000000000E+00  0.00000000000E+00  0.29707995847E+02  0.29707995847E+02  0.00000000000E+00 0.  1.
         21   -1    0    0  501  503 -0.00000000000E+00 -0.00000000000E+00 -0.13336700776E+04  0.13336700776E+04  0.00000000000E+00 0.  1.
          6    1    1    2  501    0 -0.20581836709E+02 -0.27469986214E+02 -0.97431374434E+03  0.98997448682E+03  0.17200000000E+03 0.  1.
         -6    1    1    2    0  502  0.20581836709E+02  0.27469986214E+02 -0.32964833739E+03  0.37340358660E+03  0.17200000000E+03 0.  1.
</event>
<event>
 4    1  0.5874615E+000  0.1811509E+03  0.7818608E-02  0.1166694E+00
         21   -1    0    0  501  502  0.00000000000E+00  0.00000000000E+00  0.24625775686E+03  0.24625775686E+03  0.00000000000E+00 0. -1.
         21   -1    0    0  502  503 -0.00000000000E+00 -0.00000000000E+00 -0.20868407489E+03  0.20868407489E+03  0.00000000000E+00 0. -1.
          6    1    1    2  501    0  0.12014765067E+02 -0.55563467998E+02  0.15554204981E+03  0.23876553942E+03  0.17200000000E+03 0. -1.
         -6    1    1    2    0  503 -0.12014765067E+02  0.55563467998E+02 -0.11796836784E+03  0.21617629233E+03  0.17200000000E+03 0. -1.
</event>
<event>
 4    1  0.5874615E+000  0.2041831E+03  0.7818608E-02  0.1146257E+00
         21   -1    0    0  503  502  0.00000000000E+00  0.00000000000E+00  0.14414577445E+03  0.14414577445E+03  0.00000000000E+00 0.  1.
         21   -1    0    0  501  503 -0.00000000000E+00 -0.00000000000E+00 -0.42528948706E+03  0.42528948706E+03  0.00000000000E+00 0.  1.
          6    1    1    2  501    0  0.19420991071E+02  0.10830304208E+03 -0.30161514693E+03  0.36422852809E+03  0.17200000000E+03 0.  1.
         -6    1    1    2    0  502 -0.19420991071E+02 -0.10830304208E+03  0.20471434322E+02  0.20520673342E+03  0.17200000000E+03 0.  1.
</event>
<event>
 4    1  0.5874615E+000  0.1910791E+03  0.7818608E-02  0.1157492E+00
         21   -1    0    0  501  502  0.00000000000E+00  0.00000000000E+00  0.15897877724E+03  0.15897877724E+03  0.00000000000E+00 0. -1.
         21   -1    0    0  502  503 -0.00000000000E+00 -0.00000000000E+00 -0.28946352437E+03  0.28946352437E+03  0.00000000000E+00 0. -1.
          6    1    1    2  501    0 -0.80279320215E+02 -0.21964573764E+02  0.36673003224E+02  0.19456649486E+03  0.17200000000E+03 0. -1.
         -6    1    1    2    0  503  0.80279320215E+02  0.21964573764E+02 -0.16715775035E+03  0.25387580676E+03  0.17200000000E+03 0. -1.
</event>
<event>
 4    1  0.5874615E+000  0.2164332E+03  0.7818608E-02  0.1136571E+00
         21   -1    0    0  501  502  0.00000000000E+00  0.00000000000E+00  0.50170735185E+03  0.50170735185E+03  0.00000000000E+00 0.  1.
         21   -1    0    0  502  503 -0.00000000000E+00 -0.00000000000E+00 -0.13392099289E+03  0.13392099289E+03  0.00000000000E+00 0.  1.
          6    1    1    2  501    0 -0.47404552021E+02  0.12252395590E+03  0.90045959780E+01  0.21662039163E+03  0.17200000000E+03 0.  1.
         -6    1    1    2    0  503  0.47404552021E+02 -0.12252395590E+03  0.35878176298E+03  0.41900795311E+03  0.17200000000E+03 0.  1.
</event>
<event>
 4    1  0.5874615E+000  0.1742994E+03  0.7818608E-02  0.1173437E+00
         21   -1    0    0  501  502  0.00000000000E+00  0.00000000000E+00  0.69002177704E+02  0.69002177704E+02  0.00000000000E+00 0. -1.
         21   -1    0    0  502  503 -0.00000000000E+00 -0.00000000000E+00 -0.45574573095E+03  0.45574573095E+03  0.00000000000E+00 0. -1.
          6    1    1    2  501    0  0.23029558358E+02 -0.16307298610E+02 -0.24170465486E+03  0.29799568575E+03  0.17200000000E+03 0. -1.
         -6    1    1    2    0  503 -0.23029558358E+02  0.16307298610E+02 -0.14503889839E+03  0.22675222290E+03  0.17200000000E+03 0. -1.
</event>
<event>
 4    1  0.5874615E+000  0.2544374E+03  0.7818608E-02  0.1110532E+00
         21   -1    0    0  503  502  0.00000000000E+00  0.00000000000E+00  0.45511893937E+02  0.45511893937E+02  0.00000000000E+00 0. -1.
         21   -1    0    0  501  503 -0.00000000000E+00 -0.00000000000E+00 -0.15160768266E+04  0.15160768266E+04  0.00000000000E+00 0. -1.
          6    1    1    2  501    0  0.81859777085E+02  0.16868122875E+03 -0.92931604886E+03  0.96351787669E+03  0.17200000000E+03 0. -1.
         -6    1    1    2    0  502 -0.81859777085E+02 -0.16868122875E+03 -0.54124888378E+03  0.59807084383E+03  0.17200000000E+03 0. -1.
</event>
<event>
 4    1  0.5874615E+000  0.2378123E+03  0.7818608E-02  0.1121259E+00
         21   -1    0    0  501  502  0.00000000000E+00  0.00000000000E+00  0.37176261860E+03  0.37176261860E+03  0.00000000000E+00 0.  1.
         21   -1    0    0  502  503 -0.00000000000E+00 -0.00000000000E+00 -0.45235080089E+03  0.45235080089E+03  0.00000000000E+00 0.  1.
          6    1    1    2  501    0 -0.15644278761E+03 -0.49963196530E+02  0.29539928577E+03  0.37923001574E+03  0.17200000000E+03 0.  1.
         -6    1    1    2    0  503  0.15644278761E+03  0.49963196530E+02 -0.37598746805E+03  0.44488340375E+03  0.17200000000E+03 0.  1.
</event>
<event>
 4    1  0.5874615E+000  0.2154598E+03  0.7818608E-02  0.1137314E+00
         21   -1    0    0  503  502  0.00000000000E+00  0.00000000000E+00  0.11134937585E+03  0.11134937585E+03  0.00000000000E+00 0. -1.
         21   -1    0    0  501  503 -0.00000000000E+00 -0.00000000000E+00 -0.43109341894E+03  0.43109341894E+03  0.00000000000E+00 0.  1.
          6    1    1    2  501    0 -0.60193084722E+02  0.11495964468E+03 -0.11068017843E+03  0.24222516230E+03  0.17200000000E+03 0.  1.
         -6    1    1    2    0  502  0.60193084722E+02 -0.11495964468E+03 -0.20906386465E+03  0.30021763249E+03  0.17200000000E+03 0. -1.
</event>
<event>
 4    1  0.5874615E+000  0.1827472E+03  0.7818608E-02  0.1165170E+00
         21   -1    0    0  501  502  0.00000000000E+00  0.00000000000E+00  0.34170272304E+04  0.34170272304E+04  0.00000000000E+00 0.  1.
         21   -1    0    0  502  503 -0.00000000000E+00 -0.00000000000E+00 -0.45519187679E+02  0.45519187679E+02  0.00000000000E+00 0.  1.
          6    1    1    2  501    0  0.50259385732E+02  0.35868155564E+02  0.32199463375E+04  0.32251280512E+04  0.17200000000E+03 0.  1.
         -6    1    1    2    0  503 -0.50259385732E+02 -0.35868155564E+02  0.15156170527E+03  0.23741836690E+03  0.17200000000E+03 0.  1.
</event>
<event>
 4    1  0.5874615E+000  0.2538436E+03  0.7818608E-02  0.1110900E+00
         21   -1    0    0  501  502  0.00000000000E+00  0.00000000000E+00  0.11326114371E+04  0.11326114371E+04  0.00000000000E+00 0.  1.
         21   -1    0    0  502  503 -0.00000000000E+00 -0.00000000000E+00 -0.85857210633E+02  0.85857210633E+02  0.00000000000E+00 0.  1.
          6    1    1    2  501    0  0.18419699213E+03 -0.30397772250E+02  0.87723929048E+03  0.91322797221E+03  0.17200000000E+03 0.  1.
         -6    1    1    2    0  503 -0.18419699213E+03  0.30397772250E+02  0.16951493597E+03  0.30524067551E+03  0.17200000000E+03 0.  1.
</event>
<event>
 4    1  0.5874615E+000  0.3025212E+03  0.7818608E-02  0.1083987E+00
         21   -1    0    0  501  502  0.00000000000E+00  0.00000000000E+00  0.11767442707E+03  0.11767442707E+03  0.00000000000E+00 0. -1.
         21   -1    0    0  502  503 -0.00000000000E+00 -0.00000000000E+00 -0.77990011531E+03  0.77990011531E+03  0.00000000000E+00 0.  1.
          6    1    1    2  501    0 -0.23741907221E+03 -0.74614277014E+02 -0.35477827523E+03  0.46624749947E+03  0.17200000000E+03 0.  1.
         -6    1    1    2    0  503  0.23741907221E+03  0.74614277014E+02 -0.30744741300E+03  0.43132704291E+03  0.17200000000E+03 0. -1.
</event>
<event>
 4    1  0.5874615E+000  0.1747438E+03  0.7818608E-02  0.1172989E+00
         21   -1    0    0  503  502  0.00000000000E+00  0.00000000000E+00  0.60956043250E+02  0.60956043250E+02  0.00000000000E+00 0.  1.
         21   -1    0    0  501  503 -0.00000000000E+00 -0.00000000000E+00 -0.53922078473E+03  0.53922078473E+03  0.00000000000E+00 0.  1.
          6    1    1    2  501    0 -0.26083847563E+02 -0.16463249002E+02 -0.15917686254E+03  0.23637402404E+03  0.17200000000E+03 0.  1.
         -6    1    1    2    0  502  0.26083847563E+02  0.16463249002E+02 -0.31908787894E+03  0.36380280394E+03  0.17200000000E+03 0.  1.
</event>
<event>
 4    1  0.5874615E+000  0.2134239E+03  0.7818608E-02  0.1138883E+00
         21   -1    0    0  503  502  0.00000000000E+00  0.00000000000E+00  0.92869468350E+02  0.92869468350E+02  0.00000000000E+00 0. -1.
         21   -1    0    0  501  503 -0.00000000000E+00 -0.00000000000E+00 -0.51478114621E+03  0.51478114621E+03  0.00000000000E+00 0.  1.
          6    1    1    2  501    0 -0.60073576449E+02 -0.11116175895E+03 -0.27698067852E+03  0.34966851090E+03  0.17200000000E+03 0.  1.
         -6    1    1    2    0  502  0.60073576449E+02  0.11116175895E+03 -0.14493099934E+03  0.25798210366E+03  0.17200000000E+03 0. -1.
</event>
<event>
 4    1  0.5874615E+000  0.2231903E+03  0.7818608E-02  0.1131527E+00
         21   -1    0    0  503  502  0.00000000000E+00  0.00000000000E+00  0.14821037801E+03  0.14821037801E+03  0.00000000000E+00 0.  1.
         21   -1    0    0  501  503 -0.00000000000E+00 -0.00000000000E+00 -0.47260027971E+03  0.47260027971E+03  0.00000000000E+00 0. -1.
          6    1    1    2  501    0 -0.14088099424E+03  0.19556344760E+02 -0.32901363432E+03  0.39757247984E+03  0.17200000000E+03 0. -1.
         -6    1    1    2    0  502  0.14088099424E+03 -0.19556344760E+02  0.46237326131E+01  0.22323817788E+03  0.17200000000E+03 0.  1.
</event>
<event>
 4    1  0.5874615E+000  0.1755202E+03  0.7818608E-02  0.1172210E+00
         21   -1    0    0  501  502  0.00000000000E+00  0.00000000000E+00  0.27965266649E+02  0.27965266649E+02  0.00000000000E+00 0.  1.
         21   -1    0    0  502  503 -0.00000000000E+00 -0.00000000000E+00 -0.12835983526E+04  0.12835983526E+04  0.00000000000E+00 0.  1.
          6    1    1    2  501    0  0.17975398027E+02 -0.30004026118E+02 -0.38090375508E+03  0.41939841100E+03  0.17200000000E+03 0.  1.
         -6    1    1    2    0  503 -0.17975398027E+02  0.30004026118E+02 -0.87472933086E+03  0.89216520823E+03  0.17200000000E+03 0.  1.
</event>
<event>
 4    1  0.5874615E+000  0.2414876E+03  0.7818608E-02  0.1118806E+00
         21   -1    0    0  503  502  0.00000000000E+00  0.00000000000E+00  0.28017298038E+02  0.28017298038E+02  0.00000000000E+00 0.  1.
         21   -1    0    0  501  503 -0.00000000000E+00 -0.00000000000E+00 -0.20863918103E+04  0.20863918103E+04  0.00000000000E+00 0.  1.
          6    1    1    2  501    0 -0.10536461535E+03 -0.13278010846E+03 -0.10807036573E+04  0.11073557036E+04  0.17200000000E+03 0.  1.
         -6    1    1    2    0  502  0.10536461535E+03  0.13278010846E+03 -0.97767085492E+03  0.10070534047E+04  0.17200000000E+03 0.  1.
</event>
<event>
 4    1  0.5874615E+000  0.1722654E+03  0.7818608E-02  0.1175506E+00
         21   -1    0    0  501  502  0.00000000000E+00  0.00000000000E+00  0.69348825051E+02  0.69348825051E+02  0.00000000000E+00 0.  1.
         21   -1    0    0  502  503 -0.00000000000E+00 -0.00000000000E+00 -0.44451494992E+03  0.44451494992E+03  0.00000000000E+00 0.  1.
          6    1    1    2  501    0  0.31941246662E+01 -0.90085850347E+01 -0.13793105856E+03  0.22068152155E+03  0.17200000000E+03 0.  1.
         -6    1    1    2    0  503 -0.31941246662E+01  0.90085850347E+01 -0.23723506631E+03  0.29318225343E+03  0.17200000000E+03 0.  1.
</event>
<event>
 4    1  0.5874615E+000  0.1894623E+03  0.7818608E-02  0.1158947E+00
         21   -1    0    0  503  502  0.00000000000E+00  0.00000000000E+00  0.39738145328E+03  0.39738145328E+03  0.00000000000E+00 0.  1.
         21   -1    0    0  501  503 -0.00000000000E+00 -0.00000000000E+00 -0.92891668330E+02  0.92891668330E+02  0.00000000000E+00 0.  1.
          6    1    1    2  501    0 -0.77898372089E+02  0.15614021611E+02  0.19294327674E+03  0.27041276243E+03  0.17200000000E+03 0.  1.
         -6    1    1    2    0  502  0.77898372089E+02 -0.15614021611E+02  0.11154650821E+03  0.21986035918E+03  0.17200000000E+03 0.  1.
</event>
<event>
 4    1  0.5874615E+000  0.3150155E+03  0.7818608E-02  0.1077966E+00
         21   -1    0    0  503  502  0.00000000000E+00  0.00000000000E+00  0.27238696002E+03  0.27238696002E+03  0.00000000000E+00 0. -1.
         21   -1    0    0  501  503 -0.00000000000E+00 -0.00000000000E+00 -0.37563198499E+03  0.37563198499E+03  0.00000000000E+00 0.  1.
          6    1    1    2  501    0 -0.17800279517E+03  0.19484813307E+03 -0.10786082810E+03  0.33296959064E+03  0.17200000000E+03 0. -1.
         -6    1    1    2    0  502  0.17800279517E+03 -0.19484813307E+03  0.46158031220E+01  0.31504935437E+03  0.17200000000E+03 0.  1.
</event>
<event>
 4    1  0.5874615E+000  0.1796113E+03  0.7818608E-02  0.1168180E+00
         21   -1    0    0  501  502  0.00000000000E+00  0.00000000000E+00  0.51872598930E+02  0.51872598930E+02  0.00000000000E+00 0.  1.
         21   -1    0    0  502  503 -0.00000000000E+00 -0.00000000000E+00 -0.10565050211E+04  0.10565050211E+04  0.00000000000E+00 0. -1.
          6    1    1    2  501    0 -0.43905579130E+02 -0.27359301315E+02 -0.14687894222E+03  0.23202080707E+03  0.17200000000E+03 0.  1.
         -6    1    1    2    0  503  0.43905579130E+02  0.27359301315E+02 -0.85775347992E+03  0.87635681292E+03  0.17200000000E+03 0. -1.
</event>
<event>
 4    1  0.5874615E+000  0.1848771E+03  0.7818608E-02  0.1163165E+00
         21   -1    0    0  503  502  0.00000000000E+00  0.00000000000E+00  0.57284108800E+02  0.57284108800E+02  0.00000000000E+00 0.  1.
         21   -1    0    0  501  503 -0.00000000000E+00 -0.00000000000E+00 -0.65388809623E+03  0.65388809623E+03  0.00000000000E+00 0.  1.
          6    1    1    2  501    0 -0.66685707377E+02  0.12188817642E+02 -0.19311301079E+03  0.26734282444E+03  0.17200000000E+03 0.  1.
         -6    1    1    2    0  502  0.66685707377E+02 -0.12188817642E+02 -0.40349097664E+03  0.44382938059E+03  0.17200000000E+03 0.  1.
</event>
<event>
 4    1  0.5874615E+000  0.1897004E+03  0.7818608E-02  0.1158732E+00
         21   -1    0    0  503  502  0.00000000000E+00  0.00000000000E+00  0.65017529378E+03  0.65017529378E+03  0.00000000000E+00 0. -1.
         21   -1    0    0  501  503 -0.00000000000E+00 -0.00000000000E+00 -0.55588576495E+02  0.55588576495E+02  0.00000000000E+00 0. -1.
          6    1    1    2  501    0  0.49297789482E+02  0.63023655021E+02  0.27410470959E+03  0.33334613386E+03  0.17200000000E+03 0. -1.
         -6    1    1    2    0  502 -0.49297789482E+02 -0.63023655021E+02  0.32048200769E+03  0.37241773641E+03  0.17200000000E+03 0. -1.
</event>
<event>
 4    1  0.5874615E+000  0.1791604E+03  0.7818608E-02  0.1168618E+00
         21   -1    0    0  501  502  0.00000000000E+00  0.00000000000E+00  0.42208221095E+02  0.42208221095E+02  0.00000000000E+00 0. -1.
         21   -1    0    0  502  503 -0.00000000000E+00 -0.00000000000E+00 -0.76668465145E+03  0.76668465145E+03  0.00000000000E+00 0. -1.
          6    1    1    2  501    0 -0.42815117552E+02 -0.26101907772E+02 -0.39862674122E+03  0.43703743855E+03  0.17200000000E+03 0. -1.
         -6    1    1    2    0  503  0.42815117552E+02  0.26101907772E+02 -0.32584968914E+03  0.37185543399E+03  0.17200000000E+03 0. -1.
</event>
<event>
 4    1  0.5874615E+000  0.2076022E+03  0.7818608E-02  0.1143479E+00
         21   -1    0    0  503  502  0.00000000000E+00  0.00000000000E+00  0.31866058526E+02  0.31866058526E+02  0.00000000000E+00 0.  1.
         21   -1    0    0  501  503 -0.00000000000E+00 -0.00000000000E+00 -0.15689924306E+04  0.15689924306E+04  0.00000000000E+00 0. -1.
          6    1    1    2  501    0 -0.11247302462E+03 -0.29402052465E+02 -0.47123257966E+03  0.51493573006E+03  0.17200000000E+03 0.  1.
         -6    1    1    2    0  502  0.11247302462E+03  0.29402052465E+02 -0.10658937924E+04  0.10859227591E+04  0.17200000000E+03 0. -1.
</event>
<event>
 4    1  0.5874615E+000  0.2176375E+03  0.7818608E-02  0.1135657E+00
         21   -1    0    0  503  502  0.00000000000E+00  0.00000000000E+00  0.80178057864E+02  0.80178057864E+02  0.00000000000E+00 0. -1.
         21   -1    0    0  501  503 -0.00000000000E+00 -0.00000000000E+00 -0.60409414403E+03  0.60409414403E+03  0.00000000000E+00 0. -1.
          6    1    1    2  501    0 -0.13191556367E+03  0.19503389666E+02 -0.21112956758E+03  0.30321905028E+03  0.17200000000E+03 0. -1.
         -6    1    1    2    0  502  0.13191556367E+03 -0.19503389666E+02 -0.31278651859E+03  0.38105315162E+03  0.17200000000E+03 0. -1.
</event>
<event>
 4    1  0.5874615E+000  0.1894249E+03  0.7818608E-02  0.1158981E+00
         21   -1    0    0  501  502  0.00000000000E+00  0.00000000000E+00  0.31099568081E+03  0.31099568081E+03  0.00000000000E+00 0. -1.
         21   -1    0    0  502  503 -0.00000000000E+00 -0.00000000000E+00 -0.22285802495E+03  0.22285802495E+03  0.00000000000E+00 0.  1.
          6    1    1    2  501    0 -0.68279140553E+02 -0.40444575062E+02  0.22944062625E+03  0.29753118435E+03  0.17200000000E+03 0. -1.
         -6    1    1    2    0  503  0.68279140553E+02  0.40444575062E+02 -0.14130297038E+03  0.23632252141E+03  0.17200000000E+03 0.  1.
</event>
<event>
 4    1  0.5874615E+000  0.1764432E+03  0.7818608E-02  0.1171290E+00
         21   -1    0    0  503  502  0.00000000000E+00  0.00000000000E+00  0.32946047379E+03  0.32946047379E+03  0.00000000000E+00 0. -1.
         21   -1    0    0  501  503 -0.00000000000E+00 -0.00000000000E+00 -0.13954614636E+03  0.13954614636E+03  0.00000000000E+00 0. -1.
          6    1    1    2  501    0  0.38378407685E+02  0.86771630851E+01  0.22820049892E+03  0.28845738514E+03  0.17200000000E+03 0. -1.
         -6    1    1    2    0  502 -0.38378407685E+02 -0.86771630851E+01 -0.38286171495E+02  0.18054923501E+03  0.17200000000E+03 0. -1.
</event>
<event>
 4    1  0.5874615E+000  0.1722072E+03  0.7818608E-02  0.1175565E+00
         21   -1    0    0  501  502  0.00000000000E+00  0.00000000000E+00  0.28418137577E+03  0.28418137577E+03  0.00000000000E+00 0.  1.
         21   -1    0    0  502  503 -0.00000000000E+00 -0.00000000000E+00 -0.11773622607E+03  0.11773622607E+03  0.00000000000E+00 0.  1.
          6    1    1    2  501    0 -0.68098021867E+01 -0.49949853800E+01  0.15097489161E+03  0.22901690152E+03  0.17200000000E+03 0.  1.
         -6    1    1    2    0  503  0.68098021867E+01  0.49949853800E+01  0.15470258088E+02  0.17290070032E+03  0.17200000000E+03 0.  1.
</event>
<event>
 4    1  0.5874615E+000  0.1903751E+03  0.7818608E-02  0.1158123E+00
         21   -1    0    0  501  502  0.00000000000E+00  0.00000000000E+00  0.16448554179E+04  0.16448554179E+04  0.00000000000E+00 0. -1.
         21   -1    0    0  502  503 -0.00000000000E+00 -0.00000000000E+00 -0.24535626869E+02  0.24535626869E+02  0.00000000000E+00 0.  1.
          6    1    1    2  501    0 -0.64174006278E+02 -0.50402303576E+02  0.10766882122E+04  0.10933893184E+04  0.17200000000E+03 0.  1.
         -6    1    1    2    0  503  0.64174006278E+02  0.50402303576E+02  0.54363157886E+03  0.57600172641E+03  0.17200000000E+03 0. -1.
</event>
<event>
 4    1  0.5874615E+000  0.1954501E+03  0.7818608E-02  0.1153636E+00
         21   -1    0    0  503  502  0.00000000000E+00  0.00000000000E+00  0.25393480025E+04  0.25393480025E+04  0.00000000000E+00 0.  1.
         21   -1    0    0  501  503 -0.00000000000E+00 -0.00000000000E+00 -0.54980254130E+02  0.54980254130E+02  0.00000000000E+00 0. -1.
          6    1    1    2  501    0 -0.30474739395E+02  0.87681398186E+02  0.13663531764E+03  0.23847420690E+03  0.17200000000E+03 0. -1.
         -6    1    1    2    0  502  0.30474739395E+02 -0.87681398186E+02  0.23477324307E+04  0.23558540497E+04  0.17200000000E+03 0.  1.
</event>
<event>
 4    1  0.5874615E+000  0.1774938E+03  0.7818608E-02  0.1170251E+00
         21   -1    0    0  503  502  0.00000000000E+00  0.00000000000E+00  0.18429951237E+04  0.18429951237E+04  0.00000000000E+00 0.  1.
         21   -1    0    0  501  503 -0.00000000000E+00 -0.00000000000E+00 -0.27461588245E+02  0.27461588245E+02  0.00000000000E+00 0.  1.
          6    1    1    2  501    0 -0.42966973619E+02 -0.85956907727E+01  0.33312791972E+03  0.37746292218E+03  0.17200000000E+03 0.  1.
         -6    1    1    2    0  502  0.42966973619E+02  0.85956907727E+01  0.14824056158E+04  0.14929937898E+04  0.17200000000E+03 0.  1.
</event>
<event>
 4    1  0.5874615E+000  0.2693790E+03  0.7818608E-02  0.1101636E+00
         21   -1    0    0  501  502  0.00000000000E+00  0.00000000000E+00  0.35519516722E+03  0.35519516722E+03  0.00000000000E+00 0. -1.
         21   -1    0    0  502  503 -0.00000000000E+00 -0.00000000000E+00 -0.50787414896E+03  0.50787414896E+03  0.00000000000E+00 0. -1.
          6    1    1    2  501    0 -0.17481647651E+03  0.11144605474E+03  0.25729637973E+03  0.37251369183E+03  0.17200000000E+03 0. -1.
         -6    1    1    2    0  503  0.17481647651E+03 -0.11144605474E+03 -0.40997536146E+03  0.49055562435E+03  0.17200000000E+03 0. -1.
</event>
<event>
 4    1  0.5874615E+000  0.2566177E+03  0.7818608E-02  0.1109193E+00
         21   -1    0    0  503  502  0.00000000000E+00  0.00000000000E+00  0.33611281978E+03  0.33611281978E+03  0.00000000000E+00 0.  1.
         21   -1    0    0  501  503 -0.00000000000E+00 -0.00000000000E+00 -0.19729039118E+03  0.19729039118E+03  0.00000000000E+00 0. -1.
          6    1    1    2  501    0  0.68736577919E+02 -0.17760606638E+03  0.47217499896E+02  0.26092551477E+03  0.17200000000E+03 0. -1.
         -6    1    1    2    0  502 -0.68736577919E+02  0.17760606638E+03  0.91604928704E+02  0.27247769619E+03  0.17200000000E+03 0. -1.
</event>
<event>
 4    1  0.5874615E+000  0.2580352E+03  0.7818608E-02  0.1108329E+00
         21   -1    0    0  501  502  0.00000000000E+00  0.00000000000E+00  0.80664722157E+03  0.80664722157E+03  0.00000000000E+00 0. -1.
         21   -1    0    0  502  503 -0.00000000000E+00 -0.00000000000E+00 -0.19695061920E+03  0.19695061920E+03  0.00000000000E+00 0. -1.
          6    1    1    2  501    0  0.19179157186E+03  0.14634391778E+02  0.68730358084E+03  0.73414466196E+03  0.17200000000E+03 0. -1.
         -6    1    1    2    0  503 -0.19179157186E+03 -0.14634391778E+02 -0.77606978471E+02  0.26945317880E+03  0.17200000000E+03 0. -1.
</event>
<event>
 4    1  0.5874615E+000  0.1765255E+03  0.7818608E-02  0.1171209E+00
         21   -1    0    0  503  502  0.00000000000E+00  0.00000000000E+00  0.12504272301E+03  0.12504272301E+03  0.00000000000E+00 0. -1.
         21   -1    0    0  501  503 -0.00000000000E+00 -0.00000000000E+00 -0.26328167323E+03  0.26328167323E+03  0.00000000000E+00 0. -1.
          6    1    1    2  501    0  0.21888007460E+02 -0.33138542991E+02 -0.11401544175E+03  0.21014463795E+03  0.17200000000E+03 0. -1.
         -6    1    1    2    0  502 -0.21888007460E+02  0.33138542991E+02 -0.24223508480E+02  0.17817975829E+03  0.17200000000E+03 0. -1.
</event>
<event>
 4    1  0.5874615E+000  0.1843835E+03  0.7818608E-02  0.1163627E+00
         21   -1    0    0  501  502  0.00000000000E+00  0.00000000000E+00  0.10815341061E+04  0.10815341061E+04  0.00000000000E+00 0. -1.
         21   -1    0    0  502  503 -0.00000000000E+00 -0.00000000000E+00 -0.44321069856E+02  0.44321069856E+02  0.00000000000E+00 0. -1.
          6    1    1    2  501    0  0.43330070146E+02  0.50356454559E+02  0.82214898034E+03  0.84257119187E+03  0.17200000000E+03 0. -1.
         -6    1    1    2    0  503 -0.43330070146E+02 -0.50356454559E+02  0.21506405588E+03  0.28328398406E+03  0.17200000000E+03 0. -1.
</event>
<event>
 4    1  0.5874615E+000  0.1842220E+03  0.7818608E-02  0.1163778E+00
         21   -1    0    0  503  502  0.00000000000E+00  0.00000000000E+00  0.46760550368E+03  0.46760550368E+03  0.00000000000E+00 0. -1.
         21   -1    0    0  501  503 -0.00000000000E+00 -0.00000000000E+00 -0.16985941274E+03  0.16985941274E+03  0.00000000000E+00 0. -1.
          6    1    1    2  501    0 -0.36005018382E+02  0.55293660568E+02 -0.92337893854E+02  0.20606803947E+03  0.17200000000E+03 0. -1.
         -6    1    1    2    0  502  0.36005018382E+02 -0.55293660568E+02  0.39008398480E+03  0.43139687695E+03  0.17200000000E+03 0. -1.
</event>
<event>
 4    1  0.5874615E+000  0.1856326E+03  0.7818608E-02  0.1162460E+00
         21   -1    0    0  503  502  0.00000000000E+00  0.00000000000E+00  0.76856523727E+02  0.76856523727E+02  0.00000000000E+00 0. -1.
         21   -1    0    0  501  503 -0.00000000000E+00 -0.00000000000E+00 -0.69151532799E+03  0.69151532799E+03  0.00000000000E+00 0. -1.
          6    1    1    2  501    0 -0.27486665798E+02  0.64186939916E+02 -0.53514392463E+03  0.56642607648E+03  0.17200000000E+03 0. -1.
         -6    1    1    2    0  502  0.27486665798E+02 -0.64186939916E+02 -0.79514879637E+02  0.20194577524E+03  0.17200000000E+03 0. -1.
</event>
<event>
 4    1  0.5874615E+000  0.2528151E+03  0.7818608E-02  0.1111539E+00
         21   -1    0    0  503  502  0.00000000000E+00  0.00000000000E+00  0.60794319978E+03  0.60794319978E+03  0.00000000000E+00 0.  1.
         21   -1    0    0  501  503 -0.00000000000E+00 -0.00000000000E+00 -0.17103265765E+03  0.17103265765E+03  0.00000000000E+00 0.  1.
          6    1    1    2  501    0  0.70825891875E+02 -0.17121673905E+03  0.46021996648E+03  0.52508846516E+03  0.17200000000E+03 0.  1.
         -6    1    1    2    0  502 -0.70825891875E+02  0.17121673905E+03 -0.23309424360E+02  0.25388739227E+03  0.17200000000E+03 0.  1.
</event>
<event>
 4    1  0.5874615E+000  0.1879810E+03  0.7818608E-02  0.1160295E+00
         21   -1    0    0  501  502  0.00000000000E+00  0.00000000000E+00  0.96989732443E+03  0.96989732443E+03  0.00000000000E+00 0.  1.
         21   -1    0    0  502  503 -0.00000000000E+00 -0.00000000000E+00 -0.78816415274E+02  0.78816415274E+02  0.00000000000E+00 0.  1.
          6    1    1    2  501    0  0.70772550842E+02 -0.27277928364E+02  0.83005572005E+03  0.85107540073E+03  0.17200000000E+03 0.  1.
         -6    1    1    2    0  503 -0.70772550842E+02  0.27277928364E+02  0.61025189101E+02  0.19763833898E+03  0.17200000000E+03 0.  1.
</event>
<event>
 4    1  0.5874615E+000  0.1850948E+03  0.7818608E-02  0.1162961E+00
         21   -1    0    0  503  502  0.00000000000E+00  0.00000000000E+00  0.27107268891E+03  0.27107268891E+03  0.00000000000E+00 0.  1.
         21   -1    0    0  501  503 -0.00000000000E+00 -0.00000000000E+00 -0.16090935340E+03  0.16090935340E+03  0.00000000000E+00 0. -1.
          6    1    1    2  501    0 -0.35126555497E+02  0.58670250319E+02 -0.44963250908E+02  0.19047773388E+03  0.17200000000E+03 0.  1.
         -6    1    1    2    0  502  0.35126555497E+02 -0.58670250319E+02  0.15512658642E+03  0.24150430843E+03  0.17200000000E+03 0.  1.
</event>
<event>
 4    1  0.5874615E+000  0.1901340E+03  0.7818608E-02  0.1158341E+00
         21   -1    0    0  503  502  0.00000000000E+00  0.00000000000E+00  0.14285282966E+03  0.14285282966E+03  0.00000000000E+00 0.  1.
         21   -1    0    0  501  503 -0.00000000000E+00 -0.00000000000E+00 -0.81886923702E+03  0.81886923702E+03  0.00000000000E+00 0.  1.
          6    1    1    2  501    0 -0.95842732920E+01  0.80467859593E+02 -0.73771885226E+03  0.76182677802E+03  0.17200000000E+03 0.  1.
         -6    1    1    2    0  502  0.95842732920E+01 -0.80467859593E+02  0.61702444907E+02  0.19989528866E+03  0.17200000000E+03 0.  1.
</event>
<event>
 4    1  0.5874615E+000  0.1724136E+03  0.7818608E-02  0.1175354E+00
         21   -1    0    0  501  502  0.00000000000E+00  0.00000000000E+00  0.34099169074E+03  0.34099169074E+03  0.00000000000E+00 0. -1.
         21   -1    0    0  502  503 -0.00000000000E+00 -0.00000000000E+00 -0.88975549870E+02  0.88975549870E+02  0.00000000000E+00 0. -1.
          6    1    1    2  501    0  0.11876083913E+02 -0.11928108080E+01  0.95438389132E+02  0.19706585267E+03  0.17200000000E+03 0.  1.
         -6    1    1    2    0  503 -0.11876083913E+02  0.11928108080E+01  0.15657775173E+03  0.23290138794E+03  0.17200000000E+03 0.  1.
</event>
<event>
 4    1  0.5874615E+000  0.1800886E+03  0.7818608E-02  0.1167717E+00
         21   -1    0    0  501  502  0.00000000000E+00  0.00000000000E+00  0.21003448196E+03  0.21003448196E+03  0.00000000000E+00 0.  1.
         21   -1    0    0  502  503 -0.00000000000E+00 -0.00000000000E+00 -0.24784843585E+03  0.24784843585E+03  0.00000000000E+00 0.  1.
          6    1    1    2  501    0 -0.19638640184E+02 -0.49620973008E+02  0.12166174040E+03  0.21733268559E+03  0.17200000000E+03 0.  1.
         -6    1    1    2    0  503  0.19638640184E+02  0.49620973008E+02 -0.15947569429E+03  0.24055023222E+03  0.17200000000E+03 0.  1.
</event>
<event>
 4    1  0.5874615E+000  0.1764018E+03  0.7818608E-02  0.1171332E+00
         21   -1    0    0  503  502  0.00000000000E+00  0.00000000000E+00  0.73738571699E+03  0.73738571699E+03  0.00000000000E+00 0. -1.
         21   -1    0    0  501  503 -0.00000000000E+00 -0.00000000000E+00 -0.45635010045E+02  0.45635010045E+02  0.00000000000E+00 0. -1.
          6    1    1    2  501    0 -0.32509779673E+01 -0.39025965230E+02  0.23846027247E+03  0.29661573857E+03  0.17200000000E+03 0. -1.
         -6    1    1    2    0  502  0.32509779673E+01  0.39025965230E+02  0.45329043447E+03  0.48640498847E+03  0.17200000000E+03 0. -1.
</event>
<event>
 4    1  0.5874615E+000  0.1842034E+03  0.7818608E-02  0.1163796E+00
         21   -1    0    0  503  502  0.00000000000E+00  0.00000000000E+00  0.34531918845E+03  0.34531918845E+03  0.00000000000E+00 0.  1.
         21   -1    0    0  501  503 -0.00000000000E+00 -0.00000000000E+00 -0.26123952812E+03  0.26123952812E+03  0.00000000000E+00 0.  1.
          6    1    1    2  501    0  0.44473128202E+02 -0.48672792969E+02 -0.19750707603E+03  0.27007396208E+03  0.17200000000E+03 0.  1.
         -6    1    1    2    0  502 -0.44473128202E+02  0.48672792969E+02  0.28158673636E+03  0.33648475449E+03  0.17200000000E+03 0.  1.
</event>
<event>
 4    1  0.5874615E+000  0.1726446E+03  0.7818608E-02  0.1175118E+00
         21   -1    0    0  501  502  0.00000000000E+00  0.00000000000E+00  0.33431074656E+03  0.33431074656E+03  0.00000000000E+00 0. -1.
         21   -1    0    0  502  503 -0.00000000000E+00 -0.00000000000E+00 -0.15892102387E+03  0.15892102387E+03  0.00000000000E+00 0. -1.
          6    1    1    2  501    0  0.77563957908E+01 -0.12728025645E+02  0.25109255975E+03  0.30471894899E+03  0.17200000000E+03 0. -1.
         -6    1    1    2    0  503 -0.77563957908E+01  0.12728025645E+02 -0.75702837052E+02  0.18851282145E+03  0.17200000000E+03 0. -1.
</event>
<event>
 4    1  0.5874615E+000  0.2393657E+03  0.7818608E-02  0.1120216E+00
         21   -1    0    0  501  502  0.00000000000E+00  0.00000000000E+00  0.51817936177E+03  0.51817936177E+03  0.00000000000E+00 0. -1.
         21   -1    0    0  502  503 -0.00000000000E+00 -0.00000000000E+00 -0.11439038388E+03  0.11439038388E+03  0.00000000000E+00 0.  1.
          6    1    1    2  501    0 -0.16627441916E+03 -0.80460235102E+01  0.25968362739E+03  0.35317348045E+03  0.17200000000E+03 0.  1.
         -6    1    1    2    0  503  0.16627441916E+03  0.80460235102E+01  0.14410535050E+03  0.27939626519E+03  0.17200000000E+03 0. -1.
</event>
<event>
 4    1  0.5874615E+000  0.1917819E+03  0.7818608E-02  0.1156864E+00
         21   -1    0    0  503  502  0.00000000000E+00  0.00000000000E+00  0.13852443875E+04  0.13852443875E+04  0.00000000000E+00 0.  1.
         21   -1    0    0  501  503 -0.00000000000E+00 -0.00000000000E+00 -0.35200777209E+02  0.35200777209E+02  0.00000000000E+00 0.  1.
          6    1    1    2  501    0 -0.17980466215E+02 -0.82903584730E+02  0.32296841741E+03  0.37561802429E+03  0.17200000000E+03 0. -1.
         -6    1    1    2    0  502  0.17980466215E+02  0.82903584730E+02  0.10270751929E+04  0.10448271404E+04  0.17200000000E+03 0. -1.
</event>
<event>
 4    1  0.5874615E+000  0.1835996E+03  0.7818608E-02  0.1164364E+00
         21   -1    0    0  503  502  0.00000000000E+00  0.00000000000E+00  0.17821385093E+03  0.17821385093E+03  0.00000000000E+00 0.  1.
         21   -1    0    0  501  503 -0.00000000000E+00 -0.00000000000E+00 -0.22657888913E+03  0.22657888913E+03  0.00000000000E+00 0.  1.
          6    1    1    2  501    0 -0.53586490615E+02  0.35402228977E+02 -0.10644596301E+03  0.21222528792E+03  0.17200000000E+03 0.  1.
         -6    1    1    2    0  502  0.53586490615E+02 -0.35402228977E+02  0.58080924814E+02  0.19256745213E+03  0.17200000000E+03 0.  1.
</event>
<event>
 4    1  0.5874615E+000  0.1745202E+03  0.7818608E-02  0.1173214E+00
         21   -1    0    0  503  502  0.00000000000E+00  0.00000000000E+00  0.13182907067E+03  0.13182907067E+03  0.00000000000E+00 0.  1.
         21   -1    0    0  501  503 -0.00000000000E+00 -0.00000000000E+00 -0.23134872860E+03  0.23134872860E+03  0.00000000000E+00 0.  1.
          6    1    1    2  501    0 -0.27055618339E+02  0.11886504808E+02 -0.56433407196E+02  0.18341762437E+03  0.17200000000E+03 0.  1.
         -6    1    1    2    0  502  0.27055618339E+02 -0.11886504808E+02 -0.43086250738E+02  0.17976017491E+03  0.17200000000E+03 0.  1.
</event>
<event>
 4    1  0.5874615E+000  0.2788229E+03  0.7818608E-02  0.1096334E+00
         21   -1    0    0  503  502  0.00000000000E+00  0.00000000000E+00  0.13496180158E+04  0.13496180158E+04  0.00000000000E+00 0. -1.
         21   -1    0    0  501  503 -0.00000000000E+00 -0.00000000000E+00 -0.72125645284E+02  0.72125645284E+02  0.00000000000E+00 0.  1.
          6    1    1    2  501    0 -0.19770646224E+03 -0.95238344428E+02  0.31976302748E+03  0.42425296841E+03  0.17200000000E+03 0.  1.
         -6    1    1    2    0  502  0.19770646224E+03  0.95238344428E+02  0.95772934303E+03  0.99749069267E+03  0.17200000000E+03 0. -1.
</event>
<event>
 4    1  0.5874615E+000  0.1733389E+03  0.7818608E-02  0.1174410E+00
         21   -1    0    0  501  502  0.00000000000E+00  0.00000000000E+00  0.11595543195E+04  0.11595543195E+04  0.00000000000E+00 0.  1.
         21   -1    0    0  502  503 -0.00000000000E+00 -0.00000000000E+00 -0.40071350175E+02  0.40071350175E+02  0.00000000000E+00 0.  1.
          6    1    1    2  501    0 -0.19877544630E+02 -0.82013525101E+01  0.91629139331E+03  0.93254291934E+03  0.17200000000E+03 0.  1.
         -6    1    1    2    0  503  0.19877544630E+02  0.82013525101E+01  0.20319157603E+03  0.26708275035E+03  0.17200000000E+03 0.  1.
</event>
<event>
 4    1  0.5874615E+000  0.1934280E+03  0.7818608E-02  0.1155405E+00
         21   -1    0    0  503  502  0.00000000000E+00  0.00000000000E+00  0.10426361708E+03  0.10426361708E+03  0.00000000000E+00 0.  1.
         21   -1    0    0  501  503 -0.00000000000E+00 -0.00000000000E+00 -0.50518015956E+03  0.50518015956E+03  0.00000000000E+00 0.  1.
          6    1    1    2  501    0  0.86328393858E+02  0.19436801186E+02 -0.36446294668E+03  0.41261073705E+03  0.17200000000E+03 0.  1.
         -6    1    1    2    0  502 -0.86328393858E+02 -0.19436801186E+02 -0.36453595796E+02  0.19683303959E+03  0.17200000000E+03 0.  1.
</event>
<event>
 4    1  0.5874615E+000  0.1728905E+03  0.7818608E-02  0.1174867E+00
         21   -1    0    0  501  502  0.00000000000E+00  0.00000000000E+00  0.20497697816E+03  0.20497697816E+03  0.00000000000E+00 0. -1.
         21   -1    0    0  502  503 -0.00000000000E+00 -0.00000000000E+00 -0.15188132576E+03  0.15188132576E+03  0.00000000000E+00 0. -1.
          6    1    1    2  501    0 -0.99675665070E-01  0.17524505635E+02 -0.90773430022E+01  0.17312861228E+03  0.17200000000E+03 0. -1.
         -6    1    1    2    0  503  0.99675665070E-01 -0.17524505635E+02  0.62172995397E+02  0.18372969164E+03  0.17200000000E+03 0. -1.
</event>
<event>
 4    1  0.5874615E+000  0.1759152E+03  0.7818608E-02  0.1171816E+00
         21   -1    0    0  503  502  0.00000000000E+00  0.00000000000E+00  0.54981748538E+03  0.54981748538E+03  0.00000000000E+00 0.  1.
         21   -1    0    0  501  503 -0.00000000000E+00 -0.00000000000E+00 -0.57367710245E+02  0.57367710245E+02  0.00000000000E+00 0.  1.
          6    1    1    2  501    0 -0.32627810768E+02 -0.17250454624E+02  0.28794371009E+03  0.33742811442E+03  0.17200000000E+03 0.  1.
         -6    1    1    2    0  502  0.32627810768E+02  0.17250454624E+02  0.20450606505E+03  0.26975708121E+03  0.17200000000E+03 0.  1.
</event>
<event>
 4    1  0.5874615E+000  0.2522123E+03  0.7818608E-02  0.1111915E+00
         21   -1    0    0  501  502  0.00000000000E+00  0.00000000000E+00  0.12155183136E+03  0.12155183136E+03  0.00000000000E+00 0. -1.
         21   -1    0    0  502  503 -0.00000000000E+00 -0.00000000000E+00 -0.78455541044E+03  0.78455541044E+03  0.00000000000E+00 0.  1.
          6    1    1    2  501    0 -0.86938022465E+02 -0.16269238806E+03 -0.70074931533E+02  0.26176617221E+03  0.17200000000E+03 0. -1.
         -6    1    1    2    0  503  0.86938022465E+02  0.16269238806E+03 -0.59292864755E+03  0.64434106960E+03  0.17200000000E+03 0.  1.
</event>
<event>
 4    1  0.5874615E+000  0.1857148E+03  0.7818608E-02  0.1162384E+00
         21   -1    0    0  503  502  0.00000000000E+00  0.00000000000E+00  0.13555893075E+03  0.13555893075E+03  0.00000000000E+00 0.  1.
         21   -1    0    0  501  503 -0.00000000000E+00 -0.00000000000E+00 -0.32336777522E+03  0.32336777522E+03  0.00000000000E+00 0.  1.
          6    1    1    2  501    0  0.67724592077E+02  0.17871080083E+02 -0.19985411606E+03  0.27282166992E+03  0.17200000000E+03 0.  1.
         -6    1    1    2    0  502 -0.67724592077E+02 -0.17871080083E+02  0.12045271588E+02  0.18610503605E+03  0.17200000000E+03 0.  1.
</event>
<event>
 4    1  0.5874615E+000  0.2500360E+03  0.7818608E-02  0.1113282E+00
         21   -1    0    0  501  502  0.00000000000E+00  0.00000000000E+00  0.92118027373E+02  0.92118027373E+02  0.00000000000E+00 0.  1.
         21   -1    0    0  502  503 -0.00000000000E+00 -0.00000000000E+00 -0.69198490030E+03  0.69198490030E+03  0.00000000000E+00 0.  1.
          6    1    1    2  501    0  0.18109121904E+03 -0.11830127471E+02 -0.35431118917E+03  0.43365239571E+03  0.17200000000E+03 0.  1.
         -6    1    1    2    0  503 -0.18109121904E+03  0.11830127471E+02 -0.24555568376E+03  0.35045053197E+03  0.17200000000E+03 0.  1.
</event>
<event>
 4    1  0.5874615E+000  0.1779062E+03  0.7818608E-02  0.1169845E+00
         21   -1    0    0  503  502  0.00000000000E+00  0.00000000000E+00  0.52877318315E+02  0.52877318315E+02  0.00000000000E+00 0.  1.
         21   -1    0    0  501  503 -0.00000000000E+00 -0.00000000000E+00 -0.60251657809E+03  0.60251657809E+03  0.00000000000E+00 0.  1.
          6    1    1    2  501    0  0.19212862017E+02  0.41200528078E+02 -0.30135123154E+03  0.34994739938E+03  0.17200000000E+03 0.  1.
         -6    1    1    2    0  502 -0.19212862017E+02 -0.41200528078E+02 -0.24828802823E+03  0.30544649702E+03  0.17200000000E+03 0.  1.
</event>
<event>
 4    1  0.5874615E+000  0.2293718E+03  0.7818608E-02  0.1127083E+00
         21   -1    0    0  503  502  0.00000000000E+00  0.00000000000E+00  0.12918308654E+04  0.12918308654E+04  0.00000000000E+00 0. -1.
         21   -1    0    0  501  503 -0.00000000000E+00 -0.00000000000E+00 -0.47628067323E+02  0.47628067323E+02  0.00000000000E+00 0. -1.
          6    1    1    2  501    0  0.12622204463E+03 -0.84234299740E+02  0.36715447347E+03  0.43291318898E+03  0.17200000000E+03 0. -1.
         -6    1    1    2    0  502 -0.12622204463E+03  0.84234299740E+02  0.87704832458E+03  0.90654574372E+03  0.17200000000E+03 0. -1.
</event>
<event>
 4    1  0.5874615E+000  0.1724334E+03  0.7818608E-02  0.1175334E+00
         21   -1    0    0  501  502  0.00000000000E+00  0.00000000000E+00  0.67269329252E+02  0.67269329252E+02  0.00000000000E+00 0.  1.
         21   -1    0    0  502  503 -0.00000000000E+00 -0.00000000000E+00 -0.48666484225E+03  0.48666484225E+03  0.00000000000E+00 0.  1.
          6    1    1    2  501    0  0.37556996113E+01  0.11626171704E+02 -0.12579437168E+03  0.21344202279E+03  0.17200000000E+03 0.  1.
         -6    1    1    2    0  503 -0.37556996113E+01 -0.11626171704E+02 -0.29360114132E+03  0.34049214871E+03  0.17200000000E+03 0.  1.
</event>
<event>
 4    1  0.5874615E+000  0.1818699E+03  0.7818608E-02  0.1166006E+00
         21   -1    0    0  501  502  0.00000000000E+00  0.00000000000E+00  0.11807969844E+04  0.11807969844E+04  0.00000000000E+00 0. -1.
         21   -1    0    0  502  503 -0.00000000000E+00 -0.00000000000E+00 -0.32931846596E+02  0.32931846596E+02  0.00000000000E+00 0. -1.
          6    1    1    2  501    0 -0.23317747722E+02  0.54304162437E+02  0.80849199841E+03  0.82869534263E+03  0.17200000000E+03 0. -1.
         -6    1    1    2    0  503  0.23317747722E+02 -0.54304162437E+02  0.33937313942E+03  0.38503348838E+03  0.17200000000E+03 0. -1.
</event>
<event>
 4    1  0.5874615E+000  0.2119235E+03  0.7818608E-02  0.1140052E+00
         21   -1    0    0  501  502  0.00000000000E+00  0.00000000000E+00  0.22392338409E+03  0.22392338409E+03  0.00000000000E+00 0. -1.
         21   -1    0    0  502  503 -0.00000000000E+00 -0.00000000000E+00 -0.41324520889E+03  0.41324520889E+03  0.00000000000E+00 0. -1.
          6    1    1    2  501    0  0.72425850318E+02 -0.10040949635E+03  0.13388963747E+03  0.25067510003E+03  0.17200000000E+03 0. -1.
         -6    1    1    2    0  503 -0.72425850318E+02  0.10040949635E+03 -0.32321146227E+03  0.38649349295E+03  0.17200000000E+03 0. -1.
</event>
<event>
 4    1  0.5874615E+000  0.1847461E+03  0.7818608E-02  0.1163287E+00
         21   -1    0    0  501  502  0.00000000000E+00  0.00000000000E+00  0.11259804085E+03  0.11259804085E+03  0.00000000000E+00 0.  1.
         21   -1    0    0  502  503 -0.00000000000E+00 -0.00000000000E+00 -0.45901349223E+03  0.45901349223E+03  0.00000000000E+00 0.  1.
          6    1    1    2  501    0  0.27178038458E+02  0.61712922036E+02 -0.66490907368E+01  0.18486573757E+03  0.17200000000E+03 0.  1.
         -6    1    1    2    0  503 -0.27178038458E+02 -0.61712922036E+02 -0.33976636065E+03  0.38674579551E+03  0.17200000000E+03 0.  1.
</event>
<event>
 4    1  0.5874615E+000  0.1819490E+03  0.7818608E-02  0.1165930E+00
         21   -1    0    0  503  502  0.00000000000E+00  0.00000000000E+00  0.38611899642E+03  0.38611899642E+03  0.00000000000E+00 0. -1.
         21   -1    0    0  501  503 -0.00000000000E+00 -0.00000000000E+00 -0.11151481854E+03  0.11151481854E+03  0.00000000000E+00 0. -1.
          6    1    1    2  501    0 -0.26732253500E+02  0.52979412500E+02  0.17677522265E+02  0.18280570647E+03  0.17200000000E+03 0. -1.
         -6    1    1    2    0  502  0.26732253500E+02 -0.52979412500E+02  0.25692665561E+03  0.31482810848E+03  0.17200000000E+03 0. -1.
</event>
<event>
 4    1  0.5874615E+000  0.1985960E+03  0.7818608E-02  0.1150929E+00
         21   -1    0    0  501  502  0.00000000000E+00  0.00000000000E+00  0.68581182635E+03  0.68581182635E+03  0.00000000000E+00 0.  1.
         21   -1    0    0  502  503 -0.00000000000E+00 -0.00000000000E+00 -0.75110681979E+02  0.75110681979E+02  0.00000000000E+00 0.  1.
          6    1    1    2  501    0  0.96192336711E+02  0.24564643845E+02  0.48952784468E+03  0.52827823927E+03  0.17200000000E+03 0.  1.
         -6    1    1    2    0  503 -0.96192336711E+02 -0.24564643845E+02  0.12117329969E+03  0.23264426906E+03  0.17200000000E+03 0.  1.
</event>
<event>
 4    1  0.5874615E+000  0.1756580E+03  0.7818608E-02  0.1172073E+00
         21   -1    0    0  503  502  0.00000000000E+00  0.00000000000E+00  0.12921236746E+03  0.12921236746E+03  0.00000000000E+00 0.  1.
         21   -1    0    0  501  503 -0.00000000000E+00 -0.00000000000E+00 -0.24284209519E+03  0.24284209519E+03  0.00000000000E+00 0.  1.
          6    1    1    2  501    0  0.23520385232E+02 -0.26805426186E+02 -0.80819223050E+02  0.19335843971E+03  0.17200000000E+03 0.  1.
         -6    1    1    2    0  502 -0.23520385232E+02  0.26805426186E+02 -0.32810504674E+02  0.17869602293E+03  0.17200000000E+03 0.  1.
</event>
<event>
 4    1  0.5874615E+000  0.1803321E+03  0.7818608E-02  0.1167482E+00
         21   -1    0    0  501  502  0.00000000000E+00  0.00000000000E+00  0.68157851968E+03  0.68157851968E+03  0.00000000000E+00 0.  1.
         21   -1    0    0  502  503 -0.00000000000E+00 -0.00000000000E+00 -0.75175540898E+02  0.75175540898E+02  0.00000000000E+00 0.  1.
          6    1    1    2  501    0  0.12638515619E+01  0.54167187455E+02  0.53189947811E+03  0.56163754890E+03  0.17200000000E+03 0.  1.
         -6    1    1    2    0  503 -0.12638515619E+01 -0.54167187455E+02  0.74503500671E+02  0.19511651168E+03  0.17200000000E+03 0.  1.
</event>
<event>
 4    1  0.5874615E+000  0.2026258E+03  0.7818608E-02  0.1147542E+00
         21   -1    0    0  501  502  0.00000000000E+00  0.00000000000E+00  0.12438202141E+03  0.12438202141E+03  0.00000000000E+00 0.  1.
         21   -1    0    0  502  503 -0.00000000000E+00 -0.00000000000E+00 -0.50034611315E+03  0.50034611315E+03  0.00000000000E+00 0.  1.
          6    1    1    2  501    0 -0.10624180156E+03 -0.13634653272E+02 -0.57698074042E+01  0.20270795457E+03  0.17200000000E+03 0.  1.
         -6    1    1    2    0  503  0.10624180156E+03  0.13634653272E+02 -0.37019428433E+03  0.42202017999E+03  0.17200000000E+03 0.  1.
</event>
<event>
 4    1  0.5874615E+000  0.1884178E+03  0.7818608E-02  0.1159896E+00
         21   -1    0    0  501  502  0.00000000000E+00  0.00000000000E+00  0.11362501858E+03  0.11362501858E+03  0.00000000000E+00 0.  1.
         21   -1    0    0  502  503 -0.00000000000E+00 -0.00000000000E+00 -0.26530840949E+04  0.26530840949E+04  0.00000000000E+00 0.  1.
          6    1    1    2  501    0 -0.69328504761E+02  0.33328833402E+02  0.29618462377E+02  0.19073150244E+03  0.17200000000E+03 0.  1.
         -6    1    1    2    0  503  0.69328504761E+02 -0.33328833402E+02 -0.25690775387E+04  0.25759776110E+04  0.17200000000E+03 0.  1.
</event>
<event>
 4    1  0.5874615E+000  0.1771025E+03  0.7818608E-02  0.1170637E+00
         21   -1    0    0  503  502  0.00000000000E+00  0.00000000000E+00  0.17372431045E+04  0.17372431045E+04  0.00000000000E+00 0. -1.
         21   -1    0    0  501  503 -0.00000000000E+00 -0.00000000000E+00 -0.22634863454E+02  0.22634863454E+02  0.00000000000E+00 0. -1.
          6    1    1    2  501    0  0.42064396573E+02  0.34481129963E+01  0.46147582109E+03  0.49429266269E+03  0.17200000000E+03 0. -1.
         -6    1    1    2    0  502 -0.42064396573E+02 -0.34481129963E+01  0.12531324200E+04  0.12655853053E+04  0.17200000000E+03 0. -1.
</event>
<event>
 4    1  0.5874615E+000  0.1779218E+03  0.7818608E-02  0.1169830E+00
         21   -1    0    0  503  502  0.00000000000E+00  0.00000000000E+00  0.73577567133E+03  0.73577567133E+03  0.00000000000E+00 0. -1.
         21   -1    0    0  501  503 -0.00000000000E+00 -0.00000000000E+00 -0.14621686584E+03  0.14621686584E+03  0.00000000000E+00 0. -1.
          6    1    1    2  501    0  0.79089556467E+01 -0.44828557101E+02 -0.75697058678E+02  0.19335510286E+03  0.17200000000E+03 0. -1.
         -6    1    1    2    0  502 -0.79089556467E+01  0.44828557101E+02  0.66525586417E+03  0.68863743430E+03  0.17200000000E+03 0. -1.
</event>
<event>
 4    1  0.5874615E+000  0.2274972E+03  0.7818608E-02  0.1128414E+00
         21   -1    0    0  503  502  0.00000000000E+00  0.00000000000E+00  0.20093761246E+03  0.20093761246E+03  0.00000000000E+00 0. -1.
         21   -1    0    0  501  503 -0.00000000000E+00 -0.00000000000E+00 -0.38337743976E+03  0.38337743976E+03  0.00000000000E+00 0.  1.
          6    1    1    2  501    0  0.12549872018E+03 -0.80131328837E+02 -0.25858374976E+03  0.34441328991E+03  0.17200000000E+03 0.  1.
         -6    1    1    2    0  502 -0.12549872018E+03  0.80131328837E+02  0.76143922469E+02  0.23990176230E+03  0.17200000000E+03 0. -1.
</event>
<event>
 4    1  0.5874615E+000  0.1722010E+03  0.7818608E-02  0.1175572E+00
         21   -1    0    0  503  502  0.00000000000E+00  0.00000000000E+00  0.16243119091E+03  0.16243119091E+03  0.00000000000E+00 0. -1.
         21   -1    0    0  501  503 -0.00000000000E+00 -0.00000000000E+00 -0.18485802688E+03  0.18485802688E+03  0.00000000000E+00 0. -1.
          6    1    1    2  501    0  0.54384725554E+01 -0.62942538836E+01  0.81535378971E+01  0.17239395232E+03  0.17200000000E+03 0.  1.
         -6    1    1    2    0  502 -0.54384725554E+01  0.62942538836E+01 -0.30580373867E+02  0.17489526546E+03  0.17200000000E+03 0.  1.
</event>
<event>
 4    1  0.5874615E+000  0.1998686E+03  0.7818608E-02  0.1149850E+00
         21   -1    0    0  503  502  0.00000000000E+00  0.00000000000E+00  0.94459239032E+03  0.94459239032E+03  0.00000000000E+00 0. -1.
         21   -1    0    0  501  503 -0.00000000000E+00 -0.00000000000E+00 -0.49423829934E+02  0.49423829934E+02  0.00000000000E+00 0. -1.
          6    1    1    2  501    0 -0.83810031134E+02  0.57786939517E+02  0.25876947526E+03  0.32696955978E+03  0.17200000000E+03 0. -1.
         -6    1    1    2    0  502  0.83810031134E+02 -0.57786939517E+02  0.63639908513E+03  0.66704666048E+03  0.17200000000E+03 0. -1.
</event>
<event>
 4    1  0.5874615E+000  0.1804592E+03  0.7818608E-02  0.1167359E+00
         21   -1    0    0  501  502  0.00000000000E+00  0.00000000000E+00  0.21128556433E+03  0.21128556433E+03  0.00000000000E+00 0.  1.
         21   -1    0    0  502  503 -0.00000000000E+00 -0.00000000000E+00 -0.51515112714E+03  0.51515112714E+03  0.00000000000E+00 0.  1.
          6    1    1    2  501    0  0.50597951031E+02  0.20527455744E+02  0.15213227669E+03  0.23602914798E+03  0.17200000000E+03 0.  1.
         -6    1    1    2    0  503 -0.50597951031E+02 -0.20527455744E+02 -0.45599783950E+03  0.49040754349E+03  0.17200000000E+03 0.  1.
</event>
<event>
 4    1  0.5874615E+000  0.2062690E+03  0.7818608E-02  0.1144555E+00
         21   -1    0    0  503  502  0.00000000000E+00  0.00000000000E+00  0.31057625771E+03  0.31057625771E+03  0.00000000000E+00 0. -1.
         21   -1    0    0  501  503 -0.00000000000E+00 -0.00000000000E+00 -0.33978539370E+03  0.33978539370E+03  0.00000000000E+00 0. -1.
          6    1    1    2  501    0  0.23488326039E+02 -0.11140557939E+03 -0.26582094879E+03  0.33646349192E+03  0.17200000000E+03 0. -1.
         -6    1    1    2    0  502 -0.23488326039E+02  0.11140557939E+03  0.23661181280E+03  0.31389815950E+03  0.17200000000E+03 0. -1.
</event>
<event>
 4    1  0.5874615E+000  0.1836729E+03  0.7818608E-02  0.1164295E+00
         21   -1    0    0  503  502  0.00000000000E+00  0.00000000000E+00  0.23482050834E+03  0.23482050834E+03  0.00000000000E+00 0.  1.
         21   -1    0    0  501  503 -0.00000000000E+00 -0.00000000000E+00 -0.14380513192E+03  0.14380513192E+03  0.00000000000E+00 0.  1.
          6    1    1    2  501    0 -0.54375328799E+02 -0.34569399728E+02  0.51396513043E+02  0.19072839677E+03  0.17200000000E+03 0. -1.
         -6    1    1    2    0  502  0.54375328799E+02  0.34569399728E+02  0.39618863373E+02  0.18789724350E+03  0.17200000000E+03 0. -1.
</event>
<event>
 4    1  0.5874615E+000  0.1785908E+03  0.7818608E-02  0.1169174E+00
         21   -1    0    0  503  502  0.00000000000E+00  0.00000000000E+00  0.14520750715E+03  0.14520750715E+03  0.00000000000E+00 0.  1.
         21   -1    0    0  501  503 -0.00000000000E+00 -0.00000000000E+00 -0.51391980114E+03  0.51391980114E+03  0.00000000000E+00 0.  1.
          6    1    1    2  501    0  0.22838890759E+02 -0.42297437943E+02 -0.43373820075E+03  0.46906664236E+03  0.17200000000E+03 0.  1.
         -6    1    1    2    0  502 -0.22838890759E+02  0.42297437943E+02  0.65025906755E+02  0.19006066594E+03  0.17200000000E+03 0.  1.
</event>
<event>
 4    1  0.5874615E+000  0.1895307E+03  0.7818608E-02  0.1158885E+00
         21   -1    0    0  501  502  0.00000000000E+00  0.00000000000E+00  0.66611994310E+02  0.66611994310E+02  0.00000000000E+00 0.  1.
         21   -1    0    0  502  503 -0.00000000000E+00 -0.00000000000E+00 -0.64968089428E+03  0.64968089428E+03  0.00000000000E+00 0. -1.
          6    1    1    2  501    0  0.92209937598E+01 -0.79075072636E+02 -0.14389063085E+03  0.23796303806E+03  0.17200000000E+03 0.  1.
         -6    1    1    2    0  503 -0.92209937598E+01  0.79075072636E+02 -0.43917826912E+03  0.47832985053E+03  0.17200000000E+03 0.  1.
</event>
<event>
 4    1  0.5874615E+000  0.1833993E+03  0.7818608E-02  0.1164553E+00
         21   -1    0    0  503  502  0.00000000000E+00  0.00000000000E+00  0.17051526183E+03  0.17051526183E+03  0.00000000000E+00 0.  1.
         21   -1    0    0  501  503 -0.00000000000E+00 -0.00000000000E+00 -0.19811733487E+03  0.19811733487E+03  0.00000000000E+00 0.  1.
          6    1    1    2  501    0 -0.58565666440E+02  0.24926930033E+02 -0.16533023089E+01  0.18340671344E+03  0.17200000000E+03 0. -1.
         -6    1    1    2    0  502  0.58565666440E+02 -0.24926930033E+02 -0.25948770724E+02  0.18522588326E+03  0.17200000000E+03 0. -1.
</event>
<event>
 4    1  0.5874615E+000  0.2186465E+03  0.7818608E-02  0.1134896E+00
         21   -1    0    0  501  502  0.00000000000E+00  0.00000000000E+00  0.10506458961E+04  0.10506458961E+04  0.00000000000E+00 0.  1.
         21   -1    0    0  502  503 -0.00000000000E+00 -0.00000000000E+00 -0.45971742461E+02  0.45971742461E+02  0.00000000000E+00 0.  1.
          6    1    1    2  501    0 -0.12390855075E+03 -0.53562732921E+02  0.55777348854E+03  0.59909728744E+03  0.17200000000E+03 0.  1.
         -6    1    1    2    0  503  0.12390855075E+03  0.53562732921E+02  0.44690066509E+03  0.49752035111E+03  0.17200000000E+03 0.  1.
</event>
<event>
 4    1  0.5874615E+000  0.1837930E+03  0.7818608E-02  0.1164182E+00
         21   -1    0    0  503  502  0.00000000000E+00  0.00000000000E+00  0.41394318119E+03  0.41394318119E+03  0.00000000000E+00 0. -1.
         21   -1    0    0  501  503 -0.00000000000E+00 -0.00000000000E+00 -0.81903381274E+02  0.81903381274E+02  0.00000000000E+00 0. -1.
          6    1    1    2  501    0  0.34281720355E+01 -0.64684610492E+02  0.15105682986E+03  0.23790337754E+03  0.17200000000E+03 0. -1.
         -6    1    1    2    0  502 -0.34281720355E+01  0.64684610492E+02  0.18098297006E+03  0.25794318492E+03  0.17200000000E+03 0. -1.
</event>
<event>
 4    1  0.5874615E+000  0.2024995E+03  0.7818608E-02  0.1147647E+00
         21   -1    0    0  503  502  0.00000000000E+00  0.00000000000E+00  0.58736592625E+03  0.58736592625E+03  0.00000000000E+00 0.  1.
         21   -1    0    0  501  503 -0.00000000000E+00 -0.00000000000E+00 -0.11745627142E+03  0.11745627142E+03  0.00000000000E+00 0.  1.
          6    1    1    2  501    0 -0.67876370394E+02 -0.82551998586E+02  0.10509655456E+02  0.20277200740E+03  0.17200000000E+03 0.  1.
         -6    1    1    2    0  502  0.67876370394E+02  0.82551998586E+02  0.45939999937E+03  0.50205019027E+03  0.17200000000E+03 0.  1.
</event>
<event>
 4    1  0.5874615E+000  0.2353710E+03  0.7818608E-02  0.1122916E+00
         21   -1    0    0  501  502  0.00000000000E+00  0.00000000000E+00  0.41907838760E+03  0.41907838760E+03  0.00000000000E+00 0. -1.
         21   -1    0    0  502  503 -0.00000000000E+00 -0.00000000000E+00 -0.14559837001E+03  0.14559837001E+03  0.00000000000E+00 0.  1.
          6    1    1    2  501    0  0.28815220291E+02 -0.15806697163E+03  0.22240851625E+03  0.32382870865E+03  0.17200000000E+03 0. -1.
         -6    1    1    2    0  503 -0.28815220291E+02  0.15806697163E+03  0.51071501329E+02  0.24084804896E+03  0.17200000000E+03 0.  1.
</event>
<event>
 4    1  0.5874615E+000  0.2503490E+03  0.7818608E-02  0.1113084E+00
         21   -1    0    0  501  502  0.00000000000E+00  0.00000000000E+00  0.18053184884E+04  0.18053184884E+04  0.00000000000E+00 0.  1.
         21   -1    0    0  502  503 -0.00000000000E+00 -0.00000000000E+00 -0.50023158896E+02  0.50023158896E+02  0.00000000000E+00 0. -1.
          6    1    1    2  501    0 -0.84476302380E+02  0.16110367973E+03  0.13907998352E+04  0.14131520876E+04  0.17200000000E+03 0.  1.
         -6    1    1    2    0  503  0.84476302380E+02 -0.16110367973E+03  0.36449549436E+03  0.44218955969E+03  0.17200000000E+03 0. -1.
</event>
<event>
 4    1  0.5874615E+000  0.1971140E+03  0.7818608E-02  0.1152197E+00
         21   -1    0    0  501  502  0.00000000000E+00  0.00000000000E+00  0.57860742919E+03  0.57860742919E+03  0.00000000000E+00 0. -1.
         21   -1    0    0  502  503 -0.00000000000E+00 -0.00000000000E+00 -0.95191138809E+02  0.95191138809E+02  0.00000000000E+00 0. -1.
          6    1    1    2  501    0  0.91828585470E+02 -0.28938860930E+02  0.42455753769E+03  0.46808444707E+03  0.17200000000E+03 0. -1.
         -6    1    1    2    0  503 -0.91828585470E+02  0.28938860930E+02  0.58858752694E+02  0.20571412093E+03  0.17200000000E+03 0. -1.
</event>
<event>
 4    1  0.5874615E+000  0.7190546E+03  0.7818608E-02  0.9685190E-01
         21   -1    0    0  503  502  0.00000000000E+00  0.00000000000E+00  0.81534224160E+03  0.81534224160E+03  0.00000000000E+00 0.  1.
         21   -1    0    0  501  503 -0.00000000000E+00 -0.00000000000E+00 -0.77372554702E+03  0.77372554702E+03  0.00000000000E+00 0. -1.
          6    1    1    2  501    0  0.33572878021E+03  0.61216154733E+03 -0.31666707853E+03  0.78569562333E+03  0.17200000000E+03 0. -1.
         -6    1    1    2    0  502 -0.33572878021E+03 -0.61216154733E+03  0.35828377311E+03  0.80337216529E+03  0.17200000000E+03 0.  1.
</event>
<event>
 4    1  0.5874615E+000  0.1782982E+03  0.7818608E-02  0.1169460E+00
         21   -1    0    0  503  502  0.00000000000E+00  0.00000000000E+00  0.30339113293E+02  0.30339113293E+02  0.00000000000E+00 0.  1.
         21   -1    0    0  501  503 -0.00000000000E+00 -0.00000000000E+00 -0.11951070920E+04  0.11951070920E+04  0.00000000000E+00 0.  1.
          6    1    1    2  501    0 -0.46241368426E+02  0.82455914015E+01 -0.79747756090E+03  0.81716627076E+03  0.17200000000E+03 0.  1.
         -6    1    1    2    0  502  0.46241368426E+02 -0.82455914015E+01 -0.36729041785E+03  0.40827993457E+03  0.17200000000E+03 0.  1.
</event>
<event>
 4    1  0.5874615E+000  0.3250426E+03  0.7818608E-02  0.1073352E+00
         21   -1    0    0  501  502  0.00000000000E+00  0.00000000000E+00  0.11528910635E+03  0.11528910635E+03  0.00000000000E+00 0.  1.
         21   -1    0    0  502  503 -0.00000000000E+00 -0.00000000000E+00 -0.93114642807E+03  0.93114642807E+03  0.00000000000E+00 0.  1.
          6    1    1    2  501    0  0.40982378815E+02  0.27274371099E+03 -0.34211845503E+03  0.47190859764E+03  0.17200000000E+03 0.  1.
         -6    1    1    2    0  503 -0.40982378815E+02 -0.27274371099E+03 -0.47373886669E+03  0.57452693677E+03  0.17200000000E+03 0.  1.
</event>
<event>
 4    1  0.5874615E+000  0.1761113E+03  0.7818608E-02  0.1171620E+00
         21   -1    0    0  501  502  0.00000000000E+00  0.00000000000E+00  0.39904146059E+02  0.39904146059E+02  0.00000000000E+00 0.  1.
         21   -1    0    0  502  503 -0.00000000000E+00 -0.00000000000E+00 -0.78200235685E+03  0.78200235685E+03  0.00000000000E+00 0.  1.
          6    1    1    2  501    0  0.29585619566E+02  0.23577282593E+02 -0.33898740157E+03  0.38200478474E+03  0.17200000000E+03 0. -1.
         -6    1    1    2    0  503 -0.29585619566E+02 -0.23577282593E+02 -0.40311080922E+03  0.43990171818E+03  0.17200000000E+03 0. -1.
</event>
<event>
 4    1  0.5874615E+000  0.2871504E+03  0.7818608E-02  0.1091846E+00
         21   -1    0    0  501  502  0.00000000000E+00  0.00000000000E+00  0.68346022739E+02  0.68346022739E+02  0.00000000000E+00 0.  1.
         21   -1    0    0  502  503 -0.00000000000E+00 -0.00000000000E+00 -0.14471446121E+04  0.14471446121E+04  0.00000000000E+00 0. -1.
          6    1    1    2  501    0 -0.61695756851E+02 -0.22150619737E+03 -0.38036286114E+03  0.47658290781E+03  0.17200000000E+03 0.  1.
         -6    1    1    2    0  503  0.61695756851E+02  0.22150619737E+03 -0.99843572819E+03  0.10389077270E+04  0.17200000000E+03 0. -1.
</event>
<event>
 4    1  0.5874615E+000  0.2799997E+03  0.7818608E-02  0.1095689E+00
         21   -1    0    0  503  502  0.00000000000E+00  0.00000000000E+00  0.43311902814E+03  0.43311902814E+03  0.00000000000E+00 0.  1.
         21   -1    0    0  501  503 -0.00000000000E+00 -0.00000000000E+00 -0.18629653310E+03  0.18629653310E+03  0.00000000000E+00 0. -1.
          6    1    1    2  501    0 -0.15662660756E+01 -0.22093746828E+03  0.17557223175E+03  0.33049270285E+03  0.17200000000E+03 0.  1.
         -6    1    1    2    0  502  0.15662660756E+01  0.22093746828E+03  0.71250263291E+02  0.28892285838E+03  0.17200000000E+03 0. -1.
</event>
<event>
 4    1  0.5874615E+000  0.2321449E+03  0.7818608E-02  0.1125139E+00
         21   -1    0    0  503  502  0.00000000000E+00  0.00000000000E+00  0.10058057109E+03  0.10058057109E+03  0.00000000000E+00 0.  1.
         21   -1    0    0  501  503 -0.00000000000E+00 -0.00000000000E+00 -0.61805679510E+03  0.61805679510E+03  0.00000000000E+00 0.  1.
          6    1    1    2  501    0 -0.10677203817E+03  0.11360901181E+03 -0.38982102971E+03  0.45370883935E+03  0.17200000000E+03 0.  1.
         -6    1    1    2    0  502  0.10677203817E+03 -0.11360901181E+03 -0.12765519430E+03  0.26492852684E+03  0.17200000000E+03 0.  1.
</event>
<event>
 4    1  0.5874615E+000  0.1913039E+03  0.7818608E-02  0.1157291E+00
         21   -1    0    0  501  502  0.00000000000E+00  0.00000000000E+00  0.12454463612E+03  0.12454463612E+03  0.00000000000E+00 0.  1.
         21   -1    0    0  502  503 -0.00000000000E+00 -0.00000000000E+00 -0.67292648435E+03  0.67292648435E+03  0.00000000000E+00 0.  1.
          6    1    1    2  501    0 -0.25293405436E+01 -0.83706613529E+02  0.25080819994E+02  0.19294103307E+03  0.17200000000E+03 0.  1.
         -6    1    1    2    0  503  0.25293405436E+01  0.83706613529E+02 -0.57346266822E+03  0.60453008739E+03  0.17200000000E+03 0.  1.
</event>
<event>
 4    1  0.5874615E+000  0.2054258E+03  0.7818608E-02  0.1145240E+00
         21   -1    0    0  503  502  0.00000000000E+00  0.00000000000E+00  0.13244049062E+03  0.13244049062E+03  0.00000000000E+00 0. -1.
         21   -1    0    0  501  503 -0.00000000000E+00 -0.00000000000E+00 -0.40517954527E+03  0.40517954527E+03  0.00000000000E+00 0. -1.
          6    1    1    2  501    0  0.60596277665E+02 -0.94571926637E+02 -0.26060609775E+03  0.33183624932E+03  0.17200000000E+03 0. -1.
         -6    1    1    2    0  502 -0.60596277665E+02  0.94571926637E+02 -0.12132956891E+02  0.20578378658E+03  0.17200000000E+03 0. -1.
</event>
<event>
 4    1  0.5874615E+000  0.2650250E+03  0.7818608E-02  0.1104161E+00
         21   -1    0    0  501  502  0.00000000000E+00  0.00000000000E+00  0.95013083836E+02  0.95013083836E+02  0.00000000000E+00 0.  1.
         21   -1    0    0  502  503 -0.00000000000E+00 -0.00000000000E+00 -0.80511333465E+03  0.80511333465E+03  0.00000000000E+00 0. -1.
          6    1    1    2  501    0  0.19524306210E+03  0.50342748138E+02 -0.22632213494E+03  0.34851105341E+03  0.17200000000E+03 0.  1.
         -6    1    1    2    0  503 -0.19524306210E+03 -0.50342748138E+02 -0.48377811587E+03  0.55161536507E+03  0.17200000000E+03 0. -1.
</event>
<event>
 4    1  0.5874615E+000  0.1901276E+03  0.7818608E-02  0.1158346E+00
         21   -1    0    0  503  502  0.00000000000E+00  0.00000000000E+00  0.52221575945E+03  0.52221575945E+03  0.00000000000E+00 0.  1.
         21   -1    0    0  501  503 -0.00000000000E+00 -0.00000000000E+00 -0.85453982741E+02  0.85453982741E+02  0.00000000000E+00 0.  1.
          6    1    1    2  501    0  0.41741250836E+02  0.69441833367E+02  0.85957278854E+02  0.20865558711E+03  0.17200000000E+03 0.  1.
         -6    1    1    2    0  502 -0.41741250836E+02 -0.69441833367E+02  0.35080449786E+03  0.39901415509E+03  0.17200000000E+03 0.  1.
</event>
<event>
 4    1  0.5874615E+000  0.2399576E+03  0.7818608E-02  0.1119821E+00
         21   -1    0    0  501  502  0.00000000000E+00  0.00000000000E+00  0.23897514355E+02  0.23897514355E+02  0.00000000000E+00 0.  1.
         21   -1    0    0  502  503 -0.00000000000E+00 -0.00000000000E+00 -0.30760548938E+04  0.30760548938E+04  0.00000000000E+00 0. -1.
          6    1    1    2  501    0  0.14114667935E+03 -0.89851271858E+02 -0.80453045003E+03  0.83955278641E+03  0.17200000000E+03 0.  1.
         -6    1    1    2    0  503 -0.14114667935E+03  0.89851271858E+02 -0.22476269294E+04  0.22603996217E+04  0.17200000000E+03 0. -1.
</event>
<event>
 4    1  0.5874615E+000  0.1728923E+03  0.7818608E-02  0.1174865E+00
         21   -1    0    0  503  502  0.00000000000E+00  0.00000000000E+00  0.43944283338E+02  0.43944283338E+02  0.00000000000E+00 0. -1.
         21   -1    0    0  501  503 -0.00000000000E+00 -0.00000000000E+00 -0.27353299301E+04  0.27353299301E+04  0.00000000000E+00 0. -1.
          6    1    1    2  501    0 -0.17328007087E+02 -0.27355932994E+01 -0.25502132287E+04  0.25560671461E+04  0.17200000000E+03 0. -1.
         -6    1    1    2    0  502  0.17328007087E+02  0.27355932994E+01 -0.14117241801E+03  0.22320706733E+03  0.17200000000E+03 0. -1.
</event>
<event>
 4    1  0.5874615E+000  0.1935097E+03  0.7818608E-02  0.1155333E+00
         21   -1    0    0  501  502  0.00000000000E+00  0.00000000000E+00  0.11421127572E+03  0.11421127572E+03  0.00000000000E+00 0. -1.
         21   -1    0    0  502  503 -0.00000000000E+00 -0.00000000000E+00 -0.74490676942E+03  0.74490676942E+03  0.00000000000E+00 0. -1.
          6    1    1    2  501    0 -0.79766196593E+02 -0.38721507096E+02  0.60635293289E+01  0.19360466838E+03  0.17200000000E+03 0. -1.
         -6    1    1    2    0  503  0.79766196593E+02  0.38721507096E+02 -0.63675902303E+03  0.66551337676E+03  0.17200000000E+03 0. -1.
</event>
<event>
 4    1  0.5874615E+000  0.1877184E+03  0.7818608E-02  0.1160535E+00
         21   -1    0    0  503  502  0.00000000000E+00  0.00000000000E+00  0.18650203101E+03  0.18650203101E+03  0.00000000000E+00 0. -1.
         21   -1    0    0  501  503 -0.00000000000E+00 -0.00000000000E+00 -0.27894539859E+03  0.27894539859E+03  0.00000000000E+00 0.  1.
          6    1    1    2  501    0  0.67194203210E+00  0.75191357666E+02 -0.17841481107E+03  0.25897883424E+03  0.17200000000E+03 0.  1.
         -6    1    1    2    0  502 -0.67194203210E+00 -0.75191357666E+02  0.85971443489E+02  0.20646859536E+03  0.17200000000E+03 0. -1.
</event>
<event>
 4    1  0.5874615E+000  0.1773115E+03  0.7818608E-02  0.1170431E+00
         21   -1    0    0  503  502  0.00000000000E+00  0.00000000000E+00  0.54161658656E+03  0.54161658656E+03  0.00000000000E+00 0. -1.
         21   -1    0    0  501  503 -0.00000000000E+00 -0.00000000000E+00 -0.63193460858E+02  0.63193460858E+02  0.00000000000E+00 0. -1.
          6    1    1    2  501    0  0.41552300783E+02  0.11347683475E+02  0.15291451805E+03  0.23414143899E+03  0.17200000000E+03 0. -1.
         -6    1    1    2    0  502 -0.41552300783E+02 -0.11347683475E+02  0.32550860765E+03  0.37066860843E+03  0.17200000000E+03 0. -1.
</event>
<event>
 4    1  0.5874615E+000  0.1781802E+03  0.7818608E-02  0.1169576E+00
         21   -1    0    0  501  502  0.00000000000E+00  0.00000000000E+00  0.53617025895E+03  0.53617025895E+03  0.00000000000E+00 0.  1.
         21   -1    0    0  502  503 -0.00000000000E+00 -0.00000000000E+00 -0.65815195260E+02  0.65815195260E+02  0.00000000000E+00 0.  1.
          6    1    1    2  501    0 -0.39722640564E+02  0.24213256756E+02  0.33051025041E+03  0.37547995366E+03  0.17200000000E+03 0.  1.
         -6    1    1    2    0  503  0.39722640564E+02 -0.24213256756E+02  0.13984481327E+03  0.22650550054E+03  0.17200000000E+03 0.  1.
</event>
<event>
 4    1  0.5874615E+000  0.1969469E+03  0.7818608E-02  0.1152341E+00
         21   -1    0    0  503  502  0.00000000000E+00  0.00000000000E+00  0.13824371585E+04  0.13824371585E+04  0.00000000000E+00 0. -1.
         21   -1    0    0  501  503 -0.00000000000E+00 -0.00000000000E+00 -0.77514560871E+02  0.77514560871E+02  0.00000000000E+00 0. -1.
          6    1    1    2  501    0 -0.61354837618E+02 -0.73754033689E+02  0.69378922440E+02  0.20880974226E+03  0.17200000000E+03 0. -1.
         -6    1    1    2    0  502  0.61354837618E+02  0.73754033689E+02  0.12355436752E+04  0.12511419771E+04  0.17200000000E+03 0. -1.
</event>
<event>
 4    1  0.5874615E+000  0.2157796E+03  0.7818608E-02  0.1137069E+00
         21   -1    0    0  501  502  0.00000000000E+00  0.00000000000E+00  0.39744838320E+03  0.39744838320E+03  0.00000000000E+00 0.  1.
         21   -1    0    0  502  503 -0.00000000000E+00 -0.00000000000E+00 -0.13097202733E+03  0.13097202733E+03  0.00000000000E+00 0.  1.
          6    1    1    2  501    0 -0.12062012933E+03 -0.49270817614E+02  0.21907152147E+03  0.30749497652E+03  0.17200000000E+03 0.  1.
         -6    1    1    2    0  503  0.12062012933E+03  0.49270817614E+02  0.47404834397E+02  0.22092543401E+03  0.17200000000E+03 0.  1.
</event>
<event>
 4    1  0.5874615E+000  0.4342805E+03  0.7818608E-02  0.1032516E+00
         21   -1    0    0  503  502  0.00000000000E+00  0.00000000000E+00  0.14908755761E+04  0.14908755761E+04  0.00000000000E+00 0.  1.
         21   -1    0    0  501  503 -0.00000000000E+00 -0.00000000000E+00 -0.14033076676E+03  0.14033076676E+03  0.00000000000E+00 0. -1.
          6    1    1    2  501    0 -0.26791595120E+03  0.29535844336E+03  0.93129924396E+03  0.10275786339E+04  0.17200000000E+03 0.  1.
         -6    1    1    2    0  502  0.26791595120E+03 -0.29535844336E+03  0.41924556535E+03  0.60362770897E+03  0.17200000000E+03 0. -1.
</event>
<event>
 4    1  0.5874615E+000  0.1741516E+03  0.7818608E-02  0.1173586E+00
         21   -1    0    0  503  502  0.00000000000E+00  0.00000000000E+00  0.76648430239E+02  0.76648430239E+02  0.00000000000E+00 0.  1.
         21   -1    0    0  501  503 -0.00000000000E+00 -0.00000000000E+00 -0.44732231952E+03  0.44732231952E+03  0.00000000000E+00 0.  1.
          6    1    1    2  501    0  0.23213372590E+02 -0.14349644144E+02 -0.27434739361E+03  0.32495425114E+03  0.17200000000E+03 0.  1.
         -6    1    1    2    0  502 -0.23213372590E+02  0.14349644144E+02 -0.96326495674E+02  0.19901649862E+03  0.17200000000E+03 0.  1.
</event>
<event>
 4    1  0.5874615E+000  0.2005037E+03  0.7818608E-02  0.1149315E+00
         21   -1    0    0  501  502  0.00000000000E+00  0.00000000000E+00  0.12961309555E+04  0.12961309555E+04  0.00000000000E+00 0. -1.
         21   -1    0    0  502  503 -0.00000000000E+00 -0.00000000000E+00 -0.31378433498E+02  0.31378433498E+02  0.00000000000E+00 0. -1.
          6    1    1    2  501    0  0.10822754245E+02 -0.10247253519E+03  0.70363930245E+03  0.73164883683E+03  0.17200000000E+03 0. -1.
         -6    1    1    2    0  503 -0.10822754245E+02  0.10247253519E+03  0.56111321952E+03  0.59586055214E+03  0.17200000000E+03 0. -1.
</event>
<event>
 4    1  0.5874615E+000  0.2466795E+03  0.7818608E-02  0.1115421E+00
         21   -1    0    0  503  502  0.00000000000E+00  0.00000000000E+00  0.10996456998E+03  0.10996456998E+03  0.00000000000E+00 0.  1.
         21   -1    0    0  501  503 -0.00000000000E+00 -0.00000000000E+00 -0.10026214096E+04  0.10026214096E+04  0.00000000000E+00 0. -1.
          6    1    1    2  501    0 -0.11578009164E+03 -0.13364788006E+03 -0.81870398974E+03  0.85505965188E+03  0.17200000000E+03 0.  1.
         -6    1    1    2    0  502  0.11578009164E+03  0.13364788006E+03 -0.73952849912E+02  0.25752632773E+03  0.17200000000E+03 0.  1.
</event>
<event>
 4    1  0.5874615E+000  0.1941130E+03  0.7818608E-02  0.1154803E+00
         21   -1    0    0  503  502  0.00000000000E+00  0.00000000000E+00  0.23757922660E+03  0.23757922660E+03  0.00000000000E+00 0. -1.
         21   -1    0    0  501  503 -0.00000000000E+00 -0.00000000000E+00 -0.20411924104E+03  0.20411924104E+03  0.00000000000E+00 0. -1.
          6    1    1    2  501    0 -0.49926552533E+02 -0.74854617685E+02 -0.87563032109E+02  0.21294872394E+03  0.17200000000E+03 0.  1.
         -6    1    1    2    0  502  0.49926552533E+02  0.74854617685E+02  0.12102301766E+03  0.22874974370E+03  0.17200000000E+03 0.  1.
</event>
<event>
 4    1  0.5874615E+000  0.2089809E+03  0.7818608E-02  0.1142376E+00
         21   -1    0    0  503  502  0.00000000000E+00  0.00000000000E+00  0.69007027555E+03  0.69007027555E+03  0.00000000000E+00 0.  1.
         21   -1    0    0  501  503 -0.00000000000E+00 -0.00000000000E+00 -0.69476160344E+02  0.69476160344E+02  0.00000000000E+00 0.  1.
          6    1    1    2  501    0 -0.10996058624E+02 -0.11818665649E+03  0.42364033817E+03  0.47238134511E+03  0.17200000000E+03 0.  1.
         -6    1    1    2    0  502  0.10996058624E+02  0.11818665649E+03  0.19695377704E+03  0.28716509079E+03  0.17200000000E+03 0.  1.
</event>
<event>
 4    1  0.5874615E+000  0.2978981E+03  0.7818608E-02  0.1086296E+00
         21   -1    0    0  501  502  0.00000000000E+00  0.00000000000E+00  0.11949153804E+03  0.11949153804E+03  0.00000000000E+00 0. -1.
         21   -1    0    0  502  503 -0.00000000000E+00 -0.00000000000E+00 -0.87443194993E+03  0.87443194993E+03  0.00000000000E+00 0. -1.
          6    1    1    2  501    0  0.22948836740E+03 -0.80587576587E+02 -0.18456309833E+03  0.35043801954E+03  0.17200000000E+03 0. -1.
         -6    1    1    2    0  503 -0.22948836740E+03  0.80587576587E+02 -0.57037731355E+03  0.64348546843E+03  0.17200000000E+03 0. -1.
</event>
<event>
 4    1  0.5874615E+000  0.3168361E+03  0.7818608E-02  0.1077115E+00
         21   -1    0    0  501  502  0.00000000000E+00  0.00000000000E+00  0.31041907299E+03  0.31041907299E+03  0.00000000000E+00 0.  1.
         21   -1    0    0  502  503 -0.00000000000E+00 -0.00000000000E+00 -0.38234135501E+03  0.38234135501E+03  0.00000000000E+00 0. -1.
          6    1    1    2  501    0 -0.10351122070E+03 -0.24512561289E+03  0.10005472893E+03  0.33225906712E+03  0.17200000000E+03 0.  1.
         -6    1    1    2    0  503  0.10351122070E+03  0.24512561289E+03 -0.17197701095E+03  0.36050136088E+03  0.17200000000E+03 0. -1.
</event>
<event>
 4    1  0.5874615E+000  0.2298518E+03  0.7818608E-02  0.1126744E+00
         21   -1    0    0  503  502  0.00000000000E+00  0.00000000000E+00  0.16017121957E+03  0.16017121957E+03  0.00000000000E+00 0. -1.
         21   -1    0    0  501  503 -0.00000000000E+00 -0.00000000000E+00 -0.37150999926E+03  0.37150999926E+03  0.00000000000E+00 0. -1.
          6    1    1    2  501    0 -0.60318326798E+02  0.14003406689E+03 -0.19469529666E+03  0.30122765308E+03  0.17200000000E+03 0. -1.
         -6    1    1    2    0  502  0.60318326798E+02 -0.14003406689E+03 -0.16643483028E+02  0.23045356575E+03  0.17200000000E+03 0. -1.
</event>
<event>
 4    1  0.5874615E+000  0.1802374E+03  0.7818608E-02  0.1167573E+00
         21   -1    0    0  503  502  0.00000000000E+00  0.00000000000E+00  0.60949082404E+03  0.60949082404E+03  0.00000000000E+00 0. -1.
         21   -1    0    0  501  503 -0.00000000000E+00 -0.00000000000E+00 -0.56912988863E+02  0.56912988863E+02  0.00000000000E+00 0. -1.
          6    1    1    2  501    0  0.38436218928E+02 -0.37738473673E+02  0.19232992919E+03  0.26358364324E+03  0.17200000000E+03 0. -1.
         -6    1    1    2    0  502 -0.38436218928E+02  0.37738473673E+02  0.36024790599E+03  0.40282016967E+03  0.17200000000E+03 0. -1.
</event>
<event>
 4    1  0.5874615E+000  0.2034969E+03  0.7818608E-02  0.1146822E+00
         21   -1    0    0  503  502  0.00000000000E+00  0.00000000000E+00  0.14818366358E+04  0.14818366358E+04  0.00000000000E+00 0.  1.
         21   -1    0    0  501  503 -0.00000000000E+00 -0.00000000000E+00 -0.36323049608E+02  0.36323049608E+02  0.00000000000E+00 0.  1.
          6    1    1    2  501    0  0.94353945888E+02  0.54076819756E+02  0.35821317771E+03  0.41198015756E+03  0.17200000000E+03 0.  1.
         -6    1    1    2    0  502 -0.94353945888E+02 -0.54076819756E+02  0.10873004085E+04  0.11061795279E+04  0.17200000000E+03 0.  1.
</event>
<event>
 4    1  0.5874615E+000  0.2543880E+03  0.7818608E-02  0.1110563E+00
         21   -1    0    0  501  502  0.00000000000E+00  0.00000000000E+00  0.10168491430E+04  0.10168491430E+04  0.00000000000E+00 0. -1.
         21   -1    0    0  502  503 -0.00000000000E+00 -0.00000000000E+00 -0.67792098230E+02  0.67792098230E+02  0.00000000000E+00 0. -1.
          6    1    1    2  501    0  0.18377680754E+03 -0.36815049416E+02  0.60872768514E+03  0.65974438801E+03  0.17200000000E+03 0. -1.
         -6    1    1    2    0  503 -0.18377680754E+03  0.36815049416E+02  0.34032935965E+03  0.42489685324E+03  0.17200000000E+03 0. -1.
</event>
<event>
 4    1  0.5874615E+000  0.2146106E+03  0.7818608E-02  0.1137966E+00
         21   -1    0    0  503  502  0.00000000000E+00  0.00000000000E+00  0.21804431730E+03  0.21804431730E+03  0.00000000000E+00 0.  1.
         21   -1    0    0  501  503 -0.00000000000E+00 -0.00000000000E+00 -0.22921724576E+03  0.22921724576E+03  0.00000000000E+00 0.  1.
          6    1    1    2  501    0  0.82714520059E+02  0.98142876487E+02 -0.68230304409E+02  0.22519567152E+03  0.17200000000E+03 0.  1.
         -6    1    1    2    0  502 -0.82714520059E+02 -0.98142876487E+02  0.57057375951E+02  0.22206589154E+03  0.17200000000E+03 0.  1.
</event>
<event>
 4    1  0.5874615E+000  0.1864828E+03  0.7818608E-02  0.1161672E+00
         21   -1    0    0  501  502  0.00000000000E+00  0.00000000000E+00  0.13520705179E+03  0.13520705179E+03  0.00000000000E+00 0. -1.
         21   -1    0    0  502  503 -0.00000000000E+00 -0.00000000000E+00 -0.28998261765E+03  0.28998261765E+03  0.00000000000E+00 0. -1.
          6    1    1    2  501    0 -0.92785206877E+01 -0.71454381845E+02 -0.59116885095E+01  0.18657643927E+03  0.17200000000E+03 0. -1.
         -6    1    1    2    0  503  0.92785206877E+01  0.71454381845E+02 -0.14886387734E+03  0.23861323016E+03  0.17200000000E+03 0. -1.
</event>
<event>
 4    1  0.5874615E+000  0.1823223E+03  0.7818608E-02  0.1165574E+00
         21   -1    0    0  501  502  0.00000000000E+00  0.00000000000E+00  0.64592505508E+03  0.64592505508E+03  0.00000000000E+00 0.  1.
         21   -1    0    0  502  503 -0.00000000000E+00 -0.00000000000E+00 -0.52571828760E+02  0.52571828760E+02  0.00000000000E+00 0.  1.
          6    1    1    2  501    0 -0.18333994717E+02  0.57630653159E+02  0.34739128784E+03  0.39232911492E+03  0.17200000000E+03 0. -1.
         -6    1    1    2    0  503  0.18333994717E+02 -0.57630653159E+02  0.24596193848E+03  0.30616776892E+03  0.17200000000E+03 0. -1.
</event>
<event>
 4    1  0.5874615E+000  0.1837929E+03  0.7818608E-02  0.1164182E+00
         21   -1    0    0  503  502  0.00000000000E+00  0.00000000000E+00  0.13203625714E+04  0.13203625714E+04  0.00000000000E+00 0. -1.
         21   -1    0    0  501  503 -0.00000000000E+00 -0.00000000000E+00 -0.41956541384E+02  0.41956541384E+02  0.00000000000E+00 0. -1.
          6    1    1    2  501    0  0.45384161711E+02 -0.46218067592E+02  0.21369247927E+03  0.28185866600E+03  0.17200000000E+03 0. -1.
         -6    1    1    2    0  502 -0.45384161711E+02  0.46218067592E+02  0.10647135507E+04  0.10804604467E+04  0.17200000000E+03 0. -1.
</event>
<event>
 4    1  0.5874615E+000  0.2130502E+03  0.7818608E-02  0.1139173E+00
         21   -1    0    0  501  502  0.00000000000E+00  0.00000000000E+00  0.27338363357E+03  0.27338363357E+03  0.00000000000E+00 0. -1.
         21   -1    0    0  502  503 -0.00000000000E+00 -0.00000000000E+00 -0.29474447795E+03  0.29474447795E+03  0.00000000000E+00 0.  1.
          6    1    1    2  501    0 -0.10400785660E+03 -0.70630978036E+02  0.17703681516E+03  0.27700614292E+03  0.17200000000E+03 0. -1.
         -6    1    1    2    0  503  0.10400785660E+03  0.70630978036E+02 -0.19839765953E+03  0.29112196860E+03  0.17200000000E+03 0.  1.
</event>
<event>
 4    1  0.5874615E+000  0.1840394E+03  0.7818608E-02  0.1163950E+00
         21   -1    0    0  503  502  0.00000000000E+00  0.00000000000E+00  0.19892777645E+03  0.19892777645E+03  0.00000000000E+00 0.  1.
         21   -1    0    0  501  503 -0.00000000000E+00 -0.00000000000E+00 -0.18654610521E+03  0.18654610521E+03  0.00000000000E+00 0.  1.
          6    1    1    2  501    0 -0.35628447485E+02  0.54928314502E+02 -0.50748086419E+02  0.19090802571E+03  0.17200000000E+03 0.  1.
         -6    1    1    2    0  502  0.35628447485E+02 -0.54928314502E+02  0.63129757658E+02  0.19456585596E+03  0.17200000000E+03 0.  1.
</event>
<event>
 4    1  0.5874615E+000  0.1831873E+03  0.7818608E-02  0.1164754E+00
         21   -1    0    0  503  502  0.00000000000E+00  0.00000000000E+00  0.38393612053E+03  0.38393612053E+03  0.00000000000E+00 0.  1.
         21   -1    0    0  501  503 -0.00000000000E+00 -0.00000000000E+00 -0.23580997016E+03  0.23580997016E+03  0.00000000000E+00 0.  1.
          6    1    1    2  501    0  0.59298444453E+02  0.21383830897E+02 -0.17176321351E+03  0.25111785132E+03  0.17200000000E+03 0.  1.
         -6    1    1    2    0  502 -0.59298444453E+02 -0.21383830897E+02  0.31988936387E+03  0.36862823937E+03  0.17200000000E+03 0.  1.
</event>
<event>
 4    1  0.5874615E+000  0.1859735E+03  0.7818608E-02  0.1162144E+00
         21   -1    0    0  501  502  0.00000000000E+00  0.00000000000E+00  0.23078888590E+03  0.23078888590E+03  0.00000000000E+00 0.  1.
         21   -1    0    0  502  503 -0.00000000000E+00 -0.00000000000E+00 -0.34818424616E+03  0.34818424616E+03  0.00000000000E+00 0.  1.
          6    1    1    2  501    0 -0.18724916051E+02  0.68202012955E+02  0.15978208401E+03  0.24518656453E+03  0.17200000000E+03 0.  1.
         -6    1    1    2    0  503  0.18724916051E+02 -0.68202012955E+02 -0.27717744428E+03  0.33378656754E+03  0.17200000000E+03 0.  1.
</event>
<event>
 4    1  0.5874615E+000  0.1988072E+03  0.7818608E-02  0.1150749E+00
         21   -1    0    0  503  502  0.00000000000E+00  0.00000000000E+00  0.14767351920E+04  0.14767351920E+04  0.00000000000E+00 0.  1.
         21   -1    0    0  501  503 -0.00000000000E+00 -0.00000000000E+00 -0.27562433143E+02  0.27562433143E+02  0.00000000000E+00 0.  1.
          6    1    1    2  501    0 -0.58029991947E+02  0.81073048241E+02  0.59662349985E+03  0.62887512250E+03  0.17200000000E+03 0.  1.
         -6    1    1    2    0  502  0.58029991947E+02 -0.81073048241E+02  0.85254925903E+03  0.87542250267E+03  0.17200000000E+03 0.  1.
</event>
<event>
 4    1  0.5874615E+000  0.2163180E+03  0.7818608E-02  0.1136658E+00
         21   -1    0    0  501  502  0.00000000000E+00  0.00000000000E+00  0.11159257255E+03  0.11159257255E+03  0.00000000000E+00 0.  1.
         21   -1    0    0  502  503 -0.00000000000E+00 -0.00000000000E+00 -0.51201277799E+03  0.51201277799E+03  0.00000000000E+00 0.  1.
          6    1    1    2  501    0  0.11043538201E+03 -0.70806146441E+02 -0.67546381814E+02  0.22661861722E+03  0.17200000000E+03 0.  1.
         -6    1    1    2    0  503 -0.11043538201E+03  0.70806146441E+02 -0.33287382362E+03  0.39698673332E+03  0.17200000000E+03 0.  1.
</event>
<event>
 4    1  0.5874615E+000  0.2440638E+03  0.7818608E-02  0.1117115E+00
         21   -1    0    0  503  502  0.00000000000E+00  0.00000000000E+00  0.17915848223E+03  0.17915848223E+03  0.00000000000E+00 0. -1.
         21   -1    0    0  501  503 -0.00000000000E+00 -0.00000000000E+00 -0.51748480884E+03  0.51748480884E+03  0.00000000000E+00 0. -1.
          6    1    1    2  501    0 -0.16710843480E+03  0.45364293596E+02 -0.37742977818E+03  0.44946677916E+03  0.17200000000E+03 0. -1.
         -6    1    1    2    0  502  0.16710843480E+03 -0.45364293596E+02  0.39103451559E+02  0.24717651191E+03  0.17200000000E+03 0. -1.
</event>
<event>
 4    1  0.5874615E+000  0.1755986E+03  0.7818608E-02  0.1172132E+00
         21   -1    0    0  501  502  0.00000000000E+00  0.00000000000E+00  0.13441546664E+03  0.13441546664E+03  0.00000000000E+00 0.  1.
         21   -1    0    0  502  503 -0.00000000000E+00 -0.00000000000E+00 -0.23094231556E+03  0.23094231556E+03  0.00000000000E+00 0.  1.
          6    1    1    2  501    0  0.19005705696E+02 -0.29826932264E+02 -0.63193798356E+02  0.18662346821E+03  0.17200000000E+03 0.  1.
         -6    1    1    2    0  503 -0.19005705696E+02  0.29826932264E+02 -0.33333050566E+02  0.17873431399E+03  0.17200000000E+03 0.  1.
</event>
<event>
 4    1  0.5874615E+000  0.1965720E+03  0.7818608E-02  0.1152664E+00
         21   -1    0    0  503  502  0.00000000000E+00  0.00000000000E+00  0.25847386715E+02  0.25847386715E+02  0.00000000000E+00 0.  1.
         21   -1    0    0  501  503 -0.00000000000E+00 -0.00000000000E+00 -0.15592832294E+04  0.15592832294E+04  0.00000000000E+00 0.  1.
          6    1    1    2  501    0 -0.83923757079E+02  0.44870528700E+02 -0.92770419565E+03  0.94830144784E+03  0.17200000000E+03 0.  1.
         -6    1    1    2    0  502  0.83923757079E+02 -0.44870528700E+02 -0.60573164707E+03  0.63682916831E+03  0.17200000000E+03 0.  1.
</event>
<event>
 4    1  0.5874615E+000  0.2235676E+03  0.7818608E-02  0.1131251E+00
         21   -1    0    0  501  502  0.00000000000E+00  0.00000000000E+00  0.19951606946E+04  0.19951606946E+04  0.00000000000E+00 0. -1.
         21   -1    0    0  502  503 -0.00000000000E+00 -0.00000000000E+00 -0.33665016863E+02  0.33665016863E+02  0.00000000000E+00 0.  1.
          6    1    1    2  501    0 -0.35497476375E+02  0.13834157901E+03  0.14938534882E+04  0.15104902210E+04  0.17200000000E+03 0. -1.
         -6    1    1    2    0  503  0.35497476375E+02 -0.13834157901E+03  0.46764218954E+03  0.51833549054E+03  0.17200000000E+03 0.  1.
</event>
<event>
 4    1  0.5874615E+000  0.2268840E+03  0.7818608E-02  0.1128852E+00
         21   -1    0    0  503  502  0.00000000000E+00  0.00000000000E+00  0.52787485027E+03  0.52787485027E+03  0.00000000000E+00 0. -1.
         21   -1    0    0  501  503 -0.00000000000E+00 -0.00000000000E+00 -0.31518845887E+03  0.31518845887E+03  0.00000000000E+00 0. -1.
          6    1    1    2  501    0  0.10103959879E+03  0.10808951050E+03  0.45664840406E+03  0.50990597930E+03  0.17200000000E+03 0. -1.
         -6    1    1    2    0  502 -0.10103959879E+03 -0.10808951050E+03 -0.24396201265E+03  0.33315732983E+03  0.17200000000E+03 0. -1.
</event>
<event>
 4    1  0.5874615E+000  0.2518401E+03  0.7818608E-02  0.1112147E+00
         21   -1    0    0  503  502  0.00000000000E+00  0.00000000000E+00  0.13492930602E+04  0.13492930602E+04  0.00000000000E+00 0. -1.
         21   -1    0    0  501  503 -0.00000000000E+00 -0.00000000000E+00 -0.75082264867E+02  0.75082264867E+02  0.00000000000E+00 0.  1.
          6    1    1    2  501    0  0.17714337465E+03  0.49594722495E+02  0.10726210676E+04  0.11017891660E+04  0.17200000000E+03 0. -1.
         -6    1    1    2    0  502 -0.17714337465E+03 -0.49594722495E+02  0.20158972771E+03  0.32258615904E+03  0.17200000000E+03 0. -1.
</event>
<event>
 4    1  0.5874615E+000  0.2210439E+03  0.7818608E-02  0.1133107E+00
         21   -1    0    0  503  502  0.00000000000E+00  0.00000000000E+00  0.45581836987E+02  0.45581836987E+02  0.00000000000E+00 0.  1.
         21   -1    0    0  501  503 -0.00000000000E+00 -0.00000000000E+00 -0.14344495666E+04  0.14344495666E+04  0.00000000000E+00 0.  1.
          6    1    1    2  501    0 -0.88092009180E+02  0.10731352086E+03 -0.10664535494E+04  0.10891205474E+04  0.17200000000E+03 0.  1.
         -6    1    1    2    0  502  0.88092009180E+02 -0.10731352086E+03 -0.32241418017E+03  0.39091085610E+03  0.17200000000E+03 0.  1.
</event>
<event>
 4    1  0.5874615E+000  0.1863553E+03  0.7818608E-02  0.1161790E+00
         21   -1    0    0  503  502  0.00000000000E+00  0.00000000000E+00  0.35624745755E+03  0.35624745755E+03  0.00000000000E+00 0. -1.
         21   -1    0    0  501  503 -0.00000000000E+00 -0.00000000000E+00 -0.12275795420E+03  0.12275795420E+03  0.00000000000E+00 0. -1.
          6    1    1    2  501    0 -0.71135621350E+02  0.91666522191E+01  0.80708731580E+01  0.18653000598E+03  0.17200000000E+03 0. -1.
         -6    1    1    2    0  502  0.71135621350E+02 -0.91666522191E+01  0.22541863020E+03  0.29247540577E+03  0.17200000000E+03 0. -1.
</event>
<event>
 4    1  0.5874615E+000  0.1824038E+03  0.7818608E-02  0.1165497E+00
         21   -1    0    0  503  502  0.00000000000E+00  0.00000000000E+00  0.80796029848E+03  0.80796029848E+03  0.00000000000E+00 0. -1.
         21   -1    0    0  501  503 -0.00000000000E+00 -0.00000000000E+00 -0.43470729213E+02  0.43470729213E+02  0.00000000000E+00 0. -1.
          6    1    1    2  501    0  0.59132629115E+02 -0.13801600800E+02  0.28450204661E+03  0.33795349759E+03  0.17200000000E+03 0. -1.
         -6    1    1    2    0  502 -0.59132629115E+02  0.13801600800E+02  0.47998752265E+03  0.51347753010E+03  0.17200000000E+03 0. -1.
</event>
<event>
 4    1  0.5874615E+000  0.1778567E+03  0.7818608E-02  0.1169894E+00
         21   -1    0    0  503  502  0.00000000000E+00  0.00000000000E+00  0.65327875703E+03  0.65327875703E+03  0.00000000000E+00 0. -1.
         21   -1    0    0  501  503 -0.00000000000E+00 -0.00000000000E+00 -0.12291157611E+03  0.12291157611E+03  0.00000000000E+00 0.  1.
          6    1    1    2  501    0  0.44139143291E+02 -0.10037692250E+02 -0.36943585429E+02  0.18165309725E+03  0.17200000000E+03 0.  1.
         -6    1    1    2    0  502 -0.44139143291E+02  0.10037692250E+02  0.56731076635E+03  0.59453723589E+03  0.17200000000E+03 0. -1.
</event>
<event>
 4    1  0.5874615E+000  0.2029552E+03  0.7818608E-02  0.1147269E+00
         21   -1    0    0  503  502  0.00000000000E+00  0.00000000000E+00  0.79658235315E+02  0.79658235315E+02  0.00000000000E+00 0. -1.
         21   -1    0    0  501  503 -0.00000000000E+00 -0.00000000000E+00 -0.12673120426E+04  0.12673120426E+04  0.00000000000E+00 0.  1.
          6    1    1    2  501    0 -0.10039341603E+03  0.39089285217E+02 -0.11120060548E+04  0.11303752811E+04  0.17200000000E+03 0.  1.
         -6    1    1    2    0  502  0.10039341603E+03 -0.39089285217E+02 -0.75647752519E+02  0.21659499685E+03  0.17200000000E+03 0. -1.
</event>
<event>
 4    1  0.5874615E+000  0.1836734E+03  0.7818608E-02  0.1164295E+00
         21   -1    0    0  503  502  0.00000000000E+00  0.00000000000E+00  0.21201583451E+03  0.21201583451E+03  0.00000000000E+00 0. -1.
         21   -1    0    0  501  503 -0.00000000000E+00 -0.00000000000E+00 -0.17327496712E+03  0.17327496712E+03  0.00000000000E+00 0. -1.
          6    1    1    2  501    0  0.41587086058E+02  0.49218094477E+02  0.74432055941E+02  0.19818182940E+03  0.17200000000E+03 0. -1.
         -6    1    1    2    0  502 -0.41587086058E+02 -0.49218094477E+02 -0.35691188558E+02  0.18710897224E+03  0.17200000000E+03 0. -1.
</event>
<event>
 4    1  0.5874615E+000  0.2224465E+03  0.7818608E-02  0.1132072E+00
         21   -1    0    0  501  502  0.00000000000E+00  0.00000000000E+00  0.15319185657E+03  0.15319185657E+03  0.00000000000E+00 0.  1.
         21   -1    0    0  502  503 -0.00000000000E+00 -0.00000000000E+00 -0.41048970121E+03  0.41048970121E+03  0.00000000000E+00 0.  1.
          6    1    1    2  501    0  0.13853098038E+03  0.26600810885E+02  0.14600993638E+01  0.22245127007E+03  0.17200000000E+03 0.  1.
         -6    1    1    2    0  503 -0.13853098038E+03 -0.26600810885E+02 -0.25875794401E+03  0.34123028771E+03  0.17200000000E+03 0.  1.
</event>
<event>
 4    1  0.5874615E+000  0.2124822E+03  0.7818608E-02  0.1139615E+00
         21   -1    0    0  501  502  0.00000000000E+00  0.00000000000E+00  0.26747696136E+03  0.26747696136E+03  0.00000000000E+00 0.  1.
         21   -1    0    0  502  503 -0.00000000000E+00 -0.00000000000E+00 -0.18889292505E+03  0.18889292505E+03  0.00000000000E+00 0.  1.
          6    1    1    2  501    0  0.12222733206E+03 -0.25003317554E+02  0.11372377460E+03  0.24100162552E+03  0.17200000000E+03 0.  1.
         -6    1    1    2    0  503 -0.12222733206E+03  0.25003317554E+02 -0.35139738295E+02  0.21536826089E+03  0.17200000000E+03 0.  1.
</event>
<event>
 4    1  0.5874615E+000  0.2045756E+03  0.7818608E-02  0.1145935E+00
         21   -1    0    0  501  502  0.00000000000E+00  0.00000000000E+00  0.60632155801E+02  0.60632155801E+02  0.00000000000E+00 0. -1.
         21   -1    0    0  502  503 -0.00000000000E+00 -0.00000000000E+00 -0.81160227055E+03  0.81160227055E+03  0.00000000000E+00 0. -1.
          6    1    1    2  501    0  0.11784725335E+02 -0.11012852945E+03 -0.54412508097E+03  0.58131168618E+03  0.17200000000E+03 0. -1.
         -6    1    1    2    0  503 -0.11784725335E+02  0.11012852945E+03 -0.20684503378E+03  0.29092274017E+03  0.17200000000E+03 0. -1.
</event>
<event>
 4    1  0.5874615E+000  0.1757498E+03  0.7818608E-02  0.1171981E+00
         21   -1    0    0  503  502  0.00000000000E+00  0.00000000000E+00  0.26439661016E+03  0.26439661016E+03  0.00000000000E+00 0. -1.
         21   -1    0    0  501  503 -0.00000000000E+00 -0.00000000000E+00 -0.12322759144E+03  0.12322759144E+03  0.00000000000E+00 0. -1.
          6    1    1    2  501    0 -0.71133339201E+00 -0.36103642292E+02  0.26404613742E+02  0.17772220629E+03  0.17200000000E+03 0. -1.
         -6    1    1    2    0  502  0.71133339201E+00  0.36103642292E+02  0.11476440498E+03  0.20990199530E+03  0.17200000000E+03 0. -1.
</event>
<event>
 4    1  0.5874615E+000  0.2245769E+03  0.7818608E-02  0.1130516E+00
         21   -1    0    0  503  502  0.00000000000E+00  0.00000000000E+00  0.10139307821E+04  0.10139307821E+04  0.00000000000E+00 0. -1.
         21   -1    0    0  501  503 -0.00000000000E+00 -0.00000000000E+00 -0.11649076085E+03  0.11649076085E+03  0.00000000000E+00 0. -1.
          6    1    1    2  501    0  0.13017579506E+03  0.62490538375E+02  0.20874733986E+02  0.22554502771E+03  0.17200000000E+03 0. -1.
         -6    1    1    2    0  502 -0.13017579506E+03 -0.62490538375E+02  0.87656528724E+03  0.90487651522E+03  0.17200000000E+03 0. -1.
</event>
<event>
 4    1  0.5874615E+000  0.1779467E+03  0.7818608E-02  0.1169805E+00
         21   -1    0    0  501  502  0.00000000000E+00  0.00000000000E+00  0.12714086960E+04  0.12714086960E+04  0.00000000000E+00 0.  1.
         21   -1    0    0  502  503 -0.00000000000E+00 -0.00000000000E+00 -0.15489054638E+03  0.15489054638E+03  0.00000000000E+00 0.  1.
          6    1    1    2  501    0 -0.12189154420E+02  0.43959508654E+02  0.12115625516E+04  0.12245606683E+04  0.17200000000E+03 0.  1.
         -6    1    1    2    0  503  0.12189154420E+02 -0.43959508654E+02 -0.95044402049E+02  0.20173857402E+03  0.17200000000E+03 0.  1.
</event>
<event>
 4    1  0.5874615E+000  0.1762161E+03  0.7818608E-02  0.1171516E+00
         21   -1    0    0  503  502  0.00000000000E+00  0.00000000000E+00  0.26359169985E+03  0.26359169985E+03  0.00000000000E+00 0.  1.
         21   -1    0    0  501  503 -0.00000000000E+00 -0.00000000000E+00 -0.17893644956E+03  0.17893644956E+03  0.00000000000E+00 0.  1.
          6    1    1    2  501    0  0.56592564049E+00 -0.38311820235E+02 -0.87001978457E+02  0.19652343396E+03  0.17200000000E+03 0.  1.
         -6    1    1    2    0  502 -0.56592564049E+00  0.38311820235E+02  0.17165722875E+03  0.24600471545E+03  0.17200000000E+03 0.  1.
</event>
<event>
 4    1  0.5874615E+000  0.2293961E+03  0.7818608E-02  0.1127066E+00
         21   -1    0    0  501  502  0.00000000000E+00  0.00000000000E+00  0.60189855803E+03  0.60189855803E+03  0.00000000000E+00 0. -1.
         21   -1    0    0  502  503 -0.00000000000E+00 -0.00000000000E+00 -0.11984244826E+03  0.11984244826E+03  0.00000000000E+00 0. -1.
          6    1    1    2  501    0  0.15136878808E+03 -0.11227003666E+02  0.42870803225E+03  0.48622333606E+03  0.17200000000E+03 0. -1.
         -6    1    1    2    0  503 -0.15136878808E+03  0.11227003666E+02  0.53348077516E+02  0.23551767023E+03  0.17200000000E+03 0. -1.
</event>
<event>
 4    1  0.5874615E+000  0.1797286E+03  0.7818608E-02  0.1168066E+00
         21   -1    0    0  503  502  0.00000000000E+00  0.00000000000E+00  0.55225161248E+03  0.55225161248E+03  0.00000000000E+00 0.  1.
         21   -1    0    0  501  503 -0.00000000000E+00 -0.00000000000E+00 -0.79797996144E+02  0.79797996144E+02  0.00000000000E+00 0.  1.
          6    1    1    2  501    0  0.48869948569E+02  0.18168927412E+02  0.72931158459E+02  0.19396220165E+03  0.17200000000E+03 0.  1.
         -6    1    1    2    0  502 -0.48869948569E+02 -0.18168927412E+02  0.39952245788E+03  0.43808740697E+03  0.17200000000E+03 0.  1.
</event>
<event>
 4    1  0.5874615E+000  0.2381161E+03  0.7818608E-02  0.1121054E+00
         21   -1    0    0  501  502  0.00000000000E+00  0.00000000000E+00  0.86829300189E+03  0.86829300189E+03  0.00000000000E+00 0. -1.
         21   -1    0    0  502  503 -0.00000000000E+00 -0.00000000000E+00 -0.67760353273E+02  0.67760353273E+02  0.00000000000E+00 0.  1.
          6    1    1    2  501    0  0.13888978686E+03  0.88458548017E+02  0.48945433078E+03  0.54430214912E+03  0.17200000000E+03 0. -1.
         -6    1    1    2    0  503 -0.13888978686E+03 -0.88458548017E+02  0.31107831784E+03  0.39175120605E+03  0.17200000000E+03 0.  1.
</event>
<event>
 4    1  0.5874615E+000  0.2380921E+03  0.7818608E-02  0.1121070E+00
         21   -1    0    0  503  502  0.00000000000E+00  0.00000000000E+00  0.10496757261E+03  0.10496757261E+03  0.00000000000E+00 0.  1.
         21   -1    0    0  501  503 -0.00000000000E+00 -0.00000000000E+00 -0.68589920686E+03  0.68589920686E+03  0.00000000000E+00 0. -1.
          6    1    1    2  501    0  0.73321927966E+02 -0.14740340126E+03 -0.47281061418E+03  0.52937486218E+03  0.17200000000E+03 0. -1.
         -6    1    1    2    0  502 -0.73321927966E+02  0.14740340126E+03 -0.10812102007E+03  0.26149191729E+03  0.17200000000E+03 0.  1.
</event>
<event>
 4    1  0.5874615E+000  0.2095453E+03  0.7818608E-02  0.1141927E+00
         21   -1    0    0  503  502  0.00000000000E+00  0.00000000000E+00  0.77955831170E+02  0.77955831170E+02  0.00000000000E+00 0. -1.
         21   -1    0    0  501  503 -0.00000000000E+00 -0.00000000000E+00 -0.12385581469E+04  0.12385581469E+04  0.00000000000E+00 0. -1.
          6    1    1    2  501    0  0.79982459205E+02 -0.89039569744E+02 -0.10663565091E+04  0.10867499451E+04  0.17200000000E+03 0. -1.
         -6    1    1    2    0  502 -0.79982459205E+02  0.89039569744E+02 -0.94245806628E+02  0.22976403293E+03  0.17200000000E+03 0. -1.
</event>
<event>
 4    1  0.5874615E+000  0.2015632E+03  0.7818608E-02  0.1148427E+00
         21   -1    0    0  501  502  0.00000000000E+00  0.00000000000E+00  0.93357166949E+02  0.93357166949E+02  0.00000000000E+00 0. -1.
         21   -1    0    0  502  503 -0.00000000000E+00 -0.00000000000E+00 -0.47589976439E+03  0.47589976439E+03  0.00000000000E+00 0. -1.
          6    1    1    2  501    0 -0.54218528707E+02 -0.90022664106E+02 -0.10801992736E+03  0.22868326046E+03  0.17200000000E+03 0. -1.
         -6    1    1    2    0  503  0.54218528707E+02  0.90022664106E+02 -0.27452267009E+03  0.34057367088E+03  0.17200000000E+03 0. -1.
</event>
<event>
 4    1  0.5874615E+000  0.2438960E+03  0.7818608E-02  0.1117224E+00
         21   -1    0    0  501  502  0.00000000000E+00  0.00000000000E+00  0.34842308694E+03  0.34842308694E+03  0.00000000000E+00 0. -1.
         21   -1    0    0  502  503 -0.00000000000E+00 -0.00000000000E+00 -0.17074905276E+03  0.17074905276E+03  0.00000000000E+00 0.  1.
          6    1    1    2  501    0  0.99673733417E+02  0.14130247794E+03  0.91784207474E+02  0.26059467406E+03  0.17200000000E+03 0. -1.
         -6    1    1    2    0  503 -0.99673733417E+02 -0.14130247794E+03  0.85889826709E+02  0.25857746564E+03  0.17200000000E+03 0. -1.
</event>
<event>
 4    1  0.5874615E+000  0.1930655E+03  0.7818608E-02  0.1155725E+00
         21   -1    0    0  501  502  0.00000000000E+00  0.00000000000E+00  0.14367070717E+03  0.14367070717E+03  0.00000000000E+00 0.  1.
         21   -1    0    0  502  503 -0.00000000000E+00 -0.00000000000E+00 -0.26355675829E+03  0.26355675829E+03  0.00000000000E+00 0.  1.
          6    1    1    2  501    0 -0.71008326159E+02 -0.51459878140E+02 -0.34503405483E+02  0.19612441570E+03  0.17200000000E+03 0.  1.
         -6    1    1    2    0  503  0.71008326159E+02  0.51459878140E+02 -0.85382645633E+02  0.21110304976E+03  0.17200000000E+03 0.  1.
</event>
<event>
 4    1  0.5874615E+000  0.2009240E+03  0.7818608E-02  0.1148962E+00
         21   -1    0    0  503  502  0.00000000000E+00  0.00000000000E+00  0.27479849323E+03  0.27479849323E+03  0.00000000000E+00 0.  1.
         21   -1    0    0  501  503 -0.00000000000E+00 -0.00000000000E+00 -0.10874382415E+04  0.10874382415E+04  0.00000000000E+00 0.  1.
          6    1    1    2  501    0 -0.75064907353E+02 -0.71775346225E+02 -0.10397611870E+04  0.10589965848E+04  0.17200000000E+03 0.  1.
         -6    1    1    2    0  502  0.75064907353E+02  0.71775346225E+02  0.22712143868E+03  0.30324014996E+03  0.17200000000E+03 0.  1.
</event>
<event>
 4    1  0.5874615E+000  0.1918905E+03  0.7818608E-02  0.1156767E+00
         21   -1    0    0  501  502  0.00000000000E+00  0.00000000000E+00  0.49076740455E+03  0.49076740455E+03  0.00000000000E+00 0.  1.
         21   -1    0    0  502  503 -0.00000000000E+00 -0.00000000000E+00 -0.81248637851E+02  0.81248637851E+02  0.00000000000E+00 0.  1.
          6    1    1    2  501    0  0.21293455671E+00 -0.85075912460E+02  0.28388930241E+03  0.34265885695E+03  0.17200000000E+03 0.  1.
         -6    1    1    2    0  503 -0.21293455671E+00  0.85075912460E+02  0.12562946429E+03  0.22935718546E+03  0.17200000000E+03 0.  1.
</event>
<event>
 4    1  0.5874615E+000  0.1995489E+03  0.7818608E-02  0.1150120E+00
         21   -1    0    0  501  502  0.00000000000E+00  0.00000000000E+00  0.94243687918E+02  0.94243687918E+02  0.00000000000E+00 0. -1.
         21   -1    0    0  502  503 -0.00000000000E+00 -0.00000000000E+00 -0.46311793940E+03  0.46311793940E+03  0.00000000000E+00 0. -1.
          6    1    1    2  501    0 -0.30735572732E+02  0.96390374398E+02 -0.10192517469E+03  0.22407257963E+03  0.17200000000E+03 0. -1.
         -6    1    1    2    0  503  0.30735572732E+02 -0.96390374398E+02 -0.26694907679E+03  0.33328904769E+03  0.17200000000E+03 0. -1.
</event>
<event>
 4    1  0.5874615E+000  0.1981340E+03  0.7818608E-02  0.1151323E+00
         21   -1    0    0  503  502  0.00000000000E+00  0.00000000000E+00  0.41617615524E+02  0.41617615524E+02  0.00000000000E+00 0. -1.
         21   -1    0    0  501  503 -0.00000000000E+00 -0.00000000000E+00 -0.10254112663E+04  0.10254112663E+04  0.00000000000E+00 0.  1.
          6    1    1    2  501    0 -0.92917283625E+02  0.32240867954E+02 -0.64288726171E+03  0.67272663573E+03  0.17200000000E+03 0.  1.
         -6    1    1    2    0  502  0.92917283625E+02 -0.32240867954E+02 -0.34090638907E+03  0.39430224609E+03  0.17200000000E+03 0. -1.
</event>
<event>
 4    1  0.5874615E+000  0.2643668E+03  0.7818608E-02  0.1104548E+00
         21   -1    0    0  501  502  0.00000000000E+00  0.00000000000E+00  0.63302121156E+03  0.63302121156E+03  0.00000000000E+00 0. -1.
         21   -1    0    0  502  503 -0.00000000000E+00 -0.00000000000E+00 -0.21797101648E+03  0.21797101648E+03  0.00000000000E+00 0.  1.
          6    1    1    2  501    0  0.15455112334E+03  0.12813960076E+03  0.50642808637E+03  0.57127857799E+03  0.17200000000E+03 0. -1.
         -6    1    1    2    0  503 -0.15455112334E+03 -0.12813960076E+03 -0.91377891289E+02  0.27971365005E+03  0.17200000000E+03 0. -1.
</event>
<event>
 4    1  0.5874615E+000  0.2478912E+03  0.7818608E-02  0.1114645E+00
         21   -1    0    0  503  502  0.00000000000E+00  0.00000000000E+00  0.72855968455E+03  0.72855968455E+03  0.00000000000E+00 0. -1.
         21   -1    0    0  501  503 -0.00000000000E+00 -0.00000000000E+00 -0.10682535105E+03  0.10682535105E+03  0.00000000000E+00 0. -1.
          6    1    1    2  501    0  0.57403596980E+02  0.16902919468E+03  0.11925398405E+03  0.27508463118E+03  0.17200000000E+03 0. -1.
         -6    1    1    2    0  502 -0.57403596980E+02 -0.16902919468E+03  0.50248034946E+03  0.56030040442E+03  0.17200000000E+03 0. -1.
</event>
<event>
 4    1  0.5874615E+000  0.2512931E+03  0.7818608E-02  0.1112490E+00
         21   -1    0    0  503  502  0.00000000000E+00  0.00000000000E+00  0.21111743643E+03  0.21111743643E+03  0.00000000000E+00 0. -1.
         21   -1    0    0  501  503 -0.00000000000E+00 -0.00000000000E+00 -0.42652831501E+03  0.42652831501E+03  0.00000000000E+00 0. -1.
          6    1    1    2  501    0 -0.11412767726E+03  0.14331462419E+03 -0.28196011185E+03  0.37768996929E+03  0.17200000000E+03 0. -1.
         -6    1    1    2    0  502  0.11412767726E+03 -0.14331462419E+03  0.66549233284E+02  0.25995578215E+03  0.17200000000E+03 0. -1.
</event>
<event>
 4    1  0.5874615E+000  0.1841875E+03  0.7818608E-02  0.1163811E+00
         21   -1    0    0  503  502  0.00000000000E+00  0.00000000000E+00  0.11316580609E+04  0.11316580609E+04  0.00000000000E+00 0.  1.
         21   -1    0    0  501  503 -0.00000000000E+00 -0.00000000000E+00 -0.14037523343E+03  0.14037523343E+03  0.00000000000E+00 0.  1.
          6    1    1    2  501    0 -0.65396800465E+02  0.80179852150E+01 -0.68388336877E+02  0.19647390213E+03  0.17200000000E+03 0.  1.
         -6    1    1    2    0  502  0.65396800465E+02 -0.80179852150E+01  0.10596711644E+04  0.10755593922E+04  0.17200000000E+03 0.  1.
</event>
<event>
 4    1  0.5874615E+000  0.1743092E+03  0.7818608E-02  0.1173427E+00
         21   -1    0    0  503  502  0.00000000000E+00  0.00000000000E+00  0.14459679468E+03  0.14459679468E+03  0.00000000000E+00 0. -1.
         21   -1    0    0  501  503 -0.00000000000E+00 -0.00000000000E+00 -0.60969468596E+03  0.60969468596E+03  0.00000000000E+00 0. -1.
          6    1    1    2  501    0 -0.25525137197E+02 -0.12172479990E+02 -0.53786394395E+03  0.56540368242E+03  0.17200000000E+03 0. -1.
         -6    1    1    2    0  502  0.25525137197E+02  0.12172479990E+02  0.72766052667E+02  0.18888779823E+03  0.17200000000E+03 0. -1.
</event>
<event>
 4    1  0.5874615E+000  0.2720244E+03  0.7818608E-02  0.1100127E+00
         21   -1    0    0  501  502  0.00000000000E+00  0.00000000000E+00  0.48121288468E+03  0.48121288468E+03  0.00000000000E+00 0. -1.
         21   -1    0    0  502  503 -0.00000000000E+00 -0.00000000000E+00 -0.16502953017E+03  0.16502953017E+03  0.00000000000E+00 0.  1.
          6    1    1    2  501    0 -0.18889144764E+03 -0.93452052295E+02  0.73700260159E+02  0.28183149827E+03  0.17200000000E+03 0.  1.
         -6    1    1    2    0  503  0.18889144764E+03  0.93452052295E+02  0.24248309436E+03  0.36441091658E+03  0.17200000000E+03 0.  1.
</event>
<event>
 4    1  0.5874615E+000  0.1799785E+03  0.7818608E-02  0.1167824E+00
         21   -1    0    0  503  502  0.00000000000E+00  0.00000000000E+00  0.61072291976E+03  0.61072291976E+03  0.00000000000E+00 0.  1.
         21   -1    0    0  501  503 -0.00000000000E+00 -0.00000000000E+00 -0.17607100879E+03  0.17607100879E+03  0.00000000000E+00 0.  1.
          6    1    1    2  501    0  0.33464658722E+01  0.52887274879E+02 -0.11152246527E+03  0.21172983479E+03  0.17200000000E+03 0.  1.
         -6    1    1    2    0  502 -0.33464658722E+01 -0.52887274879E+02  0.54617437624E+03  0.57506409376E+03  0.17200000000E+03 0.  1.
</event>
<event>
 4    1  0.5874615E+000  0.2315121E+03  0.7818608E-02  0.1125580E+00
         21   -1    0    0  503  502  0.00000000000E+00  0.00000000000E+00  0.53451767004E+03  0.53451767004E+03  0.00000000000E+00 0. -1.
         21   -1    0    0  501  503 -0.00000000000E+00 -0.00000000000E+00 -0.10029360887E+03  0.10029360887E+03  0.00000000000E+00 0.  1.
          6    1    1    2  501    0  0.12707763830E+03  0.88685675705E+02  0.21260044391E+03  0.31431962074E+03  0.17200000000E+03 0. -1.
         -6    1    1    2    0  502 -0.12707763830E+03 -0.88685675705E+02  0.22162361726E+03  0.32049165817E+03  0.17200000000E+03 0.  1.
</event>
<event>
 4    1  0.5874615E+000  0.2032226E+03  0.7818608E-02  0.1147048E+00
         21   -1    0    0  501  502  0.00000000000E+00  0.00000000000E+00  0.37669564640E+02  0.37669564640E+02  0.00000000000E+00 0.  1.
         21   -1    0    0  502  503 -0.00000000000E+00 -0.00000000000E+00 -0.11287345924E+04  0.11287345924E+04  0.00000000000E+00 0.  1.
          6    1    1    2  501    0 -0.74647739067E+02  0.78378221877E+02 -0.44676354004E+03  0.49081268456E+03  0.17200000000E+03 0.  1.
         -6    1    1    2    0  503  0.74647739067E+02 -0.78378221877E+02 -0.64430148770E+03  0.67559147246E+03  0.17200000000E+03 0.  1.
</event>
<event>
 4    1  0.5874615E+000  0.1971695E+03  0.7818608E-02  0.1152149E+00
         21   -1    0    0  503  502  0.00000000000E+00  0.00000000000E+00  0.75220752890E+03  0.75220752890E+03  0.00000000000E+00 0. -1.
         21   -1    0    0  501  503 -0.00000000000E+00 -0.00000000000E+00 -0.66326972973E+02  0.66326972973E+02  0.00000000000E+00 0.  1.
          6    1    1    2  501    0  0.96261321929E+02  0.50558651801E+01  0.15063023393E+03  0.24812349999E+03  0.17200000000E+03 0.  1.
         -6    1    1    2    0  502 -0.96261321929E+02 -0.50558651801E+01  0.53525032200E+03  0.57041100189E+03  0.17200000000E+03 0. -1.
</event>
<event>
 4    1  0.5874615E+000  0.2654744E+03  0.7818608E-02  0.1103898E+00
         21   -1    0    0  503  502  0.00000000000E+00  0.00000000000E+00  0.74540874225E+03  0.74540874225E+03  0.00000000000E+00 0.  1.
         21   -1    0    0  501  503 -0.00000000000E+00 -0.00000000000E+00 -0.11187571252E+03  0.11187571252E+03  0.00000000000E+00 0.  1.
          6    1    1    2  501    0  0.15248185356E+03  0.13282289540E+03  0.14807152762E+03  0.30397666769E+03  0.17200000000E+03 0.  1.
         -6    1    1    2    0  502 -0.15248185356E+03 -0.13282289540E+03  0.48546150211E+03  0.55330778708E+03  0.17200000000E+03 0.  1.
</event>
<event>
 4    1  0.5874615E+000  0.1758244E+03  0.7818608E-02  0.1171906E+00
         21   -1    0    0  503  502  0.00000000000E+00  0.00000000000E+00  0.32044685786E+03  0.32044685786E+03  0.00000000000E+00 0. -1.
         21   -1    0    0  501  503 -0.00000000000E+00 -0.00000000000E+00 -0.10050793159E+03  0.10050793159E+03  0.00000000000E+00 0. -1.
          6    1    1    2  501    0 -0.34899363166E+02  0.10595479561E+02  0.15214529713E+03  0.23251327097E+03  0.17200000000E+03 0. -1.
         -6    1    1    2    0  502  0.34899363166E+02 -0.10595479561E+02  0.67793629144E+02  0.18844151849E+03  0.17200000000E+03 0. -1.
</event>
<event>
 4    1  0.5874615E+000  0.1966864E+03  0.7818608E-02  0.1152565E+00
         21   -1    0    0  501  502  0.00000000000E+00  0.00000000000E+00  0.34105092935E+03  0.34105092935E+03  0.00000000000E+00 0.  1.
         21   -1    0    0  502  503 -0.00000000000E+00 -0.00000000000E+00 -0.18781167235E+03  0.18781167235E+03  0.00000000000E+00 0.  1.
          6    1    1    2  501    0  0.24917059501E+02 -0.92090515327E+02 -0.89791953140E+02  0.21621313030E+03  0.17200000000E+03 0.  1.
         -6    1    1    2    0  503 -0.24917059501E+02  0.92090515327E+02  0.24303121014E+03  0.31264947140E+03  0.17200000000E+03 0.  1.
</event>
<event>
 4    1  0.5874615E+000  0.2016115E+03  0.7818608E-02  0.1148386E+00
         21   -1    0    0  503  502  0.00000000000E+00  0.00000000000E+00  0.72235357651E+03  0.72235357651E+03  0.00000000000E+00 0. -1.
         21   -1    0    0  501  503 -0.00000000000E+00 -0.00000000000E+00 -0.56543717603E+02  0.56543717603E+02  0.00000000000E+00 0. -1.
          6    1    1    2  501    0  0.71547079706E+02 -0.77098654864E+02  0.30583275969E+03  0.36630706258E+03  0.17200000000E+03 0. -1.
         -6    1    1    2    0  502 -0.71547079706E+02  0.77098654864E+02  0.35997709921E+03  0.41259023153E+03  0.17200000000E+03 0. -1.
</event>
<event>
 4    1  0.5874615E+000  0.2190800E+03  0.7818608E-02  0.1134571E+00
         21   -1    0    0  503  502  0.00000000000E+00  0.00000000000E+00  0.31125466555E+02  0.31125466555E+02  0.00000000000E+00 0.  1.
         21   -1    0    0  501  503 -0.00000000000E+00 -0.00000000000E+00 -0.26275811364E+04  0.26275811364E+04  0.00000000000E+00 0. -1.
          6    1    1    2  501    0  0.73849351689E+02 -0.11383462630E+03 -0.21526839672E+04  0.21638032053E+04  0.17200000000E+03 0. -1.
         -6    1    1    2    0  502 -0.73849351689E+02  0.11383462630E+03 -0.44377170271E+03  0.49490339766E+03  0.17200000000E+03 0.  1.
</event>
<event>
 4    1  0.5874615E+000  0.2630336E+03  0.7818608E-02  0.1105334E+00
         21   -1    0    0  501  502  0.00000000000E+00  0.00000000000E+00  0.40738811880E+02  0.40738811880E+02  0.00000000000E+00 0.  1.
         21   -1    0    0  502  503 -0.00000000000E+00 -0.00000000000E+00 -0.17041858189E+04  0.17041858189E+04  0.00000000000E+00 0. -1.
          6    1    1    2  501    0  0.19834127532E+03 -0.16230406638E+02 -0.88300076391E+03  0.92134523207E+03  0.17200000000E+03 0.  1.
         -6    1    1    2    0  503 -0.19834127532E+03  0.16230406638E+02 -0.78044624313E+03  0.82357939872E+03  0.17200000000E+03 0. -1.
</event>
<event>
 4    1  0.5874615E+000  0.1748949E+03  0.7818608E-02  0.1172837E+00
         21   -1    0    0  503  502  0.00000000000E+00  0.00000000000E+00  0.41549986049E+02  0.41549986049E+02  0.00000000000E+00 0.  1.
         21   -1    0    0  501  503 -0.00000000000E+00 -0.00000000000E+00 -0.12526024320E+04  0.12526024320E+04  0.00000000000E+00 0.  1.
          6    1    1    2  501    0 -0.21266353086E+02 -0.23493930279E+02 -0.10210078503E+04  0.10358789760E+04  0.17200000000E+03 0.  1.
         -6    1    1    2    0  502  0.21266353086E+02  0.23493930279E+02 -0.19004459564E+03  0.25827344205E+03  0.17200000000E+03 0.  1.
</event>
<event>
 4    1  0.5874615E+000  0.2977575E+03  0.7818608E-02  0.1086367E+00
         21   -1    0    0  501  502  0.00000000000E+00  0.00000000000E+00  0.17392191295E+03  0.17392191295E+03  0.00000000000E+00 0. -1.
         21   -1    0    0  502  503 -0.00000000000E+00 -0.00000000000E+00 -0.54922868588E+03  0.54922868588E+03  0.00000000000E+00 0.  1.
          6    1    1    2  501    0  0.19941571124E+02 -0.24223510509E+03 -0.90733169744E+02  0.31127483112E+03  0.17200000000E+03 0. -1.
         -6    1    1    2    0  503 -0.19941571124E+02  0.24223510509E+03 -0.28457360319E+03  0.41187576771E+03  0.17200000000E+03 0. -1.
</event>
<event>
 4    1  0.5874615E+000  0.1884314E+03  0.7818608E-02  0.1159884E+00
         21   -1    0    0  501  502  0.00000000000E+00  0.00000000000E+00  0.35412465152E+02  0.35412465152E+02  0.00000000000E+00 0.  1.
         21   -1    0    0  502  503 -0.00000000000E+00 -0.00000000000E+00 -0.14601017302E+04  0.14601017302E+04  0.00000000000E+00 0.  1.
          6    1    1    2  501    0  0.35786074995E+02 -0.68130494980E+02 -0.29380143091E+03  0.34903536828E+03  0.17200000000E+03 0.  1.
         -6    1    1    2    0  503 -0.35786074995E+02  0.68130494980E+02 -0.11308878341E+04  0.11464788271E+04  0.17200000000E+03 0.  1.
</event>
<event>
 4    1  0.5874615E+000  0.2023415E+03  0.7818608E-02  0.1147778E+00
         21   -1    0    0  501  502  0.00000000000E+00  0.00000000000E+00  0.17699641991E+04  0.17699641991E+04  0.00000000000E+00 0.  1.
         21   -1    0    0  502  503 -0.00000000000E+00 -0.00000000000E+00 -0.50978503322E+02  0.50978503322E+02  0.00000000000E+00 0.  1.
          6    1    1    2  501    0  0.33058214659E+02  0.10131747294E+03  0.15324095709E+04  0.15457105708E+04  0.17200000000E+03 0.  1.
         -6    1    1    2    0  503 -0.33058214659E+02 -0.10131747294E+03  0.18657612494E+03  0.27523213162E+03  0.17200000000E+03 0.  1.
</event>
<event>
 4    1  0.5874615E+000  0.1801864E+03  0.7818608E-02  0.1167623E+00
         21   -1    0    0  503  502  0.00000000000E+00  0.00000000000E+00  0.92426162604E+03  0.92426162604E+03  0.00000000000E+00 0. -1.
         21   -1    0    0  501  503 -0.00000000000E+00 -0.00000000000E+00 -0.53179453244E+02  0.53179453244E+02  0.00000000000E+00 0. -1.
          6    1    1    2  501    0 -0.53520759449E+02 -0.43213012003E+01  0.15080083136E+03  0.23496390377E+03  0.17200000000E+03 0. -1.
         -6    1    1    2    0  502  0.53520759449E+02  0.43213012003E+01  0.72028134144E+03  0.74247717552E+03  0.17200000000E+03 0. -1.
</event>
<event>
 4    1  0.5874615E+000  0.1818532E+03  0.7818608E-02  0.1166022E+00
         21   -1    0    0  501  502  0.00000000000E+00  0.00000000000E+00  0.11227542987E+03  0.11227542987E+03  0.00000000000E+00 0. -1.
         21   -1    0    0  502  503 -0.00000000000E+00 -0.00000000000E+00 -0.40727958430E+03  0.40727958430E+03  0.00000000000E+00 0. -1.
          6    1    1    2  501    0 -0.47263301316E+02 -0.35394236231E+02 -0.10830924287E+02  0.18217541143E+03  0.17200000000E+03 0. -1.
         -6    1    1    2    0  503  0.47263301316E+02  0.35394236231E+02 -0.28417323015E+03  0.33737960274E+03  0.17200000000E+03 0. -1.
</event>
<event>
 4    1  0.5874615E+000  0.1848457E+03  0.7818608E-02  0.1163194E+00
         21   -1    0    0  501  502  0.00000000000E+00  0.00000000000E+00  0.23334624623E+03  0.23334624623E+03  0.00000000000E+00 0. -1.
         21   -1    0    0  502  503 -0.00000000000E+00 -0.00000000000E+00 -0.15448712614E+03  0.15448712614E+03  0.00000000000E+00 0. -1.
          6    1    1    2  501    0  0.66829957432E+02 -0.10848532746E+02 -0.48669604842E+01  0.18490976496E+03  0.17200000000E+03 0. -1.
         -6    1    1    2    0  503 -0.66829957432E+02  0.10848532746E+02  0.83726080576E+02  0.20292360740E+03  0.17200000000E+03 0. -1.
</event>
<event>
 4    1  0.5874615E+000  0.2825481E+03  0.7818608E-02  0.1094305E+00
         21   -1    0    0  501  502  0.00000000000E+00  0.00000000000E+00  0.16248235532E+03  0.16248235532E+03  0.00000000000E+00 0.  1.
         21   -1    0    0  502  503 -0.00000000000E+00 -0.00000000000E+00 -0.49246950102E+03  0.49246950102E+03  0.00000000000E+00 0.  1.
          6    1    1    2  501    0 -0.20776691048E+03 -0.84156672664E+02 -0.14928286234E+03  0.31956033488E+03  0.17200000000E+03 0.  1.
         -6    1    1    2    0  503  0.20776691048E+03  0.84156672664E+02 -0.18070428335E+03  0.33539152146E+03  0.17200000000E+03 0.  1.
</event>
<event>
 4    1  0.5874615E+000  0.1850138E+03  0.7818608E-02  0.1163037E+00
         21   -1    0    0  503  502  0.00000000000E+00  0.00000000000E+00  0.16216080631E+02  0.16216080631E+02  0.00000000000E+00 0. -1.
         21   -1    0    0  501  503 -0.00000000000E+00 -0.00000000000E+00 -0.22921769162E+04  0.22921769162E+04  0.00000000000E+00 0.  1.
          6    1    1    2  501    0  0.68131816884E+02 -0.20386061142E+01 -0.81337312552E+03  0.83414983168E+03  0.17200000000E+03 0. -1.
         -6    1    1    2    0  502 -0.68131816884E+02  0.20386061142E+01 -0.14625877101E+04  0.14742431652E+04  0.17200000000E+03 0. -1.
</event>
<event>
 4    1  0.5874615E+000  0.1961010E+03  0.7818608E-02  0.1153071E+00
         21   -1    0    0  503  502  0.00000000000E+00  0.00000000000E+00  0.84920099003E+03  0.84920099003E+03  0.00000000000E+00 0. -1.
         21   -1    0    0  501  503 -0.00000000000E+00 -0.00000000000E+00 -0.45753801863E+02  0.45753801863E+02  0.00000000000E+00 0. -1.
          6    1    1    2  501    0  0.90879906522E+02  0.24747388500E+02  0.35640131370E+03  0.40678924157E+03  0.17200000000E+03 0. -1.
         -6    1    1    2    0  502 -0.90879906522E+02 -0.24747388500E+02  0.44704587447E+03  0.48816555032E+03  0.17200000000E+03 0. -1.
</event>
<event>
 4    1  0.5874615E+000  0.1813736E+03  0.7818608E-02  0.1166480E+00
         21   -1    0    0  503  502  0.00000000000E+00  0.00000000000E+00  0.66715925675E+02  0.66715925675E+02  0.00000000000E+00 0. -1.
         21   -1    0    0  501  503 -0.00000000000E+00 -0.00000000000E+00 -0.54540264635E+03  0.54540264635E+03  0.00000000000E+00 0. -1.
          6    1    1    2  501    0 -0.17025569678E+02 -0.54977307610E+02 -0.33413858436E+03  0.38019069943E+03  0.17200000000E+03 0. -1.
         -6    1    1    2    0  502  0.17025569678E+02  0.54977307610E+02 -0.14454813632E+03  0.23192787260E+03  0.17200000000E+03 0. -1.
</event>
<event>
 4    1  0.5874615E+000  0.1840813E+03  0.7818608E-02  0.1163911E+00
         21   -1    0    0  501  502  0.00000000000E+00  0.00000000000E+00  0.57390627138E+02  0.57390627138E+02  0.00000000000E+00 0.  1.
         21   -1    0    0  502  503 -0.00000000000E+00 -0.00000000000E+00 -0.69014271198E+03  0.69014271198E+03  0.00000000000E+00 0.  1.
          6    1    1    2  501    0  0.20876307695E+02 -0.62177963815E+02 -0.45843777520E+03  0.49401529646E+03  0.17200000000E+03 0.  1.
         -6    1    1    2    0  503 -0.20876307695E+02  0.62177963815E+02 -0.17431430964E+03  0.25351804266E+03  0.17200000000E+03 0.  1.
</event>
<event>
 4    1  0.5874615E+000  0.1733972E+03  0.7818608E-02  0.1174351E+00
         21   -1    0    0  501  502  0.00000000000E+00  0.00000000000E+00  0.43503209559E+02  0.43503209559E+02  0.00000000000E+00 0.  1.
         21   -1    0    0  502  503 -0.00000000000E+00 -0.00000000000E+00 -0.10159767270E+04  0.10159767270E+04  0.00000000000E+00 0.  1.
          6    1    1    2  501    0  0.16224696730E+02  0.14810284864E+02 -0.78577815502E+03  0.80468248037E+03  0.17200000000E+03 0.  1.
         -6    1    1    2    0  503 -0.16224696730E+02 -0.14810284864E+02 -0.18669536239E+03  0.25479745615E+03  0.17200000000E+03 0.  1.
</event>
<event>
 4    1  0.5874615E+000  0.1817765E+03  0.7818608E-02  0.1166095E+00
         21   -1    0    0  503  502  0.00000000000E+00  0.00000000000E+00  0.92449030435E+02  0.92449030435E+02  0.00000000000E+00 0. -1.
         21   -1    0    0  501  503 -0.00000000000E+00 -0.00000000000E+00 -0.45949729346E+03  0.45949729346E+03  0.00000000000E+00 0. -1.
          6    1    1    2  501    0 -0.40820712590E+02 -0.42336327039E+02 -0.31360097991E+03  0.36247519882E+03  0.17200000000E+03 0. -1.
         -6    1    1    2    0  502  0.40820712590E+02  0.42336327039E+02 -0.53447283120E+02  0.18947112507E+03  0.17200000000E+03 0. -1.
</event>
<event>
 4    1  0.5874615E+000  0.2060840E+03  0.7818608E-02  0.1144705E+00
         21   -1    0    0  501  502  0.00000000000E+00  0.00000000000E+00  0.33986931181E+03  0.33986931181E+03  0.00000000000E+00 0. -1.
         21   -1    0    0  502  503 -0.00000000000E+00 -0.00000000000E+00 -0.29173584300E+03  0.29173584300E+03  0.00000000000E+00 0. -1.
          6    1    1    2  501    0 -0.11349182108E+03 -0.24977673240E+01  0.26283972014E+03  0.33399902811E+03  0.17200000000E+03 0. -1.
         -6    1    1    2    0  503  0.11349182108E+03  0.24977673240E+01 -0.21470625133E+03  0.29760612670E+03  0.17200000000E+03 0. -1.
</event>
<event>
 4    1  0.5874615E+000  0.1789668E+03  0.7818608E-02  0.1168807E+00
         21   -1    0    0  503  502  0.00000000000E+00  0.00000000000E+00  0.63313875118E+02  0.63313875118E+02  0.00000000000E+00 0.  1.
         21   -1    0    0  501  503 -0.00000000000E+00 -0.00000000000E+00 -0.11114369993E+04  0.11114369993E+04  0.00000000000E+00 0.  1.
          6    1    1    2  501    0 -0.30954576877E+02 -0.38560912128E+02 -0.95762374993E+03  0.97420345729E+03  0.17200000000E+03 0.  1.
         -6    1    1    2    0  502  0.30954576877E+02  0.38560912128E+02 -0.90499374245E+02  0.20054741712E+03  0.17200000000E+03 0.  1.
</event>
<event>
 4    1  0.5874615E+000  0.2735281E+03  0.7818608E-02  0.1099277E+00
         21   -1    0    0  503  502  0.00000000000E+00  0.00000000000E+00  0.42564852013E+03  0.42564852013E+03  0.00000000000E+00 0. -1.
         21   -1    0    0  501  503 -0.00000000000E+00 -0.00000000000E+00 -0.18354696108E+03  0.18354696108E+03  0.00000000000E+00 0.  1.
          6    1    1    2  501    0 -0.10176116922E+03  0.18675735221E+03  0.58365446765E+02  0.27968584079E+03  0.17200000000E+03 0. -1.
         -6    1    1    2    0  502  0.10176116922E+03 -0.18675735221E+03  0.18373611229E+03  0.32950964041E+03  0.17200000000E+03 0. -1.
</event>
<event>
 4    1  0.5874615E+000  0.1820218E+03  0.7818608E-02  0.1165861E+00
         21   -1    0    0  501  502  0.00000000000E+00  0.00000000000E+00  0.98214903613E+02  0.98214903613E+02  0.00000000000E+00 0. -1.
         21   -1    0    0  502  503 -0.00000000000E+00 -0.00000000000E+00 -0.44070836738E+03  0.44070836738E+03  0.00000000000E+00 0. -1.
          6    1    1    2  501    0  0.83001446025E+01  0.58983296981E+02 -0.40746028763E+02  0.18652656804E+03  0.17200000000E+03 0. -1.
         -6    1    1    2    0  503 -0.83001446025E+01 -0.58983296981E+02 -0.30174743500E+03  0.35239670296E+03  0.17200000000E+03 0. -1.
</event>
<event>
 4    1  0.5874615E+000  0.1914172E+03  0.7818608E-02  0.1157189E+00
         21   -1    0    0  503  502  0.00000000000E+00  0.00000000000E+00  0.36920104734E+02  0.36920104734E+02  0.00000000000E+00 0.  1.
         21   -1    0    0  501  503 -0.00000000000E+00 -0.00000000000E+00 -0.15649177631E+04  0.15649177631E+04  0.00000000000E+00 0. -1.
          6    1    1    2  501    0  0.55056115650E+02 -0.63445834968E+02 -0.12484239102E+04  0.12630133845E+04  0.17200000000E+03 0. -1.
         -6    1    1    2    0  502 -0.55056115650E+02  0.63445834968E+02 -0.27957374814E+03  0.33882448331E+03  0.17200000000E+03 0.  1.
</event>
<event>
 4    1  0.5874615E+000  0.1982728E+03  0.7818608E-02  0.1151205E+00
         21   -1    0    0  501  502  0.00000000000E+00  0.00000000000E+00  0.57067822671E+03  0.57067822671E+03  0.00000000000E+00 0.  1.
         21   -1    0    0  502  503 -0.00000000000E+00 -0.00000000000E+00 -0.74727145557E+02  0.74727145557E+02  0.00000000000E+00 0. -1.
          6    1    1    2  501    0 -0.76148662413E+02  0.62685470074E+02  0.33819283885E+03  0.39202867650E+03  0.17200000000E+03 0.  1.
         -6    1    1    2    0  503  0.76148662413E+02 -0.62685470074E+02  0.15775824230E+03  0.25337669577E+03  0.17200000000E+03 0. -1.
</event>
<event>
 4    1  0.5874615E+000  0.2564310E+03  0.7818608E-02  0.1109307E+00
         21   -1    0    0  503  502  0.00000000000E+00  0.00000000000E+00  0.17049673596E+03  0.17049673596E+03  0.00000000000E+00 0. -1.
         21   -1    0    0  501  503 -0.00000000000E+00 -0.00000000000E+00 -0.58905582835E+03  0.58905582835E+03  0.00000000000E+00 0.  1.
          6    1    1    2  501    0 -0.17135237757E+03  0.82530042635E+02 -0.43243185306E+03  0.50274660892E+03  0.17200000000E+03 0.  1.
         -6    1    1    2    0  502  0.17135237757E+03 -0.82530042635E+02  0.13872760677E+02  0.25680595539E+03  0.17200000000E+03 0. -1.
</event>
<event>
 4    1  0.5874615E+000  0.1872232E+03  0.7818608E-02  0.1160990E+00
         21   -1    0    0  503  502  0.00000000000E+00  0.00000000000E+00  0.33890160398E+03  0.33890160398E+03  0.00000000000E+00 0.  1.
         21   -1    0    0  501  503 -0.00000000000E+00 -0.00000000000E+00 -0.10343915104E+03  0.10343915104E+03  0.00000000000E+00 0.  1.
          6    1    1    2  501    0  0.35694491693E+02 -0.64764476175E+02  0.11983112014E+03  0.22228817212E+03  0.17200000000E+03 0.  1.
         -6    1    1    2    0  502 -0.35694491693E+02  0.64764476175E+02  0.11563133280E+03  0.22005258289E+03  0.17200000000E+03 0.  1.
</event>
<event>
 4    1  0.5874615E+000  0.1782774E+03  0.7818608E-02  0.1169481E+00
         21   -1    0    0  501  502  0.00000000000E+00  0.00000000000E+00  0.40206610047E+03  0.40206610047E+03  0.00000000000E+00 0.  1.
         21   -1    0    0  502  503 -0.00000000000E+00 -0.00000000000E+00 -0.13263343094E+03  0.13263343094E+03  0.00000000000E+00 0.  1.
          6    1    1    2  501    0  0.41281404819E+02  0.22241292954E+02  0.30464770584E+03  0.35297741312E+03  0.17200000000E+03 0.  1.
         -6    1    1    2    0  503 -0.41281404819E+02 -0.22241292954E+02 -0.35215036303E+02  0.18172211830E+03  0.17200000000E+03 0.  1.
</event>
<event>
 4    1  0.5874615E+000  0.2463370E+03  0.7818608E-02  0.1115642E+00
         21   -1    0    0  501  502  0.00000000000E+00  0.00000000000E+00  0.24023806629E+03  0.24023806629E+03  0.00000000000E+00 0. -1.
         21   -1    0    0  502  503 -0.00000000000E+00 -0.00000000000E+00 -0.27924101976E+03  0.27924101976E+03  0.00000000000E+00 0.  1.
          6    1    1    2  501    0 -0.15162353499E+03 -0.90045596832E+02  0.60740112670E+02  0.25371493287E+03  0.17200000000E+03 0. -1.
         -6    1    1    2    0  503  0.15162353499E+03  0.90045596832E+02 -0.99743066137E+02  0.26576415318E+03  0.17200000000E+03 0.  1.
</event>
<event>
 4    1  0.5874615E+000  0.1953746E+03  0.7818608E-02  0.1153701E+00
         21   -1    0    0  503  502  0.00000000000E+00  0.00000000000E+00  0.13873053928E+04  0.13873053928E+04  0.00000000000E+00 0. -1.
         21   -1    0    0  501  503 -0.00000000000E+00 -0.00000000000E+00 -0.43350676987E+02  0.43350676987E+02  0.00000000000E+00 0.  1.
          6    1    1    2  501    0 -0.91868982652E+02  0.12137567832E+02  0.23963245863E+03  0.30918432327E+03  0.17200000000E+03 0.  1.
         -6    1    1    2    0  502  0.91868982652E+02 -0.12137567832E+02  0.11043222571E+04  0.11214717465E+04  0.17200000000E+03 0. -1.
</event>
<event>
 4    1  0.5874615E+000  0.1766403E+03  0.7818608E-02  0.1171095E+00
         21   -1    0    0  501  502  0.00000000000E+00  0.00000000000E+00  0.30674112922E+03  0.30674112922E+03  0.00000000000E+00 0. -1.
         21   -1    0    0  502  503 -0.00000000000E+00 -0.00000000000E+00 -0.10633713492E+03  0.10633713492E+03  0.00000000000E+00 0. -1.
          6    1    1    2  501    0 -0.88937605043E+00  0.40212155547E+02  0.57166115884E+02  0.18566037070E+03  0.17200000000E+03 0. -1.
         -6    1    1    2    0  503  0.88937605043E+00 -0.40212155547E+02  0.14323787841E+03  0.22741789344E+03  0.17200000000E+03 0. -1.
</event>
<event>
 4    1  0.5874615E+000  0.1827487E+03  0.7818608E-02  0.1165169E+00
         21   -1    0    0  501  502  0.00000000000E+00  0.00000000000E+00  0.76440365826E+02  0.76440365826E+02  0.00000000000E+00 0. -1.
         21   -1    0    0  502  503 -0.00000000000E+00 -0.00000000000E+00 -0.47886375969E+03  0.47886375969E+03  0.00000000000E+00 0. -1.
          6    1    1    2  501    0  0.97474695090E+01  0.60975994501E+02 -0.28340047689E+03  0.33721345669E+03  0.17200000000E+03 0. -1.
         -6    1    1    2    0  503 -0.97474695090E+01 -0.60975994501E+02 -0.11902291697E+03  0.21809066883E+03  0.17200000000E+03 0. -1.
</event>
<event>
 4    1  0.5874615E+000  0.2023772E+03  0.7818608E-02  0.1147749E+00
         21   -1    0    0  501  502  0.00000000000E+00  0.00000000000E+00  0.85052823449E+03  0.85052823449E+03  0.00000000000E+00 0.  1.
         21   -1    0    0  502  503 -0.00000000000E+00 -0.00000000000E+00 -0.54398120314E+02  0.54398120314E+02  0.00000000000E+00 0.  1.
          6    1    1    2  501    0  0.10346950069E+03  0.25818699008E+02  0.24477340849E+03  0.31760126621E+03  0.17200000000E+03 0.  1.
         -6    1    1    2    0  503 -0.10346950069E+03 -0.25818699008E+02  0.55135670568E+03  0.58732508860E+03  0.17200000000E+03 0.  1.
</event>
<event>
 4    1  0.5874615E+000  0.1820638E+03  0.7818608E-02  0.1165821E+00
         21   -1    0    0  501  502  0.00000000000E+00  0.00000000000E+00  0.92371375118E+02  0.92371375118E+02  0.00000000000E+00 0. -1.
         21   -1    0    0  502  503 -0.00000000000E+00 -0.00000000000E+00 -0.75118533184E+03  0.75118533184E+03  0.00000000000E+00 0. -1.
          6    1    1    2  501    0 -0.59643679474E+02  0.24194210631E+01 -0.24588759576E+02  0.18371670908E+03  0.17200000000E+03 0. -1.
         -6    1    1    2    0  503  0.59643679474E+02 -0.24194210631E+01 -0.63422519715E+03  0.65983999788E+03  0.17200000000E+03 0. -1.
</event>
<event>
 4    1  0.5874615E+000  0.2630926E+03  0.7818608E-02  0.1105299E+00
         21   -1    0    0  503  502  0.00000000000E+00  0.00000000000E+00  0.26868873994E+04  0.26868873994E+04  0.00000000000E+00 0. -1.
         21   -1    0    0  501  503 -0.00000000000E+00 -0.00000000000E+00 -0.37864121038E+02  0.37864121038E+02  0.00000000000E+00 0.  1.
          6    1    1    2  501    0 -0.18145189814E+03 -0.81908040854E+02  0.55427134787E+03  0.61354253770E+03  0.17200000000E+03 0.  1.
         -6    1    1    2    0  502  0.18145189814E+03  0.81908040854E+02  0.20947519304E+04  0.21112089827E+04  0.17200000000E+03 0. -1.
</event>
<event>
 4    1  0.5874615E+000  0.3049723E+03  0.7818608E-02  0.1082781E+00
         21   -1    0    0  501  502  0.00000000000E+00  0.00000000000E+00  0.16496683668E+03  0.16496683668E+03  0.00000000000E+00 0. -1.
         21   -1    0    0  502  503 -0.00000000000E+00 -0.00000000000E+00 -0.65187826055E+03  0.65187826055E+03  0.00000000000E+00 0. -1.
          6    1    1    2  501    0 -0.17036142951E+02  0.25126449559E+03 -0.93326847958E+02  0.31893255943E+03  0.17200000000E+03 0. -1.
         -6    1    1    2    0  503  0.17036142951E+02 -0.25126449559E+03 -0.39358457591E+03  0.49791253781E+03  0.17200000000E+03 0. -1.
</event>
<event>
 4    1  0.5874615E+000  0.1909925E+03  0.7818608E-02  0.1157569E+00
         21   -1    0    0  503  502  0.00000000000E+00  0.00000000000E+00  0.96282404493E+03  0.96282404493E+03  0.00000000000E+00 0. -1.
         21   -1    0    0  501  503 -0.00000000000E+00 -0.00000000000E+00 -0.39407244110E+02  0.39407244110E+02  0.00000000000E+00 0. -1.
          6    1    1    2  501    0 -0.19457659239E+02 -0.80718867897E+02  0.56014638901E+03  0.59181256598E+03  0.17200000000E+03 0. -1.
         -6    1    1    2    0  502  0.19457659239E+02  0.80718867897E+02  0.36327041182E+03  0.41041872306E+03  0.17200000000E+03 0. -1.
</event>
<event>
 4    1  0.5874615E+000  0.2913986E+03  0.7818608E-02  0.1089621E+00
         21   -1    0    0  501  502  0.00000000000E+00  0.00000000000E+00  0.34755480876E+03  0.34755480876E+03  0.00000000000E+00 0.  1.
         21   -1    0    0  502  503 -0.00000000000E+00 -0.00000000000E+00 -0.25478191188E+03  0.25478191188E+03  0.00000000000E+00 0. -1.
          6    1    1    2  501    0 -0.17379915319E+03  0.15850239600E+03  0.10742669786E+03  0.31056988038E+03  0.17200000000E+03 0.  1.
         -6    1    1    2    0  503  0.17379915319E+03 -0.15850239600E+03 -0.14653800976E+02  0.29176684025E+03  0.17200000000E+03 0. -1.
</event>
<event>
 4    1  0.5874615E+000  0.2086887E+03  0.7818608E-02  0.1142609E+00
         21   -1    0    0  503  502  0.00000000000E+00  0.00000000000E+00  0.19831161587E+03  0.19831161587E+03  0.00000000000E+00 0. -1.
         21   -1    0    0  501  503 -0.00000000000E+00 -0.00000000000E+00 -0.91733788848E+03  0.91733788848E+03  0.00000000000E+00 0. -1.
          6    1    1    2  501    0  0.59964874912E+02 -0.10183908003E+03 -0.84600604790E+03  0.87136514592E+03  0.17200000000E+03 0. -1.
         -6    1    1    2    0  502 -0.59964874912E+02  0.10183908003E+03  0.12697977528E+03  0.24428435843E+03  0.17200000000E+03 0. -1.
</event>
<event>
 4    1  0.5874615E+000  0.1750194E+03  0.7818608E-02  0.1172712E+00
         21   -1    0    0  503  502  0.00000000000E+00  0.00000000000E+00  0.39850617015E+02  0.39850617015E+02  0.00000000000E+00 0.  1.
         21   -1    0    0  501  503 -0.00000000000E+00 -0.00000000000E+00 -0.11518295302E+04  0.11518295302E+04  0.00000000000E+00 0.  1.
          6    1    1    2  501    0 -0.30924151479E+02 -0.95655383203E+01 -0.89964856086E+03  0.91651477660E+03  0.17200000000E+03 0.  1.
         -6    1    1    2    0  502  0.30924151479E+02  0.95655383203E+01 -0.21233035233E+03  0.27516537062E+03  0.17200000000E+03 0.  1.
</event>
<event>
 4    1  0.5874615E+000  0.2392869E+03  0.7818608E-02  0.1120269E+00
         21   -1    0    0  503  502  0.00000000000E+00  0.00000000000E+00  0.18896124424E+03  0.18896124424E+03  0.00000000000E+00 0.  1.
         21   -1    0    0  501  503 -0.00000000000E+00 -0.00000000000E+00 -0.38439083357E+03  0.38439083357E+03  0.00000000000E+00 0.  1.
          6    1    1    2  501    0  0.16542630740E+03  0.17559844637E+02 -0.22961665342E+03  0.33163537033E+03  0.17200000000E+03 0.  1.
         -6    1    1    2    0  502 -0.16542630740E+03 -0.17559844637E+02  0.34187064086E+02  0.24171670748E+03  0.17200000000E+03 0.  1.
</event>
<event>
 4    1  0.5874615E+000  0.1964264E+03  0.7818608E-02  0.1152790E+00
         21   -1    0    0  501  502  0.00000000000E+00  0.00000000000E+00  0.20962722441E+04  0.20962722441E+04  0.00000000000E+00 0. -1.
         21   -1    0    0  502  503 -0.00000000000E+00 -0.00000000000E+00 -0.20147576568E+02  0.20147576568E+02  0.00000000000E+00 0. -1.
          6    1    1    2  501    0  0.55525787033E+02 -0.76916846396E+02  0.13492136968E+04  0.13634371690E+04  0.17200000000E+03 0. -1.
         -6    1    1    2    0  503 -0.55525787033E+02  0.76916846396E+02  0.72691097075E+03  0.75298265165E+03  0.17200000000E+03 0. -1.
</event>
<event>
 4    1  0.5874615E+000  0.2290802E+03  0.7818608E-02  0.1127289E+00
         21   -1    0    0  501  502  0.00000000000E+00  0.00000000000E+00  0.42697748882E+03  0.42697748882E+03  0.00000000000E+00 0. -1.
         21   -1    0    0  502  503 -0.00000000000E+00 -0.00000000000E+00 -0.12290607460E+03  0.12290607460E+03  0.00000000000E+00 0. -1.
          6    1    1    2  501    0 -0.10575420038E+03  0.10821170788E+03  0.15127429526E+03  0.27452074061E+03  0.17200000000E+03 0. -1.
         -6    1    1    2    0  503  0.10575420038E+03 -0.10821170788E+03  0.15279711896E+03  0.27536282280E+03  0.17200000000E+03 0. -1.
</event>
<event>
 4    1  0.5874615E+000  0.1793689E+03  0.7818608E-02  0.1168415E+00
         21   -1    0    0  503  502  0.00000000000E+00  0.00000000000E+00  0.93650296165E+03  0.93650296165E+03  0.00000000000E+00 0. -1.
         21   -1    0    0  501  503 -0.00000000000E+00 -0.00000000000E+00 -0.10903797867E+03  0.10903797867E+03  0.00000000000E+00 0. -1.
          6    1    1    2  501    0  0.43923434012E+02  0.25688899749E+02 -0.18914931107E+02  0.18036341715E+03  0.17200000000E+03 0.  1.
         -6    1    1    2    0  502 -0.43923434012E+02 -0.25688899749E+02  0.84637991409E+03  0.86517752317E+03  0.17200000000E+03 0.  1.
</event>
<event>
 4    1  0.5874615E+000  0.1721719E+03  0.7818608E-02  0.1175602E+00
         21   -1    0    0  503  502  0.00000000000E+00  0.00000000000E+00  0.25935578487E+03  0.25935578487E+03  0.00000000000E+00 0. -1.
         21   -1    0    0  501  503 -0.00000000000E+00 -0.00000000000E+00 -0.19437287948E+03  0.19437287948E+03  0.00000000000E+00 0. -1.
          6    1    1    2  501    0 -0.32907905789E+01  0.69512254543E+01 -0.11312278423E+03  0.20600949772E+03  0.17200000000E+03 0.  1.
         -6    1    1    2    0  502  0.32907905789E+01 -0.69512254543E+01  0.17810568962E+03  0.24771916663E+03  0.17200000000E+03 0.  1.
</event>
<event>
 4    1  0.5874615E+000  0.2239279E+03  0.7818608E-02  0.1130988E+00
         21   -1    0    0  503  502  0.00000000000E+00  0.00000000000E+00  0.70641733801E+02  0.70641733801E+02  0.00000000000E+00 0. -1.
         21   -1    0    0  501  503 -0.00000000000E+00 -0.00000000000E+00 -0.88674052009E+03  0.88674052009E+03  0.00000000000E+00 0. -1.
          6    1    1    2  501    0  0.38418486952E+02  0.13814386105E+03 -0.62186158237E+03  0.66095047781E+03  0.17200000000E+03 0. -1.
         -6    1    1    2    0  502 -0.38418486952E+02 -0.13814386105E+03 -0.19423720392E+03  0.29643177608E+03  0.17200000000E+03 0. -1.
</event>
<event>
 4    1  0.5874615E+000  0.2057764E+03  0.7818608E-02  0.1144955E+00
         21   -1    0    0  503  502  0.00000000000E+00  0.00000000000E+00  0.13352774950E+03  0.13352774950E+03  0.00000000000E+00 0. -1.
         21   -1    0    0  501  503 -0.00000000000E+00 -0.00000000000E+00 -0.33504641788E+03  0.33504641788E+03  0.00000000000E+00 0. -1.
          6    1    1    2  501    0 -0.42593626323E+02 -0.10462165573E+03 -0.15495692650E+03  0.25759572380E+03  0.17200000000E+03 0. -1.
         -6    1    1    2    0  502  0.42593626323E+02  0.10462165573E+03 -0.46561741873E+02  0.21097844358E+03  0.17200000000E+03 0. -1.
</event>
<event>
 4    1  0.5874615E+000  0.1926151E+03  0.7818608E-02  0.1156124E+00
         21   -1    0    0  503  502  0.00000000000E+00  0.00000000000E+00  0.15154372857E+04  0.15154372857E+04  0.00000000000E+00 0. -1.
         21   -1    0    0  501  503 -0.00000000000E+00 -0.00000000000E+00 -0.25145413499E+02  0.25145413499E+02  0.00000000000E+00 0. -1.
          6    1    1    2  501    0  0.76074949562E+02 -0.41583601419E+02  0.62000725080E+03  0.64923769522E+03  0.17200000000E+03 0. -1.
         -6    1    1    2    0  502 -0.76074949562E+02  0.41583601419E+02  0.87028462138E+03  0.89134500395E+03  0.17200000000E+03 0. -1.
</event>
<event>
 4    1  0.5874615E+000  0.2091893E+03  0.7818608E-02  0.1142210E+00
         21   -1    0    0  501  502  0.00000000000E+00  0.00000000000E+00  0.20677657891E+03  0.20677657891E+03  0.00000000000E+00 0. -1.
         21   -1    0    0  502  503 -0.00000000000E+00 -0.00000000000E+00 -0.24605999131E+03  0.24605999131E+03  0.00000000000E+00 0. -1.
          6    1    1    2  501    0  0.65659079064E+02 -0.99323032203E+02  0.65053311906E+02  0.21907102223E+03  0.17200000000E+03 0. -1.
         -6    1    1    2    0  503 -0.65659079064E+02  0.99323032203E+02 -0.10433672430E+03  0.23376554799E+03  0.17200000000E+03 0. -1.
</event>
<event>
 4    1  0.5874615E+000  0.2536255E+03  0.7818608E-02  0.1111035E+00
         21   -1    0    0  503  502  0.00000000000E+00  0.00000000000E+00  0.50953977386E+03  0.50953977386E+03  0.00000000000E+00 0. -1.
         21   -1    0    0  501  503 -0.00000000000E+00 -0.00000000000E+00 -0.12682949104E+03  0.12682949104E+03  0.00000000000E+00 0. -1.
          6    1    1    2  501    0  0.16526310910E+03 -0.86197390943E+02  0.16972002469E+03  0.30517334781E+03  0.17200000000E+03 0. -1.
         -6    1    1    2    0  502 -0.16526310910E+03  0.86197390943E+02  0.21299025813E+03  0.33119591708E+03  0.17200000000E+03 0. -1.
</event>
<event>
 4    1  0.5874615E+000  0.1770852E+03  0.7818608E-02  0.1170654E+00
         21   -1    0    0  503  502  0.00000000000E+00  0.00000000000E+00  0.65165729281E+03  0.65165729281E+03  0.00000000000E+00 0.  1.
         21   -1    0    0  501  503 -0.00000000000E+00 -0.00000000000E+00 -0.41093527893E+03  0.41093527893E+03  0.00000000000E+00 0.  1.
          6    1    1    2  501    0  0.40941784892E+02 -0.99464247755E+01 -0.37885850714E+03  0.41820202002E+03  0.17200000000E+03 0.  1.
         -6    1    1    2    0  502 -0.40941784892E+02  0.99464247755E+01  0.61958052102E+03  0.64439055172E+03  0.17200000000E+03 0.  1.
</event>
<event>
 4    1  0.5874615E+000  0.1886022E+03  0.7818608E-02  0.1159728E+00
         21   -1    0    0  501  502  0.00000000000E+00  0.00000000000E+00  0.14536331656E+03  0.14536331656E+03  0.00000000000E+00 0.  1.
         21   -1    0    0  502  503 -0.00000000000E+00 -0.00000000000E+00 -0.61117115052E+03  0.61117115052E+03  0.00000000000E+00 0.  1.
          6    1    1    2  501    0  0.42824757033E+02 -0.64442509168E+02  0.60007023459E+02  0.19791826512E+03  0.17200000000E+03 0.  1.
         -6    1    1    2    0  503 -0.42824757033E+02  0.64442509168E+02 -0.52581485742E+03  0.55861620196E+03  0.17200000000E+03 0.  1.
</event>
<event>
 4    1  0.5874615E+000  0.1828702E+03  0.7818608E-02  0.1165054E+00
         21   -1    0    0  503  502  0.00000000000E+00  0.00000000000E+00  0.16003792147E+04  0.16003792147E+04  0.00000000000E+00 0. -1.
         21   -1    0    0  501  503 -0.00000000000E+00 -0.00000000000E+00 -0.26804285171E+02  0.26804285171E+02  0.00000000000E+00 0. -1.
          6    1    1    2  501    0  0.61254434586E+02 -0.10266179237E+02  0.40481180120E+03  0.44420051169E+03  0.17200000000E+03 0.  1.
         -6    1    1    2    0  502 -0.61254434586E+02  0.10266179237E+02  0.11687631283E+04  0.11829829882E+04  0.17200000000E+03 0.  1.
</event>
<event>
 4    1  0.5874615E+000  0.2359491E+03  0.7818608E-02  0.1122521E+00
         21   -1    0    0  503  502  0.00000000000E+00  0.00000000000E+00  0.88163162862E+03  0.88163162862E+03  0.00000000000E+00 0. -1.
         21   -1    0    0  501  503 -0.00000000000E+00 -0.00000000000E+00 -0.76062441034E+02  0.76062441034E+02  0.00000000000E+00 0.  1.
          6    1    1    2  501    0  0.97399254362E+02  0.12884633512E+03  0.20546331816E+03  0.31286925054E+03  0.17200000000E+03 0.  1.
         -6    1    1    2    0  502 -0.97399254362E+02 -0.12884633512E+03  0.60010586943E+03  0.64482481912E+03  0.17200000000E+03 0. -1.
</event>
<event>
 4    1  0.5874615E+000  0.2299198E+03  0.7818608E-02  0.1126696E+00
         21   -1    0    0  501  502  0.00000000000E+00  0.00000000000E+00  0.80304798141E+02  0.80304798141E+02  0.00000000000E+00 0.  1.
         21   -1    0    0  502  503 -0.00000000000E+00 -0.00000000000E+00 -0.68043750304E+03  0.68043750304E+03  0.00000000000E+00 0. -1.
          6    1    1    2  501    0  0.39323561900E+02 -0.14742033947E+03 -0.23142798205E+03  0.32622386468E+03  0.17200000000E+03 0. -1.
         -6    1    1    2    0  503 -0.39323561900E+02  0.14742033947E+03 -0.36870472285E+03  0.43451843650E+03  0.17200000000E+03 0. -1.
</event>
<event>
 4    1  0.5874615E+000  0.1808108E+03  0.7818608E-02  0.1167021E+00
         21   -1    0    0  501  502  0.00000000000E+00  0.00000000000E+00  0.80603043991E+02  0.80603043991E+02  0.00000000000E+00 0. -1.
         21   -1    0    0  502  503 -0.00000000000E+00 -0.00000000000E+00 -0.57892689868E+03  0.57892689868E+03  0.00000000000E+00 0. -1.
          6    1    1    2  501    0  0.55736364871E+02 -0.14125328819E+01 -0.68724541360E+02  0.19343112522E+03  0.17200000000E+03 0. -1.
         -6    1    1    2    0  503 -0.55736364871E+02  0.14125328819E+01 -0.42959931333E+03  0.46609881745E+03  0.17200000000E+03 0. -1.
</event>
<event>
 4    1  0.5874615E+000  0.1909865E+03  0.7818608E-02  0.1157575E+00
         21   -1    0    0  503  502  0.00000000000E+00  0.00000000000E+00  0.20068056979E+03  0.20068056979E+03  0.00000000000E+00 0. -1.
         21   -1    0    0  501  503 -0.00000000000E+00 -0.00000000000E+00 -0.41110194497E+03  0.41110194497E+03  0.00000000000E+00 0. -1.
          6    1    1    2  501    0 -0.72580170092E+02  0.40298330275E+02 -0.33368290790E+03  0.38447382165E+03  0.17200000000E+03 0. -1.
         -6    1    1    2    0  502  0.72580170092E+02 -0.40298330275E+02  0.12326153271E+03  0.22730869310E+03  0.17200000000E+03 0. -1.
</event>
<event>
 4    1  0.5874615E+000  0.1759212E+03  0.7818608E-02  0.1171810E+00
         21   -1    0    0  501  502  0.00000000000E+00  0.00000000000E+00  0.21909896087E+03  0.21909896087E+03  0.00000000000E+00 0. -1.
         21   -1    0    0  502  503 -0.00000000000E+00 -0.00000000000E+00 -0.19858421627E+03  0.19858421627E+03  0.00000000000E+00 0. -1.
          6    1    1    2  501    0 -0.15139030741E+02 -0.33690931623E+02  0.12247012448E+03  0.21435298112E+03  0.17200000000E+03 0. -1.
         -6    1    1    2    0  503  0.15139030741E+02  0.33690931623E+02 -0.10195537988E+03  0.20333019601E+03  0.17200000000E+03 0. -1.
</event>
<event>
 4    1  0.5874615E+000  0.1981711E+03  0.7818608E-02  0.1151291E+00
         21   -1    0    0  501  502  0.00000000000E+00  0.00000000000E+00  0.56709733623E+02  0.56709733623E+02  0.00000000000E+00 0.  1.
         21   -1    0    0  502  503 -0.00000000000E+00 -0.00000000000E+00 -0.73014409517E+03  0.73014409517E+03  0.00000000000E+00 0. -1.
          6    1    1    2  501    0  0.90834242450E+02  0.37906592396E+02 -0.42604358395E+03  0.46987754231E+03  0.17200000000E+03 0. -1.
         -6    1    1    2    0  503 -0.90834242450E+02 -0.37906592396E+02 -0.24739077760E+03  0.31697628648E+03  0.17200000000E+03 0.  1.
</event>
<event>
 4    1  0.5874615E+000  0.2495708E+03  0.7818608E-02  0.1113576E+00
         21   -1    0    0  503  502  0.00000000000E+00  0.00000000000E+00  0.99274820372E+03  0.99274820372E+03  0.00000000000E+00 0. -1.
         21   -1    0    0  501  503 -0.00000000000E+00 -0.00000000000E+00 -0.69401233083E+02  0.69401233083E+02  0.00000000000E+00 0.  1.
          6    1    1    2  501    0 -0.18071394612E+03  0.66380949982E+01  0.29714899461E+03  0.38805040861E+03  0.17200000000E+03 0.  1.
         -6    1    1    2    0  502  0.18071394612E+03 -0.66380949982E+01  0.62619797603E+03  0.67409902819E+03  0.17200000000E+03 0.  1.
</event>
<event>
 4    1  0.5874615E+000  0.1816290E+03  0.7818608E-02  0.1166236E+00
         21   -1    0    0  501  502  0.00000000000E+00  0.00000000000E+00  0.33267017988E+02  0.33267017988E+02  0.00000000000E+00 0.  1.
         21   -1    0    0  502  503 -0.00000000000E+00 -0.00000000000E+00 -0.10423745196E+04  0.10423745196E+04  0.00000000000E+00 0.  1.
          6    1    1    2  501    0 -0.53561052459E+02  0.23158251386E+02 -0.38590760922E+03  0.42651350952E+03  0.17200000000E+03 0.  1.
         -6    1    1    2    0  503  0.53561052459E+02 -0.23158251386E+02 -0.62319989239E+03  0.64912802807E+03  0.17200000000E+03 0.  1.
</event>
<event>
 4    1  0.5874615E+000  0.2092235E+03  0.7818608E-02  0.1142182E+00
         21   -1    0    0  503  502  0.00000000000E+00  0.00000000000E+00  0.32575261056E+02  0.32575261056E+02  0.00000000000E+00 0. -1.
         21   -1    0    0  501  503 -0.00000000000E+00 -0.00000000000E+00 -0.13452523108E+04  0.13452523108E+04  0.00000000000E+00 0. -1.
          6    1    1    2  501    0 -0.11871376265E+03  0.98745895832E+01 -0.63366204980E+03  0.66730956708E+03  0.17200000000E+03 0. -1.
         -6    1    1    2    0  502  0.11871376265E+03 -0.98745895832E+01 -0.67901499996E+03  0.71051800479E+03  0.17200000000E+03 0. -1.
</event>
<event>
 4    1  0.5874615E+000  0.2054182E+03  0.7818608E-02  0.1145247E+00
         21   -1    0    0  501  502  0.00000000000E+00  0.00000000000E+00  0.12002739968E+02  0.12002739968E+02  0.00000000000E+00 0.  1.
         21   -1    0    0  502  503 -0.00000000000E+00 -0.00000000000E+00 -0.35331597887E+04  0.35331597887E+04  0.00000000000E+00 0.  1.
          6    1    1    2  501    0 -0.10599636574E+03  0.37113358885E+02 -0.16355549713E+04  0.16484042876E+04  0.17200000000E+03 0.  1.
         -6    1    1    2    0  503  0.10599636574E+03 -0.37113358885E+02 -0.18856020774E+04  0.18967582411E+04  0.17200000000E+03 0.  1.
</event>
<event>
 4    1  0.5874615E+000  0.2022442E+03  0.7818608E-02  0.1147859E+00
         21   -1    0    0  503  502  0.00000000000E+00  0.00000000000E+00  0.68211991645E+03  0.68211991645E+03  0.00000000000E+00 0. -1.
         21   -1    0    0  501  503 -0.00000000000E+00 -0.00000000000E+00 -0.70814657543E+02  0.70814657543E+02  0.00000000000E+00 0. -1.
          6    1    1    2  501    0  0.10457673975E+03 -0.19556065204E+02  0.15828880266E+03  0.25682305043E+03  0.17200000000E+03 0. -1.
         -6    1    1    2    0  502 -0.10457673975E+03  0.19556065204E+02  0.45301645624E+03  0.49611152356E+03  0.17200000000E+03 0. -1.
</event>
<event>
 4    1  0.5874615E+000  0.1794395E+03  0.7818608E-02  0.1168347E+00
         21   -1    0    0  501  502  0.00000000000E+00  0.00000000000E+00  0.51443937930E+02  0.51443937930E+02  0.00000000000E+00 0.  1.
         21   -1    0    0  502  503 -0.00000000000E+00 -0.00000000000E+00 -0.74882680093E+03  0.74882680093E+03  0.00000000000E+00 0.  1.
          6    1    1    2  501    0  0.51032736948E+02 -0.31947412664E+01 -0.18656758659E+03  0.25885519307E+03  0.17200000000E+03 0.  1.
         -6    1    1    2    0  503 -0.51032736948E+02  0.31947412664E+01 -0.51081527641E+03  0.54141554579E+03  0.17200000000E+03 0.  1.
</event>
<event>
 4    1  0.5874615E+000  0.2518683E+03  0.7818608E-02  0.1112130E+00
         21   -1    0    0  503  502  0.00000000000E+00  0.00000000000E+00  0.86827186640E+03  0.86827186640E+03  0.00000000000E+00 0.  1.
         21   -1    0    0  501  503 -0.00000000000E+00 -0.00000000000E+00 -0.73075997694E+02  0.73075997694E+02  0.00000000000E+00 0. -1.
          6    1    1    2  501    0 -0.18341378765E+03  0.14595039933E+02  0.40412455964E+03  0.47618724510E+03  0.17200000000E+03 0. -1.
         -6    1    1    2    0  502  0.18341378765E+03 -0.14595039933E+02  0.39107130907E+03  0.46516061900E+03  0.17200000000E+03 0. -1.
</event>
<event>
 4    1  0.5874615E+000  0.1882938E+03  0.7818608E-02  0.1160009E+00
         21   -1    0    0  501  502  0.00000000000E+00  0.00000000000E+00  0.29977921485E+03  0.29977921485E+03  0.00000000000E+00 0. -1.
         21   -1    0    0  502  503 -0.00000000000E+00 -0.00000000000E+00 -0.18442148574E+03  0.18442148574E+03  0.00000000000E+00 0. -1.
          6    1    1    2  501    0  0.38227524316E+02  0.66401929714E+02  0.20267721144E+03  0.27664528176E+03  0.17200000000E+03 0. -1.
         -6    1    1    2    0  503 -0.38227524316E+02 -0.66401929714E+02 -0.87319482332E+02  0.20755541882E+03  0.17200000000E+03 0. -1.
</event>
<event>
 4    1  0.5874615E+000  0.2448134E+03  0.7818608E-02  0.1116627E+00
         21   -1    0    0  503  502  0.00000000000E+00  0.00000000000E+00  0.16889877828E+04  0.16889877828E+04  0.00000000000E+00 0.  1.
         21   -1    0    0  501  503 -0.00000000000E+00 -0.00000000000E+00 -0.36508842870E+02  0.36508842870E+02  0.00000000000E+00 0. -1.
          6    1    1    2  501    0  0.17367382238E+03 -0.13674459210E+02  0.68175544593E+03  0.72437840627E+03  0.17200000000E+03 0. -1.
         -6    1    1    2    0  502 -0.17367382238E+03  0.13674459210E+02  0.97072349398E+03  0.10011182194E+04  0.17200000000E+03 0.  1.
</event>
<event>
 4    1  0.5874615E+000  0.1869051E+03  0.7818608E-02  0.1161283E+00
         21   -1    0    0  501  502  0.00000000000E+00  0.00000000000E+00  0.24408040580E+03  0.24408040580E+03  0.00000000000E+00 0.  1.
         21   -1    0    0  502  503 -0.00000000000E+00 -0.00000000000E+00 -0.15466695411E+03  0.15466695411E+03  0.00000000000E+00 0. -1.
          6    1    1    2  501    0  0.71595222429E+02  0.14954280344E+02  0.99175474506E+02  0.21158752591E+03  0.17200000000E+03 0.  1.
         -6    1    1    2    0  503 -0.71595222429E+02 -0.14954280344E+02 -0.97620228139E+01  0.18715983400E+03  0.17200000000E+03 0.  1.
</event>
<event>
 4    1  0.5874615E+000  0.2223040E+03  0.7818608E-02  0.1132177E+00
         21   -1    0    0  503  502  0.00000000000E+00  0.00000000000E+00  0.44308494672E+03  0.44308494672E+03  0.00000000000E+00 0.  1.
         21   -1    0    0  501  503 -0.00000000000E+00 -0.00000000000E+00 -0.44587106314E+03  0.44587106314E+03  0.00000000000E+00 0.  1.
          6    1    1    2  501    0  0.50435716754E+02 -0.13149642081E+03 -0.38628413529E+03  0.44568430911E+03  0.17200000000E+03 0.  1.
         -6    1    1    2    0  502 -0.50435716754E+02  0.13149642081E+03  0.38349801887E+03  0.44327170075E+03  0.17200000000E+03 0.  1.
</event>
<event>
 4    1  0.5874615E+000  0.1751978E+03  0.7818608E-02  0.1172533E+00
         21   -1    0    0  501  502  0.00000000000E+00  0.00000000000E+00  0.68750084923E+02  0.68750084923E+02  0.00000000000E+00 0.  1.
         21   -1    0    0  502  503 -0.00000000000E+00 -0.00000000000E+00 -0.44710517488E+03  0.44710517488E+03  0.00000000000E+00 0.  1.
          6    1    1    2  501    0 -0.10191544410E+02 -0.31723762213E+02 -0.19896417207E+03  0.26510565145E+03  0.17200000000E+03 0.  1.
         -6    1    1    2    0  503  0.10191544410E+02  0.31723762213E+02 -0.17939091789E+03  0.25074960835E+03  0.17200000000E+03 0.  1.
</event>
<event>
 4    1  0.5874615E+000  0.1793086E+03  0.7818608E-02  0.1168474E+00
         21   -1    0    0  503  502  0.00000000000E+00  0.00000000000E+00  0.13295551899E+03  0.13295551899E+03  0.00000000000E+00 0. -1.
         21   -1    0    0  501  503 -0.00000000000E+00 -0.00000000000E+00 -0.24374534514E+03  0.24374534514E+03  0.00000000000E+00 0. -1.
          6    1    1    2  501    0 -0.15759760826E+01  0.50646789732E+02 -0.72125736033E+02  0.19327106045E+03  0.17200000000E+03 0.  1.
         -6    1    1    2    0  502  0.15759760826E+01 -0.50646789732E+02 -0.38664090116E+02  0.18342980367E+03  0.17200000000E+03 0.  1.
</event>
<event>
 4    1  0.5874615E+000  0.1876397E+03  0.7818608E-02  0.1160608E+00
         21   -1    0    0  501  502  0.00000000000E+00  0.00000000000E+00  0.22239641084E+03  0.22239641084E+03  0.00000000000E+00 0.  1.
         21   -1    0    0  502  503 -0.00000000000E+00 -0.00000000000E+00 -0.15866504107E+03  0.15866504107E+03  0.00000000000E+00 0.  1.
          6    1    1    2  501    0  0.73731940688E+02  0.13721006656E+02  0.40816181924E+02  0.19202766938E+03  0.17200000000E+03 0.  1.
         -6    1    1    2    0  503 -0.73731940688E+02 -0.13721006656E+02  0.22915187850E+02  0.18903378252E+03  0.17200000000E+03 0.  1.
</event>
<event>
 4    1  0.5874615E+000  0.1723221E+03  0.7818608E-02  0.1175448E+00
         21   -1    0    0  503  502  0.00000000000E+00  0.00000000000E+00  0.13213653748E+04  0.13213653748E+04  0.00000000000E+00 0. -1.
         21   -1    0    0  501  503 -0.00000000000E+00 -0.00000000000E+00 -0.75844198387E+02  0.75844198387E+02  0.00000000000E+00 0. -1.
          6    1    1    2  501    0  0.68081526063E+01 -0.80356291304E+01  0.36724681299E+02  0.17619201030E+03  0.17200000000E+03 0. -1.
         -6    1    1    2    0  502 -0.68081526063E+01  0.80356291304E+01  0.12087964951E+04  0.12210175629E+04  0.17200000000E+03 0. -1.
</event>
<event>
 4    1  0.5874615E+000  0.2605285E+03  0.7818608E-02  0.1106826E+00
         21   -1    0    0  501  502  0.00000000000E+00  0.00000000000E+00  0.57189612640E+03  0.57189612640E+03  0.00000000000E+00 0.  1.
         21   -1    0    0  502  503 -0.00000000000E+00 -0.00000000000E+00 -0.19630269285E+03  0.19630269285E+03  0.00000000000E+00 0. -1.
          6    1    1    2  501    0  0.56896035671E+02  0.18722703302E+03  0.42932205034E+03  0.50218775740E+03  0.17200000000E+03 0. -1.
         -6    1    1    2    0  503 -0.56896035671E+02 -0.18722703302E+03 -0.53728616789E+02  0.26601106185E+03  0.17200000000E+03 0. -1.
</event>
<event>
 4    1  0.5874615E+000  0.2527846E+03  0.7818608E-02  0.1111558E+00
         21   -1    0    0  501  502  0.00000000000E+00  0.00000000000E+00  0.78045919386E+03  0.78045919386E+03  0.00000000000E+00 0. -1.
         21   -1    0    0  502  503 -0.00000000000E+00 -0.00000000000E+00 -0.22172990380E+03  0.22172990380E+03  0.00000000000E+00 0. -1.
          6    1    1    2  501    0  0.11979449947E+03  0.14129870475E+03  0.67733112501E+03  0.72296438292E+03  0.17200000000E+03 0. -1.
         -6    1    1    2    0  503 -0.11979449947E+03 -0.14129870475E+03 -0.11860183495E+03  0.27922471474E+03  0.17200000000E+03 0. -1.
</event>
<event>
 4    1  0.5874615E+000  0.2520155E+03  0.7818608E-02  0.1112038E+00
         21   -1    0    0  503  502  0.00000000000E+00  0.00000000000E+00  0.84949185335E+02  0.84949185335E+02  0.00000000000E+00 0.  1.
         21   -1    0    0  501  503 -0.00000000000E+00 -0.00000000000E+00 -0.76247341903E+03  0.76247341903E+03  0.00000000000E+00 0. -1.
          6    1    1    2  501    0 -0.15775411067E+03 -0.95086646815E+02 -0.27967323377E+03  0.37646905254E+03  0.17200000000E+03 0. -1.
         -6    1    1    2    0  502  0.15775411067E+03  0.95086646815E+02 -0.39785099993E+03  0.47095355183E+03  0.17200000000E+03 0. -1.
</event>
<event>
 4    1  0.5874615E+000  0.1840549E+03  0.7818608E-02  0.1163935E+00
         21   -1    0    0  501  502  0.00000000000E+00  0.00000000000E+00  0.10088355950E+03  0.10088355950E+03  0.00000000000E+00 0. -1.
         21   -1    0    0  502  503 -0.00000000000E+00 -0.00000000000E+00 -0.57164008847E+03  0.57164008847E+03  0.00000000000E+00 0. -1.
          6    1    1    2  501    0  0.59627800614E+02 -0.27143035897E+02 -0.19390363765E+02  0.18507351299E+03  0.17200000000E+03 0. -1.
         -6    1    1    2    0  503 -0.59627800614E+02  0.27143035897E+02 -0.45136616520E+03  0.48745013498E+03  0.17200000000E+03 0. -1.
</event>
<event>
 4    1  0.5874615E+000  0.2007474E+03  0.7818608E-02  0.1149110E+00
         21   -1    0    0  503  502  0.00000000000E+00  0.00000000000E+00  0.27633748286E+03  0.27633748286E+03  0.00000000000E+00 0.  1.
         21   -1    0    0  501  503 -0.00000000000E+00 -0.00000000000E+00 -0.28288038721E+03  0.28288038721E+03  0.00000000000E+00 0.  1.
          6    1    1    2  501    0  0.97747181796E+02 -0.34073314219E+02 -0.19788937738E+03  0.28188598399E+03  0.17200000000E+03 0.  1.
         -6    1    1    2    0  502 -0.97747181796E+02  0.34073314219E+02  0.19134647303E+03  0.27733188607E+03  0.17200000000E+03 0.  1.
</event>
<event>
 4    1  0.5874615E+000  0.1894310E+03  0.7818608E-02  0.1158976E+00
         21   -1    0    0  503  502  0.00000000000E+00  0.00000000000E+00  0.69094528664E+03  0.69094528664E+03  0.00000000000E+00 0. -1.
         21   -1    0    0  501  503 -0.00000000000E+00 -0.00000000000E+00 -0.13557811013E+03  0.13557811013E+03  0.00000000000E+00 0. -1.
          6    1    1    2  501    0 -0.13514845532E+02  0.78214159941E+02 -0.46914510504E+02  0.19515398321E+03  0.17200000000E+03 0. -1.
         -6    1    1    2    0  502  0.13514845532E+02 -0.78214159941E+02  0.60228168701E+03  0.63136941356E+03  0.17200000000E+03 0. -1.
</event>
<event>
 4    1  0.5874615E+000  0.1819197E+03  0.7818608E-02  0.1165958E+00
         21   -1    0    0  503  502  0.00000000000E+00  0.00000000000E+00  0.90425653440E+03  0.90425653440E+03  0.00000000000E+00 0.  1.
         21   -1    0    0  501  503 -0.00000000000E+00 -0.00000000000E+00 -0.75704373198E+02  0.75704373198E+02  0.00000000000E+00 0.  1.
          6    1    1    2  501    0  0.16306233751E+02  0.56963867125E+02  0.62118402835E+02  0.19223285720E+03  0.17200000000E+03 0.  1.
         -6    1    1    2    0  502 -0.16306233751E+02 -0.56963867125E+02  0.76643375837E+03  0.78772805040E+03  0.17200000000E+03 0.  1.
</event>
<event>
 4    1  0.5874615E+000  0.2134728E+03  0.7818608E-02  0.1138845E+00
         21   -1    0    0  503  502  0.00000000000E+00  0.00000000000E+00  0.16975660803E+02  0.16975660803E+02  0.00000000000E+00 0. -1.
         21   -1    0    0  501  503 -0.00000000000E+00 -0.00000000000E+00 -0.28059184882E+04  0.28059184882E+04  0.00000000000E+00 0.  1.
          6    1    1    2  501    0 -0.12467125518E+03  0.21064492838E+02 -0.16881180056E+04  0.17015619400E+04  0.17200000000E+03 0.  1.
         -6    1    1    2    0  502  0.12467125518E+03 -0.21064492838E+02 -0.11008248218E+04  0.11213322090E+04  0.17200000000E+03 0. -1.
</event>
<event>
 4    1  0.5874615E+000  0.2817973E+03  0.7818608E-02  0.1094711E+00
         21   -1    0    0  501  502  0.00000000000E+00  0.00000000000E+00  0.48054559363E+03  0.48054559363E+03  0.00000000000E+00 0. -1.
         21   -1    0    0  502  503 -0.00000000000E+00 -0.00000000000E+00 -0.16585872709E+03  0.16585872709E+03  0.00000000000E+00 0.  1.
          6    1    1    2  501    0  0.22286034905E+03  0.12609265610E+02  0.13774885995E+03  0.31366299937E+03  0.17200000000E+03 0. -1.
         -6    1    1    2    0  503 -0.22286034905E+03 -0.12609265610E+02  0.17693800659E+03  0.33274132135E+03  0.17200000000E+03 0.  1.
</event>
<event>
 4    1  0.5874615E+000  0.1907251E+03  0.7818608E-02  0.1157809E+00
         21   -1    0    0  501  502  0.00000000000E+00  0.00000000000E+00  0.29766255101E+03  0.29766255101E+03  0.00000000000E+00 0. -1.
         21   -1    0    0  502  503 -0.00000000000E+00 -0.00000000000E+00 -0.15057826618E+03  0.15057826618E+03  0.00000000000E+00 0. -1.
          6    1    1    2  501    0  0.61294663547E+02  0.55091061498E+02  0.17082796545E+03  0.25604346235E+03  0.17200000000E+03 0. -1.
         -6    1    1    2    0  503 -0.61294663547E+02 -0.55091061498E+02 -0.23743680613E+02  0.19219735483E+03  0.17200000000E+03 0. -1.
</event>
<event>
 4    1  0.5874615E+000  0.1873138E+03  0.7818608E-02  0.1160907E+00
         21   -1    0    0  503  502  0.00000000000E+00  0.00000000000E+00  0.61334311597E+03  0.61334311597E+03  0.00000000000E+00 0.  1.
         21   -1    0    0  501  503 -0.00000000000E+00 -0.00000000000E+00 -0.58012880112E+02  0.58012880112E+02  0.00000000000E+00 0. -1.
          6    1    1    2  501    0 -0.60346891819E+02  0.43136147407E+02  0.31727052824E+03  0.36843868236E+03  0.17200000000E+03 0. -1.
         -6    1    1    2    0  502  0.60346891819E+02 -0.43136147407E+02  0.23805970762E+03  0.30291731373E+03  0.17200000000E+03 0. -1.
</event>
<event>
 4    1  0.5874615E+000  0.1820214E+03  0.7818608E-02  0.1165861E+00
         21   -1    0    0  503  502  0.00000000000E+00  0.00000000000E+00  0.30746159105E+02  0.30746159105E+02  0.00000000000E+00 0. -1.
         21   -1    0    0  501  503 -0.00000000000E+00 -0.00000000000E+00 -0.15161657611E+04  0.15161657611E+04  0.00000000000E+00 0.  1.
          6    1    1    2  501    0 -0.40504729230E+02  0.43671005316E+02 -0.11587008423E+04  0.11729106665E+04  0.17200000000E+03 0.  1.
         -6    1    1    2    0  502  0.40504729230E+02 -0.43671005316E+02 -0.32671875978E+03  0.37400125373E+03  0.17200000000E+03 0. -1.
</event>
<event>
 4    1  0.5874615E+000  0.2548221E+03  0.7818608E-02  0.1110295E+00
         21   -1    0    0  503  502  0.00000000000E+00  0.00000000000E+00  0.25128144785E+03  0.25128144785E+03  0.00000000000E+00 0. -1.
         21   -1    0    0  501  503 -0.00000000000E+00 -0.00000000000E+00 -0.28367266935E+03  0.28367266935E+03  0.00000000000E+00 0. -1.
          6    1    1    2  501    0 -0.18669380064E+03 -0.22265500927E+02  0.63621103808E+02  0.26264419388E+03  0.17200000000E+03 0. -1.
         -6    1    1    2    0  502  0.18669380064E+03  0.22265500927E+02 -0.96012325309E+02  0.27230992333E+03  0.17200000000E+03 0. -1.
</event>
<event>
 4    1  0.5874615E+000  0.1863222E+03  0.7818608E-02  0.1161821E+00
         21   -1    0    0  501  502  0.00000000000E+00  0.00000000000E+00  0.95083055596E+03  0.95083055596E+03  0.00000000000E+00 0. -1.
         21   -1    0    0  502  503 -0.00000000000E+00 -0.00000000000E+00 -0.31687620559E+03  0.31687620559E+03  0.00000000000E+00 0. -1.
          6    1    1    2  501    0  0.17260868717E+02  0.69527035322E+02  0.91319631567E+03  0.93201043834E+03  0.17200000000E+03 0. -1.
         -6    1    1    2    0  503 -0.17260868717E+02 -0.69527035322E+02 -0.27924196530E+03  0.33569632321E+03  0.17200000000E+03 0. -1.
</event>
<event>
 4    1  0.5874615E+000  0.1792311E+03  0.7818608E-02  0.1168549E+00
         21   -1    0    0  501  502  0.00000000000E+00  0.00000000000E+00  0.56609621598E+03  0.56609621598E+03  0.00000000000E+00 0. -1.
         21   -1    0    0  502  503 -0.00000000000E+00 -0.00000000000E+00 -0.46276416325E+03  0.46276416325E+03  0.00000000000E+00 0. -1.
          6    1    1    2  501    0 -0.49442379281E+02  0.97599134519E+01  0.53352418414E+03  0.56282489270E+03  0.17200000000E+03 0. -1.
         -6    1    1    2    0  503  0.49442379281E+02 -0.97599134519E+01 -0.43019213141E+03  0.46603548653E+03  0.17200000000E+03 0. -1.
</event>
<event>
 4    1  0.5874615E+000  0.2721487E+03  0.7818608E-02  0.1100056E+00
         21   -1    0    0  501  502  0.00000000000E+00  0.00000000000E+00  0.21567826994E+03  0.21567826994E+03  0.00000000000E+00 0. -1.
         21   -1    0    0  502  503 -0.00000000000E+00 -0.00000000000E+00 -0.43846177960E+03  0.43846177960E+03  0.00000000000E+00 0.  1.
          6    1    1    2  501    0 -0.18125633035E+03  0.10782877441E+03  0.40896854591E+02  0.27520438695E+03  0.17200000000E+03 0.  1.
         -6    1    1    2    0  503  0.18125633035E+03 -0.10782877441E+03 -0.26368036426E+03  0.37893566259E+03  0.17200000000E+03 0.  1.
</event>
<event>
 4    1  0.5874615E+000  0.1863786E+03  0.7818608E-02  0.1161769E+00
         21   -1    0    0  503  502  0.00000000000E+00  0.00000000000E+00  0.11295841905E+03  0.11295841905E+03  0.00000000000E+00 0.  1.
         21   -1    0    0  501  503 -0.00000000000E+00 -0.00000000000E+00 -0.31154869805E+03  0.31154869805E+03  0.00000000000E+00 0.  1.
          6    1    1    2  501    0 -0.60040910121E+02 -0.39345638622E+02 -0.12343118916E+03  0.22354473517E+03  0.17200000000E+03 0.  1.
         -6    1    1    2    0  502  0.60040910121E+02  0.39345638622E+02 -0.75159089843E+02  0.20096238193E+03  0.17200000000E+03 0.  1.
</event>
<event>
 4    1  0.5874615E+000  0.1742607E+03  0.7818608E-02  0.1173476E+00
         21   -1    0    0  501  502  0.00000000000E+00  0.00000000000E+00  0.13932218934E+03  0.13932218934E+03  0.00000000000E+00 0.  1.
         21   -1    0    0  502  503 -0.00000000000E+00 -0.00000000000E+00 -0.25972243346E+03  0.25972243346E+03  0.00000000000E+00 0.  1.
          6    1    1    2  501    0 -0.27974115486E+02  0.48086594391E+00  0.19806370352E+02  0.17538265215E+03  0.17200000000E+03 0.  1.
         -6    1    1    2    0  503  0.27974115486E+02 -0.48086594391E+00 -0.14020661447E+03  0.22366197064E+03  0.17200000000E+03 0.  1.
</event>
<event>
 4    1  0.5874615E+000  0.1940563E+03  0.7818608E-02  0.1154853E+00
         21   -1    0    0  501  502  0.00000000000E+00  0.00000000000E+00  0.14364451143E+03  0.14364451143E+03  0.00000000000E+00 0. -1.
         21   -1    0    0  502  503 -0.00000000000E+00 -0.00000000000E+00 -0.28761879577E+03  0.28761879577E+03  0.00000000000E+00 0.  1.
          6    1    1    2  501    0  0.68385376351E+02  0.58286392986E+02 -0.78334390364E+01  0.19421438174E+03  0.17200000000E+03 0. -1.
         -6    1    1    2    0  503 -0.68385376351E+02 -0.58286392986E+02 -0.13614084530E+03  0.23704892546E+03  0.17200000000E+03 0.  1.
</event>
<event>
 4    1  0.5874615E+000  0.1819207E+03  0.7818608E-02  0.1165957E+00
         21   -1    0    0  503  502  0.00000000000E+00  0.00000000000E+00  0.13824545478E+03  0.13824545478E+03  0.00000000000E+00 0. -1.
         21   -1    0    0  501  503 -0.00000000000E+00 -0.00000000000E+00 -0.56646392951E+03  0.56646392951E+03  0.00000000000E+00 0. -1.
          6    1    1    2  501    0 -0.31209782330E+01 -0.59172613501E+02 -0.48184982194E+03  0.51504794884E+03  0.17200000000E+03 0. -1.
         -6    1    1    2    0  502  0.31209782330E+01  0.59172613501E+02  0.53631347216E+02  0.18966143545E+03  0.17200000000E+03 0. -1.
</event>
<event>
 4    1  0.5874615E+000  0.1766729E+03  0.7818608E-02  0.1171062E+00
         21   -1    0    0  501  502  0.00000000000E+00  0.00000000000E+00  0.11801841454E+04  0.11801841454E+04  0.00000000000E+00 0. -1.
         21   -1    0    0  502  503 -0.00000000000E+00 -0.00000000000E+00 -0.23616573048E+03  0.23616573048E+03  0.00000000000E+00 0. -1.
          6    1    1    2  501    0  0.13913817735E+02  0.37890933633E+02  0.11393533580E+04  0.11529698138E+04  0.17200000000E+03 0. -1.
         -6    1    1    2    0  503 -0.13913817735E+02 -0.37890933633E+02 -0.19533494300E+03  0.26338006214E+03  0.17200000000E+03 0. -1.
</event>
<event>
 4    1  0.5874615E+000  0.1722397E+03  0.7818608E-02  0.1175532E+00
         21   -1    0    0  503  502  0.00000000000E+00  0.00000000000E+00  0.97187611519E+02  0.97187611519E+02  0.00000000000E+00 0. -1.
         21   -1    0    0  501  503 -0.00000000000E+00 -0.00000000000E+00 -0.41088371372E+03  0.41088371372E+03  0.00000000000E+00 0. -1.
          6    1    1    2  501    0  0.21251710479E+01 -0.88310773483E+01 -0.28565426015E+03  0.33356387788E+03  0.17200000000E+03 0. -1.
         -6    1    1    2    0  502 -0.21251710479E+01  0.88310773483E+01 -0.28041842043E+02  0.17450744736E+03  0.17200000000E+03 0. -1.
</event>
<event>
 4    1  0.5874615E+000  0.1940484E+03  0.7818608E-02  0.1154860E+00
         21   -1    0    0  503  502  0.00000000000E+00  0.00000000000E+00  0.81850153061E+03  0.81850153061E+03  0.00000000000E+00 0. -1.
         21   -1    0    0  501  503 -0.00000000000E+00 -0.00000000000E+00 -0.70053542550E+02  0.70053542550E+02  0.00000000000E+00 0.  1.
          6    1    1    2  501    0 -0.88175524764E+02 -0.17200996191E+02  0.11391587345E+03  0.22501471877E+03  0.17200000000E+03 0.  1.
         -6    1    1    2    0  502  0.88175524764E+02  0.17200996191E+02  0.63453211461E+03  0.66354035440E+03  0.17200000000E+03 0. -1.
</event>
<event>
 4    1  0.5874615E+000  0.2233847E+03  0.7818608E-02  0.1131384E+00
         21   -1    0    0  503  502  0.00000000000E+00  0.00000000000E+00  0.58589456309E+03  0.58589456309E+03  0.00000000000E+00 0. -1.
         21   -1    0    0  501  503 -0.00000000000E+00 -0.00000000000E+00 -0.21297681148E+03  0.21297681148E+03  0.00000000000E+00 0.  1.
          6    1    1    2  501    0 -0.10741131602E+03  0.93699174111E+02 -0.12296758791E+03  0.25499363465E+03  0.17200000000E+03 0.  1.
         -6    1    1    2    0  502  0.10741131602E+03 -0.93699174111E+02  0.49588533951E+03  0.54387773992E+03  0.17200000000E+03 0. -1.
</event>
<event>
 4    1  0.5874615E+000  0.1954271E+03  0.7818608E-02  0.1153656E+00
         21   -1    0    0  501  502  0.00000000000E+00  0.00000000000E+00  0.14114506288E+03  0.14114506288E+03  0.00000000000E+00 0. -1.
         21   -1    0    0  502  503 -0.00000000000E+00 -0.00000000000E+00 -0.28529788807E+03  0.28529788807E+03  0.00000000000E+00 0. -1.
          6    1    1    2  501    0  0.69607359608E+02 -0.61339866420E+02 -0.12049675099E+03  0.22958926526E+03  0.17200000000E+03 0.  1.
         -6    1    1    2    0  503 -0.69607359608E+02  0.61339866420E+02 -0.23656074198E+02  0.19685368569E+03  0.17200000000E+03 0.  1.
</event>
<event>
 4    1  0.5874615E+000  0.2026685E+03  0.7818608E-02  0.1147507E+00
         21   -1    0    0  501  502  0.00000000000E+00  0.00000000000E+00  0.38666806029E+02  0.38666806029E+02  0.00000000000E+00 0. -1.
         21   -1    0    0  502  503 -0.00000000000E+00 -0.00000000000E+00 -0.25919783731E+04  0.25919783731E+04  0.00000000000E+00 0.  1.
          6    1    1    2  501    0 -0.52617743123E+01  0.10706457083E+03 -0.26619094544E+03  0.33456259209E+03  0.17200000000E+03 0. -1.
         -6    1    1    2    0  503  0.52617743123E+01 -0.10706457083E+03 -0.22871206217E+04  0.22960825871E+04  0.17200000000E+03 0.  1.
</event>
<event>
 4    1  0.5874615E+000  0.2557287E+03  0.7818608E-02  0.1109737E+00
         21   -1    0    0  503  502  0.00000000000E+00  0.00000000000E+00  0.74818273061E+02  0.74818273061E+02  0.00000000000E+00 0.  1.
         21   -1    0    0  501  503 -0.00000000000E+00 -0.00000000000E+00 -0.87481973276E+03  0.87481973276E+03  0.00000000000E+00 0.  1.
          6    1    1    2  501    0  0.14747665478E+03 -0.11859095316E+03 -0.41380523531E+03  0.48644830213E+03  0.17200000000E+03 0.  1.
         -6    1    1    2    0  502 -0.14747665478E+03  0.11859095316E+03 -0.38619622440E+03  0.46318970370E+03  0.17200000000E+03 0.  1.
</event>
<event>
 4    1  0.5874615E+000  0.2203667E+03  0.7818608E-02  0.1133610E+00
         21   -1    0    0  503  502  0.00000000000E+00  0.00000000000E+00  0.61278116293E+02  0.61278116293E+02  0.00000000000E+00 0. -1.
         21   -1    0    0  501  503 -0.00000000000E+00 -0.00000000000E+00 -0.10537052175E+04  0.10537052175E+04  0.00000000000E+00 0. -1.
          6    1    1    2  501    0  0.10350120880E+03  0.90912030808E+02 -0.77379399133E+03  0.80456114658E+03  0.17200000000E+03 0. -1.
         -6    1    1    2    0  502 -0.10350120880E+03 -0.90912030808E+02 -0.21863310982E+03  0.31042218716E+03  0.17200000000E+03 0. -1.
</event>
<event>
 4    1  0.5874615E+000  0.2267160E+03  0.7818608E-02  0.1128973E+00
         21   -1    0    0  501  502  0.00000000000E+00  0.00000000000E+00  0.15189188569E+04  0.15189188569E+04  0.00000000000E+00 0. -1.
         21   -1    0    0  502  503 -0.00000000000E+00 -0.00000000000E+00 -0.19238911383E+03  0.19238911383E+03  0.00000000000E+00 0. -1.
          6    1    1    2  501    0 -0.32088921607E+02  0.14417508577E+03  0.14400303102E+04  0.14577679680E+04  0.17200000000E+03 0. -1.
         -6    1    1    2    0  503  0.32088921607E+02 -0.14417508577E+03 -0.11350056713E+03  0.25354000273E+03  0.17200000000E+03 0. -1.
</event>
<event>
 4    1  0.5874615E+000  0.2253952E+03  0.7818608E-02  0.1129923E+00
         21   -1    0    0  501  502  0.00000000000E+00  0.00000000000E+00  0.22869081715E+03  0.22869081715E+03  0.00000000000E+00 0.  1.
         21   -1    0    0  502  503 -0.00000000000E+00 -0.00000000000E+00 -0.31451401345E+03  0.31451401345E+03  0.00000000000E+00 0.  1.
          6    1    1    2  501    0 -0.71096751089E+02 -0.12713875258E+03  0.10427618178E+03  0.24834760419E+03  0.17200000000E+03 0.  1.
         -6    1    1    2    0  503  0.71096751089E+02  0.12713875258E+03 -0.19009937808E+03  0.29485722641E+03  0.17200000000E+03 0.  1.
</event>
<event>
 4    1  0.5874615E+000  0.1834899E+03  0.7818608E-02  0.1164468E+00
         21   -1    0    0  503  502  0.00000000000E+00  0.00000000000E+00  0.32751285266E+02  0.32751285266E+02  0.00000000000E+00 0. -1.
         21   -1    0    0  501  503 -0.00000000000E+00 -0.00000000000E+00 -0.10427113642E+04  0.10427113642E+04  0.00000000000E+00 0. -1.
          6    1    1    2  501    0  0.96941991274E+01  0.63170896256E+02 -0.56883745182E+03  0.59769941126E+03  0.17200000000E+03 0.  1.
         -6    1    1    2    0  502 -0.96941991274E+01 -0.63170896256E+02 -0.44112262716E+03  0.47776323825E+03  0.17200000000E+03 0.  1.
</event>
<event>
 4    1  0.5874615E+000  0.1805439E+03  0.7818608E-02  0.1167278E+00
         21   -1    0    0  501  502  0.00000000000E+00  0.00000000000E+00  0.72718730192E+03  0.72718730192E+03  0.00000000000E+00 0.  1.
         21   -1    0    0  502  503 -0.00000000000E+00 -0.00000000000E+00 -0.44913373135E+02  0.44913373135E+02  0.00000000000E+00 0.  1.
          6    1    1    2  501    0  0.44422115285E+02  0.32230191819E+02  0.32400437584E+03  0.37091096661E+03  0.17200000000E+03 0.  1.
         -6    1    1    2    0  503 -0.44422115285E+02 -0.32230191819E+02  0.35826955295E+03  0.40118970844E+03  0.17200000000E+03 0.  1.
</event>
<event>
 4    1  0.5874615E+000  0.1749638E+03  0.7818608E-02  0.1172768E+00
         21   -1    0    0  503  502  0.00000000000E+00  0.00000000000E+00  0.10921609025E+03  0.10921609025E+03  0.00000000000E+00 0. -1.
         21   -1    0    0  501  503 -0.00000000000E+00 -0.00000000000E+00 -0.93224989415E+03  0.93224989415E+03  0.00000000000E+00 0. -1.
          6    1    1    2  501    0  0.21149181024E+02 -0.24104858065E+02 -0.84698755556E+03  0.86487007771E+03  0.17200000000E+03 0. -1.
         -6    1    1    2    0  502 -0.21149181024E+02  0.24104858065E+02  0.23953751660E+02  0.17659590669E+03  0.17200000000E+03 0. -1.
</event>
<event>
 4    1  0.5874615E+000  0.1812700E+03  0.7818608E-02  0.1166580E+00
         21   -1    0    0  503  502  0.00000000000E+00  0.00000000000E+00  0.15362447129E+03  0.15362447129E+03  0.00000000000E+00 0. -1.
         21   -1    0    0  501  503 -0.00000000000E+00 -0.00000000000E+00 -0.70849246606E+03  0.70849246606E+03  0.00000000000E+00 0. -1.
          6    1    1    2  501    0 -0.14419735122E+02 -0.55379594129E+02 -0.63759479954E+03  0.66286194385E+03  0.17200000000E+03 0. -1.
         -6    1    1    2    0  502  0.14419735122E+02  0.55379594129E+02  0.82726804767E+02  0.19925499350E+03  0.17200000000E+03 0. -1.
</event>
<event>
 4    1  0.5874615E+000  0.2042618E+03  0.7818608E-02  0.1146192E+00
         21   -1    0    0  503  502  0.00000000000E+00  0.00000000000E+00  0.22438926045E+04  0.22438926045E+04  0.00000000000E+00 0.  1.
         21   -1    0    0  501  503 -0.00000000000E+00 -0.00000000000E+00 -0.28271713107E+02  0.28271713107E+02  0.00000000000E+00 0.  1.
          6    1    1    2  501    0 -0.67953849766E+02  0.86724630626E+02  0.44311826914E+03  0.48793102761E+03  0.17200000000E+03 0.  1.
         -6    1    1    2    0  502  0.67953849766E+02 -0.86724630626E+02  0.17725026223E+04  0.17842332900E+04  0.17200000000E+03 0.  1.
</event>
<event>
 4    1  0.5874615E+000  0.1772850E+03  0.7818608E-02  0.1170457E+00
         21   -1    0    0  503  502  0.00000000000E+00  0.00000000000E+00  0.10396746002E+04  0.10396746002E+04  0.00000000000E+00 0.  1.
         21   -1    0    0  501  503 -0.00000000000E+00 -0.00000000000E+00 -0.46812658276E+02  0.46812658276E+02  0.00000000000E+00 0.  1.
          6    1    1    2  501    0 -0.42544719283E+02 -0.59936241555E+01  0.17311114340E+03  0.24778507751E+03  0.17200000000E+03 0.  1.
         -6    1    1    2    0  502  0.42544719283E+02  0.59936241555E+01  0.81975079853E+03  0.83870218096E+03  0.17200000000E+03 0.  1.
</event>
<event>
 4    1  0.5874615E+000  0.1817803E+03  0.7818608E-02  0.1166091E+00
         21   -1    0    0  501  502  0.00000000000E+00  0.00000000000E+00  0.21414575555E+03  0.21414575555E+03  0.00000000000E+00 0.  1.
         21   -1    0    0  502  503 -0.00000000000E+00 -0.00000000000E+00 -0.22752277792E+03  0.22752277792E+03  0.00000000000E+00 0. -1.
          6    1    1    2  501    0 -0.30532036604E+02  0.50277981444E+02  0.11858460047E+03  0.21704006115E+03  0.17200000000E+03 0.  1.
         -6    1    1    2    0  503  0.30532036604E+02 -0.50277981444E+02 -0.13196162284E+03  0.22462847232E+03  0.17200000000E+03 0. -1.
</event>
<event>
 4    1  0.5874615E+000  0.2744012E+03  0.7818608E-02  0.1098787E+00
         21   -1    0    0  501  502  0.00000000000E+00  0.00000000000E+00  0.18189992289E+04  0.18189992289E+04  0.00000000000E+00 0.  1.
         21   -1    0    0  502  503 -0.00000000000E+00 -0.00000000000E+00 -0.90886748517E+02  0.90886748517E+02  0.00000000000E+00 0. -1.
          6    1    1    2  501    0 -0.20897903055E+03  0.45164224073E+02  0.15687444588E+04  0.15925624696E+04  0.17200000000E+03 0.  1.
         -6    1    1    2    0  503  0.20897903055E+03 -0.45164224073E+02  0.15936802157E+03  0.31732350787E+03  0.17200000000E+03 0. -1.
</event>
<event>
 4    1  0.5874615E+000  0.1990896E+03  0.7818608E-02  0.1150509E+00
         21   -1    0    0  503  502  0.00000000000E+00  0.00000000000E+00  0.15627876517E+03  0.15627876517E+03  0.00000000000E+00 0. -1.
         21   -1    0    0  501  503 -0.00000000000E+00 -0.00000000000E+00 -0.57581930998E+03  0.57581930998E+03  0.00000000000E+00 0. -1.
          6    1    1    2  501    0 -0.14648188522E+02 -0.99187212631E+02 -0.48358263966E+03  0.52296160658E+03  0.17200000000E+03 0. -1.
         -6    1    1    2    0  502  0.14648188522E+02  0.99187212631E+02  0.64042094851E+02  0.20913646858E+03  0.17200000000E+03 0. -1.
</event>
<event>
 4    1  0.5874615E+000  0.1841069E+03  0.7818608E-02  0.1163886E+00
         21   -1    0    0  503  502  0.00000000000E+00  0.00000000000E+00  0.24723030637E+03  0.24723030637E+03  0.00000000000E+00 0. -1.
         21   -1    0    0  501  503 -0.00000000000E+00 -0.00000000000E+00 -0.21607476075E+03  0.21607476075E+03  0.00000000000E+00 0. -1.
          6    1    1    2  501    0  0.48940645770E+02 -0.43774172890E+02 -0.12447064033E+03  0.22223479774E+03  0.17200000000E+03 0. -1.
         -6    1    1    2    0  502 -0.48940645770E+02  0.43774172890E+02  0.15562618595E+03  0.24107026937E+03  0.17200000000E+03 0. -1.
</event>
<event>
 4    1  0.5874615E+000  0.2117853E+03  0.7818608E-02  0.1140160E+00
         21   -1    0    0  503  502  0.00000000000E+00  0.00000000000E+00  0.73158919809E+02  0.73158919809E+02  0.00000000000E+00 0. -1.
         21   -1    0    0  501  503 -0.00000000000E+00 -0.00000000000E+00 -0.75343613152E+03  0.75343613152E+03  0.00000000000E+00 0.  1.
          6    1    1    2  501    0  0.11540658029E+03 -0.44162355508E+02 -0.51851608105E+03  0.56009991852E+03  0.17200000000E+03 0. -1.
         -6    1    1    2    0  502 -0.11540658029E+03  0.44162355508E+02 -0.16176113066E+03  0.26649513281E+03  0.17200000000E+03 0. -1.
</event>
<event>
 4    1  0.5874615E+000  0.1983303E+03  0.7818608E-02  0.1151155E+00
         21   -1    0    0  501  502  0.00000000000E+00  0.00000000000E+00  0.50888238988E+03  0.50888238988E+03  0.00000000000E+00 0.  1.
         21   -1    0    0  502  503 -0.00000000000E+00 -0.00000000000E+00 -0.25606179933E+03  0.25606179933E+03  0.00000000000E+00 0.  1.
          6    1    1    2  501    0  0.85083668208E+02 -0.50116609584E+02  0.44598234117E+03  0.48809338634E+03  0.17200000000E+03 0.  1.
         -6    1    1    2    0  503 -0.85083668208E+02  0.50116609584E+02 -0.19316175062E+03  0.27685080288E+03  0.17200000000E+03 0.  1.
</event>
<event>
 4    1  0.5874615E+000  0.2750300E+03  0.7818608E-02  0.1098435E+00
         21   -1    0    0  501  502  0.00000000000E+00  0.00000000000E+00  0.23680549642E+04  0.23680549642E+04  0.00000000000E+00 0. -1.
         21   -1    0    0  502  503 -0.00000000000E+00 -0.00000000000E+00 -0.44239216722E+02  0.44239216722E+02  0.00000000000E+00 0. -1.
          6    1    1    2  501    0  0.10045552230E+03 -0.18964756253E+03  0.17978122046E+04  0.18187276412E+04  0.17200000000E+03 0. -1.
         -6    1    1    2    0  503 -0.10045552230E+03  0.18964756253E+03  0.52600354290E+03  0.59356653972E+03  0.17200000000E+03 0. -1.
</event>
<event>
 4    1  0.5874615E+000  0.2292562E+03  0.7818608E-02  0.1127164E+00
         21   -1    0    0  503  502  0.00000000000E+00  0.00000000000E+00  0.23226380229E+03  0.23226380229E+03  0.00000000000E+00 0.  1.
         21   -1    0    0  501  503 -0.00000000000E+00 -0.00000000000E+00 -0.25185216139E+03  0.25185216139E+03  0.00000000000E+00 0.  1.
          6    1    1    2  501    0  0.32809155556E+02  0.14797967881E+03 -0.86913902429E+02  0.24517840946E+03  0.17200000000E+03 0.  1.
         -6    1    1    2    0  502 -0.32809155556E+02 -0.14797967881E+03  0.67325543330E+02  0.23893755422E+03  0.17200000000E+03 0.  1.
</event>
<event>
 4    1  0.5874615E+000  0.1914750E+03  0.7818608E-02  0.1157138E+00
         21   -1    0    0  501  502  0.00000000000E+00  0.00000000000E+00  0.36667929746E+03  0.36667929746E+03  0.00000000000E+00 0.  1.
         21   -1    0    0  502  503 -0.00000000000E+00 -0.00000000000E+00 -0.10401643287E+03  0.10401643287E+03  0.00000000000E+00 0.  1.
          6    1    1    2  501    0 -0.73875902817E+02 -0.40262001871E+02  0.17766039010E+03  0.26120086528E+03  0.17200000000E+03 0.  1.
         -6    1    1    2    0  503  0.73875902817E+02  0.40262001871E+02  0.85002474486E+02  0.20949486505E+03  0.17200000000E+03 0.  1.
</event>
<event>
 4    1  0.5874615E+000  0.1754823E+03  0.7818608E-02  0.1172248E+00
         21   -1    0    0  503  502  0.00000000000E+00  0.00000000000E+00  0.55834491807E+02  0.55834491807E+02  0.00000000000E+00 0. -1.
         21   -1    0    0  501  503 -0.00000000000E+00 -0.00000000000E+00 -0.73373168946E+03  0.73373168946E+03  0.00000000000E+00 0. -1.
          6    1    1    2  501    0 -0.14683490792E+02 -0.31534830591E+02 -0.53567991940E+03  0.56369054142E+03  0.17200000000E+03 0. -1.
         -6    1    1    2    0  502  0.14683490792E+02  0.31534830591E+02 -0.14221727826E+03  0.22587563985E+03  0.17200000000E+03 0. -1.
</event>
<event>
 4    1  0.5874615E+000  0.1797468E+03  0.7818608E-02  0.1168048E+00
         21   -1    0    0  503  502  0.00000000000E+00  0.00000000000E+00  0.19264853813E+03  0.19264853813E+03  0.00000000000E+00 0.  1.
         21   -1    0    0  501  503 -0.00000000000E+00 -0.00000000000E+00 -0.20330285330E+03  0.20330285330E+03  0.00000000000E+00 0.  1.
          6    1    1    2  501    0 -0.41262142816E+02 -0.31974091449E+02 -0.88164703378E+02  0.20020469993E+03  0.17200000000E+03 0. -1.
         -6    1    1    2    0  502  0.41262142816E+02  0.31974091449E+02  0.77510388200E+02  0.19574669150E+03  0.17200000000E+03 0. -1.
</event>
<event>
 4    1  0.5874615E+000  0.2021979E+03  0.7818608E-02  0.1147898E+00
         21   -1    0    0  503  502  0.00000000000E+00  0.00000000000E+00  0.25580800069E+03  0.25580800069E+03  0.00000000000E+00 0. -1.
         21   -1    0    0  501  503 -0.00000000000E+00 -0.00000000000E+00 -0.16630891071E+03  0.16630891071E+03  0.00000000000E+00 0. -1.
          6    1    1    2  501    0  0.63865668394E+02  0.84977347869E+02  0.30689169280E+01  0.20222114504E+03  0.17200000000E+03 0. -1.
         -6    1    1    2    0  502 -0.63865668394E+02 -0.84977347869E+02  0.86430173045E+02  0.21989576636E+03  0.17200000000E+03 0. -1.
</event>
<event>
 4    1  0.5874615E+000  0.2485098E+03  0.7818608E-02  0.1114250E+00
         21   -1    0    0  503  502  0.00000000000E+00  0.00000000000E+00  0.80562364811E+03  0.80562364811E+03  0.00000000000E+00 0.  1.
         21   -1    0    0  501  503 -0.00000000000E+00 -0.00000000000E+00 -0.77037589231E+02  0.77037589231E+02  0.00000000000E+00 0. -1.
          6    1    1    2  501    0  0.17683943409E+03  0.30015302365E+02  0.33329392821E+03  0.41574264444E+03  0.17200000000E+03 0.  1.
         -6    1    1    2    0  502 -0.17683943409E+03 -0.30015302365E+02  0.39529213067E+03  0.46691859290E+03  0.17200000000E+03 0.  1.
</event>
<event>
 4    1  0.5874615E+000  0.1945186E+03  0.7818608E-02  0.1154448E+00
         21   -1    0    0  503  502  0.00000000000E+00  0.00000000000E+00  0.13952571381E+03  0.13952571381E+03  0.00000000000E+00 0.  1.
         21   -1    0    0  501  503 -0.00000000000E+00 -0.00000000000E+00 -0.27153959552E+03  0.27153959552E+03  0.00000000000E+00 0. -1.
          6    1    1    2  501    0 -0.14351292277E+02  0.89707932023E+02 -0.73419816664E+02  0.20791330438E+03  0.17200000000E+03 0. -1.
         -6    1    1    2    0  502  0.14351292277E+02 -0.89707932023E+02 -0.58594065046E+02  0.20315200495E+03  0.17200000000E+03 0.  1.
</event>
<event>
 4    1  0.5874615E+000  0.1857167E+03  0.7818608E-02  0.1162382E+00
         21   -1    0    0  501  502  0.00000000000E+00  0.00000000000E+00  0.53526234206E+03  0.53526234206E+03  0.00000000000E+00 0.  1.
         21   -1    0    0  502  503 -0.00000000000E+00 -0.00000000000E+00 -0.13624897972E+03  0.13624897972E+03  0.00000000000E+00 0.  1.
          6    1    1    2  501    0  0.46794985979E+01  0.69891261071E+02  0.44326263935E+03  0.48059593582E+03  0.17200000000E+03 0.  1.
         -6    1    1    2    0  503 -0.46794985979E+01 -0.69891261071E+02 -0.44249277017E+02  0.19091538596E+03  0.17200000000E+03 0.  1.
</event>
<event>
 4    1  0.5874615E+000  0.2236044E+03  0.7818608E-02  0.1131224E+00
         21   -1    0    0  503  502  0.00000000000E+00  0.00000000000E+00  0.37567408293E+02  0.37567408293E+02  0.00000000000E+00 0. -1.
         21   -1    0    0  501  503 -0.00000000000E+00 -0.00000000000E+00 -0.14053589401E+04  0.14053589401E+04  0.00000000000E+00 0. -1.
          6    1    1    2  501    0 -0.53440191624E+02  0.13251062973E+03 -0.84994751478E+03  0.87886841959E+03  0.17200000000E+03 0.  1.
         -6    1    1    2    0  502  0.53440191624E+02 -0.13251062973E+03 -0.51784401700E+03  0.56405792878E+03  0.17200000000E+03 0.  1.
</event>
<event>
 4    1  0.5874615E+000  0.2206102E+03  0.7818608E-02  0.1133429E+00
         21   -1    0    0  503  502  0.00000000000E+00  0.00000000000E+00  0.81089437446E+03  0.81089437446E+03  0.00000000000E+00 0.  1.
         21   -1    0    0  501  503 -0.00000000000E+00 -0.00000000000E+00 -0.60215287300E+02  0.60215287300E+02  0.00000000000E+00 0. -1.
          6    1    1    2  501    0  0.10742729884E+03  0.86857564433E+02  0.40022351620E+03  0.45699860389E+03  0.17200000000E+03 0. -1.
         -6    1    1    2    0  502 -0.10742729884E+03 -0.86857564433E+02  0.35045557097E+03  0.41411105788E+03  0.17200000000E+03 0.  1.
</event>
<event>
 4    1  0.5874615E+000  0.2050559E+03  0.7818608E-02  0.1145542E+00
         21   -1    0    0  503  502  0.00000000000E+00  0.00000000000E+00  0.75647807160E+02  0.75647807160E+02  0.00000000000E+00 0. -1.
         21   -1    0    0  501  503 -0.00000000000E+00 -0.00000000000E+00 -0.64822401777E+03  0.64822401777E+03  0.00000000000E+00 0.  1.
          6    1    1    2  501    0  0.78781263751E+02 -0.79103983019E+02 -0.42292632213E+03  0.47001553336E+03  0.17200000000E+03 0.  1.
         -6    1    1    2    0  502 -0.78781263751E+02  0.79103983019E+02 -0.14964988848E+03  0.25385629157E+03  0.17200000000E+03 0. -1.
</event>
<event>
 4    1  0.5874615E+000  0.1891188E+03  0.7818608E-02  0.1159259E+00
         21   -1    0    0  501  502  0.00000000000E+00  0.00000000000E+00  0.28236696036E+03  0.28236696036E+03  0.00000000000E+00 0. -1.
         21   -1    0    0  502  503 -0.00000000000E+00 -0.00000000000E+00 -0.12690135521E+03  0.12690135521E+03  0.00000000000E+00 0. -1.
          6    1    1    2  501    0  0.70490014600E+02 -0.34829302200E+02  0.68895583456E+02  0.20127723137E+03  0.17200000000E+03 0.  1.
         -6    1    1    2    0  503 -0.70490014600E+02  0.34829302200E+02  0.86570021698E+02  0.20799108420E+03  0.17200000000E+03 0.  1.
</event>
<event>
 4    1  0.5874615E+000  0.1819055E+03  0.7818608E-02  0.1165972E+00
         21   -1    0    0  501  502  0.00000000000E+00  0.00000000000E+00  0.12727387823E+04  0.12727387823E+04  0.00000000000E+00 0.  1.
         21   -1    0    0  502  503 -0.00000000000E+00 -0.00000000000E+00 -0.26002776137E+02  0.26002776137E+02  0.00000000000E+00 0.  1.
          6    1    1    2  501    0 -0.27319990766E+02  0.52528334116E+02  0.63145589032E+03  0.65713480291E+03  0.17200000000E+03 0. -1.
         -6    1    1    2    0  503  0.27319990766E+02 -0.52528334116E+02  0.61528011585E+03  0.64160675552E+03  0.17200000000E+03 0. -1.
</event>
<event>
 4    1  0.5874615E+000  0.1806936E+03  0.7818608E-02  0.1167133E+00
         21   -1    0    0  503  502  0.00000000000E+00  0.00000000000E+00  0.37300847181E+03  0.37300847181E+03  0.00000000000E+00 0. -1.
         21   -1    0    0  501  503 -0.00000000000E+00 -0.00000000000E+00 -0.88934809662E+02  0.88934809662E+02  0.00000000000E+00 0. -1.
          6    1    1    2  501    0 -0.13876098608E+02 -0.53606258405E+02  0.11302852615E+03  0.21313288056E+03  0.17200000000E+03 0.  1.
         -6    1    1    2    0  502  0.13876098608E+02  0.53606258405E+02  0.17104513601E+03  0.24881040092E+03  0.17200000000E+03 0.  1.
</event>
<event>
 4    1  0.5874615E+000  0.1746123E+03  0.7818608E-02  0.1173121E+00
         21   -1    0    0  501  502  0.00000000000E+00  0.00000000000E+00  0.84210934542E+02  0.84210934542E+02  0.00000000000E+00 0.  1.
         21   -1    0    0  502  503 -0.00000000000E+00 -0.00000000000E+00 -0.36858045011E+03  0.36858045011E+03  0.00000000000E+00 0.  1.
          6    1    1    2  501    0 -0.18638532857E+02 -0.23623656316E+02 -0.17229516585E+03  0.24530612756E+03  0.17200000000E+03 0. -1.
         -6    1    1    2    0  503  0.18638532857E+02  0.23623656316E+02 -0.11207434972E+03  0.20748525709E+03  0.17200000000E+03 0. -1.
</event>
<event>
 4    1  0.5874615E+000  0.2205779E+03  0.7818608E-02  0.1133453E+00
         21   -1    0    0  501  502  0.00000000000E+00  0.00000000000E+00  0.24153318723E+03  0.24153318723E+03  0.00000000000E+00 0. -1.
         21   -1    0    0  502  503 -0.00000000000E+00 -0.00000000000E+00 -0.53023672485E+03  0.53023672485E+03  0.00000000000E+00 0.  1.
          6    1    1    2  501    0 -0.13575599172E+03 -0.25316733666E+02  0.15951708796E+03  0.27221375359E+03  0.17200000000E+03 0. -1.
         -6    1    1    2    0  503  0.13575599172E+03  0.25316733666E+02 -0.44822062558E+03  0.49955615849E+03  0.17200000000E+03 0.  1.
</event>
<event>
 4    1  0.5874615E+000  0.2298304E+03  0.7818608E-02  0.1126759E+00
         21   -1    0    0  503  502  0.00000000000E+00  0.00000000000E+00  0.62618123380E+03  0.62618123380E+03  0.00000000000E+00 0. -1.
         21   -1    0    0  501  503 -0.00000000000E+00 -0.00000000000E+00 -0.16708728354E+03  0.16708728354E+03  0.00000000000E+00 0. -1.
          6    1    1    2  501    0 -0.14448716145E+03  0.48595088388E+02 -0.49549219519E+02  0.23511092615E+03  0.17200000000E+03 0. -1.
         -6    1    1    2    0  502  0.14448716145E+03 -0.48595088388E+02  0.50864316978E+03  0.55815759119E+03  0.17200000000E+03 0. -1.
</event>
<event>
 4    1  0.5874615E+000  0.2005977E+03  0.7818608E-02  0.1149236E+00
         21   -1    0    0  501  502  0.00000000000E+00  0.00000000000E+00  0.14582943647E+03  0.14582943647E+03  0.00000000000E+00 0.  1.
         21   -1    0    0  502  503 -0.00000000000E+00 -0.00000000000E+00 -0.42685088067E+03  0.42685088067E+03  0.00000000000E+00 0.  1.
          6    1    1    2  501    0 -0.79028963811E+02 -0.66406819160E+02  0.29748901547E+02  0.20279161693E+03  0.17200000000E+03 0.  1.
         -6    1    1    2    0  503  0.79028963811E+02  0.66406819160E+02 -0.31077034575E+03  0.36988870022E+03  0.17200000000E+03 0.  1.
</event>
<event>
 4    1  0.5874615E+000  0.2392948E+03  0.7818608E-02  0.1120263E+00
         21   -1    0    0  503  502  0.00000000000E+00  0.00000000000E+00  0.23997579809E+03  0.23997579809E+03  0.00000000000E+00 0. -1.
         21   -1    0    0  501  503 -0.00000000000E+00 -0.00000000000E+00 -0.41911896665E+03  0.41911896665E+03  0.00000000000E+00 0.  1.
          6    1    1    2  501    0  0.16631584804E+03  0.41303232425E+01 -0.30583925484E+03  0.38832933276E+03  0.17200000000E+03 0.  1.
         -6    1    1    2    0  502 -0.16631584804E+03 -0.41303232425E+01  0.12669608628E+03  0.27076543199E+03  0.17200000000E+03 0. -1.
</event>
<event>
 4    1  0.5874615E+000  0.2412696E+03  0.7818608E-02  0.1118950E+00
         21   -1    0    0  503  502  0.00000000000E+00  0.00000000000E+00  0.29427531719E+03  0.29427531719E+03  0.00000000000E+00 0.  1.
         21   -1    0    0  501  503 -0.00000000000E+00 -0.00000000000E+00 -0.49290614690E+03  0.49290614690E+03  0.00000000000E+00 0.  1.
          6    1    1    2  501    0  0.16739350752E+02  0.16836517268E+03 -0.40385476996E+03  0.47043566240E+03  0.17200000000E+03 0.  1.
         -6    1    1    2    0  502 -0.16739350752E+02 -0.16836517268E+03  0.20522394025E+03  0.31674580169E+03  0.17200000000E+03 0.  1.
</event>
<event>
 4    1  0.5874615E+000  0.1733871E+03  0.7818608E-02  0.1174361E+00
         21   -1    0    0  501  502  0.00000000000E+00  0.00000000000E+00  0.11496471901E+03  0.11496471901E+03  0.00000000000E+00 0. -1.
         21   -1    0    0  502  503 -0.00000000000E+00 -0.00000000000E+00 -0.27515854091E+03  0.27515854091E+03  0.00000000000E+00 0. -1.
          6    1    1    2  501    0  0.11437270319E+02 -0.18662296591E+02 -0.12355870098E+03  0.21290806714E+03  0.17200000000E+03 0. -1.
         -6    1    1    2    0  503 -0.11437270319E+02  0.18662296591E+02 -0.36635120929E+02  0.17721519278E+03  0.17200000000E+03 0. -1.
</event>
<event>
 4    1  0.5874615E+000  0.3029659E+03  0.7818608E-02  0.1083767E+00
         21   -1    0    0  501  502  0.00000000000E+00  0.00000000000E+00  0.15526868408E+03  0.15526868408E+03  0.00000000000E+00 0.  1.
         21   -1    0    0  502  503 -0.00000000000E+00 -0.00000000000E+00 -0.64308982173E+03  0.64308982173E+03  0.00000000000E+00 0. -1.
          6    1    1    2  501    0 -0.24455383678E+03 -0.48966827934E+02 -0.13047511877E+03  0.32986676999E+03  0.17200000000E+03 0.  1.
         -6    1    1    2    0  503  0.24455383678E+03  0.48966827934E+02 -0.35734601889E+03  0.46849173583E+03  0.17200000000E+03 0. -1.
</event>
<event>
 4    1  0.5874615E+000  0.1727520E+03  0.7818608E-02  0.1175008E+00
         21   -1    0    0  501  502  0.00000000000E+00  0.00000000000E+00  0.15581435290E+04  0.15581435290E+04  0.00000000000E+00 0. -1.
         21   -1    0    0  502  503 -0.00000000000E+00 -0.00000000000E+00 -0.34560544719E+02  0.34560544719E+02  0.00000000000E+00 0.  1.
          6    1    1    2  501    0  0.22181187260E+01  0.15947552797E+02  0.12935083448E+04  0.13049931351E+04  0.17200000000E+03 0. -1.
         -6    1    1    2    0  503 -0.22181187260E+01 -0.15947552797E+02  0.23007463948E+03  0.28771093866E+03  0.17200000000E+03 0.  1.
</event>
<event>
 4    1  0.5874615E+000  0.2236110E+03  0.7818608E-02  0.1131219E+00
         21   -1    0    0  503  502  0.00000000000E+00  0.00000000000E+00  0.41584501401E+03  0.41584501401E+03  0.00000000000E+00 0.  1.
         21   -1    0    0  501  503 -0.00000000000E+00 -0.00000000000E+00 -0.12036294759E+03  0.12036294759E+03  0.00000000000E+00 0. -1.
          6    1    1    2  501    0  0.10524332057E+03 -0.96652652507E+02  0.13923008265E+03  0.26341394738E+03  0.17200000000E+03 0.  1.
         -6    1    1    2    0  502 -0.10524332057E+03  0.96652652507E+02  0.15625198377E+03  0.27279401422E+03  0.17200000000E+03 0.  1.
</event>
<event>
 4    1  0.5874615E+000  0.1730648E+03  0.7818608E-02  0.1174689E+00
         21   -1    0    0  503  502  0.00000000000E+00  0.00000000000E+00  0.31291602571E+03  0.31291602571E+03  0.00000000000E+00 0. -1.
         21   -1    0    0  501  503 -0.00000000000E+00 -0.00000000000E+00 -0.95800453517E+02  0.95800453517E+02  0.00000000000E+00 0. -1.
          6    1    1    2  501    0  0.61692968833E+01  0.18148506542E+02  0.10253144328E+03  0.20115696700E+03  0.17200000000E+03 0. -1.
         -6    1    1    2    0  502 -0.61692968833E+01 -0.18148506542E+02  0.11458412891E+03  0.20755951222E+03  0.17200000000E+03 0. -1.
</event>
<event>
 4    1  0.5874615E+000  0.1963642E+03  0.7818608E-02  0.1152843E+00
         21   -1    0    0  501  502  0.00000000000E+00  0.00000000000E+00  0.26203534707E+03  0.26203534707E+03  0.00000000000E+00 0.  1.
         21   -1    0    0  502  503 -0.00000000000E+00 -0.00000000000E+00 -0.17841245738E+03  0.17841245738E+03  0.00000000000E+00 0.  1.
          6    1    1    2  501    0  0.18032370514E+02 -0.93004030390E+02  0.13399478256E+03  0.23772571970E+03  0.17200000000E+03 0.  1.
         -6    1    1    2    0  503 -0.18032370514E+02  0.93004030390E+02 -0.50371892869E+02  0.20272208475E+03  0.17200000000E+03 0.  1.
</event>
<event>
 4    1  0.5874615E+000  0.1784212E+03  0.7818608E-02  0.1169340E+00
         21   -1    0    0  501  502  0.00000000000E+00  0.00000000000E+00  0.21255578054E+03  0.21255578054E+03  0.00000000000E+00 0. -1.
         21   -1    0    0  502  503 -0.00000000000E+00 -0.00000000000E+00 -0.34760338839E+03  0.34760338839E+03  0.00000000000E+00 0. -1.
          6    1    1    2  501    0 -0.14020605214E+02 -0.45316226773E+02  0.14377206727E+03  0.22913870277E+03  0.17200000000E+03 0. -1.
         -6    1    1    2    0  503  0.14020605214E+02  0.45316226773E+02 -0.27881967513E+03  0.33102046616E+03  0.17200000000E+03 0. -1.
</event>
<event>
 4    1  0.5874615E+000  0.1815683E+03  0.7818608E-02  0.1166294E+00
         21   -1    0    0  503  502  0.00000000000E+00  0.00000000000E+00  0.18374997271E+04  0.18374997271E+04  0.00000000000E+00 0. -1.
         21   -1    0    0  501  503 -0.00000000000E+00 -0.00000000000E+00 -0.23082655663E+02  0.23082655663E+02  0.00000000000E+00 0.  1.
          6    1    1    2  501    0 -0.52800140882E+02 -0.24396691040E+02  0.46815579219E+03  0.50213235224E+03  0.17200000000E+03 0.  1.
         -6    1    1    2    0  502  0.52800140882E+02  0.24396691040E+02  0.13462612792E+04  0.13584500305E+04  0.17200000000E+03 0. -1.
</event>
<event>
 4    1  0.5874615E+000  0.1988909E+03  0.7818608E-02  0.1150678E+00
         21   -1    0    0  503  502  0.00000000000E+00  0.00000000000E+00  0.24612411439E+03  0.24612411439E+03  0.00000000000E+00 0.  1.
         21   -1    0    0  501  503 -0.00000000000E+00 -0.00000000000E+00 -0.31415854928E+03  0.31415854928E+03  0.00000000000E+00 0.  1.
          6    1    1    2  501    0 -0.99865645664E+02 -0.65231426019E+00 -0.22979665907E+03  0.30391458869E+03  0.17200000000E+03 0.  1.
         -6    1    1    2    0  502  0.99865645664E+02  0.65231426019E+00  0.16176222418E+03  0.25636807498E+03  0.17200000000E+03 0.  1.
</event>
<event>
 4    1  0.5874615E+000  0.2127017E+03  0.7818608E-02  0.1139444E+00
         21   -1    0    0  501  502  0.00000000000E+00  0.00000000000E+00  0.86060001975E+02  0.86060001975E+02  0.00000000000E+00 0. -1.
         21   -1    0    0  502  503 -0.00000000000E+00 -0.00000000000E+00 -0.52927451423E+03  0.52927451423E+03  0.00000000000E+00 0. -1.
          6    1    1    2  501    0  0.85112504419E+02 -0.91727099369E+02 -0.24688093316E+03  0.32587143834E+03  0.17200000000E+03 0. -1.
         -6    1    1    2    0  503 -0.85112504419E+02  0.91727099369E+02 -0.19633357909E+03  0.28946307786E+03  0.17200000000E+03 0. -1.
</event>
<event>
 4    1  0.5874615E+000  0.1746797E+03  0.7818608E-02  0.1173054E+00
         21   -1    0    0  501  502  0.00000000000E+00  0.00000000000E+00  0.39992981033E+03  0.39992981033E+03  0.00000000000E+00 0. -1.
         21   -1    0    0  502  503 -0.00000000000E+00 -0.00000000000E+00 -0.79229353911E+02  0.79229353911E+02  0.00000000000E+00 0. -1.
          6    1    1    2  501    0  0.30427089050E+02  0.17847445375E+01  0.20644997672E+03  0.27043406950E+03  0.17200000000E+03 0. -1.
         -6    1    1    2    0  503 -0.30427089050E+02 -0.17847445375E+01  0.11425047970E+03  0.20872509473E+03  0.17200000000E+03 0. -1.
</event>
<event>
 4    1  0.5874615E+000  0.1779885E+03  0.7818608E-02  0.1169764E+00
         21   -1    0    0  501  502  0.00000000000E+00  0.00000000000E+00  0.38618173856E+03  0.38618173856E+03  0.00000000000E+00 0.  1.
         21   -1    0    0  502  503 -0.00000000000E+00 -0.00000000000E+00 -0.41373885712E+03  0.41373885712E+03  0.00000000000E+00 0.  1.
          6    1    1    2  501    0  0.34593156339E+02 -0.29987191058E+02  0.34434248125E+03  0.38762309334E+03  0.17200000000E+03 0.  1.
         -6    1    1    2    0  503 -0.34593156339E+02  0.29987191058E+02 -0.37189959982E+03  0.41229750234E+03  0.17200000000E+03 0.  1.
</event>
<event>
 4    1  0.5874615E+000  0.4322145E+03  0.7818608E-02  0.1033163E+00
         21   -1    0    0  501  502  0.00000000000E+00  0.00000000000E+00  0.15027864089E+03  0.15027864089E+03  0.00000000000E+00 0.  1.
         21   -1    0    0  502  503 -0.00000000000E+00 -0.00000000000E+00 -0.14265364243E+04  0.14265364243E+04  0.00000000000E+00 0. -1.
          6    1    1    2  501    0 -0.37224062421E+03  0.13661006881E+03 -0.35540158348E+03  0.55957097741E+03  0.17200000000E+03 0. -1.
         -6    1    1    2    0  503  0.37224062421E+03 -0.13661006881E+03 -0.92085619996E+03  0.10172440878E+04  0.17200000000E+03 0.  1.
</event>
<event>
 4    1  0.5874615E+000  0.1974932E+03  0.7818608E-02  0.1151871E+00
         21   -1    0    0  501  502  0.00000000000E+00  0.00000000000E+00  0.94575735989E+02  0.94575735989E+02  0.00000000000E+00 0. -1.
         21   -1    0    0  502  503 -0.00000000000E+00 -0.00000000000E+00 -0.81258812220E+03  0.81258812220E+03  0.00000000000E+00 0. -1.
          6    1    1    2  501    0  0.66109230865E+02  0.71057256347E+02 -0.40696721272E+02  0.20164272168E+03  0.17200000000E+03 0. -1.
         -6    1    1    2    0  503 -0.66109230865E+02 -0.71057256347E+02 -0.67731566494E+03  0.70552113650E+03  0.17200000000E+03 0. -1.
</event>
<event>
 4    1  0.5874615E+000  0.2640430E+03  0.7818608E-02  0.1104738E+00
         21   -1    0    0  501  502  0.00000000000E+00  0.00000000000E+00  0.19299979201E+04  0.19299979201E+04  0.00000000000E+00 0.  1.
         21   -1    0    0  502  503 -0.00000000000E+00 -0.00000000000E+00 -0.53127984277E+02  0.53127984277E+02  0.00000000000E+00 0.  1.
          6    1    1    2  501    0  0.15757990710E+03  0.12370638660E+03  0.37746760653E+03  0.46065224540E+03  0.17200000000E+03 0.  1.
         -6    1    1    2    0  503 -0.15757990710E+03 -0.12370638660E+03  0.14994023293E+04  0.15224736589E+04  0.17200000000E+03 0.  1.
</event>
<event>
 4    1  0.5874615E+000  0.1976848E+03  0.7818608E-02  0.1151707E+00
         21   -1    0    0  503  502  0.00000000000E+00  0.00000000000E+00  0.54105684399E+03  0.54105684399E+03  0.00000000000E+00 0.  1.
         21   -1    0    0  501  503 -0.00000000000E+00 -0.00000000000E+00 -0.20317639368E+03  0.20317639368E+03  0.00000000000E+00 0. -1.
          6    1    1    2  501    0  0.86935115079E+02 -0.44017960753E+02 -0.12979952696E+03  0.23648934923E+03  0.17200000000E+03 0. -1.
         -6    1    1    2    0  502 -0.86935115079E+02  0.44017960753E+02  0.46767997727E+03  0.50774388843E+03  0.17200000000E+03 0.  1.
</event>
<event>
 4    1  0.5874615E+000  0.3183570E+03  0.7818608E-02  0.1076408E+00
         21   -1    0    0  501  502  0.00000000000E+00  0.00000000000E+00  0.68239535687E+02  0.68239535687E+02  0.00000000000E+00 0. -1.
         21   -1    0    0  502  503 -0.00000000000E+00 -0.00000000000E+00 -0.14898693898E+04  0.14898693898E+04  0.00000000000E+00 0.  1.
          6    1    1    2  501    0 -0.26416061820E+03  0.44568152026E+02 -0.66732409102E+03  0.73937310935E+03  0.17200000000E+03 0.  1.
         -6    1    1    2    0  503  0.26416061820E+03 -0.44568152026E+02 -0.75430576307E+03  0.81873581611E+03  0.17200000000E+03 0. -1.
</event>
<event>
 4    1  0.5874615E+000  0.2158796E+03  0.7818608E-02  0.1136993E+00
         21   -1    0    0  501  502  0.00000000000E+00  0.00000000000E+00  0.38785058629E+03  0.38785058629E+03  0.00000000000E+00 0. -1.
         21   -1    0    0  502  503 -0.00000000000E+00 -0.00000000000E+00 -0.12020675678E+03  0.12020675678E+03  0.00000000000E+00 0. -1.
          6    1    1    2  501    0  0.97255803388E+02  0.86955799781E+02  0.12879477686E+03  0.25138038300E+03  0.17200000000E+03 0. -1.
         -6    1    1    2    0  503 -0.97255803388E+02 -0.86955799781E+02  0.13884905265E+03  0.25667696007E+03  0.17200000000E+03 0. -1.
</event>
<event>
 4    1  0.5874615E+000  0.2267640E+03  0.7818608E-02  0.1128938E+00
         21   -1    0    0  501  502  0.00000000000E+00  0.00000000000E+00  0.15827553729E+03  0.15827553729E+03  0.00000000000E+00 0.  1.
         21   -1    0    0  502  503 -0.00000000000E+00 -0.00000000000E+00 -0.65214872586E+03  0.65214872586E+03  0.00000000000E+00 0.  1.
          6    1    1    2  501    0 -0.63075644188E+02  0.13363900134E+03  0.40112151014E+02  0.23028439858E+03  0.17200000000E+03 0.  1.
         -6    1    1    2    0  503  0.63075644188E+02 -0.13363900134E+03 -0.53398533959E+03  0.58013986457E+03  0.17200000000E+03 0.  1.
</event>
<event>
 4    1  0.5874615E+000  0.3620282E+03  0.7818608E-02  0.1057784E+00
         21   -1    0    0  501  502  0.00000000000E+00  0.00000000000E+00  0.20165997870E+04  0.20165997870E+04  0.00000000000E+00 0. -1.
         21   -1    0    0  502  503 -0.00000000000E+00 -0.00000000000E+00 -0.29326118067E+03  0.29326118067E+03  0.00000000000E+00 0.  1.
          6    1    1    2  501    0 -0.31478079966E+03  0.48922932567E+02  0.18806159938E+04  0.19151451436E+04  0.17200000000E+03 0. -1.
         -6    1    1    2    0  503  0.31478079966E+03 -0.48922932567E+02 -0.15727738743E+03  0.39471582406E+03  0.17200000000E+03 0.  1.
</event>
<event>
 4    1  0.5874615E+000  0.1783088E+03  0.7818608E-02  0.1169450E+00
         21   -1    0    0  503  502  0.00000000000E+00  0.00000000000E+00  0.36592511858E+03  0.36592511858E+03  0.00000000000E+00 0. -1.
         21   -1    0    0  501  503 -0.00000000000E+00 -0.00000000000E+00 -0.15176829864E+03  0.15176829864E+03  0.00000000000E+00 0. -1.
          6    1    1    2  501    0 -0.45865516462E+02 -0.10314437169E+02 -0.62165410060E+02  0.18883477281E+03  0.17200000000E+03 0. -1.
         -6    1    1    2    0  502  0.45865516462E+02  0.10314437169E+02  0.27632223000E+03  0.32885864442E+03  0.17200000000E+03 0. -1.
</event>
<event>
 4    1  0.5874615E+000  0.1829100E+03  0.7818608E-02  0.1165016E+00
         21   -1    0    0  501  502  0.00000000000E+00  0.00000000000E+00  0.17721926362E+03  0.17721926362E+03  0.00000000000E+00 0.  1.
         21   -1    0    0  502  503 -0.00000000000E+00 -0.00000000000E+00 -0.18933095067E+03  0.18933095067E+03  0.00000000000E+00 0.  1.
          6    1    1    2  501    0 -0.23492214857E+02  0.57621022425E+02  0.37996789077E+01  0.18294945735E+03  0.17200000000E+03 0.  1.
         -6    1    1    2    0  503  0.23492214857E+02 -0.57621022425E+02 -0.15911365964E+02  0.18360075695E+03  0.17200000000E+03 0.  1.
</event>
<event>
 4    1  0.5874615E+000  0.2030728E+03  0.7818608E-02  0.1147172E+00
         21   -1    0    0  501  502  0.00000000000E+00  0.00000000000E+00  0.14877675962E+03  0.14877675962E+03  0.00000000000E+00 0. -1.
         21   -1    0    0  502  503 -0.00000000000E+00 -0.00000000000E+00 -0.28684987489E+03  0.28684987489E+03  0.00000000000E+00 0.  1.
          6    1    1    2  501    0  0.10620859484E+03  0.19346257836E+02 -0.10901968682E+03  0.23048608510E+03  0.17200000000E+03 0. -1.
         -6    1    1    2    0  503 -0.10620859484E+03 -0.19346257836E+02 -0.29053428447E+02  0.20514054941E+03  0.17200000000E+03 0. -1.
</event>
<event>
 4    1  0.5874615E+000  0.1823291E+03  0.7818608E-02  0.1165568E+00
         21   -1    0    0  501  502  0.00000000000E+00  0.00000000000E+00  0.15002423600E+03  0.15002423600E+03  0.00000000000E+00 0.  1.
         21   -1    0    0  502  503 -0.00000000000E+00 -0.00000000000E+00 -0.23087446071E+03  0.23087446071E+03  0.00000000000E+00 0.  1.
          6    1    1    2  501    0 -0.20588808758E+02 -0.56885844029E+02 -0.22337153301E+01  0.18234277551E+03  0.17200000000E+03 0. -1.
         -6    1    1    2    0  503  0.20588808758E+02  0.56885844029E+02 -0.78616509376E+02  0.19855592120E+03  0.17200000000E+03 0. -1.
</event>
<event>
 4    1  0.5874615E+000  0.2237361E+03  0.7818608E-02  0.1131128E+00
         21   -1    0    0  501  502  0.00000000000E+00  0.00000000000E+00  0.17871658702E+03  0.17871658702E+03  0.00000000000E+00 0.  1.
         21   -1    0    0  502  503 -0.00000000000E+00 -0.00000000000E+00 -0.28178427202E+03  0.28178427202E+03  0.00000000000E+00 0. -1.
          6    1    1    2  501    0  0.73594607626E+01  0.14289738968E+03 -0.33712284540E+02  0.22626167101E+03  0.17200000000E+03 0.  1.
         -6    1    1    2    0  503 -0.73594607626E+01 -0.14289738968E+03 -0.69355400460E+02  0.23423918804E+03  0.17200000000E+03 0. -1.
</event>
<event>
 4    1  0.5874615E+000  0.2485769E+03  0.7818608E-02  0.1114207E+00
         21   -1    0    0  503  502  0.00000000000E+00  0.00000000000E+00  0.81686835263E+02  0.81686835263E+02  0.00000000000E+00 0. -1.
         21   -1    0    0  501  503 -0.00000000000E+00 -0.00000000000E+00 -0.99425057528E+03  0.99425057528E+03  0.00000000000E+00 0.  1.
          6    1    1    2  501    0  0.12956498315E+03 -0.12417491089E+03 -0.71938890004E+03  0.76112474855E+03  0.17200000000E+03 0.  1.
         -6    1    1    2    0  502 -0.12956498315E+03  0.12417491089E+03 -0.19317483998E+03  0.31481266200E+03  0.17200000000E+03 0. -1.
</event>
<event>
 4    1  0.5874615E+000  0.1941773E+03  0.7818608E-02  0.1154747E+00
         21   -1    0    0  503  502  0.00000000000E+00  0.00000000000E+00  0.84832466570E+03  0.84832466570E+03  0.00000000000E+00 0.  1.
         21   -1    0    0  501  503 -0.00000000000E+00 -0.00000000000E+00 -0.47409092524E+02  0.47409092524E+02  0.00000000000E+00 0.  1.
          6    1    1    2  501    0 -0.68381794425E+02 -0.58692127197E+02  0.28849500783E+03  0.34775595630E+03  0.17200000000E+03 0.  1.
         -6    1    1    2    0  502  0.68381794425E+02  0.58692127197E+02  0.51242056535E+03  0.54797780192E+03  0.17200000000E+03 0.  1.
</event>
<event>
 4    1  0.5874615E+000  0.4332250E+03  0.7818608E-02  0.1032846E+00
         21   -1    0    0  501  502  0.00000000000E+00  0.00000000000E+00  0.86593217478E+03  0.86593217478E+03  0.00000000000E+00 0.  1.
         21   -1    0    0  502  503 -0.00000000000E+00 -0.00000000000E+00 -0.35932580110E+03  0.35932580110E+03  0.00000000000E+00 0. -1.
          6    1    1    2  501    0  0.34678548561E+03  0.19452440174E+03  0.63921525261E+03  0.77219172170E+03  0.17200000000E+03 0.  1.
         -6    1    1    2    0  503 -0.34678548561E+03 -0.19452440174E+03 -0.13260887892E+03  0.45306625417E+03  0.17200000000E+03 0. -1.
</event>
<event>
 4    1  0.5874615E+000  0.2214994E+03  0.7818608E-02  0.1132770E+00
         21   -1    0    0  501  502  0.00000000000E+00  0.00000000000E+00  0.12694478950E+03  0.12694478950E+03  0.00000000000E+00 0.  1.
         21   -1    0    0  502  503 -0.00000000000E+00 -0.00000000000E+00 -0.68425661102E+03  0.68425661102E+03  0.00000000000E+00 0.  1.
          6    1    1    2  501    0  0.13036970095E+02  0.13895327603E+03 -0.11088967483E+02  0.22177678127E+03  0.17200000000E+03 0.  1.
         -6    1    1    2    0  503 -0.13036970095E+02 -0.13895327603E+03 -0.54622285404E+03  0.58942461926E+03  0.17200000000E+03 0.  1.
</event>
<event>
 4    1  0.5874615E+000  0.1990447E+03  0.7818608E-02  0.1150548E+00
         21   -1    0    0  501  502  0.00000000000E+00  0.00000000000E+00  0.49701172680E+02  0.49701172680E+02  0.00000000000E+00 0. -1.
         21   -1    0    0  502  503 -0.00000000000E+00 -0.00000000000E+00 -0.81302807820E+03  0.81302807820E+03  0.00000000000E+00 0. -1.
          6    1    1    2  501    0  0.49281976295E+02 -0.87212763230E+02 -0.32136152989E+03  0.37801059794E+03  0.17200000000E+03 0. -1.
         -6    1    1    2    0  503 -0.49281976295E+02  0.87212763230E+02 -0.44196537563E+03  0.48471865294E+03  0.17200000000E+03 0. -1.
</event>
<event>
 4    1  0.5874615E+000  0.1842568E+03  0.7818608E-02  0.1163746E+00
         21   -1    0    0  503  502  0.00000000000E+00  0.00000000000E+00  0.10899450299E+03  0.10899450299E+03  0.00000000000E+00 0. -1.
         21   -1    0    0  501  503 -0.00000000000E+00 -0.00000000000E+00 -0.43028301230E+03  0.43028301230E+03  0.00000000000E+00 0. -1.
          6    1    1    2  501    0  0.35308391435E+02 -0.55856041542E+02 -0.30232232769E+03  0.35404712921E+03  0.17200000000E+03 0. -1.
         -6    1    1    2    0  502 -0.35308391435E+02  0.55856041542E+02 -0.18966181617E+02  0.18523038608E+03  0.17200000000E+03 0. -1.
</event>
<event>
 4    1  0.5874615E+000  0.1906028E+03  0.7818608E-02  0.1157919E+00
         21   -1    0    0  501  502  0.00000000000E+00  0.00000000000E+00  0.95788293850E+02  0.95788293850E+02  0.00000000000E+00 0. -1.
         21   -1    0    0  502  503 -0.00000000000E+00 -0.00000000000E+00 -0.87792996514E+03  0.87792996514E+03  0.00000000000E+00 0.  1.
          6    1    1    2  501    0  0.20198270512E+02 -0.79608046033E+02 -0.24146420248E+02  0.19212615838E+03  0.17200000000E+03 0. -1.
         -6    1    1    2    0  503 -0.20198270512E+02  0.79608046033E+02 -0.75799525104E+03  0.78159210060E+03  0.17200000000E+03 0.  1.
</event>
<event>
 4    1  0.5874615E+000  0.1796291E+03  0.7818608E-02  0.1168163E+00
         21   -1    0    0  501  502  0.00000000000E+00  0.00000000000E+00  0.35321634978E+02  0.35321634978E+02  0.00000000000E+00 0.  1.
         21   -1    0    0  502  503 -0.00000000000E+00 -0.00000000000E+00 -0.11372936993E+04  0.11372936993E+04  0.00000000000E+00 0.  1.
          6    1    1    2  501    0  0.83571052563E+01 -0.51115130855E+02 -0.29090697883E+03  0.34189686770E+03  0.17200000000E+03 0.  1.
         -6    1    1    2    0  503 -0.83571052563E+01  0.51115130855E+02 -0.81106508553E+03  0.83071846662E+03  0.17200000000E+03 0.  1.
</event>
<event>
 4    1  0.5874615E+000  0.1741190E+03  0.7818608E-02  0.1173619E+00
         21   -1    0    0  501  502  0.00000000000E+00  0.00000000000E+00  0.32545319598E+03  0.32545319598E+03  0.00000000000E+00 0.  1.
         21   -1    0    0  502  503 -0.00000000000E+00 -0.00000000000E+00 -0.47193417154E+03  0.47193417154E+03  0.00000000000E+00 0.  1.
          6    1    1    2  501    0 -0.11978425312E+02 -0.24288920064E+02  0.28394348769E+03  0.33307857708E+03  0.17200000000E+03 0.  1.
         -6    1    1    2    0  503  0.11978425312E+02  0.24288920064E+02 -0.43042446325E+03  0.46430879044E+03  0.17200000000E+03 0.  1.
</event>
<event>
 4    1  0.5874615E+000  0.1835032E+03  0.7818608E-02  0.1164455E+00
         21   -1    0    0  503  502  0.00000000000E+00  0.00000000000E+00  0.38132323153E+03  0.38132323153E+03  0.00000000000E+00 0. -1.
         21   -1    0    0  501  503 -0.00000000000E+00 -0.00000000000E+00 -0.91010997678E+02  0.91010997678E+02  0.00000000000E+00 0. -1.
          6    1    1    2  501    0 -0.27954822703E+02  0.57514713660E+02  0.10444660428E+03  0.21114570217E+03  0.17200000000E+03 0. -1.
         -6    1    1    2    0  502  0.27954822703E+02 -0.57514713660E+02  0.18586562957E+03  0.26118852704E+03  0.17200000000E+03 0. -1.
</event>
<event>
 4    1  0.5874615E+000  0.2276721E+03  0.7818608E-02  0.1128289E+00
         21   -1    0    0  501  502  0.00000000000E+00  0.00000000000E+00  0.88144849588E+02  0.88144849588E+02  0.00000000000E+00 0. -1.
         21   -1    0    0  502  503 -0.00000000000E+00 -0.00000000000E+00 -0.65427400209E+03  0.65427400209E+03  0.00000000000E+00 0.  1.
          6    1    1    2  501    0  0.59329591514E+02  0.13685974871E+03 -0.16497564048E+03  0.28116108052E+03  0.17200000000E+03 0. -1.
         -6    1    1    2    0  503 -0.59329591514E+02 -0.13685974871E+03 -0.40115351203E+03  0.46125777116E+03  0.17200000000E+03 0.  1.
</event>
<event>
 4    1  0.5874615E+000  0.1741119E+03  0.7818608E-02  0.1173626E+00
         21   -1    0    0  503  502  0.00000000000E+00  0.00000000000E+00  0.76364417582E+03  0.76364417582E+03  0.00000000000E+00 0. -1.
         21   -1    0    0  501  503 -0.00000000000E+00 -0.00000000000E+00 -0.52466409217E+02  0.52466409217E+02  0.00000000000E+00 0. -1.
          6    1    1    2  501    0 -0.27035827848E+02  0.28080426529E-01  0.15428534393E+03  0.23263470104E+03  0.17200000000E+03 0. -1.
         -6    1    1    2    0  502  0.27035827848E+02 -0.28080426529E-01  0.55689242267E+03  0.58347588400E+03  0.17200000000E+03 0. -1.
</event>
<event>
 4    1  0.5874615E+000  0.3725204E+03  0.7818608E-02  0.1053733E+00
         21   -1    0    0  503  502  0.00000000000E+00  0.00000000000E+00  0.18915716804E+03  0.18915716804E+03  0.00000000000E+00 0. -1.
         21   -1    0    0  501  503 -0.00000000000E+00 -0.00000000000E+00 -0.73493152260E+03  0.73493152260E+03  0.00000000000E+00 0.  1.
          6    1    1    2  501    0  0.14340748832E+03 -0.29769399427E+03 -0.25344508113E+03  0.45056168399E+03  0.17200000000E+03 0. -1.
         -6    1    1    2    0  502 -0.14340748832E+03  0.29769399427E+03 -0.29232927342E+03  0.47352700665E+03  0.17200000000E+03 0.  1.
</event>
<event>
 4    1  0.5874615E+000  0.2089380E+03  0.7818608E-02  0.1142410E+00
         21   -1    0    0  501  502  0.00000000000E+00  0.00000000000E+00  0.76216334033E+03  0.76216334033E+03  0.00000000000E+00 0. -1.
         21   -1    0    0  502  503 -0.00000000000E+00 -0.00000000000E+00 -0.91261042776E+02  0.91261042776E+02  0.00000000000E+00 0.  1.
          6    1    1    2  501    0 -0.10546605503E+03  0.54295626814E+02  0.59584109161E+03  0.63141247241E+03  0.17200000000E+03 0. -1.
         -6    1    1    2    0  503  0.10546605503E+03 -0.54295626814E+02  0.75061205936E+02  0.22201191070E+03  0.17200000000E+03 0.  1.
</event>
<event>
 4    1  0.5874615E+000  0.1803607E+03  0.7818608E-02  0.1167454E+00
         21   -1    0    0  503  502  0.00000000000E+00  0.00000000000E+00  0.11456806379E+04  0.11456806379E+04  0.00000000000E+00 0.  1.
         21   -1    0    0  501  503 -0.00000000000E+00 -0.00000000000E+00 -0.41232571454E+02  0.41232571454E+02  0.00000000000E+00 0.  1.
          6    1    1    2  501    0  0.22605128839E+02  0.49345565826E+02  0.22106684634E+03  0.28530777638E+03  0.17200000000E+03 0.  1.
         -6    1    1    2    0  502 -0.22605128839E+02 -0.49345565826E+02  0.88338122012E+03  0.90160543298E+03  0.17200000000E+03 0.  1.
</event>
<event>
 4    1  0.5874615E+000  0.2909971E+03  0.7818608E-02  0.1089830E+00
         21   -1    0    0  501  502  0.00000000000E+00  0.00000000000E+00  0.16618102099E+03  0.16618102099E+03  0.00000000000E+00 0.  1.
         21   -1    0    0  502  503 -0.00000000000E+00 -0.00000000000E+00 -0.55152818259E+03  0.55152818259E+03  0.00000000000E+00 0. -1.
          6    1    1    2  501    0 -0.12203025216E+03  0.20050911699E+03 -0.93683420895E+02  0.30570553117E+03  0.17200000000E+03 0. -1.
         -6    1    1    2    0  503  0.12203025216E+03 -0.20050911699E+03 -0.29166374070E+03  0.41200367241E+03  0.17200000000E+03 0. -1.
</event>
<event>
 4    1  0.5874615E+000  0.1830423E+03  0.7818608E-02  0.1164891E+00
         21   -1    0    0  501  502  0.00000000000E+00  0.00000000000E+00  0.24790869931E+02  0.24790869931E+02  0.00000000000E+00 0. -1.
         21   -1    0    0  502  503 -0.00000000000E+00 -0.00000000000E+00 -0.14567602613E+04  0.14567602613E+04  0.00000000000E+00 0. -1.
          6    1    1    2  501    0  0.21878123603E+02 -0.58667134889E+02 -0.51684580237E+03  0.54830107463E+03  0.17200000000E+03 0. -1.
         -6    1    1    2    0  503 -0.21878123603E+02  0.58667134889E+02 -0.91512358896E+03  0.93325005656E+03  0.17200000000E+03 0. -1.
</event>
<event>
 4    1  0.5874615E+000  0.2409641E+03  0.7818608E-02  0.1119152E+00
         21   -1    0    0  501  502  0.00000000000E+00  0.00000000000E+00  0.28456255861E+03  0.28456255861E+03  0.00000000000E+00 0.  1.
         21   -1    0    0  502  503 -0.00000000000E+00 -0.00000000000E+00 -0.21326809736E+03  0.21326809736E+03  0.00000000000E+00 0. -1.
          6    1    1    2  501    0  0.11875498150E+03  0.11990401990E+03  0.87409640240E+02  0.25632823650E+03  0.17200000000E+03 0.  1.
         -6    1    1    2    0  503 -0.11875498150E+03 -0.11990401990E+03 -0.16115178992E+02  0.24150241948E+03  0.17200000000E+03 0. -1.
</event>
<event>
 4    1  0.5874615E+000  0.2091912E+03  0.7818608E-02  0.1142208E+00
         21   -1    0    0  501  502  0.00000000000E+00  0.00000000000E+00  0.35181633065E+02  0.35181633065E+02  0.00000000000E+00 0. -1.
         21   -1    0    0  502  503 -0.00000000000E+00 -0.00000000000E+00 -0.13586540626E+04  0.13586540626E+04  0.00000000000E+00 0.  1.
          6    1    1    2  501    0 -0.11359503134E+03 -0.35681168926E+02 -0.45915951288E+03  0.50456757251E+03  0.17200000000E+03 0. -1.
         -6    1    1    2    0  503  0.11359503134E+03  0.35681168926E+02 -0.86431291665E+03  0.88926812315E+03  0.17200000000E+03 0.  1.
</event>
<event>
 4    1  0.5874615E+000  0.1994933E+03  0.7818608E-02  0.1150167E+00
         21   -1    0    0  501  502  0.00000000000E+00  0.00000000000E+00  0.88486079383E+03  0.88486079383E+03  0.00000000000E+00 0.  1.
         21   -1    0    0  502  503 -0.00000000000E+00 -0.00000000000E+00 -0.46559578604E+02  0.46559578604E+02  0.00000000000E+00 0.  1.
          6    1    1    2  501    0  0.88740769649E+02 -0.48359629158E+02  0.33326531353E+03  0.38841131179E+03  0.17200000000E+03 0.  1.
         -6    1    1    2    0  503 -0.88740769649E+02  0.48359629158E+02  0.50503590170E+03  0.54300906064E+03  0.17200000000E+03 0.  1.
</event>
<event>
 4    1  0.5874615E+000  0.1802368E+03  0.7818608E-02  0.1167574E+00
         21   -1    0    0  501  502  0.00000000000E+00  0.00000000000E+00  0.14298834994E+03  0.14298834994E+03  0.00000000000E+00 0.  1.
         21   -1    0    0  502  503 -0.00000000000E+00 -0.00000000000E+00 -0.37582133367E+03  0.37582133367E+03  0.00000000000E+00 0.  1.
          6    1    1    2  501    0  0.53826098151E+02  0.20130393012E+01  0.46717633727E+02  0.18619301402E+03  0.17200000000E+03 0.  1.
         -6    1    1    2    0  503 -0.53826098151E+02 -0.20130393012E+01 -0.27955061745E+03  0.33261666959E+03  0.17200000000E+03 0.  1.
</event>
<event>
 4    1  0.5874615E+000  0.2073909E+03  0.7818608E-02  0.1143649E+00
         21   -1    0    0  503  502  0.00000000000E+00  0.00000000000E+00  0.19059815231E+03  0.19059815231E+03  0.00000000000E+00 0.  1.
         21   -1    0    0  501  503 -0.00000000000E+00 -0.00000000000E+00 -0.22575339040E+03  0.22575339040E+03  0.00000000000E+00 0.  1.
          6    1    1    2  501    0  0.80742699595E+02 -0.83111928980E+02 -0.21740111041E+02  0.20852723732E+03  0.17200000000E+03 0.  1.
         -6    1    1    2    0  502 -0.80742699595E+02  0.83111928980E+02 -0.13415127040E+02  0.20782430539E+03  0.17200000000E+03 0.  1.
</event>
<event>
 4    1  0.5874615E+000  0.2039480E+03  0.7818608E-02  0.1146450E+00
         21   -1    0    0  501  502  0.00000000000E+00  0.00000000000E+00  0.97692267178E+02  0.97692267178E+02  0.00000000000E+00 0. -1.
         21   -1    0    0  502  503 -0.00000000000E+00 -0.00000000000E+00 -0.65343485806E+03  0.65343485806E+03  0.00000000000E+00 0. -1.
          6    1    1    2  501    0 -0.60524730494E+02  0.91364999605E+02 -0.56191203882E+02  0.21154729388E+03  0.17200000000E+03 0. -1.
         -6    1    1    2    0  503  0.60524730494E+02 -0.91364999605E+02 -0.49955138700E+03  0.53957983136E+03  0.17200000000E+03 0. -1.
</event>
<event>
 4    1  0.5874615E+000  0.1736873E+03  0.7818608E-02  0.1174056E+00
         21   -1    0    0  501  502  0.00000000000E+00  0.00000000000E+00  0.41011588434E+02  0.41011588434E+02  0.00000000000E+00 0. -1.
         21   -1    0    0  502  503 -0.00000000000E+00 -0.00000000000E+00 -0.74333539447E+03  0.74333539447E+03  0.00000000000E+00 0. -1.
          6    1    1    2  501    0  0.22246831490E+01  0.24048828076E+02 -0.31110348145E+03  0.35630418397E+03  0.17200000000E+03 0.  1.
         -6    1    1    2    0  503 -0.22246831490E+01 -0.24048828076E+02 -0.39122032459E+03  0.42804279893E+03  0.17200000000E+03 0.  1.
</event>
<event>
 4    1  0.5874615E+000  0.1771705E+03  0.7818608E-02  0.1170570E+00
         21   -1    0    0  503  502  0.00000000000E+00  0.00000000000E+00  0.15892939363E+03  0.15892939363E+03  0.00000000000E+00 0. -1.
         21   -1    0    0  501  503 -0.00000000000E+00 -0.00000000000E+00 -0.25618277918E+03  0.25618277918E+03  0.00000000000E+00 0. -1.
          6    1    1    2  501    0 -0.34291027457E+02  0.25090298158E+02 -0.14796030518E+03  0.23082818185E+03  0.17200000000E+03 0. -1.
         -6    1    1    2    0  502  0.34291027457E+02 -0.25090298158E+02  0.50706919631E+02  0.18428399096E+03  0.17200000000E+03 0. -1.
</event>
<event>
 4    1  0.5874615E+000  0.1759842E+03  0.7818608E-02  0.1171747E+00
         21   -1    0    0  501  502  0.00000000000E+00  0.00000000000E+00  0.32100937730E+02  0.32100937730E+02  0.00000000000E+00 0. -1.
         21   -1    0    0  502  503 -0.00000000000E+00 -0.00000000000E+00 -0.11052330586E+04  0.11052330586E+04  0.00000000000E+00 0. -1.
          6    1    1    2  501    0  0.14009101144E+02 -0.34498980579E+02 -0.33384808150E+03  0.37739233709E+03  0.17200000000E+03 0. -1.
         -6    1    1    2    0  503 -0.14009101144E+02  0.34498980579E+02 -0.73928403938E+03  0.75994165924E+03  0.17200000000E+03 0. -1.
</event>
<event>
 4    1  0.5874615E+000  0.2329824E+03  0.7818608E-02  0.1124558E+00
         21   -1    0    0  501  502  0.00000000000E+00  0.00000000000E+00  0.40680273236E+03  0.40680273236E+03  0.00000000000E+00 0.  1.
         21   -1    0    0  502  503 -0.00000000000E+00 -0.00000000000E+00 -0.37472344745E+03  0.37472344745E+03  0.00000000000E+00 0.  1.
          6    1    1    2  501    0  0.92602673872E+02 -0.12697055687E+03  0.32960527414E+03  0.40363401029E+03  0.17200000000E+03 0.  1.
         -6    1    1    2    0  503 -0.92602673872E+02  0.12697055687E+03 -0.29752598923E+03  0.37789216953E+03  0.17200000000E+03 0.  1.
</event>
<event>
 4    1  0.5874615E+000  0.2121644E+03  0.7818608E-02  0.1139863E+00
         21   -1    0    0  501  502  0.00000000000E+00  0.00000000000E+00  0.53082090985E+02  0.53082090985E+02  0.00000000000E+00 0. -1.
         21   -1    0    0  502  503 -0.00000000000E+00 -0.00000000000E+00 -0.98094082534E+03  0.98094082534E+03  0.00000000000E+00 0.  1.
          6    1    1    2  501    0 -0.93056261723E+02 -0.82281584384E+02 -0.27360059485E+03  0.34622393401E+03  0.17200000000E+03 0. -1.
         -6    1    1    2    0  503  0.93056261723E+02  0.82281584384E+02 -0.65425813950E+03  0.68779898232E+03  0.17200000000E+03 0.  1.
</event>
<event>
 4    1  0.5874615E+000  0.2090732E+03  0.7818608E-02  0.1142302E+00
         21   -1    0    0  501  502  0.00000000000E+00  0.00000000000E+00  0.94677264327E+03  0.94677264327E+03  0.00000000000E+00 0. -1.
         21   -1    0    0  502  503 -0.00000000000E+00 -0.00000000000E+00 -0.47418432196E+02  0.47418432196E+02  0.00000000000E+00 0. -1.
          6    1    1    2  501    0  0.83423254551E+02 -0.84664931871E+02  0.53036614637E+03  0.57008757161E+03  0.17200000000E+03 0.  1.
         -6    1    1    2    0  503 -0.83423254551E+02  0.84664931871E+02  0.36898806471E+03  0.42410350386E+03  0.17200000000E+03 0.  1.
</event>
<event>
 4    1  0.5874615E+000  0.2248110E+03  0.7818608E-02  0.1130346E+00
         21   -1    0    0  503  502  0.00000000000E+00  0.00000000000E+00  0.12246208209E+04  0.12246208209E+04  0.00000000000E+00 0. -1.
         21   -1    0    0  501  503 -0.00000000000E+00 -0.00000000000E+00 -0.49445573902E+02  0.49445573902E+02  0.00000000000E+00 0. -1.
          6    1    1    2  501    0  0.13679180075E+03  0.47370752380E+02  0.32855169707E+03  0.39810325618E+03  0.17200000000E+03 0. -1.
         -6    1    1    2    0  502 -0.13679180075E+03 -0.47370752380E+02  0.84662354996E+03  0.87596313865E+03  0.17200000000E+03 0. -1.
</event>
<event>
 4    1  0.5874615E+000  0.1838778E+03  0.7818608E-02  0.1164102E+00
         21   -1    0    0  501  502  0.00000000000E+00  0.00000000000E+00  0.34922162400E+03  0.34922162400E+03  0.00000000000E+00 0. -1.
         21   -1    0    0  502  503 -0.00000000000E+00 -0.00000000000E+00 -0.97096069081E+02  0.97096069081E+02  0.00000000000E+00 0. -1.
          6    1    1    2  501    0  0.64791585096E+02 -0.53942078712E+01  0.11412706146E+03  0.21641634212E+03  0.17200000000E+03 0. -1.
         -6    1    1    2    0  503 -0.64791585096E+02  0.53942078712E+01  0.13799849346E+03  0.22990135096E+03  0.17200000000E+03 0. -1.
</event>
<event>
 4    1  0.5874615E+000  0.1921263E+03  0.7818608E-02  0.1156557E+00
         21   -1    0    0  501  502  0.00000000000E+00  0.00000000000E+00  0.20680248471E+02  0.20680248471E+02  0.00000000000E+00 0. -1.
         21   -1    0    0  502  503 -0.00000000000E+00 -0.00000000000E+00 -0.21422032723E+04  0.21422032723E+04  0.00000000000E+00 0. -1.
          6    1    1    2  501    0 -0.34192390333E+01  0.85538501510E+02 -0.61910872000E+03  0.64823462852E+03  0.17200000000E+03 0. -1.
         -6    1    1    2    0  503  0.34192390333E+01 -0.85538501510E+02 -0.15024143038E+04  0.15146488923E+04  0.17200000000E+03 0. -1.
</event>
<event>
 4    1  0.5874615E+000  0.3152844E+03  0.7818608E-02  0.1077840E+00
         21   -1    0    0  503  502  0.00000000000E+00  0.00000000000E+00  0.10521254815E+03  0.10521254815E+03  0.00000000000E+00 0.  1.
         21   -1    0    0  501  503 -0.00000000000E+00 -0.00000000000E+00 -0.11155864334E+04  0.11155864334E+04  0.00000000000E+00 0. -1.
          6    1    1    2  501    0  0.21472427140E+03 -0.15399261633E+03 -0.74402097241E+03  0.80806648612E+03  0.17200000000E+03 0. -1.
         -6    1    1    2    0  502 -0.21472427140E+03  0.15399261633E+03 -0.26635291288E+03  0.41273249546E+03  0.17200000000E+03 0.  1.
</event>
<event>
 4    1  0.5874615E+000  0.2701184E+03  0.7818608E-02  0.1101212E+00
         21   -1    0    0  503  502  0.00000000000E+00  0.00000000000E+00  0.32286592349E+03  0.32286592349E+03  0.00000000000E+00 0. -1.
         21   -1    0    0  501  503 -0.00000000000E+00 -0.00000000000E+00 -0.29424016917E+03  0.29424016917E+03  0.00000000000E+00 0. -1.
          6    1    1    2  501    0  0.10767443019E+03  0.17828678158E+03  0.16291867574E+03  0.31544643651E+03  0.17200000000E+03 0. -1.
         -6    1    1    2    0  502 -0.10767443019E+03 -0.17828678158E+03 -0.13429292142E+03  0.30165965615E+03  0.17200000000E+03 0. -1.
</event>
<event>
 4    1  0.5874615E+000  0.1737103E+03  0.7818608E-02  0.1174033E+00
         21   -1    0    0  503  502  0.00000000000E+00  0.00000000000E+00  0.13072313441E+03  0.13072313441E+03  0.00000000000E+00 0.  1.
         21   -1    0    0  501  503 -0.00000000000E+00 -0.00000000000E+00 -0.26698460439E+03  0.26698460439E+03  0.00000000000E+00 0.  1.
          6    1    1    2  501    0  0.17485212625E+02  0.16897825268E+02  0.50424834521E+01  0.17378347389E+03  0.17200000000E+03 0.  1.
         -6    1    1    2    0  502 -0.17485212625E+02 -0.16897825268E+02 -0.14130395343E+03  0.22392426491E+03  0.17200000000E+03 0.  1.
</event>
<event>
 4    1  0.5874615E+000  0.2079561E+03  0.7818608E-02  0.1143195E+00
         21   -1    0    0  501  502  0.00000000000E+00  0.00000000000E+00  0.36699864604E+03  0.36699864604E+03  0.00000000000E+00 0.  1.
         21   -1    0    0  502  503 -0.00000000000E+00 -0.00000000000E+00 -0.12098928701E+03  0.12098928701E+03  0.00000000000E+00 0. -1.
          6    1    1    2  501    0  0.26602747877E+02 -0.11381580700E+03  0.16239324635E+03  0.26385092491E+03  0.17200000000E+03 0.  1.
         -6    1    1    2    0  503 -0.26602747877E+02  0.11381580700E+03  0.83616112682E+02  0.22413700814E+03  0.17200000000E+03 0.  1.
</event>
<event>
 4    1  0.5874615E+000  0.2079487E+03  0.7818608E-02  0.1143201E+00
         21   -1    0    0  501  502  0.00000000000E+00  0.00000000000E+00  0.19703546347E+03  0.19703546347E+03  0.00000000000E+00 0. -1.
         21   -1    0    0  502  503 -0.00000000000E+00 -0.00000000000E+00 -0.24905738408E+03  0.24905738408E+03  0.00000000000E+00 0. -1.
          6    1    1    2  501    0 -0.11322554021E+03 -0.28959108385E+02  0.50871215269E+02  0.21408067045E+03  0.17200000000E+03 0. -1.
         -6    1    1    2    0  503  0.11322554021E+03  0.28959108385E+02 -0.10289313588E+03  0.23201217711E+03  0.17200000000E+03 0. -1.
</event>
<event>
 4    1  0.5874615E+000  0.2826060E+03  0.7818608E-02  0.1094274E+00
         21   -1    0    0  501  502  0.00000000000E+00  0.00000000000E+00  0.18782770946E+03  0.18782770946E+03  0.00000000000E+00 0. -1.
         21   -1    0    0  502  503 -0.00000000000E+00 -0.00000000000E+00 -0.50795650598E+03  0.50795650598E+03  0.00000000000E+00 0.  1.
          6    1    1    2  501    0  0.21453210158E+02 -0.22320820615E+03 -0.30047736593E+03  0.41249580720E+03  0.17200000000E+03 0. -1.
         -6    1    1    2    0  503 -0.21453210158E+02  0.22320820615E+03 -0.19651430593E+02  0.28328840824E+03  0.17200000000E+03 0. -1.
</event>
<event>
 4    1  0.5874615E+000  0.2007864E+03  0.7818608E-02  0.1149077E+00
         21   -1    0    0  503  502  0.00000000000E+00  0.00000000000E+00  0.10487797750E+04  0.10487797750E+04  0.00000000000E+00 0. -1.
         21   -1    0    0  501  503 -0.00000000000E+00 -0.00000000000E+00 -0.46235729364E+02  0.46235729364E+02  0.00000000000E+00 0.  1.
          6    1    1    2  501    0  0.25642917206E+02  0.10036745833E+03  0.27645594480E+03  0.34167685802E+03  0.17200000000E+03 0.  1.
         -6    1    1    2    0  502 -0.25642917206E+02 -0.10036745833E+03  0.72608810086E+03  0.75333864636E+03  0.17200000000E+03 0. -1.
</event>
<event>
 4    1  0.5874615E+000  0.1727464E+03  0.7818608E-02  0.1175014E+00
         21   -1    0    0  503  502  0.00000000000E+00  0.00000000000E+00  0.17052368674E+03  0.17052368674E+03  0.00000000000E+00 0. -1.
         21   -1    0    0  501  503 -0.00000000000E+00 -0.00000000000E+00 -0.19761866206E+03  0.19761866206E+03  0.00000000000E+00 0. -1.
          6    1    1    2  501    0  0.70039009639E+00  0.16026068581E+02 -0.75823853788E+02  0.18865466393E+03  0.17200000000E+03 0. -1.
         -6    1    1    2    0  502 -0.70039009639E+00 -0.16026068581E+02  0.48728878474E+02  0.17948768486E+03  0.17200000000E+03 0. -1.
</event>
<event>
 4    1  0.5874615E+000  0.1758201E+03  0.7818608E-02  0.1171911E+00
         21   -1    0    0  503  502  0.00000000000E+00  0.00000000000E+00  0.30244158540E+03  0.30244158540E+03  0.00000000000E+00 0.  1.
         21   -1    0    0  501  503 -0.00000000000E+00 -0.00000000000E+00 -0.12551285991E+03  0.12551285991E+03  0.00000000000E+00 0.  1.
          6    1    1    2  501    0 -0.33662365125E+02  0.13983649586E+02 -0.37340925135E+01  0.17585971889E+03  0.17200000000E+03 0.  1.
         -6    1    1    2    0  502  0.33662365125E+02 -0.13983649586E+02  0.18066281801E+03  0.25209472643E+03  0.17200000000E+03 0.  1.
</event>
<event>
 4    1  0.5874615E+000  0.1735844E+03  0.7818608E-02  0.1174161E+00
         21   -1    0    0  501  502  0.00000000000E+00  0.00000000000E+00  0.52647012508E+02  0.52647012508E+02  0.00000000000E+00 0.  1.
         21   -1    0    0  502  503 -0.00000000000E+00 -0.00000000000E+00 -0.68902711716E+03  0.68902711716E+03  0.00000000000E+00 0.  1.
          6    1    1    2  501    0 -0.23333767876E+02  0.17590458301E+01 -0.16557698937E+03  0.23989017982E+03  0.17200000000E+03 0. -1.
         -6    1    1    2    0  503  0.23333767876E+02 -0.17590458301E+01 -0.47080311528E+03  0.50178394985E+03  0.17200000000E+03 0. -1.
</event>
<event>
 4    1  0.5874615E+000  0.2468307E+03  0.7818608E-02  0.1115324E+00
         21   -1    0    0  503  502  0.00000000000E+00  0.00000000000E+00  0.93191647325E+02  0.93191647325E+02  0.00000000000E+00 0. -1.
         21   -1    0    0  501  503 -0.00000000000E+00 -0.00000000000E+00 -0.89419561434E+03  0.89419561434E+03  0.00000000000E+00 0.  1.
          6    1    1    2  501    0 -0.17114510908E+03  0.45285210259E+02 -0.65649994946E+03  0.70136836417E+03  0.17200000000E+03 0.  1.
         -6    1    1    2    0  502  0.17114510908E+03 -0.45285210259E+02 -0.14450401756E+03  0.28601889749E+03  0.17200000000E+03 0. -1.
</event>
<event>
 4    1  0.5874615E+000  0.2084030E+03  0.7818608E-02  0.1142837E+00
         21   -1    0    0  503  502  0.00000000000E+00  0.00000000000E+00  0.55792160711E+02  0.55792160711E+02  0.00000000000E+00 0. -1.
         21   -1    0    0  501  503 -0.00000000000E+00 -0.00000000000E+00 -0.15020279288E+04  0.15020279288E+04  0.00000000000E+00 0. -1.
          6    1    1    2  501    0  0.62373460596E+02  0.99786572678E+02 -0.12637337637E+04  0.12808024181E+04  0.17200000000E+03 0. -1.
         -6    1    1    2    0  502 -0.62373460596E+02 -0.99786572678E+02 -0.18250200439E+03  0.27701767143E+03  0.17200000000E+03 0. -1.
</event>
<event>
 4    1  0.5874615E+000  0.2374234E+03  0.7818608E-02  0.1121521E+00
         21   -1    0    0  501  502  0.00000000000E+00  0.00000000000E+00  0.19831421697E+03  0.19831421697E+03  0.00000000000E+00 0.  1.
         21   -1    0    0  502  503 -0.00000000000E+00 -0.00000000000E+00 -0.30030388796E+03  0.30030388796E+03  0.00000000000E+00 0.  1.
          6    1    1    2  501    0 -0.15386164036E+03 -0.55789539225E+02  0.66568126981E+01  0.23751671566E+03  0.17200000000E+03 0.  1.
         -6    1    1    2    0  503  0.15386164036E+03  0.55789539225E+02 -0.10864648369E+03  0.26110138927E+03  0.17200000000E+03 0.  1.
</event>
<event>
 4    1  0.5874615E+000  0.2137261E+03  0.7818608E-02  0.1138649E+00
         21   -1    0    0  503  502  0.00000000000E+00  0.00000000000E+00  0.41918112196E+03  0.41918112196E+03  0.00000000000E+00 0.  1.
         21   -1    0    0  501  503 -0.00000000000E+00 -0.00000000000E+00 -0.12711707003E+03  0.12711707003E+03  0.00000000000E+00 0.  1.
          6    1    1    2  501    0  0.11658954108E+03 -0.50017174578E+02  0.42831501406E+02  0.21797563248E+03  0.17200000000E+03 0.  1.
         -6    1    1    2    0  502 -0.11658954108E+03  0.50017174578E+02  0.24923255053E+03  0.32832255951E+03  0.17200000000E+03 0.  1.
</event>
<event>
 4    1  0.5874615E+000  0.2237747E+03  0.7818608E-02  0.1131100E+00
         21   -1    0    0  501  502  0.00000000000E+00  0.00000000000E+00  0.14251517911E+03  0.14251517911E+03  0.00000000000E+00 0.  1.
         21   -1    0    0  502  503 -0.00000000000E+00 -0.00000000000E+00 -0.35138257527E+03  0.35138257527E+03  0.00000000000E+00 0. -1.
          6    1    1    2  501    0  0.48858357399E+02 -0.13455095236E+03 -0.10609002484E+03  0.24764933119E+03  0.17200000000E+03 0.  1.
         -6    1    1    2    0  503 -0.48858357399E+02  0.13455095236E+03 -0.10277737133E+03  0.24624842319E+03  0.17200000000E+03 0. -1.
</event>
<event>
 4    1  0.5874615E+000  0.2231117E+03  0.7818608E-02  0.1131584E+00
         21   -1    0    0  501  502  0.00000000000E+00  0.00000000000E+00  0.21938706081E+03  0.21938706081E+03  0.00000000000E+00 0.  1.
         21   -1    0    0  502  503 -0.00000000000E+00 -0.00000000000E+00 -0.24351047209E+03  0.24351047209E+03  0.00000000000E+00 0.  1.
          6    1    1    2  501    0  0.54231949129E+02  0.13135345825E+03  0.48387740797E+02  0.22829850801E+03  0.17200000000E+03 0.  1.
         -6    1    1    2    0  503 -0.54231949129E+02 -0.13135345825E+03 -0.72511152082E+02  0.23459902489E+03  0.17200000000E+03 0.  1.
</event>
<event>
 4    1  0.5874615E+000  0.1738032E+03  0.7818608E-02  0.1173939E+00
         21   -1    0    0  503  502  0.00000000000E+00  0.00000000000E+00  0.10863681798E+04  0.10863681798E+04  0.00000000000E+00 0. -1.
         21   -1    0    0  501  503 -0.00000000000E+00 -0.00000000000E+00 -0.27821051670E+02  0.27821051670E+02  0.00000000000E+00 0. -1.
          6    1    1    2  501    0  0.19783861660E+01 -0.24892708854E+02  0.51631858246E+03  0.54478660002E+03  0.17200000000E+03 0.  1.
         -6    1    1    2    0  502 -0.19783861660E+01  0.24892708854E+02  0.54222854569E+03  0.56940263147E+03  0.17200000000E+03 0.  1.
</event>
<event>
 4    1  0.5874615E+000  0.1895285E+03  0.7818608E-02  0.1158887E+00
         21   -1    0    0  503  502  0.00000000000E+00  0.00000000000E+00  0.22474135951E+02  0.22474135951E+02  0.00000000000E+00 0.  1.
         21   -1    0    0  501  503 -0.00000000000E+00 -0.00000000000E+00 -0.18194532931E+04  0.18194532931E+04  0.00000000000E+00 0.  1.
          6    1    1    2  501    0  0.68285998940E+02 -0.40915395878E+02 -0.12195531190E+04  0.12341923908E+04  0.17200000000E+03 0.  1.
         -6    1    1    2    0  502 -0.68285998940E+02  0.40915395878E+02 -0.57742603814E+03  0.60773503831E+03  0.17200000000E+03 0.  1.
</event>
<event>
 4    1  0.5874615E+000  0.1786556E+03  0.7818608E-02  0.1169111E+00
         21   -1    0    0  503  502  0.00000000000E+00  0.00000000000E+00  0.42004380324E+02  0.42004380324E+02  0.00000000000E+00 0. -1.
         21   -1    0    0  501  503 -0.00000000000E+00 -0.00000000000E+00 -0.21065861436E+04  0.21065861436E+04  0.00000000000E+00 0. -1.
          6    1    1    2  501    0 -0.47614855407E+02  0.81643461217E+01 -0.18912494686E+04  0.18996690195E+04  0.17200000000E+03 0. -1.
         -6    1    1    2    0  502  0.47614855407E+02 -0.81643461217E+01 -0.17333229464E+03  0.24892150443E+03  0.17200000000E+03 0. -1.
</event>
<event>
 4    1  0.5874615E+000  0.2361152E+03  0.7818608E-02  0.1122408E+00
         21   -1    0    0  503  502  0.00000000000E+00  0.00000000000E+00  0.10021964969E+04  0.10021964969E+04  0.00000000000E+00 0. -1.
         21   -1    0    0  501  503 -0.00000000000E+00 -0.00000000000E+00 -0.57225676153E+02  0.57225676153E+02  0.00000000000E+00 0. -1.
          6    1    1    2  501    0  0.98407975806E+02  0.12838327939E+03  0.38398208831E+03  0.45076894333E+03  0.17200000000E+03 0. -1.
         -6    1    1    2    0  502 -0.98407975806E+02 -0.12838327939E+03  0.56098873241E+03  0.60865322969E+03  0.17200000000E+03 0. -1.
</event>
<event>
 4    1  0.5874615E+000  0.2475390E+03  0.7818608E-02  0.1114870E+00
         21   -1    0    0  503  502  0.00000000000E+00  0.00000000000E+00  0.10195699595E+03  0.10195699595E+03  0.00000000000E+00 0.  1.
         21   -1    0    0  501  503 -0.00000000000E+00 -0.00000000000E+00 -0.60105040794E+03  0.60105040794E+03  0.00000000000E+00 0. -1.
          6    1    1    2  501    0 -0.17617846508E+03  0.25548114490E+02 -0.25294750965E+03  0.35391807011E+03  0.17200000000E+03 0.  1.
         -6    1    1    2    0  502  0.17617846508E+03 -0.25548114490E+02 -0.24614590235E+03  0.34908933377E+03  0.17200000000E+03 0. -1.
</event>
<event>
 4    1  0.5874615E+000  0.1812931E+03  0.7818608E-02  0.1166557E+00
         21   -1    0    0  503  502  0.00000000000E+00  0.00000000000E+00  0.60841549880E+03  0.60841549880E+03  0.00000000000E+00 0. -1.
         21   -1    0    0  501  503 -0.00000000000E+00 -0.00000000000E+00 -0.81297016458E+02  0.81297016458E+02  0.00000000000E+00 0. -1.
          6    1    1    2  501    0  0.33324019633E+02  0.46612154478E+02  0.63806992389E+02  0.19219395284E+03  0.17200000000E+03 0. -1.
         -6    1    1    2    0  502 -0.33324019633E+02 -0.46612154478E+02  0.46331148995E+03  0.49751856242E+03  0.17200000000E+03 0. -1.
</event>
<event>
 4    1  0.5874615E+000  0.2492156E+03  0.7818608E-02  0.1113802E+00
         21   -1    0    0  501  502  0.00000000000E+00  0.00000000000E+00  0.64065375223E+03  0.64065375223E+03  0.00000000000E+00 0. -1.
         21   -1    0    0  502  503 -0.00000000000E+00 -0.00000000000E+00 -0.16065042513E+03  0.16065042513E+03  0.00000000000E+00 0.  1.
          6    1    1    2  501    0  0.16415303769E+03  0.74687202331E+02  0.49229949074E+03  0.55178545338E+03  0.17200000000E+03 0. -1.
         -6    1    1    2    0  503 -0.16415303769E+03 -0.74687202331E+02 -0.12296163638E+02  0.24951872398E+03  0.17200000000E+03 0.  1.
</event>
<event>
 4    1  0.5874615E+000  0.1771281E+03  0.7818608E-02  0.1170612E+00
         21   -1    0    0  503  502  0.00000000000E+00  0.00000000000E+00  0.11415009116E+03  0.11415009116E+03  0.00000000000E+00 0. -1.
         21   -1    0    0  501  503 -0.00000000000E+00 -0.00000000000E+00 -0.29917422014E+03  0.29917422014E+03  0.00000000000E+00 0. -1.
          6    1    1    2  501    0  0.30055142091E+02  0.29783221279E+02 -0.15143749286E+03  0.23304005252E+03  0.17200000000E+03 0. -1.
         -6    1    1    2    0  502 -0.30055142091E+02 -0.29783221279E+02 -0.33586636115E+02  0.18028425877E+03  0.17200000000E+03 0. -1.
</event>
<event>
 4    1  0.5874615E+000  0.3370177E+03  0.7818608E-02  0.1068073E+00
         21   -1    0    0  501  502  0.00000000000E+00  0.00000000000E+00  0.13376414960E+04  0.13376414960E+04  0.00000000000E+00 0. -1.
         21   -1    0    0  502  503 -0.00000000000E+00 -0.00000000000E+00 -0.12881697279E+03  0.12881697279E+03  0.00000000000E+00 0. -1.
          6    1    1    2  501    0  0.21100949426E+03 -0.19867546158E+03  0.17634373581E+03  0.38036569096E+03  0.17200000000E+03 0. -1.
         -6    1    1    2    0  503 -0.21100949426E+03  0.19867546158E+03  0.10324807874E+04  0.10860927778E+04  0.17200000000E+03 0. -1.
</event>
<event>
 4    1  0.5874615E+000  0.1743483E+03  0.7818608E-02  0.1173388E+00
         21   -1    0    0  501  502  0.00000000000E+00  0.00000000000E+00  0.25930300205E+03  0.25930300205E+03  0.00000000000E+00 0. -1.
         21   -1    0    0  502  503 -0.00000000000E+00 -0.00000000000E+00 -0.14065309483E+03  0.14065309483E+03  0.00000000000E+00 0. -1.
          6    1    1    2  501    0  0.50774332028E+01 -0.28063367346E+02  0.14093749783E+03  0.22418900778E+03  0.17200000000E+03 0. -1.
         -6    1    1    2    0  503 -0.50774332028E+01  0.28063367346E+02 -0.22287590606E+02  0.17576708910E+03  0.17200000000E+03 0. -1.
</event>
<event>
 4    1  0.5874615E+000  0.1926438E+03  0.7818608E-02  0.1156098E+00
         21   -1    0    0  503  502  0.00000000000E+00  0.00000000000E+00  0.15191398114E+03  0.15191398114E+03  0.00000000000E+00 0. -1.
         21   -1    0    0  501  503 -0.00000000000E+00 -0.00000000000E+00 -0.76876544648E+03  0.76876544648E+03  0.00000000000E+00 0. -1.
          6    1    1    2  501    0 -0.14277569091E+02 -0.85579212674E+02 -0.68865234000E+03  0.71508999155E+03  0.17200000000E+03 0. -1.
         -6    1    1    2    0  502  0.14277569091E+02  0.85579212674E+02  0.71800874660E+02  0.20558943607E+03  0.17200000000E+03 0. -1.
</event>
<event>
 4    1  0.5874615E+000  0.1949200E+03  0.7818608E-02  0.1154097E+00
         21   -1    0    0  503  502  0.00000000000E+00  0.00000000000E+00  0.49636967537E+02  0.49636967537E+02  0.00000000000E+00 0.  1.
         21   -1    0    0  501  503 -0.00000000000E+00 -0.00000000000E+00 -0.79849668931E+03  0.79849668931E+03  0.00000000000E+00 0.  1.
          6    1    1    2  501    0 -0.74721894971E+02 -0.53164487878E+02 -0.46072107881E+03  0.50025767043E+03  0.17200000000E+03 0.  1.
         -6    1    1    2    0  502  0.74721894971E+02  0.53164487878E+02 -0.28813864296E+03  0.34787598642E+03  0.17200000000E+03 0.  1.
</event>
<event>
 4    1  0.5874615E+000  0.1988984E+03  0.7818608E-02  0.1150672E+00
         21   -1    0    0  503  502  0.00000000000E+00  0.00000000000E+00  0.26385704069E+03  0.26385704069E+03  0.00000000000E+00 0. -1.
         21   -1    0    0  501  503 -0.00000000000E+00 -0.00000000000E+00 -0.28485135493E+03  0.28485135493E+03  0.00000000000E+00 0.  1.
          6    1    1    2  501    0 -0.51670552295E+02  0.85479504073E+02 -0.19931356383E+03  0.28157856509E+03  0.17200000000E+03 0.  1.
         -6    1    1    2    0  502  0.51670552295E+02 -0.85479504073E+02  0.17831924959E+03  0.26712983054E+03  0.17200000000E+03 0. -1.
</event>
<event>
 4    1  0.5874615E+000  0.1762555E+03  0.7818608E-02  0.1171477E+00
         21   -1    0    0  501  502  0.00000000000E+00  0.00000000000E+00  0.29463305019E+03  0.29463305019E+03  0.00000000000E+00 0. -1.
         21   -1    0    0  502  503 -0.00000000000E+00 -0.00000000000E+00 -0.12926306324E+03  0.12926306324E+03  0.00000000000E+00 0. -1.
          6    1    1    2  501    0  0.27416102058E+02  0.27024901984E+02 -0.83052353453E+01  0.17645102695E+03  0.17200000000E+03 0. -1.
         -6    1    1    2    0  503 -0.27416102058E+02 -0.27024901984E+02  0.17367522230E+03  0.24744508647E+03  0.17200000000E+03 0. -1.
</event>
<event>
 4    1  0.5874615E+000  0.1897359E+03  0.7818608E-02  0.1158700E+00
         21   -1    0    0  503  502  0.00000000000E+00  0.00000000000E+00  0.23717346769E+03  0.23717346769E+03  0.00000000000E+00 0. -1.
         21   -1    0    0  501  503 -0.00000000000E+00 -0.00000000000E+00 -0.24515055260E+03  0.24515055260E+03  0.00000000000E+00 0. -1.
          6    1    1    2  501    0  0.77898543810E+02  0.18642458050E+02 -0.15281576087E+03  0.24362344128E+03  0.17200000000E+03 0. -1.
         -6    1    1    2    0  502 -0.77898543810E+02 -0.18642458050E+02  0.14483867596E+03  0.23870057902E+03  0.17200000000E+03 0. -1.
</event>
<event>
 4    1  0.5874615E+000  0.2740284E+03  0.7818608E-02  0.1098996E+00
         21   -1    0    0  503  502  0.00000000000E+00  0.00000000000E+00  0.27534359530E+03  0.27534359530E+03  0.00000000000E+00 0. -1.
         21   -1    0    0  501  503 -0.00000000000E+00 -0.00000000000E+00 -0.29342171786E+03  0.29342171786E+03  0.00000000000E+00 0.  1.
          6    1    1    2  501    0 -0.59601650644E+02  0.20482971213E+03 -0.84577049293E+02  0.28678362052E+03  0.17200000000E+03 0.  1.
         -6    1    1    2    0  502  0.59601650644E+02 -0.20482971213E+03  0.66498926731E+02  0.28198169265E+03  0.17200000000E+03 0. -1.
</event>
<event>
 4    1  0.5874615E+000  0.1841006E+03  0.7818608E-02  0.1163892E+00
         21   -1    0    0  503  502  0.00000000000E+00  0.00000000000E+00  0.11801887274E+04  0.11801887274E+04  0.00000000000E+00 0.  1.
         21   -1    0    0  501  503 -0.00000000000E+00 -0.00000000000E+00 -0.29013171826E+02  0.29013171826E+02  0.00000000000E+00 0.  1.
          6    1    1    2  501    0  0.40415150403E+02  0.51726779888E+02  0.63653711802E+03  0.66262549510E+03  0.17200000000E+03 0.  1.
         -6    1    1    2    0  502 -0.40415150403E+02 -0.51726779888E+02  0.51463843758E+03  0.54657640415E+03  0.17200000000E+03 0.  1.
</event>
<event>
 4    1  0.5874615E+000  0.2619495E+03  0.7818608E-02  0.1105978E+00
         21   -1    0    0  501  502  0.00000000000E+00  0.00000000000E+00  0.87654452794E+03  0.87654452794E+03  0.00000000000E+00 0.  1.
         21   -1    0    0  502  503 -0.00000000000E+00 -0.00000000000E+00 -0.13870934110E+03  0.13870934110E+03  0.00000000000E+00 0. -1.
          6    1    1    2  501    0  0.19367215743E+03 -0.39046615436E+02  0.70396712972E+03  0.75112399940E+03  0.17200000000E+03 0.  1.
         -6    1    1    2    0  503 -0.19367215743E+03  0.39046615436E+02  0.33868057116E+02  0.26412986964E+03  0.17200000000E+03 0. -1.
</event>
<event>
 4    1  0.5874615E+000  0.2001076E+03  0.7818608E-02  0.1149648E+00
         21   -1    0    0  501  502  0.00000000000E+00  0.00000000000E+00  0.45686446990E+02  0.45686446990E+02  0.00000000000E+00 0. -1.
         21   -1    0    0  502  503 -0.00000000000E+00 -0.00000000000E+00 -0.93939859183E+03  0.93939859183E+03  0.00000000000E+00 0. -1.
          6    1    1    2  501    0  0.90977754601E+02  0.46713053524E+02 -0.57433049901E+03  0.60819288329E+03  0.17200000000E+03 0. -1.
         -6    1    1    2    0  503 -0.90977754601E+02 -0.46713053524E+02 -0.31938164584E+03  0.37689215553E+03  0.17200000000E+03 0. -1.
</event>
<event>
 4    1  0.5874615E+000  0.2124037E+03  0.7818608E-02  0.1139677E+00
         21   -1    0    0  503  502  0.00000000000E+00  0.00000000000E+00  0.77986415857E+02  0.77986415857E+02  0.00000000000E+00 0.  1.
         21   -1    0    0  501  503 -0.00000000000E+00 -0.00000000000E+00 -0.64873772891E+03  0.64873772891E+03  0.00000000000E+00 0.  1.
          6    1    1    2  501    0  0.12462253334E+03 -0.73287241894E+00 -0.40493498121E+03  0.45726103259E+03  0.17200000000E+03 0.  1.
         -6    1    1    2    0  502 -0.12462253334E+03  0.73287241894E+00 -0.16581633185E+03  0.26946311218E+03  0.17200000000E+03 0.  1.
</event>
<event>
 4    1  0.5874615E+000  0.3359321E+03  0.7818608E-02  0.1068542E+00
         21   -1    0    0  503  502  0.00000000000E+00  0.00000000000E+00  0.11595145007E+03  0.11595145007E+03  0.00000000000E+00 0. -1.
         21   -1    0    0  501  503 -0.00000000000E+00 -0.00000000000E+00 -0.99901514048E+03  0.99901514048E+03  0.00000000000E+00 0.  1.
          6    1    1    2  501    0  0.14819493480E+03  0.24759777098E+03 -0.35201286777E+03  0.48658345016E+03  0.17200000000E+03 0.  1.
         -6    1    1    2    0  502 -0.14819493480E+03 -0.24759777098E+03 -0.53105082264E+03  0.62838314039E+03  0.17200000000E+03 0. -1.
</event>
<event>
 4    1  0.5874615E+000  0.1928877E+03  0.7818608E-02  0.1155882E+00
         21   -1    0    0  501  502  0.00000000000E+00  0.00000000000E+00  0.16536692978E+02  0.16536692978E+02  0.00000000000E+00 0. -1.
         21   -1    0    0  502  503 -0.00000000000E+00 -0.00000000000E+00 -0.24589043336E+04  0.24589043336E+04  0.00000000000E+00 0. -1.
          6    1    1    2  501    0  0.40276747492E+00 -0.87301235629E+02 -0.86031916840E+03  0.88167723090E+03  0.17200000000E+03 0.  1.
         -6    1    1    2    0  503 -0.40276747492E+00  0.87301235629E+02 -0.15820484722E+04  0.15937637957E+04  0.17200000000E+03 0.  1.
</event>
<event>
 4    1  0.5874615E+000  0.2461428E+03  0.7818608E-02  0.1115767E+00
         21   -1    0    0  501  502  0.00000000000E+00  0.00000000000E+00  0.31542464369E+03  0.31542464369E+03  0.00000000000E+00 0. -1.
         21   -1    0    0  502  503 -0.00000000000E+00 -0.00000000000E+00 -0.22031507959E+03  0.22031507959E+03  0.00000000000E+00 0.  1.
          6    1    1    2  501    0  0.17538575333E+03  0.15560727426E+02 -0.48342794484E+02  0.25084522018E+03  0.17200000000E+03 0. -1.
         -6    1    1    2    0  503 -0.17538575333E+03 -0.15560727426E+02  0.14345235858E+03  0.28489450309E+03  0.17200000000E+03 0.  1.
</event>
<event>
 4    1  0.5874615E+000  0.3269170E+03  0.7818608E-02  0.1072509E+00
         21   -1    0    0  503  502  0.00000000000E+00  0.00000000000E+00  0.10267244147E+04  0.10267244147E+04  0.00000000000E+00 0.  1.
         21   -1    0    0  501  503 -0.00000000000E+00 -0.00000000000E+00 -0.15506051236E+03  0.15506051236E+03  0.00000000000E+00 0. -1.
          6    1    1    2  501    0  0.27410795946E+03  0.46427619674E+02  0.97061837554E+02  0.34102155008E+03  0.17200000000E+03 0. -1.
         -6    1    1    2    0  502 -0.27410795946E+03 -0.46427619674E+02  0.77460206477E+03  0.84076337697E+03  0.17200000000E+03 0.  1.
</event>
<event>
 4    1  0.5874615E+000  0.1827505E+03  0.7818608E-02  0.1165167E+00
         21   -1    0    0  501  502  0.00000000000E+00  0.00000000000E+00  0.68144319286E+02  0.68144319286E+02  0.00000000000E+00 0. -1.
         21   -1    0    0  502  503 -0.00000000000E+00 -0.00000000000E+00 -0.55169557690E+03  0.55169557690E+03  0.00000000000E+00 0. -1.
          6    1    1    2  501    0  0.22533842511E+02  0.57497559699E+02 -0.13822242333E+03  0.22913572777E+03  0.17200000000E+03 0. -1.
         -6    1    1    2    0  503 -0.22533842511E+02 -0.57497559699E+02 -0.34532883429E+03  0.39070416842E+03  0.17200000000E+03 0. -1.
</event>
<event>
 4    1  0.5874615E+000  0.2083854E+03  0.7818608E-02  0.1142851E+00
         21   -1    0    0  503  502  0.00000000000E+00  0.00000000000E+00  0.21175111067E+03  0.21175111067E+03  0.00000000000E+00 0. -1.
         21   -1    0    0  501  503 -0.00000000000E+00 -0.00000000000E+00 -0.27810909421E+03  0.27810909421E+03  0.00000000000E+00 0. -1.
          6    1    1    2  501    0 -0.22838504762E+02  0.11540736492E+03 -0.15869613172E+03  0.26193304373E+03  0.17200000000E+03 0. -1.
         -6    1    1    2    0  502  0.22838504762E+02 -0.11540736492E+03  0.92338148179E+02  0.22792716114E+03  0.17200000000E+03 0. -1.
</event>
<event>
 4    1  0.5874615E+000  0.1975435E+03  0.7818608E-02  0.1151828E+00
         21   -1    0    0  501  502  0.00000000000E+00  0.00000000000E+00  0.10029937294E+03  0.10029937294E+03  0.00000000000E+00 0. -1.
         21   -1    0    0  502  503 -0.00000000000E+00 -0.00000000000E+00 -0.62573607756E+03  0.62573607756E+03  0.00000000000E+00 0. -1.
          6    1    1    2  501    0 -0.38535277668E+01 -0.97080238735E+02 -0.39463586099E+02  0.20144675986E+03  0.17200000000E+03 0. -1.
         -6    1    1    2    0  503  0.38535277668E+01  0.97080238735E+02 -0.48597311852E+03  0.52458869065E+03  0.17200000000E+03 0. -1.
</event>
<event>
 4    1  0.5874615E+000  0.1818007E+03  0.7818608E-02  0.1166072E+00
         21   -1    0    0  503  502  0.00000000000E+00  0.00000000000E+00  0.21257112669E+03  0.21257112669E+03  0.00000000000E+00 0. -1.
         21   -1    0    0  501  503 -0.00000000000E+00 -0.00000000000E+00 -0.17029307579E+03  0.17029307579E+03  0.00000000000E+00 0.  1.
          6    1    1    2  501    0  0.24781945023E+02  0.53416617234E+02 -0.35312459462E+02  0.18519840601E+03  0.17200000000E+03 0.  1.
         -6    1    1    2    0  502 -0.24781945023E+02 -0.53416617234E+02  0.77590510357E+02  0.19766579647E+03  0.17200000000E+03 0. -1.
</event>
<event>
 4    1  0.5874615E+000  0.2758065E+03  0.7818608E-02  0.1098002E+00
         21   -1    0    0  501  502  0.00000000000E+00  0.00000000000E+00  0.25764978103E+03  0.25764978103E+03  0.00000000000E+00 0.  1.
         21   -1    0    0  502  503 -0.00000000000E+00 -0.00000000000E+00 -0.34357576584E+03  0.34357576584E+03  0.00000000000E+00 0. -1.
          6    1    1    2  501    0 -0.14411859336E+03 -0.16035916351E+03 -0.15571339710E+03  0.31672684179E+03  0.17200000000E+03 0. -1.
         -6    1    1    2    0  503  0.14411859336E+03  0.16035916351E+03  0.69787412289E+02  0.28449870507E+03  0.17200000000E+03 0.  1.
</event>
<event>
 4    1  0.5874615E+000  0.1838871E+03  0.7818608E-02  0.1164093E+00
         21   -1    0    0  501  502  0.00000000000E+00  0.00000000000E+00  0.33300281023E+03  0.33300281023E+03  0.00000000000E+00 0.  1.
         21   -1    0    0  502  503 -0.00000000000E+00 -0.00000000000E+00 -0.22878041917E+03  0.22878041917E+03  0.00000000000E+00 0.  1.
          6    1    1    2  501    0  0.29958089875E+02  0.57731991663E+02  0.26158749863E+03  0.31975379505E+03  0.17200000000E+03 0.  1.
         -6    1    1    2    0  503 -0.29958089875E+02 -0.57731991663E+02 -0.15736510757E+03  0.24202943435E+03  0.17200000000E+03 0.  1.
</event>
<event>
 4    1  0.5874615E+000  0.2389516E+03  0.7818608E-02  0.1120493E+00
         21   -1    0    0  503  502  0.00000000000E+00  0.00000000000E+00  0.33813651669E+03  0.33813651669E+03  0.00000000000E+00 0.  1.
         21   -1    0    0  501  503 -0.00000000000E+00 -0.00000000000E+00 -0.17497708122E+03  0.17497708122E+03  0.00000000000E+00 0. -1.
          6    1    1    2  501    0 -0.16540610497E+03 -0.12437813694E+02  0.33611930937E+02  0.24130404197E+03  0.17200000000E+03 0.  1.
         -6    1    1    2    0  502  0.16540610497E+03  0.12437813694E+02  0.12954750453E+03  0.27180955594E+03  0.17200000000E+03 0.  1.
</event>
<event>
 4    1  0.5874615E+000  0.2553459E+03  0.7818608E-02  0.1109972E+00
         21   -1    0    0  503  502  0.00000000000E+00  0.00000000000E+00  0.20501637471E+03  0.20501637471E+03  0.00000000000E+00 0.  1.
         21   -1    0    0  501  503 -0.00000000000E+00 -0.00000000000E+00 -0.41885369553E+03  0.41885369553E+03  0.00000000000E+00 0.  1.
          6    1    1    2  501    0  0.18695545272E+03  0.25791208388E+02 -0.25996131806E+03  0.36439184214E+03  0.17200000000E+03 0.  1.
         -6    1    1    2    0  502 -0.18695545272E+03 -0.25791208388E+02  0.46123997244E+02  0.25947822810E+03  0.17200000000E+03 0.  1.
</event>
<event>
 4    1  0.5874615E+000  0.2455096E+03  0.7818608E-02  0.1116176E+00
         21   -1    0    0  503  502  0.00000000000E+00  0.00000000000E+00  0.19565322996E+03  0.19565322996E+03  0.00000000000E+00 0. -1.
         21   -1    0    0  501  503 -0.00000000000E+00 -0.00000000000E+00 -0.45824116714E+03  0.45824116714E+03  0.00000000000E+00 0.  1.
          6    1    1    2  501    0  0.13350365756E+03 -0.11343615656E+03 -0.31845831658E+03  0.40210780593E+03  0.17200000000E+03 0.  1.
         -6    1    1    2    0  502 -0.13350365756E+03  0.11343615656E+03  0.55870379401E+02  0.25178659117E+03  0.17200000000E+03 0. -1.
</event>
<event>
 4    1  0.5874615E+000  0.1801858E+03  0.7818608E-02  0.1167623E+00
         21   -1    0    0  503  502  0.00000000000E+00  0.00000000000E+00  0.66905368407E+02  0.66905368407E+02  0.00000000000E+00 0.  1.
         21   -1    0    0  501  503 -0.00000000000E+00 -0.00000000000E+00 -0.77792900196E+03  0.77792900196E+03  0.00000000000E+00 0.  1.
          6    1    1    2  501    0  0.30920391625E+02 -0.43896060107E+02 -0.61460448830E+03  0.64047295943E+03  0.17200000000E+03 0.  1.
         -6    1    1    2    0  502 -0.30920391625E+02  0.43896060107E+02 -0.96419145248E+02  0.20436141094E+03  0.17200000000E+03 0.  1.
</event>
<event>
 4    1  0.5874615E+000  0.1836422E+03  0.7818608E-02  0.1164324E+00
         21   -1    0    0  503  502  0.00000000000E+00  0.00000000000E+00  0.12870616089E+03  0.12870616089E+03  0.00000000000E+00 0.  1.
         21   -1    0    0  501  503 -0.00000000000E+00 -0.00000000000E+00 -0.40616921093E+03  0.40616921093E+03  0.00000000000E+00 0.  1.
          6    1    1    2  501    0 -0.52314270917E+01 -0.64133243464E+02 -0.29804967807E+03  0.35008292067E+03  0.17200000000E+03 0.  1.
         -6    1    1    2    0  502  0.52314270917E+01  0.64133243464E+02  0.20586628040E+02  0.18479245115E+03  0.17200000000E+03 0.  1.
</event>
<event>
 4    1  0.5874615E+000  0.2055222E+03  0.7818608E-02  0.1145162E+00
         21   -1    0    0  503  502  0.00000000000E+00  0.00000000000E+00  0.56007520682E+03  0.56007520682E+03  0.00000000000E+00 0. -1.
         21   -1    0    0  501  503 -0.00000000000E+00 -0.00000000000E+00 -0.16423793101E+03  0.16423793101E+03  0.00000000000E+00 0.  1.
          6    1    1    2  501    0 -0.56334299098E+02 -0.97374591752E+02 -0.68409186778E+02  0.21660835905E+03  0.17200000000E+03 0.  1.
         -6    1    1    2    0  502  0.56334299098E+02  0.97374591752E+02  0.46424646259E+03  0.50770477878E+03  0.17200000000E+03 0. -1.
</event>
<event>
 4    1  0.5874615E+000  0.1883082E+03  0.7818608E-02  0.1159996E+00
         21   -1    0    0  503  502  0.00000000000E+00  0.00000000000E+00  0.43828547234E+02  0.43828547234E+02  0.00000000000E+00 0.  1.
         21   -1    0    0  501  503 -0.00000000000E+00 -0.00000000000E+00 -0.81934636185E+03  0.81934636185E+03  0.00000000000E+00 0.  1.
          6    1    1    2  501    0 -0.67661488800E+02  0.36026212787E+02 -0.43611446166E+03  0.47503240809E+03  0.17200000000E+03 0.  1.
         -6    1    1    2    0  502  0.67661488800E+02 -0.36026212787E+02 -0.33940335296E+03  0.38814250099E+03  0.17200000000E+03 0.  1.
</event>
<event>
 4    1  0.5874615E+000  0.1793202E+03  0.7818608E-02  0.1168463E+00
         21   -1    0    0  501  502  0.00000000000E+00  0.00000000000E+00  0.15538414530E+04  0.15538414530E+04  0.00000000000E+00 0. -1.
         21   -1    0    0  502  503 -0.00000000000E+00 -0.00000000000E+00 -0.32203451320E+02  0.32203451320E+02  0.00000000000E+00 0.  1.
          6    1    1    2  501    0 -0.28024200666E+02 -0.42265526567E+02  0.12349027642E+04  0.12478543855E+04  0.17200000000E+03 0. -1.
         -6    1    1    2    0  503  0.28024200666E+02  0.42265526567E+02  0.28673523747E+03  0.33819051874E+03  0.17200000000E+03 0.  1.
</event>
<event>
 4    1  0.5874615E+000  0.1987072E+03  0.7818608E-02  0.1150834E+00
         21   -1    0    0  501  502  0.00000000000E+00  0.00000000000E+00  0.29323661258E+02  0.29323661258E+02  0.00000000000E+00 0. -1.
         21   -1    0    0  502  503 -0.00000000000E+00 -0.00000000000E+00 -0.13465232482E+04  0.13465232482E+04  0.00000000000E+00 0. -1.
          6    1    1    2  501    0 -0.33719544349E+01 -0.99444385801E+02 -0.65631472110E+03  0.68573578664E+03  0.17200000000E+03 0.  1.
         -6    1    1    2    0  503  0.33719544349E+01  0.99444385801E+02 -0.66088486589E+03  0.69011112287E+03  0.17200000000E+03 0.  1.
</event>
<event>
 4    1  0.5874615E+000  0.3722029E+03  0.7818608E-02  0.1053854E+00
         21   -1    0    0  501  502  0.00000000000E+00  0.00000000000E+00  0.16644638690E+03  0.16644638690E+03  0.00000000000E+00 0. -1.
         21   -1    0    0  502  503 -0.00000000000E+00 -0.00000000000E+00 -0.83766485696E+03  0.83766485696E+03  0.00000000000E+00 0.  1.
          6    1    1    2  501    0  0.13960927558E+03 -0.29909908538E+03 -0.37575000029E+03  0.52888852835E+03  0.17200000000E+03 0. -1.
         -6    1    1    2    0  503 -0.13960927558E+03  0.29909908538E+03 -0.29546846977E+03  0.47522271550E+03  0.17200000000E+03 0.  1.
</event>
<event>
 4    1  0.5874615E+000  0.2033523E+03  0.7818608E-02  0.1146941E+00
         21   -1    0    0  501  502  0.00000000000E+00  0.00000000000E+00  0.56162748840E+02  0.56162748840E+02  0.00000000000E+00 0. -1.
         21   -1    0    0  502  503 -0.00000000000E+00 -0.00000000000E+00 -0.76779413350E+03  0.76779413350E+03  0.00000000000E+00 0. -1.
          6    1    1    2  501    0  0.10564463549E+03  0.24645167394E+02 -0.43926509477E+03  0.48405164679E+03  0.17200000000E+03 0. -1.
         -6    1    1    2    0  503 -0.10564463549E+03 -0.24645167394E+02 -0.27236628990E+03  0.33990523555E+03  0.17200000000E+03 0. -1.
</event>
<event>
 4    1  0.5874615E+000  0.2537790E+03  0.7818608E-02  0.1110940E+00
         21   -1    0    0  503  502  0.00000000000E+00  0.00000000000E+00  0.43199559643E+03  0.43199559643E+03  0.00000000000E+00 0.  1.
         21   -1    0    0  501  503 -0.00000000000E+00 -0.00000000000E+00 -0.14945833601E+03  0.14945833601E+03  0.00000000000E+00 0. -1.
          6    1    1    2  501    0 -0.16975033588E+03  0.77489227760E+02  0.12672450767E+03  0.28365975709E+03  0.17200000000E+03 0.  1.
         -6    1    1    2    0  502  0.16975033588E+03 -0.77489227760E+02  0.15581275275E+03  0.29779417535E+03  0.17200000000E+03 0.  1.
</event>
<event>
 4    1  0.5874615E+000  0.2439475E+03  0.7818608E-02  0.1117191E+00
         21   -1    0    0  501  502  0.00000000000E+00  0.00000000000E+00  0.47065851431E+03  0.47065851431E+03  0.00000000000E+00 0.  1.
         21   -1    0    0  502  503 -0.00000000000E+00 -0.00000000000E+00 -0.13835994054E+03  0.13835994054E+03  0.00000000000E+00 0.  1.
          6    1    1    2  501    0  0.14628356160E+03  0.92344420422E+02  0.76773407867E+02  0.25574309088E+03  0.17200000000E+03 0.  1.
         -6    1    1    2    0  503 -0.14628356160E+03 -0.92344420422E+02  0.25552516590E+03  0.35327536397E+03  0.17200000000E+03 0.  1.
</event>
<event>
 4    1  0.5874615E+000  0.2065922E+03  0.7818608E-02  0.1144293E+00
         21   -1    0    0  503  502  0.00000000000E+00  0.00000000000E+00  0.14108884298E+02  0.14108884298E+02  0.00000000000E+00 0.  1.
         21   -1    0    0  501  503 -0.00000000000E+00 -0.00000000000E+00 -0.30396519266E+04  0.30396519266E+04  0.00000000000E+00 0. -1.
          6    1    1    2  501    0  0.10383710039E+02 -0.11396709264E+03 -0.16185374805E+04  0.16316690521E+04  0.17200000000E+03 0.  1.
         -6    1    1    2    0  502 -0.10383710039E+02  0.11396709264E+03 -0.14070055618E+04  0.14220917588E+04  0.17200000000E+03 0.  1.
</event>
<event>
 4    1  0.5874615E+000  0.1764538E+03  0.7818608E-02  0.1171280E+00
         21   -1    0    0  501  502  0.00000000000E+00  0.00000000000E+00  0.74975841360E+02  0.74975841360E+02  0.00000000000E+00 0.  1.
         21   -1    0    0  502  503 -0.00000000000E+00 -0.00000000000E+00 -0.47390295882E+03  0.47390295882E+03  0.00000000000E+00 0.  1.
          6    1    1    2  501    0  0.38994933725E+02 -0.55967725829E+01 -0.10293906568E+03  0.20428504586E+03  0.17200000000E+03 0.  1.
         -6    1    1    2    0  503 -0.38994933725E+02  0.55967725829E+01 -0.29598805178E+03  0.34459375432E+03  0.17200000000E+03 0.  1.
</event>
<event>
 4    1  0.5874615E+000  0.2506574E+03  0.7818608E-02  0.1112890E+00
         21   -1    0    0  503  502  0.00000000000E+00  0.00000000000E+00  0.51248122114E+03  0.51248122114E+03  0.00000000000E+00 0.  1.
         21   -1    0    0  501  503 -0.00000000000E+00 -0.00000000000E+00 -0.13007154637E+03  0.13007154637E+03  0.00000000000E+00 0.  1.
          6    1    1    2  501    0 -0.17643257838E+03  0.46007156234E+02  0.11419354750E+03  0.27544378633E+03  0.17200000000E+03 0.  1.
         -6    1    1    2    0  502  0.17643257838E+03 -0.46007156234E+02  0.26821612726E+03  0.36710898118E+03  0.17200000000E+03 0.  1.
</event>
<event>
 4    1  0.5874615E+000  0.1887009E+03  0.7818608E-02  0.1159638E+00
         21   -1    0    0  503  502  0.00000000000E+00  0.00000000000E+00  0.33334944892E+03  0.33334944892E+03  0.00000000000E+00 0.  1.
         21   -1    0    0  501  503 -0.00000000000E+00 -0.00000000000E+00 -0.15110152798E+03  0.15110152798E+03  0.00000000000E+00 0.  1.
          6    1    1    2  501    0 -0.17852692915E+02  0.75533613023E+02  0.22225386774E+03  0.29155587297E+03  0.17200000000E+03 0.  1.
         -6    1    1    2    0  502  0.17852692915E+02 -0.75533613023E+02 -0.40005946796E+02  0.19289510393E+03  0.17200000000E+03 0.  1.
</event>
<event>
 4    1  0.5874615E+000  0.3001845E+03  0.7818608E-02  0.1085148E+00
         21   -1    0    0  501  502  0.00000000000E+00  0.00000000000E+00  0.62421424261E+03  0.62421424261E+03  0.00000000000E+00 0.  1.
         21   -1    0    0  502  503 -0.00000000000E+00 -0.00000000000E+00 -0.40920438539E+03  0.40920438539E+03  0.00000000000E+00 0.  1.
          6    1    1    2  501    0 -0.23616206828E+03  0.68950674625E+02  0.52319787194E+03  0.60319709153E+03  0.17200000000E+03 0.  1.
         -6    1    1    2    0  503  0.23616206828E+03 -0.68950674625E+02 -0.30818801471E+03  0.43022153647E+03  0.17200000000E+03 0.  1.
</event>
<event>
 4    1  0.5874615E+000  0.1781020E+03  0.7818608E-02  0.1169653E+00
         21   -1    0    0  501  502  0.00000000000E+00  0.00000000000E+00  0.18969304032E+03  0.18969304032E+03  0.00000000000E+00 0. -1.
         21   -1    0    0  502  503 -0.00000000000E+00 -0.00000000000E+00 -0.23269041789E+03  0.23269041789E+03  0.00000000000E+00 0. -1.
          6    1    1    2  501    0  0.12047993878E+02  0.44622468341E+02  0.90525771231E+02  0.19978797285E+03  0.17200000000E+03 0. -1.
         -6    1    1    2    0  503 -0.12047993878E+02 -0.44622468341E+02 -0.13352314880E+03  0.22259548536E+03  0.17200000000E+03 0. -1.
</event>
<event>
 4    1  0.5874615E+000  0.2032708E+03  0.7818608E-02  0.1147008E+00
         21   -1    0    0  501  502  0.00000000000E+00  0.00000000000E+00  0.69002846663E+03  0.69002846663E+03  0.00000000000E+00 0.  1.
         21   -1    0    0  502  503 -0.00000000000E+00 -0.00000000000E+00 -0.69334499438E+02  0.69334499438E+02  0.00000000000E+00 0. -1.
          6    1    1    2  501    0  0.12703971036E+02 -0.10758085803E+03  0.17014319235E+03  0.26508062509E+03  0.17200000000E+03 0. -1.
         -6    1    1    2    0  503 -0.12703971036E+02  0.10758085803E+03  0.45055077484E+03  0.49428234098E+03  0.17200000000E+03 0.  1.
</event>
<event>
 4    1  0.5874615E+000  0.1921260E+03  0.7818608E-02  0.1156558E+00
         21   -1    0    0  501  502  0.00000000000E+00  0.00000000000E+00  0.22132389983E+04  0.22132389983E+04  0.00000000000E+00 0.  1.
         21   -1    0    0  502  503 -0.00000000000E+00 -0.00000000000E+00 -0.44286668928E+02  0.44286668928E+02  0.00000000000E+00 0. -1.
          6    1    1    2  501    0 -0.28889300524E+02 -0.80584203005E+02  0.19757043412E+04  0.19850239418E+04  0.17200000000E+03 0.  1.
         -6    1    1    2    0  503  0.28889300524E+02  0.80584203005E+02  0.19324798816E+03  0.27250172548E+03  0.17200000000E+03 0. -1.
</event>
<event>
 4    1  0.5874615E+000  0.3264307E+03  0.7818608E-02  0.1072727E+00
         21   -1    0    0  503  502  0.00000000000E+00  0.00000000000E+00  0.16614622019E+04  0.16614622019E+04  0.00000000000E+00 0. -1.
         21   -1    0    0  501  503 -0.00000000000E+00 -0.00000000000E+00 -0.76559825095E+02  0.76559825095E+02  0.00000000000E+00 0.  1.
          6    1    1    2  501    0 -0.51197976493E+02  0.27267525399E+03  0.44236182849E+03  0.54976450799E+03  0.17200000000E+03 0.  1.
         -6    1    1    2    0  502  0.51197976493E+02 -0.27267525399E+03  0.11425405483E+04  0.11882575190E+04  0.17200000000E+03 0. -1.
</event>
<event>
 4    1  0.5874615E+000  0.1947637E+03  0.7818608E-02  0.1154234E+00
         21   -1    0    0  503  502  0.00000000000E+00  0.00000000000E+00  0.95193339612E+02  0.95193339612E+02  0.00000000000E+00 0.  1.
         21   -1    0    0  501  503 -0.00000000000E+00 -0.00000000000E+00 -0.40319122039E+03  0.40319122039E+03  0.00000000000E+00 0.  1.
          6    1    1    2  501    0  0.76279093521E+02 -0.50303168793E+02 -0.18092770796E+03  0.26583405426E+03  0.17200000000E+03 0. -1.
         -6    1    1    2    0  502 -0.76279093521E+02  0.50303168793E+02 -0.12707017282E+03  0.23255050574E+03  0.17200000000E+03 0. -1.
</event>
<event>
 4    1  0.5874615E+000  0.1951719E+03  0.7818608E-02  0.1153878E+00
         21   -1    0    0  503  502  0.00000000000E+00  0.00000000000E+00  0.79313238323E+03  0.79313238323E+03  0.00000000000E+00 0.  1.
         21   -1    0    0  501  503 -0.00000000000E+00 -0.00000000000E+00 -0.97758230081E+02  0.97758230081E+02  0.00000000000E+00 0.  1.
          6    1    1    2  501    0 -0.82122209282E+02  0.42000348169E+02  0.29977303021E+02  0.19746069280E+03  0.17200000000E+03 0.  1.
         -6    1    1    2    0  502  0.82122209282E+02 -0.42000348169E+02  0.66539685012E+03  0.69342992051E+03  0.17200000000E+03 0.  1.
</event>
<event>
 4    1  0.5874615E+000  0.2267561E+03  0.7818608E-02  0.1128944E+00
         21   -1    0    0  501  502  0.00000000000E+00  0.00000000000E+00  0.10485016934E+03  0.10485016934E+03  0.00000000000E+00 0.  1.
         21   -1    0    0  502  503 -0.00000000000E+00 -0.00000000000E+00 -0.49174255991E+03  0.49174255991E+03  0.00000000000E+00 0. -1.
          6    1    1    2  501    0 -0.39855760479E+02  0.14228794608E+03 -0.20904265974E+03  0.30841072425E+03  0.17200000000E+03 0. -1.
         -6    1    1    2    0  503  0.39855760479E+02 -0.14228794608E+03 -0.17784973083E+03  0.28818200499E+03  0.17200000000E+03 0.  1.
</event>
<event>
 4    1  0.5874615E+000  0.1720128E+03  0.7818608E-02  0.1175765E+00
         21   -1    0    0  501  502  0.00000000000E+00  0.00000000000E+00  0.75715623176E+02  0.75715623176E+02  0.00000000000E+00 0.  1.
         21   -1    0    0  502  503 -0.00000000000E+00 -0.00000000000E+00 -0.50985336260E+03  0.50985336260E+03  0.00000000000E+00 0.  1.
          6    1    1    2  501    0  0.88262273676E+00 -0.19056246938E+01 -0.75578626562E+02  0.18788437727E+03  0.17200000000E+03 0.  1.
         -6    1    1    2    0  503 -0.88262273676E+00  0.19056246938E+01 -0.35855911286E+03  0.39768460851E+03  0.17200000000E+03 0.  1.
</event>
<event>
 4    1  0.5874615E+000  0.2215337E+03  0.7818608E-02  0.1132745E+00
         21   -1    0    0  503  502  0.00000000000E+00  0.00000000000E+00  0.12083568218E+03  0.12083568218E+03  0.00000000000E+00 0.  1.
         21   -1    0    0  501  503 -0.00000000000E+00 -0.00000000000E+00 -0.40626112067E+03  0.40626112067E+03  0.00000000000E+00 0. -1.
          6    1    1    2  501    0 -0.13568925474E+03 -0.32887471624E+02 -0.14711222109E+03  0.26593075271E+03  0.17200000000E+03 0. -1.
         -6    1    1    2    0  502  0.13568925474E+03  0.32887471624E+02 -0.13831321739E+03  0.26116605014E+03  0.17200000000E+03 0. -1.
</event>
<event>
 4    1  0.5874615E+000  0.3324897E+03  0.7818608E-02  0.1070041E+00
         21   -1    0    0  501  502  0.00000000000E+00  0.00000000000E+00  0.14927690627E+03  0.14927690627E+03  0.00000000000E+00 0. -1.
         21   -1    0    0  502  503 -0.00000000000E+00 -0.00000000000E+00 -0.74119514666E+03  0.74119514666E+03  0.00000000000E+00 0.  1.
          6    1    1    2  501    0  0.88815346132E+02  0.27032803385E+03 -0.30893020546E+03  0.45385821953E+03  0.17200000000E+03 0. -1.
         -6    1    1    2    0  503 -0.88815346132E+02 -0.27032803385E+03 -0.28298803494E+03  0.43661383340E+03  0.17200000000E+03 0.  1.
</event>
<event>
 4    1  0.5874615E+000  0.1854026E+03  0.7818608E-02  0.1162674E+00
         21   -1    0    0  501  502  0.00000000000E+00  0.00000000000E+00  0.24379246990E+02  0.24379246990E+02  0.00000000000E+00 0. -1.
         21   -1    0    0  502  503 -0.00000000000E+00 -0.00000000000E+00 -0.16080566445E+04  0.16080566445E+04  0.00000000000E+00 0. -1.
          6    1    1    2  501    0 -0.55249353183E+02  0.41684773606E+02 -0.50536921432E+03  0.53830488959E+03  0.17200000000E+03 0. -1.
         -6    1    1    2    0  503  0.55249353183E+02 -0.41684773606E+02 -0.10783081832E+04  0.10941310019E+04  0.17200000000E+03 0. -1.
</event>
<event>
 4    1  0.5874615E+000  0.1726783E+03  0.7818608E-02  0.1175083E+00
         21   -1    0    0  501  502  0.00000000000E+00  0.00000000000E+00  0.22976059513E+03  0.22976059513E+03  0.00000000000E+00 0. -1.
         21   -1    0    0  502  503 -0.00000000000E+00 -0.00000000000E+00 -0.18677101823E+03  0.18677101823E+03  0.00000000000E+00 0. -1.
          6    1    1    2  501    0 -0.14423049316E+01 -0.15222067808E+02  0.13654180659E+03  0.22013962964E+03  0.17200000000E+03 0. -1.
         -6    1    1    2    0  503  0.14423049316E+01  0.15222067808E+02 -0.93552229690E+02  0.19639198373E+03  0.17200000000E+03 0. -1.
</event>
<event>
 4    1  0.5874615E+000  0.2089637E+03  0.7818608E-02  0.1142389E+00
         21   -1    0    0  503  502  0.00000000000E+00  0.00000000000E+00  0.11136148000E+04  0.11136148000E+04  0.00000000000E+00 0.  1.
         21   -1    0    0  501  503 -0.00000000000E+00 -0.00000000000E+00 -0.55292851849E+02  0.55292851849E+02  0.00000000000E+00 0.  1.
          6    1    1    2  501    0 -0.84389520374E+02  0.83428065074E+02  0.21396173914E+03  0.29907433692E+03  0.17200000000E+03 0.  1.
         -6    1    1    2    0  502  0.84389520374E+02 -0.83428065074E+02  0.84436020900E+03  0.86983331492E+03  0.17200000000E+03 0.  1.
</event>
<event>
 4    1  0.5874615E+000  0.2326914E+03  0.7818608E-02  0.1124760E+00
         21   -1    0    0  501  502  0.00000000000E+00  0.00000000000E+00  0.96439272832E+03  0.96439272832E+03  0.00000000000E+00 0.  1.
         21   -1    0    0  502  503 -0.00000000000E+00 -0.00000000000E+00 -0.64153759723E+02  0.64153759723E+02  0.00000000000E+00 0. -1.
          6    1    1    2  501    0  0.76643648509E+02  0.13670060544E+03  0.63183008958E+03  0.67331609700E+03  0.17200000000E+03 0. -1.
         -6    1    1    2    0  503 -0.76643648509E+02 -0.13670060544E+03  0.26840887902E+03  0.35523039104E+03  0.17200000000E+03 0.  1.
</event>
<event>
 4    1  0.5874615E+000  0.3030547E+03  0.7818608E-02  0.1083723E+00
         21   -1    0    0  503  502  0.00000000000E+00  0.00000000000E+00  0.14318254934E+03  0.14318254934E+03  0.00000000000E+00 0.  1.
         21   -1    0    0  501  503 -0.00000000000E+00 -0.00000000000E+00 -0.75324561631E+03  0.75324561631E+03  0.00000000000E+00 0. -1.
          6    1    1    2  501    0  0.12911680582E+03  0.21351117200E+03 -0.47771885523E+03  0.56573622366E+03  0.17200000000E+03 0.  1.
         -6    1    1    2    0  502 -0.12911680582E+03 -0.21351117200E+03 -0.13234421174E+03  0.33069194199E+03  0.17200000000E+03 0. -1.
</event>
<event>
 4    1  0.5874615E+000  0.1829269E+03  0.7818608E-02  0.1165000E+00
         21   -1    0    0  501  502  0.00000000000E+00  0.00000000000E+00  0.97714597922E+02  0.97714597922E+02  0.00000000000E+00 0.  1.
         21   -1    0    0  502  503 -0.00000000000E+00 -0.00000000000E+00 -0.37516544658E+03  0.37516544658E+03  0.00000000000E+00 0.  1.
          6    1    1    2  501    0 -0.26735373019E+02 -0.56244639250E+02 -0.68903075435E+02  0.19547345963E+03  0.17200000000E+03 0.  1.
         -6    1    1    2    0  503  0.26735373019E+02  0.56244639250E+02 -0.20854777323E+03  0.27740658488E+03  0.17200000000E+03 0.  1.
</event>
<event>
 4    1  0.5874615E+000  0.2213069E+03  0.7818608E-02  0.1132912E+00
         21   -1    0    0  501  502  0.00000000000E+00  0.00000000000E+00  0.13921749188E+03  0.13921749188E+03  0.00000000000E+00 0. -1.
         21   -1    0    0  502  503 -0.00000000000E+00 -0.00000000000E+00 -0.40297952939E+03  0.40297952939E+03  0.00000000000E+00 0.  1.
          6    1    1    2  501    0  0.73444103319E+02  0.11831616737E+03 -0.35268674324E+02  0.22409960098E+03  0.17200000000E+03 0. -1.
         -6    1    1    2    0  503 -0.73444103319E+02 -0.11831616737E+03 -0.22849336319E+03  0.31809742029E+03  0.17200000000E+03 0.  1.
</event>
<event>
 4    1  0.5874615E+000  0.3407074E+03  0.7818608E-02  0.1066495E+00
         21   -1    0    0  503  502  0.00000000000E+00  0.00000000000E+00  0.35014723954E+03  0.35014723954E+03  0.00000000000E+00 0. -1.
         21   -1    0    0  501  503 -0.00000000000E+00 -0.00000000000E+00 -0.55630645622E+03  0.55630645622E+03  0.00000000000E+00 0.  1.
          6    1    1    2  501    0 -0.11938492941E+03  0.26878392793E+03 -0.39117849749E+03  0.51875059343E+03  0.17200000000E+03 0.  1.
         -6    1    1    2    0  502  0.11938492941E+03 -0.26878392793E+03  0.18501928081E+03  0.38770310233E+03  0.17200000000E+03 0. -1.
</event>
<event>
 4    1  0.5874615E+000  0.2009303E+03  0.7818608E-02  0.1148956E+00
         21   -1    0    0  501  502  0.00000000000E+00  0.00000000000E+00  0.16820839311E+04  0.16820839311E+04  0.00000000000E+00 0. -1.
         21   -1    0    0  502  503 -0.00000000000E+00 -0.00000000000E+00 -0.36139914148E+02  0.36139914148E+02  0.00000000000E+00 0.  1.
          6    1    1    2  501    0  0.97263836225E+02 -0.36452037387E+02  0.13208606200E+04  0.13360560551E+04  0.17200000000E+03 0. -1.
         -6    1    1    2    0  503 -0.97263836225E+02  0.36452037387E+02  0.32508339698E+03  0.38216779019E+03  0.17200000000E+03 0.  1.
</event>
<event>
 4    1  0.5874615E+000  0.2024240E+03  0.7818608E-02  0.1147710E+00
         21   -1    0    0  503  502  0.00000000000E+00  0.00000000000E+00  0.16350312813E+03  0.16350312813E+03  0.00000000000E+00 0. -1.
         21   -1    0    0  501  503 -0.00000000000E+00 -0.00000000000E+00 -0.64973023566E+03  0.64973023566E+03  0.00000000000E+00 0.  1.
          6    1    1    2  501    0 -0.10670551195E+03  0.23282160573E+01 -0.56180516636E+03  0.59716039036E+03  0.17200000000E+03 0.  1.
         -6    1    1    2    0  502  0.10670551195E+03 -0.23282160573E+01  0.75578058836E+02  0.21607297343E+03  0.17200000000E+03 0. -1.
</event>
<event>
 4    1  0.5874615E+000  0.2124176E+03  0.7818608E-02  0.1139666E+00
         21   -1    0    0  503  502  0.00000000000E+00  0.00000000000E+00  0.17709299450E+03  0.17709299450E+03  0.00000000000E+00 0. -1.
         21   -1    0    0  501  503 -0.00000000000E+00 -0.00000000000E+00 -0.25618806351E+03  0.25618806351E+03  0.00000000000E+00 0. -1.
          6    1    1    2  501    0  0.11566999280E+03  0.46450969896E+02 -0.55560540058E+02  0.21956368882E+03  0.17200000000E+03 0. -1.
         -6    1    1    2    0  502 -0.11566999280E+03 -0.46450969896E+02 -0.23534528955E+02  0.21371736918E+03  0.17200000000E+03 0. -1.
</event>
<event>
 4    1  0.5874615E+000  0.2142323E+03  0.7818608E-02  0.1138258E+00
         21   -1    0    0  501  502  0.00000000000E+00  0.00000000000E+00  0.29515998856E+03  0.29515998856E+03  0.00000000000E+00 0. -1.
         21   -1    0    0  502  503 -0.00000000000E+00 -0.00000000000E+00 -0.97939306382E+03  0.97939306382E+03  0.00000000000E+00 0.  1.
          6    1    1    2  501    0 -0.16935917333E+02 -0.12658847460E+03  0.24238618640E+03  0.32349115993E+03  0.17200000000E+03 0. -1.
         -6    1    1    2    0  503  0.16935917333E+02  0.12658847460E+03 -0.92661926165E+03  0.95106189244E+03  0.17200000000E+03 0.  1.
</event>
<event>
 4    1  0.5874615E+000  0.2057761E+03  0.7818608E-02  0.1144955E+00
         21   -1    0    0  501  502  0.00000000000E+00  0.00000000000E+00  0.51255749672E+03  0.51255749672E+03  0.00000000000E+00 0. -1.
         21   -1    0    0  502  503 -0.00000000000E+00 -0.00000000000E+00 -0.25485136685E+03  0.25485136685E+03  0.00000000000E+00 0. -1.
          6    1    1    2  501    0 -0.23541883967E+02  0.11047892857E+03  0.44429434286E+03  0.48963381936E+03  0.17200000000E+03 0. -1.
         -6    1    1    2    0  503  0.23541883967E+02 -0.11047892857E+03 -0.18658821300E+03  0.27777504421E+03  0.17200000000E+03 0. -1.
</event>
<event>
 4    1  0.5874615E+000  0.1738253E+03  0.7818608E-02  0.1173916E+00
         21   -1    0    0  501  502  0.00000000000E+00  0.00000000000E+00  0.10653856672E+04  0.10653856672E+04  0.00000000000E+00 0.  1.
         21   -1    0    0  502  503 -0.00000000000E+00 -0.00000000000E+00 -0.54103887682E+02  0.54103887682E+02  0.00000000000E+00 0.  1.
          6    1    1    2  501    0 -0.42825264894E+01  0.24756871308E+02  0.89174614527E+03  0.90852981807E+03  0.17200000000E+03 0.  1.
         -6    1    1    2    0  503  0.42825264894E+01 -0.24756871308E+02  0.11953563429E+03  0.21095973686E+03  0.17200000000E+03 0.  1.
</event>
<event>
 4    1  0.5874615E+000  0.1805109E+03  0.7818608E-02  0.1167309E+00
         21   -1    0    0  503  502  0.00000000000E+00  0.00000000000E+00  0.18228198773E+04  0.18228198773E+04  0.00000000000E+00 0.  1.
         21   -1    0    0  501  503 -0.00000000000E+00 -0.00000000000E+00 -0.17875770398E+02  0.17875770398E+02  0.00000000000E+00 0.  1.
          6    1    1    2  501    0 -0.42038436037E+02  0.35113695919E+02  0.90414650823E+03  0.92198975596E+03  0.17200000000E+03 0. -1.
         -6    1    1    2    0  502  0.42038436037E+02 -0.35113695919E+02  0.90079759864E+03  0.91870589171E+03  0.17200000000E+03 0. -1.
</event>
<event>
 4    1  0.5874615E+000  0.2625496E+03  0.7818608E-02  0.1105621E+00
         21   -1    0    0  501  502  0.00000000000E+00  0.00000000000E+00  0.33352638286E+03  0.33352638286E+03  0.00000000000E+00 0.  1.
         21   -1    0    0  502  503 -0.00000000000E+00 -0.00000000000E+00 -0.21367608050E+03  0.21367608050E+03  0.00000000000E+00 0. -1.
          6    1    1    2  501    0  0.19825448763E+03 -0.65917763743E+01  0.10944221668E+03  0.28444664205E+03  0.17200000000E+03 0.  1.
         -6    1    1    2    0  503 -0.19825448763E+03  0.65917763743E+01  0.10408085684E+02  0.26275582131E+03  0.17200000000E+03 0. -1.
</event>
<event>
 4    1  0.5874615E+000  0.2083210E+03  0.7818608E-02  0.1142902E+00
         21   -1    0    0  501  502  0.00000000000E+00  0.00000000000E+00  0.66463947188E+03  0.66463947188E+03  0.00000000000E+00 0.  1.
         21   -1    0    0  502  503 -0.00000000000E+00 -0.00000000000E+00 -0.92479090685E+02  0.92479090685E+02  0.00000000000E+00 0.  1.
          6    1    1    2  501    0  0.89612504530E+02 -0.76047687136E+02  0.49132364681E+03  0.53366335606E+03  0.17200000000E+03 0.  1.
         -6    1    1    2    0  503 -0.89612504530E+02  0.76047687136E+02  0.80836734381E+02  0.22345520650E+03  0.17200000000E+03 0.  1.
</event>
<event>
 4    1  0.5874615E+000  0.1751733E+03  0.7818608E-02  0.1172558E+00
         21   -1    0    0  503  502  0.00000000000E+00  0.00000000000E+00  0.49175034848E+02  0.49175034848E+02  0.00000000000E+00 0.  1.
         21   -1    0    0  501  503 -0.00000000000E+00 -0.00000000000E+00 -0.12004371178E+04  0.12004371178E+04  0.00000000000E+00 0.  1.
          6    1    1    2  501    0 -0.17926569483E+02 -0.27934156323E+02 -0.10085912689E+04  0.10236903959E+04  0.17200000000E+03 0. -1.
         -6    1    1    2    0  502  0.17926569483E+02  0.27934156323E+02 -0.14267081404E+03  0.22592175673E+03  0.17200000000E+03 0. -1.
</event>
<event>
 4    1  0.5874615E+000  0.1876884E+03  0.7818608E-02  0.1160563E+00
         21   -1    0    0  501  502  0.00000000000E+00  0.00000000000E+00  0.10159466630E+03  0.10159466630E+03  0.00000000000E+00 0.  1.
         21   -1    0    0  502  503 -0.00000000000E+00 -0.00000000000E+00 -0.34700738721E+03  0.34700738721E+03  0.00000000000E+00 0.  1.
          6    1    1    2  501    0  0.32525032495E+02  0.67712988630E+02 -0.12893361134E+03  0.22770771331E+03  0.17200000000E+03 0.  1.
         -6    1    1    2    0  503 -0.32525032495E+02 -0.67712988630E+02 -0.11647910956E+03  0.22089434020E+03  0.17200000000E+03 0.  1.
</event>
<event>
 4    1  0.5874615E+000  0.2155621E+03  0.7818608E-02  0.1137236E+00
         21   -1    0    0  501  502  0.00000000000E+00  0.00000000000E+00  0.79590857796E+03  0.79590857796E+03  0.00000000000E+00 0.  1.
         21   -1    0    0  502  503 -0.00000000000E+00 -0.00000000000E+00 -0.59054738571E+02  0.59054738571E+02  0.00000000000E+00 0.  1.
          6    1    1    2  501    0  0.44106946863E+02 -0.12221938138E+03  0.32281213440E+03  0.38816835789E+03  0.17200000000E+03 0.  1.
         -6    1    1    2    0  503 -0.44106946863E+02  0.12221938138E+03  0.41404170499E+03  0.46679495865E+03  0.17200000000E+03 0.  1.
</event>
<event>
 4    1  0.5874615E+000  0.3584853E+03  0.7818608E-02  0.1059185E+00
         21   -1    0    0  501  502  0.00000000000E+00  0.00000000000E+00  0.24551418239E+03  0.24551418239E+03  0.00000000000E+00 0. -1.
         21   -1    0    0  502  503 -0.00000000000E+00 -0.00000000000E+00 -0.62254686119E+03  0.62254686119E+03  0.00000000000E+00 0.  1.
          6    1    1    2  501    0 -0.26219979609E+03  0.17372098229E+03 -0.15340154305E+02  0.35881336805E+03  0.17200000000E+03 0. -1.
         -6    1    1    2    0  503  0.26219979609E+03 -0.17372098229E+03 -0.36169252449E+03  0.50924767553E+03  0.17200000000E+03 0.  1.
</event>
<event>
 4    1  0.5874615E+000  0.1756096E+03  0.7818608E-02  0.1172121E+00
         21   -1    0    0  501  502  0.00000000000E+00  0.00000000000E+00  0.16673163561E+03  0.16673163561E+03  0.00000000000E+00 0. -1.
         21   -1    0    0  502  503 -0.00000000000E+00 -0.00000000000E+00 -0.19628884558E+03  0.19628884558E+03  0.00000000000E+00 0. -1.
          6    1    1    2  501    0 -0.24046516655E+02 -0.26009256347E+02  0.28827003413E+02  0.17795986206E+03  0.17200000000E+03 0. -1.
         -6    1    1    2    0  503  0.24046516655E+02  0.26009256347E+02 -0.58384213389E+02  0.18506061913E+03  0.17200000000E+03 0. -1.
</event>
<event>
 4    1  0.5874615E+000  0.2302208E+03  0.7818608E-02  0.1126484E+00
         21   -1    0    0  503  502  0.00000000000E+00  0.00000000000E+00  0.77973989488E+02  0.77973989488E+02  0.00000000000E+00 0.  1.
         21   -1    0    0  501  503 -0.00000000000E+00 -0.00000000000E+00 -0.83180657872E+03  0.83180657872E+03  0.00000000000E+00 0.  1.
          6    1    1    2  501    0  0.14986319401E+03  0.30961882752E+02 -0.18241605209E+03  0.29372986086E+03  0.17200000000E+03 0.  1.
         -6    1    1    2    0  502 -0.14986319401E+03 -0.30961882752E+02 -0.57141653714E+03  0.61605070734E+03  0.17200000000E+03 0.  1.
</event>
<event>
 4    1  0.5874615E+000  0.1923258E+03  0.7818608E-02  0.1156380E+00
         21   -1    0    0  503  502  0.00000000000E+00  0.00000000000E+00  0.11244003091E+03  0.11244003091E+03  0.00000000000E+00 0.  1.
         21   -1    0    0  501  503 -0.00000000000E+00 -0.00000000000E+00 -0.34000898209E+03  0.34000898209E+03  0.00000000000E+00 0.  1.
          6    1    1    2  501    0 -0.44186709353E+02  0.73842848916E+02 -0.73019433573E+02  0.20572085285E+03  0.17200000000E+03 0.  1.
         -6    1    1    2    0  502  0.44186709353E+02 -0.73842848916E+02 -0.15454951761E+03  0.24672816015E+03  0.17200000000E+03 0.  1.
</event>
<event>
 4    1  0.5874615E+000  0.2041716E+03  0.7818608E-02  0.1146266E+00
         21   -1    0    0  501  502  0.00000000000E+00  0.00000000000E+00  0.48313857178E+03  0.48313857178E+03  0.00000000000E+00 0.  1.
         21   -1    0    0  502  503 -0.00000000000E+00 -0.00000000000E+00 -0.21637077434E+03  0.21637077434E+03  0.00000000000E+00 0.  1.
          6    1    1    2  501    0 -0.13061783245E+02  0.10923100545E+03  0.40458073517E+03  0.45317942805E+03  0.17200000000E+03 0.  1.
         -6    1    1    2    0  503  0.13061783245E+02 -0.10923100545E+03 -0.13781293773E+03  0.24632991808E+03  0.17200000000E+03 0.  1.
</event>
<event>
 4    1  0.5874615E+000  0.1884176E+03  0.7818608E-02  0.1159896E+00
         21   -1    0    0  503  502  0.00000000000E+00  0.00000000000E+00  0.66775002375E+02  0.66775002375E+02  0.00000000000E+00 0.  1.
         21   -1    0    0  501  503 -0.00000000000E+00 -0.00000000000E+00 -0.70558009572E+03  0.70558009572E+03  0.00000000000E+00 0.  1.
          6    1    1    2  501    0 -0.52315083194E+02  0.56394380507E+02 -0.51113529259E+03  0.54475726834E+03  0.17200000000E+03 0.  1.
         -6    1    1    2    0  502  0.52315083194E+02 -0.56394380507E+02 -0.12766980075E+03  0.22759782975E+03  0.17200000000E+03 0.  1.
</event>
<event>
 4    1  0.5874615E+000  0.2173050E+03  0.7818608E-02  0.1135908E+00
         21   -1    0    0  503  502  0.00000000000E+00  0.00000000000E+00  0.99154704647E+03  0.99154704647E+03  0.00000000000E+00 0.  1.
         21   -1    0    0  501  503 -0.00000000000E+00 -0.00000000000E+00 -0.47676646395E+02  0.47676646395E+02  0.00000000000E+00 0. -1.
          6    1    1    2  501    0  0.50220920111E+01 -0.13271111332E+03  0.45467250044E+03  0.50393307459E+03  0.17200000000E+03 0. -1.
         -6    1    1    2    0  502 -0.50220920111E+01  0.13271111332E+03  0.48919789964E+03  0.53529061828E+03  0.17200000000E+03 0.  1.
</event>
<event>
 4    1  0.5874615E+000  0.1733270E+03  0.7818608E-02  0.1174422E+00
         21   -1    0    0  503  502  0.00000000000E+00  0.00000000000E+00  0.44771520081E+02  0.44771520081E+02  0.00000000000E+00 0.  1.
         21   -1    0    0  501  503 -0.00000000000E+00 -0.00000000000E+00 -0.67259255614E+03  0.67259255614E+03  0.00000000000E+00 0.  1.
          6    1    1    2  501    0 -0.16316125405E+02 -0.13858218492E+02 -0.33129329082E+03  0.37389505307E+03  0.17200000000E+03 0. -1.
         -6    1    1    2    0  502  0.16316125405E+02  0.13858218492E+02 -0.29652774523E+03  0.34346902315E+03  0.17200000000E+03 0. -1.
</event>
<event>
 4    1  0.5874615E+000  0.2124284E+03  0.7818608E-02  0.1139657E+00
         21   -1    0    0  501  502  0.00000000000E+00  0.00000000000E+00  0.30798013971E+03  0.30798013971E+03  0.00000000000E+00 0.  1.
         21   -1    0    0  502  503 -0.00000000000E+00 -0.00000000000E+00 -0.37197308844E+03  0.37197308844E+03  0.00000000000E+00 0. -1.
          6    1    1    2  501    0  0.14270674473E+02 -0.12384732249E+03  0.23268260959E+03  0.31506667270E+03  0.17200000000E+03 0.  1.
         -6    1    1    2    0  503 -0.14270674473E+02  0.12384732249E+03 -0.29667555832E+03  0.36488655544E+03  0.17200000000E+03 0. -1.
</event>
<event>
 4    1  0.5874615E+000  0.2825517E+03  0.7818608E-02  0.1094303E+00
         21   -1    0    0  501  502  0.00000000000E+00  0.00000000000E+00  0.55060268490E+03  0.55060268490E+03  0.00000000000E+00 0.  1.
         21   -1    0    0  502  503 -0.00000000000E+00 -0.00000000000E+00 -0.14657351656E+03  0.14657351656E+03  0.00000000000E+00 0. -1.
          6    1    1    2  501    0  0.20942872488E+03 -0.79944324510E+02  0.23817196988E+03  0.36954211271E+03  0.17200000000E+03 0.  1.
         -6    1    1    2    0  503 -0.20942872488E+03  0.79944324510E+02  0.16585719846E+03  0.32763408875E+03  0.17200000000E+03 0.  1.
</event>
<event>
 4    1  0.5874615E+000  0.2543887E+03  0.7818608E-02  0.1110562E+00
         21   -1    0    0  501  502  0.00000000000E+00  0.00000000000E+00  0.38019577511E+03  0.38019577511E+03  0.00000000000E+00 0.  1.
         21   -1    0    0  502  503 -0.00000000000E+00 -0.00000000000E+00 -0.19173410273E+03  0.19173410273E+03  0.00000000000E+00 0. -1.
          6    1    1    2  501    0 -0.79276375385E+02  0.16983780133E+03  0.19004117542E+03  0.31753625118E+03  0.17200000000E+03 0.  1.
         -6    1    1    2    0  503  0.79276375385E+02 -0.16983780133E+03 -0.15795030380E+01  0.25439362666E+03  0.17200000000E+03 0. -1.
</event>
<event>
 4    1  0.5874615E+000  0.2217368E+03  0.7818608E-02  0.1132595E+00
         21   -1    0    0  503  502  0.00000000000E+00  0.00000000000E+00  0.36074096469E+03  0.36074096469E+03  0.00000000000E+00 0. -1.
         21   -1    0    0  501  503 -0.00000000000E+00 -0.00000000000E+00 -0.23449900600E+03  0.23449900600E+03  0.00000000000E+00 0.  1.
          6    1    1    2  501    0 -0.98996098573E+01  0.13958948735E+03 -0.12947887763E+03  0.25677228629E+03  0.17200000000E+03 0.  1.
         -6    1    1    2    0  502  0.98996098573E+01 -0.13958948735E+03  0.25572083632E+03  0.33846768440E+03  0.17200000000E+03 0. -1.
</event>
<event>
 4    1  0.5874615E+000  0.1744948E+03  0.7818608E-02  0.1173240E+00
         21   -1    0    0  503  502  0.00000000000E+00  0.00000000000E+00  0.31795721302E+02  0.31795721302E+02  0.00000000000E+00 0. -1.
         21   -1    0    0  501  503 -0.00000000000E+00 -0.00000000000E+00 -0.99628502086E+03  0.99628502086E+03  0.00000000000E+00 0. -1.
          6    1    1    2  501    0 -0.19273522798E+02 -0.22202648010E+02 -0.58350230723E+03  0.60903478456E+03  0.17200000000E+03 0. -1.
         -6    1    1    2    0  502  0.19273522798E+02  0.22202648010E+02 -0.38098699232E+03  0.41904595759E+03  0.17200000000E+03 0. -1.
</event>
<event>
 4    1  0.5874615E+000  0.1788839E+03  0.7818608E-02  0.1168888E+00
         21   -1    0    0  503  502  0.00000000000E+00  0.00000000000E+00  0.14961170614E+03  0.14961170614E+03  0.00000000000E+00 0. -1.
         21   -1    0    0  501  503 -0.00000000000E+00 -0.00000000000E+00 -0.53264172244E+03  0.53264172244E+03  0.00000000000E+00 0. -1.
          6    1    1    2  501    0 -0.33473698607E+02  0.35985786837E+02 -0.45540862394E+03  0.48928159592E+03  0.17200000000E+03 0. -1.
         -6    1    1    2    0  502  0.33473698607E+02 -0.35985786837E+02  0.72378607636E+02  0.19297183265E+03  0.17200000000E+03 0. -1.
</event>
<event>
 4    1  0.5874615E+000  0.2011041E+03  0.7818608E-02  0.1148811E+00
         21   -1    0    0  503  502  0.00000000000E+00  0.00000000000E+00  0.66987000782E+03  0.66987000782E+03  0.00000000000E+00 0.  1.
         21   -1    0    0  501  503 -0.00000000000E+00 -0.00000000000E+00 -0.84413635186E+02  0.84413635186E+02  0.00000000000E+00 0.  1.
          6    1    1    2  501    0  0.10032243474E+03 -0.28183079916E+02  0.91466840208E+02  0.22092772521E+03  0.17200000000E+03 0. -1.
         -6    1    1    2    0  502 -0.10032243474E+03  0.28183079916E+02  0.49398953242E+03  0.53335591780E+03  0.17200000000E+03 0. -1.
</event>
<event>
 4    1  0.5874615E+000  0.2248630E+03  0.7818608E-02  0.1130309E+00
         21   -1    0    0  503  502  0.00000000000E+00  0.00000000000E+00  0.11328970350E+04  0.11328970350E+04  0.00000000000E+00 0. -1.
         21   -1    0    0  501  503 -0.00000000000E+00 -0.00000000000E+00 -0.77818416263E+02  0.77818416263E+02  0.00000000000E+00 0. -1.
          6    1    1    2  501    0 -0.14047265958E+03  0.35310100538E+02  0.13221675895E+03  0.26085368051E+03  0.17200000000E+03 0. -1.
         -6    1    1    2    0  502  0.14047265958E+03 -0.35310100538E+02  0.92286185974E+03  0.94986177070E+03  0.17200000000E+03 0. -1.
</event>
<event>
 4    1  0.5874615E+000  0.2090612E+03  0.7818608E-02  0.1142312E+00
         21   -1    0    0  503  502  0.00000000000E+00  0.00000000000E+00  0.20026160387E+03  0.20026160387E+03  0.00000000000E+00 0.  1.
         21   -1    0    0  501  503 -0.00000000000E+00 -0.00000000000E+00 -0.44009105546E+03  0.44009105546E+03  0.00000000000E+00 0.  1.
          6    1    1    2  501    0 -0.78798909686E+02 -0.88956925911E+02 -0.34723664713E+03  0.40531455926E+03  0.17200000000E+03 0.  1.
         -6    1    1    2    0  502  0.78798909686E+02  0.88956925911E+02  0.10740719554E+03  0.23503810008E+03  0.17200000000E+03 0.  1.
</event>
<event>
 4    1  0.5874615E+000  0.1778704E+03  0.7818608E-02  0.1169880E+00
         21   -1    0    0  501  502  0.00000000000E+00  0.00000000000E+00  0.64982018841E+03  0.64982018841E+03  0.00000000000E+00 0.  1.
         21   -1    0    0  502  503 -0.00000000000E+00 -0.00000000000E+00 -0.58481065786E+02  0.58481065786E+02  0.00000000000E+00 0.  1.
          6    1    1    2  501    0 -0.27970623657E+02 -0.35658566817E+02  0.44059969354E+03  0.47514837590E+03  0.17200000000E+03 0.  1.
         -6    1    1    2    0  503  0.27970623657E+02  0.35658566817E+02  0.15073942908E+03  0.23315287829E+03  0.17200000000E+03 0.  1.
</event>
<event>
 4    1  0.5874615E+000  0.1879589E+03  0.7818608E-02  0.1160315E+00
         21   -1    0    0  503  502  0.00000000000E+00  0.00000000000E+00  0.64113309492E+02  0.64113309492E+02  0.00000000000E+00 0. -1.
         21   -1    0    0  501  503 -0.00000000000E+00 -0.00000000000E+00 -0.61182047695E+03  0.61182047695E+03  0.00000000000E+00 0. -1.
          6    1    1    2  501    0 -0.63595191190E+01  0.75525519450E+02 -0.16732422594E+03  0.25164646661E+03  0.17200000000E+03 0. -1.
         -6    1    1    2    0  502  0.63595191190E+01 -0.75525519450E+02 -0.38038294151E+03  0.42428731983E+03  0.17200000000E+03 0. -1.
</event>
<event>
 4    1  0.5874615E+000  0.2412622E+03  0.7818608E-02  0.1118955E+00
         21   -1    0    0  503  502  0.00000000000E+00  0.00000000000E+00  0.15024584482E+03  0.15024584482E+03  0.00000000000E+00 0.  1.
         21   -1    0    0  501  503 -0.00000000000E+00 -0.00000000000E+00 -0.38977304102E+03  0.38977304102E+03  0.00000000000E+00 0. -1.
          6    1    1    2  501    0  0.16903547484E+03 -0.71037482784E+01 -0.14076617676E+03  0.27932520745E+03  0.17200000000E+03 0.  1.
         -6    1    1    2    0  502 -0.16903547484E+03  0.71037482784E+01 -0.98761019435E+02  0.26069367839E+03  0.17200000000E+03 0.  1.
</event>
<event>
 4    1  0.5874615E+000  0.2189929E+03  0.7818608E-02  0.1134636E+00
         21   -1    0    0  501  502  0.00000000000E+00  0.00000000000E+00  0.14527026923E+03  0.14527026923E+03  0.00000000000E+00 0. -1.
         21   -1    0    0  502  503 -0.00000000000E+00 -0.00000000000E+00 -0.33125948094E+03  0.33125948094E+03  0.00000000000E+00 0. -1.
          6    1    1    2  501    0 -0.23973550956E+02 -0.13341348892E+03 -0.79073990363E+02  0.23283166907E+03  0.17200000000E+03 0. -1.
         -6    1    1    2    0  503  0.23973550956E+02  0.13341348892E+03 -0.10691522135E+03  0.24369808109E+03  0.17200000000E+03 0. -1.
</event>
<event>
 4    1  0.5874615E+000  0.1905602E+03  0.7818608E-02  0.1157957E+00
         21   -1    0    0  503  502  0.00000000000E+00  0.00000000000E+00  0.23224244018E+03  0.23224244018E+03  0.00000000000E+00 0. -1.
         21   -1    0    0  501  503 -0.00000000000E+00 -0.00000000000E+00 -0.15713980312E+03  0.15713980312E+03  0.00000000000E+00 0.  1.
          6    1    1    2  501    0  0.29763179956E+02  0.76441697188E+02  0.51275696778E+02  0.19733823003E+03  0.17200000000E+03 0. -1.
         -6    1    1    2    0  502 -0.29763179956E+02 -0.76441697188E+02  0.23826940286E+02  0.19204401327E+03  0.17200000000E+03 0.  1.
</event>
<event>
 4    1  0.5874615E+000  0.1969934E+03  0.7818608E-02  0.1152301E+00
         21   -1    0    0  501  502  0.00000000000E+00  0.00000000000E+00  0.24854446244E+03  0.24854446244E+03  0.00000000000E+00 0.  1.
         21   -1    0    0  502  503 -0.00000000000E+00 -0.00000000000E+00 -0.33650091778E+03  0.33650091778E+03  0.00000000000E+00 0. -1.
          6    1    1    2  501    0  0.39733757946E+02  0.87427830994E+02 -0.25814106804E+03  0.32472019981E+03  0.17200000000E+03 0. -1.
         -6    1    1    2    0  503 -0.39733757946E+02 -0.87427830994E+02  0.17018461271E+03  0.26032518041E+03  0.17200000000E+03 0.  1.
</event>
<event>
 4    1  0.5874615E+000  0.1866749E+03  0.7818608E-02  0.1161495E+00
         21   -1    0    0  503  502  0.00000000000E+00  0.00000000000E+00  0.54304107052E+03  0.54304107052E+03  0.00000000000E+00 0. -1.
         21   -1    0    0  501  503 -0.00000000000E+00 -0.00000000000E+00 -0.64931042504E+02  0.64931042504E+02  0.00000000000E+00 0. -1.
          6    1    1    2  501    0 -0.44966776957E+02 -0.56934145134E+02  0.27194291993E+03  0.32984914675E+03  0.17200000000E+03 0. -1.
         -6    1    1    2    0  502  0.44966776957E+02  0.56934145134E+02  0.20616710809E+03  0.27812296627E+03  0.17200000000E+03 0. -1.
</event>
<event>
 4    1  0.5874615E+000  0.1883346E+03  0.7818608E-02  0.1159972E+00
         21   -1    0    0  503  502  0.00000000000E+00  0.00000000000E+00  0.45586594539E+03  0.45586594539E+03  0.00000000000E+00 0.  1.
         21   -1    0    0  501  503 -0.00000000000E+00 -0.00000000000E+00 -0.48120349807E+03  0.48120349807E+03  0.00000000000E+00 0.  1.
          6    1    1    2  501    0  0.22558620852E+02  0.73328164902E+02 -0.44165470007E+03  0.48013413255E+03  0.17200000000E+03 0.  1.
         -6    1    1    2    0  502 -0.22558620852E+02 -0.73328164902E+02  0.41631714740E+03  0.45693531091E+03  0.17200000000E+03 0.  1.
</event>
<event>
 4    1  0.5874615E+000  0.4418688E+03  0.7818608E-02  0.1030175E+00
         21   -1    0    0  501  502  0.00000000000E+00  0.00000000000E+00  0.22203055477E+04  0.22203055477E+04  0.00000000000E+00 0.  1.
         21   -1    0    0  502  503 -0.00000000000E+00 -0.00000000000E+00 -0.10221628457E+03  0.10221628457E+03  0.00000000000E+00 0. -1.
          6    1    1    2  501    0  0.40693884177E+03 -0.80502367126E+01  0.14930708988E+04  0.15570834070E+04  0.17200000000E+03 0.  1.
         -6    1    1    2    0  503 -0.40693884177E+03  0.80502367126E+01  0.62501836435E+03  0.76543842536E+03  0.17200000000E+03 0. -1.
</event>
<event>
 4    1  0.5874615E+000  0.2346807E+03  0.7818608E-02  0.1123388E+00
         21   -1    0    0  503  502  0.00000000000E+00  0.00000000000E+00  0.48779398238E+03  0.48779398238E+03  0.00000000000E+00 0. -1.
         21   -1    0    0  501  503 -0.00000000000E+00 -0.00000000000E+00 -0.13418314420E+03  0.13418314420E+03  0.00000000000E+00 0.  1.
          6    1    1    2  501    0  0.15938380776E+03  0.93731006216E+01  0.30064179010E+03  0.38139289342E+03  0.17200000000E+03 0. -1.
         -6    1    1    2    0  502 -0.15938380776E+03 -0.93731006216E+01  0.52969048086E+02  0.24058423317E+03  0.17200000000E+03 0.  1.
</event>
<event>
 4    1  0.5874615E+000  0.2262338E+03  0.7818608E-02  0.1129319E+00
         21   -1    0    0  503  502  0.00000000000E+00  0.00000000000E+00  0.20893169135E+04  0.20893169135E+04  0.00000000000E+00 0. -1.
         21   -1    0    0  501  503 -0.00000000000E+00 -0.00000000000E+00 -0.35351872798E+02  0.35351872798E+02  0.00000000000E+00 0. -1.
          6    1    1    2  501    0  0.10274431934E+03  0.10507784162E+03  0.43831540246E+03  0.49325666745E+03  0.17200000000E+03 0. -1.
         -6    1    1    2    0  502 -0.10274431934E+03 -0.10507784162E+03  0.16156496382E+04  0.16314121188E+04  0.17200000000E+03 0. -1.
</event>
<event>
 4    1  0.5874615E+000  0.2549322E+03  0.7818608E-02  0.1110227E+00
         21   -1    0    0  503  502  0.00000000000E+00  0.00000000000E+00  0.14030349064E+03  0.14030349064E+03  0.00000000000E+00 0. -1.
         21   -1    0    0  501  503 -0.00000000000E+00 -0.00000000000E+00 -0.92714290509E+03  0.92714290509E+03  0.00000000000E+00 0.  1.
          6    1    1    2  501    0  0.31662839426E+02  0.18548282751E+03 -0.15874572873E+02  0.25542595163E+03  0.17200000000E+03 0. -1.
         -6    1    1    2    0  502 -0.31662839426E+02 -0.18548282751E+03 -0.77096484157E+03  0.81202044410E+03  0.17200000000E+03 0.  1.
</event>
<event>
 4    1  0.5874615E+000  0.1834465E+03  0.7818608E-02  0.1164509E+00
         21   -1    0    0  503  502  0.00000000000E+00  0.00000000000E+00  0.65286020843E+03  0.65286020843E+03  0.00000000000E+00 0.  1.
         21   -1    0    0  501  503 -0.00000000000E+00 -0.00000000000E+00 -0.72085584530E+02  0.72085584530E+02  0.00000000000E+00 0.  1.
          6    1    1    2  501    0 -0.54147618064E+02 -0.33714327879E+02  0.96904456936E+02  0.20746829690E+03  0.17200000000E+03 0.  1.
         -6    1    1    2    0  502  0.54147618064E+02  0.33714327879E+02  0.48387016696E+03  0.51747749605E+03  0.17200000000E+03 0.  1.
</event>
<event>
 4    1  0.5874615E+000  0.2141978E+03  0.7818608E-02  0.1138284E+00
         21   -1    0    0  503  502  0.00000000000E+00  0.00000000000E+00  0.10278868848E+03  0.10278868848E+03  0.00000000000E+00 0.  1.
         21   -1    0    0  501  503 -0.00000000000E+00 -0.00000000000E+00 -0.63250423994E+03  0.63250423994E+03  0.00000000000E+00 0. -1.
          6    1    1    2  501    0  0.82993464935E+02  0.96998821333E+02 -0.46430330052E+03  0.51132987536E+03  0.17200000000E+03 0. -1.
         -6    1    1    2    0  502 -0.82993464935E+02 -0.96998821333E+02 -0.65412250941E+02  0.22396305306E+03  0.17200000000E+03 0.  1.
</event>
<event>
 4    1  0.5874615E+000  0.1727372E+03  0.7818608E-02  0.1175023E+00
         21   -1    0    0  503  502  0.00000000000E+00  0.00000000000E+00  0.16439053925E+03  0.16439053925E+03  0.00000000000E+00 0.  1.
         21   -1    0    0  501  503 -0.00000000000E+00 -0.00000000000E+00 -0.59556680849E+03  0.59556680849E+03  0.00000000000E+00 0.  1.
          6    1    1    2  501    0  0.46281717319E+01 -0.15255101459E+02 -0.53241732299E+03  0.55973774566E+03  0.17200000000E+03 0.  1.
         -6    1    1    2    0  502 -0.46281717319E+01  0.15255101459E+02  0.10124105375E+03  0.20021960208E+03  0.17200000000E+03 0.  1.
</event>
<event>
 4    1  0.5874615E+000  0.2153147E+03  0.7818608E-02  0.1137425E+00
         21   -1    0    0  503  502  0.00000000000E+00  0.00000000000E+00  0.18449363611E+03  0.18449363611E+03  0.00000000000E+00 0. -1.
         21   -1    0    0  501  503 -0.00000000000E+00 -0.00000000000E+00 -0.35499981341E+03  0.35499981341E+03  0.00000000000E+00 0. -1.
          6    1    1    2  501    0 -0.12249748967E+03 -0.42080748498E+02  0.60548810969E+02  0.22366623097E+03  0.17200000000E+03 0. -1.
         -6    1    1    2    0  502  0.12249748967E+03  0.42080748498E+02 -0.23105498827E+03  0.31582721854E+03  0.17200000000E+03 0. -1.
</event>
<event>
 4    1  0.5874615E+000  0.2426916E+03  0.7818608E-02  0.1118013E+00
         21   -1    0    0  501  502  0.00000000000E+00  0.00000000000E+00  0.81190542199E+02  0.81190542199E+02  0.00000000000E+00 0. -1.
         21   -1    0    0  502  503 -0.00000000000E+00 -0.00000000000E+00 -0.72622034275E+03  0.72622034275E+03  0.00000000000E+00 0.  1.
          6    1    1    2  501    0 -0.91535415322E+01 -0.17097197026E+03 -0.30931648263E+03  0.39316140243E+03  0.17200000000E+03 0.  1.
         -6    1    1    2    0  503  0.91535415322E+01  0.17097197026E+03 -0.33571331792E+03  0.41424948251E+03  0.17200000000E+03 0. -1.
</event>
<event>
 4    1  0.5874615E+000  0.2278509E+03  0.7818608E-02  0.1128162E+00
         21   -1    0    0  501  502  0.00000000000E+00  0.00000000000E+00  0.55611338556E+02  0.55611338556E+02  0.00000000000E+00 0. -1.
         21   -1    0    0  502  503 -0.00000000000E+00 -0.00000000000E+00 -0.13551512988E+04  0.13551512988E+04  0.00000000000E+00 0. -1.
          6    1    1    2  501    0 -0.17536442400E+02  0.14840657926E+03 -0.25632832252E+03  0.34295808564E+03  0.17200000000E+03 0. -1.
         -6    1    1    2    0  503  0.17536442400E+02 -0.14840657926E+03 -0.10432116377E+04  0.10678045517E+04  0.17200000000E+03 0. -1.
</event>
<event>
 4    1  0.5874615E+000  0.2061812E+03  0.7818608E-02  0.1144626E+00
         21   -1    0    0  503  502  0.00000000000E+00  0.00000000000E+00  0.55196698697E+02  0.55196698697E+02  0.00000000000E+00 0. -1.
         21   -1    0    0  501  503 -0.00000000000E+00 -0.00000000000E+00 -0.78581992964E+03  0.78581992964E+03  0.00000000000E+00 0. -1.
          6    1    1    2  501    0 -0.47383965224E+02  0.10335113783E+03 -0.42465951510E+03  0.47206609877E+03  0.17200000000E+03 0. -1.
         -6    1    1    2    0  502  0.47383965224E+02 -0.10335113783E+03 -0.30596371585E+03  0.36895052956E+03  0.17200000000E+03 0. -1.
</event>
<event>
 4    1  0.5874615E+000  0.2215178E+03  0.7818608E-02  0.1132757E+00
         21   -1    0    0  501  502  0.00000000000E+00  0.00000000000E+00  0.18140823392E+03  0.18140823392E+03  0.00000000000E+00 0.  1.
         21   -1    0    0  502  503 -0.00000000000E+00 -0.00000000000E+00 -0.29846795987E+03  0.29846795987E+03  0.00000000000E+00 0.  1.
          6    1    1    2  501    0  0.13855642279E+03  0.16978149670E+02 -0.13198369259E+03  0.25785622927E+03  0.17200000000E+03 0.  1.
         -6    1    1    2    0  503 -0.13855642279E+03 -0.16978149670E+02  0.14923966641E+02  0.22201996452E+03  0.17200000000E+03 0.  1.
</event>
<event>
 4    1  0.5874615E+000  0.2275053E+03  0.7818608E-02  0.1128408E+00
         21   -1    0    0  503  502  0.00000000000E+00  0.00000000000E+00  0.32256770083E+03  0.32256770083E+03  0.00000000000E+00 0.  1.
         21   -1    0    0  501  503 -0.00000000000E+00 -0.00000000000E+00 -0.17277581736E+03  0.17277581736E+03  0.00000000000E+00 0. -1.
          6    1    1    2  501    0  0.12710268904E+03 -0.77585861289E+02  0.87661886057E+01  0.22767412127E+03  0.17200000000E+03 0. -1.
         -6    1    1    2    0  502 -0.12710268904E+03  0.77585861289E+02  0.14102569487E+03  0.26766939692E+03  0.17200000000E+03 0.  1.
</event>
<event>
 4    1  0.5874615E+000  0.2101119E+03  0.7818608E-02  0.1141477E+00
         21   -1    0    0  501  502  0.00000000000E+00  0.00000000000E+00  0.19802313138E+03  0.19802313138E+03  0.00000000000E+00 0. -1.
         21   -1    0    0  502  503 -0.00000000000E+00 -0.00000000000E+00 -0.42176678975E+03  0.42176678975E+03  0.00000000000E+00 0.  1.
          6    1    1    2  501    0  0.11977148714E+03 -0.14757995307E+02  0.10090153467E+03  0.23308394894E+03  0.17200000000E+03 0. -1.
         -6    1    1    2    0  503 -0.11977148714E+03  0.14757995307E+02 -0.32464519305E+03  0.38670597219E+03  0.17200000000E+03 0.  1.
</event>
<event>
 4    1  0.5874615E+000  0.2579933E+03  0.7818608E-02  0.1108355E+00
         21   -1    0    0  501  502  0.00000000000E+00  0.00000000000E+00  0.93258307289E+02  0.93258307289E+02  0.00000000000E+00 0.  1.
         21   -1    0    0  502  503 -0.00000000000E+00 -0.00000000000E+00 -0.83184366899E+03  0.83184366899E+03  0.00000000000E+00 0.  1.
          6    1    1    2  501    0 -0.18160036048E+03  0.63228428392E+02 -0.19499036458E+03  0.32339104404E+03  0.17200000000E+03 0.  1.
         -6    1    1    2    0  503  0.18160036048E+03 -0.63228428392E+02 -0.54359499712E+03  0.60171093224E+03  0.17200000000E+03 0.  1.
</event>
<event>
 4    1  0.5874615E+000  0.2049373E+03  0.7818608E-02  0.1145639E+00
         21   -1    0    0  503  502  0.00000000000E+00  0.00000000000E+00  0.77371625145E+02  0.77371625145E+02  0.00000000000E+00 0. -1.
         21   -1    0    0  501  503 -0.00000000000E+00 -0.00000000000E+00 -0.63408700655E+03  0.63408700655E+03  0.00000000000E+00 0. -1.
          6    1    1    2  501    0 -0.10056650903E+03  0.47975879222E+02 -0.41331255287E+03  0.46133130621E+03  0.17200000000E+03 0.  1.
         -6    1    1    2    0  502  0.10056650903E+03 -0.47975879222E+02 -0.14340282853E+03  0.25012732549E+03  0.17200000000E+03 0.  1.
</event>
<event>
 4    1  0.5874615E+000  0.3461337E+03  0.7818608E-02  0.1064213E+00
         21   -1    0    0  503  502  0.00000000000E+00  0.00000000000E+00  0.45159995415E+03  0.45159995415E+03  0.00000000000E+00 0. -1.
         21   -1    0    0  501  503 -0.00000000000E+00 -0.00000000000E+00 -0.27539244000E+03  0.27539244000E+03  0.00000000000E+00 0.  1.
          6    1    1    2  501    0 -0.85336130148E+02 -0.28799696156E+03  0.18510394353E+02  0.34662824419E+03  0.17200000000E+03 0. -1.
         -6    1    1    2    0  502  0.85336130148E+02  0.28799696156E+03  0.15769711980E+03  0.38036414995E+03  0.17200000000E+03 0.  1.
</event>
<event>
 4    1  0.5874615E+000  0.1832620E+03  0.7818608E-02  0.1164683E+00
         21   -1    0    0  503  502  0.00000000000E+00  0.00000000000E+00  0.12977832934E+03  0.12977832934E+03  0.00000000000E+00 0. -1.
         21   -1    0    0  501  503 -0.00000000000E+00 -0.00000000000E+00 -0.37563484787E+03  0.37563484787E+03  0.00000000000E+00 0. -1.
          6    1    1    2  501    0  0.76718790094E+01 -0.62786086557E+02  0.18014867608E+02  0.18414528462E+03  0.17200000000E+03 0. -1.
         -6    1    1    2    0  502 -0.76718790094E+01  0.62786086557E+02 -0.26387138614E+03  0.32126789260E+03  0.17200000000E+03 0. -1.
</event>
<event>
 4    1  0.5874615E+000  0.1754993E+03  0.7818608E-02  0.1172231E+00
         21   -1    0    0  501  502  0.00000000000E+00  0.00000000000E+00  0.24350560280E+03  0.24350560280E+03  0.00000000000E+00 0. -1.
         21   -1    0    0  502  503 -0.00000000000E+00 -0.00000000000E+00 -0.18712794634E+03  0.18712794634E+03  0.00000000000E+00 0. -1.
          6    1    1    2  501    0 -0.17810663126E+02  0.29979614331E+02  0.15076212872E+03  0.23136381837E+03  0.17200000000E+03 0. -1.
         -6    1    1    2    0  503  0.17810663126E+02 -0.29979614331E+02 -0.94384472259E+02  0.19926973077E+03  0.17200000000E+03 0. -1.
</event>
<event>
 4    1  0.5874615E+000  0.1848039E+03  0.7818608E-02  0.1163233E+00
         21   -1    0    0  503  502  0.00000000000E+00  0.00000000000E+00  0.18995035909E+02  0.18995035909E+02  0.00000000000E+00 0. -1.
         21   -1    0    0  501  503 -0.00000000000E+00 -0.00000000000E+00 -0.20499746219E+04  0.20499746219E+04  0.00000000000E+00 0.  1.
          6    1    1    2  501    0  0.11540625746E+02 -0.66598062053E+02 -0.13781959258E+04  0.13905310129E+04  0.17200000000E+03 0.  1.
         -6    1    1    2    0  502 -0.11540625746E+02  0.66598062053E+02 -0.65278366022E+03  0.67843864495E+03  0.17200000000E+03 0. -1.
</event>
<event>
 4    1  0.5874615E+000  0.2149573E+03  0.7818608E-02  0.1137699E+00
         21   -1    0    0  501  502  0.00000000000E+00  0.00000000000E+00  0.34800278736E+03  0.34800278736E+03  0.00000000000E+00 0. -1.
         21   -1    0    0  502  503 -0.00000000000E+00 -0.00000000000E+00 -0.91458601631E+03  0.91458601631E+03  0.00000000000E+00 0.  1.
          6    1    1    2  501    0  0.90191590994E+02 -0.92130945971E+02  0.30038205532E+03  0.36937245898E+03  0.17200000000E+03 0. -1.
         -6    1    1    2    0  503 -0.90191590994E+02  0.92130945971E+02 -0.86696528427E+03  0.89321634469E+03  0.17200000000E+03 0.  1.
</event>
<event>
 4    1  0.5874615E+000  0.2331697E+03  0.7818608E-02  0.1124428E+00
         21   -1    0    0  503  502  0.00000000000E+00  0.00000000000E+00  0.37113542309E+03  0.37113542309E+03  0.00000000000E+00 0. -1.
         21   -1    0    0  501  503 -0.00000000000E+00 -0.00000000000E+00 -0.35837422255E+03  0.35837422255E+03  0.00000000000E+00 0.  1.
          6    1    1    2  501    0 -0.11525799053E+03  0.10723671403E+03 -0.27408565766E+03  0.35984866951E+03  0.17200000000E+03 0.  1.
         -6    1    1    2    0  502  0.11525799053E+03 -0.10723671403E+03  0.28684685819E+03  0.36966097613E+03  0.17200000000E+03 0. -1.
</event>
<event>
 4    1  0.5874615E+000  0.2362998E+03  0.7818608E-02  0.1122283E+00
         21   -1    0    0  501  502  0.00000000000E+00  0.00000000000E+00  0.11455068162E+03  0.11455068162E+03  0.00000000000E+00 0.  1.
         21   -1    0    0  502  503 -0.00000000000E+00 -0.00000000000E+00 -0.58970161586E+03  0.58970161586E+03  0.00000000000E+00 0.  1.
          6    1    1    2  501    0  0.80691081447E+02  0.14050820043E+03 -0.90946586067E+02  0.25319732726E+03  0.17200000000E+03 0.  1.
         -6    1    1    2    0  503 -0.80691081447E+02 -0.14050820043E+03 -0.38420434817E+03  0.45105497023E+03  0.17200000000E+03 0.  1.
</event>
<event>
 4    1  0.5874615E+000  0.1996948E+03  0.7818608E-02  0.1149997E+00
         21   -1    0    0  501  502  0.00000000000E+00  0.00000000000E+00  0.19739185826E+03  0.19739185826E+03  0.00000000000E+00 0.  1.
         21   -1    0    0  502  503 -0.00000000000E+00 -0.00000000000E+00 -0.37643065361E+03  0.37643065361E+03  0.00000000000E+00 0. -1.
          6    1    1    2  501    0 -0.14896208399E+02  0.10035993193E+03  0.10577323597E+03  0.22597785380E+03  0.17200000000E+03 0.  1.
         -6    1    1    2    0  503  0.14896208399E+02 -0.10035993193E+03 -0.28481203131E+03  0.34784465806E+03  0.17200000000E+03 0. -1.
</event>
<event>
 4    1  0.5874615E+000  0.1812678E+03  0.7818608E-02  0.1166582E+00
         21   -1    0    0  501  502  0.00000000000E+00  0.00000000000E+00  0.16134688307E+04  0.16134688307E+04  0.00000000000E+00 0.  1.
         21   -1    0    0  502  503 -0.00000000000E+00 -0.00000000000E+00 -0.23351801683E+02  0.23351801683E+02  0.00000000000E+00 0.  1.
          6    1    1    2  501    0 -0.27660527330E+02 -0.50088914355E+02  0.10877614627E+04  0.11027615354E+04  0.17200000000E+03 0.  1.
         -6    1    1    2    0  503  0.27660527330E+02  0.50088914355E+02  0.50235556631E+03  0.53405909703E+03  0.17200000000E+03 0.  1.
</event>
<event>
 4    1  0.5874615E+000  0.1914028E+03  0.7818608E-02  0.1157202E+00
         21   -1    0    0  503  502  0.00000000000E+00  0.00000000000E+00  0.15614365733E+03  0.15614365733E+03  0.00000000000E+00 0. -1.
         21   -1    0    0  501  503 -0.00000000000E+00 -0.00000000000E+00 -0.23629584314E+03  0.23629584314E+03  0.00000000000E+00 0.  1.
          6    1    1    2  501    0  0.48758981440E+02  0.68363678809E+02 -0.23570622035E+02  0.19284865847E+03  0.17200000000E+03 0.  1.
         -6    1    1    2    0  502 -0.48758981440E+02 -0.68363678809E+02 -0.56581563769E+02  0.19959084200E+03  0.17200000000E+03 0. -1.
</event>
<event>
 4    1  0.5874615E+000  0.2923261E+03  0.7818608E-02  0.1089141E+00
         21   -1    0    0  501  502  0.00000000000E+00  0.00000000000E+00  0.37648535187E+03  0.37648535187E+03  0.00000000000E+00 0.  1.
         21   -1    0    0  502  503 -0.00000000000E+00 -0.00000000000E+00 -0.24876809306E+03  0.24876809306E+03  0.00000000000E+00 0.  1.
          6    1    1    2  501    0 -0.23313529661E+03 -0.38968006080E+02  0.15637962685E+03  0.33152550387E+03  0.17200000000E+03 0.  1.
         -6    1    1    2    0  503  0.23313529661E+03  0.38968006080E+02 -0.28662368044E+02  0.29372794107E+03  0.17200000000E+03 0.  1.
</event>
<event>
 4    1  0.5874615E+000  0.2013988E+03  0.7818608E-02  0.1148564E+00
         21   -1    0    0  501  502  0.00000000000E+00  0.00000000000E+00  0.34891931387E+03  0.34891931387E+03  0.00000000000E+00 0.  1.
         21   -1    0    0  502  503 -0.00000000000E+00 -0.00000000000E+00 -0.20686763885E+03  0.20686763885E+03  0.00000000000E+00 0.  1.
          6    1    1    2  501    0 -0.17459696435E+02  0.10330851760E+03  0.25495095821E+03  0.32490226515E+03  0.17200000000E+03 0.  1.
         -6    1    1    2    0  503  0.17459696435E+02 -0.10330851760E+03 -0.11289928319E+03  0.23088468757E+03  0.17200000000E+03 0.  1.
</event>
<event>
 4    1  0.5874615E+000  0.2395459E+03  0.7818608E-02  0.1120096E+00
         21   -1    0    0  501  502  0.00000000000E+00  0.00000000000E+00  0.90940751422E+02  0.90940751422E+02  0.00000000000E+00 0.  1.
         21   -1    0    0  502  503 -0.00000000000E+00 -0.00000000000E+00 -0.13906559191E+04  0.13906559191E+04  0.00000000000E+00 0.  1.
          6    1    1    2  501    0 -0.70630791274E+02 -0.15102825298E+03 -0.11973812928E+04  0.12211077767E+04  0.17200000000E+03 0.  1.
         -6    1    1    2    0  503  0.70630791274E+02  0.15102825298E+03 -0.10233387486E+03  0.26048889385E+03  0.17200000000E+03 0.  1.
</event>
<event>
 4    1  0.5874615E+000  0.1726137E+03  0.7818608E-02  0.1175149E+00
         21   -1    0    0  501  502  0.00000000000E+00  0.00000000000E+00  0.30024883798E+03  0.30024883798E+03  0.00000000000E+00 0. -1.
         21   -1    0    0  502  503 -0.00000000000E+00 -0.00000000000E+00 -0.10878011485E+03  0.10878011485E+03  0.00000000000E+00 0. -1.
          6    1    1    2  501    0  0.12398457208E+02  0.76005784038E+01  0.15631270114E+03  0.23287153341E+03  0.17200000000E+03 0.  1.
         -6    1    1    2    0  503 -0.12398457208E+02 -0.76005784038E+01  0.35156021992E+02  0.17615741942E+03  0.17200000000E+03 0.  1.
</event>
<event>
 4    1  0.5874615E+000  0.1774641E+03  0.7818608E-02  0.1170280E+00
         21   -1    0    0  503  502  0.00000000000E+00  0.00000000000E+00  0.25590185152E+03  0.25590185152E+03  0.00000000000E+00 0.  1.
         21   -1    0    0  501  503 -0.00000000000E+00 -0.00000000000E+00 -0.17871904804E+03  0.17871904804E+03  0.00000000000E+00 0.  1.
          6    1    1    2  501    0  0.31302705989E+02  0.30490046378E+02 -0.82671853167E+02  0.19577573301E+03  0.17200000000E+03 0. -1.
         -6    1    1    2    0  502 -0.31302705989E+02 -0.30490046378E+02  0.15985465665E+03  0.23884516655E+03  0.17200000000E+03 0. -1.
</event>
<event>
 4    1  0.5874615E+000  0.2781666E+03  0.7818608E-02  0.1096695E+00
         21   -1    0    0  501  502  0.00000000000E+00  0.00000000000E+00  0.96939716548E+03  0.96939716548E+03  0.00000000000E+00 0.  1.
         21   -1    0    0  502  503 -0.00000000000E+00 -0.00000000000E+00 -0.20338017833E+03  0.20338017833E+03  0.00000000000E+00 0. -1.
          6    1    1    2  501    0 -0.17984685374E+03 -0.12428913264E+03  0.84006680975E+03  0.88492311764E+03  0.17200000000E+03 0.  1.
         -6    1    1    2    0  503  0.17984685374E+03  0.12428913264E+03 -0.74049822608E+02  0.28785422616E+03  0.17200000000E+03 0. -1.
</event>
<event>
 4    1  0.5874615E+000  0.1965302E+03  0.7818608E-02  0.1152700E+00
         21   -1    0    0  503  502  0.00000000000E+00  0.00000000000E+00  0.18041258091E+03  0.18041258091E+03  0.00000000000E+00 0. -1.
         21   -1    0    0  501  503 -0.00000000000E+00 -0.00000000000E+00 -0.47883392966E+03  0.47883392966E+03  0.00000000000E+00 0. -1.
          6    1    1    2  501    0 -0.94765696002E+02  0.77194242244E+01 -0.39430893122E+03  0.44057196902E+03  0.17200000000E+03 0. -1.
         -6    1    1    2    0  502  0.94765696002E+02 -0.77194242244E+01  0.95887582470E+02  0.21867454155E+03  0.17200000000E+03 0. -1.
</event>
<event>
 4    1  0.5874615E+000  0.4019325E+03  0.7818608E-02  0.1043113E+00
         21   -1    0    0  503  502  0.00000000000E+00  0.00000000000E+00  0.28992007987E+04  0.28992007987E+04  0.00000000000E+00 0. -1.
         21   -1    0    0  501  503 -0.00000000000E+00 -0.00000000000E+00 -0.17918819871E+03  0.17918819871E+03  0.00000000000E+00 0.  1.
          6    1    1    2  501    0 -0.79278503867E+02 -0.35451471965E+03  0.82354428439E+02  0.41028285305E+03  0.17200000000E+03 0.  1.
         -6    1    1    2    0  502  0.79278503867E+02  0.35451471965E+03  0.26376581716E+04  0.26681061444E+04  0.17200000000E+03 0. -1.
</event>
<event>
 4    1  0.5874615E+000  0.2887083E+03  0.7818608E-02  0.1091025E+00
         21   -1    0    0  503  502  0.00000000000E+00  0.00000000000E+00  0.17804049563E+03  0.17804049563E+03  0.00000000000E+00 0. -1.
         21   -1    0    0  501  503 -0.00000000000E+00 -0.00000000000E+00 -0.48977000447E+03  0.48977000447E+03  0.00000000000E+00 0.  1.
          6    1    1    2  501    0 -0.61447939828E+02 -0.22359032468E+03 -0.85736077674E+02  0.30116964922E+03  0.17200000000E+03 0.  1.
         -6    1    1    2    0  502  0.61447939828E+02  0.22359032468E+03 -0.22599343117E+03  0.36664085087E+03  0.17200000000E+03 0.  1.
</event>
<event>
 4    1  0.5874615E+000  0.1838653E+03  0.7818608E-02  0.1164114E+00
         21   -1    0    0  503  502  0.00000000000E+00  0.00000000000E+00  0.38658654831E+02  0.38658654831E+02  0.00000000000E+00 0.  1.
         21   -1    0    0  501  503 -0.00000000000E+00 -0.00000000000E+00 -0.13250917285E+04  0.13250917285E+04  0.00000000000E+00 0. -1.
          6    1    1    2  501    0 -0.25814138858E+02  0.59632893578E+02 -0.10408475787E+04  0.10569626927E+04  0.17200000000E+03 0. -1.
         -6    1    1    2    0  502  0.25814138858E+02 -0.59632893578E+02 -0.24558549500E+03  0.30678769062E+03  0.17200000000E+03 0.  1.
</event>
<event>
 4    1  0.5874615E+000  0.2250965E+03  0.7818608E-02  0.1130139E+00
         21   -1    0    0  501  502  0.00000000000E+00  0.00000000000E+00  0.68849593867E+02  0.68849593867E+02  0.00000000000E+00 0. -1.
         21   -1    0    0  502  503 -0.00000000000E+00 -0.00000000000E+00 -0.75182281616E+03  0.75182281616E+03  0.00000000000E+00 0. -1.
          6    1    1    2  501    0 -0.14419882012E+02  0.14448704948E+03 -0.40114763231E+03  0.45998680783E+03  0.17200000000E+03 0. -1.
         -6    1    1    2    0  503  0.14419882012E+02 -0.14448704948E+03 -0.28182558998E+03  0.36068560220E+03  0.17200000000E+03 0. -1.
</event>
<event>
 4    1  0.5874615E+000  0.2516152E+03  0.7818608E-02  0.1112288E+00
         21   -1    0    0  501  502  0.00000000000E+00  0.00000000000E+00  0.43625814918E+03  0.43625814918E+03  0.00000000000E+00 0.  1.
         21   -1    0    0  502  503 -0.00000000000E+00 -0.00000000000E+00 -0.14806040009E+03  0.14806040009E+03  0.00000000000E+00 0.  1.
          6    1    1    2  501    0  0.17547724737E+03 -0.54165791250E+02  0.18526435839E+03  0.31246292544E+03  0.17200000000E+03 0.  1.
         -6    1    1    2    0  503 -0.17547724737E+03  0.54165791250E+02  0.10293339070E+03  0.27185562383E+03  0.17200000000E+03 0.  1.
</event>
<event>
 4    1  0.5874615E+000  0.2090119E+03  0.7818608E-02  0.1142351E+00
         21   -1    0    0  503  502  0.00000000000E+00  0.00000000000E+00  0.25167714350E+04  0.25167714350E+04  0.00000000000E+00 0. -1.
         21   -1    0    0  501  503 -0.00000000000E+00 -0.00000000000E+00 -0.20504960565E+02  0.20504960565E+02  0.00000000000E+00 0.  1.
          6    1    1    2  501    0  0.10109109673E+03  0.62310205807E+02  0.17451350749E+04  0.17576070099E+04  0.17200000000E+03 0. -1.
         -6    1    1    2    0  502 -0.10109109673E+03 -0.62310205807E+02  0.75113139954E+03  0.77966938568E+03  0.17200000000E+03 0.  1.
</event>
<event>
 4    1  0.5874615E+000  0.2357088E+03  0.7818608E-02  0.1122685E+00
         21   -1    0    0  503  502  0.00000000000E+00  0.00000000000E+00  0.62431835115E+03  0.62431835115E+03  0.00000000000E+00 0.  1.
         21   -1    0    0  501  503 -0.00000000000E+00 -0.00000000000E+00 -0.12255970191E+03  0.12255970191E+03  0.00000000000E+00 0.  1.
          6    1    1    2  501    0  0.15431712717E+03 -0.46485049214E+02  0.55439103640E+02  0.24214072303E+03  0.17200000000E+03 0.  1.
         -6    1    1    2    0  502 -0.15431712717E+03  0.46485049214E+02  0.44631954559E+03  0.50473733002E+03  0.17200000000E+03 0.  1.
</event>
<event>
 4    1  0.5874615E+000  0.1825994E+03  0.7818608E-02  0.1165311E+00
         21   -1    0    0  501  502  0.00000000000E+00  0.00000000000E+00  0.11866962719E+04  0.11866962719E+04  0.00000000000E+00 0. -1.
         21   -1    0    0  502  503 -0.00000000000E+00 -0.00000000000E+00 -0.31893733772E+02  0.31893733772E+02  0.00000000000E+00 0. -1.
          6    1    1    2  501    0  0.20967566493E+02 -0.57609868250E+02  0.78762577988E+03  0.80851524716E+03  0.17200000000E+03 0. -1.
         -6    1    1    2    0  503 -0.20967566493E+02  0.57609868250E+02  0.36717675821E+03  0.41007475847E+03  0.17200000000E+03 0. -1.
</event>
<event>
 4    1  0.5874615E+000  0.2030024E+03  0.7818608E-02  0.1147230E+00
         21   -1    0    0  503  502  0.00000000000E+00  0.00000000000E+00  0.69727244828E+02  0.69727244828E+02  0.00000000000E+00 0. -1.
         21   -1    0    0  501  503 -0.00000000000E+00 -0.00000000000E+00 -0.59520584535E+03  0.59520584535E+03  0.00000000000E+00 0. -1.
          6    1    1    2  501    0 -0.10585235394E+03 -0.20524577176E+02 -0.29063051522E+03  0.35450821638E+03  0.17200000000E+03 0. -1.
         -6    1    1    2    0  502  0.10585235394E+03  0.20524577176E+02 -0.23484808530E+03  0.31042487379E+03  0.17200000000E+03 0. -1.
</event>
<event>
 4    1  0.5874615E+000  0.1850865E+03  0.7818608E-02  0.1162969E+00
         21   -1    0    0  503  502  0.00000000000E+00  0.00000000000E+00  0.35350248427E+03  0.35350248427E+03  0.00000000000E+00 0. -1.
         21   -1    0    0  501  503 -0.00000000000E+00 -0.00000000000E+00 -0.56519546390E+03  0.56519546390E+03  0.00000000000E+00 0. -1.
          6    1    1    2  501    0  0.56215862764E+02  0.38894409750E+02 -0.52396555617E+03  0.55569497244E+03  0.17200000000E+03 0. -1.
         -6    1    1    2    0  502 -0.56215862764E+02 -0.38894409750E+02  0.31227257654E+03  0.36300297574E+03  0.17200000000E+03 0. -1.
</event>
<event>
 4    1  0.5874615E+000  0.1948452E+03  0.7818608E-02  0.1154162E+00
         21   -1    0    0  503  502  0.00000000000E+00  0.00000000000E+00  0.72565575786E+02  0.72565575786E+02  0.00000000000E+00 0. -1.
         21   -1    0    0  501  503 -0.00000000000E+00 -0.00000000000E+00 -0.57597620224E+03  0.57597620224E+03  0.00000000000E+00 0. -1.
          6    1    1    2  501    0 -0.58194998497E+02  0.70668297000E+02 -0.34988415625E+03  0.40047919902E+03  0.17200000000E+03 0. -1.
         -6    1    1    2    0  502  0.58194998497E+02 -0.70668297000E+02 -0.15352647021E+03  0.24806257901E+03  0.17200000000E+03 0. -1.
</event>
<event>
 4    1  0.5874615E+000  0.2141059E+03  0.7818608E-02  0.1138355E+00
         21   -1    0    0  503  502  0.00000000000E+00  0.00000000000E+00  0.12937242433E+04  0.12937242433E+04  0.00000000000E+00 0. -1.
         21   -1    0    0  501  503 -0.00000000000E+00 -0.00000000000E+00 -0.35524361312E+02  0.35524361312E+02  0.00000000000E+00 0.  1.
          6    1    1    2  501    0  0.12724480237E+03 -0.81309084665E+01  0.59551210896E+03  0.63283174961E+03  0.17200000000E+03 0.  1.
         -6    1    1    2    0  502 -0.12724480237E+03  0.81309084665E+01  0.66268777301E+03  0.69641685498E+03  0.17200000000E+03 0. -1.
</event>
<event>
 4    1  0.5874615E+000  0.3132337E+03  0.7818608E-02  0.1078806E+00
         21   -1    0    0  501  502  0.00000000000E+00  0.00000000000E+00  0.31916224135E+02  0.31916224135E+02  0.00000000000E+00 0.  1.
         21   -1    0    0  502  503 -0.00000000000E+00 -0.00000000000E+00 -0.30741585200E+04  0.30741585200E+04  0.00000000000E+00 0.  1.
          6    1    1    2  501    0  0.25059304150E+03  0.75726358719E+02 -0.15232158988E+04  0.15550890741E+04  0.17200000000E+03 0. -1.
         -6    1    1    2    0  503 -0.25059304150E+03 -0.75726358719E+02 -0.15190263970E+04  0.15509856701E+04  0.17200000000E+03 0. -1.
</event>
<event>
 4    1  0.5874615E+000  0.2317028E+03  0.7818608E-02  0.1125447E+00
         21   -1    0    0  503  502  0.00000000000E+00  0.00000000000E+00  0.15247872889E+03  0.15247872889E+03  0.00000000000E+00 0.  1.
         21   -1    0    0  501  503 -0.00000000000E+00 -0.00000000000E+00 -0.70472812166E+03  0.70472812166E+03  0.00000000000E+00 0.  1.
          6    1    1    2  501    0  0.57757682810E+02  0.14410495983E+03 -0.57931105231E+03  0.62392907025E+03  0.17200000000E+03 0.  1.
         -6    1    1    2    0  502 -0.57757682810E+02 -0.14410495983E+03  0.27061659536E+02  0.23327778031E+03  0.17200000000E+03 0.  1.
</event>
<event>
 4    1  0.5874615E+000  0.1752632E+03  0.7818608E-02  0.1172468E+00
         21   -1    0    0  501  502  0.00000000000E+00  0.00000000000E+00  0.16726995557E+04  0.16726995557E+04  0.00000000000E+00 0.  1.
         21   -1    0    0  502  503 -0.00000000000E+00 -0.00000000000E+00 -0.18364176897E+02  0.18364176897E+02  0.00000000000E+00 0.  1.
          6    1    1    2  501    0  0.11599903370E+02 -0.31601091343E+02  0.82354526396E+03  0.84198811662E+03  0.17200000000E+03 0.  1.
         -6    1    1    2    0  503 -0.11599903370E+02  0.31601091343E+02  0.83079011481E+03  0.84907561595E+03  0.17200000000E+03 0.  1.
</event>
<event>
 4    1  0.5874615E+000  0.1796382E+03  0.7818608E-02  0.1168154E+00
         21   -1    0    0  501  502  0.00000000000E+00  0.00000000000E+00  0.79152147379E+03  0.79152147379E+03  0.00000000000E+00 0.  1.
         21   -1    0    0  502  503 -0.00000000000E+00 -0.00000000000E+00 -0.41804322282E+02  0.41804322282E+02  0.00000000000E+00 0.  1.
          6    1    1    2  501    0  0.47542886912E+02 -0.20628598269E+02  0.30930059577E+03  0.35768243416E+03  0.17200000000E+03 0.  1.
         -6    1    1    2    0  503 -0.47542886912E+02  0.20628598269E+02  0.44041655574E+03  0.47564336192E+03  0.17200000000E+03 0.  1.
</event>
<event>
 4    1  0.5874615E+000  0.2546962E+03  0.7818608E-02  0.1110372E+00
         21   -1    0    0  501  502  0.00000000000E+00  0.00000000000E+00  0.19170459029E+03  0.19170459029E+03  0.00000000000E+00 0.  1.
         21   -1    0    0  502  503 -0.00000000000E+00 -0.00000000000E+00 -0.73854926914E+03  0.73854926914E+03  0.00000000000E+00 0. -1.
          6    1    1    2  501    0 -0.17514421832E+03  0.67901826808E+02  0.68951318790E+02  0.26386443424E+03  0.17200000000E+03 0.  1.
         -6    1    1    2    0  503  0.17514421832E+03 -0.67901826808E+02 -0.61579599764E+03  0.66638942519E+03  0.17200000000E+03 0. -1.
</event>
<event>
 4    1  0.5874615E+000  0.2250157E+03  0.7818608E-02  0.1130198E+00
         21   -1    0    0  501  502  0.00000000000E+00  0.00000000000E+00  0.27198296852E+03  0.27198296852E+03  0.00000000000E+00 0. -1.
         21   -1    0    0  502  503 -0.00000000000E+00 -0.00000000000E+00 -0.18749888397E+03  0.18749888397E+03  0.00000000000E+00 0. -1.
          6    1    1    2  501    0 -0.48187402665E+02 -0.13684313474E+03  0.22820779360E+02  0.22616997429E+03  0.17200000000E+03 0. -1.
         -6    1    1    2    0  503  0.48187402665E+02  0.13684313474E+03  0.61663305198E+02  0.23331187820E+03  0.17200000000E+03 0. -1.
</event>
<event>
 4    1  0.5874615E+000  0.1738860E+03  0.7818608E-02  0.1173855E+00
         21   -1    0    0  503  502  0.00000000000E+00  0.00000000000E+00  0.31097491890E+03  0.31097491890E+03  0.00000000000E+00 0.  1.
         21   -1    0    0  501  503 -0.00000000000E+00 -0.00000000000E+00 -0.10702293421E+03  0.10702293421E+03  0.00000000000E+00 0.  1.
          6    1    1    2  501    0 -0.93814992754E+01  0.23755757504E+02  0.38757562004E+02  0.17815301613E+03  0.17200000000E+03 0.  1.
         -6    1    1    2    0  502  0.93814992754E+01 -0.23755757504E+02  0.16519442268E+03  0.23984483698E+03  0.17200000000E+03 0.  1.
</event>
<event>
 4    1  0.5874615E+000  0.2812454E+03  0.7818608E-02  0.1095011E+00
         21   -1    0    0  501  502  0.00000000000E+00  0.00000000000E+00  0.63514881752E+03  0.63514881752E+03  0.00000000000E+00 0.  1.
         21   -1    0    0  502  503 -0.00000000000E+00 -0.00000000000E+00 -0.18048463158E+03  0.18048463158E+03  0.00000000000E+00 0.  1.
          6    1    1    2  501    0 -0.22251907346E+03 -0.49806683596E+00  0.45439128324E+03  0.53438789695E+03  0.17200000000E+03 0.  1.
         -6    1    1    2    0  503  0.22251907346E+03  0.49806683596E+00  0.27290269877E+00  0.28124555214E+03  0.17200000000E+03 0.  1.
</event>
<event>
 4    1  0.5874615E+000  0.1919705E+03  0.7818608E-02  0.1156696E+00
         21   -1    0    0  501  502  0.00000000000E+00  0.00000000000E+00  0.16915268184E+03  0.16915268184E+03  0.00000000000E+00 0.  1.
         21   -1    0    0  502  503 -0.00000000000E+00 -0.00000000000E+00 -0.21840915737E+03  0.21840915737E+03  0.00000000000E+00 0.  1.
          6    1    1    2  501    0 -0.83804848917E+02  0.15665857459E+02 -0.14967468957E+02  0.19255310156E+03  0.17200000000E+03 0.  1.
         -6    1    1    2    0  503  0.83804848917E+02 -0.15665857459E+02 -0.34289006575E+02  0.19500873766E+03  0.17200000000E+03 0.  1.
</event>
<event>
 4    1  0.5874615E+000  0.1788821E+03  0.7818608E-02  0.1168889E+00
         21   -1    0    0  503  502  0.00000000000E+00  0.00000000000E+00  0.19374936229E+03  0.19374936229E+03  0.00000000000E+00 0. -1.
         21   -1    0    0  501  503 -0.00000000000E+00 -0.00000000000E+00 -0.24699378151E+03  0.24699378151E+03  0.00000000000E+00 0. -1.
          6    1    1    2  501    0  0.12969077512E+02 -0.47398484932E+02  0.10022772720E+03  0.20504733757E+03  0.17200000000E+03 0. -1.
         -6    1    1    2    0  502 -0.12969077512E+02  0.47398484932E+02 -0.15347214642E+03  0.23569580623E+03  0.17200000000E+03 0. -1.
</event>
<event>
 4    1  0.5874615E+000  0.1776873E+03  0.7818608E-02  0.1170060E+00
         21   -1    0    0  503  502  0.00000000000E+00  0.00000000000E+00  0.13299532978E+03  0.13299532978E+03  0.00000000000E+00 0. -1.
         21   -1    0    0  501  503 -0.00000000000E+00 -0.00000000000E+00 -0.23741263683E+03  0.23741263683E+03  0.00000000000E+00 0. -1.
          6    1    1    2  501    0 -0.22780828149E+02 -0.38338334486E+02 -0.50742825223E+02  0.18479076907E+03  0.17200000000E+03 0. -1.
         -6    1    1    2    0  502  0.22780828149E+02  0.38338334486E+02 -0.53674481825E+02  0.18561719754E+03  0.17200000000E+03 0. -1.
</event>
<event>
 4    1  0.5874615E+000  0.2381382E+03  0.7818608E-02  0.1121039E+00
         21   -1    0    0  501  502  0.00000000000E+00  0.00000000000E+00  0.95497879363E+02  0.95497879363E+02  0.00000000000E+00 0.  1.
         21   -1    0    0  502  503 -0.00000000000E+00 -0.00000000000E+00 -0.59719701690E+03  0.59719701690E+03  0.00000000000E+00 0.  1.
          6    1    1    2  501    0 -0.10427011812E+03 -0.12748936064E+03 -0.27684401865E+03  0.36517448606E+03  0.17200000000E+03 0.  1.
         -6    1    1    2    0  503  0.10427011812E+03  0.12748936064E+03 -0.22485511888E+03  0.32752041020E+03  0.17200000000E+03 0.  1.
</event>
<event>
 4    1  0.5874615E+000  0.2040805E+03  0.7818608E-02  0.1146341E+00
         21   -1    0    0  503  502  0.00000000000E+00  0.00000000000E+00  0.84619104176E+02  0.84619104176E+02  0.00000000000E+00 0.  1.
         21   -1    0    0  501  503 -0.00000000000E+00 -0.00000000000E+00 -0.49404224833E+03  0.49404224833E+03  0.00000000000E+00 0.  1.
          6    1    1    2  501    0 -0.10916424108E+03  0.12166338934E+02 -0.18700558187E+03  0.27680306896E+03  0.17200000000E+03 0.  1.
         -6    1    1    2    0  502  0.10916424108E+03 -0.12166338934E+02 -0.22241756228E+03  0.30185828355E+03  0.17200000000E+03 0.  1.
</event>
<event>
 4    1  0.5874615E+000  0.1820629E+03  0.7818608E-02  0.1165821E+00
         21   -1    0    0  503  502  0.00000000000E+00  0.00000000000E+00  0.50728299963E+03  0.50728299963E+03  0.00000000000E+00 0. -1.
         21   -1    0    0  501  503 -0.00000000000E+00 -0.00000000000E+00 -0.66222025457E+02  0.66222025457E+02  0.00000000000E+00 0. -1.
          6    1    1    2  501    0 -0.13802688178E+02  0.58072190020E+02  0.18747451921E+03  0.26133042075E+03  0.17200000000E+03 0. -1.
         -6    1    1    2    0  502  0.13802688178E+02 -0.58072190020E+02  0.25358645496E+03  0.31217460434E+03  0.17200000000E+03 0. -1.
</event>
<event>
 4    1  0.5874615E+000  0.1835830E+03  0.7818608E-02  0.1164380E+00
         21   -1    0    0  501  502  0.00000000000E+00  0.00000000000E+00  0.45742109249E+02  0.45742109249E+02  0.00000000000E+00 0. -1.
         21   -1    0    0  502  503 -0.00000000000E+00 -0.00000000000E+00 -0.75507721198E+03  0.75507721198E+03  0.00000000000E+00 0. -1.
          6    1    1    2  501    0  0.40085016327E+02 -0.50119079724E+02 -0.29236895946E+03  0.34522795243E+03  0.17200000000E+03 0. -1.
         -6    1    1    2    0  503 -0.40085016327E+02  0.50119079724E+02 -0.41696614327E+03  0.45559136880E+03  0.17200000000E+03 0. -1.
</event>
<event>
 4    1  0.5874615E+000  0.2439599E+03  0.7818608E-02  0.1117183E+00
         21   -1    0    0  501  502  0.00000000000E+00  0.00000000000E+00  0.51303599306E+03  0.51303599306E+03  0.00000000000E+00 0.  1.
         21   -1    0    0  502  503 -0.00000000000E+00 -0.00000000000E+00 -0.11728372103E+03  0.11728372103E+03  0.00000000000E+00 0.  1.
          6    1    1    2  501    0  0.13427675324E+03  0.10909714694E+03  0.23074151425E+03  0.33579469967E+03  0.17200000000E+03 0.  1.
         -6    1    1    2    0  503 -0.13427675324E+03 -0.10909714694E+03  0.16501075778E+03  0.29452501441E+03  0.17200000000E+03 0.  1.
</event>
<event>
 4    1  0.5874615E+000  0.1744110E+03  0.7818608E-02  0.1173324E+00
         21   -1    0    0  503  502  0.00000000000E+00  0.00000000000E+00  0.45780433655E+02  0.45780433655E+02  0.00000000000E+00 0. -1.
         21   -1    0    0  501  503 -0.00000000000E+00 -0.00000000000E+00 -0.76271270005E+03  0.76271270005E+03  0.00000000000E+00 0. -1.
          6    1    1    2  501    0 -0.22262286709E+02  0.18427754424E+02 -0.50355755562E+03  0.53290656157E+03  0.17200000000E+03 0. -1.
         -6    1    1    2    0  502  0.22262286709E+02 -0.18427754424E+02 -0.21337471077E+03  0.27558657213E+03  0.17200000000E+03 0. -1.
</event>
<event>
 4    1  0.5874615E+000  0.1754233E+03  0.7818608E-02  0.1172307E+00
         21   -1    0    0  501  502  0.00000000000E+00  0.00000000000E+00  0.54144088054E+02  0.54144088054E+02  0.00000000000E+00 0.  1.
         21   -1    0    0  502  503 -0.00000000000E+00 -0.00000000000E+00 -0.58312902833E+03  0.58312902833E+03  0.00000000000E+00 0.  1.
          6    1    1    2  501    0  0.32716034988E+02  0.10908078232E+02 -0.31520223714E+03  0.36072950449E+03  0.17200000000E+03 0. -1.
         -6    1    1    2    0  503 -0.32716034988E+02 -0.10908078232E+02 -0.21378270314E+03  0.27654361189E+03  0.17200000000E+03 0. -1.
</event>
<event>
 4    1  0.5874615E+000  0.2671704E+03  0.7818608E-02  0.1102910E+00
         21   -1    0    0  503  502  0.00000000000E+00  0.00000000000E+00  0.20198354750E+03  0.20198354750E+03  0.00000000000E+00 0. -1.
         21   -1    0    0  501  503 -0.00000000000E+00 -0.00000000000E+00 -0.91998071321E+03  0.91998071321E+03  0.00000000000E+00 0.  1.
          6    1    1    2  501    0 -0.97537202357E+02  0.17967328913E+03 -0.79924155926E+03  0.84271410735E+03  0.17200000000E+03 0.  1.
         -6    1    1    2    0  502  0.97537202357E+02 -0.17967328913E+03  0.81244393556E+02  0.27925015337E+03  0.17200000000E+03 0. -1.
</event>
<event>
 4    1  0.5874615E+000  0.2249921E+03  0.7818608E-02  0.1130215E+00
         21   -1    0    0  503  502  0.00000000000E+00  0.00000000000E+00  0.71107049778E+03  0.71107049778E+03  0.00000000000E+00 0.  1.
         21   -1    0    0  501  503 -0.00000000000E+00 -0.00000000000E+00 -0.11310805493E+03  0.11310805493E+03  0.00000000000E+00 0. -1.
          6    1    1    2  501    0  0.13862452618E+03 -0.42669508525E+02  0.48114734132E+02  0.23007927733E+03  0.17200000000E+03 0. -1.
         -6    1    1    2    0  502 -0.13862452618E+03  0.42669508525E+02  0.54984770872E+03  0.59409927537E+03  0.17200000000E+03 0.  1.
</event>
<event>
 4    1  0.5874615E+000  0.1943001E+03  0.7818608E-02  0.1154639E+00
         21   -1    0    0  501  502  0.00000000000E+00  0.00000000000E+00  0.22830791051E+04  0.22830791051E+04  0.00000000000E+00 0.  1.
         21   -1    0    0  502  503 -0.00000000000E+00 -0.00000000000E+00 -0.17493904352E+02  0.17493904352E+02  0.00000000000E+00 0.  1.
          6    1    1    2  501    0 -0.11839473573E+02  0.89601097784E+02  0.14019894735E+04  0.14153893506E+04  0.17200000000E+03 0.  1.
         -6    1    1    2    0  503  0.11839473573E+02 -0.89601097784E+02  0.86359572722E+03  0.88518365887E+03  0.17200000000E+03 0.  1.
</event>
<event>
 4    1  0.5874615E+000  0.1910789E+03  0.7818608E-02  0.1157492E+00
         21   -1    0    0  501  502  0.00000000000E+00  0.00000000000E+00  0.57213379615E+03  0.57213379615E+03  0.00000000000E+00 0. -1.
         21   -1    0    0  502  503 -0.00000000000E+00 -0.00000000000E+00 -0.67054397416E+02  0.67054397416E+02  0.00000000000E+00 0. -1.
          6    1    1    2  501    0  0.21546613903E+02 -0.80391980578E+02  0.32277724348E+03  0.37509502266E+03  0.17200000000E+03 0. -1.
         -6    1    1    2    0  503 -0.21546613903E+02  0.80391980578E+02  0.18230215525E+03  0.26409317091E+03  0.17200000000E+03 0. -1.
</event>
<event>
 4    1  0.5874615E+000  0.1847979E+03  0.7818608E-02  0.1163239E+00
         21   -1    0    0  503  502  0.00000000000E+00  0.00000000000E+00  0.33052032675E+04  0.33052032675E+04  0.00000000000E+00 0. -1.
         21   -1    0    0  501  503 -0.00000000000E+00 -0.00000000000E+00 -0.12991457675E+02  0.12991457675E+02  0.00000000000E+00 0. -1.
          6    1    1    2  501    0  0.48297703522E+02 -0.47260984098E+02  0.89549127389E+03  0.91436037228E+03  0.17200000000E+03 0. -1.
         -6    1    1    2    0  502 -0.48297703522E+02  0.47260984098E+02  0.23967205360E+04  0.24038343529E+04  0.17200000000E+03 0. -1.
</event>
<event>
 4    1  0.5874615E+000  0.2102278E+03  0.7818608E-02  0.1141386E+00
         21   -1    0    0  503  502  0.00000000000E+00  0.00000000000E+00  0.38755905770E+03  0.38755905770E+03  0.00000000000E+00 0.  1.
         21   -1    0    0  501  503 -0.00000000000E+00 -0.00000000000E+00 -0.16979555412E+03  0.16979555412E+03  0.00000000000E+00 0.  1.
          6    1    1    2  501    0  0.86919032298E+02 -0.84004903318E+02 -0.50815527369E+02  0.21628213005E+03  0.17200000000E+03 0. -1.
         -6    1    1    2    0  502 -0.86919032298E+02  0.84004903318E+02  0.26857903094E+03  0.34107248177E+03  0.17200000000E+03 0. -1.
</event>
<event>
 4    1  0.5874615E+000  0.3669407E+03  0.7818608E-02  0.1055869E+00
         21   -1    0    0  503  502  0.00000000000E+00  0.00000000000E+00  0.13017841056E+04  0.13017841056E+04  0.00000000000E+00 0.  1.
         21   -1    0    0  501  503 -0.00000000000E+00 -0.00000000000E+00 -0.20516965434E+03  0.20516965434E+03  0.00000000000E+00 0.  1.
          6    1    1    2  501    0  0.15069152918E+03 -0.28697308330E+03  0.17721836065E+02  0.36736841315E+03  0.17200000000E+03 0.  1.
         -6    1    1    2    0  502 -0.15069152918E+03  0.28697308330E+03  0.10788926152E+04  0.11395853468E+04  0.17200000000E+03 0.  1.
</event>
<event>
 4    1  0.5874615E+000  0.1801710E+03  0.7818608E-02  0.1167638E+00
         21   -1    0    0  503  502  0.00000000000E+00  0.00000000000E+00  0.30199703762E+03  0.30199703762E+03  0.00000000000E+00 0. -1.
         21   -1    0    0  501  503 -0.00000000000E+00 -0.00000000000E+00 -0.11293537150E+03  0.11293537150E+03  0.00000000000E+00 0. -1.
          6    1    1    2  501    0  0.49018018195E+02  0.21790581435E+02  0.14008780447E+03  0.22822398758E+03  0.17200000000E+03 0. -1.
         -6    1    1    2    0  502 -0.49018018195E+02 -0.21790581435E+02  0.48973861659E+02  0.18670842154E+03  0.17200000000E+03 0. -1.
</event>
<event>
 4    1  0.5874615E+000  0.1872544E+03  0.7818608E-02  0.1160961E+00
         21   -1    0    0  503  502  0.00000000000E+00  0.00000000000E+00  0.31284425241E+03  0.31284425241E+03  0.00000000000E+00 0. -1.
         21   -1    0    0  501  503 -0.00000000000E+00 -0.00000000000E+00 -0.13235460915E+03  0.13235460915E+03  0.00000000000E+00 0. -1.
          6    1    1    2  501    0 -0.73641191667E+02  0.75615977514E+01  0.31264869189E+01  0.18728047894E+03  0.17200000000E+03 0.  1.
         -6    1    1    2    0  502  0.73641191667E+02 -0.75615977514E+01  0.17736315633E+03  0.25791838262E+03  0.17200000000E+03 0.  1.
</event>
<event>
 4    1  0.5874615E+000  0.2266337E+03  0.7818608E-02  0.1129032E+00
         21   -1    0    0  503  502  0.00000000000E+00  0.00000000000E+00  0.15985898280E+03  0.15985898280E+03  0.00000000000E+00 0.  1.
         21   -1    0    0  501  503 -0.00000000000E+00 -0.00000000000E+00 -0.53366693475E+03  0.53366693475E+03  0.00000000000E+00 0. -1.
          6    1    1    2  501    0  0.71800890862E+02 -0.12893200694E+03 -0.40564997153E+03  0.46466625629E+03  0.17200000000E+03 0. -1.
         -6    1    1    2    0  502 -0.71800890862E+02  0.12893200694E+03  0.31842019572E+02  0.22885966126E+03  0.17200000000E+03 0.  1.
</event>
<event>
 4    1  0.5874615E+000  0.1899580E+03  0.7818608E-02  0.1158499E+00
         21   -1    0    0  503  502  0.00000000000E+00  0.00000000000E+00  0.28596359548E+03  0.28596359548E+03  0.00000000000E+00 0. -1.
         21   -1    0    0  501  503 -0.00000000000E+00 -0.00000000000E+00 -0.21532617145E+03  0.21532617145E+03  0.00000000000E+00 0.  1.
          6    1    1    2  501    0  0.28900227310E+02 -0.75264979417E+02 -0.12595068204E+03  0.22792019343E+03  0.17200000000E+03 0.  1.
         -6    1    1    2    0  502 -0.28900227310E+02  0.75264979417E+02  0.19658810608E+03  0.27336957350E+03  0.17200000000E+03 0. -1.
</event>
<event>
 4    1  0.5874615E+000  0.2796028E+03  0.7818608E-02  0.1095906E+00
         21   -1    0    0  501  502  0.00000000000E+00  0.00000000000E+00  0.13845054050E+04  0.13845054050E+04  0.00000000000E+00 0.  1.
         21   -1    0    0  502  503 -0.00000000000E+00 -0.00000000000E+00 -0.10349331133E+03  0.10349331133E+03  0.00000000000E+00 0. -1.
          6    1    1    2  501    0  0.19035624259E+03  0.11116748680E+03  0.11420289112E+04  0.11757583694E+04  0.17200000000E+03 0.  1.
         -6    1    1    2    0  503 -0.19035624259E+03 -0.11116748680E+03  0.13898318239E+03  0.31224034685E+03  0.17200000000E+03 0. -1.
</event>
<event>
 4    1  0.5874615E+000  0.1750810E+03  0.7818608E-02  0.1172650E+00
         21   -1    0    0  503  502  0.00000000000E+00  0.00000000000E+00  0.61587630199E+02  0.61587630199E+02  0.00000000000E+00 0. -1.
         21   -1    0    0  501  503 -0.00000000000E+00 -0.00000000000E+00 -0.51444399743E+03  0.51444399743E+03  0.00000000000E+00 0. -1.
          6    1    1    2  501    0  0.89874570179E+00  0.32688854163E+02 -0.27835872948E+03  0.32884183312E+03  0.17200000000E+03 0.  1.
         -6    1    1    2    0  502 -0.89874570179E+00 -0.32688854163E+02 -0.17449763775E+03  0.24718979451E+03  0.17200000000E+03 0.  1.
</event>
<event>
 4    1  0.5874615E+000  0.1857249E+03  0.7818608E-02  0.1162375E+00
         21   -1    0    0  501  502  0.00000000000E+00  0.00000000000E+00  0.57033536584E+02  0.57033536584E+02  0.00000000000E+00 0. -1.
         21   -1    0    0  502  503 -0.00000000000E+00 -0.00000000000E+00 -0.61625213092E+03  0.61625213092E+03  0.00000000000E+00 0.  1.
          6    1    1    2  501    0  0.10559723437E+02  0.69269259678E+02 -0.32550599644E+03  0.37476378136E+03  0.17200000000E+03 0.  1.
         -6    1    1    2    0  503 -0.10559723437E+02 -0.69269259678E+02 -0.23371259789E+03  0.29852188614E+03  0.17200000000E+03 0.  1.
</event>
<event>
 4    1  0.5874615E+000  0.1779605E+03  0.7818608E-02  0.1169792E+00
         21   -1    0    0  503  502  0.00000000000E+00  0.00000000000E+00  0.11598643215E+04  0.11598643215E+04  0.00000000000E+00 0.  1.
         21   -1    0    0  501  503 -0.00000000000E+00 -0.00000000000E+00 -0.31278492948E+02  0.31278492948E+02  0.00000000000E+00 0.  1.
          6    1    1    2  501    0  0.16329734613E+02  0.42653117205E+02  0.35201536608E+03  0.39444234888E+03  0.17200000000E+03 0.  1.
         -6    1    1    2    0  502 -0.16329734613E+02 -0.42653117205E+02  0.77657046251E+03  0.79670046560E+03  0.17200000000E+03 0.  1.
</event>
<event>
 4    1  0.5874615E+000  0.1930038E+03  0.7818608E-02  0.1155780E+00
         21   -1    0    0  501  502  0.00000000000E+00  0.00000000000E+00  0.57013220116E+02  0.57013220116E+02  0.00000000000E+00 0.  1.
         21   -1    0    0  502  503 -0.00000000000E+00 -0.00000000000E+00 -0.88840406008E+03  0.88840406008E+03  0.00000000000E+00 0.  1.
          6    1    1    2  501    0  0.79214358396E+02 -0.37303379050E+02 -0.17255449456E+03  0.25889285478E+03  0.17200000000E+03 0.  1.
         -6    1    1    2    0  503 -0.79214358396E+02  0.37303379050E+02 -0.65883634540E+03  0.68652442541E+03  0.17200000000E+03 0.  1.
</event>
<event>
 4    1  0.5874615E+000  0.1757324E+03  0.7818608E-02  0.1171998E+00
         21   -1    0    0  503  502  0.00000000000E+00  0.00000000000E+00  0.20044507014E+02  0.20044507014E+02  0.00000000000E+00 0. -1.
         21   -1    0    0  501  503 -0.00000000000E+00 -0.00000000000E+00 -0.15851235146E+04  0.15851235146E+04  0.00000000000E+00 0. -1.
          6    1    1    2  501    0  0.11960529883E+02 -0.33982890074E+02 -0.91694944171E+03  0.93363706532E+03  0.17200000000E+03 0.  1.
         -6    1    1    2    0  502 -0.11960529883E+02  0.33982890074E+02 -0.64812956584E+03  0.67153095626E+03  0.17200000000E+03 0.  1.
</event>
<event>
 4    1  0.5874615E+000  0.2537300E+03  0.7818608E-02  0.1110970E+00
         21   -1    0    0  501  502  0.00000000000E+00  0.00000000000E+00  0.17059118647E+03  0.17059118647E+03  0.00000000000E+00 0.  1.
         21   -1    0    0  502  503 -0.00000000000E+00 -0.00000000000E+00 -0.56887459714E+03  0.56887459714E+03  0.00000000000E+00 0.  1.
          6    1    1    2  501    0  0.14026013634E+03 -0.12297154956E+03  0.15369539769E+02  0.25419506407E+03  0.17200000000E+03 0.  1.
         -6    1    1    2    0  503 -0.14026013634E+03  0.12297154956E+03 -0.41365295044E+03  0.48527071955E+03  0.17200000000E+03 0.  1.
</event>
<event>
 4    1  0.5874615E+000  0.1972585E+03  0.7818608E-02  0.1152073E+00
         21   -1    0    0  503  502  0.00000000000E+00  0.00000000000E+00  0.34347537584E+03  0.34347537584E+03  0.00000000000E+00 0. -1.
         21   -1    0    0  501  503 -0.00000000000E+00 -0.00000000000E+00 -0.11370001513E+03  0.11370001513E+03  0.00000000000E+00 0. -1.
          6    1    1    2  501    0 -0.77554713450E+02  0.57551415393E+02  0.10109144017E+03  0.22165373506E+03  0.17200000000E+03 0. -1.
         -6    1    1    2    0  502  0.77554713450E+02 -0.57551415393E+02  0.12868392054E+03  0.23552165590E+03  0.17200000000E+03 0. -1.
</event>
<event>
 4    1  0.5874615E+000  0.2203055E+03  0.7818608E-02  0.1133656E+00
         21   -1    0    0  503  502  0.00000000000E+00  0.00000000000E+00  0.39581278071E+03  0.39581278071E+03  0.00000000000E+00 0.  1.
         21   -1    0    0  501  503 -0.00000000000E+00 -0.00000000000E+00 -0.17421395065E+03  0.17421395065E+03  0.00000000000E+00 0.  1.
          6    1    1    2  501    0  0.27508767238E+02 -0.13488426119E+03 -0.44304895007E+02  0.22471630985E+03  0.17200000000E+03 0. -1.
         -6    1    1    2    0  502 -0.27508767238E+02  0.13488426119E+03  0.26590372507E+03  0.34531042150E+03  0.17200000000E+03 0. -1.
</event>
<event>
 4    1  0.5874615E+000  0.2326844E+03  0.7818608E-02  0.1124765E+00
         21   -1    0    0  501  502  0.00000000000E+00  0.00000000000E+00  0.14310794234E+04  0.14310794234E+04  0.00000000000E+00 0.  1.
         21   -1    0    0  502  503 -0.00000000000E+00 -0.00000000000E+00 -0.92361635324E+02  0.92361635324E+02  0.00000000000E+00 0.  1.
          6    1    1    2  501    0 -0.13910993740E+03 -0.72155611965E+02  0.12546369294E+04  0.12760312816E+04  0.17200000000E+03 0.  1.
         -6    1    1    2    0  503  0.13910993740E+03  0.72155611965E+02  0.84080858681E+02  0.24740977712E+03  0.17200000000E+03 0.  1.
</event>
<event>
 4    1  0.5874615E+000  0.1801971E+03  0.7818608E-02  0.1167612E+00
         21   -1    0    0  503  502  0.00000000000E+00  0.00000000000E+00  0.42562568102E+03  0.42562568102E+03  0.00000000000E+00 0.  1.
         21   -1    0    0  501  503 -0.00000000000E+00 -0.00000000000E+00 -0.16224102702E+03  0.16224102702E+03  0.00000000000E+00 0.  1.
          6    1    1    2  501    0 -0.33175185549E+02 -0.42266046368E+02 -0.82248609972E+02  0.19808040149E+03  0.17200000000E+03 0.  1.
         -6    1    1    2    0  502  0.33175185549E+02  0.42266046368E+02  0.34563326397E+03  0.38978630655E+03  0.17200000000E+03 0.  1.
</event>
<event>
 4    1  0.5874615E+000  0.1856110E+03  0.7818608E-02  0.1162481E+00
         21   -1    0    0  503  502  0.00000000000E+00  0.00000000000E+00  0.42698955568E+02  0.42698955568E+02  0.00000000000E+00 0. -1.
         21   -1    0    0  501  503 -0.00000000000E+00 -0.00000000000E+00 -0.12290898631E+04  0.12290898631E+04  0.00000000000E+00 0. -1.
          6    1    1    2  501    0  0.12501010050E+02 -0.68637835402E+02 -0.96590928499E+03  0.98358130042E+03  0.17200000000E+03 0. -1.
         -6    1    1    2    0  502 -0.12501010050E+02  0.68637835402E+02 -0.22048162257E+03  0.28820751827E+03  0.17200000000E+03 0. -1.
</event>
<event>
 4    1  0.5874615E+000  0.2676688E+03  0.7818608E-02  0.1102621E+00
         21   -1    0    0  501  502  0.00000000000E+00  0.00000000000E+00  0.17374808520E+03  0.17374808520E+03  0.00000000000E+00 0.  1.
         21   -1    0    0  502  503 -0.00000000000E+00 -0.00000000000E+00 -0.42799029484E+03  0.42799029484E+03  0.00000000000E+00 0.  1.
          6    1    1    2  501    0  0.90284954875E+02  0.18414998404E+03 -0.69622409373E+02  0.27657525121E+03  0.17200000000E+03 0.  1.
         -6    1    1    2    0  503 -0.90284954875E+02 -0.18414998404E+03 -0.18461980027E+03  0.32516312883E+03  0.17200000000E+03 0.  1.
</event>
<event>
 4    1  0.5874615E+000  0.2378567E+03  0.7818608E-02  0.1121229E+00
         21   -1    0    0  503  502  0.00000000000E+00  0.00000000000E+00  0.67092014485E+03  0.67092014485E+03  0.00000000000E+00 0.  1.
         21   -1    0    0  501  503 -0.00000000000E+00 -0.00000000000E+00 -0.89964750233E+02  0.89964750233E+02  0.00000000000E+00 0.  1.
          6    1    1    2  501    0  0.42320503762E+02  0.15874754555E+03  0.19522968776E+03  0.30771811653E+03  0.17200000000E+03 0.  1.
         -6    1    1    2    0  502 -0.42320503762E+02 -0.15874754555E+03  0.38572570685E+03  0.45316677855E+03  0.17200000000E+03 0.  1.
</event>
<event>
 4    1  0.5874615E+000  0.2074959E+03  0.7818608E-02  0.1143564E+00
         21   -1    0    0  501  502  0.00000000000E+00  0.00000000000E+00  0.24835154100E+03  0.24835154100E+03  0.00000000000E+00 0.  1.
         21   -1    0    0  502  503 -0.00000000000E+00 -0.00000000000E+00 -0.37664098853E+03  0.37664098853E+03  0.00000000000E+00 0.  1.
          6    1    1    2  501    0 -0.10240262157E+03 -0.54628142781E+02  0.16543212928E+03  0.26537204127E+03  0.17200000000E+03 0.  1.
         -6    1    1    2    0  503  0.10240262157E+03  0.54628142781E+02 -0.29372157681E+03  0.35962048826E+03  0.17200000000E+03 0.  1.
</event>
<event>
 4    1  0.5874615E+000  0.2035017E+03  0.7818608E-02  0.1146818E+00
         21   -1    0    0  503  502  0.00000000000E+00  0.00000000000E+00  0.30346629159E+03  0.30346629159E+03  0.00000000000E+00 0. -1.
         21   -1    0    0  501  503 -0.00000000000E+00 -0.00000000000E+00 -0.27151189883E+03  0.27151189883E+03  0.00000000000E+00 0. -1.
          6    1    1    2  501    0  0.10857963152E+03 -0.62788277307E+01 -0.18677564929E+03  0.27622111293E+03  0.17200000000E+03 0. -1.
         -6    1    1    2    0  502 -0.10857963152E+03  0.62788277307E+01  0.21873004205E+03  0.29875707749E+03  0.17200000000E+03 0. -1.
</event>
<event>
 4    1  0.5874615E+000  0.2398463E+03  0.7818608E-02  0.1119895E+00
         21   -1    0    0  501  502  0.00000000000E+00  0.00000000000E+00  0.21871163288E+03  0.21871163288E+03  0.00000000000E+00 0. -1.
         21   -1    0    0  502  503 -0.00000000000E+00 -0.00000000000E+00 -0.28852700398E+03  0.28852700398E+03  0.00000000000E+00 0. -1.
          6    1    1    2  501    0 -0.12939830319E+03  0.10582204327E+03  0.40495880338E+02  0.24324091357E+03  0.17200000000E+03 0. -1.
         -6    1    1    2    0  503  0.12939830319E+03 -0.10582204327E+03 -0.11031125144E+03  0.26399772329E+03  0.17200000000E+03 0. -1.
</event>
<event>
 4    1  0.5874615E+000  0.1839792E+03  0.7818608E-02  0.1164007E+00
         21   -1    0    0  503  502  0.00000000000E+00  0.00000000000E+00  0.41524162977E+03  0.41524162977E+03  0.00000000000E+00 0. -1.
         21   -1    0    0  501  503 -0.00000000000E+00 -0.00000000000E+00 -0.12878462111E+04  0.12878462111E+04  0.00000000000E+00 0. -1.
          6    1    1    2  501    0 -0.23328972299E+01 -0.65260329780E+02 -0.12604562744E+04  0.12738125343E+04  0.17200000000E+03 0. -1.
         -6    1    1    2    0  502  0.23328972299E+01  0.65260329780E+02  0.38785169300E+03  0.42927530656E+03  0.17200000000E+03 0. -1.
</event>
<event>
 4    1  0.5874615E+000  0.3935023E+03  0.7818608E-02  0.1046053E+00
         21   -1    0    0  503  502  0.00000000000E+00  0.00000000000E+00  0.18757825948E+03  0.18757825948E+03  0.00000000000E+00 0.  1.
         21   -1    0    0  501  503 -0.00000000000E+00 -0.00000000000E+00 -0.83571168988E+03  0.83571168988E+03  0.00000000000E+00 0. -1.
          6    1    1    2  501    0  0.54068503034E+02 -0.34976659345E+03 -0.38065037176E+03  0.54748404400E+03  0.17200000000E+03 0. -1.
         -6    1    1    2    0  502 -0.54068503034E+02  0.34976659345E+03 -0.26748305864E+03  0.47580590536E+03  0.17200000000E+03 0.  1.
</event>
<event>
 4    1  0.5874615E+000  0.1723926E+03  0.7818608E-02  0.1175375E+00
         21   -1    0    0  501  502  0.00000000000E+00  0.00000000000E+00  0.17872206619E+03  0.17872206619E+03  0.00000000000E+00 0.  1.
         21   -1    0    0  502  503 -0.00000000000E+00 -0.00000000000E+00 -0.16656398135E+03  0.16656398135E+03  0.00000000000E+00 0.  1.
          6    1    1    2  501    0 -0.10009854323E+02 -0.59184649436E+01 -0.95621561106E+00  0.17239530086E+03  0.17200000000E+03 0.  1.
         -6    1    1    2    0  503  0.10009854323E+02  0.59184649436E+01  0.13114300455E+02  0.17289074668E+03  0.17200000000E+03 0.  1.
</event>
<event>
 4    1  0.5874615E+000  0.3406679E+03  0.7818608E-02  0.1066512E+00
         21   -1    0    0  503  502  0.00000000000E+00  0.00000000000E+00  0.75080049966E+03  0.75080049966E+03  0.00000000000E+00 0. -1.
         21   -1    0    0  501  503 -0.00000000000E+00 -0.00000000000E+00 -0.17011712270E+03  0.17011712270E+03  0.00000000000E+00 0. -1.
          6    1    1    2  501    0 -0.29373333067E+03 -0.13832925362E+02  0.42952231450E+03  0.54821896905E+03  0.17200000000E+03 0. -1.
         -6    1    1    2    0  502  0.29373333067E+03  0.13832925362E+02  0.15116106245E+03  0.37269865330E+03  0.17200000000E+03 0. -1.
</event>
<event>
 4    1  0.5874615E+000  0.2182585E+03  0.7818608E-02  0.1135188E+00
         21   -1    0    0  501  502  0.00000000000E+00  0.00000000000E+00  0.34218823339E+03  0.34218823339E+03  0.00000000000E+00 0. -1.
         21   -1    0    0  502  503 -0.00000000000E+00 -0.00000000000E+00 -0.27529071210E+03  0.27529071210E+03  0.00000000000E+00 0.  1.
          6    1    1    2  501    0  0.11254201306E+03 -0.73396693075E+02  0.25051443061E+03  0.33225631552E+03  0.17200000000E+03 0. -1.
         -6    1    1    2    0  503 -0.11254201306E+03  0.73396693075E+02 -0.18361690932E+03  0.28522262997E+03  0.17200000000E+03 0.  1.
</event>
<event>
 4    1  0.5874615E+000  0.1754118E+03  0.7818608E-02  0.1172319E+00
         21   -1    0    0  501  502  0.00000000000E+00  0.00000000000E+00  0.10774878782E+03  0.10774878782E+03  0.00000000000E+00 0.  1.
         21   -1    0    0  502  503 -0.00000000000E+00 -0.00000000000E+00 -0.46435220247E+03  0.46435220247E+03  0.00000000000E+00 0. -1.
          6    1    1    2  501    0  0.17017579459E+02 -0.29928322473E+02 -0.35579704062E+03  0.39668732852E+03  0.17200000000E+03 0. -1.
         -6    1    1    2    0  503 -0.17017579459E+02  0.29928322473E+02 -0.80637402879E+00  0.17541366177E+03  0.17200000000E+03 0.  1.
</event>
<event>
 4    1  0.5874615E+000  0.1802207E+03  0.7818608E-02  0.1167590E+00
         21   -1    0    0  501  502  0.00000000000E+00  0.00000000000E+00  0.19950885266E+03  0.19950885266E+03  0.00000000000E+00 0.  1.
         21   -1    0    0  502  503 -0.00000000000E+00 -0.00000000000E+00 -0.26855091284E+03  0.26855091284E+03  0.00000000000E+00 0.  1.
          6    1    1    2  501    0  0.44245460084E+02 -0.30624321858E+02  0.11233964832E+03  0.21236691459E+03  0.17200000000E+03 0.  1.
         -6    1    1    2    0  503 -0.44245460084E+02  0.30624321858E+02 -0.18138170850E+03  0.25569285091E+03  0.17200000000E+03 0.  1.
</event>
<event>
 4    1  0.5874615E+000  0.1773676E+03  0.7818608E-02  0.1170375E+00
         21   -1    0    0  503  502  0.00000000000E+00  0.00000000000E+00  0.12924521334E+03  0.12924521334E+03  0.00000000000E+00 0. -1.
         21   -1    0    0  501  503 -0.00000000000E+00 -0.00000000000E+00 -0.28624237075E+03  0.28624237075E+03  0.00000000000E+00 0. -1.
          6    1    1    2  501    0 -0.32382640076E+02  0.28751470362E+02 -0.15886205605E+03  0.23811013267E+03  0.17200000000E+03 0. -1.
         -6    1    1    2    0  502  0.32382640076E+02 -0.28751470362E+02  0.18648986406E+01  0.17737745142E+03  0.17200000000E+03 0. -1.
</event>
<event>
 4    1  0.5874615E+000  0.2776701E+03  0.7818608E-02  0.1096968E+00
         21   -1    0    0  503  502  0.00000000000E+00  0.00000000000E+00  0.94417106159E+03  0.94417106159E+03  0.00000000000E+00 0.  1.
         21   -1    0    0  501  503 -0.00000000000E+00 -0.00000000000E+00 -0.15292341853E+03  0.15292341853E+03  0.00000000000E+00 0. -1.
          6    1    1    2  501    0 -0.18642443171E+03  0.11297164706E+03  0.21158606316E+02  0.27847504089E+03  0.17200000000E+03 0. -1.
         -6    1    1    2    0  502  0.18642443171E+03 -0.11297164706E+03  0.77008903674E+03  0.81861943923E+03  0.17200000000E+03 0.  1.
</event>
<event>
 4    1  0.5874615E+000  0.2505193E+03  0.7818608E-02  0.1112977E+00
         21   -1    0    0  501  502  0.00000000000E+00  0.00000000000E+00  0.10128453257E+03  0.10128453257E+03  0.00000000000E+00 0. -1.
         21   -1    0    0  502  503 -0.00000000000E+00 -0.00000000000E+00 -0.13822213528E+04  0.13822213528E+04  0.00000000000E+00 0.  1.
          6    1    1    2  501    0  0.34390754573E+02 -0.17886635504E+03 -0.89516475296E+02  0.26603213399E+03  0.17200000000E+03 0. -1.
         -6    1    1    2    0  503 -0.34390754573E+02  0.17886635504E+03 -0.11914203449E+04  0.12174737514E+04  0.17200000000E+03 0.  1.
</event>
<event>
 4    1  0.5874615E+000  0.1868858E+03  0.7818608E-02  0.1161300E+00
         21   -1    0    0  501  502  0.00000000000E+00  0.00000000000E+00  0.44859380608E+03  0.44859380608E+03  0.00000000000E+00 0.  1.
         21   -1    0    0  502  503 -0.00000000000E+00 -0.00000000000E+00 -0.12312072210E+03  0.12312072210E+03  0.00000000000E+00 0.  1.
          6    1    1    2  501    0 -0.60588459478E+02 -0.40882196559E+02  0.33605994637E+03  0.38452906648E+03  0.17200000000E+03 0.  1.
         -6    1    1    2    0  503  0.60588459478E+02  0.40882196559E+02 -0.10586862392E+02  0.18718546170E+03  0.17200000000E+03 0.  1.
</event>
<event>
 4    1  0.5874615E+000  0.1856009E+03  0.7818608E-02  0.1162490E+00
         21   -1    0    0  503  502  0.00000000000E+00  0.00000000000E+00  0.93972338131E+02  0.93972338131E+02  0.00000000000E+00 0. -1.
         21   -1    0    0  501  503 -0.00000000000E+00 -0.00000000000E+00 -0.79332257710E+03  0.79332257710E+03  0.00000000000E+00 0. -1.
          6    1    1    2  501    0  0.69738493775E+02 -0.48354982881E+00 -0.67506182540E+03  0.70011153358E+03  0.17200000000E+03 0. -1.
         -6    1    1    2    0  502 -0.69738493775E+02  0.48354982881E+00 -0.24288413570E+02  0.18718338166E+03  0.17200000000E+03 0. -1.
</event>
<event>
 4    1  0.5874615E+000  0.2085342E+03  0.7818608E-02  0.1142732E+00
         21   -1    0    0  503  502  0.00000000000E+00  0.00000000000E+00  0.15593570919E+03  0.15593570919E+03  0.00000000000E+00 0. -1.
         21   -1    0    0  501  503 -0.00000000000E+00 -0.00000000000E+00 -0.39827336281E+03  0.39827336281E+03  0.00000000000E+00 0. -1.
          6    1    1    2  501    0  0.11789465912E+03  0.18307276069E+01 -0.27289237531E+03  0.34344832321E+03  0.17200000000E+03 0. -1.
         -6    1    1    2    0  502 -0.11789465912E+03 -0.18307276069E+01  0.30554721690E+02  0.21076074879E+03  0.17200000000E+03 0. -1.
</event>
<event>
 4    1  0.5874615E+000  0.1927375E+03  0.7818608E-02  0.1156015E+00
         21   -1    0    0  503  502  0.00000000000E+00  0.00000000000E+00  0.71413173021E+03  0.71413173021E+03  0.00000000000E+00 0. -1.
         21   -1    0    0  501  503 -0.00000000000E+00 -0.00000000000E+00 -0.62416545746E+02  0.62416545746E+02  0.00000000000E+00 0.  1.
          6    1    1    2  501    0 -0.86942929712E+02 -0.21596168111E+01  0.16737777990E+03  0.25527055877E+03  0.17200000000E+03 0.  1.
         -6    1    1    2    0  502  0.86942929712E+02  0.21596168111E+01  0.48433740456E+03  0.52127771718E+03  0.17200000000E+03 0. -1.
</event>
<event>
 4    1  0.5874615E+000  0.1842216E+03  0.7818608E-02  0.1163779E+00
         21   -1    0    0  501  502  0.00000000000E+00  0.00000000000E+00  0.31121088306E+03  0.31121088306E+03  0.00000000000E+00 0. -1.
         21   -1    0    0  502  503 -0.00000000000E+00 -0.00000000000E+00 -0.38598728123E+03  0.38598728123E+03  0.00000000000E+00 0.  1.
          6    1    1    2  501    0  0.49496244285E+02 -0.43631496925E+02  0.25788930159E+03  0.31692976761E+03  0.17200000000E+03 0. -1.
         -6    1    1    2    0  503 -0.49496244285E+02  0.43631496925E+02 -0.33266569976E+03  0.38026839669E+03  0.17200000000E+03 0.  1.
</event>
<event>
 4    1  0.5874615E+000  0.3903849E+03  0.7818608E-02  0.1047161E+00
         21   -1    0    0  501  502  0.00000000000E+00  0.00000000000E+00  0.80681835985E+03  0.80681835985E+03  0.00000000000E+00 0. -1.
         21   -1    0    0  502  503 -0.00000000000E+00 -0.00000000000E+00 -0.23881187548E+03  0.23881187548E+03  0.00000000000E+00 0.  1.
          6    1    1    2  501    0 -0.25147343892E+02 -0.34954830159E+03  0.52303907780E+03  0.65266398779E+03  0.17200000000E+03 0. -1.
         -6    1    1    2    0  503  0.25147343892E+02  0.34954830159E+03  0.44967406569E+02  0.39296624754E+03  0.17200000000E+03 0.  1.
</event>
<event>
 4    1  0.5874615E+000  0.1773001E+03  0.7818608E-02  0.1170442E+00
         21   -1    0    0  501  502  0.00000000000E+00  0.00000000000E+00  0.10890003175E+03  0.10890003175E+03  0.00000000000E+00 0.  1.
         21   -1    0    0  502  503 -0.00000000000E+00 -0.00000000000E+00 -0.33459869821E+03  0.33459869821E+03  0.00000000000E+00 0. -1.
          6    1    1    2  501    0  0.28293677402E+02  0.32415822112E+02 -0.30685740184E+02  0.17993591180E+03  0.17200000000E+03 0.  1.
         -6    1    1    2    0  503 -0.28293677402E+02 -0.32415822112E+02 -0.19501292627E+03  0.26356281816E+03  0.17200000000E+03 0. -1.
</event>
<event>
 4    1  0.5874615E+000  0.2706431E+03  0.7818608E-02  0.1100912E+00
         21   -1    0    0  503  502  0.00000000000E+00  0.00000000000E+00  0.13817287757E+04  0.13817287757E+04  0.00000000000E+00 0.  1.
         21   -1    0    0  501  503 -0.00000000000E+00 -0.00000000000E+00 -0.54615904607E+02  0.54615904607E+02  0.00000000000E+00 0.  1.
          6    1    1    2  501    0 -0.15044090700E+03  0.14502144230E+03  0.54047023004E+03  0.60444665173E+03  0.17200000000E+03 0.  1.
         -6    1    1    2    0  502  0.15044090700E+03 -0.14502144230E+03  0.78664264103E+03  0.83189802855E+03  0.17200000000E+03 0.  1.
</event>
<event>
 4    1  0.5874615E+000  0.1999079E+03  0.7818608E-02  0.1149817E+00
         21   -1    0    0  503  502  0.00000000000E+00  0.00000000000E+00  0.96433557142E+03  0.96433557142E+03  0.00000000000E+00 0.  1.
         21   -1    0    0  501  503 -0.00000000000E+00 -0.00000000000E+00 -0.41445591929E+02  0.41445591929E+02  0.00000000000E+00 0.  1.
          6    1    1    2  501    0 -0.14212497386E+02 -0.10088203883E+03  0.45624230899E+03  0.49811667846E+03  0.17200000000E+03 0.  1.
         -6    1    1    2    0  502  0.14212497386E+02  0.10088203883E+03  0.46664767050E+03  0.50766448489E+03  0.17200000000E+03 0.  1.
</event>
<event>
 4    1  0.5874615E+000  0.2131691E+03  0.7818608E-02  0.1139081E+00
         21   -1    0    0  503  502  0.00000000000E+00  0.00000000000E+00  0.19194178933E+03  0.19194178933E+03  0.00000000000E+00 0. -1.
         21   -1    0    0  501  503 -0.00000000000E+00 -0.00000000000E+00 -0.31787163529E+03  0.31787163529E+03  0.00000000000E+00 0. -1.
          6    1    1    2  501    0 -0.40911001620E+02  0.11909388129E+03 -0.19174238244E+03  0.28671624272E+03  0.17200000000E+03 0. -1.
         -6    1    1    2    0  502  0.40911001620E+02 -0.11909388129E+03  0.65812536478E+02  0.22309718190E+03  0.17200000000E+03 0. -1.
</event>
<event>
 4    1  0.5874615E+000  0.2588002E+03  0.7818608E-02  0.1107866E+00
         21   -1    0    0  503  502  0.00000000000E+00  0.00000000000E+00  0.10718558844E+03  0.10718558844E+03  0.00000000000E+00 0. -1.
         21   -1    0    0  501  503 -0.00000000000E+00 -0.00000000000E+00 -0.64114690806E+03  0.64114690806E+03  0.00000000000E+00 0.  1.
          6    1    1    2  501    0 -0.39785859914E+02 -0.18923695702E+03 -0.32658965480E+03  0.41669934387E+03  0.17200000000E+03 0.  1.
         -6    1    1    2    0  502  0.39785859914E+02  0.18923695702E+03 -0.20737166482E+03  0.33163315263E+03  0.17200000000E+03 0. -1.
</event>
<event>
 4    1  0.5874615E+000  0.2096481E+03  0.7818608E-02  0.1141845E+00
         21   -1    0    0  503  502  0.00000000000E+00  0.00000000000E+00  0.19945454233E+03  0.19945454233E+03  0.00000000000E+00 0. -1.
         21   -1    0    0  501  503 -0.00000000000E+00 -0.00000000000E+00 -0.24748212872E+03  0.24748212872E+03  0.00000000000E+00 0. -1.
          6    1    1    2  501    0  0.10188420759E+03  0.63150032336E+02 -0.97988843621E+02  0.23141765666E+03  0.17200000000E+03 0. -1.
         -6    1    1    2    0  502 -0.10188420759E+03 -0.63150032336E+02  0.49961257225E+02  0.21551901439E+03  0.17200000000E+03 0. -1.
</event>
<event>
 4    1  0.5874615E+000  0.1782815E+03  0.7818608E-02  0.1169477E+00
         21   -1    0    0  501  502  0.00000000000E+00  0.00000000000E+00  0.23250029292E+03  0.23250029292E+03  0.00000000000E+00 0.  1.
         21   -1    0    0  502  503 -0.00000000000E+00 -0.00000000000E+00 -0.15072398321E+03  0.15072398321E+03  0.00000000000E+00 0.  1.
          6    1    1    2  501    0 -0.25276145285E+02  0.39514478963E+02  0.99322534599E+02  0.20408146277E+03  0.17200000000E+03 0.  1.
         -6    1    1    2    0  503  0.25276145285E+02 -0.39514478963E+02 -0.17546224890E+02  0.17914281335E+03  0.17200000000E+03 0.  1.
</event>
<event>
 4    1  0.5874615E+000  0.2913028E+03  0.7818608E-02  0.1089671E+00
         21   -1    0    0  503  502  0.00000000000E+00  0.00000000000E+00  0.17721954551E+03  0.17721954551E+03  0.00000000000E+00 0.  1.
         21   -1    0    0  501  503 -0.00000000000E+00 -0.00000000000E+00 -0.54664175699E+03  0.54664175699E+03  0.00000000000E+00 0.  1.
          6    1    1    2  501    0 -0.19870786322E+03  0.12565227587E+03 -0.31219037705E+03  0.42698962617E+03  0.17200000000E+03 0.  1.
         -6    1    1    2    0  502  0.19870786322E+03 -0.12565227587E+03 -0.57231834430E+02  0.29687167634E+03  0.17200000000E+03 0.  1.
</event>
<event>
 4    1  0.5874615E+000  0.3900426E+03  0.7818608E-02  0.1047283E+00
         21   -1    0    0  501  502  0.00000000000E+00  0.00000000000E+00  0.16959378972E+03  0.16959378972E+03  0.00000000000E+00 0. -1.
         21   -1    0    0  502  503 -0.00000000000E+00 -0.00000000000E+00 -0.16731800828E+04  0.16731800828E+04  0.00000000000E+00 0. -1.
          6    1    1    2  501    0  0.16207230168E+03  0.31029314110E+03 -0.12425611464E+03  0.40935662498E+03  0.17200000000E+03 0. -1.
         -6    1    1    2    0  503 -0.16207230168E+03 -0.31029314110E+03 -0.13793301784E+04  0.14334172475E+04  0.17200000000E+03 0. -1.
</event>
<event>
 4    1  0.5874615E+000  0.2482959E+03  0.7818608E-02  0.1114386E+00
         21   -1    0    0  501  502  0.00000000000E+00  0.00000000000E+00  0.39280282214E+03  0.39280282214E+03  0.00000000000E+00 0.  1.
         21   -1    0    0  502  503 -0.00000000000E+00 -0.00000000000E+00 -0.19277460768E+03  0.19277460768E+03  0.00000000000E+00 0.  1.
          6    1    1    2  501    0 -0.16237482423E+03  0.75506920924E+02  0.22622963863E+03  0.33590285507E+03  0.17200000000E+03 0.  1.
         -6    1    1    2    0  503  0.16237482423E+03 -0.75506920924E+02 -0.26201424168E+02  0.24967457476E+03  0.17200000000E+03 0.  1.
</event>
<event>
 4    1  0.5874615E+000  0.1874364E+03  0.7818608E-02  0.1160794E+00
         21   -1    0    0  501  502  0.00000000000E+00  0.00000000000E+00  0.39143539879E+03  0.39143539879E+03  0.00000000000E+00 0.  1.
         21   -1    0    0  502  503 -0.00000000000E+00 -0.00000000000E+00 -0.12890015122E+03  0.12890015122E+03  0.00000000000E+00 0.  1.
          6    1    1    2  501    0  0.52282562115E+02  0.53055860183E+02  0.27464427763E+03  0.33250845077E+03  0.17200000000E+03 0.  1.
         -6    1    1    2    0  503 -0.52282562115E+02 -0.53055860183E+02 -0.12109030057E+02  0.18782709924E+03  0.17200000000E+03 0.  1.
</event>
<event>
 4    1  0.5874615E+000  0.2007812E+03  0.7818608E-02  0.1149082E+00
         21   -1    0    0  501  502  0.00000000000E+00  0.00000000000E+00  0.25669052315E+03  0.25669052315E+03  0.00000000000E+00 0. -1.
         21   -1    0    0  502  503 -0.00000000000E+00 -0.00000000000E+00 -0.15767136697E+03  0.15767136697E+03  0.00000000000E+00 0. -1.
          6    1    1    2  501    0 -0.65583971822E+02 -0.80173730840E+02  0.36496855717E+02  0.20407132320E+03  0.17200000000E+03 0. -1.
         -6    1    1    2    0  503  0.65583971822E+02  0.80173730840E+02  0.62522300465E+02  0.21029056691E+03  0.17200000000E+03 0. -1.
</event>
<event>
 4    1  0.5874615E+000  0.5314462E+03  0.7818608E-02  0.1005882E+00
         21   -1    0    0  501  502  0.00000000000E+00  0.00000000000E+00  0.19794591012E+04  0.19794591012E+04  0.00000000000E+00 0. -1.
         21   -1    0    0  502  503 -0.00000000000E+00 -0.00000000000E+00 -0.14330324718E+03  0.14330324718E+03  0.00000000000E+00 0.  1.
          6    1    1    2  501    0  0.43254308092E+03  0.25643243410E+03  0.98790681164E+03  0.11217820549E+04  0.17200000000E+03 0. -1.
         -6    1    1    2    0  503 -0.43254308092E+03 -0.25643243410E+03  0.84824904235E+03  0.10009802935E+04  0.17200000000E+03 0.  1.
</event>
<event>
 4    1  0.5874615E+000  0.1768586E+03  0.7818608E-02  0.1170878E+00
         21   -1    0    0  503  502  0.00000000000E+00  0.00000000000E+00  0.40910280986E+03  0.40910280986E+03  0.00000000000E+00 0. -1.
         21   -1    0    0  501  503 -0.00000000000E+00 -0.00000000000E+00 -0.10614497446E+03  0.10614497446E+03  0.00000000000E+00 0. -1.
          6    1    1    2  501    0  0.14758113648E+02 -0.38433812221E+02  0.15233039787E+02  0.17751339482E+03  0.17200000000E+03 0. -1.
         -6    1    1    2    0  502 -0.14758113648E+02  0.38433812221E+02  0.28772479561E+03  0.33773438950E+03  0.17200000000E+03 0. -1.
</event>
<event>
 4    1  0.5874615E+000  0.2004410E+03  0.7818608E-02  0.1149367E+00
         21   -1    0    0  501  502  0.00000000000E+00  0.00000000000E+00  0.57466144107E+03  0.57466144107E+03  0.00000000000E+00 0. -1.
         21   -1    0    0  502  503 -0.00000000000E+00 -0.00000000000E+00 -0.93727255769E+02  0.93727255769E+02  0.00000000000E+00 0. -1.
          6    1    1    2  501    0 -0.76373471863E+02 -0.68990597357E+02  0.40892051058E+03  0.45540376997E+03  0.17200000000E+03 0. -1.
         -6    1    1    2    0  503  0.76373471863E+02  0.68990597357E+02  0.72013674723E+02  0.21298492687E+03  0.17200000000E+03 0. -1.
</event>
<event>
 4    1  0.5874615E+000  0.2024453E+03  0.7818608E-02  0.1147692E+00
         21   -1    0    0  501  502  0.00000000000E+00  0.00000000000E+00  0.25808436070E+03  0.25808436070E+03  0.00000000000E+00 0.  1.
         21   -1    0    0  502  503 -0.00000000000E+00 -0.00000000000E+00 -0.16852755370E+03  0.16852755370E+03  0.00000000000E+00 0.  1.
          6    1    1    2  501    0  0.85147049829E+02 -0.64421228924E+02  0.96022260103E+02  0.22406335994E+03  0.17200000000E+03 0.  1.
         -6    1    1    2    0  503 -0.85147049829E+02  0.64421228924E+02 -0.64654531088E+01  0.20254855446E+03  0.17200000000E+03 0.  1.
</event>
<event>
 4    1  0.5874615E+000  0.1922434E+03  0.7818608E-02  0.1156453E+00
         21   -1    0    0  501  502  0.00000000000E+00  0.00000000000E+00  0.28397238614E+03  0.28397238614E+03  0.00000000000E+00 0. -1.
         21   -1    0    0  502  503 -0.00000000000E+00 -0.00000000000E+00 -0.13709149278E+03  0.13709149278E+03  0.00000000000E+00 0.  1.
          6    1    1    2  501    0 -0.44425848740E+00 -0.85867970648E+02  0.12083237590E+03  0.22706379899E+03  0.17200000000E+03 0. -1.
         -6    1    1    2    0  503  0.44425848740E+00  0.85867970648E+02  0.26048517456E+02  0.19400007992E+03  0.17200000000E+03 0.  1.
</event>
<event>
 4    1  0.5874615E+000  0.2276399E+03  0.7818608E-02  0.1128312E+00
         21   -1    0    0  503  502  0.00000000000E+00  0.00000000000E+00  0.14179877209E+03  0.14179877209E+03  0.00000000000E+00 0. -1.
         21   -1    0    0  501  503 -0.00000000000E+00 -0.00000000000E+00 -0.38126618762E+03  0.38126618762E+03  0.00000000000E+00 0.  1.
          6    1    1    2  501    0 -0.14361799283E+03 -0.40122391657E+02 -0.66461126870E+02  0.23714344933E+03  0.17200000000E+03 0.  1.
         -6    1    1    2    0  502  0.14361799283E+03  0.40122391657E+02 -0.17300628867E+03  0.28592151037E+03  0.17200000000E+03 0.  1.
</event>
<event>
 4    1  0.5874615E+000  0.2382780E+03  0.7818608E-02  0.1120945E+00
         21   -1    0    0  503  502  0.00000000000E+00  0.00000000000E+00  0.26006147260E+03  0.26006147260E+03  0.00000000000E+00 0.  1.
         21   -1    0    0  501  503 -0.00000000000E+00 -0.00000000000E+00 -0.67145416511E+03  0.67145416511E+03  0.00000000000E+00 0. -1.
          6    1    1    2  501    0 -0.12412303567E+03  0.10856281219E+03 -0.58831466275E+03  0.63473660252E+03  0.17200000000E+03 0. -1.
         -6    1    1    2    0  502  0.12412303567E+03 -0.10856281219E+03  0.17692197023E+03  0.29677903519E+03  0.17200000000E+03 0.  1.
</event>
<event>
 4    1  0.5874615E+000  0.4152215E+03  0.7818608E-02  0.1038633E+00
         21   -1    0    0  503  502  0.00000000000E+00  0.00000000000E+00  0.17448623254E+03  0.17448623254E+03  0.00000000000E+00 0. -1.
         21   -1    0    0  501  503 -0.00000000000E+00 -0.00000000000E+00 -0.19079689411E+04  0.19079689411E+04  0.00000000000E+00 0.  1.
          6    1    1    2  501    0 -0.25800929634E+03 -0.27614512688E+03 -0.15897179453E+04  0.16430496261E+04  0.17200000000E+03 0. -1.
         -6    1    1    2    0  502  0.25800929634E+03  0.27614512688E+03 -0.14376476328E+03  0.43940554760E+03  0.17200000000E+03 0. -1.
</event>
<event>
 4    1  0.5874615E+000  0.1802749E+03  0.7818608E-02  0.1167537E+00
         21   -1    0    0  503  502  0.00000000000E+00  0.00000000000E+00  0.63552037036E+03  0.63552037036E+03  0.00000000000E+00 0. -1.
         21   -1    0    0  501  503 -0.00000000000E+00 -0.00000000000E+00 -0.52758694512E+02  0.52758694512E+02  0.00000000000E+00 0. -1.
          6    1    1    2  501    0 -0.53357046433E+02 -0.82493386086E+01  0.35170390099E+03  0.39521470110E+03  0.17200000000E+03 0. -1.
         -6    1    1    2    0  502  0.53357046433E+02  0.82493386086E+01  0.23105777485E+03  0.29306436377E+03  0.17200000000E+03 0. -1.
</event>
<event>
 4    1  0.5874615E+000  0.1856529E+03  0.7818608E-02  0.1162442E+00
         21   -1    0    0  501  502  0.00000000000E+00  0.00000000000E+00  0.55871314587E+03  0.55871314587E+03  0.00000000000E+00 0. -1.
         21   -1    0    0  502  503 -0.00000000000E+00 -0.00000000000E+00 -0.82389445326E+02  0.82389445326E+02  0.00000000000E+00 0.  1.
          6    1    1    2  501    0  0.68658804909E+02 -0.12999088842E+02  0.39883422657E+03  0.43992698040E+03  0.17200000000E+03 0. -1.
         -6    1    1    2    0  503 -0.68658804909E+02  0.12999088842E+02  0.77489473977E+02  0.20117561080E+03  0.17200000000E+03 0.  1.
</event>
<event>
 4    1  0.5874615E+000  0.1965677E+03  0.7818608E-02  0.1152668E+00
         21   -1    0    0  501  502  0.00000000000E+00  0.00000000000E+00  0.40025572978E+03  0.40025572978E+03  0.00000000000E+00 0.  1.
         21   -1    0    0  502  503 -0.00000000000E+00 -0.00000000000E+00 -0.11252393330E+03  0.11252393330E+03  0.00000000000E+00 0.  1.
          6    1    1    2  501    0 -0.76530740984E+02 -0.56550173027E+02  0.24051140323E+03  0.31061972164E+03  0.17200000000E+03 0.  1.
         -6    1    1    2    0  503  0.76530740984E+02  0.56550173027E+02  0.47220393243E+02  0.20215994144E+03  0.17200000000E+03 0.  1.
</event>
<event>
 4    1  0.5874615E+000  0.2044800E+03  0.7818608E-02  0.1146013E+00
         21   -1    0    0  503  502  0.00000000000E+00  0.00000000000E+00  0.91843321181E+03  0.91843321181E+03  0.00000000000E+00 0. -1.
         21   -1    0    0  501  503 -0.00000000000E+00 -0.00000000000E+00 -0.73632348334E+02  0.73632348334E+02  0.00000000000E+00 0.  1.
          6    1    1    2  501    0  0.10800922547E+03  0.23707821716E+02  0.11593409329E+03  0.23505907254E+03  0.17200000000E+03 0.  1.
         -6    1    1    2    0  502 -0.10800922547E+03 -0.23707821716E+02  0.72886677018E+03  0.75700648760E+03  0.17200000000E+03 0. -1.
</event>
<event>
 4    1  0.5874615E+000  0.1734985E+03  0.7818608E-02  0.1174248E+00
         21   -1    0    0  503  502  0.00000000000E+00  0.00000000000E+00  0.13054641940E+03  0.13054641940E+03  0.00000000000E+00 0.  1.
         21   -1    0    0  501  503 -0.00000000000E+00 -0.00000000000E+00 -0.25905913232E+03  0.25905913232E+03  0.00000000000E+00 0.  1.
          6    1    1    2  501    0  0.78259615677E+01  0.21365200678E+02 -0.12884261620E+03  0.21610677274E+03  0.17200000000E+03 0.  1.
         -6    1    1    2    0  502 -0.78259615677E+01 -0.21365200678E+02  0.32990327775E+00  0.17349877899E+03  0.17200000000E+03 0.  1.
</event>
<event>
 4    1  0.5874615E+000  0.3617877E+03  0.7818608E-02  0.1057878E+00
         21   -1    0    0  501  502  0.00000000000E+00  0.00000000000E+00  0.18880045155E+03  0.18880045155E+03  0.00000000000E+00 0.  1.
         21   -1    0    0  502  503 -0.00000000000E+00 -0.00000000000E+00 -0.85421456963E+03  0.85421456963E+03  0.00000000000E+00 0. -1.
          6    1    1    2  501    0  0.31506589690E+03  0.45164016812E+02 -0.10634125424E+03  0.37709252201E+03  0.17200000000E+03 0. -1.
         -6    1    1    2    0  503 -0.31506589690E+03 -0.45164016812E+02 -0.55907286384E+03  0.66592249916E+03  0.17200000000E+03 0.  1.
</event>
<event>
 4    1  0.5874615E+000  0.1722876E+03  0.7818608E-02  0.1175483E+00
         21   -1    0    0  503  502  0.00000000000E+00  0.00000000000E+00  0.12093968697E+03  0.12093968697E+03  0.00000000000E+00 0. -1.
         21   -1    0    0  501  503 -0.00000000000E+00 -0.00000000000E+00 -0.28949778901E+03  0.28949778901E+03  0.00000000000E+00 0. -1.
          6    1    1    2  501    0 -0.40345433947E+01 -0.90959894707E+01 -0.16434040709E+03  0.23809826536E+03  0.17200000000E+03 0. -1.
         -6    1    1    2    0  502  0.40345433947E+01  0.90959894707E+01 -0.42176949547E+01  0.17233921062E+03  0.17200000000E+03 0. -1.
</event>
<event>
 4    1  0.5874615E+000  0.2035150E+03  0.7818608E-02  0.1146807E+00
         21   -1    0    0  501  502  0.00000000000E+00  0.00000000000E+00  0.11926714083E+04  0.11926714083E+04  0.00000000000E+00 0.  1.
         21   -1    0    0  502  503 -0.00000000000E+00 -0.00000000000E+00 -0.35960530867E+02  0.35960530867E+02  0.00000000000E+00 0. -1.
          6    1    1    2  501    0  0.10358298216E+03  0.33240093768E+02  0.46459556362E+03  0.50721531499E+03  0.17200000000E+03 0.  1.
         -6    1    1    2    0  503 -0.10358298216E+03 -0.33240093768E+02  0.69211531385E+03  0.72141662421E+03  0.17200000000E+03 0.  1.
</event>
<event>
 4    1  0.5874615E+000  0.1777877E+03  0.7818608E-02  0.1169961E+00
         21   -1    0    0  501  502  0.00000000000E+00  0.00000000000E+00  0.85586561638E+03  0.85586561638E+03  0.00000000000E+00 0. -1.
         21   -1    0    0  502  503 -0.00000000000E+00 -0.00000000000E+00 -0.66421108195E+02  0.66421108195E+02  0.00000000000E+00 0. -1.
          6    1    1    2  501    0  0.91477296680E+01 -0.44054299090E+02  0.70198993153E+03  0.72415352391E+03  0.17200000000E+03 0. -1.
         -6    1    1    2    0  503 -0.91477296680E+01  0.44054299090E+02  0.87454576655E+02  0.19813320066E+03  0.17200000000E+03 0. -1.
</event>
<event>
 4    1  0.5874615E+000  0.2446375E+03  0.7818608E-02  0.1116741E+00
         21   -1    0    0  503  502  0.00000000000E+00  0.00000000000E+00  0.30913952677E+03  0.30913952677E+03  0.00000000000E+00 0. -1.
         21   -1    0    0  501  503 -0.00000000000E+00 -0.00000000000E+00 -0.27772830014E+03  0.27772830014E+03  0.00000000000E+00 0.  1.
          6    1    1    2  501    0 -0.43584464232E+02 -0.16841591246E+03 -0.14579978824E+03  0.28478957731E+03  0.17200000000E+03 0.  1.
         -6    1    1    2    0  502  0.43584464232E+02  0.16841591246E+03  0.17721101487E+03  0.30207824960E+03  0.17200000000E+03 0. -1.
</event>
<event>
 4    1  0.5874615E+000  0.2147109E+03  0.7818608E-02  0.1137889E+00
         21   -1    0    0  501  502  0.00000000000E+00  0.00000000000E+00  0.16986702260E+04  0.16986702260E+04  0.00000000000E+00 0. -1.
         21   -1    0    0  502  503 -0.00000000000E+00 -0.00000000000E+00 -0.10316974805E+03  0.10316974805E+03  0.00000000000E+00 0. -1.
          6    1    1    2  501    0  0.12791895209E+03  0.12389792939E+02  0.15711494722E+04  0.15857526381E+04  0.17200000000E+03 0. -1.
         -6    1    1    2    0  503 -0.12791895209E+03 -0.12389792939E+02  0.24351005737E+02  0.21608733594E+03  0.17200000000E+03 0. -1.
</event>
<event>
 4    1  0.5874615E+000  0.2017751E+03  0.7818608E-02  0.1148250E+00
         21   -1    0    0  503  502  0.00000000000E+00  0.00000000000E+00  0.10617742262E+03  0.10617742262E+03  0.00000000000E+00 0. -1.
         21   -1    0    0  501  503 -0.00000000000E+00 -0.00000000000E+00 -0.39489130186E+03  0.39489130186E+03  0.00000000000E+00 0. -1.
          6    1    1    2  501    0 -0.33032605705E+02 -0.10019001415E+03 -0.10170263443E+03  0.22595711502E+03  0.17200000000E+03 0. -1.
         -6    1    1    2    0  502  0.33032605705E+02  0.10019001415E+03 -0.18701124482E+03  0.27511160947E+03  0.17200000000E+03 0. -1.
</event>
<event>
 4    1  0.5874615E+000  0.2053160E+03  0.7818608E-02  0.1145330E+00
         21   -1    0    0  503  502  0.00000000000E+00  0.00000000000E+00  0.14535629295E+03  0.14535629295E+03  0.00000000000E+00 0. -1.
         21   -1    0    0  501  503 -0.00000000000E+00 -0.00000000000E+00 -0.43703312827E+03  0.43703312827E+03  0.00000000000E+00 0. -1.
          6    1    1    2  501    0 -0.86282582930E+02  0.71595889266E+02 -0.31473481362E+03  0.37578272762E+03  0.17200000000E+03 0. -1.
         -6    1    1    2    0  502  0.86282582930E+02 -0.71595889266E+02  0.23057978296E+02  0.20660669360E+03  0.17200000000E+03 0. -1.
</event>
<event>
 4    1  0.5874615E+000  0.3069591E+03  0.7818608E-02  0.1081813E+00
         21   -1    0    0  501  502  0.00000000000E+00  0.00000000000E+00  0.70090926731E+03  0.70090926731E+03  0.00000000000E+00 0.  1.
         21   -1    0    0  502  503 -0.00000000000E+00 -0.00000000000E+00 -0.13522280697E+03  0.13522280697E+03  0.00000000000E+00 0. -1.
          6    1    1    2  501    0  0.22021693198E+03  0.12706055603E+03  0.25085061110E+03  0.39642138076E+03  0.17200000000E+03 0. -1.
         -6    1    1    2    0  503 -0.22021693198E+03 -0.12706055603E+03  0.31483584924E+03  0.43971069352E+03  0.17200000000E+03 0.  1.
</event>
<event>
 4    1  0.5874615E+000  0.1789973E+03  0.7818608E-02  0.1168777E+00
         21   -1    0    0  501  502  0.00000000000E+00  0.00000000000E+00  0.96996895604E+02  0.96996895604E+02  0.00000000000E+00 0.  1.
         21   -1    0    0  502  503 -0.00000000000E+00 -0.00000000000E+00 -0.39956769965E+03  0.39956769965E+03  0.00000000000E+00 0.  1.
          6    1    1    2  501    0 -0.37680543920E+02 -0.32190367092E+02 -0.47925444776E+02  0.18530216237E+03  0.17200000000E+03 0.  1.
         -6    1    1    2    0  503  0.37680543920E+02  0.32190367092E+02 -0.25464535927E+03  0.31126243287E+03  0.17200000000E+03 0.  1.
</event>
<event>
 4    1  0.5874615E+000  0.2253539E+03  0.7818608E-02  0.1129953E+00
         21   -1    0    0  503  502  0.00000000000E+00  0.00000000000E+00  0.71466784486E+03  0.71466784486E+03  0.00000000000E+00 0. -1.
         21   -1    0    0  501  503 -0.00000000000E+00 -0.00000000000E+00 -0.10007246385E+03  0.10007246385E+03  0.00000000000E+00 0. -1.
          6    1    1    2  501    0 -0.13544486528E+03 -0.53432793852E+02  0.87954881318E+02  0.24190997528E+03  0.17200000000E+03 0. -1.
         -6    1    1    2    0  502  0.13544486528E+03  0.53432793852E+02  0.52664049969E+03  0.57283033343E+03  0.17200000000E+03 0. -1.
</event>
<event>
 4    1  0.5874615E+000  0.2195777E+03  0.7818608E-02  0.1134198E+00
         21   -1    0    0  503  502  0.00000000000E+00  0.00000000000E+00  0.17441775636E+03  0.17441775636E+03  0.00000000000E+00 0. -1.
         21   -1    0    0  501  503 -0.00000000000E+00 -0.00000000000E+00 -0.36276327430E+03  0.36276327430E+03  0.00000000000E+00 0. -1.
          6    1    1    2  501    0  0.12989051133E+03 -0.41938557660E+02 -0.22520158960E+03  0.31453162561E+03  0.17200000000E+03 0.  1.
         -6    1    1    2    0  502 -0.12989051133E+03  0.41938557660E+02  0.36856071662E+02  0.22264940505E+03  0.17200000000E+03 0.  1.
</event>
<event>
 4    1  0.5874615E+000  0.2078215E+03  0.7818608E-02  0.1143303E+00
         21   -1    0    0  503  502  0.00000000000E+00  0.00000000000E+00  0.20494296059E+03  0.20494296059E+03  0.00000000000E+00 0. -1.
         21   -1    0    0  501  503 -0.00000000000E+00 -0.00000000000E+00 -0.24995047357E+03  0.24995047357E+03  0.00000000000E+00 0.  1.
          6    1    1    2  501    0 -0.84430965886E+02  0.80481059911E+02 -0.11258840240E+03  0.23635976256E+03  0.17200000000E+03 0.  1.
         -6    1    1    2    0  502  0.84430965886E+02 -0.80481059911E+02  0.67580889422E+02  0.21853367159E+03  0.17200000000E+03 0. -1.
</event>
<event>
 4    1  0.5874615E+000  0.1753258E+03  0.7818608E-02  0.1172405E+00
         21   -1    0    0  501  502  0.00000000000E+00  0.00000000000E+00  0.32275895197E+02  0.32275895197E+02  0.00000000000E+00 0. -1.
         21   -1    0    0  502  503 -0.00000000000E+00 -0.00000000000E+00 -0.19158298298E+04  0.19158298298E+04  0.00000000000E+00 0. -1.
          6    1    1    2  501    0  0.57922991215E+01  0.33490340020E+02 -0.25103322070E+03  0.30619737344E+03  0.17200000000E+03 0. -1.
         -6    1    1    2    0  503 -0.57922991215E+01 -0.33490340020E+02 -0.16325207139E+04  0.16419083515E+04  0.17200000000E+03 0. -1.
</event>
<event>
 4    1  0.5874615E+000  0.2058765E+03  0.7818608E-02  0.1144874E+00
         21   -1    0    0  501  502  0.00000000000E+00  0.00000000000E+00  0.66243751888E+03  0.66243751888E+03  0.00000000000E+00 0.  1.
         21   -1    0    0  502  503 -0.00000000000E+00 -0.00000000000E+00 -0.12634181067E+03  0.12634181067E+03  0.00000000000E+00 0.  1.
          6    1    1    2  501    0  0.66180841927E+02  0.91767315780E+02  0.54512376110E+03  0.58270495021E+03  0.17200000000E+03 0.  1.
         -6    1    1    2    0  503 -0.66180841927E+02 -0.91767315780E+02 -0.90280528884E+01  0.20607437935E+03  0.17200000000E+03 0.  1.
</event>
<event>
 4    1  0.5874615E+000  0.2411293E+03  0.7818608E-02  0.1119043E+00
         21   -1    0    0  501  502  0.00000000000E+00  0.00000000000E+00  0.84112762140E+03  0.84112762140E+03  0.00000000000E+00 0. -1.
         21   -1    0    0  502  503 -0.00000000000E+00 -0.00000000000E+00 -0.93334459227E+02  0.93334459227E+02  0.00000000000E+00 0. -1.
          6    1    1    2  501    0  0.14016646544E+03 -0.94407157977E+02  0.61185382473E+03  0.65765374807E+03  0.17200000000E+03 0. -1.
         -6    1    1    2    0  503 -0.14016646544E+03  0.94407157977E+02  0.13593933744E+03  0.27680833256E+03  0.17200000000E+03 0. -1.
</event>
<event>
 4    1  0.5874615E+000  0.1758288E+03  0.7818608E-02  0.1171902E+00
         21   -1    0    0  501  502  0.00000000000E+00  0.00000000000E+00  0.69636366594E+02  0.69636366594E+02  0.00000000000E+00 0. -1.
         21   -1    0    0  502  503 -0.00000000000E+00 -0.00000000000E+00 -0.50188780732E+03  0.50188780732E+03  0.00000000000E+00 0. -1.
          6    1    1    2  501    0  0.15700389704E+02 -0.32943281211E+02 -0.11904236149E+03  0.21233663330E+03  0.17200000000E+03 0. -1.
         -6    1    1    2    0  503 -0.15700389704E+02  0.32943281211E+02 -0.31320907924E+03  0.35918754061E+03  0.17200000000E+03 0. -1.
</event>
<event>
 4    1  0.5874615E+000  0.1891684E+03  0.7818608E-02  0.1159214E+00
         21   -1    0    0  503  502  0.00000000000E+00  0.00000000000E+00  0.21273113832E+03  0.21273113832E+03  0.00000000000E+00 0.  1.
         21   -1    0    0  501  503 -0.00000000000E+00 -0.00000000000E+00 -0.17970165085E+03  0.17970165085E+03  0.00000000000E+00 0.  1.
          6    1    1    2  501    0  0.51181437420E+02 -0.59842522998E+02 -0.33092740201E+02  0.19204113244E+03  0.17200000000E+03 0.  1.
         -6    1    1    2    0  502 -0.51181437420E+02  0.59842522998E+02  0.66122227677E+02  0.20039165673E+03  0.17200000000E+03 0.  1.
</event>
<event>
 4    1  0.5874615E+000  0.2360595E+03  0.7818608E-02  0.1122446E+00
         21   -1    0    0  503  502  0.00000000000E+00  0.00000000000E+00  0.11185910635E+04  0.11185910635E+04  0.00000000000E+00 0.  1.
         21   -1    0    0  501  503 -0.00000000000E+00 -0.00000000000E+00 -0.61584793448E+02  0.61584793448E+02  0.00000000000E+00 0.  1.
          6    1    1    2  501    0  0.95840499032E+02 -0.13021016196E+03  0.78645584713E+03  0.82111928916E+03  0.17200000000E+03 0.  1.
         -6    1    1    2    0  502 -0.95840499032E+02  0.13021016196E+03  0.27055042291E+03  0.35905656778E+03  0.17200000000E+03 0.  1.
</event>
<event>
 4    1  0.5874615E+000  0.1971483E+03  0.7818608E-02  0.1152168E+00
         21   -1    0    0  501  502  0.00000000000E+00  0.00000000000E+00  0.13328442575E+03  0.13328442575E+03  0.00000000000E+00 0. -1.
         21   -1    0    0  502  503 -0.00000000000E+00 -0.00000000000E+00 -0.48627981606E+03  0.48627981606E+03  0.00000000000E+00 0. -1.
          6    1    1    2  501    0 -0.78053303814E+02  0.56490044500E+02  0.19503817530E+02  0.19811068185E+03  0.17200000000E+03 0. -1.
         -6    1    1    2    0  503  0.78053303814E+02 -0.56490044500E+02 -0.37249920784E+03  0.42145355996E+03  0.17200000000E+03 0. -1.
</event>
<event>
 4    1  0.5874615E+000  0.2113045E+03  0.7818608E-02  0.1140537E+00
         21   -1    0    0  501  502  0.00000000000E+00  0.00000000000E+00  0.10425030328E+04  0.10425030328E+04  0.00000000000E+00 0.  1.
         21   -1    0    0  502  503 -0.00000000000E+00 -0.00000000000E+00 -0.43028794677E+02  0.43028794677E+02  0.00000000000E+00 0.  1.
          6    1    1    2  501    0  0.45688597555E+02 -0.11392161734E+03  0.53670248253E+03  0.57680077808E+03  0.17200000000E+03 0.  1.
         -6    1    1    2    0  503 -0.45688597555E+02  0.11392161734E+03  0.46277175560E+03  0.50873104940E+03  0.17200000000E+03 0.  1.
</event>
<event>
 4    1  0.5874615E+000  0.1925915E+03  0.7818608E-02  0.1156145E+00
         21   -1    0    0  503  502  0.00000000000E+00  0.00000000000E+00  0.43353184538E+03  0.43353184538E+03  0.00000000000E+00 0.  1.
         21   -1    0    0  501  503 -0.00000000000E+00 -0.00000000000E+00 -0.10694770973E+03  0.10694770973E+03  0.00000000000E+00 0.  1.
          6    1    1    2  501    0 -0.74924405526E+02  0.43518150912E+02  0.42432640556E+02  0.19721061074E+03  0.17200000000E+03 0.  1.
         -6    1    1    2    0  502  0.74924405526E+02 -0.43518150912E+02  0.28415149510E+03  0.34326894437E+03  0.17200000000E+03 0.  1.
</event>
<event>
 4    1  0.5874615E+000  0.1910610E+03  0.7818608E-02  0.1157508E+00
         21   -1    0    0  503  502  0.00000000000E+00  0.00000000000E+00  0.77754714430E+03  0.77754714430E+03  0.00000000000E+00 0. -1.
         21   -1    0    0  501  503 -0.00000000000E+00 -0.00000000000E+00 -0.57139972777E+02  0.57139972777E+02  0.00000000000E+00 0.  1.
          6    1    1    2  501    0  0.53963916246E+02 -0.63310396070E+02  0.53646290281E+03  0.56947059327E+03  0.17200000000E+03 0.  1.
         -6    1    1    2    0  502 -0.53963916246E+02  0.63310396070E+02  0.18394426871E+03  0.26521652380E+03  0.17200000000E+03 0.  1.
</event>
<event>
 4    1  0.5874615E+000  0.1817011E+03  0.7818608E-02  0.1166167E+00
         21   -1    0    0  501  502  0.00000000000E+00  0.00000000000E+00  0.19902068086E+03  0.19902068086E+03  0.00000000000E+00 0.  1.
         21   -1    0    0  502  503 -0.00000000000E+00 -0.00000000000E+00 -0.26286930230E+03  0.26286930230E+03  0.00000000000E+00 0.  1.
          6    1    1    2  501    0 -0.37935296864E+02 -0.44634114254E+02  0.10835090675E+03  0.21155427175E+03  0.17200000000E+03 0.  1.
         -6    1    1    2    0  503  0.37935296864E+02  0.44634114254E+02 -0.17219952818E+03  0.25033571142E+03  0.17200000000E+03 0.  1.
</event>
<event>
 4    1  0.5874615E+000  0.1885342E+03  0.7818608E-02  0.1159790E+00
         21   -1    0    0  501  502  0.00000000000E+00  0.00000000000E+00  0.14965525869E+03  0.14965525869E+03  0.00000000000E+00 0. -1.
         21   -1    0    0  502  503 -0.00000000000E+00 -0.00000000000E+00 -0.61973963323E+03  0.61973963323E+03  0.00000000000E+00 0. -1.
          6    1    1    2  501    0  0.17155753112E+02 -0.75278325191E+02  0.67074594023E+02  0.20011033774E+03  0.17200000000E+03 0. -1.
         -6    1    1    2    0  503 -0.17155753112E+02  0.75278325191E+02 -0.53715896857E+03  0.56928455417E+03  0.17200000000E+03 0. -1.
</event>
<event>
 4    1  0.5874615E+000  0.2182508E+03  0.7818608E-02  0.1135194E+00
         21   -1    0    0  503  502  0.00000000000E+00  0.00000000000E+00  0.50088402429E+03  0.50088402429E+03  0.00000000000E+00 0.  1.
         21   -1    0    0  501  503 -0.00000000000E+00 -0.00000000000E+00 -0.19776951132E+03  0.19776951132E+03  0.00000000000E+00 0.  1.
          6    1    1    2  501    0  0.11484280786E+03  0.69717682678E+02 -0.10013836809E+03  0.24012729657E+03  0.17200000000E+03 0.  1.
         -6    1    1    2    0  502 -0.11484280786E+03 -0.69717682678E+02  0.40325288106E+03  0.45852623903E+03  0.17200000000E+03 0.  1.
</event>
<event>
 4    1  0.5874615E+000  0.1991694E+03  0.7818608E-02  0.1150442E+00
         21   -1    0    0  503  502  0.00000000000E+00  0.00000000000E+00  0.71945324650E+02  0.71945324650E+02  0.00000000000E+00 0. -1.
         21   -1    0    0  501  503 -0.00000000000E+00 -0.00000000000E+00 -0.71075782231E+03  0.71075782231E+03  0.00000000000E+00 0.  1.
          6    1    1    2  501    0 -0.85881208080E+02 -0.52046602721E+02 -0.50473168025E+03  0.54260713210E+03  0.17200000000E+03 0.  1.
         -6    1    1    2    0  502  0.85881208080E+02  0.52046602721E+02 -0.13408081742E+03  0.24009601487E+03  0.17200000000E+03 0. -1.
</event>
<event>
 4    1  0.5874615E+000  0.2002624E+03  0.7818608E-02  0.1149518E+00
         21   -1    0    0  501  502  0.00000000000E+00  0.00000000000E+00  0.65391811758E+03  0.65391811758E+03  0.00000000000E+00 0. -1.
         21   -1    0    0  502  503 -0.00000000000E+00 -0.00000000000E+00 -0.67386484552E+02  0.67386484552E+02  0.00000000000E+00 0. -1.
          6    1    1    2  501    0 -0.98847560766E+02  0.27389784649E+02  0.40138414479E+03  0.44856913877E+03  0.17200000000E+03 0. -1.
         -6    1    1    2    0  503  0.98847560766E+02 -0.27389784649E+02  0.18514748824E+03  0.27273546336E+03  0.17200000000E+03 0. -1.
</event>
<event>
 4    1  0.5874615E+000  0.2078878E+03  0.7818608E-02  0.1143250E+00
         21   -1    0    0  501  502  0.00000000000E+00  0.00000000000E+00  0.97644967460E+02  0.97644967460E+02  0.00000000000E+00 0. -1.
         21   -1    0    0  502  503 -0.00000000000E+00 -0.00000000000E+00 -0.45413550655E+03  0.45413550655E+03  0.00000000000E+00 0. -1.
          6    1    1    2  501    0  0.82528689517E+02  0.82597425709E+02 -0.22222252320E+03  0.30430275902E+03  0.17200000000E+03 0.  1.
         -6    1    1    2    0  503 -0.82528689517E+02 -0.82597425709E+02 -0.13426801589E+03  0.24747771499E+03  0.17200000000E+03 0.  1.
</event>
<event>
 4    1  0.5874615E+000  0.1785670E+03  0.7818608E-02  0.1169197E+00
         21   -1    0    0  501  502  0.00000000000E+00  0.00000000000E+00  0.19436693506E+03  0.19436693506E+03  0.00000000000E+00 0.  1.
         21   -1    0    0  502  503 -0.00000000000E+00 -0.00000000000E+00 -0.18761159957E+03  0.18761159957E+03  0.00000000000E+00 0.  1.
          6    1    1    2  501    0 -0.35949751006E+02  0.31776939877E+02  0.71059022489E+02  0.19218622006E+03  0.17200000000E+03 0. -1.
         -6    1    1    2    0  503  0.35949751006E+02 -0.31776939877E+02 -0.64303686997E+02  0.18979231456E+03  0.17200000000E+03 0. -1.
</event>
<event>
 4    1  0.5874615E+000  0.1813240E+03  0.7818608E-02  0.1166528E+00
         21   -1    0    0  501  502  0.00000000000E+00  0.00000000000E+00  0.65083460200E+03  0.65083460200E+03  0.00000000000E+00 0. -1.
         21   -1    0    0  502  503 -0.00000000000E+00 -0.00000000000E+00 -0.58543405083E+02  0.58543405083E+02  0.00000000000E+00 0.  1.
          6    1    1    2  501    0 -0.48496169530E+01 -0.57191635682E+02  0.42747481628E+03  0.46434159897E+03  0.17200000000E+03 0. -1.
         -6    1    1    2    0  503  0.48496169530E+01  0.57191635682E+02  0.16481638064E+03  0.24503640812E+03  0.17200000000E+03 0.  1.
</event>
<event>
 4    1  0.5874615E+000  0.2326246E+03  0.7818608E-02  0.1124806E+00
         21   -1    0    0  503  502  0.00000000000E+00  0.00000000000E+00  0.14636907620E+03  0.14636907620E+03  0.00000000000E+00 0. -1.
         21   -1    0    0  501  503 -0.00000000000E+00 -0.00000000000E+00 -0.64241356267E+03  0.64241356267E+03  0.00000000000E+00 0. -1.
          6    1    1    2  501    0  0.15240565804E+03 -0.36093112803E+02 -0.50498189418E+03  0.55598643045E+03  0.17200000000E+03 0. -1.
         -6    1    1    2    0  502 -0.15240565804E+03  0.36093112803E+02  0.89374077110E+01  0.23279620841E+03  0.17200000000E+03 0. -1.
</event>
<event>
 4    1  0.5874615E+000  0.2621279E+03  0.7818608E-02  0.1105871E+00
         21   -1    0    0  501  502  0.00000000000E+00  0.00000000000E+00  0.41909746514E+03  0.41909746514E+03  0.00000000000E+00 0.  1.
         21   -1    0    0  502  503 -0.00000000000E+00 -0.00000000000E+00 -0.19610250358E+03  0.19610250358E+03  0.00000000000E+00 0. -1.
          6    1    1    2  501    0  0.74788591970E+01 -0.19766411631E+03  0.23604986001E+03  0.35274717947E+03  0.17200000000E+03 0.  1.
         -6    1    1    2    0  503 -0.74788591970E+01  0.19766411631E+03 -0.13054898442E+02  0.26245278925E+03  0.17200000000E+03 0. -1.
</event>
<event>
 4    1  0.5874615E+000  0.2218066E+03  0.7818608E-02  0.1132543E+00
         21   -1    0    0  501  502  0.00000000000E+00  0.00000000000E+00  0.17270649227E+04  0.17270649227E+04  0.00000000000E+00 0. -1.
         21   -1    0    0  502  503 -0.00000000000E+00 -0.00000000000E+00 -0.29343790173E+02  0.29343790173E+02  0.00000000000E+00 0.  1.
          6    1    1    2  501    0 -0.96938155775E+02  0.10107990456E+03  0.99896173192E+03  0.10232901324E+04  0.17200000000E+03 0.  1.
         -6    1    1    2    0  503  0.96938155775E+02 -0.10107990456E+03  0.69875940060E+03  0.73311858050E+03  0.17200000000E+03 0. -1.
</event>
<event>
 4    1  0.5874615E+000  0.2224192E+03  0.7818608E-02  0.1132092E+00
         21   -1    0    0  503  502  0.00000000000E+00  0.00000000000E+00  0.19459684910E+03  0.19459684910E+03  0.00000000000E+00 0. -1.
         21   -1    0    0  501  503 -0.00000000000E+00 -0.00000000000E+00 -0.39440898378E+03  0.39440898378E+03  0.00000000000E+00 0. -1.
          6    1    1    2  501    0 -0.12105475940E+03  0.72332732607E+02 -0.27548572385E+03  0.35406590209E+03  0.17200000000E+03 0. -1.
         -6    1    1    2    0  502  0.12105475940E+03 -0.72332732607E+02  0.75673589167E+02  0.23493993078E+03  0.17200000000E+03 0. -1.
</event>
<event>
 4    1  0.5874615E+000  0.2420720E+03  0.7818608E-02  0.1118420E+00
         21   -1    0    0  503  502  0.00000000000E+00  0.00000000000E+00  0.86337223202E+02  0.86337223202E+02  0.00000000000E+00 0.  1.
         21   -1    0    0  501  503 -0.00000000000E+00 -0.00000000000E+00 -0.71672477963E+03  0.71672477963E+03  0.00000000000E+00 0.  1.
          6    1    1    2  501    0 -0.16361502510E+02  0.16954982904E+03 -0.40765489294E+03  0.47411112097E+03  0.17200000000E+03 0.  1.
         -6    1    1    2    0  502  0.16361502510E+02 -0.16954982904E+03 -0.22273266348E+03  0.32895088186E+03  0.17200000000E+03 0.  1.
</event>
<event>
 4    1  0.5874615E+000  0.1944123E+03  0.7818608E-02  0.1154541E+00
         21   -1    0    0  503  502  0.00000000000E+00  0.00000000000E+00  0.12048096953E+04  0.12048096953E+04  0.00000000000E+00 0.  1.
         21   -1    0    0  501  503 -0.00000000000E+00 -0.00000000000E+00 -0.35752176474E+02  0.35752176474E+02  0.00000000000E+00 0. -1.
          6    1    1    2  501    0  0.90082183639E+02  0.98657718571E+01  0.36739338757E+03  0.41566096100E+03  0.17200000000E+03 0.  1.
         -6    1    1    2    0  502 -0.90082183639E+02 -0.98657718571E+01  0.80166413121E+03  0.82490091074E+03  0.17200000000E+03 0.  1.
</event>
<event>
 4    1  0.5874615E+000  0.1860151E+03  0.7818608E-02  0.1162105E+00
         21   -1    0    0  503  502  0.00000000000E+00  0.00000000000E+00  0.36342573079E+03  0.36342573079E+03  0.00000000000E+00 0.  1.
         21   -1    0    0  501  503 -0.00000000000E+00 -0.00000000000E+00 -0.25884255472E+03  0.25884255472E+03  0.00000000000E+00 0.  1.
          6    1    1    2  501    0 -0.16269479952E+02 -0.68941390448E+02 -0.19508878797E+03  0.26955750126E+03  0.17200000000E+03 0.  1.
         -6    1    1    2    0  502  0.16269479952E+02  0.68941390448E+02  0.29967196404E+03  0.35271078425E+03  0.17200000000E+03 0.  1.
</event>
<event>
 4    1  0.5874615E+000  0.1913260E+03  0.7818608E-02  0.1157271E+00
         21   -1    0    0  503  502  0.00000000000E+00  0.00000000000E+00  0.42758856551E+03  0.42758856551E+03  0.00000000000E+00 0.  1.
         21   -1    0    0  501  503 -0.00000000000E+00 -0.00000000000E+00 -0.14258870987E+03  0.14258870987E+03  0.00000000000E+00 0.  1.
          6    1    1    2  501    0  0.21531213016E+02  0.80981855559E+02 -0.37716947010E+02  0.19500826176E+03  0.17200000000E+03 0.  1.
         -6    1    1    2    0  502 -0.21531213016E+02 -0.80981855559E+02  0.32271680265E+03  0.37516901362E+03  0.17200000000E+03 0.  1.
</event>
<event>
 4    1  0.5874615E+000  0.1761177E+03  0.7818608E-02  0.1171614E+00
         21   -1    0    0  503  502  0.00000000000E+00  0.00000000000E+00  0.31320240180E+03  0.31320240180E+03  0.00000000000E+00 0. -1.
         21   -1    0    0  501  503 -0.00000000000E+00 -0.00000000000E+00 -0.19741627040E+03  0.19741627040E+03  0.00000000000E+00 0. -1.
          6    1    1    2  501    0 -0.66687704291E+01  0.37268731205E+02 -0.12234040592E+03  0.21444021485E+03  0.17200000000E+03 0. -1.
         -6    1    1    2    0  502  0.66687704291E+01 -0.37268731205E+02  0.23812653731E+03  0.29617845735E+03  0.17200000000E+03 0. -1.
</event>
<event>
 4    1  0.5874615E+000  0.2013867E+03  0.7818608E-02  0.1148574E+00
         21   -1    0    0  503  502  0.00000000000E+00  0.00000000000E+00  0.43452352671E+03  0.43452352671E+03  0.00000000000E+00 0.  1.
         21   -1    0    0  501  503 -0.00000000000E+00 -0.00000000000E+00 -0.96056206716E+02  0.96056206716E+02  0.00000000000E+00 0.  1.
          6    1    1    2  501    0  0.42626186817E+02  0.95684964794E+02  0.12458851300E+03  0.23680984325E+03  0.17200000000E+03 0. -1.
         -6    1    1    2    0  502 -0.42626186817E+02 -0.95684964794E+02  0.21387880700E+03  0.29376989017E+03  0.17200000000E+03 0. -1.
</event>
<event>
 4    1  0.5874615E+000  0.1762431E+03  0.7818608E-02  0.1171489E+00
         21   -1    0    0  503  502  0.00000000000E+00  0.00000000000E+00  0.21942700708E+03  0.21942700708E+03  0.00000000000E+00 0. -1.
         21   -1    0    0  501  503 -0.00000000000E+00 -0.00000000000E+00 -0.21535429203E+03  0.21535429203E+03  0.00000000000E+00 0. -1.
          6    1    1    2  501    0 -0.27452454380E+02 -0.26907195777E+02 -0.12522060421E+03  0.21619859888E+03  0.17200000000E+03 0. -1.
         -6    1    1    2    0  502  0.27452454380E+02  0.26907195777E+02  0.12929331926E+03  0.21858270024E+03  0.17200000000E+03 0. -1.
</event>
<event>
 4    1  0.5874615E+000  0.1764831E+03  0.7818608E-02  0.1171251E+00
         21   -1    0    0  503  502  0.00000000000E+00  0.00000000000E+00  0.70592474168E+03  0.70592474168E+03  0.00000000000E+00 0. -1.
         21   -1    0    0  501  503 -0.00000000000E+00 -0.00000000000E+00 -0.20177069610E+03  0.20177069610E+03  0.00000000000E+00 0. -1.
          6    1    1    2  501    0 -0.30543582877E+02  0.25087471033E+02 -0.14909193164E+03  0.23102964256E+03  0.17200000000E+03 0. -1.
         -6    1    1    2    0  502  0.30543582877E+02 -0.25087471033E+02  0.65324597723E+03  0.67666579523E+03  0.17200000000E+03 0. -1.
</event>
<event>
 4    1  0.5874615E+000  0.2106704E+03  0.7818608E-02  0.1141036E+00
         21   -1    0    0  503  502  0.00000000000E+00  0.00000000000E+00  0.39216306931E+02  0.39216306931E+02  0.00000000000E+00 0. -1.
         21   -1    0    0  501  503 -0.00000000000E+00 -0.00000000000E+00 -0.11666405229E+04  0.11666405229E+04  0.00000000000E+00 0. -1.
          6    1    1    2  501    0 -0.33667785673E+02  0.11689524226E+03 -0.45940458841E+03  0.50540537523E+03  0.17200000000E+03 0. -1.
         -6    1    1    2    0  502  0.33667785673E+02 -0.11689524226E+03 -0.66801962759E+03  0.70045145463E+03  0.17200000000E+03 0. -1.
</event>
<event>
 4    1  0.5874615E+000  0.2249110E+03  0.7818608E-02  0.1130274E+00
         21   -1    0    0  501  502  0.00000000000E+00  0.00000000000E+00  0.86343759516E+03  0.86343759516E+03  0.00000000000E+00 0.  1.
         21   -1    0    0  502  503 -0.00000000000E+00 -0.00000000000E+00 -0.59578195314E+02  0.59578195314E+02  0.00000000000E+00 0.  1.
          6    1    1    2  501    0 -0.31546179537E+02  0.14144177641E+03  0.46150137601E+03  0.51338918728E+03  0.17200000000E+03 0.  1.
         -6    1    1    2    0  503  0.31546179537E+02 -0.14144177641E+03  0.34235802384E+03  0.40962660320E+03  0.17200000000E+03 0.  1.
</event>
<event>
 4    1  0.5874615E+000  0.2449149E+03  0.7818608E-02  0.1116561E+00
         21   -1    0    0  503  502  0.00000000000E+00  0.00000000000E+00  0.41660353944E+02  0.41660353944E+02  0.00000000000E+00 0. -1.
         21   -1    0    0  501  503 -0.00000000000E+00 -0.00000000000E+00 -0.14481502313E+04  0.14481502313E+04  0.00000000000E+00 0.  1.
          6    1    1    2  501    0 -0.13557772399E+02 -0.17382603713E+03 -0.75975026308E+03  0.79825044105E+03  0.17200000000E+03 0. -1.
         -6    1    1    2    0  502  0.13557772399E+02  0.17382603713E+03 -0.64673961430E+03  0.69156014422E+03  0.17200000000E+03 0.  1.
</event>
<event>
 4    1  0.5874615E+000  0.2889734E+03  0.7818608E-02  0.1090886E+00
         21   -1    0    0  503  502  0.00000000000E+00  0.00000000000E+00  0.47975893504E+03  0.47975893504E+03  0.00000000000E+00 0.  1.
         21   -1    0    0  501  503 -0.00000000000E+00 -0.00000000000E+00 -0.18428229251E+03  0.18428229251E+03  0.00000000000E+00 0.  1.
          6    1    1    2  501    0  0.88393789047E+02  0.21472817211E+03  0.69530516042E+02  0.29722069662E+03  0.17200000000E+03 0.  1.
         -6    1    1    2    0  502 -0.88393789047E+02 -0.21472817211E+03  0.22594612648E+03  0.36682053093E+03  0.17200000000E+03 0.  1.
</event>
<event>
 4    1  0.5874615E+000  0.1912939E+03  0.7818608E-02  0.1157300E+00
         21   -1    0    0  503  502  0.00000000000E+00  0.00000000000E+00  0.37673249084E+03  0.37673249084E+03  0.00000000000E+00 0. -1.
         21   -1    0    0  501  503 -0.00000000000E+00 -0.00000000000E+00 -0.18197924891E+03  0.18197924891E+03  0.00000000000E+00 0. -1.
          6    1    1    2  501    0  0.17582208028E+02  0.81854773296E+02 -0.93372243586E+02  0.21286548293E+03  0.17200000000E+03 0. -1.
         -6    1    1    2    0  502 -0.17582208028E+02 -0.81854773296E+02  0.28812548552E+03  0.34584625682E+03  0.17200000000E+03 0. -1.
</event>
<event>
 4    1  0.5874615E+000  0.1950123E+03  0.7818608E-02  0.1154017E+00
         21   -1    0    0  503  502  0.00000000000E+00  0.00000000000E+00  0.27836402596E+03  0.27836402596E+03  0.00000000000E+00 0. -1.
         21   -1    0    0  501  503 -0.00000000000E+00 -0.00000000000E+00 -0.14151997713E+03  0.14151997713E+03  0.00000000000E+00 0. -1.
          6    1    1    2  501    0 -0.91891025930E+02  0.13606733389E+01  0.29353029416E+02  0.19720905764E+03  0.17200000000E+03 0.  1.
         -6    1    1    2    0  502  0.91891025930E+02 -0.13606733389E+01  0.10749101941E+03  0.22267494545E+03  0.17200000000E+03 0.  1.
</event>
<event>
 4    1  0.5874615E+000  0.2066760E+03  0.7818608E-02  0.1144226E+00
         21   -1    0    0  501  502  0.00000000000E+00  0.00000000000E+00  0.48122782224E+03  0.48122782224E+03  0.00000000000E+00 0. -1.
         21   -1    0    0  502  503 -0.00000000000E+00 -0.00000000000E+00 -0.15879327000E+03  0.15879327000E+03  0.00000000000E+00 0. -1.
          6    1    1    2  501    0 -0.11344399429E+03 -0.16169213429E+02  0.37373380013E+03  0.42707368997E+03  0.17200000000E+03 0. -1.
         -6    1    1    2    0  503  0.11344399429E+03  0.16169213429E+02 -0.51299247890E+02  0.21294740228E+03  0.17200000000E+03 0. -1.
</event>
<event>
 4    1  0.5874615E+000  0.2028675E+03  0.7818608E-02  0.1147342E+00
         21   -1    0    0  501  502  0.00000000000E+00  0.00000000000E+00  0.33369148572E+02  0.33369148572E+02  0.00000000000E+00 0.  1.
         21   -1    0    0  502  503 -0.00000000000E+00 -0.00000000000E+00 -0.13529829290E+04  0.13529829290E+04  0.00000000000E+00 0.  1.
          6    1    1    2  501    0  0.82847114252E+02  0.68611771831E+02 -0.45366964704E+03  0.49696213962E+03  0.17200000000E+03 0.  1.
         -6    1    1    2    0  503 -0.82847114252E+02 -0.68611771831E+02 -0.86594413335E+03  0.88938993791E+03  0.17200000000E+03 0.  1.
</event>
<event>
 4    1  0.5874615E+000  0.2705785E+03  0.7818608E-02  0.1100949E+00
         21   -1    0    0  503  502  0.00000000000E+00  0.00000000000E+00  0.15900130274E+03  0.15900130274E+03  0.00000000000E+00 0.  1.
         21   -1    0    0  501  503 -0.00000000000E+00 -0.00000000000E+00 -0.10914879464E+04  0.10914879464E+04  0.00000000000E+00 0.  1.
          6    1    1    2  501    0 -0.19567054285E+03 -0.73087303968E+02 -0.94165189427E+03  0.97975558448E+03  0.17200000000E+03 0.  1.
         -6    1    1    2    0  502  0.19567054285E+03  0.73087303968E+02  0.91652506418E+01  0.27073366462E+03  0.17200000000E+03 0.  1.
</event>
<event>
 4    1  0.5874615E+000  0.2327308E+03  0.7818608E-02  0.1124732E+00
         21   -1    0    0  503  502  0.00000000000E+00  0.00000000000E+00  0.21098411286E+02  0.21098411286E+02  0.00000000000E+00 0. -1.
         21   -1    0    0  501  503 -0.00000000000E+00 -0.00000000000E+00 -0.26176426832E+04  0.26176426832E+04  0.00000000000E+00 0. -1.
          6    1    1    2  501    0  0.61394566600E+02 -0.14425794786E+03 -0.11151039292E+04  0.11391314328E+04  0.17200000000E+03 0. -1.
         -6    1    1    2    0  502 -0.61394566600E+02  0.14425794786E+03 -0.14814403427E+04  0.14996096616E+04  0.17200000000E+03 0. -1.
</event>
<event>
 4    1  0.5874615E+000  0.2411383E+03  0.7818608E-02  0.1119037E+00
         21   -1    0    0  503  502  0.00000000000E+00  0.00000000000E+00  0.67971669503E+03  0.67971669503E+03  0.00000000000E+00 0. -1.
         21   -1    0    0  501  503 -0.00000000000E+00 -0.00000000000E+00 -0.24859763342E+03  0.24859763342E+03  0.00000000000E+00 0. -1.
          6    1    1    2  501    0  0.15825122019E+03 -0.59331711720E+02 -0.16034525432E+03  0.28958297825E+03  0.17200000000E+03 0. -1.
         -6    1    1    2    0  502 -0.15825122019E+03  0.59331711720E+02  0.59146431593E+03  0.63873135020E+03  0.17200000000E+03 0. -1.
</event>
<event>
 4    1  0.5874615E+000  0.1807517E+03  0.7818608E-02  0.1167078E+00
         21   -1    0    0  501  502  0.00000000000E+00  0.00000000000E+00  0.17167859674E+03  0.17167859674E+03  0.00000000000E+00 0. -1.
         21   -1    0    0  502  503 -0.00000000000E+00 -0.00000000000E+00 -0.25588215108E+03  0.25588215108E+03  0.00000000000E+00 0. -1.
          6    1    1    2  501    0  0.43967143143E+02  0.33971610400E+02 -0.15032646297E+03  0.23509407789E+03  0.17200000000E+03 0. -1.
         -6    1    1    2    0  503 -0.43967143143E+02 -0.33971610400E+02  0.66122908624E+02  0.19246666993E+03  0.17200000000E+03 0. -1.
</event>
<event>
 4    1  0.5874615E+000  0.1815575E+03  0.7818608E-02  0.1166304E+00
         21   -1    0    0  503  502  0.00000000000E+00  0.00000000000E+00  0.17292189376E+03  0.17292189376E+03  0.00000000000E+00 0. -1.
         21   -1    0    0  501  503 -0.00000000000E+00 -0.00000000000E+00 -0.19109835751E+03  0.19109835751E+03  0.00000000000E+00 0. -1.
          6    1    1    2  501    0 -0.12213731033E+02 -0.56832791993E+02 -0.24389783177E-01  0.18155754478E+03  0.17200000000E+03 0. -1.
         -6    1    1    2    0  502  0.12213731033E+02  0.56832791993E+02 -0.18152073966E+02  0.18246270649E+03  0.17200000000E+03 0. -1.
</event>
<event>
 4    1  0.5874615E+000  0.1987217E+03  0.7818608E-02  0.1150822E+00
         21   -1    0    0  501  502  0.00000000000E+00  0.00000000000E+00  0.31028464797E+02  0.31028464797E+02  0.00000000000E+00 0.  1.
         21   -1    0    0  502  503 -0.00000000000E+00 -0.00000000000E+00 -0.13618391878E+04  0.13618391878E+04  0.00000000000E+00 0.  1.
          6    1    1    2  501    0 -0.52788896470E+02 -0.84377961867E+02 -0.48724077931E+03  0.52620707432E+03  0.17200000000E+03 0.  1.
         -6    1    1    2    0  503  0.52788896470E+02  0.84377961867E+02 -0.84356994366E+03  0.86666057825E+03  0.17200000000E+03 0.  1.
</event>
<event>
 4    1  0.5874615E+000  0.2147726E+03  0.7818608E-02  0.1137841E+00
         21   -1    0    0  501  502  0.00000000000E+00  0.00000000000E+00  0.48383385026E+02  0.48383385026E+02  0.00000000000E+00 0. -1.
         21   -1    0    0  502  503 -0.00000000000E+00 -0.00000000000E+00 -0.10013531573E+04  0.10013531573E+04  0.00000000000E+00 0. -1.
          6    1    1    2  501    0  0.12267754470E+03  0.38645879952E+02 -0.59137947541E+03  0.62917165221E+03  0.17200000000E+03 0. -1.
         -6    1    1    2    0  503 -0.12267754470E+03 -0.38645879952E+02 -0.36159029687E+03  0.42056489012E+03  0.17200000000E+03 0. -1.
</event>
<event>
 4    1  0.5874615E+000  0.2853120E+03  0.7818608E-02  0.1092823E+00
         21   -1    0    0  503  502  0.00000000000E+00  0.00000000000E+00  0.24467485701E+03  0.24467485701E+03  0.00000000000E+00 0. -1.
         21   -1    0    0  501  503 -0.00000000000E+00 -0.00000000000E+00 -0.36582701722E+03  0.36582701722E+03  0.00000000000E+00 0. -1.
          6    1    1    2  501    0  0.19014898240E+03  0.12514912726E+03  0.31282686218E+02  0.28702185635E+03  0.17200000000E+03 0. -1.
         -6    1    1    2    0  502 -0.19014898240E+03 -0.12514912726E+03 -0.15243484643E+03  0.32348001788E+03  0.17200000000E+03 0. -1.
</event>
<event>
 4    1  0.5874615E+000  0.2008367E+03  0.7818608E-02  0.1149035E+00
         21   -1    0    0  501  502  0.00000000000E+00  0.00000000000E+00  0.33452942519E+03  0.33452942519E+03  0.00000000000E+00 0.  1.
         21   -1    0    0  502  503 -0.00000000000E+00 -0.00000000000E+00 -0.28945814962E+03  0.28945814962E+03  0.00000000000E+00 0.  1.
          6    1    1    2  501    0  0.57408545237E+02  0.86346150129E+02  0.26084883112E+03  0.32920739877E+03  0.17200000000E+03 0.  1.
         -6    1    1    2    0  503 -0.57408545237E+02 -0.86346150129E+02 -0.21577755555E+03  0.29478017604E+03  0.17200000000E+03 0.  1.
</event>
<event>
 4    1  0.5874615E+000  0.1891112E+03  0.7818608E-02  0.1159265E+00
         21   -1    0    0  501  502  0.00000000000E+00  0.00000000000E+00  0.49779318619E+02  0.49779318619E+02  0.00000000000E+00 0. -1.
         21   -1    0    0  502  503 -0.00000000000E+00 -0.00000000000E+00 -0.76971523366E+03  0.76971523366E+03  0.00000000000E+00 0.  1.
          6    1    1    2  501    0 -0.44041381078E+01 -0.78483442797E+02 -0.25420357618E+03  0.31683198287E+03  0.17200000000E+03 0. -1.
         -6    1    1    2    0  503  0.44041381078E+01  0.78483442797E+02 -0.46573233886E+03  0.50266256941E+03  0.17200000000E+03 0.  1.
</event>
<event>
 4    1  0.5874615E+000  0.1848892E+03  0.7818608E-02  0.1163153E+00
         21   -1    0    0  503  502  0.00000000000E+00  0.00000000000E+00  0.81506120132E+02  0.81506120132E+02  0.00000000000E+00 0. -1.
         21   -1    0    0  501  503 -0.00000000000E+00 -0.00000000000E+00 -0.49497013997E+03  0.49497013997E+03  0.00000000000E+00 0. -1.
          6    1    1    2  501    0  0.66538354926E+02 -0.13139677283E+02 -0.94109509972E+02  0.20746229456E+03  0.17200000000E+03 0.  1.
         -6    1    1    2    0  502 -0.66538354926E+02  0.13139677283E+02 -0.31935450986E+03  0.36901396554E+03  0.17200000000E+03 0.  1.
</event>
<event>
 4    1  0.5874615E+000  0.1904354E+03  0.7818608E-02  0.1158069E+00
         21   -1    0    0  503  502  0.00000000000E+00  0.00000000000E+00  0.76640268422E+03  0.76640268422E+03  0.00000000000E+00 0.  1.
         21   -1    0    0  501  503 -0.00000000000E+00 -0.00000000000E+00 -0.13335498974E+03  0.13335498974E+03  0.00000000000E+00 0.  1.
          6    1    1    2  501    0 -0.19385010947E+02 -0.79409398388E+02  0.67787569109E+03  0.70411723724E+03  0.17200000000E+03 0.  1.
         -6    1    1    2    0  502  0.19385010947E+02  0.79409398388E+02 -0.44827996611E+02  0.19564043672E+03  0.17200000000E+03 0.  1.
</event>
<event>
 4    1  0.5874615E+000  0.1978836E+03  0.7818608E-02  0.1151537E+00
         21   -1    0    0  503  502  0.00000000000E+00  0.00000000000E+00  0.21611083467E+02  0.21611083467E+02  0.00000000000E+00 0.  1.
         21   -1    0    0  501  503 -0.00000000000E+00 -0.00000000000E+00 -0.22045998722E+04  0.22045998722E+04  0.00000000000E+00 0.  1.
          6    1    1    2  501    0 -0.42294699577E+02 -0.88233039573E+02 -0.15612604458E+04  0.15737509621E+04  0.17200000000E+03 0.  1.
         -6    1    1    2    0  502  0.42294699577E+02  0.88233039573E+02 -0.62172834291E+03  0.65245999361E+03  0.17200000000E+03 0.  1.
</event>
<event>
 4    1  0.5874615E+000  0.1965929E+03  0.7818608E-02  0.1152646E+00
         21   -1    0    0  503  502  0.00000000000E+00  0.00000000000E+00  0.12196707430E+04  0.12196707430E+04  0.00000000000E+00 0.  1.
         21   -1    0    0  501  503 -0.00000000000E+00 -0.00000000000E+00 -0.10180984596E+03  0.10180984596E+03  0.00000000000E+00 0. -1.
          6    1    1    2  501    0  0.92455004469E+02  0.22733772146E+02  0.10573924248E+02  0.19687701776E+03  0.17200000000E+03 0. -1.
         -6    1    1    2    0  502 -0.92455004469E+02 -0.22733772146E+02  0.11072869728E+04  0.11246035712E+04  0.17200000000E+03 0.  1.
</event>
<event>
 4    1  0.5874615E+000  0.2260773E+03  0.7818608E-02  0.1129432E+00
         21   -1    0    0  501  502  0.00000000000E+00  0.00000000000E+00  0.25714067023E+03  0.25714067023E+03  0.00000000000E+00 0.  1.
         21   -1    0    0  502  503 -0.00000000000E+00 -0.00000000000E+00 -0.20916371021E+03  0.20916371021E+03  0.00000000000E+00 0.  1.
          6    1    1    2  501    0 -0.99042590485E+02  0.10824750173E+03  0.75970638671E+02  0.23850051216E+03  0.17200000000E+03 0.  1.
         -6    1    1    2    0  503  0.99042590485E+02 -0.10824750173E+03 -0.27993678650E+02  0.22780386828E+03  0.17200000000E+03 0.  1.
</event>
<event>
 4    1  0.5874615E+000  0.2438806E+03  0.7818608E-02  0.1117234E+00
         21   -1    0    0  501  502  0.00000000000E+00  0.00000000000E+00  0.10912875572E+04  0.10912875572E+04  0.00000000000E+00 0. -1.
         21   -1    0    0  502  503 -0.00000000000E+00 -0.00000000000E+00 -0.55453063654E+02  0.55453063654E+02  0.00000000000E+00 0.  1.
          6    1    1    2  501    0 -0.79116728636E+02 -0.15373441138E+03  0.59299296074E+03  0.64118513510E+03  0.17200000000E+03 0. -1.
         -6    1    1    2    0  503  0.79116728636E+02  0.15373441138E+03  0.44284153279E+03  0.50555548573E+03  0.17200000000E+03 0. -1.
</event>
<event>
 4    1  0.5874615E+000  0.1921445E+03  0.7818608E-02  0.1156541E+00
         21   -1    0    0  501  502  0.00000000000E+00  0.00000000000E+00  0.25155998268E+03  0.25155998268E+03  0.00000000000E+00 0.  1.
         21   -1    0    0  502  503 -0.00000000000E+00 -0.00000000000E+00 -0.15846320054E+03  0.15846320054E+03  0.00000000000E+00 0.  1.
          6    1    1    2  501    0 -0.84460381848E+02  0.14211100728E+02  0.10225729311E+03  0.21766043618E+03  0.17200000000E+03 0.  1.
         -6    1    1    2    0  503  0.84460381848E+02 -0.14211100728E+02 -0.91605109693E+01  0.19236274704E+03  0.17200000000E+03 0.  1.
</event>
<event>
 4    1  0.5874615E+000  0.1754401E+03  0.7818608E-02  0.1172291E+00
         21   -1    0    0  503  502  0.00000000000E+00  0.00000000000E+00  0.21935113361E+03  0.21935113361E+03  0.00000000000E+00 0. -1.
         21   -1    0    0  501  503 -0.00000000000E+00 -0.00000000000E+00 -0.19445929021E+03  0.19445929021E+03  0.00000000000E+00 0. -1.
          6    1    1    2  501    0 -0.29564628968E+02  0.17921110042E+02 -0.96727145431E+02  0.20033814947E+03  0.17200000000E+03 0. -1.
         -6    1    1    2    0  502  0.29564628968E+02 -0.17921110042E+02  0.12161898882E+03  0.21347227434E+03  0.17200000000E+03 0. -1.
</event>
<event>
 4    1  0.5874615E+000  0.1794616E+03  0.7818608E-02  0.1168325E+00
         21   -1    0    0  501  502  0.00000000000E+00  0.00000000000E+00  0.11116323830E+03  0.11116323830E+03  0.00000000000E+00 0.  1.
         21   -1    0    0  502  503 -0.00000000000E+00 -0.00000000000E+00 -0.56876203906E+03  0.56876203906E+03  0.00000000000E+00 0.  1.
          6    1    1    2  501    0 -0.49105532103E+02 -0.14529945723E+02  0.93222555354E+01  0.17970358108E+03  0.17200000000E+03 0.  1.
         -6    1    1    2    0  503  0.49105532103E+02  0.14529945723E+02 -0.46692105630E+03  0.50022169627E+03  0.17200000000E+03 0.  1.
</event>
<event>
 4    1  0.5874615E+000  0.2619562E+03  0.7818608E-02  0.1105974E+00
         21   -1    0    0  501  502  0.00000000000E+00  0.00000000000E+00  0.31436981841E+03  0.31436981841E+03  0.00000000000E+00 0.  1.
         21   -1    0    0  502  503 -0.00000000000E+00 -0.00000000000E+00 -0.44374989387E+03  0.44374989387E+03  0.00000000000E+00 0.  1.
          6    1    1    2  501    0 -0.15047449370E+03  0.12804094933E+03  0.20550767869E+03  0.33294814004E+03  0.17200000000E+03 0.  1.
         -6    1    1    2    0  503  0.15047449370E+03 -0.12804094933E+03 -0.33488775415E+03  0.42517157223E+03  0.17200000000E+03 0.  1.
</event>
<event>
 4    1  0.5874615E+000  0.1934371E+03  0.7818608E-02  0.1155397E+00
         21   -1    0    0  503  502  0.00000000000E+00  0.00000000000E+00  0.14655284630E+03  0.14655284630E+03  0.00000000000E+00 0. -1.
         21   -1    0    0  501  503 -0.00000000000E+00 -0.00000000000E+00 -0.29590930774E+03  0.29590930774E+03  0.00000000000E+00 0. -1.
          6    1    1    2  501    0  0.61848507901E+02 -0.63314028198E+02 -0.15661361545E+03  0.24888898859E+03  0.17200000000E+03 0. -1.
         -6    1    1    2    0  502 -0.61848507901E+02  0.63314028198E+02  0.72571540111E+01  0.19357316545E+03  0.17200000000E+03 0. -1.
</event>
<event>
 4    1  0.5874615E+000  0.3335903E+03  0.7818608E-02  0.1069559E+00
         21   -1    0    0  503  502  0.00000000000E+00  0.00000000000E+00  0.14931146598E+03  0.14931146598E+03  0.00000000000E+00 0.  1.
         21   -1    0    0  501  503 -0.00000000000E+00 -0.00000000000E+00 -0.13647978003E+04  0.13647978003E+04  0.00000000000E+00 0. -1.
          6    1    1    2  501    0  0.16099188281E+02  0.28537570953E+03 -0.11177916235E+04  0.11665078624E+04  0.17200000000E+03 0. -1.
         -6    1    1    2    0  502 -0.16099188281E+02 -0.28537570953E+03 -0.97694710806E+02  0.34760140387E+03  0.17200000000E+03 0.  1.
</event>
<event>
 4    1  0.5874615E+000  0.1803538E+03  0.7818608E-02  0.1167461E+00
         21   -1    0    0  501  502  0.00000000000E+00  0.00000000000E+00  0.14002147960E+03  0.14002147960E+03  0.00000000000E+00 0. -1.
         21   -1    0    0  502  503 -0.00000000000E+00 -0.00000000000E+00 -0.40076926101E+03  0.40076926101E+03  0.00000000000E+00 0. -1.
          6    1    1    2  501    0  0.16550877692E+02  0.51667881094E+02  0.44936506521E+02  0.18586767096E+03  0.17200000000E+03 0. -1.
         -6    1    1    2    0  503 -0.16550877692E+02 -0.51667881094E+02 -0.30568428793E+03  0.35492306966E+03  0.17200000000E+03 0. -1.
</event>
<event>
 4    1  0.5874615E+000  0.4495951E+03  0.7818608E-02  0.1027843E+00
         21   -1    0    0  503  502  0.00000000000E+00  0.00000000000E+00  0.97596138071E+03  0.97596138071E+03  0.00000000000E+00 0.  1.
         21   -1    0    0  501  503 -0.00000000000E+00 -0.00000000000E+00 -0.36646011917E+03  0.36646011917E+03  0.00000000000E+00 0.  1.
          6    1    1    2  501    0 -0.41086839968E+03 -0.61146791875E+02 -0.13785362167E+03  0.47025460446E+03  0.17200000000E+03 0.  1.
         -6    1    1    2    0  502  0.41086839968E+03  0.61146791875E+02  0.74735488321E+03  0.87216689542E+03  0.17200000000E+03 0.  1.
</event>
<event>
 4    1  0.5874615E+000  0.2624803E+03  0.7818608E-02  0.1105662E+00
         21   -1    0    0  503  502  0.00000000000E+00  0.00000000000E+00  0.21295526231E+03  0.21295526231E+03  0.00000000000E+00 0.  1.
         21   -1    0    0  501  503 -0.00000000000E+00 -0.00000000000E+00 -0.57055116465E+03  0.57055116465E+03  0.00000000000E+00 0. -1.
          6    1    1    2  501    0  0.18660058140E+03  0.67023536326E+02 -0.43657157694E+03  0.50940227050E+03  0.17200000000E+03 0. -1.
         -6    1    1    2    0  502 -0.18660058140E+03 -0.67023536326E+02  0.78975674601E+02  0.27410415645E+03  0.17200000000E+03 0.  1.
</event>
<event>
 4    1  0.5874615E+000  0.1844371E+03  0.7818608E-02  0.1163577E+00
         21   -1    0    0  503  502  0.00000000000E+00  0.00000000000E+00  0.27130187445E+02  0.27130187445E+02  0.00000000000E+00 0. -1.
         21   -1    0    0  501  503 -0.00000000000E+00 -0.00000000000E+00 -0.18335209094E+04  0.18335209094E+04  0.00000000000E+00 0. -1.
          6    1    1    2  501    0 -0.43888355446E+02 -0.50068387036E+02 -0.14262955766E+04  0.14381710966E+04  0.17200000000E+03 0. -1.
         -6    1    1    2    0  502  0.43888355446E+02  0.50068387036E+02 -0.38009514533E+03  0.42248000027E+03  0.17200000000E+03 0. -1.
</event>
<event>
 4    1  0.5874615E+000  0.1761625E+03  0.7818608E-02  0.1171570E+00
         21   -1    0    0  501  502  0.00000000000E+00  0.00000000000E+00  0.30111168972E+03  0.30111168972E+03  0.00000000000E+00 0.  1.
         21   -1    0    0  502  503 -0.00000000000E+00 -0.00000000000E+00 -0.10390289555E+03  0.10390289555E+03  0.00000000000E+00 0.  1.
          6    1    1    2  501    0  0.35127978610E+02  0.14671252619E+02  0.11682056706E+03  0.21137706929E+03  0.17200000000E+03 0. -1.
         -6    1    1    2    0  503 -0.35127978610E+02 -0.14671252619E+02  0.80388227118E+02  0.19363751598E+03  0.17200000000E+03 0. -1.
</event>
<event>
 4    1  0.5874615E+000  0.3394038E+03  0.7818608E-02  0.1067050E+00
         21   -1    0    0  501  502  0.00000000000E+00  0.00000000000E+00  0.15258757690E+03  0.15258757690E+03  0.00000000000E+00 0.  1.
         21   -1    0    0  502  503 -0.00000000000E+00 -0.00000000000E+00 -0.76808193476E+03  0.76808193476E+03  0.00000000000E+00 0. -1.
          6    1    1    2  501    0  0.12193442166E+03 -0.26597539311E+03 -0.36795475835E+03  0.50058527457E+03  0.17200000000E+03 0. -1.
         -6    1    1    2    0  503 -0.12193442166E+03  0.26597539311E+03 -0.24753959951E+03  0.42008423709E+03  0.17200000000E+03 0. -1.
</event>
<event>
 4    1  0.5874615E+000  0.2776774E+03  0.7818608E-02  0.1096964E+00
         21   -1    0    0  501  502  0.00000000000E+00  0.00000000000E+00  0.37051873914E+03  0.37051873914E+03  0.00000000000E+00 0.  1.
         21   -1    0    0  502  503 -0.00000000000E+00 -0.00000000000E+00 -0.21339595928E+03  0.21339595928E+03  0.00000000000E+00 0. -1.
          6    1    1    2  501    0  0.20117614433E+03  0.83957768627E+02  0.12455748352E+03  0.30433421540E+03  0.17200000000E+03 0. -1.
         -6    1    1    2    0  503 -0.20117614433E+03 -0.83957768627E+02  0.32565296350E+02  0.27958048303E+03  0.17200000000E+03 0. -1.
</event>
<event>
 4    1  0.5874615E+000  0.1765538E+03  0.7818608E-02  0.1171181E+00
         21   -1    0    0  501  502  0.00000000000E+00  0.00000000000E+00  0.10148416165E+04  0.10148416165E+04  0.00000000000E+00 0. -1.
         21   -1    0    0  502  503 -0.00000000000E+00 -0.00000000000E+00 -0.37074038967E+02  0.37074038967E+02  0.00000000000E+00 0. -1.
          6    1    1    2  501    0  0.37115840311E+02  0.14479655311E+02  0.70670428049E+03  0.72842445462E+03  0.17200000000E+03 0. -1.
         -6    1    1    2    0  503 -0.37115840311E+02 -0.14479655311E+02  0.27106329700E+03  0.32349120081E+03  0.17200000000E+03 0. -1.
</event>
<event>
 4    1  0.5874615E+000  0.3274631E+03  0.7818608E-02  0.1072265E+00
         21   -1    0    0  503  502  0.00000000000E+00  0.00000000000E+00  0.72481428509E+03  0.72481428509E+03  0.00000000000E+00 0. -1.
         21   -1    0    0  501  503 -0.00000000000E+00 -0.00000000000E+00 -0.65413422222E+03  0.65413422222E+03  0.00000000000E+00 0.  1.
          6    1    1    2  501    0  0.27091776321E+03 -0.65204603670E+02 -0.57117477175E+03  0.65838643262E+03  0.17200000000E+03 0.  1.
         -6    1    1    2    0  502 -0.27091776321E+03  0.65204603670E+02  0.64185483463E+03  0.72056207470E+03  0.17200000000E+03 0. -1.
</event>
<event>
 4    1  0.5874615E+000  0.1767626E+03  0.7818608E-02  0.1170974E+00
         21   -1    0    0  501  502  0.00000000000E+00  0.00000000000E+00  0.12649614396E+04  0.12649614396E+04  0.00000000000E+00 0.  1.
         21   -1    0    0  502  503 -0.00000000000E+00 -0.00000000000E+00 -0.78309285804E+02  0.78309285804E+02  0.00000000000E+00 0.  1.
          6    1    1    2  501    0  0.40543219871E+02  0.41546234559E+01  0.11490325317E+04  0.11625492559E+04  0.17200000000E+03 0.  1.
         -6    1    1    2    0  503 -0.40543219871E+02 -0.41546234559E+01  0.37619622144E+02  0.18072146952E+03  0.17200000000E+03 0.  1.
</event>
<event>
 4    1  0.5874615E+000  0.1766970E+03  0.7818608E-02  0.1171039E+00
         21   -1    0    0  501  502  0.00000000000E+00  0.00000000000E+00  0.33754913281E+03  0.33754913281E+03  0.00000000000E+00 0. -1.
         21   -1    0    0  502  503 -0.00000000000E+00 -0.00000000000E+00 -0.97106472813E+02  0.97106472813E+02  0.00000000000E+00 0. -1.
          6    1    1    2  501    0 -0.38933345310E+02 -0.11045875817E+02  0.72864593194E+02  0.19113101708E+03  0.17200000000E+03 0. -1.
         -6    1    1    2    0  503  0.38933345310E+02  0.11045875817E+02  0.16757806680E+03  0.24352458854E+03  0.17200000000E+03 0. -1.
</event>
<event>
 4    1  0.5874615E+000  0.2542817E+03  0.7818608E-02  0.1110628E+00
         21   -1    0    0  501  502  0.00000000000E+00  0.00000000000E+00  0.11582432122E+04  0.11582432122E+04  0.00000000000E+00 0. -1.
         21   -1    0    0  502  503 -0.00000000000E+00 -0.00000000000E+00 -0.10886726122E+03  0.10886726122E+03  0.00000000000E+00 0.  1.
          6    1    1    2  501    0 -0.13123255351E+03  0.13361580345E+03  0.96691574197E+03  0.99979258754E+03  0.17200000000E+03 0. -1.
         -6    1    1    2    0  503  0.13123255351E+03 -0.13361580345E+03  0.82460208985E+02  0.26731788585E+03  0.17200000000E+03 0.  1.
</event>
<event>
 4    1  0.5874615E+000  0.2178288E+03  0.7818608E-02  0.1135512E+00
         21   -1    0    0  501  502  0.00000000000E+00  0.00000000000E+00  0.15602560374E+03  0.15602560374E+03  0.00000000000E+00 0. -1.
         21   -1    0    0  502  503 -0.00000000000E+00 -0.00000000000E+00 -0.61257856659E+03  0.61257856659E+03  0.00000000000E+00 0. -1.
          6    1    1    2  501    0 -0.47395510887E+02 -0.12497625197E+03  0.44429875789E+02  0.22231376897E+03  0.17200000000E+03 0. -1.
         -6    1    1    2    0  503  0.47395510887E+02  0.12497625197E+03 -0.50098283865E+03  0.54629040137E+03  0.17200000000E+03 0. -1.
</event>
<event>
 4    1  0.5874615E+000  0.1962194E+03  0.7818608E-02  0.1152968E+00
         21   -1    0    0  501  502  0.00000000000E+00  0.00000000000E+00  0.49006957763E+03  0.49006957763E+03  0.00000000000E+00 0.  1.
         21   -1    0    0  502  503 -0.00000000000E+00 -0.00000000000E+00 -0.19568512696E+03  0.19568512696E+03  0.00000000000E+00 0.  1.
          6    1    1    2  501    0  0.79653970229E+02 -0.50727779526E+02  0.41245518945E+03  0.45675085757E+03  0.17200000000E+03 0.  1.
         -6    1    1    2    0  503 -0.79653970229E+02  0.50727779526E+02 -0.11807073878E+03  0.22900384701E+03  0.17200000000E+03 0.  1.
</event>
<event>
 4    1  0.5874615E+000  0.1881287E+03  0.7818608E-02  0.1160160E+00
         21   -1    0    0  503  502  0.00000000000E+00  0.00000000000E+00  0.37956872369E+03  0.37956872369E+03  0.00000000000E+00 0. -1.
         21   -1    0    0  501  503 -0.00000000000E+00 -0.00000000000E+00 -0.13748595326E+03  0.13748595326E+03  0.00000000000E+00 0. -1.
          6    1    1    2  501    0 -0.18670227729E+01  0.76190147585E+02 -0.25613155269E+02  0.18986431494E+03  0.17200000000E+03 0. -1.
         -6    1    1    2    0  502  0.18670227729E+01 -0.76190147585E+02  0.26769592569E+03  0.32719036202E+03  0.17200000000E+03 0. -1.
</event>
<event>
 4    1  0.5874615E+000  0.1738711E+03  0.7818608E-02  0.1173870E+00
         21   -1    0    0  501  502  0.00000000000E+00  0.00000000000E+00  0.74974385950E+03  0.74974385950E+03  0.00000000000E+00 0. -1.
         21   -1    0    0  502  503 -0.00000000000E+00 -0.00000000000E+00 -0.74460085365E+02  0.74460085365E+02  0.00000000000E+00 0. -1.
          6    1    1    2  501    0 -0.10504030863E+02 -0.23169672653E+02  0.61667936510E+03  0.64072194260E+03  0.17200000000E+03 0. -1.
         -6    1    1    2    0  503  0.10504030863E+02  0.23169672653E+02  0.58604409034E+02  0.18348200226E+03  0.17200000000E+03 0. -1.
</event>
<event>
 4    1  0.5874615E+000  0.1878849E+03  0.7818608E-02  0.1160383E+00
         21   -1    0    0  503  502  0.00000000000E+00  0.00000000000E+00  0.22268165366E+03  0.22268165366E+03  0.00000000000E+00 0.  1.
         21   -1    0    0  501  503 -0.00000000000E+00 -0.00000000000E+00 -0.18118314232E+03  0.18118314232E+03  0.00000000000E+00 0.  1.
          6    1    1    2  501    0  0.20080140003E+02  0.72893870839E+02 -0.50659937391E+02  0.19459485524E+03  0.17200000000E+03 0. -1.
         -6    1    1    2    0  502 -0.20080140003E+02 -0.72893870839E+02  0.92158448732E+02  0.20926994075E+03  0.17200000000E+03 0. -1.
</event>
<event>
 4    1  0.5874615E+000  0.1869620E+03  0.7818608E-02  0.1161230E+00
         21   -1    0    0  503  502  0.00000000000E+00  0.00000000000E+00  0.69048445658E+02  0.69048445658E+02  0.00000000000E+00 0. -1.
         21   -1    0    0  501  503 -0.00000000000E+00 -0.00000000000E+00 -0.57471909804E+03  0.57471909804E+03  0.00000000000E+00 0. -1.
          6    1    1    2  501    0  0.46265544094E+02  0.56835525556E+02 -0.14172244515E+03  0.23460611457E+03  0.17200000000E+03 0.  1.
         -6    1    1    2    0  502 -0.46265544094E+02 -0.56835525556E+02 -0.36394820723E+03  0.40916142913E+03  0.17200000000E+03 0.  1.
</event>
<event>
 4    1  0.5874615E+000  0.2788133E+03  0.7818608E-02  0.1096339E+00
         21   -1    0    0  501  502  0.00000000000E+00  0.00000000000E+00  0.19917808763E+03  0.19917808763E+03  0.00000000000E+00 0. -1.
         21   -1    0    0  502  503 -0.00000000000E+00 -0.00000000000E+00 -0.47968761769E+03  0.47968761769E+03  0.00000000000E+00 0.  1.
          6    1    1    2  501    0  0.21674169409E+03 -0.34291334232E+02  0.62804351052E+01  0.27888402863E+03  0.17200000000E+03 0. -1.
         -6    1    1    2    0  503 -0.21674169409E+03  0.34291334232E+02 -0.28678996516E+03  0.39998167668E+03  0.17200000000E+03 0.  1.
</event>
<event>
 4    1  0.5874615E+000  0.2569919E+03  0.7818608E-02  0.1108964E+00
         21   -1    0    0  503  502  0.00000000000E+00  0.00000000000E+00  0.12209765396E+03  0.12209765396E+03  0.00000000000E+00 0. -1.
         21   -1    0    0  501  503 -0.00000000000E+00 -0.00000000000E+00 -0.59566832798E+03  0.59566832798E+03  0.00000000000E+00 0. -1.
          6    1    1    2  501    0  0.18878646775E+03  0.28644197696E+02 -0.34558910332E+03  0.43066999988E+03  0.17200000000E+03 0. -1.
         -6    1    1    2    0  502 -0.18878646775E+03 -0.28644197696E+02 -0.12798157070E+03  0.28709598205E+03  0.17200000000E+03 0. -1.
</event>
<event>
 4    1  0.5874615E+000  0.2443753E+03  0.7818608E-02  0.1116912E+00
         21   -1    0    0  501  502  0.00000000000E+00  0.00000000000E+00  0.44511540547E+03  0.44511540547E+03  0.00000000000E+00 0. -1.
         21   -1    0    0  502  503 -0.00000000000E+00 -0.00000000000E+00 -0.15098485875E+03  0.15098485875E+03  0.00000000000E+00 0. -1.
          6    1    1    2  501    0 -0.15175044991E+03  0.84303633792E+02  0.47588341185E+02  0.24896576459E+03  0.17200000000E+03 0. -1.
         -6    1    1    2    0  503  0.15175044991E+03 -0.84303633792E+02  0.24654220554E+03  0.34713449963E+03  0.17200000000E+03 0. -1.
</event>
<event>
 4    1  0.5874615E+000  0.2501777E+03  0.7818608E-02  0.1113193E+00
         21   -1    0    0  503  502  0.00000000000E+00  0.00000000000E+00  0.11495504525E+04  0.11495504525E+04  0.00000000000E+00 0. -1.
         21   -1    0    0  501  503 -0.00000000000E+00 -0.00000000000E+00 -0.63759223150E+02  0.63759223150E+02  0.00000000000E+00 0.  1.
          6    1    1    2  501    0 -0.16725166751E+03  0.70934763198E+02  0.77474785570E+03  0.81413948487E+03  0.17200000000E+03 0.  1.
         -6    1    1    2    0  502  0.16725166751E+03 -0.70934763198E+02  0.31104337366E+03  0.39917019079E+03  0.17200000000E+03 0.  1.
</event>
<event>
 4    1  0.5874615E+000  0.1731008E+03  0.7818608E-02  0.1174652E+00
         21   -1    0    0  501  502  0.00000000000E+00  0.00000000000E+00  0.16524436476E+03  0.16524436476E+03  0.00000000000E+00 0.  1.
         21   -1    0    0  502  503 -0.00000000000E+00 -0.00000000000E+00 -0.20994064570E+03  0.20994064570E+03  0.00000000000E+00 0.  1.
          6    1    1    2  501    0 -0.12464197083E+02 -0.14984531015E+02  0.46902692047E+02  0.17934256299E+03  0.17200000000E+03 0.  1.
         -6    1    1    2    0  503  0.12464197083E+02  0.14984531015E+02 -0.91598972986E+02  0.19584244747E+03  0.17200000000E+03 0.  1.
</event>
<event>
 4    1  0.5874615E+000  0.1729197E+03  0.7818608E-02  0.1174837E+00
         21   -1    0    0  501  502  0.00000000000E+00  0.00000000000E+00  0.70203442787E+02  0.70203442787E+02  0.00000000000E+00 0.  1.
         21   -1    0    0  502  503 -0.00000000000E+00 -0.00000000000E+00 -0.43310113412E+03  0.43310113412E+03  0.00000000000E+00 0.  1.
          6    1    1    2  501    0 -0.17644015954E+02 -0.24306518437E+01 -0.14904997063E+03  0.22829172809E+03  0.17200000000E+03 0.  1.
         -6    1    1    2    0  503  0.17644015954E+02  0.24306518437E+01 -0.21384772071E+03  0.27501284882E+03  0.17200000000E+03 0.  1.
</event>
<event>
 4    1  0.5874615E+000  0.1834948E+03  0.7818608E-02  0.1164463E+00
         21   -1    0    0  503  502  0.00000000000E+00  0.00000000000E+00  0.21303606644E+03  0.21303606644E+03  0.00000000000E+00 0. -1.
         21   -1    0    0  501  503 -0.00000000000E+00 -0.00000000000E+00 -0.20137463270E+03  0.20137463270E+03  0.00000000000E+00 0. -1.
          6    1    1    2  501    0  0.33236536823E+01 -0.63837959251E+02 -0.90278815712E+02  0.20450084665E+03  0.17200000000E+03 0. -1.
         -6    1    1    2    0  502 -0.33236536823E+01  0.63837959251E+02  0.10194024944E+03  0.20990985249E+03  0.17200000000E+03 0. -1.
</event>
<event>
 4    1  0.5874615E+000  0.2158114E+03  0.7818608E-02  0.1137045E+00
         21   -1    0    0  501  502  0.00000000000E+00  0.00000000000E+00  0.30828947705E+03  0.30828947705E+03  0.00000000000E+00 0. -1.
         21   -1    0    0  502  503 -0.00000000000E+00 -0.00000000000E+00 -0.19006336761E+03  0.19006336761E+03  0.00000000000E+00 0. -1.
          6    1    1    2  501    0 -0.76418503783E+02 -0.10559725850E+03  0.17197045240E+03  0.27595000493E+03  0.17200000000E+03 0. -1.
         -6    1    1    2    0  503  0.76418503783E+02  0.10559725850E+03 -0.53744342955E+02  0.22240283973E+03  0.17200000000E+03 0. -1.
</event>
<event>
 4    1  0.5874615E+000  0.2098790E+03  0.7818608E-02  0.1141662E+00
         21   -1    0    0  501  502  0.00000000000E+00  0.00000000000E+00  0.57823440144E+02  0.57823440144E+02  0.00000000000E+00 0.  1.
         21   -1    0    0  502  503 -0.00000000000E+00 -0.00000000000E+00 -0.17723348842E+04  0.17723348842E+04  0.00000000000E+00 0.  1.
          6    1    1    2  501    0  0.11635157220E+03  0.30455023451E+02 -0.16627802596E+03  0.26776403553E+03  0.17200000000E+03 0. -1.
         -6    1    1    2    0  503 -0.11635157220E+03 -0.30455023451E+02 -0.15482334181E+04  0.15623942888E+04  0.17200000000E+03 0. -1.
</event>
<event>
 4    1  0.5874615E+000  0.2348816E+03  0.7818608E-02  0.1123250E+00
         21   -1    0    0  501  502  0.00000000000E+00  0.00000000000E+00  0.46248048719E+02  0.46248048719E+02  0.00000000000E+00 0. -1.
         21   -1    0    0  502  503 -0.00000000000E+00 -0.00000000000E+00 -0.11947390079E+04  0.11947390079E+04  0.00000000000E+00 0. -1.
          6    1    1    2  501    0  0.15905210333E+03  0.16964684381E+02 -0.59857880967E+03  0.64301319074E+03  0.17200000000E+03 0. -1.
         -6    1    1    2    0  503 -0.15905210333E+03 -0.16964684381E+02 -0.54991214956E+03  0.59797386592E+03  0.17200000000E+03 0. -1.
</event>
<event>
 4    1  0.5874615E+000  0.1965725E+03  0.7818608E-02  0.1152663E+00
         21   -1    0    0  503  502  0.00000000000E+00  0.00000000000E+00  0.56424220808E+02  0.56424220808E+02  0.00000000000E+00 0. -1.
         21   -1    0    0  501  503 -0.00000000000E+00 -0.00000000000E+00 -0.68544609843E+03  0.68544609843E+03  0.00000000000E+00 0. -1.
          6    1    1    2  501    0  0.61906153896E+02 -0.72279755517E+02 -0.30334795192E+03  0.36147021299E+03  0.17200000000E+03 0. -1.
         -6    1    1    2    0  502 -0.61906153896E+02  0.72279755517E+02 -0.32567392570E+03  0.38040010624E+03  0.17200000000E+03 0. -1.
</event>
<event>
 4    1  0.5874615E+000  0.1900062E+03  0.7818608E-02  0.1158456E+00
         21   -1    0    0  503  502  0.00000000000E+00  0.00000000000E+00  0.71574027285E+03  0.71574027285E+03  0.00000000000E+00 0. -1.
         21   -1    0    0  501  503 -0.00000000000E+00 -0.00000000000E+00 -0.89079290396E+02  0.89079290396E+02  0.00000000000E+00 0. -1.
          6    1    1    2  501    0 -0.41627699735E+02  0.69177241783E+02  0.48302678229E+02  0.19604975106E+03  0.17200000000E+03 0. -1.
         -6    1    1    2    0  502  0.41627699735E+02 -0.69177241783E+02  0.57835830422E+03  0.60876981219E+03  0.17200000000E+03 0. -1.
</event>
<event>
 4    1  0.5874615E+000  0.3150921E+03  0.7818608E-02  0.1077930E+00
         21   -1    0    0  503  502  0.00000000000E+00  0.00000000000E+00  0.14159156847E+03  0.14159156847E+03  0.00000000000E+00 0.  1.
         21   -1    0    0  501  503 -0.00000000000E+00 -0.00000000000E+00 -0.15589800440E+04  0.15589800440E+04  0.00000000000E+00 0.  1.
          6    1    1    2  501    0 -0.25601659300E+03 -0.64455589608E+02 -0.13394110225E+04  0.13759741662E+04  0.17200000000E+03 0.  1.
         -6    1    1    2    0  502  0.25601659300E+03  0.64455589608E+02 -0.77977453006E+02  0.32459744623E+03  0.17200000000E+03 0.  1.
</event>
<event>
 4    1  0.5874615E+000  0.1725214E+03  0.7818608E-02  0.1175244E+00
         21   -1    0    0  501  502  0.00000000000E+00  0.00000000000E+00  0.42905609290E+03  0.42905609290E+03  0.00000000000E+00 0.  1.
         21   -1    0    0  502  503 -0.00000000000E+00 -0.00000000000E+00 -0.81444628003E+02  0.81444628003E+02  0.00000000000E+00 0.  1.
          6    1    1    2  501    0 -0.13399242373E+02 -0.32321320672E+00  0.27208706991E+03  0.32217234173E+03  0.17200000000E+03 0.  1.
         -6    1    1    2    0  503  0.13399242373E+02  0.32321320672E+00  0.75524394980E+02  0.18832837917E+03  0.17200000000E+03 0.  1.
</event>
<event>
 4    1  0.5874615E+000  0.2335147E+03  0.7818608E-02  0.1124190E+00
         21   -1    0    0  503  502  0.00000000000E+00  0.00000000000E+00  0.55197488301E+03  0.55197488301E+03  0.00000000000E+00 0. -1.
         21   -1    0    0  501  503 -0.00000000000E+00 -0.00000000000E+00 -0.10455424744E+03  0.10455424744E+03  0.00000000000E+00 0. -1.
          6    1    1    2  501    0 -0.11145722144E+03  0.11190361819E+03  0.14662772347E+03  0.27573324294E+03  0.17200000000E+03 0. -1.
         -6    1    1    2    0  502  0.11145722144E+03 -0.11190361819E+03  0.30079291210E+03  0.38079588751E+03  0.17200000000E+03 0. -1.
</event>
<event>
 4    1  0.5874615E+000  0.2142594E+03  0.7818608E-02  0.1138237E+00
         21   -1    0    0  501  502  0.00000000000E+00  0.00000000000E+00  0.21791507619E+03  0.21791507619E+03  0.00000000000E+00 0.  1.
         21   -1    0    0  502  503 -0.00000000000E+00 -0.00000000000E+00 -0.23635498189E+03  0.23635498189E+03  0.00000000000E+00 0.  1.
          6    1    1    2  501    0 -0.37457728948E+02  0.12214752667E+03  0.65662981067E+02  0.22409535206E+03  0.17200000000E+03 0.  1.
         -6    1    1    2    0  503  0.37457728948E+02 -0.12214752667E+03 -0.84102886763E+02  0.23017470602E+03  0.17200000000E+03 0.  1.
</event>
<event>
 4    1  0.5874615E+000  0.1723512E+03  0.7818608E-02  0.1175418E+00
         21   -1    0    0  503  502  0.00000000000E+00  0.00000000000E+00  0.15667253354E+03  0.15667253354E+03  0.00000000000E+00 0. -1.
         21   -1    0    0  501  503 -0.00000000000E+00 -0.00000000000E+00 -0.25055917890E+03  0.25055917890E+03  0.00000000000E+00 0. -1.
          6    1    1    2  501    0 -0.74545902507E+01  0.80851142589E+01 -0.14737712609E+03  0.22677071522E+03  0.17200000000E+03 0. -1.
         -6    1    1    2    0  502  0.74545902507E+01 -0.80851142589E+01  0.53490480728E+02  0.18046099722E+03  0.17200000000E+03 0. -1.
</event>
<event>
 4    1  0.5874615E+000  0.3879927E+03  0.7818608E-02  0.1048019E+00
         21   -1    0    0  501  502  0.00000000000E+00  0.00000000000E+00  0.53911449699E+03  0.53911449699E+03  0.00000000000E+00 0.  1.
         21   -1    0    0  502  503 -0.00000000000E+00 -0.00000000000E+00 -0.57436178412E+03  0.57436178412E+03  0.00000000000E+00 0. -1.
          6    1    1    2  501    0  0.34184118623E+03 -0.64022735286E+02  0.38146037225E+03  0.54410506599E+03  0.17200000000E+03 0.  1.
         -6    1    1    2    0  503 -0.34184118623E+03  0.64022735286E+02 -0.41670765937E+03  0.56937121513E+03  0.17200000000E+03 0.  1.
</event>
<event>
 4    1  0.5874615E+000  0.1838288E+03  0.7818608E-02  0.1164148E+00
         21   -1    0    0  501  502  0.00000000000E+00  0.00000000000E+00  0.18918961212E+03  0.18918961212E+03  0.00000000000E+00 0. -1.
         21   -1    0    0  502  503 -0.00000000000E+00 -0.00000000000E+00 -0.22652967768E+03  0.22652967768E+03  0.00000000000E+00 0.  1.
          6    1    1    2  501    0  0.14013509203E+02 -0.63345510697E+02  0.76921548051E+02  0.19927357256E+03  0.17200000000E+03 0. -1.
         -6    1    1    2    0  503 -0.14013509203E+02  0.63345510697E+02 -0.11426161362E+03  0.21644571724E+03  0.17200000000E+03 0.  1.
</event>
<event>
 4    1  0.5874615E+000  0.2067378E+03  0.7818608E-02  0.1144176E+00
         21   -1    0    0  503  502  0.00000000000E+00  0.00000000000E+00  0.79597479244E+02  0.79597479244E+02  0.00000000000E+00 0. -1.
         21   -1    0    0  501  503 -0.00000000000E+00 -0.00000000000E+00 -0.53879826124E+03  0.53879826124E+03  0.00000000000E+00 0.  1.
          6    1    1    2  501    0 -0.87046432955E+02 -0.74695762356E+02 -0.21153235135E+03  0.29578112528E+03  0.17200000000E+03 0.  1.
         -6    1    1    2    0  502  0.87046432955E+02  0.74695762356E+02 -0.24766843065E+03  0.32261461520E+03  0.17200000000E+03 0. -1.
</event>
<event>
 4    1  0.5874615E+000  0.2066187E+03  0.7818608E-02  0.1144272E+00
         21   -1    0    0  503  502  0.00000000000E+00  0.00000000000E+00  0.46221694569E+03  0.46221694569E+03  0.00000000000E+00 0.  1.
         21   -1    0    0  501  503 -0.00000000000E+00 -0.00000000000E+00 -0.10188704025E+03  0.10188704025E+03  0.00000000000E+00 0.  1.
          6    1    1    2  501    0  0.22816224176E+02 -0.11219055227E+03  0.93926254222E+02  0.22696572723E+03  0.17200000000E+03 0.  1.
         -6    1    1    2    0  502 -0.22816224176E+02  0.11219055227E+03  0.26640365122E+03  0.33713825871E+03  0.17200000000E+03 0.  1.
</event>
<event>
 4    1  0.5874615E+000  0.1726291E+03  0.7818608E-02  0.1175134E+00
         21   -1    0    0  501  502  0.00000000000E+00  0.00000000000E+00  0.19883459051E+03  0.19883459051E+03  0.00000000000E+00 0.  1.
         21   -1    0    0  502  503 -0.00000000000E+00 -0.00000000000E+00 -0.16189031741E+03  0.16189031741E+03  0.00000000000E+00 0.  1.
          6    1    1    2  501    0  0.13054292996E+02 -0.68101111945E+01 -0.30659552688E+02  0.17533054597E+03  0.17200000000E+03 0.  1.
         -6    1    1    2    0  503 -0.13054292996E+02  0.68101111945E+01  0.67603825786E+02  0.18539436195E+03  0.17200000000E+03 0.  1.
</event>
<event>
 4    1  0.5874615E+000  0.2332545E+03  0.7818608E-02  0.1124370E+00
         21   -1    0    0  503  502  0.00000000000E+00  0.00000000000E+00  0.14455856432E+03  0.14455856432E+03  0.00000000000E+00 0.  1.
         21   -1    0    0  501  503 -0.00000000000E+00 -0.00000000000E+00 -0.53168993320E+03  0.53168993320E+03  0.00000000000E+00 0.  1.
          6    1    1    2  501    0  0.10759469286E+01 -0.15755152256E+03 -0.37631653600E+03  0.44274346431E+03  0.17200000000E+03 0.  1.
         -6    1    1    2    0  502 -0.10759469286E+01  0.15755152256E+03 -0.10814832871E+02  0.23350503320E+03  0.17200000000E+03 0.  1.
</event>
<event>
 4    1  0.5874615E+000  0.2835857E+03  0.7818608E-02  0.1093746E+00
         21   -1    0    0  503  502  0.00000000000E+00  0.00000000000E+00  0.15661200275E+03  0.15661200275E+03  0.00000000000E+00 0.  1.
         21   -1    0    0  501  503 -0.00000000000E+00 -0.00000000000E+00 -0.81039176669E+03  0.81039176669E+03  0.00000000000E+00 0. -1.
          6    1    1    2  501    0  0.19432234698E+03 -0.11434883031E+03 -0.61953891566E+03  0.68135842077E+03  0.17200000000E+03 0. -1.
         -6    1    1    2    0  502 -0.19432234698E+03  0.11434883031E+03 -0.34240848280E+02  0.28564534868E+03  0.17200000000E+03 0. -1.
</event>
<event>
 4    1  0.5874615E+000  0.2789405E+03  0.7818608E-02  0.1096269E+00
         21   -1    0    0  501  502  0.00000000000E+00  0.00000000000E+00  0.58843266348E+03  0.58843266348E+03  0.00000000000E+00 0. -1.
         21   -1    0    0  502  503 -0.00000000000E+00 -0.00000000000E+00 -0.59366479303E+03  0.59366479303E+03  0.00000000000E+00 0.  1.
          6    1    1    2  501    0 -0.16581134325E+03  0.14398052551E+03  0.51846865152E+03  0.58874233403E+03  0.17200000000E+03 0. -1.
         -6    1    1    2    0  503  0.16581134325E+03 -0.14398052551E+03 -0.52370078107E+03  0.59335512248E+03  0.17200000000E+03 0.  1.
</event>
<event>
 4    1  0.5874615E+000  0.2376177E+03  0.7818608E-02  0.1121390E+00
         21   -1    0    0  501  502  0.00000000000E+00  0.00000000000E+00  0.37030642610E+03  0.37030642610E+03  0.00000000000E+00 0. -1.
         21   -1    0    0  502  503 -0.00000000000E+00 -0.00000000000E+00 -0.15318375896E+03  0.15318375896E+03  0.00000000000E+00 0. -1.
          6    1    1    2  501    0  0.18139343911E+02  0.16293912219E+03  0.90747714332E+02  0.25435671997E+03  0.17200000000E+03 0. -1.
         -6    1    1    2    0  503 -0.18139343911E+02 -0.16293912219E+03  0.12637495280E+03  0.26913346509E+03  0.17200000000E+03 0. -1.
</event>
<event>
 4    1  0.5874615E+000  0.1971720E+03  0.7818608E-02  0.1152147E+00
         21   -1    0    0  503  502  0.00000000000E+00  0.00000000000E+00  0.90280786445E+02  0.90280786445E+02  0.00000000000E+00 0.  1.
         21   -1    0    0  501  503 -0.00000000000E+00 -0.00000000000E+00 -0.44009802078E+03  0.44009802078E+03  0.00000000000E+00 0. -1.
          6    1    1    2  501    0 -0.95927400239E+02 -0.95248231066E+01 -0.21382396989E+03  0.29085645681E+03  0.17200000000E+03 0. -1.
         -6    1    1    2    0  502  0.95927400239E+02  0.95248231066E+01 -0.13599326445E+03  0.23952235041E+03  0.17200000000E+03 0. -1.
</event>
<event>
 4    1  0.5874615E+000  0.1945832E+03  0.7818608E-02  0.1154391E+00
         21   -1    0    0  501  502  0.00000000000E+00  0.00000000000E+00  0.41685452698E+02  0.41685452698E+02  0.00000000000E+00 0. -1.
         21   -1    0    0  502  503 -0.00000000000E+00 -0.00000000000E+00 -0.10763742806E+04  0.10763742806E+04  0.00000000000E+00 0. -1.
          6    1    1    2  501    0 -0.90427586439E+02  0.10074311717E+02 -0.29643616334E+03  0.35459418929E+03  0.17200000000E+03 0. -1.
         -6    1    1    2    0  503  0.90427586439E+02 -0.10074311717E+02 -0.73825266456E+03  0.76346554400E+03  0.17200000000E+03 0. -1.
</event>
<event>
 4    1  0.5874615E+000  0.2035310E+03  0.7818608E-02  0.1146794E+00
         21   -1    0    0  501  502  0.00000000000E+00  0.00000000000E+00  0.38022981474E+03  0.38022981474E+03  0.00000000000E+00 0.  1.
         21   -1    0    0  502  503 -0.00000000000E+00 -0.00000000000E+00 -0.11458255946E+03  0.11458255946E+03  0.00000000000E+00 0.  1.
          6    1    1    2  501    0  0.85795974056E+02 -0.66932128774E+02  0.18769220836E+03  0.27686318662E+03  0.17200000000E+03 0.  1.
         -6    1    1    2    0  503 -0.85795974056E+02  0.66932128774E+02  0.77955046916E+02  0.21794918758E+03  0.17200000000E+03 0.  1.
</event>
<event>
 4    1  0.5874615E+000  0.1918114E+03  0.7818608E-02  0.1156838E+00
         21   -1    0    0  503  502  0.00000000000E+00  0.00000000000E+00  0.33388992670E+03  0.33388992670E+03  0.00000000000E+00 0. -1.
         21   -1    0    0  501  503 -0.00000000000E+00 -0.00000000000E+00 -0.13453801021E+03  0.13453801021E+03  0.00000000000E+00 0. -1.
          6    1    1    2  501    0  0.74949770637E+02  0.39876521048E+02  0.40319203119E-01  0.19181138307E+03  0.17200000000E+03 0. -1.
         -6    1    1    2    0  502 -0.74949770637E+02 -0.39876521048E+02  0.19931159729E+03  0.27661655385E+03  0.17200000000E+03 0. -1.
</event>
<event>
 4    1  0.5874615E+000  0.1938369E+03  0.7818608E-02  0.1155046E+00
         21   -1    0    0  501  502  0.00000000000E+00  0.00000000000E+00  0.70582214773E+03  0.70582214773E+03  0.00000000000E+00 0. -1.
         21   -1    0    0  502  503 -0.00000000000E+00 -0.00000000000E+00 -0.55825110104E+02  0.55825110104E+02  0.00000000000E+00 0.  1.
          6    1    1    2  501    0 -0.86922095413E+02  0.20815277558E+02  0.40706614779E+03  0.45086092660E+03  0.17200000000E+03 0.  1.
         -6    1    1    2    0  503  0.86922095413E+02 -0.20815277558E+02  0.24293088983E+03  0.31078633124E+03  0.17200000000E+03 0.  1.
</event>
<event>
 4    1  0.5874615E+000  0.2152393E+03  0.7818608E-02  0.1137483E+00
         21   -1    0    0  501  502  0.00000000000E+00  0.00000000000E+00  0.74458758384E+03  0.74458758384E+03  0.00000000000E+00 0.  1.
         21   -1    0    0  502  503 -0.00000000000E+00 -0.00000000000E+00 -0.66852531423E+02  0.66852531423E+02  0.00000000000E+00 0.  1.
          6    1    1    2  501    0  0.31993874403E+01 -0.12935887892E+03  0.44567326893E+03  0.49492688174E+03  0.17200000000E+03 0.  1.
         -6    1    1    2    0  503 -0.31993874403E+01  0.12935887892E+03  0.23206178349E+03  0.31651323352E+03  0.17200000000E+03 0.  1.
</event>
<event>
 4    1  0.5874615E+000  0.1747646E+03  0.7818608E-02  0.1172968E+00
         21   -1    0    0  501  502  0.00000000000E+00  0.00000000000E+00  0.23612428601E+03  0.23612428601E+03  0.00000000000E+00 0. -1.
         21   -1    0    0  502  503 -0.00000000000E+00 -0.00000000000E+00 -0.58580911073E+03  0.58580911073E+03  0.00000000000E+00 0. -1.
          6    1    1    2  501    0  0.26098477383E+02  0.16659163329E+02  0.18792606903E+03  0.25662982225E+03  0.17200000000E+03 0. -1.
         -6    1    1    2    0  503 -0.26098477383E+02 -0.16659163329E+02 -0.53761089375E+03  0.56530357449E+03  0.17200000000E+03 0. -1.
</event>
<event>
 4    1  0.5874615E+000  0.1815659E+03  0.7818608E-02  0.1166296E+00
         21   -1    0    0  503  502  0.00000000000E+00  0.00000000000E+00  0.92219364396E+02  0.92219364396E+02  0.00000000000E+00 0.  1.
         21   -1    0    0  501  503 -0.00000000000E+00 -0.00000000000E+00 -0.40948492240E+03  0.40948492240E+03  0.00000000000E+00 0.  1.
          6    1    1    2  501    0  0.48425849687E+02  0.32203981534E+02 -0.24803330156E+03  0.30738685403E+03  0.17200000000E+03 0.  1.
         -6    1    1    2    0  502 -0.48425849687E+02 -0.32203981534E+02 -0.69232256437E+02  0.19431743276E+03  0.17200000000E+03 0.  1.
</event>
<event>
 4    1  0.5874615E+000  0.1749626E+03  0.7818608E-02  0.1172769E+00
         21   -1    0    0  501  502  0.00000000000E+00  0.00000000000E+00  0.46261275245E+03  0.46261275245E+03  0.00000000000E+00 0. -1.
         21   -1    0    0  502  503 -0.00000000000E+00 -0.00000000000E+00 -0.91352576966E+02  0.91352576966E+02  0.00000000000E+00 0. -1.
          6    1    1    2  501    0 -0.82960566431E+01  0.30969040598E+02  0.33105103989E+03  0.37444184734E+03  0.17200000000E+03 0. -1.
         -6    1    1    2    0  503  0.82960566431E+01 -0.30969040598E+02  0.40209135601E+02  0.17952348208E+03  0.17200000000E+03 0. -1.
</event>
<event>
 4    1  0.5874615E+000  0.2395839E+03  0.7818608E-02  0.1120070E+00
         21   -1    0    0  501  502  0.00000000000E+00  0.00000000000E+00  0.11941273453E+04  0.11941273453E+04  0.00000000000E+00 0. -1.
         21   -1    0    0  502  503 -0.00000000000E+00 -0.00000000000E+00 -0.48108873836E+02  0.48108873836E+02  0.00000000000E+00 0.  1.
          6    1    1    2  501    0 -0.16436453502E+03 -0.28297449407E+02  0.55511615179E+03  0.60461093936E+03  0.17200000000E+03 0.  1.
         -6    1    1    2    0  503  0.16436453502E+03  0.28297449407E+02  0.59090231968E+03  0.63762527979E+03  0.17200000000E+03 0. -1.
</event>
<event>
 4    1  0.5874615E+000  0.2730969E+03  0.7818608E-02  0.1099520E+00
         21   -1    0    0  501  502  0.00000000000E+00  0.00000000000E+00  0.49686338581E+03  0.49686338581E+03  0.00000000000E+00 0. -1.
         21   -1    0    0  502  503 -0.00000000000E+00 -0.00000000000E+00 -0.19914544226E+03  0.19914544226E+03  0.00000000000E+00 0.  1.
          6    1    1    2  501    0  0.10344877261E+03  0.18519252580E+03  0.32155191942E+03  0.42187386391E+03  0.17200000000E+03 0. -1.
         -6    1    1    2    0  503 -0.10344877261E+03 -0.18519252580E+03 -0.23833975863E+02  0.27413496416E+03  0.17200000000E+03 0.  1.
</event>
<event>
 4    1  0.5874615E+000  0.2110314E+03  0.7818608E-02  0.1140752E+00
         21   -1    0    0  501  502  0.00000000000E+00  0.00000000000E+00  0.19350200790E+04  0.19350200790E+04  0.00000000000E+00 0.  1.
         21   -1    0    0  502  503 -0.00000000000E+00 -0.00000000000E+00 -0.29063078007E+02  0.29063078007E+02  0.00000000000E+00 0.  1.
          6    1    1    2  501    0 -0.26309149257E+02 -0.11940727932E+03  0.14009720886E+04  0.14167769982E+04  0.17200000000E+03 0. -1.
         -6    1    1    2    0  503  0.26309149257E+02  0.11940727932E+03  0.50498491245E+03  0.54730615883E+03  0.17200000000E+03 0. -1.
</event>
<event>
 4    1  0.5874615E+000  0.2796245E+03  0.7818608E-02  0.1095894E+00
         21   -1    0    0  503  502  0.00000000000E+00  0.00000000000E+00  0.20866162678E+04  0.20866162678E+04  0.00000000000E+00 0.  1.
         21   -1    0    0  501  503 -0.00000000000E+00 -0.00000000000E+00 -0.39995184044E+02  0.39995184044E+02  0.00000000000E+00 0.  1.
          6    1    1    2  501    0 -0.12791822337E+03 -0.17956284206E+03  0.75624339697E+03  0.80628404523E+03  0.17200000000E+03 0.  1.
         -6    1    1    2    0  502  0.12791822337E+03  0.17956284206E+03  0.12903776867E+04  0.13203274066E+04  0.17200000000E+03 0.  1.
</event>
<event>
 4    1  0.5874615E+000  0.1829119E+03  0.7818608E-02  0.1165014E+00
         21   -1    0    0  501  502  0.00000000000E+00  0.00000000000E+00  0.12229937151E+03  0.12229937151E+03  0.00000000000E+00 0.  1.
         21   -1    0    0  502  503 -0.00000000000E+00 -0.00000000000E+00 -0.39857813261E+03  0.39857813261E+03  0.00000000000E+00 0.  1.
          6    1    1    2  501    0 -0.53716451354E+02  0.31421464544E+02  0.77177182814E+01  0.18307465350E+03  0.17200000000E+03 0.  1.
         -6    1    1    2    0  503  0.53716451354E+02 -0.31421464544E+02 -0.28399647939E+03  0.33780285062E+03  0.17200000000E+03 0.  1.
</event>
<event>
 4    1  0.5874615E+000  0.1801213E+03  0.7818608E-02  0.1167686E+00
         21   -1    0    0  501  502  0.00000000000E+00  0.00000000000E+00  0.53113778309E+03  0.53113778309E+03  0.00000000000E+00 0.  1.
         21   -1    0    0  502  503 -0.00000000000E+00 -0.00000000000E+00 -0.65282637763E+02  0.65282637763E+02  0.00000000000E+00 0.  1.
          6    1    1    2  501    0  0.17588614177E+02  0.50500548808E+02  0.15729437092E+03  0.23913423825E+03  0.17200000000E+03 0.  1.
         -6    1    1    2    0  503 -0.17588614177E+02 -0.50500548808E+02  0.30856077441E+03  0.35728618261E+03  0.17200000000E+03 0.  1.
</event>
<event>
 4    1  0.5874615E+000  0.2161035E+03  0.7818608E-02  0.1136822E+00
         21   -1    0    0  501  502  0.00000000000E+00  0.00000000000E+00  0.17339429828E+03  0.17339429828E+03  0.00000000000E+00 0. -1.
         21   -1    0    0  502  503 -0.00000000000E+00 -0.00000000000E+00 -0.34021901763E+03  0.34021901763E+03  0.00000000000E+00 0. -1.
          6    1    1    2  501    0  0.65472232917E+02  0.11327012977E+03  0.33809478868E+02  0.21873229401E+03  0.17200000000E+03 0. -1.
         -6    1    1    2    0  503 -0.65472232917E+02 -0.11327012977E+03 -0.20063419822E+03  0.29488102190E+03  0.17200000000E+03 0. -1.
</event>
<event>
 4    1  0.5874615E+000  0.2145500E+03  0.7818608E-02  0.1138013E+00
         21   -1    0    0  501  502  0.00000000000E+00  0.00000000000E+00  0.52232567290E+03  0.52232567290E+03  0.00000000000E+00 0. -1.
         21   -1    0    0  502  503 -0.00000000000E+00 -0.00000000000E+00 -0.12969916490E+03  0.12969916490E+03  0.00000000000E+00 0.  1.
          6    1    1    2  501    0  0.41043826194E+02 -0.12150349462E+03  0.38088272675E+03  0.43715368740E+03  0.17200000000E+03 0.  1.
         -6    1    1    2    0  503 -0.41043826194E+02  0.12150349462E+03  0.11743781246E+02  0.21487115039E+03  0.17200000000E+03 0.  1.
</event>
<event>
 4    1  0.5874615E+000  0.1976562E+03  0.7818608E-02  0.1151732E+00
         21   -1    0    0  503  502  0.00000000000E+00  0.00000000000E+00  0.21964817445E+02  0.21964817445E+02  0.00000000000E+00 0. -1.
         21   -1    0    0  501  503 -0.00000000000E+00 -0.00000000000E+00 -0.25705409223E+04  0.25705409223E+04  0.00000000000E+00 0. -1.
          6    1    1    2  501    0 -0.83783646849E+02  0.49641404140E+02 -0.19937487622E+04  0.20035224219E+04  0.17200000000E+03 0. -1.
         -6    1    1    2    0  502  0.83783646849E+02 -0.49641404140E+02 -0.55482734268E+03  0.58898331782E+03  0.17200000000E+03 0. -1.
</event>
<event>
 4    1  0.5874615E+000  0.1801244E+03  0.7818608E-02  0.1167683E+00
         21   -1    0    0  503  502  0.00000000000E+00  0.00000000000E+00  0.68725326376E+02  0.68725326376E+02  0.00000000000E+00 0.  1.
         21   -1    0    0  501  503 -0.00000000000E+00 -0.00000000000E+00 -0.53200934209E+03  0.53200934209E+03  0.00000000000E+00 0. -1.
          6    1    1    2  501    0  0.38358998987E+02 -0.37274716331E+02 -0.33244233270E+03  0.37810411510E+03  0.17200000000E+03 0. -1.
         -6    1    1    2    0  502 -0.38358998987E+02  0.37274716331E+02 -0.13084168302E+03  0.22263055337E+03  0.17200000000E+03 0.  1.
</event>
<event>
 4    1  0.5874615E+000  0.2427890E+03  0.7818608E-02  0.1117949E+00
         21   -1    0    0  503  502  0.00000000000E+00  0.00000000000E+00  0.35970617613E+03  0.35970617613E+03  0.00000000000E+00 0. -1.
         21   -1    0    0  501  503 -0.00000000000E+00 -0.00000000000E+00 -0.33328866454E+03  0.33328866454E+03  0.00000000000E+00 0. -1.
          6    1    1    2  501    0  0.91524058738E+02  0.14486486041E+03 -0.23383009907E+03  0.33708010374E+03  0.17200000000E+03 0. -1.
         -6    1    1    2    0  502 -0.91524058738E+02 -0.14486486041E+03  0.26024761065E+03  0.35591473692E+03  0.17200000000E+03 0. -1.
</event>
<event>
 4    1  0.5874615E+000  0.2179637E+03  0.7818608E-02  0.1135410E+00
         21   -1    0    0  503  502  0.00000000000E+00  0.00000000000E+00  0.39926218746E+02  0.39926218746E+02  0.00000000000E+00 0.  1.
         21   -1    0    0  501  503 -0.00000000000E+00 -0.00000000000E+00 -0.11977072248E+04  0.11977072248E+04  0.00000000000E+00 0.  1.
          6    1    1    2  501    0 -0.12185883680E+03 -0.55449203946E+02 -0.52892765987E+03  0.57207749448E+03  0.17200000000E+03 0.  1.
         -6    1    1    2    0  502  0.12185883680E+03  0.55449203946E+02 -0.62885334621E+03  0.66555594909E+03  0.17200000000E+03 0.  1.
</event>
<event>
 4    1  0.5874615E+000  0.1740024E+03  0.7818608E-02  0.1173737E+00
         21   -1    0    0  501  502  0.00000000000E+00  0.00000000000E+00  0.38377507922E+02  0.38377507922E+02  0.00000000000E+00 0. -1.
         21   -1    0    0  502  503 -0.00000000000E+00 -0.00000000000E+00 -0.11610206076E+04  0.11610206076E+04  0.00000000000E+00 0. -1.
          6    1    1    2  501    0  0.22323300883E+02  0.13947010490E+02 -0.22181934528E+03  0.28192316472E+03  0.17200000000E+03 0. -1.
         -6    1    1    2    0  503 -0.22323300883E+02 -0.13947010490E+02 -0.90082375442E+03  0.91747495082E+03  0.17200000000E+03 0. -1.
</event>
<event>
 4    1  0.5874615E+000  0.1745470E+03  0.7818608E-02  0.1173187E+00
         21   -1    0    0  503  502  0.00000000000E+00  0.00000000000E+00  0.32407224515E+03  0.32407224515E+03  0.00000000000E+00 0. -1.
         21   -1    0    0  501  503 -0.00000000000E+00 -0.00000000000E+00 -0.10444007105E+03  0.10444007105E+03  0.00000000000E+00 0. -1.
          6    1    1    2  501    0  0.29622357636E+02  0.22764116709E+01  0.42113913666E+02  0.17955569567E+03  0.17200000000E+03 0. -1.
         -6    1    1    2    0  502 -0.29622357636E+02 -0.22764116709E+01  0.17751826043E+03  0.24895662054E+03  0.17200000000E+03 0. -1.
</event>
<event>
 4    1  0.5874615E+000  0.1968886E+03  0.7818608E-02  0.1152391E+00
         21   -1    0    0  503  502  0.00000000000E+00  0.00000000000E+00  0.97322549038E+02  0.97322549038E+02  0.00000000000E+00 0. -1.
         21   -1    0    0  501  503 -0.00000000000E+00 -0.00000000000E+00 -0.40738238240E+03  0.40738238240E+03  0.00000000000E+00 0. -1.
          6    1    1    2  501    0  0.69055017612E+02  0.66426749651E+02 -0.19267674109E+03  0.27548037151E+03  0.17200000000E+03 0. -1.
         -6    1    1    2    0  502 -0.69055017612E+02 -0.66426749651E+02 -0.11738309227E+03  0.22922455994E+03  0.17200000000E+03 0. -1.
</event>
<event>
 4    1  0.5874615E+000  0.2340564E+03  0.7818608E-02  0.1123817E+00
         21   -1    0    0  503  502  0.00000000000E+00  0.00000000000E+00  0.60799440241E+02  0.60799440241E+02  0.00000000000E+00 0. -1.
         21   -1    0    0  501  503 -0.00000000000E+00 -0.00000000000E+00 -0.17383262388E+04  0.17383262388E+04  0.00000000000E+00 0. -1.
          6    1    1    2  501    0 -0.14590017235E+03  0.62542128780E+02 -0.14630792068E+04  0.14816825380E+04  0.17200000000E+03 0. -1.
         -6    1    1    2    0  502  0.14590017235E+03 -0.62542128780E+02 -0.21444759179E+03  0.31744314103E+03  0.17200000000E+03 0. -1.
</event>
<event>
 4    1  0.5874615E+000  0.1787511E+03  0.7818608E-02  0.1169017E+00
         21   -1    0    0  501  502  0.00000000000E+00  0.00000000000E+00  0.17039537324E+03  0.17039537324E+03  0.00000000000E+00 0.  1.
         21   -1    0    0  502  503 -0.00000000000E+00 -0.00000000000E+00 -0.19684345471E+03  0.19684345471E+03  0.00000000000E+00 0.  1.
          6    1    1    2  501    0  0.13302912486E+02 -0.46807914172E+02  0.26745343125E+02  0.18074086889E+03  0.17200000000E+03 0.  1.
         -6    1    1    2    0  503 -0.13302912486E+02  0.46807914172E+02 -0.53193424600E+02  0.18649795905E+03  0.17200000000E+03 0.  1.
</event>
<event>
 4    1  0.5874615E+000  0.1987511E+03  0.7818608E-02  0.1150797E+00
         21   -1    0    0  503  502  0.00000000000E+00  0.00000000000E+00  0.53747525968E+03  0.53747525968E+03  0.00000000000E+00 0. -1.
         21   -1    0    0  501  503 -0.00000000000E+00 -0.00000000000E+00 -0.22908112254E+03  0.22908112254E+03  0.00000000000E+00 0. -1.
          6    1    1    2  501    0  0.27777603095E+02  0.95636768962E+02 -0.16166993151E+03  0.25620139259E+03  0.17200000000E+03 0. -1.
         -6    1    1    2    0  502 -0.27777603095E+02 -0.95636768962E+02  0.47006406865E+03  0.51035498963E+03  0.17200000000E+03 0. -1.
</event>
<event>
 4    1  0.5874615E+000  0.1932567E+03  0.7818608E-02  0.1155556E+00
         21   -1    0    0  501  502  0.00000000000E+00  0.00000000000E+00  0.11974163296E+03  0.11974163296E+03  0.00000000000E+00 0.  1.
         21   -1    0    0  502  503 -0.00000000000E+00 -0.00000000000E+00 -0.31573351228E+03  0.31573351228E+03  0.00000000000E+00 0.  1.
          6    1    1    2  501    0  0.16546866599E+01  0.88098980641E+02 -0.74023350940E+02  0.20694836279E+03  0.17200000000E+03 0. -1.
         -6    1    1    2    0  503 -0.16546866599E+01 -0.88098980641E+02 -0.12196852839E+03  0.22852678244E+03  0.17200000000E+03 0. -1.
</event>
<event>
 4    1  0.5874615E+000  0.2135264E+03  0.7818608E-02  0.1138803E+00
         21   -1    0    0  501  502  0.00000000000E+00  0.00000000000E+00  0.52444397644E+03  0.52444397644E+03  0.00000000000E+00 0. -1.
         21   -1    0    0  502  503 -0.00000000000E+00 -0.00000000000E+00 -0.87828949216E+02  0.87828949216E+02  0.00000000000E+00 0. -1.
          6    1    1    2  501    0  0.11102043293E+03 -0.60695939996E+02  0.18745499900E+03  0.28413537321E+03  0.17200000000E+03 0.  1.
         -6    1    1    2    0  503 -0.11102043293E+03  0.60695939996E+02  0.24916002823E+03  0.32813755245E+03  0.17200000000E+03 0.  1.
</event>
<event>
 4    1  0.5874615E+000  0.1739255E+03  0.7818608E-02  0.1173815E+00
         21   -1    0    0  501  502  0.00000000000E+00  0.00000000000E+00  0.98467744147E+02  0.98467744147E+02  0.00000000000E+00 0.  1.
         21   -1    0    0  502  503 -0.00000000000E+00 -0.00000000000E+00 -0.61449187033E+03  0.61449187033E+03  0.00000000000E+00 0.  1.
          6    1    1    2  501    0 -0.79450613650E+01  0.24554953708E+02 -0.59271757632E+01  0.17402643812E+03  0.17200000000E+03 0.  1.
         -6    1    1    2    0  503  0.79450613650E+01 -0.24554953708E+02 -0.51009695042E+03  0.53893317636E+03  0.17200000000E+03 0.  1.
</event>
<event>
 4    1  0.5874615E+000  0.1746807E+03  0.7818608E-02  0.1173053E+00
         21   -1    0    0  501  502  0.00000000000E+00  0.00000000000E+00  0.14463160042E+03  0.14463160042E+03  0.00000000000E+00 0.  1.
         21   -1    0    0  502  503 -0.00000000000E+00 -0.00000000000E+00 -0.36904132667E+03  0.36904132667E+03  0.00000000000E+00 0.  1.
          6    1    1    2  501    0  0.86644211128E+01 -0.29227710365E+02  0.55885148018E+02  0.18340251093E+03  0.17200000000E+03 0.  1.
         -6    1    1    2    0  503 -0.86644211128E+01  0.29227710365E+02 -0.28029487427E+03  0.33027041616E+03  0.17200000000E+03 0.  1.
</event>
<event>
 4    1  0.5874615E+000  0.1976080E+03  0.7818608E-02  0.1151773E+00
         21   -1    0    0  503  502  0.00000000000E+00  0.00000000000E+00  0.34788116900E+03  0.34788116900E+03  0.00000000000E+00 0.  1.
         21   -1    0    0  501  503 -0.00000000000E+00 -0.00000000000E+00 -0.16710913864E+03  0.16710913864E+03  0.00000000000E+00 0. -1.
          6    1    1    2  501    0  0.96951934475E+02  0.80762609355E+01  0.23792339691E+03  0.30928376354E+03  0.17200000000E+03 0.  1.
         -6    1    1    2    0  502 -0.96951934475E+02 -0.80762609355E+01 -0.57151366558E+02  0.20570654411E+03  0.17200000000E+03 0. -1.
</event>
<event>
 4    1  0.5874615E+000  0.1809965E+03  0.7818608E-02  0.1166842E+00
         21   -1    0    0  503  502  0.00000000000E+00  0.00000000000E+00  0.19003671840E+04  0.19003671840E+04  0.00000000000E+00 0. -1.
         21   -1    0    0  501  503 -0.00000000000E+00 -0.00000000000E+00 -0.17363902205E+02  0.17363902205E+02  0.00000000000E+00 0. -1.
          6    1    1    2  501    0 -0.56278238475E+02  0.29120902670E+01  0.86005612032E+03  0.87889490298E+03  0.17200000000E+03 0. -1.
         -6    1    1    2    0  502  0.56278238475E+02 -0.29120902670E+01  0.10229471615E+04  0.10388361832E+04  0.17200000000E+03 0. -1.
</event>
<event>
 4    1  0.5874615E+000  0.1826630E+03  0.7818608E-02  0.1165250E+00
         21   -1    0    0  503  502  0.00000000000E+00  0.00000000000E+00  0.16722425178E+03  0.16722425178E+03  0.00000000000E+00 0. -1.
         21   -1    0    0  501  503 -0.00000000000E+00 -0.00000000000E+00 -0.22027966089E+03  0.22027966089E+03  0.00000000000E+00 0. -1.
          6    1    1    2  501    0 -0.53123440081E+02 -0.30978323514E+02  0.32941974618E+02  0.18560961749E+03  0.17200000000E+03 0. -1.
         -6    1    1    2    0  502  0.53123440081E+02  0.30978323514E+02 -0.85997383729E+02  0.20189429517E+03  0.17200000000E+03 0. -1.
</event>
<event>
 4    1  0.5874615E+000  0.1741713E+03  0.7818608E-02  0.1173566E+00
         21   -1    0    0  501  502  0.00000000000E+00  0.00000000000E+00  0.51737210302E+03  0.51737210302E+03  0.00000000000E+00 0.  1.
         21   -1    0    0  502  503 -0.00000000000E+00 -0.00000000000E+00 -0.58738936559E+02  0.58738936559E+02  0.00000000000E+00 0.  1.
          6    1    1    2  501    0  0.13812426710E+02 -0.23682114536E+02  0.21714471118E+03  0.27836567905E+03  0.17200000000E+03 0. -1.
         -6    1    1    2    0  503 -0.13812426710E+02  0.23682114536E+02  0.24148845528E+03  0.29774536052E+03  0.17200000000E+03 0. -1.
</event>
<event>
 4    1  0.5874615E+000  0.1999822E+03  0.7818608E-02  0.1149754E+00
         21   -1    0    0  501  502  0.00000000000E+00  0.00000000000E+00  0.16797061068E+03  0.16797061068E+03  0.00000000000E+00 0. -1.
         21   -1    0    0  502  503 -0.00000000000E+00 -0.00000000000E+00 -0.23967373290E+03  0.23967373290E+03  0.00000000000E+00 0.  1.
          6    1    1    2  501    0 -0.79312333026E+02 -0.64174899342E+02 -0.19306197352E+02  0.20091190391E+03  0.17200000000E+03 0.  1.
         -6    1    1    2    0  503  0.79312333026E+02  0.64174899342E+02 -0.52396924874E+02  0.20673243967E+03  0.17200000000E+03 0. -1.
</event>
<event>
 4    1  0.5874615E+000  0.1765801E+03  0.7818608E-02  0.1171154E+00
         21   -1    0    0  503  502  0.00000000000E+00  0.00000000000E+00  0.23319720586E+03  0.23319720586E+03  0.00000000000E+00 0.  1.
         21   -1    0    0  501  503 -0.00000000000E+00 -0.00000000000E+00 -0.14952483354E+03  0.14952483354E+03  0.00000000000E+00 0.  1.
          6    1    1    2  501    0 -0.38818037914E+02  0.94711833523E+01 -0.20400167488E+02  0.17775463486E+03  0.17200000000E+03 0. -1.
         -6    1    1    2    0  502  0.38818037914E+02 -0.94711833523E+01  0.10407253980E+03  0.20496740454E+03  0.17200000000E+03 0. -1.
</event>
<event>
 4    1  0.5874615E+000  0.1816214E+03  0.7818608E-02  0.1166243E+00
         21   -1    0    0  503  502  0.00000000000E+00  0.00000000000E+00  0.31730273115E+03  0.31730273115E+03  0.00000000000E+00 0. -1.
         21   -1    0    0  501  503 -0.00000000000E+00 -0.00000000000E+00 -0.27060775643E+03  0.27060775643E+03  0.00000000000E+00 0. -1.
          6    1    1    2  501    0  0.13037355619E+02 -0.56853959930E+02 -0.20733395638E+03  0.27563329783E+03  0.17200000000E+03 0. -1.
         -6    1    1    2    0  502 -0.13037355619E+02  0.56853959930E+02  0.25402893111E+03  0.31227718975E+03  0.17200000000E+03 0. -1.
</event>
<event>
 4    1  0.5874615E+000  0.2222225E+03  0.7818608E-02  0.1132237E+00
         21   -1    0    0  503  502  0.00000000000E+00  0.00000000000E+00  0.10892883437E+04  0.10892883437E+04  0.00000000000E+00 0. -1.
         21   -1    0    0  501  503 -0.00000000000E+00 -0.00000000000E+00 -0.98707085385E+02  0.98707085385E+02  0.00000000000E+00 0.  1.
          6    1    1    2  501    0 -0.12266695874E+03 -0.68932176562E+02  0.58505425956E+02  0.22979493597E+03  0.17200000000E+03 0.  1.
         -6    1    1    2    0  502  0.12266695874E+03  0.68932176562E+02  0.93207583233E+03  0.95820049308E+03  0.17200000000E+03 0. -1.
</event>
<event>
 4    1  0.5874615E+000  0.1842144E+03  0.7818608E-02  0.1163786E+00
         21   -1    0    0  503  502  0.00000000000E+00  0.00000000000E+00  0.10726176171E+03  0.10726176171E+03  0.00000000000E+00 0. -1.
         21   -1    0    0  501  503 -0.00000000000E+00 -0.00000000000E+00 -0.42983373369E+03  0.42983373369E+03  0.00000000000E+00 0.  1.
          6    1    1    2  501    0  0.29474444714E+02 -0.59010259064E+02 -0.29925767717E+03  0.35141159758E+03  0.17200000000E+03 0.  1.
         -6    1    1    2    0  502 -0.29474444714E+02  0.59010259064E+02 -0.23314294801E+02  0.18568389782E+03  0.17200000000E+03 0. -1.
</event>
<event>
 4    1  0.5874615E+000  0.2669098E+03  0.7818608E-02  0.1103061E+00
         21   -1    0    0  503  502  0.00000000000E+00  0.00000000000E+00  0.60619412996E+03  0.60619412996E+03  0.00000000000E+00 0. -1.
         21   -1    0    0  501  503 -0.00000000000E+00 -0.00000000000E+00 -0.12289439781E+03  0.12289439781E+03  0.00000000000E+00 0. -1.
          6    1    1    2  501    0 -0.17965964784E+03  0.96846511525E+02  0.31787338986E+03  0.41507147316E+03  0.17200000000E+03 0. -1.
         -6    1    1    2    0  502  0.17965964784E+03 -0.96846511525E+02  0.16542634230E+03  0.31401705461E+03  0.17200000000E+03 0. -1.
</event>
<event>
 4    1  0.5874615E+000  0.2074485E+03  0.7818608E-02  0.1143603E+00
         21   -1    0    0  503  502  0.00000000000E+00  0.00000000000E+00  0.28804458846E+03  0.28804458846E+03  0.00000000000E+00 0.  1.
         21   -1    0    0  501  503 -0.00000000000E+00 -0.00000000000E+00 -0.16415692826E+03  0.16415692826E+03  0.00000000000E+00 0.  1.
          6    1    1    2  501    0 -0.60698571112E+02 -0.98825916429E+02 -0.58388044221E+01  0.20753064817E+03  0.17200000000E+03 0.  1.
         -6    1    1    2    0  502  0.60698571112E+02  0.98825916429E+02  0.12972646463E+03  0.24467086855E+03  0.17200000000E+03 0.  1.
</event>
<event>
 4    1  0.5874615E+000  0.1979494E+03  0.7818608E-02  0.1151481E+00
         21   -1    0    0  503  502  0.00000000000E+00  0.00000000000E+00  0.12724298967E+04  0.12724298967E+04  0.00000000000E+00 0. -1.
         21   -1    0    0  501  503 -0.00000000000E+00 -0.00000000000E+00 -0.45180999193E+02  0.45180999193E+02  0.00000000000E+00 0. -1.
          6    1    1    2  501    0  0.23779340713E+02 -0.95050016473E+02  0.24187066031E+03  0.31254660292E+03  0.17200000000E+03 0.  1.
         -6    1    1    2    0  502 -0.23779340713E+02  0.95050016473E+02  0.98537823722E+03  0.10050642930E+04  0.17200000000E+03 0.  1.
</event>
<event>
 4    1  0.5874615E+000  0.1853695E+03  0.7818608E-02  0.1162705E+00
         21   -1    0    0  503  502  0.00000000000E+00  0.00000000000E+00  0.34298822058E+03  0.34298822058E+03  0.00000000000E+00 0. -1.
         21   -1    0    0  501  503 -0.00000000000E+00 -0.00000000000E+00 -0.10404180657E+03  0.10404180657E+03  0.00000000000E+00 0.  1.
          6    1    1    2  501    0 -0.37728015730E+02 -0.57917500472E+02  0.76431641742E+02  0.20050844344E+03  0.17200000000E+03 0.  1.
         -6    1    1    2    0  502  0.37728015730E+02  0.57917500472E+02  0.16251477227E+03  0.24652158371E+03  0.17200000000E+03 0. -1.
</event>
<event>
 4    1  0.5874615E+000  0.1841461E+03  0.7818608E-02  0.1163850E+00
         21   -1    0    0  503  502  0.00000000000E+00  0.00000000000E+00  0.70908774134E+03  0.70908774134E+03  0.00000000000E+00 0.  1.
         21   -1    0    0  501  503 -0.00000000000E+00 -0.00000000000E+00 -0.47917084411E+02  0.47917084411E+02  0.00000000000E+00 0.  1.
          6    1    1    2  501    0  0.61118304388E+02 -0.24297032887E+02  0.34747124354E+03  0.39325063004E+03  0.17200000000E+03 0.  1.
         -6    1    1    2    0  502 -0.61118304388E+02  0.24297032887E+02  0.31369941339E+03  0.36375419572E+03  0.17200000000E+03 0.  1.
</event>
<event>
 4    1  0.5874615E+000  0.1818775E+03  0.7818608E-02  0.1165998E+00
         21   -1    0    0  503  502  0.00000000000E+00  0.00000000000E+00  0.11622385394E+03  0.11622385394E+03  0.00000000000E+00 0.  1.
         21   -1    0    0  501  503 -0.00000000000E+00 -0.00000000000E+00 -0.61562155495E+03  0.61562155495E+03  0.00000000000E+00 0.  1.
          6    1    1    2  501    0 -0.26283223108E+02 -0.52958596655E+02 -0.51801614420E+03  0.54901743728E+03  0.17200000000E+03 0.  1.
         -6    1    1    2    0  502  0.26283223108E+02  0.52958596655E+02  0.18618443189E+02  0.18282797161E+03  0.17200000000E+03 0.  1.
</event>
<event>
 4    1  0.5874615E+000  0.1895475E+03  0.7818608E-02  0.1158870E+00
         21   -1    0    0  503  502  0.00000000000E+00  0.00000000000E+00  0.18767480324E+03  0.18767480324E+03  0.00000000000E+00 0.  1.
         21   -1    0    0  501  503 -0.00000000000E+00 -0.00000000000E+00 -0.19237132363E+03  0.19237132363E+03  0.00000000000E+00 0.  1.
          6    1    1    2  501    0 -0.60214541376E+02  0.52138936976E+02 -0.15577670557E+02  0.19018654937E+03  0.17200000000E+03 0.  1.
         -6    1    1    2    0  502  0.60214541376E+02 -0.52138936976E+02  0.10881150168E+02  0.18985957751E+03  0.17200000000E+03 0.  1.
</event>
<event>
 4    1  0.5874615E+000  0.2288001E+03  0.7818608E-02  0.1127487E+00
         21   -1    0    0  503  502  0.00000000000E+00  0.00000000000E+00  0.10157053619E+03  0.10157053619E+03  0.00000000000E+00 0. -1.
         21   -1    0    0  501  503 -0.00000000000E+00 -0.00000000000E+00 -0.51621064641E+03  0.51621064641E+03  0.00000000000E+00 0. -1.
          6    1    1    2  501    0  0.72404133734E+02  0.13237501954E+03 -0.21955705507E+03  0.31710377609E+03  0.17200000000E+03 0. -1.
         -6    1    1    2    0  502 -0.72404133734E+02 -0.13237501954E+03 -0.19508305516E+03  0.30067740652E+03  0.17200000000E+03 0. -1.
</event>
<event>
 4    1  0.5874615E+000  0.3819943E+03  0.7818608E-02  0.1050199E+00
         21   -1    0    0  503  502  0.00000000000E+00  0.00000000000E+00  0.89988046430E+02  0.89988046430E+02  0.00000000000E+00 0. -1.
         21   -1    0    0  501  503 -0.00000000000E+00 -0.00000000000E+00 -0.17531195031E+04  0.17531195031E+04  0.00000000000E+00 0.  1.
          6    1    1    2  501    0  0.27017039737E+02 -0.34000846857E+03 -0.10840303707E+04  0.11493657049E+04  0.17200000000E+03 0.  1.
         -6    1    1    2    0  502 -0.27017039737E+02  0.34000846857E+03 -0.57910108600E+03  0.69374184459E+03  0.17200000000E+03 0. -1.
</event>
<event>
 4    1  0.5874615E+000  0.1936212E+03  0.7818608E-02  0.1155235E+00
         21   -1    0    0  503  502  0.00000000000E+00  0.00000000000E+00  0.30385834272E+03  0.30385834272E+03  0.00000000000E+00 0.  1.
         21   -1    0    0  501  503 -0.00000000000E+00 -0.00000000000E+00 -0.13058827341E+03  0.13058827341E+03  0.00000000000E+00 0. -1.
          6    1    1    2  501    0 -0.26478004361E+02 -0.84876865226E+02  0.13768044802E+03  0.23758171801E+03  0.17200000000E+03 0.  1.
         -6    1    1    2    0  502  0.26478004361E+02  0.84876865226E+02  0.35589621291E+02  0.19686489811E+03  0.17200000000E+03 0. -1.
</event>
<event>
 4    1  0.5874615E+000  0.3249691E+03  0.7818608E-02  0.1073385E+00
         21   -1    0    0  501  502  0.00000000000E+00  0.00000000000E+00  0.11188305461E+04  0.11188305461E+04  0.00000000000E+00 0. -1.
         21   -1    0    0  502  503 -0.00000000000E+00 -0.00000000000E+00 -0.15767003569E+03  0.15767003569E+03  0.00000000000E+00 0.  1.
          6    1    1    2  501    0 -0.26429387082E+03 -0.78547188347E+02  0.88492742708E+03  0.94270963830E+03  0.17200000000E+03 0. -1.
         -6    1    1    2    0  503  0.26429387082E+03  0.78547188347E+02  0.76233083310E+02  0.33379094347E+03  0.17200000000E+03 0.  1.
</event>
<event>
 4    1  0.5874615E+000  0.2324600E+03  0.7818608E-02  0.1124920E+00
         21   -1    0    0  503  502  0.00000000000E+00  0.00000000000E+00  0.21109608205E+03  0.21109608205E+03  0.00000000000E+00 0.  1.
         21   -1    0    0  501  503 -0.00000000000E+00 -0.00000000000E+00 -0.25635626899E+03  0.25635626899E+03  0.00000000000E+00 0. -1.
          6    1    1    2  501    0  0.53871032481E+02  0.14680454908E+03 -0.13748669267E+02  0.23286624847E+03  0.17200000000E+03 0.  1.
         -6    1    1    2    0  502 -0.53871032481E+02 -0.14680454908E+03 -0.31511517682E+02  0.23458610257E+03  0.17200000000E+03 0.  1.
</event>
