<event>
 4    1 -0.6479440E-004  0.1860155E+03  0.7818608E-02  0.1162105E+00
          5   -1    0    0  501    0  0.00000000000E+00  0.00000000000E+00  0.13543637781E+04  0.13543719332E+04  0.47000000000E+01 0. -1.
         -5   -1    0    0    0  501 -0.00000000000E+00 -0.00000000000E+00 -0.34913534115E+02  0.35228466677E+02  0.47000000000E+01 0.  1.
          6    1    1    2  502    0 -0.15272846209E+02  0.69170257905E+02  0.29756425592E+03  0.35092202953E+03  0.17200000000E+03 0.  1.
         -6    1    1    2    0  502  0.15272846209E+02 -0.69170257905E+02  0.10218859881E+04  0.10386783704E+04  0.17200000000E+03 0.  1.
</event>
<event>
 4    1 -0.6479440E-004  0.2036268E+03  0.7818608E-02  0.1146715E+00
          5   -1    0    0  501    0  0.00000000000E+00  0.00000000000E+00  0.16331992890E+03  0.16338754291E+03  0.47000000000E+01 0. -1.
         -5   -1    0    0    0  501 -0.00000000000E+00 -0.00000000000E+00 -0.25696747241E+03  0.25701045091E+03  0.47000000000E+01 0.  1.
          6    1    1    2  502    0  0.54955713857E+02  0.94126126793E+02 -0.70378513596E+02  0.21544603363E+03  0.17200000000E+03 0.  1.
         -6    1    1    2    0  502 -0.54955713857E+02 -0.94126126793E+02 -0.23269029909E+02  0.20495196018E+03  0.17200000000E+03 0.  1.
</event>
<event>
 4    1 -0.6479440E-004  0.1799074E+03  0.7818608E-02  0.1167893E+00
          5   -1    0    0  501    0  0.00000000000E+00  0.00000000000E+00  0.40708151214E+03  0.40710864340E+03  0.47000000000E+01 0. -1.
         -5   -1    0    0    0  501 -0.00000000000E+00 -0.00000000000E+00 -0.16654774427E+04  0.16654840745E+04  0.47000000000E+01 0.  1.
          6    1    1    2  502    0  0.19354354377E+02 -0.49072339274E+02  0.38206106627E+03  0.42230006378E+03  0.17200000000E+03 0. -1.
         -6    1    1    2    0  502 -0.19354354377E+02  0.49072339274E+02 -0.16404569969E+04  0.16502926541E+04  0.17200000000E+03 0.  1.
</event>
<event>
 4    1 -0.6479440E-004  0.1898306E+03  0.7818608E-02  0.1158614E+00
          5   -1    0    0  501    0  0.00000000000E+00  0.00000000000E+00  0.24119473626E+03  0.24124052479E+03  0.47000000000E+01 0. -1.
         -5   -1    0    0    0  501 -0.00000000000E+00 -0.00000000000E+00 -0.18833387441E+03  0.18839251113E+03  0.47000000000E+01 0.  1.
          6    1    1    2  502    0  0.22869122658E+02 -0.76997897203E+02  0.12418811393E+03  0.22684435322E+03  0.17200000000E+03 0. -1.
         -6    1    1    2    0  502 -0.22869122658E+02  0.76997897203E+02 -0.71327252078E+02  0.20278868271E+03  0.17200000000E+03 0.  1.
</event>
<event>
 4    1 -0.6479440E-004  0.1815550E+03  0.7818608E-02  0.1166307E+00
         -5   -1    0    0    0  501 -0.00000000000E+00  0.00000000000E+00  0.27120341406E+03  0.27124413690E+03  0.47000000000E+01 0.  1.
          5   -1    0    0  501    0  0.00000000000E+00 -0.00000000000E+00 -0.29089555499E+03  0.29093352147E+03  0.47000000000E+01 0. -1.
          6    1    1    2  502    0  0.53103584051E+02  0.23627111596E+02 -0.22434130364E+03  0.28860223762E+03  0.17200000000E+03 0. -1.
         -6    1    1    2    0  502 -0.53103584051E+02 -0.23627111596E+02  0.20464916271E+03  0.27357542075E+03  0.17200000000E+03 0.  1.
</event>
<event>
 4    1 -0.6479440E-004  0.1967194E+03  0.7818608E-02  0.1152537E+00
         -5   -1    0    0    0  501 -0.00000000000E+00  0.00000000000E+00  0.31505760445E+03  0.31509265958E+03  0.47000000000E+01 0.  1.
          5   -1    0    0  501    0  0.00000000000E+00 -0.00000000000E+00 -0.19865960553E+03  0.19871519537E+03  0.47000000000E+01 0. -1.
          6    1    1    2  502    0  0.57692066974E+02 -0.76066732339E+02 -0.10057016363E+03  0.22093637132E+03  0.17200000000E+03 0.  1.
         -6    1    1    2    0  502 -0.57692066974E+02  0.76066732339E+02  0.21696816255E+03  0.29287148363E+03  0.17200000000E+03 0.  1.
</event>
<event>
 4    1 -0.6479440E-004  0.1764071E+03  0.7818608E-02  0.1171326E+00
         -5   -1    0    0    0  501 -0.00000000000E+00  0.00000000000E+00  0.45001825029E+03  0.45004279307E+03  0.47000000000E+01 0.  1.
          5   -1    0    0  501    0  0.00000000000E+00 -0.00000000000E+00 -0.38641189797E+03  0.38644048040E+03  0.47000000000E+01 0. -1.
          6    1    1    2  502    0  0.25199578779E+02 -0.30007323542E+02 -0.34717654074E+03  0.38942394466E+03  0.17200000000E+03 0. -1.
         -6    1    1    2    0  502 -0.25199578779E+02  0.30007323542E+02  0.41078289307E+03  0.44705932881E+03  0.17200000000E+03 0.  1.
</event>
<event>
 4    1 -0.6479440E-004  0.2357069E+03  0.7818608E-02  0.1122686E+00
          5   -1    0    0  501    0  0.00000000000E+00  0.00000000000E+00  0.10435750853E+03  0.10446329301E+03  0.47000000000E+01 0. -1.
         -5   -1    0    0    0  501 -0.00000000000E+00 -0.00000000000E+00 -0.10335464423E+04  0.10335571288E+04  0.47000000000E+01 0.  1.
          6    1    1    2  502    0 -0.16102390153E+03 -0.67131023754E+01 -0.68236116568E+02  0.24538526894E+03  0.17200000000E+03 0. -1.
         -6    1    1    2    0  502  0.16102390153E+03  0.67131023754E+01 -0.86095281720E+03  0.89263515282E+03  0.17200000000E+03 0.  1.
</event>
<event>
 4    1 -0.6479440E-004  0.1851221E+03  0.7818608E-02  0.1162936E+00
          5   -1    0    0  501    0  0.00000000000E+00  0.00000000000E+00  0.35519668629E+03  0.35522778038E+03  0.47000000000E+01 0. -1.
         -5   -1    0    0    0  501 -0.00000000000E+00 -0.00000000000E+00 -0.19810893114E+03  0.19816467545E+03  0.47000000000E+01 0.  1.
          6    1    1    2  502    0 -0.43483078284E+01  0.68317484957E+02  0.27675378988E+03  0.33296072853E+03  0.17200000000E+03 0. -1.
         -6    1    1    2    0  502  0.43483078284E+01 -0.68317484957E+02 -0.11966603473E+03  0.22043172730E+03  0.17200000000E+03 0.  1.
</event>
<event>
 4    1 -0.6479440E-004  0.2217148E+03  0.7818608E-02  0.1132611E+00
          5   -1    0    0  501    0  0.00000000000E+00  0.00000000000E+00  0.63856213801E+03  0.63857943445E+03  0.47000000000E+01 0. -1.
         -5   -1    0    0    0  501 -0.00000000000E+00 -0.00000000000E+00 -0.10413865952E+03  0.10424466608E+03  0.47000000000E+01 0.  1.
          6    1    1    2  502    0  0.59552807354E+02  0.12659737944E+03  0.45706401661E+03  0.50800093369E+03  0.17200000000E+03 0. -1.
         -6    1    1    2    0  502 -0.59552807354E+02 -0.12659737944E+03  0.77359461876E+02  0.23482316684E+03  0.17200000000E+03 0.  1.
</event>
<event>
 4    1 -0.6479440E-004  0.4175167E+03  0.7818608E-02  0.1037878E+00
         -5   -1    0    0    0  501 -0.00000000000E+00  0.00000000000E+00  0.78011397628E+03  0.78012813434E+03  0.47000000000E+01 0.  1.
          5   -1    0    0  501    0  0.00000000000E+00 -0.00000000000E+00 -0.12671077418E+04  0.12671164585E+04  0.47000000000E+01 0. -1.
          6    1    1    2  502    0  0.14121129973E+03 -0.35326409823E+03 -0.11724892216E+04  0.12446088257E+04  0.17200000000E+03 0. -1.
         -6    1    1    2    0  502 -0.14121129973E+03  0.35326409823E+03  0.68549545610E+03  0.80263576708E+03  0.17200000000E+03 0.  1.
</event>
<event>
 4    1 -0.6479440E-004  0.1783894E+03  0.7818608E-02  0.1169371E+00
          5   -1    0    0  501    0  0.00000000000E+00  0.00000000000E+00  0.23062783369E+03  0.23067571973E+03  0.47000000000E+01 0. -1.
         -5   -1    0    0    0  501 -0.00000000000E+00 -0.00000000000E+00 -0.19328355733E+03  0.19334069291E+03  0.47000000000E+01 0.  1.
          6    1    1    2  502    0  0.43769201194E+02 -0.17973425489E+02 -0.94799971958E+02  0.20201440959E+03  0.17200000000E+03 0.  1.
         -6    1    1    2    0  502 -0.43769201194E+02  0.17973425489E+02  0.13214424832E+03  0.22200200306E+03  0.17200000000E+03 0. -1.
</event>
<event>
 4    1 -0.6479440E-004  0.2246892E+03  0.7818608E-02  0.1130435E+00
          5   -1    0    0  501    0  0.00000000000E+00  0.00000000000E+00  0.27139796576E+03  0.27143865940E+03  0.47000000000E+01 0. -1.
         -5   -1    0    0    0  501 -0.00000000000E+00 -0.00000000000E+00 -0.44841765432E+03  0.44844228470E+03  0.47000000000E+01 0.  1.
          6    1    1    2  502    0 -0.30313142781E+02  0.14135895756E+03  0.18684940682E+03  0.29222926331E+03  0.17200000000E+03 0. -1.
         -6    1    1    2    0  502  0.30313142781E+02 -0.14135895756E+03 -0.36386909539E+03  0.42765168079E+03  0.17200000000E+03 0.  1.
</event>
<event>
 4    1 -0.6479440E-004  0.1730571E+03  0.7818608E-02  0.1174697E+00
         -5   -1    0    0    0  501 -0.00000000000E+00  0.00000000000E+00  0.73372045595E+02  0.73522425659E+02  0.47000000000E+01 0.  1.
          5   -1    0    0  501    0  0.00000000000E+00 -0.00000000000E+00 -0.85723661643E+03  0.85724950076E+03  0.47000000000E+01 0. -1.
          6    1    1    2  502    0  0.79975819890E+01 -0.17343312640E+02 -0.72895030023E+03  0.74921111311E+03  0.17200000000E+03 0. -1.
         -6    1    1    2    0  502 -0.79975819890E+01  0.17343312640E+02 -0.54914270609E+02  0.18156081330E+03  0.17200000000E+03 0.  1.
</event>
<event>
 4    1 -0.6479440E-004  0.3496296E+03  0.7818608E-02  0.1062767E+00
          5   -1    0    0  501    0  0.00000000000E+00  0.00000000000E+00  0.27553781890E+03  0.27557790122E+03  0.47000000000E+01 0. -1.
         -5   -1    0    0    0  501 -0.00000000000E+00 -0.00000000000E+00 -0.84615684790E+03  0.84616990094E+03  0.47000000000E+01 0.  1.
          6    1    1    2  502    0 -0.19879616181E+03 -0.23051454353E+03  0.10155591704E+03  0.36408031122E+03  0.17200000000E+03 0. -1.
         -6    1    1    2    0  502  0.19879616181E+03  0.23051454353E+03 -0.67217494605E+03  0.75766749094E+03  0.17200000000E+03 0.  1.
</event>
<event>
 4    1 -0.6479440E-004  0.1861339E+03  0.7818608E-02  0.1161995E+00
          5   -1    0    0  501    0  0.00000000000E+00  0.00000000000E+00  0.41243081631E+02  0.41510020265E+02  0.47000000000E+01 0. -1.
         -5   -1    0    0    0  501 -0.00000000000E+00 -0.00000000000E+00 -0.87753980333E+03  0.87755238957E+03  0.47000000000E+01 0.  1.
          6    1    1    2  502    0 -0.12429064186E+02  0.70052451930E+02 -0.31946348509E+03  0.36973334441E+03  0.17200000000E+03 0. -1.
         -6    1    1    2    0  502  0.12429064186E+02 -0.70052451930E+02 -0.51683323661E+03  0.54932906543E+03  0.17200000000E+03 0.  1.
</event>
<event>
 4    1 -0.6479440E-004  0.1726929E+03  0.7818608E-02  0.1175068E+00
          5   -1    0    0  501    0  0.00000000000E+00  0.00000000000E+00  0.24761027953E+03  0.24765488190E+03  0.47000000000E+01 0. -1.
         -5   -1    0    0    0  501 -0.00000000000E+00 -0.00000000000E+00 -0.82787056780E+03  0.82788390915E+03  0.47000000000E+01 0.  1.
          6    1    1    2  502    0 -0.15230588935E+02  0.26235627870E+01  0.20699022464E+03  0.26956967006E+03  0.17200000000E+03 0. -1.
         -6    1    1    2    0  502  0.15230588935E+02 -0.26235627870E+01 -0.78725051291E+03  0.80596912099E+03  0.17200000000E+03 0.  1.
</event>
<event>
 4    1 -0.6479440E-004  0.1763425E+03  0.7818608E-02  0.1171391E+00
         -5   -1    0    0    0  501 -0.00000000000E+00  0.00000000000E+00  0.51214653426E+03  0.51216809990E+03  0.47000000000E+01 0.  1.
          5   -1    0    0  501    0  0.00000000000E+00 -0.00000000000E+00 -0.12160168078E+03  0.12169247622E+03  0.47000000000E+01 0. -1.
          6    1    1    2  502    0 -0.27573392774E+02 -0.27429347027E+02 -0.29047104571E+02  0.17871876049E+03  0.17200000000E+03 0. -1.
         -6    1    1    2    0  502  0.27573392774E+02  0.27429347027E+02  0.41959195805E+03  0.45514181562E+03  0.17200000000E+03 0.  1.
</event>
<event>
 4    1 -0.6479440E-004  0.1754989E+03  0.7818608E-02  0.1172232E+00
         -5   -1    0    0    0  501 -0.00000000000E+00  0.00000000000E+00  0.53812761215E+02  0.54017619992E+02  0.47000000000E+01 0.  1.
          5   -1    0    0  501    0  0.00000000000E+00 -0.00000000000E+00 -0.69234202339E+03  0.69235797631E+03  0.47000000000E+01 0. -1.
          6    1    1    2  502    0 -0.20058867720E+01 -0.34811424105E+02 -0.47544005614E+03  0.50679690786E+03  0.17200000000E+03 0. -1.
         -6    1    1    2    0  502  0.20058867720E+01  0.34811424105E+02 -0.16308920604E+03  0.23957868844E+03  0.17200000000E+03 0.  1.
</event>
<event>
 4    1 -0.6479440E-004  0.1732380E+03  0.7818608E-02  0.1174513E+00
          5   -1    0    0  501    0  0.00000000000E+00  0.00000000000E+00  0.56299142447E+03  0.56301104255E+03  0.47000000000E+01 0. -1.
         -5   -1    0    0    0  501 -0.00000000000E+00 -0.00000000000E+00 -0.11708677446E+03  0.11718106824E+03  0.47000000000E+01 0.  1.
          6    1    1    2  502    0  0.17878717642E+02  0.10381205613E+02  0.47402273004E+03  0.50468699862E+03  0.17200000000E+03 0. -1.
         -6    1    1    2    0  502 -0.17878717642E+02 -0.10381205613E+02 -0.28118080034E+02  0.17550511217E+03  0.17200000000E+03 0.  1.
</event>
<event>
 4    1 -0.6479440E-004  0.1722774E+03  0.7818608E-02  0.1175494E+00
          5   -1    0    0  501    0  0.00000000000E+00  0.00000000000E+00  0.17262935137E+03  0.17269332052E+03  0.47000000000E+01 0. -1.
         -5   -1    0    0    0  501 -0.00000000000E+00 -0.00000000000E+00 -0.30048966990E+03  0.30052642432E+03  0.47000000000E+01 0.  1.
          6    1    1    2  502    0  0.89715533648E+01 -0.38738731480E+01  0.90883865720E+02  0.19478031911E+03  0.17200000000E+03 0. -1.
         -6    1    1    2    0  502 -0.89715533648E+01  0.38738731480E+01 -0.21874418425E+03  0.27843942574E+03  0.17200000000E+03 0.  1.
</event>
<event>
 4    1 -0.6479440E-004  0.1764084E+03  0.7818608E-02  0.1171325E+00
          5   -1    0    0  501    0  0.00000000000E+00  0.00000000000E+00  0.13911191604E+04  0.13911271000E+04  0.47000000000E+01 0. -1.
         -5   -1    0    0    0  501 -0.00000000000E+00 -0.00000000000E+00 -0.27258180879E+02  0.27660412593E+02  0.47000000000E+01 0.  1.
          6    1    1    2  502    0 -0.13444978344E+02 -0.36812325941E+02  0.98751565582E+03  0.10031485858E+04  0.17200000000E+03 0. -1.
         -6    1    1    2    0  502  0.13444978344E+02  0.36812325941E+02  0.37634532370E+03  0.41563892678E+03  0.17200000000E+03 0.  1.
</event>
<event>
 4    1 -0.6479440E-004  0.2424260E+03  0.7818608E-02  0.1118187E+00
          5   -1    0    0  501    0  0.00000000000E+00  0.00000000000E+00  0.42137879743E+03  0.42140500818E+03  0.47000000000E+01 0. -1.
         -5   -1    0    0    0  501 -0.00000000000E+00 -0.00000000000E+00 -0.18897522636E+03  0.18903366414E+03  0.47000000000E+01 0.  1.
          6    1    1    2  502    0 -0.42129667429E+02 -0.16556402940E+03  0.27249014558E+03  0.36472076462E+03  0.17200000000E+03 0. -1.
         -6    1    1    2    0  502  0.42129667429E+02  0.16556402940E+03 -0.40086574506E+02  0.24571790770E+03  0.17200000000E+03 0.  1.
</event>
<event>
 4    1 -0.6479440E-004  0.1861914E+03  0.7818608E-02  0.1161942E+00
          5   -1    0    0  501    0  0.00000000000E+00  0.00000000000E+00  0.62595878963E+02  0.62772080284E+02  0.47000000000E+01 0. -1.
         -5   -1    0    0    0  501 -0.00000000000E+00 -0.00000000000E+00 -0.13672858108E+04  0.13672938888E+04  0.47000000000E+01 0.  1.
          6    1    1    2  502    0  0.61178377770E+02 -0.36611868973E+02 -0.10053237035E+03  0.21159863030E+03  0.17200000000E+03 0. -1.
         -6    1    1    2    0  502 -0.61178377770E+02  0.36611868973E+02 -0.12041575615E+04  0.12184673388E+04  0.17200000000E+03 0.  1.
</event>
<event>
 4    1 -0.6479440E-004  0.1806993E+03  0.7818608E-02  0.1167128E+00
          5   -1    0    0  501    0  0.00000000000E+00  0.00000000000E+00  0.23988751125E+03  0.23993354925E+03  0.47000000000E+01 0. -1.
         -5   -1    0    0    0  501 -0.00000000000E+00 -0.00000000000E+00 -0.88226655086E+03  0.88227906967E+03  0.47000000000E+01 0.  1.
          6    1    1    2  502    0 -0.52127601941E+02  0.18733483910E+02  0.19482864185E+03  0.26572623128E+03  0.17200000000E+03 0. -1.
         -6    1    1    2    0  502  0.52127601941E+02 -0.18733483910E+02 -0.83720768146E+03  0.85648638764E+03  0.17200000000E+03 0.  1.
</event>
<event>
 4    1 -0.6479440E-004  0.1740336E+03  0.7818608E-02  0.1173706E+00
         -5   -1    0    0    0  501 -0.00000000000E+00  0.00000000000E+00  0.17146408466E+04  0.17146472882E+04  0.47000000000E+01 0.  1.
          5   -1    0    0  501    0  0.00000000000E+00 -0.00000000000E+00 -0.24155122351E+02  0.24608127434E+02  0.47000000000E+01 0. -1.
          6    1    1    2  502    0 -0.16522068750E+02  0.20754049591E+02  0.38862148700E+03  0.42581025057E+03  0.17200000000E+03 0. -1.
         -6    1    1    2    0  502  0.16522068750E+02 -0.20754049591E+02  0.13018642373E+04  0.13134451650E+04  0.17200000000E+03 0.  1.
</event>
<event>
 4    1 -0.6479440E-004  0.2344191E+03  0.7818608E-02  0.1123568E+00
         -5   -1    0    0    0  501 -0.00000000000E+00  0.00000000000E+00  0.19615183855E+03  0.19620813889E+03  0.47000000000E+01 0.  1.
          5   -1    0    0  501    0  0.00000000000E+00 -0.00000000000E+00 -0.52272941335E+03  0.52275054240E+03  0.47000000000E+01 0. -1.
          6    1    1    2  502    0  0.13683540734E+03  0.81512970149E+02 -0.40821138757E+03  0.47073222744E+03  0.17200000000E+03 0. -1.
         -6    1    1    2    0  502 -0.13683540734E+03 -0.81512970149E+02  0.81633812773E+02  0.24822645385E+03  0.17200000000E+03 0.  1.
</event>
<event>
 4    1 -0.6479440E-004  0.2102622E+03  0.7818608E-02  0.1141359E+00
          5   -1    0    0  501    0  0.00000000000E+00  0.00000000000E+00  0.22047040490E+03  0.22052049664E+03  0.47000000000E+01 0. -1.
         -5   -1    0    0    0  501 -0.00000000000E+00 -0.00000000000E+00 -0.44004366309E+03  0.44006876215E+03  0.47000000000E+01 0.  1.
          6    1    1    2  502    0 -0.86919347431E+02  0.84090580061E+02  0.13392053748E+03  0.24928880635E+03  0.17200000000E+03 0. -1.
         -6    1    1    2    0  502  0.86919347431E+02 -0.84090580061E+02 -0.35349379566E+03  0.41130045245E+03  0.17200000000E+03 0.  1.
</event>
<event>
 4    1 -0.6479440E-004  0.2151717E+03  0.7818608E-02  0.1137535E+00
          5   -1    0    0  501    0  0.00000000000E+00  0.00000000000E+00  0.17676678368E+03  0.17682925610E+03  0.47000000000E+01 0. -1.
         -5   -1    0    0    0  501 -0.00000000000E+00 -0.00000000000E+00 -0.26672141505E+03  0.26676282208E+03  0.47000000000E+01 0.  1.
          6    1    1    2  502    0  0.10163542794E+03  0.79906727685E+02 -0.14826667738E+02  0.21568188477E+03  0.17200000000E+03 0. -1.
         -6    1    1    2    0  502 -0.10163542794E+03 -0.79906727685E+02 -0.75127963627E+02  0.22791019341E+03  0.17200000000E+03 0.  1.
</event>
<event>
 4    1 -0.6479440E-004  0.1777670E+03  0.7818608E-02  0.1169982E+00
          5   -1    0    0  501    0  0.00000000000E+00  0.00000000000E+00  0.17898772830E+03  0.17904942581E+03  0.47000000000E+01 0. -1.
         -5   -1    0    0    0  501 -0.00000000000E+00 -0.00000000000E+00 -0.22407666760E+03  0.22412595335E+03  0.47000000000E+01 0.  1.
          6    1    1    2  502    0 -0.15032471279E+02  0.42321803575E+02  0.70386937767E+02  0.19119474694E+03  0.17200000000E+03 0. -1.
         -6    1    1    2    0  502  0.15032471279E+02 -0.42321803575E+02 -0.11547587706E+03  0.21198063221E+03  0.17200000000E+03 0.  1.
</event>
<event>
 4    1 -0.6479440E-004  0.3417888E+03  0.7818608E-02  0.1066037E+00
         -5   -1    0    0    0  501 -0.00000000000E+00  0.00000000000E+00  0.44112510347E+03  0.44115014101E+03  0.47000000000E+01 0.  1.
          5   -1    0    0  501    0  0.00000000000E+00 -0.00000000000E+00 -0.12272140974E+04  0.12272230974E+04  0.47000000000E+01 0. -1.
          6    1    1    2  502    0 -0.16548428792E+03  0.24464374323E+03 -0.11317685166E+04  0.11822519130E+04  0.17200000000E+03 0. -1.
         -6    1    1    2    0  502  0.16548428792E+03 -0.24464374323E+03  0.34567952267E+03  0.48612132543E+03  0.17200000000E+03 0.  1.
</event>
<event>
 4    1 -0.6479440E-004  0.1849778E+03  0.7818608E-02  0.1163071E+00
          5   -1    0    0  501    0  0.00000000000E+00  0.00000000000E+00  0.37019965202E+03  0.37022948607E+03  0.47000000000E+01 0. -1.
         -5   -1    0    0    0  501 -0.00000000000E+00 -0.00000000000E+00 -0.20991775447E+03  0.20997036372E+03  0.47000000000E+01 0.  1.
          6    1    1    2  502    0 -0.67936228110E+02  0.41769719289E+01  0.29719892660E+03  0.35006282316E+03  0.17200000000E+03 0. -1.
         -6    1    1    2    0  502  0.67936228110E+02 -0.41769719289E+01 -0.13691702905E+03  0.23013702663E+03  0.17200000000E+03 0.  1.
</event>
<event>
 4    1 -0.6479440E-004  0.1840739E+03  0.7818608E-02  0.1163918E+00
          5   -1    0    0  501    0  0.00000000000E+00  0.00000000000E+00  0.14391130167E+04  0.14391206916E+04  0.47000000000E+01 0. -1.
         -5   -1    0    0    0  501 -0.00000000000E+00 -0.00000000000E+00 -0.47158499570E+02  0.47392131010E+02  0.47000000000E+01 0.  1.
          6    1    1    2  502    0  0.45041528996E+02  0.47649420879E+02  0.12226165461E+04  0.12363957399E+04  0.17200000000E+03 0. -1.
         -6    1    1    2    0  502 -0.45041528996E+02 -0.47649420879E+02  0.16933797103E+03  0.25011708274E+03  0.17200000000E+03 0.  1.
</event>
<event>
 4    1 -0.6479440E-004  0.1738510E+03  0.7818608E-02  0.1173890E+00
         -5   -1    0    0    0  501 -0.00000000000E+00  0.00000000000E+00  0.24582829956E+03  0.24587322518E+03  0.47000000000E+01 0.  1.
          5   -1    0    0  501    0  0.00000000000E+00 -0.00000000000E+00 -0.23142195908E+03  0.23146968084E+03  0.47000000000E+01 0. -1.
          6    1    1    2  502    0  0.17654476350E+02  0.18124233927E+02 -0.15623592955E+03  0.23373881593E+03  0.17200000000E+03 0. -1.
         -6    1    1    2    0  502 -0.17654476350E+02 -0.18124233927E+02  0.17064227002E+03  0.24360409009E+03  0.17200000000E+03 0.  1.
</event>
<event>
 4    1 -0.6479440E-004  0.1854827E+03  0.7818608E-02  0.1162600E+00
         -5   -1    0    0    0  501 -0.00000000000E+00  0.00000000000E+00  0.64973762413E+03  0.64975462308E+03  0.47000000000E+01 0.  1.
          5   -1    0    0  501    0  0.00000000000E+00 -0.00000000000E+00 -0.69529235155E+02  0.69687908142E+02  0.47000000000E+01 0. -1.
          6    1    1    2  502    0 -0.68465920166E+02 -0.11500775894E+02  0.11405816155E+03  0.21774552644E+03  0.17200000000E+03 0. -1.
         -6    1    1    2    0  502  0.68465920166E+02  0.11500775894E+02  0.46615022743E+03  0.50169700478E+03  0.17200000000E+03 0. -1.
</event>
<event>
 4    1 -0.6479440E-004  0.2426541E+03  0.7818608E-02  0.1118037E+00
         -5   -1    0    0    0  501 -0.00000000000E+00  0.00000000000E+00  0.23769486588E+03  0.23774132847E+03  0.47000000000E+01 0.  1.
          5   -1    0    0  501    0  0.00000000000E+00 -0.00000000000E+00 -0.37679478149E+03  0.37682409339E+03  0.47000000000E+01 0. -1.
          6    1    1    2  502    0 -0.16419767334E+03 -0.48333467478E+02 -0.24944538738E+03  0.34800000185E+03  0.17200000000E+03 0. -1.
         -6    1    1    2    0  502  0.16419767334E+03  0.48333467478E+02  0.11034547176E+03  0.26656542001E+03  0.17200000000E+03 0.  1.
</event>
<event>
 4    1 -0.6479440E-004  0.2159148E+03  0.7818608E-02  0.1136966E+00
         -5   -1    0    0    0  501 -0.00000000000E+00  0.00000000000E+00  0.17302246082E+03  0.17308628470E+03  0.47000000000E+01 0.  1.
          5   -1    0    0  501    0  0.00000000000E+00 -0.00000000000E+00 -0.59801437661E+03  0.59803284578E+03  0.47000000000E+01 0. -1.
          6    1    1    2  502    0  0.10841951545E+03  0.72666466382E+02 -0.49832539905E+03  0.54309060938E+03  0.17200000000E+03 0. -1.
         -6    1    1    2    0  502 -0.10841951545E+03 -0.72666466382E+02  0.73333483258E+02  0.22802852110E+03  0.17200000000E+03 0.  1.
</event>
<event>
 4    1 -0.6479440E-004  0.2690941E+03  0.7818608E-02  0.1101799E+00
          5   -1    0    0  501    0  0.00000000000E+00  0.00000000000E+00  0.21182009487E+03  0.21187223176E+03  0.47000000000E+01 0. -1.
         -5   -1    0    0    0  501 -0.00000000000E+00 -0.00000000000E+00 -0.34357562395E+03  0.34360776967E+03  0.47000000000E+01 0.  1.
          6    1    1    2  502    0 -0.50909568864E+02 -0.20058880883E+03 -0.45602104651E+02  0.27293077214E+03  0.17200000000E+03 0. -1.
         -6    1    1    2    0  502  0.50909568864E+02  0.20058880883E+03 -0.86153424433E+02  0.28254922929E+03  0.17200000000E+03 0.  1.
</event>
<event>
 4    1 -0.6479440E-004  0.1752649E+03  0.7818608E-02  0.1172466E+00
         -5   -1    0    0    0  501 -0.00000000000E+00  0.00000000000E+00  0.68835870167E+03  0.68837474690E+03  0.47000000000E+01 0.  1.
          5   -1    0    0  501    0  0.00000000000E+00 -0.00000000000E+00 -0.18457864021E+03  0.18463846951E+03  0.47000000000E+01 0. -1.
          6    1    1    2  502    0  0.30963725799E+02 -0.13230136958E+02 -0.12822122945E+03  0.21716001594E+03  0.17200000000E+03 0. -1.
         -6    1    1    2    0  502 -0.30963725799E+02  0.13230136958E+02  0.63200129091E+03  0.65585320046E+03  0.17200000000E+03 0.  1.
</event>
<event>
 4    1 -0.6479440E-004  0.1828291E+03  0.7818608E-02  0.1165093E+00
         -5   -1    0    0    0  501 -0.00000000000E+00  0.00000000000E+00  0.75730088624E+03  0.75731547080E+03  0.47000000000E+01 0.  1.
          5   -1    0    0  501    0  0.00000000000E+00 -0.00000000000E+00 -0.93987379546E+02  0.94104821948E+02  0.47000000000E+01 0. -1.
          6    1    1    2  502    0 -0.19679690241E+02  0.58781008835E+02  0.21517712844E+02  0.18409103502E+03  0.17200000000E+03 0. -1.
         -6    1    1    2    0  502  0.19679690241E+02 -0.58781008835E+02  0.64179579386E+03  0.66732925773E+03  0.17200000000E+03 0.  1.
</event>
<event>
 4    1 -0.6479440E-004  0.1751029E+03  0.7818608E-02  0.1172628E+00
          5   -1    0    0  501    0  0.00000000000E+00  0.00000000000E+00  0.23038643049E+03  0.23043436670E+03  0.47000000000E+01 0. -1.
         -5   -1    0    0    0  501 -0.00000000000E+00 -0.00000000000E+00 -0.79534352390E+03  0.79535741086E+03  0.47000000000E+01 0.  1.
          6    1    1    2  502    0  0.26860175895E+02  0.18856224969E+02  0.18555081886E+03  0.25512767911E+03  0.17200000000E+03 0. -1.
         -6    1    1    2    0  502 -0.26860175895E+02 -0.18856224969E+02 -0.75050791226E+03  0.77066409845E+03  0.17200000000E+03 0.  1.
</event>
<event>
 4    1 -0.6479440E-004  0.2160345E+03  0.7818608E-02  0.1136874E+00
         -5   -1    0    0    0  501 -0.00000000000E+00  0.00000000000E+00  0.26904547320E+03  0.26908652260E+03  0.47000000000E+01 0.  1.
          5   -1    0    0  501    0  0.00000000000E+00 -0.00000000000E+00 -0.20644464889E+03  0.20649814298E+03  0.47000000000E+01 0. -1.
          6    1    1    2  502    0 -0.81449851062E+00  0.13071442308E+03 -0.63838330460E+02  0.22526929717E+03  0.17200000000E+03 0. -1.
         -6    1    1    2    0  502  0.81449851062E+00 -0.13071442308E+03  0.12643915477E+03  0.25031536842E+03  0.17200000000E+03 0.  1.
</event>
<event>
 4    1 -0.6479440E-004  0.2045812E+03  0.7818608E-02  0.1145930E+00
          5   -1    0    0  501    0  0.00000000000E+00  0.00000000000E+00  0.15616153938E+02  0.16308104238E+02  0.47000000000E+01 0. -1.
         -5   -1    0    0    0  501 -0.00000000000E+00 -0.00000000000E+00 -0.26243193510E+04  0.26243235597E+04  0.47000000000E+01 0.  1.
          6    1    1    2  502    0  0.51921766438E+02  0.97844756350E+02 -0.12599734872E+04  0.12764743063E+04  0.17200000000E+03 0. -1.
         -6    1    1    2    0  502 -0.51921766438E+02 -0.97844756350E+02 -0.13487297098E+04  0.13641573576E+04  0.17200000000E+03 0. -1.
</event>
<event>
 4    1 -0.6479440E-004  0.2543840E+03  0.7818608E-02  0.1110565E+00
          5   -1    0    0  501    0  0.00000000000E+00  0.00000000000E+00  0.12096580880E+03  0.12105708116E+03  0.47000000000E+01 0. -1.
         -5   -1    0    0    0  501 -0.00000000000E+00 -0.00000000000E+00 -0.11292393686E+04  0.11292491495E+04  0.47000000000E+01 0.  1.
          6    1    1    2  502    0  0.18728300955E+03  0.72317879012E+01 -0.50528468593E+02  0.25935371708E+03  0.17200000000E+03 0. -1.
         -6    1    1    2    0  502 -0.18728300955E+03 -0.72317879012E+01 -0.95774509123E+03  0.99095251360E+03  0.17200000000E+03 0.  1.
</event>
<event>
 4    1 -0.6479440E-004  0.1969562E+03  0.7818608E-02  0.1152333E+00
          5   -1    0    0  501    0  0.00000000000E+00  0.00000000000E+00  0.26932350318E+03  0.26936451022E+03  0.47000000000E+01 0. -1.
         -5   -1    0    0    0  501 -0.00000000000E+00 -0.00000000000E+00 -0.34918337464E+03  0.34921500415E+03  0.47000000000E+01 0.  1.
          6    1    1    2  502    0  0.63547624151E+02 -0.71898844083E+02  0.19715843515E+03  0.27868116705E+03  0.17200000000E+03 0. -1.
         -6    1    1    2    0  502 -0.63547624151E+02  0.71898844083E+02 -0.27701830661E+03  0.33989834732E+03  0.17200000000E+03 0.  1.
</event>
<event>
 4    1 -0.6479440E-004  0.2143426E+03  0.7818608E-02  0.1138173E+00
          5   -1    0    0  501    0  0.00000000000E+00  0.00000000000E+00  0.88959819027E+03  0.88961060590E+03  0.47000000000E+01 0. -1.
         -5   -1    0    0    0  501 -0.00000000000E+00 -0.00000000000E+00 -0.24759644274E+03  0.24764104760E+03  0.47000000000E+01 0.  1.
          6    1    1    2  502    0 -0.12517286178E+03 -0.26277227548E+02  0.82686948752E+03  0.85419897413E+03  0.17200000000E+03 0. -1.
         -6    1    1    2    0  502  0.12517286178E+03  0.26277227548E+02 -0.18486773999E+03  0.28305267938E+03  0.17200000000E+03 0.  1.
</event>
<event>
 4    1 -0.6479440E-004  0.1995415E+03  0.7818608E-02  0.1150126E+00
          5   -1    0    0  501    0  0.00000000000E+00  0.00000000000E+00  0.97007389361E+03  0.97008527928E+03  0.47000000000E+01 0. -1.
         -5   -1    0    0    0  501 -0.00000000000E+00 -0.00000000000E+00 -0.29451868777E+03  0.29455618724E+03  0.47000000000E+01 0.  1.
          6    1    1    2  502    0 -0.94776401222E+02  0.35358748658E+02  0.92438985500E+03  0.94568145343E+03  0.17200000000E+03 0. -1.
         -6    1    1    2    0  502  0.94776401222E+02 -0.35358748658E+02 -0.24883464915E+03  0.31896001309E+03  0.17200000000E+03 0.  1.
</event>
<event>
 4    1 -0.6479440E-004  0.1807062E+03  0.7818608E-02  0.1167121E+00
         -5   -1    0    0    0  501 -0.00000000000E+00  0.00000000000E+00  0.15289980567E+03  0.15297202546E+03  0.47000000000E+01 0.  1.
          5   -1    0    0  501    0  0.00000000000E+00 -0.00000000000E+00 -0.42214775185E+03  0.42217391487E+03  0.47000000000E+01 0. -1.
          6    1    1    2  502    0  0.17315787844E+02 -0.52639401809E+02 -0.33680838307E+03  0.38222327250E+03  0.17200000000E+03 0. -1.
         -6    1    1    2    0  502 -0.17315787844E+02  0.52639401809E+02  0.67560436888E+02  0.19292266783E+03  0.17200000000E+03 0.  1.
</event>
<event>
 4    1 -0.6479440E-004  0.1856763E+03  0.7818608E-02  0.1162420E+00
          5   -1    0    0  501    0  0.00000000000E+00  0.00000000000E+00  0.60302112775E+03  0.60303944358E+03  0.47000000000E+01 0. -1.
         -5   -1    0    0    0  501 -0.00000000000E+00 -0.00000000000E+00 -0.18965894927E+03  0.18971717644E+03  0.47000000000E+01 0.  1.
          6    1    1    2  502    0 -0.46631619237E+02 -0.52126613813E+02  0.53799162094E+03  0.56913151027E+03  0.17200000000E+03 0. -1.
         -6    1    1    2    0  502  0.46631619237E+02  0.52126613813E+02 -0.12462944246E+03  0.22362510975E+03  0.17200000000E+03 0.  1.
</event>
<event>
 4    1 -0.6479440E-004  0.3042694E+03  0.7818608E-02  0.1083126E+00
          5   -1    0    0  501    0  0.00000000000E+00  0.00000000000E+00  0.46796103974E+03  0.46798464154E+03  0.47000000000E+01 0. -1.
         -5   -1    0    0    0  501 -0.00000000000E+00 -0.00000000000E+00 -0.32298802318E+03  0.32302221769E+03  0.47000000000E+01 0.  1.
          6    1    1    2  502    0  0.11698113200E+03  0.22206148588E+03  0.31870835676E+03  0.44063012314E+03  0.17200000000E+03 0. -1.
         -6    1    1    2    0  502 -0.11698113200E+03 -0.22206148588E+03 -0.17373534020E+03  0.35037673608E+03  0.17200000000E+03 0.  1.
</event>
<event>
 4    1 -0.6479440E-004  0.1876655E+03  0.7818608E-02  0.1160584E+00
          5   -1    0    0  501    0  0.00000000000E+00  0.00000000000E+00  0.16449149916E+03  0.16455863179E+03  0.47000000000E+01 0. -1.
         -5   -1    0    0    0  501 -0.00000000000E+00 -0.00000000000E+00 -0.29337316144E+03  0.29341080732E+03  0.47000000000E+01 0.  1.
          6    1    1    2  502    0  0.66314173976E+02  0.35167552516E+02  0.54666647699E+02  0.19546551816E+03  0.17200000000E+03 0. -1.
         -6    1    1    2    0  502 -0.66314173976E+02 -0.35167552516E+02 -0.18354830998E+03  0.26250392095E+03  0.17200000000E+03 0.  1.
</event>
<event>
 4    1 -0.6479440E-004  0.2089957E+03  0.7818608E-02  0.1142364E+00
          5   -1    0    0  501    0  0.00000000000E+00  0.00000000000E+00  0.13032780317E+04  0.13032865064E+04  0.47000000000E+01 0. -1.
         -5   -1    0    0    0  501 -0.00000000000E+00 -0.00000000000E+00 -0.49507471651E+02  0.49730068864E+02  0.47000000000E+01 0.  1.
          6    1    1    2  502    0 -0.11586290803E+03 -0.25903346490E+02  0.10123585424E+04  0.10337064454E+04  0.17200000000E+03 0. -1.
         -6    1    1    2    0  502  0.11586290803E+03  0.25903346490E+02  0.24141201758E+03  0.31931012989E+03  0.17200000000E+03 0.  1.
</event>
<event>
 4    1 -0.6479440E-004  0.2235619E+03  0.7818608E-02  0.1131255E+00
          5   -1    0    0  501    0  0.00000000000E+00  0.00000000000E+00  0.29792505275E+03  0.29796212353E+03  0.47000000000E+01 0. -1.
         -5   -1    0    0    0  501 -0.00000000000E+00 -0.00000000000E+00 -0.37242618826E+03  0.37245584396E+03  0.47000000000E+01 0.  1.
          6    1    1    2  502    0  0.40733152933E+02 -0.13688215641E+03  0.21126547854E+03  0.30759229007E+03  0.17200000000E+03 0. -1.
         -6    1    1    2    0  502 -0.40733152933E+02  0.13688215641E+03 -0.28576661404E+03  0.36282567742E+03  0.17200000000E+03 0.  1.
</event>
<event>
 4    1 -0.6479440E-004  0.1932519E+03  0.7818608E-02  0.1155561E+00
         -5   -1    0    0    0  501 -0.00000000000E+00  0.00000000000E+00  0.11482524308E+03  0.11492139247E+03  0.47000000000E+01 0.  1.
          5   -1    0    0  501    0  0.00000000000E+00 -0.00000000000E+00 -0.10885878088E+04  0.10885979549E+04  0.47000000000E+01 0. -1.
          6    1    1    2  502    0  0.21195909948E+02  0.85516332170E+02 -0.99084414860E+03  0.10095139605E+04  0.17200000000E+03 0. -1.
         -6    1    1    2    0  502 -0.21195909948E+02 -0.85516332170E+02  0.17081582873E+02  0.19400538688E+03  0.17200000000E+03 0.  1.
</event>
<event>
 4    1 -0.6479440E-004  0.3218533E+03  0.7818608E-02  0.1074800E+00
         -5   -1    0    0    0  501 -0.00000000000E+00  0.00000000000E+00  0.59630112171E+03  0.59631964394E+03  0.47000000000E+01 0.  1.
          5   -1    0    0  501    0  0.00000000000E+00 -0.00000000000E+00 -0.33952411251E+03  0.33955664178E+03  0.47000000000E+01 0. -1.
          6    1    1    2  502    0  0.26961370425E+03 -0.36249220822E+02 -0.19863378212E+03  0.37821281698E+03  0.17200000000E+03 0. -1.
         -6    1    1    2    0  502 -0.26961370425E+03  0.36249220822E+02  0.45541079132E+03  0.55766346875E+03  0.17200000000E+03 0. -1.
</event>
<event>
 4    1 -0.6479440E-004  0.2264084E+03  0.7818608E-02  0.1129194E+00
         -5   -1    0    0    0  501 -0.00000000000E+00  0.00000000000E+00  0.22476436353E+03  0.22481349851E+03  0.47000000000E+01 0.  1.
          5   -1    0    0  501    0  0.00000000000E+00 -0.00000000000E+00 -0.25826184842E+03  0.25830461155E+03  0.47000000000E+01 0. -1.
          6    1    1    2  502    0 -0.76676545611E+02  0.12568805312E+03 -0.99467373582E+02  0.24729443534E+03  0.17200000000E+03 0.  1.
         -6    1    1    2    0  502  0.76676545611E+02 -0.12568805312E+03  0.65969888691E+02  0.23582367472E+03  0.17200000000E+03 0.  1.
</event>
<event>
 4    1 -0.6479440E-004  0.1754143E+03  0.7818608E-02  0.1172316E+00
         -5   -1    0    0    0  501 -0.00000000000E+00  0.00000000000E+00  0.66695090253E+03  0.66696746276E+03  0.47000000000E+01 0.  1.
          5   -1    0    0  501    0  0.00000000000E+00 -0.00000000000E+00 -0.12207367715E+03  0.12216412179E+03  0.47000000000E+01 0. -1.
          6    1    1    2  502    0  0.64635237720E+01 -0.33828953373E+02 -0.38809407672E+02  0.17965618651E+03  0.17200000000E+03 0. -1.
         -6    1    1    2    0  502 -0.64635237720E+01  0.33828953373E+02  0.58368663305E+03  0.60947539805E+03  0.17200000000E+03 0.  1.
</event>
<event>
 4    1 -0.6479440E-004  0.1804802E+03  0.7818608E-02  0.1167339E+00
          5   -1    0    0  501    0  0.00000000000E+00  0.00000000000E+00  0.15052566665E+04  0.15052640041E+04  0.47000000000E+01 0. -1.
         -5   -1    0    0    0  501 -0.00000000000E+00 -0.00000000000E+00 -0.86125263585E+02  0.86253411686E+02  0.47000000000E+01 0.  1.
          6    1    1    2  502    0  0.40350910936E+02  0.36890296936E+02  0.13982312892E+04  0.14098311346E+04  0.17200000000E+03 0. -1.
         -6    1    1    2    0  502 -0.40350910936E+02 -0.36890296936E+02  0.20900113738E+02  0.18168628120E+03  0.17200000000E+03 0.  1.
</event>
<event>
 4    1 -0.6479440E-004  0.1951586E+03  0.7818608E-02  0.1153889E+00
          5   -1    0    0  501    0  0.00000000000E+00  0.00000000000E+00  0.16157042592E+03  0.16163877174E+03  0.47000000000E+01 0. -1.
         -5   -1    0    0    0  501 -0.00000000000E+00 -0.00000000000E+00 -0.55859826545E+03  0.55861803781E+03  0.47000000000E+01 0.  1.
          6    1    1    2  502    0  0.82957925295E+02 -0.40259750261E+02  0.75313244267E+02  0.20918639923E+03  0.17200000000E+03 0. -1.
         -6    1    1    2    0  502 -0.82957925295E+02  0.40259750261E+02 -0.47234108380E+03  0.51107041032E+03  0.17200000000E+03 0.  1.
</event>
<event>
 4    1 -0.6479440E-004  0.1995005E+03  0.7818608E-02  0.1150161E+00
         -5   -1    0    0    0  501 -0.00000000000E+00  0.00000000000E+00  0.12813918176E+04  0.12814004371E+04  0.47000000000E+01 0.  1.
          5   -1    0    0  501    0  0.00000000000E+00 -0.00000000000E+00 -0.36368493613E+02  0.36670933009E+02  0.47000000000E+01 0. -1.
          6    1    1    2  502    0 -0.10056395802E+03  0.10165095117E+02  0.36752764016E+03  0.41818298040E+03  0.17200000000E+03 0. -1.
         -6    1    1    2    0  502  0.10056395802E+03 -0.10165095117E+02  0.87749568382E+03  0.89988838971E+03  0.17200000000E+03 0. -1.
</event>
<event>
 4    1 -0.6479440E-004  0.1728712E+03  0.7818608E-02  0.1174886E+00
         -5   -1    0    0    0  501 -0.00000000000E+00  0.00000000000E+00  0.25963977853E+03  0.25968231475E+03  0.47000000000E+01 0.  1.
          5   -1    0    0  501    0  0.00000000000E+00 -0.00000000000E+00 -0.23027639832E+03  0.23032435742E+03  0.47000000000E+01 0. -1.
          6    1    1    2  502    0  0.10124526176E+02  0.14069062619E+02 -0.15862292656E+03  0.23461815229E+03  0.17200000000E+03 0. -1.
         -6    1    1    2    0  502 -0.10124526176E+02 -0.14069062619E+02  0.18798630677E+03  0.25538851988E+03  0.17200000000E+03 0.  1.
</event>
<event>
 4    1 -0.6479440E-004  0.3154207E+03  0.7818608E-02  0.1077776E+00
         -5   -1    0    0    0  501 -0.00000000000E+00  0.00000000000E+00  0.34779454729E+03  0.34782630310E+03  0.47000000000E+01 0.  1.
          5   -1    0    0  501    0  0.00000000000E+00 -0.00000000000E+00 -0.41719194793E+03  0.41721842172E+03  0.47000000000E+01 0. -1.
          6    1    1    2  502    0  0.59865252459E+02  0.25753124624E+03 -0.24919283646E+03  0.40197917979E+03  0.17200000000E+03 0. -1.
         -6    1    1    2    0  502 -0.59865252459E+02 -0.25753124624E+03  0.17979543583E+03  0.36306554502E+03  0.17200000000E+03 0.  1.
</event>
<event>
 4    1 -0.6479440E-004  0.2214618E+03  0.7818608E-02  0.1132798E+00
          5   -1    0    0  501    0  0.00000000000E+00  0.00000000000E+00  0.30180926229E+03  0.30184585604E+03  0.47000000000E+01 0. -1.
         -5   -1    0    0    0  501 -0.00000000000E+00 -0.00000000000E+00 -0.42047955739E+03  0.42050582419E+03  0.47000000000E+01 0.  1.
          6    1    1    2  502    0 -0.11840761631E+03 -0.73762937766E+02  0.22358224837E+03  0.31469724558E+03  0.17200000000E+03 0. -1.
         -6    1    1    2    0  502  0.11840761631E+03  0.73762937766E+02 -0.34225254346E+03  0.40765443465E+03  0.17200000000E+03 0.  1.
</event>
<event>
 4    1 -0.6479440E-004  0.1809179E+03  0.7818608E-02  0.1166918E+00
          5   -1    0    0  501    0  0.00000000000E+00  0.00000000000E+00  0.38823944522E+03  0.38826789311E+03  0.47000000000E+01 0. -1.
         -5   -1    0    0    0  501 -0.00000000000E+00 -0.00000000000E+00 -0.21586634773E+03  0.21591750758E+03  0.47000000000E+01 0.  1.
          6    1    1    2  502    0 -0.89158119203E+01 -0.55387716979E+02  0.32204344504E+03  0.36938228353E+03  0.17200000000E+03 0. -1.
         -6    1    1    2    0  502  0.89158119203E+01  0.55387716979E+02 -0.14967034755E+03  0.23480311716E+03  0.17200000000E+03 0.  1.
</event>
<event>
 4    1 -0.6479440E-004  0.1927819E+03  0.7818608E-02  0.1155976E+00
          5   -1    0    0  501    0  0.00000000000E+00  0.00000000000E+00  0.53257811177E+02  0.53464796374E+02  0.47000000000E+01 0. -1.
         -5   -1    0    0    0  501 -0.00000000000E+00 -0.00000000000E+00 -0.95683192687E+03  0.95684347010E+03  0.47000000000E+01 0.  1.
          6    1    1    2  502    0 -0.39295042815E+02  0.77696572066E+02 -0.18820304155E+03  0.26941648530E+03  0.17200000000E+03 0. -1.
         -6    1    1    2    0  502  0.39295042815E+02 -0.77696572066E+02 -0.71537107414E+03  0.74089178118E+03  0.17200000000E+03 0.  1.
</event>
<event>
 4    1 -0.6479440E-004  0.1730257E+03  0.7818608E-02  0.1174729E+00
          5   -1    0    0  501    0  0.00000000000E+00  0.00000000000E+00  0.52292370735E+03  0.52294482855E+03  0.47000000000E+01 0. -1.
         -5   -1    0    0    0  501 -0.00000000000E+00 -0.00000000000E+00 -0.17229215668E+03  0.17235625099E+03  0.47000000000E+01 0.  1.
          6    1    1    2  502    0 -0.17282956447E+02  0.74286365126E+01  0.45941651419E+03  0.49091895333E+03  0.17200000000E+03 0. -1.
         -6    1    1    2    0  502  0.17282956447E+02 -0.74286365126E+01 -0.10878496353E+03  0.20438212621E+03  0.17200000000E+03 0.  1.
</event>
<event>
 4    1 -0.6479440E-004  0.1829558E+03  0.7818608E-02  0.1164973E+00
         -5   -1    0    0    0  501 -0.00000000000E+00  0.00000000000E+00  0.21947899456E+04  0.21947949780E+04  0.47000000000E+01 0.  1.
          5   -1    0    0  501    0  0.00000000000E+00 -0.00000000000E+00 -0.16307843754E+02  0.16971616538E+02  0.47000000000E+01 0. -1.
          6    1    1    2  502    0 -0.60485212030E+02  0.15177413885E+02  0.76923185283E+03  0.79068986219E+03  0.17200000000E+03 0. -1.
         -6    1    1    2    0  502  0.60485212030E+02 -0.15177413885E+02  0.14092502491E+04  0.14210767324E+04  0.17200000000E+03 0.  1.
</event>
<event>
 4    1 -0.6479440E-004  0.2124595E+03  0.7818608E-02  0.1139633E+00
         -5   -1    0    0    0  501 -0.00000000000E+00  0.00000000000E+00  0.28874838843E+03  0.28878663720E+03  0.47000000000E+01 0.  1.
          5   -1    0    0  501    0  0.00000000000E+00 -0.00000000000E+00 -0.18127981676E+03  0.18134073443E+03  0.47000000000E+01 0. -1.
          6    1    1    2  502    0  0.68241647245E+02  0.10439405654E+03 -0.33598858601E+02  0.21509980186E+03  0.17200000000E+03 0. -1.
         -6    1    1    2    0  502 -0.68241647245E+02 -0.10439405654E+03  0.14106743027E+03  0.25502756977E+03  0.17200000000E+03 0.  1.
</event>
<event>
 4    1 -0.6479440E-004  0.1954574E+03  0.7818608E-02  0.1153629E+00
         -5   -1    0    0    0  501 -0.00000000000E+00  0.00000000000E+00  0.32401425036E+03  0.32404833657E+03  0.47000000000E+01 0.  1.
          5   -1    0    0  501    0  0.00000000000E+00 -0.00000000000E+00 -0.64139262988E+03  0.64140984999E+03  0.47000000000E+01 0. -1.
          6    1    1    2  502    0 -0.46886638575E+02  0.80132553639E+02 -0.59480281639E+03  0.62609422088E+03  0.17200000000E+03 0. -1.
         -6    1    1    2    0  502  0.46886638575E+02 -0.80132553639E+02  0.27742443687E+03  0.33936396568E+03  0.17200000000E+03 0.  1.
</event>
<event>
 4    1 -0.6479440E-004  0.2009645E+03  0.7818608E-02  0.1148928E+00
          5   -1    0    0  501    0  0.00000000000E+00  0.00000000000E+00  0.31865015988E+03  0.31868481984E+03  0.47000000000E+01 0. -1.
         -5   -1    0    0    0  501 -0.00000000000E+00 -0.00000000000E+00 -0.23769717832E+03  0.23774364047E+03  0.47000000000E+01 0.  1.
          6    1    1    2  502    0  0.80062755638E+01 -0.10362743975E+03  0.23058983554E+03  0.30587320734E+03  0.17200000000E+03 0. -1.
         -6    1    1    2    0  502 -0.80062755638E+01  0.10362743975E+03 -0.14963685398E+03  0.25055525296E+03  0.17200000000E+03 0.  1.
</event>
<event>
 4    1 -0.6479440E-004  0.2654377E+03  0.7818608E-02  0.1103919E+00
         -5   -1    0    0    0  501 -0.00000000000E+00  0.00000000000E+00  0.32849156567E+03  0.32852518734E+03  0.47000000000E+01 0.  1.
          5   -1    0    0  501    0  0.00000000000E+00 -0.00000000000E+00 -0.72139333078E+03  0.72140864127E+03  0.47000000000E+01 0. -1.
          6    1    1    2  502    0  0.18673124230E+03 -0.77489614747E+02 -0.63651874392E+03  0.68964723490E+03  0.17200000000E+03 0. -1.
         -6    1    1    2    0  502 -0.18673124230E+03  0.77489614747E+02  0.24361697881E+03  0.36028659371E+03  0.17200000000E+03 0.  1.
</event>
<event>
 4    1 -0.6479440E-004  0.2953506E+03  0.7818608E-02  0.1087588E+00
         -5   -1    0    0    0  501 -0.00000000000E+00  0.00000000000E+00  0.59221250082E+03  0.59223115093E+03  0.47000000000E+01 0.  1.
          5   -1    0    0  501    0  0.00000000000E+00 -0.00000000000E+00 -0.24760321030E+03  0.24764781394E+03  0.47000000000E+01 0. -1.
          6    1    1    2  502    0 -0.19694083055E+03  0.13734013466E+03 -0.95012625212E+02  0.31025699392E+03  0.17200000000E+03 0. -1.
         -6    1    1    2    0  502  0.19694083055E+03 -0.13734013466E+03  0.43962191574E+03  0.52962197096E+03  0.17200000000E+03 0.  1.
</event>
<event>
 4    1 -0.6479440E-004  0.1737656E+03  0.7818608E-02  0.1173977E+00
         -5   -1    0    0    0  501 -0.00000000000E+00  0.00000000000E+00  0.59729686027E+03  0.59731535163E+03  0.47000000000E+01 0.  1.
          5   -1    0    0  501    0  0.00000000000E+00 -0.00000000000E+00 -0.20661053314E+03  0.20666398429E+03  0.47000000000E+01 0. -1.
          6    1    1    2  502    0 -0.71907144428E+01  0.23638462479E+02 -0.15403765512E+03  0.23221128844E+03  0.17200000000E+03 0. -1.
         -6    1    1    2    0  502  0.71907144428E+01 -0.23638462479E+02  0.54472398226E+03  0.57176804749E+03  0.17200000000E+03 0.  1.
</event>
<event>
 4    1 -0.6479440E-004  0.2607904E+03  0.7818608E-02  0.1106669E+00
         -5   -1    0    0    0  501 -0.00000000000E+00  0.00000000000E+00  0.10001508545E+04  0.10001618978E+04  0.47000000000E+01 0.  1.
          5   -1    0    0  501    0  0.00000000000E+00 -0.00000000000E+00 -0.69364776562E+02  0.69523824891E+02  0.47000000000E+01 0. -1.
          6    1    1    2  502    0  0.44602273556E+02  0.19088808501E+03  0.54278725189E+03  0.60218736671E+03  0.17200000000E+03 0. -1.
         -6    1    1    2    0  502 -0.44602273556E+02 -0.19088808501E+03  0.38799882604E+03  0.46749835595E+03  0.17200000000E+03 0.  1.
</event>
<event>
 4    1 -0.6479440E-004  0.1805299E+03  0.7818608E-02  0.1167291E+00
         -5   -1    0    0    0  501 -0.00000000000E+00  0.00000000000E+00  0.62476899554E+02  0.62653435484E+02  0.47000000000E+01 0.  1.
          5   -1    0    0  501    0  0.00000000000E+00 -0.00000000000E+00 -0.52076127475E+03  0.52078248365E+03  0.47000000000E+01 0. -1.
          6    1    1    2  502    0  0.50158678304E+02  0.22162215961E+02 -0.22676246441E+03  0.28984870552E+03  0.17200000000E+03 0.  1.
         -6    1    1    2    0  502 -0.50158678304E+02 -0.22162215961E+02 -0.23152191079E+03  0.29358721362E+03  0.17200000000E+03 0.  1.
</event>
<event>
 4    1 -0.6479440E-004  0.2004830E+03  0.7818608E-02  0.1149332E+00
         -5   -1    0    0    0  501 -0.00000000000E+00  0.00000000000E+00  0.58499731533E+03  0.58501619546E+03  0.47000000000E+01 0.  1.
          5   -1    0    0  501    0  0.00000000000E+00 -0.00000000000E+00 -0.12452485142E+03  0.12461351701E+03  0.47000000000E+01 0. -1.
          6    1    1    2  502    0  0.10295033397E+03  0.32660487306E+01 -0.73930940518E+01  0.20061928167E+03  0.17200000000E+03 0. -1.
         -6    1    1    2    0  502 -0.10295033397E+03 -0.32660487306E+01  0.46786555796E+03  0.50901043080E+03  0.17200000000E+03 0.  1.
</event>
<event>
 4    1 -0.6479440E-004  0.2068039E+03  0.7818608E-02  0.1144122E+00
         -5   -1    0    0    0  501 -0.00000000000E+00  0.00000000000E+00  0.30266367368E+03  0.30270016413E+03  0.47000000000E+01 0.  1.
          5   -1    0    0  501    0  0.00000000000E+00 -0.00000000000E+00 -0.18140510325E+03  0.18146597887E+03  0.47000000000E+01 0. -1.
          6    1    1    2  502    0 -0.11454002342E+03 -0.80275306183E+01 -0.53275262547E+02  0.21355587515E+03  0.17200000000E+03 0. -1.
         -6    1    1    2    0  502  0.11454002342E+03  0.80275306183E+01  0.17453383297E+03  0.27061026785E+03  0.17200000000E+03 0.  1.
</event>
<event>
 4    1 -0.6479440E-004  0.2088301E+03  0.7818608E-02  0.1142496E+00
          5   -1    0    0  501    0  0.00000000000E+00  0.00000000000E+00  0.25068495621E+03  0.25072901163E+03  0.47000000000E+01 0. -1.
         -5   -1    0    0    0  501 -0.00000000000E+00 -0.00000000000E+00 -0.23274299646E+03  0.23279044740E+03  0.47000000000E+01 0.  1.
          6    1    1    2  502    0 -0.11085000642E+03  0.41692957527E+02  0.13053417101E+03  0.24627057565E+03  0.17200000000E+03 0. -1.
         -6    1    1    2    0  502  0.11085000642E+03 -0.41692957527E+02 -0.11259221126E+03  0.23724888338E+03  0.17200000000E+03 0.  1.
</event>
<event>
 4    1 -0.6479440E-004  0.1770623E+03  0.7818608E-02  0.1170677E+00
          5   -1    0    0  501    0  0.00000000000E+00  0.00000000000E+00  0.13434317854E+03  0.13442536822E+03  0.47000000000E+01 0. -1.
         -5   -1    0    0    0  501 -0.00000000000E+00 -0.00000000000E+00 -0.59645603101E+03  0.59647454844E+03  0.47000000000E+01 0.  1.
          6    1    1    2  502    0 -0.78199451176E+01  0.41302573872E+02  0.54117791644E+02  0.18514802057E+03  0.17200000000E+03 0. -1.
         -6    1    1    2    0  502  0.78199451176E+01 -0.41302573872E+02 -0.51623064412E+03  0.54575189608E+03  0.17200000000E+03 0.  1.
</event>
<event>
 4    1 -0.6479440E-004  0.4094237E+03  0.7818608E-02  0.1040565E+00
          5   -1    0    0  501    0  0.00000000000E+00  0.00000000000E+00  0.13597742157E+04  0.13597823383E+04  0.47000000000E+01 0. -1.
         -5   -1    0    0    0  501 -0.00000000000E+00 -0.00000000000E+00 -0.14008219039E+03  0.14016101478E+03  0.47000000000E+01 0.  1.
          6    1    1    2  502    0 -0.18846683540E+03 -0.32019367861E+03  0.86994005375E+03  0.96146941552E+03  0.17200000000E+03 0. -1.
         -6    1    1    2    0  502  0.18846683540E+03  0.32019367861E+03  0.34975197154E+03  0.53847393759E+03  0.17200000000E+03 0. -1.
</event>
<event>
 4    1 -0.6479440E-004  0.1744994E+03  0.7818608E-02  0.1173235E+00
          5   -1    0    0  501    0  0.00000000000E+00  0.00000000000E+00  0.34179868551E+03  0.34183099833E+03  0.47000000000E+01 0. -1.
         -5   -1    0    0    0  501 -0.00000000000E+00 -0.00000000000E+00 -0.26854002850E+03  0.26858115516E+03  0.47000000000E+01 0.  1.
          6    1    1    2  502    0  0.34126839895E+01  0.29230176090E+02  0.28614024853E+03  0.33515114715E+03  0.17200000000E+03 0. -1.
         -6    1    1    2    0  502 -0.34126839895E+01 -0.29230176090E+02 -0.21288159152E+03  0.27526100635E+03  0.17200000000E+03 0.  1.
</event>
<event>
 4    1 -0.6479440E-004  0.1967001E+03  0.7818608E-02  0.1152553E+00
         -5   -1    0    0    0  501 -0.00000000000E+00  0.00000000000E+00  0.14278085623E+03  0.14285819159E+03  0.47000000000E+01 0.  1.
          5   -1    0    0  501    0  0.00000000000E+00 -0.00000000000E+00 -0.45863646076E+03  0.45866054238E+03  0.47000000000E+01 0. -1.
          6    1    1    2  502    0 -0.48056030089E+02  0.82447153895E+02 -0.35037485977E+03  0.40181271455E+03  0.17200000000E+03 0. -1.
         -6    1    1    2    0  502  0.48056030089E+02 -0.82447153895E+02  0.34519255236E+02  0.19970601943E+03  0.17200000000E+03 0.  1.
</event>
<event>
 4    1 -0.6479440E-004  0.1886358E+03  0.7818608E-02  0.1159698E+00
          5   -1    0    0  501    0  0.00000000000E+00  0.00000000000E+00  0.78107187639E+03  0.78108601709E+03  0.47000000000E+01 0. -1.
         -5   -1    0    0    0  501 -0.00000000000E+00 -0.00000000000E+00 -0.80984584739E+02  0.81120854072E+02  0.47000000000E+01 0.  1.
          6    1    1    2  502    0  0.38930564238E+02  0.66961824798E+02  0.63536572294E+03  0.66277679251E+03  0.17200000000E+03 0. -1.
         -6    1    1    2    0  502 -0.38930564238E+02 -0.66961824798E+02  0.64721568719E+02  0.19943007865E+03  0.17200000000E+03 0.  1.
</event>
<event>
 4    1 -0.6479440E-004  0.2039351E+03  0.7818608E-02  0.1146461E+00
         -5   -1    0    0    0  501 -0.00000000000E+00  0.00000000000E+00  0.20144909706E+03  0.20150391735E+03  0.47000000000E+01 0.  1.
          5   -1    0    0  501    0  0.00000000000E+00 -0.00000000000E+00 -0.31254398578E+03  0.31257932281E+03  0.47000000000E+01 0. -1.
          6    1    1    2  502    0 -0.34818818144E+02  0.10389027204E+03 -0.20535884976E+03  0.28941630206E+03  0.17200000000E+03 0. -1.
         -6    1    1    2    0  502  0.34818818144E+02 -0.10389027204E+03  0.94263961047E+02  0.22466693810E+03  0.17200000000E+03 0.  1.
</event>
<event>
 4    1 -0.6479440E-004  0.3400029E+03  0.7818608E-02  0.1066795E+00
         -5   -1    0    0    0  501 -0.00000000000E+00  0.00000000000E+00  0.20663633829E+04  0.20663687281E+04  0.47000000000E+01 0.  1.
          5   -1    0    0  501    0  0.00000000000E+00 -0.00000000000E+00 -0.83171956340E+02  0.83304647658E+02  0.47000000000E+01 0. -1.
          6    1    1    2  502    0  0.29213063539E+03  0.26032593371E+02  0.37607772784E+03  0.50698763439E+03  0.17200000000E+03 0. -1.
         -6    1    1    2    0  502 -0.29213063539E+03 -0.26032593371E+02  0.16071136987E+04  0.16426857413E+04  0.17200000000E+03 0.  1.
</event>
<event>
 4    1 -0.6479440E-004  0.1966141E+03  0.7818608E-02  0.1152628E+00
         -5   -1    0    0    0  501 -0.00000000000E+00  0.00000000000E+00  0.15355031645E+03  0.15362223043E+03  0.47000000000E+01 0.  1.
          5   -1    0    0  501    0  0.00000000000E+00 -0.00000000000E+00 -0.64033422255E+03  0.64035147112E+03  0.47000000000E+01 0. -1.
          6    1    1    2  502    0 -0.88790754475E+02  0.34486442032E+02 -0.55267988936E+03  0.58661075073E+03  0.17200000000E+03 0. -1.
         -6    1    1    2    0  502  0.88790754475E+02 -0.34486442032E+02  0.65895983258E+02  0.20736295082E+03  0.17200000000E+03 0.  1.
</event>
<event>
 4    1 -0.6479440E-004  0.2242970E+03  0.7818608E-02  0.1130719E+00
         -5   -1    0    0    0  501 -0.00000000000E+00  0.00000000000E+00  0.91050623848E+03  0.91051836901E+03  0.47000000000E+01 0.  1.
          5   -1    0    0  501    0  0.00000000000E+00 -0.00000000000E+00 -0.26765068346E+03  0.26769194676E+03  0.47000000000E+01 0. -1.
          6    1    1    2  502    0  0.25077036533E+02 -0.14176137271E+03 -0.20336731539E+03  0.30276626219E+03  0.17200000000E+03 0. -1.
         -6    1    1    2    0  502 -0.25077036533E+02  0.14176137271E+03  0.84622287040E+03  0.87544405358E+03  0.17200000000E+03 0.  1.
</event>
<event>
 4    1 -0.6479440E-004  0.1800394E+03  0.7818608E-02  0.1167765E+00
         -5   -1    0    0    0  501 -0.00000000000E+00  0.00000000000E+00  0.12555531329E+03  0.12564325169E+03  0.47000000000E+01 0.  1.
          5   -1    0    0  501    0  0.00000000000E+00 -0.00000000000E+00 -0.45888303547E+03  0.45890710415E+03  0.47000000000E+01 0. -1.
          6    1    1    2  502    0 -0.36371626867E+02  0.38823843823E+02 -0.36003468804E+03  0.40254088324E+03  0.17200000000E+03 0. -1.
         -6    1    1    2    0  502  0.36371626867E+02 -0.38823843823E+02  0.26706965862E+02  0.18200947260E+03  0.17200000000E+03 0.  1.
</event>
<event>
 4    1 -0.6479440E-004  0.1821519E+03  0.7818608E-02  0.1165737E+00
          5   -1    0    0  501    0  0.00000000000E+00  0.00000000000E+00  0.70000661562E+03  0.70002239386E+03  0.47000000000E+01 0. -1.
         -5   -1    0    0    0  501 -0.00000000000E+00 -0.00000000000E+00 -0.93934031549E+02  0.94051540567E+02  0.47000000000E+01 0.  1.
          6    1    1    2  502    0 -0.39160548648E+02  0.45406745978E+02  0.58260540772E+03  0.61041656453E+03  0.17200000000E+03 0. -1.
         -6    1    1    2    0  502  0.39160548648E+02 -0.45406745978E+02  0.23467176346E+02  0.18365736989E+03  0.17200000000E+03 0.  1.
</event>
<event>
 4    1 -0.6479440E-004  0.2292330E+03  0.7818608E-02  0.1127181E+00
         -5   -1    0    0    0  501 -0.00000000000E+00  0.00000000000E+00  0.54954776919E+03  0.54956786716E+03  0.47000000000E+01 0.  1.
          5   -1    0    0  501    0  0.00000000000E+00 -0.00000000000E+00 -0.14357167590E+03  0.14364858551E+03  0.47000000000E+01 0. -1.
          6    1    1    2  502    0  0.15122038401E+03  0.98064790600E+01  0.25913200394E+01  0.22924765323E+03  0.17200000000E+03 0. -1.
         -6    1    1    2    0  502 -0.15122038401E+03 -0.98064790600E+01  0.40338477325E+03  0.46396879945E+03  0.17200000000E+03 0.  1.
</event>
<event>
 4    1 -0.6479440E-004  0.2058711E+03  0.7818608E-02  0.1144878E+00
         -5   -1    0    0    0  501 -0.00000000000E+00  0.00000000000E+00  0.62140135001E+03  0.62141912410E+03  0.47000000000E+01 0.  1.
          5   -1    0    0  501    0  0.00000000000E+00 -0.00000000000E+00 -0.19986185446E+03  0.19991710999E+03  0.47000000000E+01 0. -1.
          6    1    1    2  502    0 -0.10382078454E+03  0.44946211011E+02 -0.12256016756E+03  0.23959113477E+03  0.17200000000E+03 0. -1.
         -6    1    1    2    0  502  0.10382078454E+03 -0.44946211011E+02  0.54409966311E+03  0.58174509932E+03  0.17200000000E+03 0.  1.
</event>
<event>
 4    1 -0.6479440E-004  0.3077221E+03  0.7818608E-02  0.1081443E+00
         -5   -1    0    0    0  501 -0.00000000000E+00  0.00000000000E+00  0.88453714980E+03  0.88454963647E+03  0.47000000000E+01 0.  1.
          5   -1    0    0  501    0  0.00000000000E+00 -0.00000000000E+00 -0.30121412922E+03  0.30125079525E+03  0.47000000000E+01 0. -1.
          6    1    1    2  502    0  0.12668393218E+03  0.22149502395E+03 -0.18437200842E+03  0.35872817257E+03  0.17200000000E+03 0. -1.
         -6    1    1    2    0  502 -0.12668393218E+03 -0.22149502395E+03  0.76769502900E+03  0.82707225915E+03  0.17200000000E+03 0.  1.
</event>
<event>
 4    1 -0.6479440E-004  0.1829125E+03  0.7818608E-02  0.1165014E+00
         -5   -1    0    0    0  501 -0.00000000000E+00  0.00000000000E+00  0.68038411386E+02  0.68200552959E+02  0.47000000000E+01 0.  1.
          5   -1    0    0  501    0  0.00000000000E+00 -0.00000000000E+00 -0.90356974060E+03  0.90358196426E+03  0.47000000000E+01 0. -1.
          6    1    1    2  502    0 -0.43476688572E+02  0.44528195743E+02 -0.74606903850E+03  0.76816404034E+03  0.17200000000E+03 0. -1.
         -6    1    1    2    0  502  0.43476688572E+02 -0.44528195743E+02 -0.89462290719E+02  0.20361847688E+03  0.17200000000E+03 0.  1.
</event>
<event>
 4    1 -0.6479440E-004  0.2316117E+03  0.7818608E-02  0.1125511E+00
         -5   -1    0    0    0  501 -0.00000000000E+00  0.00000000000E+00  0.56878418463E+03  0.56880360291E+03  0.47000000000E+01 0.  1.
          5   -1    0    0  501    0  0.00000000000E+00 -0.00000000000E+00 -0.15935814628E+03  0.15942744050E+03  0.47000000000E+01 0. -1.
          6    1    1    2  502    0 -0.13556390868E+03  0.75381677755E+02 -0.27973004776E+02  0.23329479135E+03  0.17200000000E+03 0. -1.
         -6    1    1    2    0  502  0.13556390868E+03 -0.75381677755E+02  0.43739904313E+03  0.49493625206E+03  0.17200000000E+03 0.  1.
</event>
<event>
 4    1 -0.6479440E-004  0.1847124E+03  0.7818608E-02  0.1163319E+00
          5   -1    0    0  501    0  0.00000000000E+00  0.00000000000E+00  0.19506714642E+03  0.19512375974E+03  0.47000000000E+01 0. -1.
         -5   -1    0    0    0  501 -0.00000000000E+00 -0.00000000000E+00 -0.19502354322E+03  0.19508016919E+03  0.47000000000E+01 0.  1.
          6    1    1    2  502    0  0.96421937205E+01 -0.66646000684E+02  0.62839910492E+02  0.19510898405E+03  0.17200000000E+03 0. -1.
         -6    1    1    2    0  502 -0.96421937205E+01  0.66646000684E+02 -0.62796307290E+02  0.19509494488E+03  0.17200000000E+03 0.  1.
</event>
<event>
 4    1 -0.6479440E-004  0.1822090E+03  0.7818608E-02  0.1165682E+00
         -5   -1    0    0    0  501 -0.00000000000E+00  0.00000000000E+00  0.47388133899E+02  0.47620638745E+02  0.47000000000E+01 0.  1.
          5   -1    0    0  501    0  0.00000000000E+00 -0.00000000000E+00 -0.85718683923E+03  0.85719972431E+03  0.47000000000E+01 0. -1.
          6    1    1    2  502    0  0.54307416780E+02 -0.25822707473E+02 -0.59943737038E+03  0.62651837064E+03  0.17200000000E+03 0. -1.
         -6    1    1    2    0  502 -0.54307416780E+02  0.25822707473E+02 -0.21036133495E+03  0.27830199241E+03  0.17200000000E+03 0.  1.
</event>
<event>
 4    1 -0.6479440E-004  0.2352454E+03  0.7818608E-02  0.1123001E+00
         -5   -1    0    0    0  501 -0.00000000000E+00  0.00000000000E+00  0.12647126682E+04  0.12647214014E+04  0.47000000000E+01 0.  1.
          5   -1    0    0  501    0  0.00000000000E+00 -0.00000000000E+00 -0.23080251090E+03  0.23085036071E+03  0.47000000000E+01 0. -1.
          6    1    1    2  502    0  0.85096783018E+02 -0.13606957555E+03 -0.15623494803E+03  0.28239998381E+03  0.17200000000E+03 0. -1.
         -6    1    1    2    0  502 -0.85096783018E+02  0.13606957555E+03  0.11901451054E+04  0.12131717783E+04  0.17200000000E+03 0.  1.
</event>
<event>
 4    1 -0.6479440E-004  0.2039381E+03  0.7818608E-02  0.1146458E+00
         -5   -1    0    0    0  501 -0.00000000000E+00  0.00000000000E+00  0.21779502114E+03  0.21784572806E+03  0.47000000000E+01 0.  1.
          5   -1    0    0  501    0  0.00000000000E+00 -0.00000000000E+00 -0.41112597335E+03  0.41115283771E+03  0.47000000000E+01 0. -1.
          6    1    1    2  502    0  0.56452708603E+02 -0.93913982269E+02 -0.32683925388E+03  0.38524620991E+03  0.17200000000E+03 0. -1.
         -6    1    1    2    0  502 -0.56452708603E+02  0.93913982269E+02  0.13350830167E+03  0.24375235587E+03  0.17200000000E+03 0.  1.
</event>
<event>
 4    1 -0.6479440E-004  0.4129986E+03  0.7818608E-02  0.1039369E+00
          5   -1    0    0  501    0  0.00000000000E+00  0.00000000000E+00  0.15727589906E+04  0.15727660133E+04  0.47000000000E+01 0. -1.
         -5   -1    0    0    0  501 -0.00000000000E+00 -0.00000000000E+00 -0.33443698809E+03  0.33447001212E+03  0.47000000000E+01 0.  1.
          6    1    1    2  502    0  0.60613953297E+02 -0.37055334741E+03  0.14030693321E+04  0.14625906417E+04  0.17200000000E+03 0. -1.
         -6    1    1    2    0  502 -0.60613953297E+02  0.37055334741E+03 -0.16474732958E+03  0.44464538367E+03  0.17200000000E+03 0.  1.
</event>
<event>
 4    1 -0.6479440E-004  0.1928583E+03  0.7818608E-02  0.1155908E+00
          5   -1    0    0  501    0  0.00000000000E+00  0.00000000000E+00  0.33251898619E+03  0.33255220068E+03  0.47000000000E+01 0. -1.
         -5   -1    0    0    0  501 -0.00000000000E+00 -0.00000000000E+00 -0.55839566596E+03  0.55841544549E+03  0.47000000000E+01 0.  1.
          6    1    1    2  502    0 -0.32546109767E+02  0.80938596214E+02  0.28544187774E+03  0.34448711324E+03  0.17200000000E+03 0. -1.
         -6    1    1    2    0  502  0.32546109767E+02 -0.80938596214E+02 -0.51131855751E+03  0.54648053293E+03  0.17200000000E+03 0.  1.
</event>
<event>
 4    1 -0.6479440E-004  0.1840576E+03  0.7818608E-02  0.1163933E+00
         -5   -1    0    0    0  501 -0.00000000000E+00  0.00000000000E+00  0.12083275644E+03  0.12092412922E+03  0.47000000000E+01 0.  1.
          5   -1    0    0  501    0  0.00000000000E+00 -0.00000000000E+00 -0.55005220291E+03  0.55007228246E+03  0.47000000000E+01 0. -1.
          6    1    1    2  502    0 -0.15317137129E+02 -0.63706904368E+02 -0.44959784398E+03  0.48581416783E+03  0.17200000000E+03 0. -1.
         -6    1    1    2    0  502  0.15317137129E+02  0.63706904368E+02  0.20378397503E+02  0.18518224385E+03  0.17200000000E+03 0.  1.
</event>
<event>
 4    1 -0.6479440E-004  0.2967667E+03  0.7818608E-02  0.1086868E+00
          5   -1    0    0  501    0  0.00000000000E+00  0.00000000000E+00  0.19720638560E+04  0.19720694567E+04  0.47000000000E+01 0. -1.
         -5   -1    0    0    0  501 -0.00000000000E+00 -0.00000000000E+00 -0.10761297257E+03  0.10771555999E+03  0.47000000000E+01 0.  1.
          6    1    1    2  502    0  0.12095516894E+03 -0.20941894600E+03  0.17277419995E+04  0.17530438856E+04  0.17200000000E+03 0. -1.
         -6    1    1    2    0  502 -0.12095516894E+03  0.20941894600E+03  0.13670888391E+03  0.32674113114E+03  0.17200000000E+03 0.  1.
</event>
<event>
 4    1 -0.6479440E-004  0.1769792E+03  0.7818608E-02  0.1170759E+00
         -5   -1    0    0    0  501 -0.00000000000E+00  0.00000000000E+00  0.21128318669E+03  0.21133545604E+03  0.47000000000E+01 0.  1.
          5   -1    0    0  501    0  0.00000000000E+00 -0.00000000000E+00 -0.39585233320E+03  0.39588023404E+03  0.47000000000E+01 0. -1.
          6    1    1    2  502    0 -0.12355659478E+02 -0.39811844900E+02 -0.33242544457E+03  0.37660101103E+03  0.17200000000E+03 0. -1.
         -6    1    1    2    0  502  0.12355659478E+02  0.39811844900E+02  0.14785629806E+03  0.23061467904E+03  0.17200000000E+03 0.  1.
</event>
<event>
 4    1 -0.6479440E-004  0.1758235E+03  0.7818608E-02  0.1171907E+00
         -5   -1    0    0    0  501 -0.00000000000E+00  0.00000000000E+00  0.35924270140E+03  0.35927344531E+03  0.47000000000E+01 0.  1.
          5   -1    0    0  501    0  0.00000000000E+00 -0.00000000000E+00 -0.85976823717E+02  0.86105192738E+02  0.47000000000E+01 0. -1.
          6    1    1    2  502    0  0.14422288383E+02  0.33494735460E+02  0.14023115011E+03  0.22489703237E+03  0.17200000000E+03 0.  1.
         -6    1    1    2    0  502 -0.14422288383E+02 -0.33494735460E+02  0.13303472757E+03  0.22048160568E+03  0.17200000000E+03 0. -1.
</event>
<event>
 4    1 -0.6479440E-004  0.2013221E+03  0.7818608E-02  0.1148628E+00
         -5   -1    0    0    0  501 -0.00000000000E+00  0.00000000000E+00  0.98358170145E+02  0.98470399787E+02  0.47000000000E+01 0.  1.
          5   -1    0    0  501    0  0.00000000000E+00 -0.00000000000E+00 -0.22780561665E+04  0.22780610150E+04  0.47000000000E+01 0. -1.
          6    1    1    2  502    0 -0.34462599693E+02  0.98787274365E+02 -0.21653607016E+04  0.21746994193E+04  0.17200000000E+03 0. -1.
         -6    1    1    2    0  502  0.34462599693E+02 -0.98787274365E+02 -0.14337294782E+02  0.20183199542E+03  0.17200000000E+03 0.  1.
</event>
<event>
 4    1 -0.6479440E-004  0.2552216E+03  0.7818608E-02  0.1110049E+00
         -5   -1    0    0    0  501 -0.00000000000E+00  0.00000000000E+00  0.72680002287E+03  0.72681521946E+03  0.47000000000E+01 0.  1.
          5   -1    0    0  501    0  0.00000000000E+00 -0.00000000000E+00 -0.24639549404E+03  0.24644031627E+03  0.47000000000E+01 0. -1.
          6    1    1    2  502    0 -0.12481250838E+03  0.14133605247E+03 -0.14797991876E+03  0.29501881013E+03  0.17200000000E+03 0. -1.
         -6    1    1    2    0  502  0.12481250838E+03 -0.14133605247E+03  0.62838444759E+03  0.67823672559E+03  0.17200000000E+03 0.  1.
</event>
<event>
 4    1 -0.6479440E-004  0.1985507E+03  0.7818608E-02  0.1150968E+00
         -5   -1    0    0    0  501 -0.00000000000E+00  0.00000000000E+00  0.23742916302E+03  0.23747567760E+03  0.47000000000E+01 0.  1.
          5   -1    0    0  501    0  0.00000000000E+00 -0.00000000000E+00 -0.18040999870E+03  0.18047120998E+03  0.47000000000E+01 0. -1.
          6    1    1    2  502    0 -0.63620275863E+00 -0.99186642377E+02 -0.30649942169E+02  0.20090249808E+03  0.17200000000E+03 0. -1.
         -6    1    1    2    0  502  0.63620275863E+00  0.99186642377E+02  0.87669106490E+02  0.21704438950E+03  0.17200000000E+03 0.  1.
</event>
<event>
 4    1 -0.6479440E-004  0.2615882E+03  0.7818608E-02  0.1106193E+00
         -5   -1    0    0    0  501 -0.00000000000E+00  0.00000000000E+00  0.19881431798E+04  0.19881487353E+04  0.47000000000E+01 0.  1.
          5   -1    0    0  501    0  0.00000000000E+00 -0.00000000000E+00 -0.42513683799E+03  0.42516281706E+03  0.47000000000E+01 0. -1.
          6    1    1    2  502    0 -0.16462160143E+03  0.10837021132E+03 -0.37527992669E+03  0.45745316452E+03  0.17200000000E+03 0. -1.
         -6    1    1    2    0  502  0.16462160143E+03 -0.10837021132E+03  0.19382862685E+04  0.19558583878E+04  0.17200000000E+03 0.  1.
</event>
<event>
 4    1 -0.6479440E-004  0.2161053E+03  0.7818608E-02  0.1136820E+00
         -5   -1    0    0    0  501 -0.00000000000E+00  0.00000000000E+00  0.17635622910E+04  0.17635685539E+04  0.47000000000E+01 0.  1.
          5   -1    0    0  501    0  0.00000000000E+00 -0.00000000000E+00 -0.30664915355E+02  0.31023008135E+02  0.47000000000E+01 0. -1.
          6    1    1    2  502    0 -0.12813000267E+03  0.26461498671E+02  0.52877777476E+03  0.57123326547E+03  0.17200000000E+03 0.  1.
         -6    1    1    2    0  502  0.12813000267E+03 -0.26461498671E+02  0.12041196009E+04  0.12233582965E+04  0.17200000000E+03 0.  1.
</event>
<event>
 4    1 -0.6479440E-004  0.1948840E+03  0.7818608E-02  0.1154129E+00
         -5   -1    0    0    0  501 -0.00000000000E+00  0.00000000000E+00  0.25181239272E+03  0.25185625092E+03  0.47000000000E+01 0.  1.
          5   -1    0    0  501    0  0.00000000000E+00 -0.00000000000E+00 -0.15847051651E+03  0.15854019869E+03  0.47000000000E+01 0. -1.
          6    1    1    2  502    0 -0.21309331438E+02  0.89116076256E+02  0.13425719696E+01  0.19488859678E+03  0.17200000000E+03 0. -1.
         -6    1    1    2    0  502  0.21309331438E+02 -0.89116076256E+02  0.91999304247E+02  0.21550785284E+03  0.17200000000E+03 0.  1.
</event>
<event>
 4    1 -0.6479440E-004  0.1731668E+03  0.7818608E-02  0.1174585E+00
         -5   -1    0    0    0  501 -0.00000000000E+00  0.00000000000E+00  0.21310322200E+03  0.21315504505E+03  0.47000000000E+01 0.  1.
          5   -1    0    0  501    0  0.00000000000E+00 -0.00000000000E+00 -0.14652947551E+03  0.14660483346E+03  0.47000000000E+01 0. -1.
          6    1    1    2  502    0 -0.18827989776E+02  0.69457445927E+01 -0.28626680524E+01  0.17319044845E+03  0.17200000000E+03 0. -1.
         -6    1    1    2    0  502  0.18827989776E+02 -0.69457445927E+01  0.69436414542E+02  0.18656943006E+03  0.17200000000E+03 0.  1.
</event>
<event>
 4    1 -0.6479440E-004  0.2219479E+03  0.7818608E-02  0.1132439E+00
         -5   -1    0    0    0  501 -0.00000000000E+00  0.00000000000E+00  0.41263744665E+03  0.41266421262E+03  0.47000000000E+01 0.  1.
          5   -1    0    0  501    0  0.00000000000E+00 -0.00000000000E+00 -0.52878854645E+03  0.52880943341E+03  0.47000000000E+01 0. -1.
          6    1    1    2  502    0  0.20660664236E+02 -0.13874434552E+03 -0.47228676945E+03  0.52183871939E+03  0.17200000000E+03 0. -1.
         -6    1    1    2    0  502 -0.20660664236E+02  0.13874434552E+03  0.35613566964E+03  0.41963492664E+03  0.17200000000E+03 0.  1.
</event>
<event>
 4    1 -0.6479440E-004  0.1807411E+03  0.7818608E-02  0.1167088E+00
          5   -1    0    0  501    0  0.00000000000E+00  0.00000000000E+00  0.41143736526E+02  0.41411315547E+02  0.47000000000E+01 0. -1.
         -5   -1    0    0    0  501 -0.00000000000E+00 -0.00000000000E+00 -0.10681254203E+04  0.10681357608E+04  0.47000000000E+01 0.  1.
          6    1    1    2  502    0 -0.51549556384E+02 -0.20639648922E+02 -0.23101481609E+03  0.29331757043E+03  0.17200000000E+03 0. -1.
         -6    1    1    2    0  502  0.51549556384E+02  0.20639648922E+02 -0.79596686772E+03  0.81622950595E+03  0.17200000000E+03 0.  1.
</event>
<event>
 4    1 -0.6479440E-004  0.1786241E+03  0.7818608E-02  0.1169141E+00
          5   -1    0    0  501    0  0.00000000000E+00  0.00000000000E+00  0.25923993687E+03  0.25928253869E+03  0.47000000000E+01 0. -1.
         -5   -1    0    0    0  501 -0.00000000000E+00 -0.00000000000E+00 -0.40782261607E+03  0.40784969803E+03  0.47000000000E+01 0.  1.
          6    1    1    2  502    0  0.38237671542E+02  0.29333721688E+02  0.20444596607E+03  0.27148616870E+03  0.17200000000E+03 0. -1.
         -6    1    1    2    0  502 -0.38237671542E+02 -0.29333721688E+02 -0.35302864527E+03  0.39564606802E+03  0.17200000000E+03 0.  1.
</event>
<event>
 4    1 -0.6479440E-004  0.1841423E+03  0.7818608E-02  0.1163853E+00
         -5   -1    0    0    0  501 -0.00000000000E+00  0.00000000000E+00  0.12558886347E+03  0.12567677840E+03  0.47000000000E+01 0.  1.
          5   -1    0    0  501    0  0.00000000000E+00 -0.00000000000E+00 -0.13178692057E+04  0.13178775866E+04  0.47000000000E+01 0. -1.
          6    1    1    2  502    0 -0.23903268780E+02 -0.61261867830E+02 -0.12397831312E+04  0.12533836584E+04  0.17200000000E+03 0. -1.
         -6    1    1    2    0  502  0.23903268780E+02  0.61261867830E+02  0.47502788960E+02  0.19017070665E+03  0.17200000000E+03 0.  1.
</event>
<event>
 4    1 -0.6479440E-004  0.1782578E+03  0.7818608E-02  0.1169500E+00
          5   -1    0    0  501    0  0.00000000000E+00  0.00000000000E+00  0.55503344921E+02  0.55701986477E+02  0.47000000000E+01 0. -1.
         -5   -1    0    0    0  501 -0.00000000000E+00 -0.00000000000E+00 -0.61585987005E+03  0.61587780407E+03  0.47000000000E+01 0.  1.
          6    1    1    2  502    0  0.50741076239E+01 -0.46541403709E+02 -0.18984312051E+03  0.26041555106E+03  0.17200000000E+03 0. -1.
         -6    1    1    2    0  502 -0.50741076239E+01  0.46541403709E+02 -0.37051340462E+03  0.41116423949E+03  0.17200000000E+03 0.  1.
</event>
<event>
 4    1 -0.6479440E-004  0.2825808E+03  0.7818608E-02  0.1094288E+00
          5   -1    0    0  501    0  0.00000000000E+00  0.00000000000E+00  0.52046579569E+03  0.52048701664E+03  0.47000000000E+01 0. -1.
         -5   -1    0    0    0  501 -0.00000000000E+00 -0.00000000000E+00 -0.77774625275E+03  0.77776045392E+03  0.47000000000E+01 0.  1.
          6    1    1    2  502    0 -0.22257461083E+03 -0.26990322700E+02  0.45294848561E+03  0.53386727332E+03  0.17200000000E+03 0. -1.
         -6    1    1    2    0  502  0.22257461083E+03  0.26990322700E+02 -0.71022894267E+03  0.76438019723E+03  0.17200000000E+03 0.  1.
</event>
<event>
 4    1 -0.6479440E-004  0.2119664E+03  0.7818608E-02  0.1140018E+00
          5   -1    0    0  501    0  0.00000000000E+00  0.00000000000E+00  0.20444704264E+03  0.20450105927E+03  0.47000000000E+01 0. -1.
         -5   -1    0    0    0  501 -0.00000000000E+00 -0.00000000000E+00 -0.72351620585E+03  0.72353147142E+03  0.47000000000E+01 0.  1.
          6    1    1    2  502    0  0.58463872871E+02 -0.10921409395E+03  0.12766857390E+03  0.24744495854E+03  0.17200000000E+03 0. -1.
         -6    1    1    2    0  502 -0.58463872871E+02  0.10921409395E+03 -0.64673773712E+03  0.68058757214E+03  0.17200000000E+03 0.  1.
</event>
<event>
 4    1 -0.6479440E-004  0.2770281E+03  0.7818608E-02  0.1097323E+00
         -5   -1    0    0    0  501 -0.00000000000E+00  0.00000000000E+00  0.54985932556E+03  0.54987941215E+03  0.47000000000E+01 0.  1.
          5   -1    0    0  501    0  0.00000000000E+00 -0.00000000000E+00 -0.78166019468E+03  0.78167432474E+03  0.47000000000E+01 0. -1.
          6    1    1    2  502    0 -0.59933991933E+02 -0.20873071178E+03 -0.71932054090E+03  0.77082205079E+03  0.17200000000E+03 0. -1.
         -6    1    1    2    0  502  0.59933991933E+02  0.20873071178E+03  0.48751967177E+03  0.56073168610E+03  0.17200000000E+03 0.  1.
</event>
<event>
 4    1 -0.6479440E-004  0.1949701E+03  0.7818608E-02  0.1154053E+00
          5   -1    0    0  501    0  0.00000000000E+00  0.00000000000E+00  0.63390963831E+03  0.63392706169E+03  0.47000000000E+01 0. -1.
         -5   -1    0    0    0  501 -0.00000000000E+00 -0.00000000000E+00 -0.23174793527E+03  0.23179558991E+03  0.47000000000E+01 0.  1.
          6    1    1    2  502    0  0.88456238590E+02  0.24593374095E+02  0.57376721120E+03  0.60598857485E+03  0.17200000000E+03 0. -1.
         -6    1    1    2    0  502 -0.88456238590E+02 -0.24593374095E+02 -0.17160550816E+03  0.25973407675E+03  0.17200000000E+03 0.  1.
</event>
<event>
 4    1 -0.6479440E-004  0.2182256E+03  0.7818608E-02  0.1135213E+00
         -5   -1    0    0    0  501 -0.00000000000E+00  0.00000000000E+00  0.67158602880E+03  0.67160247474E+03  0.47000000000E+01 0.  1.
          5   -1    0    0  501    0  0.00000000000E+00 -0.00000000000E+00 -0.14604695605E+03  0.14612256285E+03  0.47000000000E+01 0. -1.
          6    1    1    2  502    0  0.12249767907E+03  0.55070348055E+02 -0.30546168423E+02  0.22035310984E+03  0.17200000000E+03 0. -1.
         -6    1    1    2    0  502 -0.12249767907E+03 -0.55070348055E+02  0.55608524116E+03  0.59737192774E+03  0.17200000000E+03 0.  1.
</event>
<event>
 4    1 -0.6479440E-004  0.1844511E+03  0.7818608E-02  0.1163563E+00
         -5   -1    0    0    0  501 -0.00000000000E+00  0.00000000000E+00  0.10803868152E+03  0.10814086510E+03  0.47000000000E+01 0.  1.
          5   -1    0    0  501    0  0.00000000000E+00 -0.00000000000E+00 -0.52774247381E+03  0.52776340216E+03  0.47000000000E+01 0. -1.
          6    1    1    2  502    0  0.22576310102E+02  0.62677796066E+02 -0.41187100976E+03  0.45128696477E+03  0.17200000000E+03 0. -1.
         -6    1    1    2    0  502 -0.22576310102E+02 -0.62677796066E+02 -0.78327825296E+01  0.18461730249E+03  0.17200000000E+03 0.  1.
</event>
<event>
 4    1 -0.6479440E-004  0.2102106E+03  0.7818608E-02  0.1141399E+00
         -5   -1    0    0    0  501 -0.00000000000E+00  0.00000000000E+00  0.45492108836E+02  0.45734253753E+02  0.47000000000E+01 0.  1.
          5   -1    0    0  501    0  0.00000000000E+00 -0.00000000000E+00 -0.17117192218E+04  0.17117256744E+04  0.47000000000E+01 0. -1.
          6    1    1    2  502    0  0.10563842745E+03 -0.58694335118E+02 -0.14120894309E+04  0.14276501894E+04  0.17200000000E+03 0. -1.
         -6    1    1    2    0  502 -0.10563842745E+03  0.58694335118E+02 -0.25413768204E+03  0.32980973873E+03  0.17200000000E+03 0.  1.
</event>
<event>
 4    1 -0.6479440E-004  0.1753956E+03  0.7818608E-02  0.1172335E+00
         -5   -1    0    0    0  501 -0.00000000000E+00  0.00000000000E+00  0.22434187943E+04  0.22434237176E+04  0.47000000000E+01 0.  1.
          5   -1    0    0  501    0  0.00000000000E+00 -0.00000000000E+00 -0.52494219856E+02  0.52704203991E+02  0.47000000000E+01 0. -1.
          6    1    1    2  502    0  0.33986189321E+02  0.49548430804E+01  0.10831374783E+03  0.20614431718E+03  0.17200000000E+03 0. -1.
         -6    1    1    2    0  502 -0.33986189321E+02 -0.49548430804E+01  0.20826108266E+04  0.20899836044E+04  0.17200000000E+03 0.  1.
</event>
<event>
 4    1 -0.6479440E-004  0.2727910E+03  0.7818608E-02  0.1099693E+00
         -5   -1    0    0    0  501 -0.00000000000E+00  0.00000000000E+00  0.37746875327E+03  0.37749801283E+03  0.47000000000E+01 0.  1.
          5   -1    0    0  501    0  0.00000000000E+00 -0.00000000000E+00 -0.35113531541E+03  0.35116676911E+03  0.47000000000E+01 0. -1.
          6    1    1    2  502    0  0.21029123874E+03 -0.24668693509E+02 -0.22813356059E+03  0.35561196689E+03  0.17200000000E+03 0. -1.
         -6    1    1    2    0  502 -0.21029123874E+03  0.24668693509E+02  0.25446699844E+03  0.37305281506E+03  0.17200000000E+03 0.  1.
</event>
<event>
 4    1 -0.6479440E-004  0.1822426E+03  0.7818608E-02  0.1165650E+00
          5   -1    0    0  501    0  0.00000000000E+00  0.00000000000E+00  0.19481286865E+03  0.19486955584E+03  0.47000000000E+01 0. -1.
         -5   -1    0    0    0  501 -0.00000000000E+00 -0.00000000000E+00 -0.33162839266E+03  0.33166169634E+03  0.47000000000E+01 0.  1.
          6    1    1    2  502    0  0.51448301094E+02  0.31328082811E+02  0.11514494368E+03  0.21557071813E+03  0.17200000000E+03 0. -1.
         -6    1    1    2    0  502 -0.51448301094E+02 -0.31328082811E+02 -0.25196046769E+03  0.31096053405E+03  0.17200000000E+03 0.  1.
</event>
<event>
 4    1 -0.6479440E-004  0.3485767E+03  0.7818608E-02  0.1063201E+00
          5   -1    0    0  501    0  0.00000000000E+00  0.00000000000E+00  0.26863479189E+03  0.26867590405E+03  0.47000000000E+01 0. -1.
         -5   -1    0    0    0  501 -0.00000000000E+00 -0.00000000000E+00 -0.46776192183E+03  0.46778553368E+03  0.47000000000E+01 0.  1.
          6    1    1    2  502    0  0.14485838564E+03 -0.26634139778E+03 -0.32447360553E+02  0.35008359469E+03  0.17200000000E+03 0. -1.
         -6    1    1    2    0  502 -0.14485838564E+03  0.26634139778E+03 -0.16667976939E+03  0.38637784303E+03  0.17200000000E+03 0.  1.
</event>
<event>
 4    1 -0.6479440E-004  0.3597716E+03  0.7818608E-02  0.1058674E+00
         -5   -1    0    0    0  501 -0.00000000000E+00  0.00000000000E+00  0.24904033178E+04  0.24904077528E+04  0.47000000000E+01 0.  1.
          5   -1    0    0  501    0  0.00000000000E+00 -0.00000000000E+00 -0.53538349292E+02  0.53744254064E+02  0.47000000000E+01 0. -1.
          6    1    1    2  502    0 -0.38814633468E+02  0.31360014007E+03  0.99385478773E+03  0.10569687615E+04  0.17200000000E+03 0. -1.
         -6    1    1    2    0  502  0.38814633468E+02 -0.31360014007E+03  0.14430101808E+04  0.14871832454E+04  0.17200000000E+03 0.  1.
</event>
<event>
 4    1 -0.6479440E-004  0.1890244E+03  0.7818608E-02  0.1159344E+00
         -5   -1    0    0    0  501 -0.00000000000E+00  0.00000000000E+00  0.81522117628E+02  0.81657489935E+02  0.47000000000E+01 0.  1.
          5   -1    0    0  501    0  0.00000000000E+00 -0.00000000000E+00 -0.59522958366E+03  0.59524813923E+03  0.47000000000E+01 0. -1.
          6    1    1    2  502    0 -0.77384099078E+02  0.12566729586E+02 -0.43090343467E+03  0.47054010615E+03  0.17200000000E+03 0. -1.
         -6    1    1    2    0  502  0.77384099078E+02 -0.12566729586E+02 -0.82804031361E+02  0.20636552302E+03  0.17200000000E+03 0. -1.
</event>
<event>
 4    1 -0.6479440E-004  0.2358972E+03  0.7818608E-02  0.1122557E+00
          5   -1    0    0  501    0  0.00000000000E+00  0.00000000000E+00  0.35897030799E+03  0.35900107523E+03  0.47000000000E+01 0. -1.
         -5   -1    0    0    0  501 -0.00000000000E+00 -0.00000000000E+00 -0.16425431143E+03  0.16432154096E+03  0.47000000000E+01 0.  1.
          6    1    1    2  502    0  0.50581067545E+02  0.15331350652E+03  0.15962653940E+03  0.28482996289E+03  0.17200000000E+03 0. -1.
         -6    1    1    2    0  502 -0.50581067545E+02 -0.15331350652E+03  0.35089457152E+02  0.23849265330E+03  0.17200000000E+03 0.  1.
</event>
<event>
 4    1 -0.6479440E-004  0.1780631E+03  0.7818608E-02  0.1169691E+00
          5   -1    0    0  501    0  0.00000000000E+00  0.00000000000E+00  0.55015940385E+02  0.55216335413E+02  0.47000000000E+01 0. -1.
         -5   -1    0    0    0  501 -0.00000000000E+00 -0.00000000000E+00 -0.63316107635E+03  0.63317852033E+03  0.47000000000E+01 0.  1.
          6    1    1    2  502    0  0.12621518510E+02 -0.44307800594E+02 -0.18482171041E+03  0.25664284241E+03  0.17200000000E+03 0. -1.
         -6    1    1    2    0  502 -0.12621518510E+02  0.44307800594E+02 -0.39332342556E+03  0.43175201333E+03  0.17200000000E+03 0.  1.
</event>
<event>
 4    1 -0.6479440E-004  0.1987753E+03  0.7818608E-02  0.1150776E+00
          5   -1    0    0  501    0  0.00000000000E+00  0.00000000000E+00  0.13189173637E+04  0.13189257379E+04  0.47000000000E+01 0. -1.
         -5   -1    0    0    0  501 -0.00000000000E+00 -0.00000000000E+00 -0.41522614988E+03  0.41525274899E+03  0.47000000000E+01 0.  1.
          6    1    1    2  502    0 -0.86815091865E+02  0.48895210063E+02  0.12870719109E+04  0.13023308741E+04  0.17200000000E+03 0. -1.
         -6    1    1    2    0  502  0.86815091865E+02 -0.48895210063E+02 -0.38338069715E+03  0.43184761281E+03  0.17200000000E+03 0.  1.
</event>
<event>
 4    1 -0.6479440E-004  0.2909028E+03  0.7818608E-02  0.1089879E+00
          5   -1    0    0  501    0  0.00000000000E+00  0.00000000000E+00  0.18299495348E+03  0.18305530038E+03  0.47000000000E+01 0. -1.
         -5   -1    0    0    0  501 -0.00000000000E+00 -0.00000000000E+00 -0.89928414449E+03  0.89929642640E+03  0.47000000000E+01 0.  1.
          6    1    1    2  502    0 -0.22256241144E+03 -0.74205298394E+02  0.19086396668E+02  0.29152828994E+03  0.17200000000E+03 0. -1.
         -6    1    1    2    0  502  0.22256241144E+03  0.74205298394E+02 -0.73537558768E+03  0.79082343684E+03  0.17200000000E+03 0.  1.
</event>
<event>
 4    1 -0.6479440E-004  0.2104584E+03  0.7818608E-02  0.1141204E+00
         -5   -1    0    0    0  501 -0.00000000000E+00  0.00000000000E+00  0.40208971321E+03  0.40211718126E+03  0.47000000000E+01 0.  1.
          5   -1    0    0  501    0  0.00000000000E+00 -0.00000000000E+00 -0.33697322116E+03  0.33700599665E+03  0.47000000000E+01 0. -1.
          6    1    1    2  502    0 -0.11589895043E+03 -0.35723453614E+02 -0.27065218731E+03  0.34284885641E+03  0.17200000000E+03 0. -1.
         -6    1    1    2    0  502  0.11589895043E+03  0.35723453614E+02  0.33576867935E+03  0.39627432150E+03  0.17200000000E+03 0.  1.
</event>
<event>
 4    1 -0.6479440E-004  0.1878553E+03  0.7818608E-02  0.1160410E+00
          5   -1    0    0  501    0  0.00000000000E+00  0.00000000000E+00  0.22225964000E+04  0.22226013694E+04  0.47000000000E+01 0. -1.
         -5   -1    0    0    0  501 -0.00000000000E+00 -0.00000000000E+00 -0.12295385830E+03  0.12304365595E+03  0.47000000000E+01 0.  1.
          6    1    1    2  502    0  0.15262543368E+02  0.73977564088E+02  0.21443339047E+04  0.21525467521E+04  0.17200000000E+03 0. -1.
         -6    1    1    2    0  502 -0.15262543368E+02 -0.73977564088E+02 -0.44691362965E+02  0.19309827328E+03  0.17200000000E+03 0.  1.
</event>
<event>
 4    1 -0.6479440E-004  0.1958497E+03  0.7818608E-02  0.1153289E+00
         -5   -1    0    0    0  501 -0.00000000000E+00  0.00000000000E+00  0.10961473501E+04  0.10961574263E+04  0.47000000000E+01 0.  1.
          5   -1    0    0  501    0  0.00000000000E+00 -0.00000000000E+00 -0.45458886490E+02  0.45701207434E+02  0.47000000000E+01 0. -1.
          6    1    1    2  502    0 -0.93047217785E+02  0.10739478715E+02  0.25007920073E+03  0.31764245274E+03  0.17200000000E+03 0. -1.
         -6    1    1    2    0  502  0.93047217785E+02 -0.10739478715E+02  0.80060926289E+03  0.82421618097E+03  0.17200000000E+03 0.  1.
</event>
<event>
 4    1 -0.6479440E-004  0.1884210E+03  0.7818608E-02  0.1159893E+00
         -5   -1    0    0    0  501 -0.00000000000E+00  0.00000000000E+00  0.12738264091E+04  0.12738350798E+04  0.47000000000E+01 0.  1.
          5   -1    0    0  501    0  0.00000000000E+00 -0.00000000000E+00 -0.29956066861E+03  0.29959753701E+03  0.47000000000E+01 0. -1.
          6    1    1    2  502    0  0.83636772626E+01  0.76475716468E+02 -0.26209619595E+03  0.32279544953E+03  0.17200000000E+03 0. -1.
         -6    1    1    2    0  502 -0.83636772626E+01 -0.76475716468E+02  0.12363619364E+04  0.12506371673E+04  0.17200000000E+03 0.  1.
</event>
<event>
 4    1 -0.6479440E-004  0.1771262E+03  0.7818608E-02  0.1170614E+00
         -5   -1    0    0    0  501 -0.00000000000E+00  0.00000000000E+00  0.74429442734E+02  0.74577690670E+02  0.47000000000E+01 0.  1.
          5   -1    0    0  501    0  0.00000000000E+00 -0.00000000000E+00 -0.73224841306E+03  0.73226349659E+03  0.47000000000E+01 0. -1.
          6    1    1    2  502    0 -0.17431421761E+01  0.42268853247E+02 -0.59191985636E+03  0.61785338944E+03  0.17200000000E+03 0. -1.
         -6    1    1    2    0  502  0.17431421761E+01 -0.42268853247E+02 -0.65899113972E+02  0.18898779781E+03  0.17200000000E+03 0.  1.
</event>
<event>
 4    1 -0.6479440E-004  0.1818755E+03  0.7818608E-02  0.1166000E+00
         -5   -1    0    0    0  501 -0.00000000000E+00  0.00000000000E+00  0.86786954213E+02  0.86914126709E+02  0.47000000000E+01 0.  1.
          5   -1    0    0  501    0  0.00000000000E+00 -0.00000000000E+00 -0.20464380346E+04  0.20464434317E+04  0.47000000000E+01 0. -1.
          6    1    1    2  502    0  0.11477917511E+02  0.57991007223E+02 -0.19421439502E+04  0.19506413875E+04  0.17200000000E+03 0. -1.
         -6    1    1    2    0  502 -0.11477917511E+02 -0.57991007223E+02 -0.17507130169E+02  0.18271617092E+03  0.17200000000E+03 0.  1.
</event>
<event>
 4    1 -0.6479440E-004  0.2175496E+03  0.7818608E-02  0.1135723E+00
          5   -1    0    0  501    0  0.00000000000E+00  0.00000000000E+00  0.44907725380E+03  0.44910184800E+03  0.47000000000E+01 0. -1.
         -5   -1    0    0    0  501 -0.00000000000E+00 -0.00000000000E+00 -0.44187745399E+03  0.44190244890E+03  0.47000000000E+01 0.  1.
          6    1    1    2  502    0 -0.18885993997E+02  0.13186029811E+03  0.39236879631E+03  0.44864361279E+03  0.17200000000E+03 0. -1.
         -6    1    1    2    0  502  0.18885993997E+02 -0.13186029811E+03 -0.38516899649E+03  0.44236068411E+03  0.17200000000E+03 0.  1.
</event>
<event>
 4    1 -0.6479440E-004  0.1846037E+03  0.7818608E-02  0.1163421E+00
          5   -1    0    0  501    0  0.00000000000E+00  0.00000000000E+00  0.19079659709E+02  0.19650023272E+02  0.47000000000E+01 0. -1.
         -5   -1    0    0    0  501 -0.00000000000E+00 -0.00000000000E+00 -0.24385622026E+04  0.24385667319E+04  0.47000000000E+01 0.  1.
          6    1    1    2  502    0 -0.65401715380E+02  0.14735172533E+02 -0.56109204419E+03  0.59067994019E+03  0.17200000000E+03 0. -1.
         -6    1    1    2    0  502  0.65401715380E+02 -0.14735172533E+02 -0.18583904987E+04  0.18675368150E+04  0.17200000000E+03 0.  1.
</event>
<event>
 4    1 -0.6479440E-004  0.2554031E+03  0.7818608E-02  0.1109937E+00
          5   -1    0    0  501    0  0.00000000000E+00  0.00000000000E+00  0.36583580577E+03  0.36586599567E+03  0.47000000000E+01 0. -1.
         -5   -1    0    0    0  501 -0.00000000000E+00 -0.00000000000E+00 -0.18452123702E+03  0.18458108493E+03  0.47000000000E+01 0.  1.
          6    1    1    2  502    0  0.15284644921E+03 -0.11083643314E+03  0.14143370021E+03  0.29194904265E+03  0.17200000000E+03 0. -1.
         -6    1    1    2    0  502 -0.15284644921E+03  0.11083643314E+03  0.39880868540E+02  0.25849803795E+03  0.17200000000E+03 0.  1.
</event>
<event>
 4    1 -0.6479440E-004  0.1917261E+03  0.7818608E-02  0.1156914E+00
         -5   -1    0    0    0  501 -0.00000000000E+00  0.00000000000E+00  0.18335451513E+03  0.18341474373E+03  0.47000000000E+01 0.  1.
          5   -1    0    0  501    0  0.00000000000E+00 -0.00000000000E+00 -0.31179004706E+03  0.31182546953E+03  0.47000000000E+01 0. -1.
          6    1    1    2  502    0  0.74839823261E+02  0.39672451765E+02 -0.21222535080E+03  0.28600437426E+03  0.17200000000E+03 0. -1.
         -6    1    1    2    0  502 -0.74839823261E+02 -0.39672451765E+02  0.83789818867E+02  0.20923583900E+03  0.17200000000E+03 0.  1.
</event>
<event>
 4    1 -0.6479440E-004  0.2609524E+03  0.7818608E-02  0.1106572E+00
         -5   -1    0    0    0  501 -0.00000000000E+00  0.00000000000E+00  0.18076805016E+03  0.18082914023E+03  0.47000000000E+01 0.  1.
          5   -1    0    0  501    0  0.00000000000E+00 -0.00000000000E+00 -0.45952248288E+03  0.45954651807E+03  0.47000000000E+01 0. -1.
          6    1    1    2  502    0 -0.66346138644E+02  0.18468988738E+03 -0.27540796746E+03  0.37940178328E+03  0.17200000000E+03 0. -1.
         -6    1    1    2    0  502  0.66346138644E+02 -0.18468988738E+03 -0.33464652633E+01  0.26097387502E+03  0.17200000000E+03 0.  1.
</event>
<event>
 4    1 -0.6479440E-004  0.2049474E+03  0.7818608E-02  0.1145631E+00
          5   -1    0    0  501    0  0.00000000000E+00  0.00000000000E+00  0.27836747322E+03  0.27840714817E+03  0.47000000000E+01 0. -1.
         -5   -1    0    0    0  501 -0.00000000000E+00 -0.00000000000E+00 -0.29882705714E+03  0.29886401604E+03  0.47000000000E+01 0.  1.
          6    1    1    2  502    0  0.50872635058E+02 -0.99153542928E+02  0.19288155956E+03  0.28143693093E+03  0.17200000000E+03 0. -1.
         -6    1    1    2    0  502 -0.50872635058E+02  0.99153542928E+02 -0.21334114348E+03  0.29583423327E+03  0.17200000000E+03 0.  1.
</event>
<event>
 4    1 -0.6479440E-004  0.2855643E+03  0.7818608E-02  0.1092688E+00
         -5   -1    0    0    0  501 -0.00000000000E+00  0.00000000000E+00  0.22405144020E+04  0.22405193317E+04  0.47000000000E+01 0.  1.
          5   -1    0    0  501    0  0.00000000000E+00 -0.00000000000E+00 -0.74294433447E+02  0.74442950245E+02  0.47000000000E+01 0. -1.
          6    1    1    2  502    0 -0.19217235256E+03 -0.12260821431E+03  0.25599584950E+03  0.38351122835E+03  0.17200000000E+03 0. -1.
         -6    1    1    2    0  502  0.19217235256E+03  0.12260821431E+03  0.19102241190E+04  0.19314510536E+04  0.17200000000E+03 0.  1.
</event>
<event>
 4    1 -0.6479440E-004  0.2067632E+03  0.7818608E-02  0.1144155E+00
          5   -1    0    0  501    0  0.00000000000E+00  0.00000000000E+00  0.39136781742E+03  0.39139603794E+03  0.47000000000E+01 0. -1.
         -5   -1    0    0    0  501 -0.00000000000E+00 -0.00000000000E+00 -0.80793981402E+03  0.80795348448E+03  0.47000000000E+01 0.  1.
          6    1    1    2  502    0  0.85795404983E+02 -0.76198121398E+02  0.34938219704E+03  0.40597897092E+03  0.17200000000E+03 0. -1.
         -6    1    1    2    0  502 -0.85795404983E+02  0.76198121398E+02 -0.76595419364E+03  0.79337055149E+03  0.17200000000E+03 0.  1.
</event>
<event>
 4    1 -0.6479440E-004  0.1759940E+03  0.7818608E-02  0.1171737E+00
         -5   -1    0    0    0  501 -0.00000000000E+00  0.00000000000E+00  0.97043784002E+03  0.97044922142E+03  0.47000000000E+01 0.  1.
          5   -1    0    0  501    0  0.00000000000E+00 -0.00000000000E+00 -0.25254816541E+03  0.25259189586E+03  0.47000000000E+01 0. -1.
          6    1    1    2  502    0 -0.36406581216E+02 -0.80281646403E+01 -0.21263416963E+03  0.27602025410E+03  0.17200000000E+03 0. -1.
         -6    1    1    2    0  502  0.36406581216E+02  0.80281646403E+01  0.93052384424E+03  0.94702086317E+03  0.17200000000E+03 0.  1.
</event>
<event>
 4    1 -0.6479440E-004  0.1751279E+03  0.7818608E-02  0.1172603E+00
          5   -1    0    0  501    0  0.00000000000E+00  0.00000000000E+00  0.48723914064E+02  0.48950074583E+02  0.47000000000E+01 0. -1.
         -5   -1    0    0    0  501 -0.00000000000E+00 -0.00000000000E+00 -0.10909781096E+04  0.10909882335E+04  0.47000000000E+01 0.  1.
          6    1    1    2  502    0  0.22945259778E+01 -0.32871114965E+02 -0.14977609453E+03  0.23044013006E+03  0.17200000000E+03 0. -1.
         -6    1    1    2    0  502 -0.22945259778E+01  0.32871114965E+02 -0.89247810104E+03  0.90949817806E+03  0.17200000000E+03 0.  1.
</event>
<event>
 4    1 -0.6479440E-004  0.2250255E+03  0.7818608E-02  0.1130191E+00
          5   -1    0    0  501    0  0.00000000000E+00  0.00000000000E+00  0.23310700198E+03  0.23315437884E+03  0.47000000000E+01 0. -1.
         -5   -1    0    0    0  501 -0.00000000000E+00 -0.00000000000E+00 -0.25901987668E+03  0.25906251469E+03  0.47000000000E+01 0.  1.
          6    1    1    2  502    0 -0.14378442029E+03 -0.19455843244E+02  0.85998845926E+02  0.24089892249E+03  0.17200000000E+03 0. -1.
         -6    1    1    2    0  502  0.14378442029E+03  0.19455843244E+02 -0.11191172063E+03  0.25131797104E+03  0.17200000000E+03 0.  1.
</event>
<event>
 4    1 -0.6479440E-004  0.2297833E+03  0.7818608E-02  0.1126792E+00
          5   -1    0    0  501    0  0.00000000000E+00  0.00000000000E+00  0.24486624540E+03  0.24491134751E+03  0.47000000000E+01 0. -1.
         -5   -1    0    0    0  501 -0.00000000000E+00 -0.00000000000E+00 -0.96802401826E+03  0.96803542803E+03  0.47000000000E+01 0.  1.
          6    1    1    2  502    0  0.96167715391E+02  0.11818696017E+03  0.17310917696E+03  0.28769284695E+03  0.17200000000E+03 0. -1.
         -6    1    1    2    0  502 -0.96167715391E+02 -0.11818696017E+03 -0.89626694982E+03  0.92525392859E+03  0.17200000000E+03 0.  1.
</event>
<event>
 4    1 -0.6479440E-004  0.1909357E+03  0.7818608E-02  0.1157620E+00
         -5   -1    0    0    0  501 -0.00000000000E+00  0.00000000000E+00  0.49037448227E+03  0.49039700536E+03  0.47000000000E+01 0.  1.
          5   -1    0    0  501    0  0.00000000000E+00 -0.00000000000E+00 -0.44495463538E+03  0.44497945745E+03  0.47000000000E+01 0. -1.
          6    1    1    2  502    0 -0.12607124556E+02 -0.81935907825E+02 -0.40412691517E+03  0.44696196275E+03  0.17200000000E+03 0. -1.
         -6    1    1    2    0  502  0.12607124556E+02  0.81935907825E+02  0.44954676206E+03  0.48841450005E+03  0.17200000000E+03 0.  1.
</event>
<event>
 4    1 -0.6479440E-004  0.2246011E+03  0.7818608E-02  0.1130498E+00
          5   -1    0    0  501    0  0.00000000000E+00  0.00000000000E+00  0.12200174137E+04  0.12200264668E+04  0.47000000000E+01 0. -1.
         -5   -1    0    0    0  501 -0.00000000000E+00 -0.00000000000E+00 -0.47068042434E+02  0.47302120656E+02  0.47000000000E+01 0.  1.
          6    1    1    2  502    0 -0.11467699335E+03 -0.87811450432E+02  0.80949460923E+03  0.84007570254E+03  0.17200000000E+03 0. -1.
         -6    1    1    2    0  502  0.11467699335E+03  0.87811450432E+02  0.36345476202E+03  0.42725288491E+03  0.17200000000E+03 0.  1.
</event>
<event>
 4    1 -0.6479440E-004  0.1759778E+03  0.7818608E-02  0.1171754E+00
         -5   -1    0    0    0  501 -0.00000000000E+00  0.00000000000E+00  0.33578296767E+03  0.33581585933E+03  0.47000000000E+01 0.  1.
          5   -1    0    0  501    0  0.00000000000E+00 -0.00000000000E+00 -0.21486812323E+03  0.21491952071E+03  0.47000000000E+01 0. -1.
          6    1    1    2  502    0 -0.30910009776E+02 -0.20706041143E+02 -0.14760708846E+03  0.22968678980E+03  0.17200000000E+03 0. -1.
         -6    1    1    2    0  502  0.30910009776E+02  0.20706041143E+02  0.26852193290E+03  0.32104859023E+03  0.17200000000E+03 0.  1.
</event>
<event>
 4    1 -0.6479440E-004  0.1932891E+03  0.7818608E-02  0.1155528E+00
          5   -1    0    0  501    0  0.00000000000E+00  0.00000000000E+00  0.75381616899E+02  0.75527995911E+02  0.47000000000E+01 0. -1.
         -5   -1    0    0    0  501 -0.00000000000E+00 -0.00000000000E+00 -0.79699963483E+03  0.79701349294E+03  0.47000000000E+01 0.  1.
          6    1    1    2  502    0 -0.31878988257E+02 -0.82221738649E+02 -0.92275722499E+02  0.21418565116E+03  0.17200000000E+03 0. -1.
         -6    1    1    2    0  502  0.31878988257E+02  0.82221738649E+02 -0.62934229543E+03  0.65835583769E+03  0.17200000000E+03 0.  1.
</event>
<event>
 4    1 -0.6479440E-004  0.1900534E+03  0.7818608E-02  0.1158413E+00
          5   -1    0    0  501    0  0.00000000000E+00  0.00000000000E+00  0.80043115401E+03  0.80044495271E+03  0.47000000000E+01 0. -1.
         -5   -1    0    0    0  501 -0.00000000000E+00 -0.00000000000E+00 -0.75886425998E+02  0.76031833141E+02  0.47000000000E+01 0.  1.
          6    1    1    2  502    0 -0.58803663543E+02 -0.55483524558E+02  0.64151991588E+03  0.66908003618E+03  0.17200000000E+03 0. -1.
         -6    1    1    2    0  502  0.58803663543E+02  0.55483524558E+02  0.83024812136E+02  0.20739674967E+03  0.17200000000E+03 0.  1.
</event>
<event>
 4    1 -0.6479440E-004  0.3097520E+03  0.7818608E-02  0.1080465E+00
          5   -1    0    0  501    0  0.00000000000E+00  0.00000000000E+00  0.33213611014E+03  0.33216936291E+03  0.47000000000E+01 0. -1.
         -5   -1    0    0    0  501 -0.00000000000E+00 -0.00000000000E+00 -0.40571869540E+03  0.40574591778E+03  0.47000000000E+01 0.  1.
          6    1    1    2  502    0  0.65081539986E+01  0.25752658051E+03  0.16124866743E+03  0.34920971992E+03  0.17200000000E+03 0. -1.
         -6    1    1    2    0  502 -0.65081539986E+01 -0.25752658051E+03 -0.23483125269E+03  0.38870556077E+03  0.17200000000E+03 0.  1.
</event>
<event>
 4    1 -0.6479440E-004  0.2062523E+03  0.7818608E-02  0.1144569E+00
         -5   -1    0    0    0  501 -0.00000000000E+00  0.00000000000E+00  0.15930418128E+03  0.15937349897E+03  0.47000000000E+01 0.  1.
          5   -1    0    0  501    0  0.00000000000E+00 -0.00000000000E+00 -0.30834646226E+03  0.30838228028E+03  0.47000000000E+01 0. -1.
          6    1    1    2  502    0 -0.11336645274E+03 -0.10200767366E+02 -0.16026418927E+03  0.26119842768E+03  0.17200000000E+03 0. -1.
         -6    1    1    2    0  502  0.11336645274E+03  0.10200767366E+02  0.11221908294E+02  0.20655735157E+03  0.17200000000E+03 0.  1.
</event>
<event>
 4    1 -0.6479440E-004  0.2188167E+03  0.7818608E-02  0.1134768E+00
         -5   -1    0    0    0  501 -0.00000000000E+00  0.00000000000E+00  0.34852099180E+03  0.34855268142E+03  0.47000000000E+01 0.  1.
          5   -1    0    0  501    0  0.00000000000E+00 -0.00000000000E+00 -0.63158006801E+03  0.63159755565E+03  0.47000000000E+01 0. -1.
          6    1    1    2  502    0  0.19438587220E+02 -0.13386144758E+03 -0.57504568655E+03  0.61527090573E+03  0.17200000000E+03 0. -1.
         -6    1    1    2    0  502 -0.19438587220E+02  0.13386144758E+03  0.29198661034E+03  0.36487933134E+03  0.17200000000E+03 0.  1.
</event>
<event>
 4    1 -0.6479440E-004  0.2037884E+03  0.7818608E-02  0.1146582E+00
         -5   -1    0    0    0  501 -0.00000000000E+00  0.00000000000E+00  0.32704872359E+03  0.32708249357E+03  0.47000000000E+01 0.  1.
          5   -1    0    0  501    0  0.00000000000E+00 -0.00000000000E+00 -0.40116016726E+03  0.40118769896E+03  0.47000000000E+01 0. -1.
          6    1    1    2  502    0 -0.14363090056E+02 -0.10834860333E+03 -0.33810401444E+03  0.39477087377E+03  0.17200000000E+03 0. -1.
         -6    1    1    2    0  502  0.14363090056E+02  0.10834860333E+03  0.26399257076E+03  0.33349931876E+03  0.17200000000E+03 0.  1.
</event>
<event>
 4    1 -0.6479440E-004  0.1746056E+03  0.7818608E-02  0.1173128E+00
          5   -1    0    0  501    0  0.00000000000E+00  0.00000000000E+00  0.12672420119E+04  0.12672507276E+04  0.47000000000E+01 0. -1.
         -5   -1    0    0    0  501 -0.00000000000E+00 -0.00000000000E+00 -0.12659771441E+03  0.12668492923E+03  0.47000000000E+01 0.  1.
          6    1    1    2  502    0  0.20054412954E+02  0.22381910642E+02  0.11976107156E+04  0.12102720998E+04  0.17200000000E+03 0. -1.
         -6    1    1    2    0  502 -0.20054412954E+02 -0.22381910642E+02 -0.56966418133E+02  0.18366355708E+03  0.17200000000E+03 0.  1.
</event>
<event>
 4    1 -0.6479440E-004  0.4589710E+03  0.7818608E-02  0.1025080E+00
          5   -1    0    0  501    0  0.00000000000E+00  0.00000000000E+00  0.14661791901E+03  0.14669323152E+03  0.47000000000E+01 0. -1.
         -5   -1    0    0    0  501 -0.00000000000E+00 -0.00000000000E+00 -0.17867853636E+04  0.17867915451E+04  0.47000000000E+01 0.  1.
          6    1    1    2  502    0  0.41568141969E+03 -0.90990742539E+02 -0.39193581181E+03  0.60354621901E+03  0.17200000000E+03 0. -1.
         -6    1    1    2    0  502 -0.41568141969E+03  0.90990742539E+02 -0.12482316328E+04  0.13299385576E+04  0.17200000000E+03 0.  1.
</event>
<event>
 4    1 -0.6479440E-004  0.2429520E+03  0.7818608E-02  0.1117842E+00
         -5   -1    0    0    0  501 -0.00000000000E+00  0.00000000000E+00  0.72300735162E+03  0.72302262793E+03  0.47000000000E+01 0.  1.
          5   -1    0    0  501    0  0.00000000000E+00 -0.00000000000E+00 -0.49444920769E+03  0.49447154518E+03  0.47000000000E+01 0. -1.
          6    1    1    2  502    0  0.48919779789E+02  0.16446441654E+03 -0.44195034103E+03  0.50432706957E+03  0.17200000000E+03 0. -1.
         -6    1    1    2    0  502 -0.48919779789E+02 -0.16446441654E+03  0.67050848496E+03  0.71316710353E+03  0.17200000000E+03 0.  1.
</event>
<event>
 4    1 -0.6479440E-004  0.2004283E+03  0.7818608E-02  0.1149378E+00
         -5   -1    0    0    0  501 -0.00000000000E+00  0.00000000000E+00  0.10911788903E+04  0.10911890123E+04  0.47000000000E+01 0.  1.
          5   -1    0    0  501    0  0.00000000000E+00 -0.00000000000E+00 -0.76456303419E+02  0.76600628799E+02  0.47000000000E+01 0. -1.
          6    1    1    2  502    0 -0.43468103056E+02  0.93263110642E+02  0.86711280308E+02  0.21838115743E+03  0.17200000000E+03 0. -1.
         -6    1    1    2    0  502  0.43468103056E+02 -0.93263110642E+02  0.92801130657E+03  0.94940848370E+03  0.17200000000E+03 0.  1.
</event>
<event>
 4    1 -0.6479440E-004  0.2311819E+03  0.7818608E-02  0.1125811E+00
         -5   -1    0    0    0  501 -0.00000000000E+00  0.00000000000E+00  0.11930721335E+03  0.11939975359E+03  0.47000000000E+01 0.  1.
          5   -1    0    0  501    0  0.00000000000E+00 -0.00000000000E+00 -0.61431566159E+03  0.61433364068E+03  0.47000000000E+01 0. -1.
          6    1    1    2  502    0  0.13951603188E+03  0.66304900952E+02 -0.43855644847E+03  0.49575883404E+03  0.17200000000E+03 0. -1.
         -6    1    1    2    0  502 -0.13951603188E+03 -0.66304900952E+02 -0.56451999767E+02  0.23797456023E+03  0.17200000000E+03 0.  1.
</event>
<event>
 4    1 -0.6479440E-004  0.1766689E+03  0.7818608E-02  0.1171066E+00
         -5   -1    0    0    0  501 -0.00000000000E+00  0.00000000000E+00  0.13085484320E+03  0.13093922250E+03  0.47000000000E+01 0.  1.
          5   -1    0    0  501    0  0.00000000000E+00 -0.00000000000E+00 -0.80365806619E+03  0.80367180948E+03  0.47000000000E+01 0. -1.
          6    1    1    2  502    0  0.26344080688E+02 -0.30559392471E+02 -0.72830708358E+03  0.74942851230E+03  0.17200000000E+03 0. -1.
         -6    1    1    2    0  502 -0.26344080688E+02  0.30559392471E+02  0.55503860595E+02  0.18518251968E+03  0.17200000000E+03 0.  1.
</event>
<event>
 4    1 -0.6479440E-004  0.1720114E+03  0.7818608E-02  0.1175766E+00
         -5   -1    0    0    0  501 -0.00000000000E+00  0.00000000000E+00  0.22296396955E+03  0.22301350120E+03  0.47000000000E+01 0.  1.
          5   -1    0    0  501    0  0.00000000000E+00 -0.00000000000E+00 -0.16125410436E+03  0.16132258420E+03  0.47000000000E+01 0. -1.
          6    1    1    2  502    0 -0.59158141708E+00 -0.18888217848E+01 -0.50124511943E+02  0.17916580118E+03  0.17200000000E+03 0. -1.
         -6    1    1    2    0  502  0.59158141708E+00  0.18888217848E+01  0.11183437714E+03  0.20517028422E+03  0.17200000000E+03 0.  1.
</event>
<event>
 4    1 -0.6479440E-004  0.1906328E+03  0.7818608E-02  0.1157892E+00
         -5   -1    0    0    0  501 -0.00000000000E+00  0.00000000000E+00  0.14393625745E+03  0.14401297236E+03  0.47000000000E+01 0.  1.
          5   -1    0    0  501    0  0.00000000000E+00 -0.00000000000E+00 -0.44848223633E+03  0.44850686317E+03  0.47000000000E+01 0. -1.
          6    1    1    2  502    0  0.82032844610E+02  0.52424584203E+01 -0.34818540913E+03  0.39695585409E+03  0.17200000000E+03 0. -1.
         -6    1    1    2    0  502 -0.82032844610E+02 -0.52424584203E+01  0.43639430240E+02  0.19556398144E+03  0.17200000000E+03 0.  1.
</event>
<event>
 4    1 -0.6479440E-004  0.1742364E+03  0.7818608E-02  0.1173501E+00
          5   -1    0    0  501    0  0.00000000000E+00  0.00000000000E+00  0.37481060659E+02  0.37774593421E+02  0.47000000000E+01 0. -1.
         -5   -1    0    0    0  501 -0.00000000000E+00 -0.00000000000E+00 -0.24575854218E+04  0.24575899161E+04  0.47000000000E+01 0.  1.
          6    1    1    2  502    0  0.27021324021E+02  0.66449101404E+01 -0.18744895991E+03  0.25592072866E+03  0.17200000000E+03 0. -1.
         -6    1    1    2    0  502 -0.27021324021E+02 -0.66449101404E+01 -0.22326554013E+04  0.22394437808E+04  0.17200000000E+03 0.  1.
</event>
<event>
 4    1 -0.6479440E-004  0.1945214E+03  0.7818608E-02  0.1154445E+00
         -5   -1    0    0    0  501 -0.00000000000E+00  0.00000000000E+00  0.39300902807E+03  0.39303713074E+03  0.47000000000E+01 0.  1.
          5   -1    0    0  501    0  0.00000000000E+00 -0.00000000000E+00 -0.12640688070E+03  0.12649422709E+03  0.47000000000E+01 0. -1.
          6    1    1    2  502    0  0.89603360364E+02  0.15026775506E+02  0.63612198265E+01  0.19462536137E+03  0.17200000000E+03 0. -1.
         -6    1    1    2    0  502 -0.89603360364E+02 -0.15026775506E+02  0.26024092755E+03  0.32490599647E+03  0.17200000000E+03 0.  1.
</event>
<event>
 4    1 -0.6479440E-004  0.2441177E+03  0.7818608E-02  0.1117080E+00
         -5   -1    0    0    0  501 -0.00000000000E+00  0.00000000000E+00  0.10659979564E+04  0.10660083176E+04  0.47000000000E+01 0.  1.
          5   -1    0    0  501    0  0.00000000000E+00 -0.00000000000E+00 -0.98326543906E+02  0.98438809605E+02  0.47000000000E+01 0. -1.
          6    1    1    2  502    0 -0.17155869968E+03 -0.24021653819E+02  0.10123301704E+03  0.26427552105E+03  0.17200000000E+03 0. -1.
         -6    1    1    2    0  502  0.17155869968E+03  0.24021653819E+02  0.86643839548E+03  0.90017160611E+03  0.17200000000E+03 0.  1.
</event>
<event>
 4    1 -0.6479440E-004  0.1746107E+03  0.7818608E-02  0.1173123E+00
          5   -1    0    0  501    0  0.00000000000E+00  0.00000000000E+00  0.71061799877E+02  0.71217058362E+02  0.47000000000E+01 0. -1.
         -5   -1    0    0    0  501 -0.00000000000E+00 -0.00000000000E+00 -0.63118737619E+03  0.63120487472E+03  0.47000000000E+01 0.  1.
          6    1    1    2  502    0 -0.29836722825E+02 -0.38290948859E+01 -0.81024554073E+02  0.19249381902E+03  0.17200000000E+03 0. -1.
         -6    1    1    2    0  502  0.29836722825E+02  0.38290948859E+01 -0.47910102224E+03  0.50992811406E+03  0.17200000000E+03 0.  1.
</event>
<event>
 4    1 -0.6479440E-004  0.2032306E+03  0.7818608E-02  0.1147042E+00
         -5   -1    0    0    0  501 -0.00000000000E+00  0.00000000000E+00  0.44458328498E+03  0.44460812777E+03  0.47000000000E+01 0.  1.
          5   -1    0    0  501    0  0.00000000000E+00 -0.00000000000E+00 -0.14369474903E+03  0.14377159281E+03  0.47000000000E+01 0. -1.
          6    1    1    2  502    0  0.10528847351E+03 -0.25160126647E+02 -0.24537876915E+02  0.20470662429E+03  0.17200000000E+03 0. -1.
         -6    1    1    2    0  502 -0.10528847351E+03  0.25160126647E+02  0.32542641286E+03  0.38367309629E+03  0.17200000000E+03 0.  1.
</event>
<event>
 4    1 -0.6479440E-004  0.3812276E+03  0.7818608E-02  0.1050481E+00
          5   -1    0    0  501    0  0.00000000000E+00  0.00000000000E+00  0.50861707521E+03  0.50863879049E+03  0.47000000000E+01 0. -1.
         -5   -1    0    0    0  501 -0.00000000000E+00 -0.00000000000E+00 -0.34833193278E+03  0.34836363960E+03  0.47000000000E+01 0.  1.
          6    1    1    2  502    0 -0.12130851561E+02  0.34000486520E+03  0.26183108339E+03  0.46248241280E+03  0.17200000000E+03 0. -1.
         -6    1    1    2    0  502  0.12130851561E+02 -0.34000486520E+03 -0.10154594096E+03  0.39452001729E+03  0.17200000000E+03 0.  1.
</event>
<event>
 4    1 -0.6479440E-004  0.1853291E+03  0.7818608E-02  0.1162743E+00
          5   -1    0    0  501    0  0.00000000000E+00  0.00000000000E+00  0.20859127164E+03  0.20864421536E+03  0.47000000000E+01 0. -1.
         -5   -1    0    0    0  501 -0.00000000000E+00 -0.00000000000E+00 -0.79503950666E+03  0.79505339893E+03  0.47000000000E+01 0.  1.
          6    1    1    2  502    0 -0.14846031826E+01  0.68997633575E+02  0.15365561577E+03  0.24074244691E+03  0.17200000000E+03 0. -1.
         -6    1    1    2    0  502  0.14846031826E+01 -0.68997633575E+02 -0.74010385079E+03  0.76295516738E+03  0.17200000000E+03 0.  1.
</event>
<event>
 4    1 -0.6479440E-004  0.1827814E+03  0.7818608E-02  0.1165138E+00
          5   -1    0    0  501    0  0.00000000000E+00  0.00000000000E+00  0.67475684443E+03  0.67477321309E+03  0.47000000000E+01 0. -1.
         -5   -1    0    0    0  501 -0.00000000000E+00 -0.00000000000E+00 -0.57023973213E+02  0.57217335843E+02  0.47000000000E+01 0.  1.
          6    1    1    2  502    0 -0.34269345162E+02 -0.51484408947E+02  0.44256738436E+03  0.47882660963E+03  0.17200000000E+03 0. -1.
         -6    1    1    2    0  502  0.34269345162E+02  0.51484408947E+02  0.17516548685E+03  0.25316393931E+03  0.17200000000E+03 0.  1.
</event>
<event>
 4    1 -0.6479440E-004  0.2959021E+03  0.7818608E-02  0.1087307E+00
          5   -1    0    0  501    0  0.00000000000E+00  0.00000000000E+00  0.11833939344E+04  0.11834032677E+04  0.47000000000E+01 0. -1.
         -5   -1    0    0    0  501 -0.00000000000E+00 -0.00000000000E+00 -0.15876449552E+03  0.15883404873E+03  0.47000000000E+01 0.  1.
          6    1    1    2  502    0 -0.23145795669E+03 -0.66341935818E+02  0.10027835071E+04  0.10455299136E+04  0.17200000000E+03 0. -1.
         -6    1    1    2    0  502  0.23145795669E+03  0.66341935818E+02  0.21845931817E+02  0.29670740284E+03  0.17200000000E+03 0.  1.
</event>
<event>
 4    1 -0.6479440E-004  0.1855419E+03  0.7818608E-02  0.1162545E+00
         -5   -1    0    0    0  501 -0.00000000000E+00  0.00000000000E+00  0.13093141334E+04  0.13093225691E+04  0.47000000000E+01 0.  1.
          5   -1    0    0  501    0  0.00000000000E+00 -0.00000000000E+00 -0.90410458872E+02  0.90532541516E+02  0.47000000000E+01 0. -1.
          6    1    1    2  502    0 -0.65001944647E+02  0.24830263796E+02  0.19929096516E+02  0.18660912008E+03  0.17200000000E+03 0. -1.
         -6    1    1    2    0  502  0.65001944647E+02 -0.24830263796E+02  0.11989745780E+04  0.12132459905E+04  0.17200000000E+03 0.  1.
</event>
<event>
 4    1 -0.6479440E-004  0.2152506E+03  0.7818608E-02  0.1137474E+00
         -5   -1    0    0    0  501 -0.00000000000E+00  0.00000000000E+00  0.11901245392E+04  0.11901338197E+04  0.47000000000E+01 0.  1.
          5   -1    0    0  501    0  0.00000000000E+00 -0.00000000000E+00 -0.40378865406E+03  0.40381600655E+03  0.47000000000E+01 0. -1.
          6    1    1    2  502    0  0.11962737471E+03 -0.49377257104E+02 -0.36441587888E+03  0.42323959536E+03  0.17200000000E+03 0. -1.
         -6    1    1    2    0  502 -0.11962737471E+03  0.49377257104E+02  0.11507517640E+04  0.11707102309E+04  0.17200000000E+03 0.  1.
</event>
<event>
 4    1 -0.6479440E-004  0.4369161E+03  0.7818608E-02  0.1031697E+00
          5   -1    0    0  501    0  0.00000000000E+00  0.00000000000E+00  0.16723505548E+04  0.16723571593E+04  0.47000000000E+01 0. -1.
         -5   -1    0    0    0  501 -0.00000000000E+00 -0.00000000000E+00 -0.29266889434E+03  0.29270663080E+03  0.47000000000E+01 0.  1.
          6    1    1    2  502    0 -0.37756778581E+03 -0.13694603737E+03  0.14572290502E+04  0.15213192153E+04  0.17200000000E+03 0. -1.
         -6    1    1    2    0  502  0.37756778581E+03  0.13694603737E+03 -0.77547389691E+02  0.44374457482E+03  0.17200000000E+03 0.  1.
</event>
<event>
 4    1 -0.6479440E-004  0.1891860E+03  0.7818608E-02  0.1159198E+00
         -5   -1    0    0    0  501 -0.00000000000E+00  0.00000000000E+00  0.28000107328E+03  0.28004051678E+03  0.47000000000E+01 0.  1.
          5   -1    0    0  501    0  0.00000000000E+00 -0.00000000000E+00 -0.13572355364E+03  0.13580490791E+03  0.47000000000E+01 0. -1.
          6    1    1    2  502    0  0.78479216579E+02  0.69534811798E+01  0.12256272129E+03  0.22541729966E+03  0.17200000000E+03 0. -1.
         -6    1    1    2    0  502 -0.78479216579E+02 -0.69534811798E+01  0.21714798356E+02  0.19042812503E+03  0.17200000000E+03 0.  1.
</event>
<event>
 4    1 -0.6479440E-004  0.2507415E+03  0.7818608E-02  0.1112837E+00
         -5   -1    0    0    0  501 -0.00000000000E+00  0.00000000000E+00  0.50740313704E+03  0.50742490427E+03  0.47000000000E+01 0.  1.
          5   -1    0    0  501    0  0.00000000000E+00 -0.00000000000E+00 -0.24939957934E+03  0.24944386177E+03  0.47000000000E+01 0. -1.
          6    1    1    2  502    0  0.55810719062E+02 -0.17370222184E+03 -0.13946613643E+03  0.28691828357E+03  0.17200000000E+03 0. -1.
         -6    1    1    2    0  502 -0.55810719062E+02  0.17370222184E+03  0.39746969413E+03  0.46995048248E+03  0.17200000000E+03 0. -1.
</event>
<event>
 4    1 -0.6479440E-004  0.2203043E+03  0.7818608E-02  0.1133656E+00
         -5   -1    0    0    0  501 -0.00000000000E+00  0.00000000000E+00  0.26820368753E+03  0.26824486576E+03  0.47000000000E+01 0.  1.
          5   -1    0    0  501    0  0.00000000000E+00 -0.00000000000E+00 -0.20337340465E+03  0.20342770637E+03  0.47000000000E+01 0. -1.
          6    1    1    2  502    0  0.13436451759E+03  0.29935680801E+02 -0.46008280878E+02  0.22505717158E+03  0.17200000000E+03 0.  1.
         -6    1    1    2    0  502 -0.13436451759E+03 -0.29935680801E+02  0.11083856376E+03  0.24661540055E+03  0.17200000000E+03 0.  1.
</event>
<event>
 4    1 -0.6479440E-004  0.1760222E+03  0.7818608E-02  0.1171709E+00
          5   -1    0    0  501    0  0.00000000000E+00  0.00000000000E+00  0.34323476435E+02  0.34643773389E+02  0.47000000000E+01 0. -1.
         -5   -1    0    0    0  501 -0.00000000000E+00 -0.00000000000E+00 -0.10086863154E+04  0.10086972652E+04  0.47000000000E+01 0.  1.
          6    1    1    2  502    0  0.32766362754E+02  0.18060159167E+02 -0.31454284674E+03  0.36044556636E+03  0.17200000000E+03 0. -1.
         -6    1    1    2    0  502 -0.32766362754E+02 -0.18060159167E+02 -0.65981999218E+03  0.68289547220E+03  0.17200000000E+03 0.  1.
</event>
<event>
 4    1 -0.6479440E-004  0.2140802E+03  0.7818608E-02  0.1138375E+00
          5   -1    0    0  501    0  0.00000000000E+00  0.00000000000E+00  0.39693318171E+03  0.39696100658E+03  0.47000000000E+01 0. -1.
         -5   -1    0    0    0  501 -0.00000000000E+00 -0.00000000000E+00 -0.29770858491E+03  0.29774568264E+03  0.47000000000E+01 0.  1.
          6    1    1    2  502    0  0.88898826526E+02  0.91341786074E+02  0.32140192619E+03  0.38617291645E+03  0.17200000000E+03 0. -1.
         -6    1    1    2    0  502 -0.88898826526E+02 -0.91341786074E+02 -0.22217732940E+03  0.30853377277E+03  0.17200000000E+03 0.  1.
</event>
<event>
 4    1 -0.6479440E-004  0.2162055E+03  0.7818608E-02  0.1136744E+00
         -5   -1    0    0    0  501 -0.00000000000E+00  0.00000000000E+00  0.85037798024E+02  0.85167582405E+02  0.47000000000E+01 0.  1.
          5   -1    0    0  501    0  0.00000000000E+00 -0.00000000000E+00 -0.93021244125E+03  0.93022431481E+03  0.47000000000E+01 0. -1.
          6    1    1    2  502    0  0.76162566286E+01 -0.13077763551E+03 -0.74751373328E+03  0.77815267060E+03  0.17200000000E+03 0. -1.
         -6    1    1    2    0  502 -0.76162566286E+01  0.13077763551E+03 -0.97660909951E+02  0.23723922662E+03  0.17200000000E+03 0.  1.
</event>
<event>
 4    1 -0.6479440E-004  0.1797954E+03  0.7818608E-02  0.1168001E+00
         -5   -1    0    0    0  501 -0.00000000000E+00  0.00000000000E+00  0.45759436396E+02  0.46000174123E+02  0.47000000000E+01 0.  1.
          5   -1    0    0  501    0  0.00000000000E+00 -0.00000000000E+00 -0.90114187883E+03  0.90115413542E+03  0.47000000000E+01 0. -1.
          6    1    1    2  502    0  0.95357386566E+01 -0.51492322744E+02 -0.64897386654E+03  0.67341923722E+03  0.17200000000E+03 0. -1.
         -6    1    1    2    0  502 -0.95357386566E+01  0.51492322744E+02 -0.20640857590E+03  0.27373507232E+03  0.17200000000E+03 0.  1.
</event>
<event>
 4    1 -0.6479440E-004  0.2610284E+03  0.7818608E-02  0.1106527E+00
         -5   -1    0    0    0  501 -0.00000000000E+00  0.00000000000E+00  0.87369304264E+03  0.87370568429E+03  0.47000000000E+01 0.  1.
          5   -1    0    0  501    0  0.00000000000E+00 -0.00000000000E+00 -0.50191898909E+03  0.50194099415E+03  0.47000000000E+01 0. -1.
          6    1    1    2  502    0 -0.15870031682E+02 -0.19570383782E+03 -0.44624945916E+03  0.51698590875E+03  0.17200000000E+03 0. -1.
         -6    1    1    2    0  502  0.15870031682E+02  0.19570383782E+03  0.81802351272E+03  0.85866076969E+03  0.17200000000E+03 0.  1.
</event>
<event>
 4    1 -0.6479440E-004  0.1749251E+03  0.7818608E-02  0.1172807E+00
          5   -1    0    0  501    0  0.00000000000E+00  0.00000000000E+00  0.20289106832E+03  0.20294549910E+03  0.47000000000E+01 0. -1.
         -5   -1    0    0    0  501 -0.00000000000E+00 -0.00000000000E+00 -0.15843331872E+03  0.15850301726E+03  0.47000000000E+01 0.  1.
          6    1    1    2  502    0  0.13994591432E+02 -0.28617191628E+02  0.62134185880E+02  0.18563256530E+03  0.17200000000E+03 0. -1.
         -6    1    1    2    0  502 -0.13994591432E+02  0.28617191628E+02 -0.17676436283E+02  0.17581595106E+03  0.17200000000E+03 0.  1.
</event>
<event>
 4    1 -0.6479440E-004  0.1894422E+03  0.7818608E-02  0.1158965E+00
         -5   -1    0    0    0  501 -0.00000000000E+00  0.00000000000E+00  0.21202296779E+03  0.21207505480E+03  0.47000000000E+01 0.  1.
          5   -1    0    0  501    0  0.00000000000E+00 -0.00000000000E+00 -0.23127520915E+03  0.23132296118E+03  0.47000000000E+01 0. -1.
          6    1    1    2  502    0 -0.24569258830E+02 -0.75502974703E+02 -0.12449263108E+03  0.22668648584E+03  0.17200000000E+03 0. -1.
         -6    1    1    2    0  502  0.24569258830E+02  0.75502974703E+02  0.10524038971E+03  0.21671153014E+03  0.17200000000E+03 0.  1.
</event>
<event>
 4    1 -0.6479440E-004  0.1821359E+03  0.7818608E-02  0.1165752E+00
         -5   -1    0    0    0  501 -0.00000000000E+00  0.00000000000E+00  0.17322596057E+04  0.17322659818E+04  0.47000000000E+01 0.  1.
          5   -1    0    0  501    0  0.00000000000E+00 -0.00000000000E+00 -0.39254547363E+02  0.39534914805E+02  0.47000000000E+01 0. -1.
          6    1    1    2  502    0  0.49249109803E+02  0.34117821203E+02  0.21138959023E+03  0.27903236264E+03  0.17200000000E+03 0. -1.
         -6    1    1    2    0  502 -0.49249109803E+02 -0.34117821203E+02  0.14816154681E+04  0.14927685339E+04  0.17200000000E+03 0.  1.
</event>
<event>
 4    1 -0.6479440E-004  0.1766583E+03  0.7818608E-02  0.1171077E+00
         -5   -1    0    0    0  501 -0.00000000000E+00  0.00000000000E+00  0.65420023055E+02  0.65588637862E+02  0.47000000000E+01 0.  1.
          5   -1    0    0  501    0  0.00000000000E+00 -0.00000000000E+00 -0.54977579256E+03  0.54979588220E+03  0.47000000000E+01 0. -1.
          6    1    1    2  502    0 -0.40020795796E+02 -0.47441398031E+01 -0.35468285818E+03  0.39624247734E+03  0.17200000000E+03 0. -1.
         -6    1    1    2    0  502  0.40020795796E+02  0.47441398031E+01 -0.12967291132E+03  0.21914204272E+03  0.17200000000E+03 0.  1.
</event>
<event>
 4    1 -0.6479440E-004  0.2067042E+03  0.7818608E-02  0.1144203E+00
          5   -1    0    0  501    0  0.00000000000E+00  0.00000000000E+00  0.28197382780E+03  0.28201299538E+03  0.47000000000E+01 0. -1.
         -5   -1    0    0    0  501 -0.00000000000E+00 -0.00000000000E+00 -0.37876635888E+03  0.37879551821E+03  0.47000000000E+01 0.  1.
          6    1    1    2  502    0 -0.19392421134E+02  0.11298915815E+03  0.20754034745E+03  0.29291570746E+03  0.17200000000E+03 0. -1.
         -6    1    1    2    0  502  0.19392421134E+02 -0.11298915815E+03 -0.30433287852E+03  0.36789280614E+03  0.17200000000E+03 0.  1.
</event>
<event>
 4    1 -0.6479440E-004  0.1822337E+03  0.7818608E-02  0.1165659E+00
          5   -1    0    0  501    0  0.00000000000E+00  0.00000000000E+00  0.60670936678E+03  0.60672757127E+03  0.47000000000E+01 0. -1.
         -5   -1    0    0    0  501 -0.00000000000E+00 -0.00000000000E+00 -0.59762249699E+02  0.59946780473E+02  0.47000000000E+01 0.  1.
          6    1    1    2  502    0  0.40921038128E+02  0.44165390080E+02  0.37111365542E+03  0.41344220670E+03  0.17200000000E+03 0. -1.
         -6    1    1    2    0  502 -0.40921038128E+02 -0.44165390080E+02  0.17583346166E+03  0.25323214504E+03  0.17200000000E+03 0.  1.
</event>
<event>
 4    1 -0.6479440E-004  0.2344621E+03  0.7818608E-02  0.1123538E+00
         -5   -1    0    0    0  501 -0.00000000000E+00  0.00000000000E+00  0.35497973110E+03  0.35501084419E+03  0.47000000000E+01 0.  1.
          5   -1    0    0  501    0  0.00000000000E+00 -0.00000000000E+00 -0.15862987198E+03  0.15869948419E+03  0.47000000000E+01 0. -1.
          6    1    1    2  502    0  0.80496952725E+02  0.13750891883E+03  0.58210918141E+02  0.24158015884E+03  0.17200000000E+03 0. -1.
         -6    1    1    2    0  502 -0.80496952725E+02 -0.13750891883E+03  0.13813894099E+03  0.27213016954E+03  0.17200000000E+03 0.  1.
</event>
<event>
 4    1 -0.6479440E-004  0.1751191E+03  0.7818608E-02  0.1172612E+00
         -5   -1    0    0    0  501 -0.00000000000E+00  0.00000000000E+00  0.41097051421E+03  0.41099738874E+03  0.47000000000E+01 0.  1.
          5   -1    0    0  501    0  0.00000000000E+00 -0.00000000000E+00 -0.10993866182E+03  0.11003908107E+03  0.47000000000E+01 0. -1.
          6    1    1    2  502    0 -0.27537104418E+02 -0.18010983841E+02  0.27411881240E+01  0.17514052007E+03  0.17200000000E+03 0. -1.
         -6    1    1    2    0  502  0.27537104418E+02  0.18010983841E+02  0.29829066427E+03  0.34589594974E+03  0.17200000000E+03 0.  1.
</event>
<event>
 4    1 -0.6479440E-004  0.2515903E+03  0.7818608E-02  0.1112304E+00
          5   -1    0    0  501    0  0.00000000000E+00  0.00000000000E+00  0.35258966440E+03  0.35262098838E+03  0.47000000000E+01 0. -1.
         -5   -1    0    0    0  501 -0.00000000000E+00 -0.00000000000E+00 -0.93792935416E+03  0.93794113002E+03  0.47000000000E+01 0.  1.
          6    1    1    2  502    0  0.55915950055E+02  0.17489157224E+03  0.28758583445E+03  0.38210373943E+03  0.17200000000E+03 0. -1.
         -6    1    1    2    0  502 -0.55915950055E+02 -0.17489157224E+03 -0.87292552421E+03  0.90845837897E+03  0.17200000000E+03 0.  1.
</event>
<event>
 4    1 -0.6479440E-004  0.3548150E+03  0.7818608E-02  0.1060656E+00
         -5   -1    0    0    0  501 -0.00000000000E+00  0.00000000000E+00  0.12214776990E+03  0.12223815972E+03  0.47000000000E+01 0.  1.
          5   -1    0    0  501    0  0.00000000000E+00 -0.00000000000E+00 -0.10893944848E+04  0.10894046234E+04  0.47000000000E+01 0. -1.
          6    1    1    2  502    0  0.46266941874E+02 -0.30686979188E+03 -0.62484731342E+03  0.71855957593E+03  0.17200000000E+03 0. -1.
         -6    1    1    2    0  502 -0.46266941874E+02  0.30686979188E+03 -0.34239940144E+03  0.49308320716E+03  0.17200000000E+03 0. -1.
</event>
<event>
 4    1 -0.6479440E-004  0.1767841E+03  0.7818608E-02  0.1170952E+00
          5   -1    0    0  501    0  0.00000000000E+00  0.00000000000E+00  0.26079971657E+03  0.26084206364E+03  0.47000000000E+01 0. -1.
         -5   -1    0    0    0  501 -0.00000000000E+00 -0.00000000000E+00 -0.27976408084E+03  0.27980355775E+03  0.47000000000E+01 0.  1.
          6    1    1    2  502    0  0.35622604979E+02 -0.19991088726E+02  0.19492747358E+03  0.26315268110E+03  0.17200000000E+03 0. -1.
         -6    1    1    2    0  502 -0.35622604979E+02  0.19991088726E+02 -0.21389183785E+03  0.27749294029E+03  0.17200000000E+03 0.  1.
</event>
<event>
 4    1 -0.6479440E-004  0.3378457E+03  0.7818608E-02  0.1067717E+00
         -5   -1    0    0    0  501 -0.00000000000E+00  0.00000000000E+00  0.27783236181E+03  0.27787211315E+03  0.47000000000E+01 0.  1.
          5   -1    0    0  501    0  0.00000000000E+00 -0.00000000000E+00 -0.82647272275E+03  0.82648608667E+03  0.47000000000E+01 0. -1.
          6    1    1    2  502    0 -0.25554089631E+03  0.13876093639E+03 -0.66593326222E+03  0.74673077939E+03  0.17200000000E+03 0. -1.
         -6    1    1    2    0  502  0.25554089631E+03 -0.13876093639E+03  0.11729290128E+03  0.35762742043E+03  0.17200000000E+03 0.  1.
</event>
<event>
 4    1 -0.6479440E-004  0.1838406E+03  0.7818608E-02  0.1164137E+00
          5   -1    0    0  501    0  0.00000000000E+00  0.00000000000E+00  0.13357145087E+04  0.13357227777E+04  0.47000000000E+01 0. -1.
         -5   -1    0    0    0  501 -0.00000000000E+00 -0.00000000000E+00 -0.10794513191E+03  0.10804740397E+03  0.47000000000E+01 0.  1.
          6    1    1    2  502    0 -0.64877006225E+02 -0.20868016506E+01  0.12455753677E+04  0.12590692504E+04  0.17200000000E+03 0. -1.
         -6    1    1    2    0  502  0.64877006225E+02  0.20868016506E+01 -0.17805990926E+02  0.18470093121E+03  0.17200000000E+03 0.  1.
</event>
<event>
 4    1 -0.6479440E-004  0.1722885E+03  0.7818608E-02  0.1175482E+00
          5   -1    0    0  501    0  0.00000000000E+00  0.00000000000E+00  0.27351227293E+03  0.27355265205E+03  0.47000000000E+01 0. -1.
         -5   -1    0    0    0  501 -0.00000000000E+00 -0.00000000000E+00 -0.54356362321E+03  0.54358394244E+03  0.47000000000E+01 0.  1.
          6    1    1    2  502    0  0.99595428115E+01  0.37629849236E+00  0.23049475605E+03  0.28776929416E+03  0.17200000000E+03 0. -1.
         -6    1    1    2    0  502 -0.99595428115E+01 -0.37629849236E+00 -0.50054610633E+03  0.52936730033E+03  0.17200000000E+03 0.  1.
</event>
<event>
 4    1 -0.6479440E-004  0.1976496E+03  0.7818608E-02  0.1151737E+00
         -5   -1    0    0    0  501 -0.00000000000E+00  0.00000000000E+00  0.26190428104E+03  0.26194644954E+03  0.47000000000E+01 0.  1.
          5   -1    0    0  501    0  0.00000000000E+00 -0.00000000000E+00 -0.14984077429E+03  0.14991446774E+03  0.47000000000E+01 0. -1.
          6    1    1    2  502    0  0.51008404330E+02  0.82942713416E+02  0.41245563930E+02  0.20190727467E+03  0.17200000000E+03 0. -1.
         -6    1    1    2    0  502 -0.51008404330E+02 -0.82942713416E+02  0.70817942829E+02  0.20995364262E+03  0.17200000000E+03 0. -1.
</event>
<event>
 4    1 -0.6479440E-004  0.2001425E+03  0.7818608E-02  0.1149619E+00
          5   -1    0    0  501    0  0.00000000000E+00  0.00000000000E+00  0.25096475868E+04  0.25096519878E+04  0.47000000000E+01 0. -1.
         -5   -1    0    0    0  501 -0.00000000000E+00 -0.00000000000E+00 -0.35450578126E+02  0.35760781444E+02  0.47000000000E+01 0.  1.
          6    1    1    2  502    0 -0.97807531877E+02  0.30111894325E+02  0.21824875740E+04  0.21916452838E+04  0.17200000000E+03 0. -1.
         -6    1    1    2    0  502  0.97807531877E+02 -0.30111894325E+02  0.29170943471E+03  0.35376748546E+03  0.17200000000E+03 0.  1.
</event>
<event>
 4    1 -0.6479440E-004  0.1730209E+03  0.7818608E-02  0.1174734E+00
          5   -1    0    0  501    0  0.00000000000E+00  0.00000000000E+00  0.42601986301E+03  0.42604578824E+03  0.47000000000E+01 0. -1.
         -5   -1    0    0    0  501 -0.00000000000E+00 -0.00000000000E+00 -0.17313266756E+03  0.17319645081E+03  0.47000000000E+01 0.  1.
          6    1    1    2  502    0 -0.14368606266E+02 -0.12073789640E+02  0.35741953360E+03  0.39709565125E+03  0.17200000000E+03 0. -1.
         -6    1    1    2    0  502  0.14368606266E+02  0.12073789640E+02 -0.10453233815E+03  0.20214658780E+03  0.17200000000E+03 0.  1.
</event>
<event>
 4    1 -0.6479440E-004  0.1860435E+03  0.7818608E-02  0.1162079E+00
          5   -1    0    0  501    0  0.00000000000E+00  0.00000000000E+00  0.76398517045E+03  0.76399962740E+03  0.47000000000E+01 0. -1.
         -5   -1    0    0    0  501 -0.00000000000E+00 -0.00000000000E+00 -0.27991620045E+03  0.27995565591E+03  0.47000000000E+01 0.  1.
          6    1    1    2  502    0 -0.13183562299E+02  0.69673388147E+02  0.71991350711E+03  0.74356414992E+03  0.17200000000E+03 0. -1.
         -6    1    1    2    0  502  0.13183562299E+02 -0.69673388147E+02 -0.23584453711E+03  0.30039113339E+03  0.17200000000E+03 0.  1.
</event>
<event>
 4    1 -0.6479440E-004  0.1725041E+03  0.7818608E-02  0.1175261E+00
         -5   -1    0    0    0  501 -0.00000000000E+00  0.00000000000E+00  0.71538246894E+03  0.71539790807E+03  0.47000000000E+01 0.  1.
          5   -1    0    0  501    0  0.00000000000E+00 -0.00000000000E+00 -0.15767163490E+03  0.15774167000E+03  0.47000000000E+01 0. -1.
          6    1    1    2  502    0 -0.62531646670E+01 -0.11600204341E+02 -0.95747836354E+02  0.19729499481E+03  0.17200000000E+03 0. -1.
         -6    1    1    2    0  502  0.62531646670E+01  0.11600204341E+02  0.65345867039E+03  0.67584458326E+03  0.17200000000E+03 0.  1.
</event>
<event>
 4    1 -0.6479440E-004  0.2126960E+03  0.7818608E-02  0.1139449E+00
         -5   -1    0    0    0  501 -0.00000000000E+00  0.00000000000E+00  0.94878215057E+02  0.94994556120E+02  0.47000000000E+01 0.  1.
          5   -1    0    0  501    0  0.00000000000E+00 -0.00000000000E+00 -0.14040768827E+04  0.14040847490E+04  0.47000000000E+01 0. -1.
          6    1    1    2  502    0 -0.12049339414E+03  0.33718429838E+02 -0.12638243905E+04  0.12815973161E+04  0.17200000000E+03 0. -1.
         -6    1    1    2    0  502  0.12049339414E+03 -0.33718429838E+02 -0.45374277094E+02  0.21748198906E+03  0.17200000000E+03 0.  1.
</event>
<event>
 4    1 -0.6479440E-004  0.2122084E+03  0.7818608E-02  0.1139829E+00
         -5   -1    0    0    0  501 -0.00000000000E+00  0.00000000000E+00  0.22336093133E+03  0.22341037497E+03  0.47000000000E+01 0.  1.
          5   -1    0    0  501    0  0.00000000000E+00 -0.00000000000E+00 -0.32560174646E+03  0.32563566650E+03  0.47000000000E+01 0. -1.
          6    1    1    2  502    0  0.10861709371E+02 -0.12381617519E+03 -0.22056898810E+03  0.30607695190E+03  0.17200000000E+03 0. -1.
         -6    1    1    2    0  502 -0.10861709371E+02  0.12381617519E+03  0.11832817298E+03  0.24296908957E+03  0.17200000000E+03 0.  1.
</event>
<event>
 4    1 -0.6479440E-004  0.2188426E+03  0.7818608E-02  0.1134749E+00
          5   -1    0    0  501    0  0.00000000000E+00  0.00000000000E+00  0.30158779547E+03  0.30162441608E+03  0.47000000000E+01 0. -1.
         -5   -1    0    0    0  501 -0.00000000000E+00 -0.00000000000E+00 -0.14796953247E+04  0.14797027890E+04  0.47000000000E+01 0.  1.
          6    1    1    2  502    0 -0.10399398142E+01 -0.13530339377E+03  0.25246553534E+03  0.33411216137E+03  0.17200000000E+03 0. -1.
         -6    1    1    2    0  502  0.10399398142E+01  0.13530339377E+03 -0.14305730646E+04  0.14472150438E+04  0.17200000000E+03 0.  1.
</event>
<event>
 4    1 -0.6479440E-004  0.1856978E+03  0.7818608E-02  0.1162400E+00
         -5   -1    0    0    0  501 -0.00000000000E+00  0.00000000000E+00  0.26952459408E+03  0.26956557053E+03  0.47000000000E+01 0.  1.
          5   -1    0    0  501    0  0.00000000000E+00 -0.00000000000E+00 -0.27154626287E+03  0.27158693430E+03  0.47000000000E+01 0. -1.
          6    1    1    2  502    0  0.20309457290E+02  0.66986670889E+02 -0.19780346371E+03  0.27131144169E+03  0.17200000000E+03 0. -1.
         -6    1    1    2    0  502 -0.20309457290E+02 -0.66986670889E+02  0.19578179492E+03  0.26984106314E+03  0.17200000000E+03 0.  1.
</event>
<event>
 4    1 -0.6479440E-004  0.1790855E+03  0.7818608E-02  0.1168691E+00
         -5   -1    0    0    0  501 -0.00000000000E+00  0.00000000000E+00  0.15776422468E+04  0.15776492477E+04  0.47000000000E+01 0.  1.
          5   -1    0    0  501    0  0.00000000000E+00 -0.00000000000E+00 -0.89244065007E+02  0.89367741042E+02  0.47000000000E+01 0. -1.
          6    1    1    2  502    0 -0.86256167181E+01 -0.49124649582E+02  0.11665636343E+02  0.17946509279E+03  0.17200000000E+03 0. -1.
         -6    1    1    2    0  502  0.86256167181E+01  0.49124649582E+02  0.14767325454E+04  0.14875518960E+04  0.17200000000E+03 0.  1.
</event>
<event>
 4    1 -0.6479440E-004  0.1765997E+03  0.7818608E-02  0.1171135E+00
         -5   -1    0    0    0  501 -0.00000000000E+00  0.00000000000E+00  0.22848375847E+03  0.22853209377E+03  0.47000000000E+01 0.  1.
          5   -1    0    0  501    0  0.00000000000E+00 -0.00000000000E+00 -0.29274459266E+03  0.29278231937E+03  0.47000000000E+01 0. -1.
          6    1    1    2  502    0  0.35872838674E+02 -0.17793493805E+02 -0.22258648351E+03  0.28413414370E+03  0.17200000000E+03 0. -1.
         -6    1    1    2    0  502 -0.35872838674E+02  0.17793493805E+02  0.15832564932E+03  0.23718026943E+03  0.17200000000E+03 0.  1.
</event>
<event>
 4    1 -0.6479440E-004  0.1733596E+03  0.7818608E-02  0.1174389E+00
          5   -1    0    0  501    0  0.00000000000E+00  0.00000000000E+00  0.44860259383E+02  0.45105796434E+02  0.47000000000E+01 0. -1.
         -5   -1    0    0    0  501 -0.00000000000E+00 -0.00000000000E+00 -0.12693915981E+04  0.12694002991E+04  0.47000000000E+01 0.  1.
          6    1    1    2  502    0 -0.73790398170E-01 -0.21668735698E+02 -0.15986648594E+03  0.23581949215E+03  0.17200000000E+03 0. -1.
         -6    1    1    2    0  502  0.73790398170E-01  0.21668735698E+02 -0.10646648528E+04  0.10786866034E+04  0.17200000000E+03 0.  1.
</event>
<event>
 4    1 -0.6479440E-004  0.1993601E+03  0.7818608E-02  0.1150280E+00
          5   -1    0    0  501    0  0.00000000000E+00  0.00000000000E+00  0.18335923646E+04  0.18335983883E+04  0.47000000000E+01 0. -1.
         -5   -1    0    0    0  501 -0.00000000000E+00 -0.00000000000E+00 -0.40720477279E+02  0.40990819336E+02  0.47000000000E+01 0.  1.
          6    1    1    2  502    0 -0.94032882638E+02 -0.36308039563E+02  0.15386946422E+04  0.15515558832E+04  0.17200000000E+03 0. -1.
         -6    1    1    2    0  502  0.94032882638E+02  0.36308039563E+02  0.25417724516E+03  0.32303332446E+03  0.17200000000E+03 0.  1.
</event>
<event>
 4    1 -0.6479440E-004  0.3310806E+03  0.7818608E-02  0.1070660E+00
         -5   -1    0    0    0  501 -0.00000000000E+00  0.00000000000E+00  0.29531405985E+03  0.29535145834E+03  0.47000000000E+01 0.  1.
          5   -1    0    0  501    0  0.00000000000E+00 -0.00000000000E+00 -0.50131377261E+03  0.50133580423E+03  0.47000000000E+01 0. -1.
          6    1    1    2  502    0  0.22226914146E+03 -0.17500502819E+03 -0.30600124049E+03  0.45083377238E+03  0.17200000000E+03 0. -1.
         -6    1    1    2    0  502 -0.22226914146E+03  0.17500502819E+03  0.10000152773E+03  0.34585349020E+03  0.17200000000E+03 0.  1.
</event>
<event>
 4    1 -0.6479440E-004  0.1954998E+03  0.7818608E-02  0.1153592E+00
          5   -1    0    0  501    0  0.00000000000E+00  0.00000000000E+00  0.37902061216E+03  0.37904975193E+03  0.47000000000E+01 0. -1.
         -5   -1    0    0    0  501 -0.00000000000E+00 -0.00000000000E+00 -0.17370596525E+03  0.17376953808E+03  0.47000000000E+01 0.  1.
          6    1    1    2  502    0  0.17563497427E+02  0.91256218739E+02  0.28172910343E+03  0.34291611455E+03  0.17200000000E+03 0. -1.
         -6    1    1    2    0  502 -0.17563497427E+02 -0.91256218739E+02 -0.76414456528E+02  0.20990317546E+03  0.17200000000E+03 0.  1.
</event>
<event>
 4    1 -0.6479440E-004  0.2003843E+03  0.7818608E-02  0.1149415E+00
         -5   -1    0    0    0  501 -0.00000000000E+00  0.00000000000E+00  0.65990010792E+02  0.66157172887E+02  0.47000000000E+01 0.  1.
          5   -1    0    0  501    0  0.00000000000E+00 -0.00000000000E+00 -0.67365236794E+03  0.67366876344E+03  0.47000000000E+01 0. -1.
          6    1    1    2  502    0 -0.54580619575E+02  0.87125356009E+02 -0.41970083875E+03  0.46508350405E+03  0.17200000000E+03 0. -1.
         -6    1    1    2    0  502  0.54580619575E+02 -0.87125356009E+02 -0.18796151840E+03  0.27474243227E+03  0.17200000000E+03 0.  1.
</event>
<event>
 4    1 -0.6479440E-004  0.2299120E+03  0.7818608E-02  0.1126702E+00
          5   -1    0    0  501    0  0.00000000000E+00  0.00000000000E+00  0.19432256208E+03  0.19437939225E+03  0.47000000000E+01 0. -1.
         -5   -1    0    0    0  501 -0.00000000000E+00 -0.00000000000E+00 -0.11936132217E+04  0.11936224751E+04  0.47000000000E+01 0.  1.
          6    1    1    2  502    0 -0.85069394866E+02 -0.12664404267E+03  0.11018733201E+03  0.25495247326E+03  0.17200000000E+03 0. -1.
         -6    1    1    2    0  502  0.85069394866E+02  0.12664404267E+03 -0.11094779916E+04  0.11330493941E+04  0.17200000000E+03 0.  1.
</event>
<event>
 4    1 -0.6479440E-004  0.1859399E+03  0.7818608E-02  0.1162175E+00
          5   -1    0    0  501    0  0.00000000000E+00  0.00000000000E+00  0.13038135700E+03  0.13046604253E+03  0.47000000000E+01 0. -1.
         -5   -1    0    0    0  501 -0.00000000000E+00 -0.00000000000E+00 -0.33704764714E+03  0.33708041539E+03  0.47000000000E+01 0.  1.
          6    1    1    2  502    0  0.32542540749E+02  0.62694653487E+02  0.47445618067E+01  0.18600039624E+03  0.17200000000E+03 0. -1.
         -6    1    1    2    0  502 -0.32542540749E+02 -0.62694653487E+02 -0.21141085194E+03  0.28154606169E+03  0.17200000000E+03 0.  1.
</event>
<event>
 4    1 -0.6479440E-004  0.2230472E+03  0.7818608E-02  0.1131631E+00
         -5   -1    0    0    0  501 -0.00000000000E+00  0.00000000000E+00  0.11087500543E+03  0.11097457740E+03  0.47000000000E+01 0.  1.
          5   -1    0    0  501    0  0.00000000000E+00 -0.00000000000E+00 -0.70547513322E+03  0.70549078917E+03  0.47000000000E+01 0. -1.
          6    1    1    2  502    0 -0.13398752162E+03 -0.47046627959E+02 -0.54371559402E+03  0.58768757714E+03  0.17200000000E+03 0. -1.
         -6    1    1    2    0  502  0.13398752162E+03  0.47046627959E+02 -0.50884533782E+02  0.22877778942E+03  0.17200000000E+03 0.  1.
</event>
<event>
 4    1 -0.6479440E-004  0.3222288E+03  0.7818608E-02  0.1074628E+00
          5   -1    0    0  501    0  0.00000000000E+00  0.00000000000E+00  0.22032733313E+03  0.22037745739E+03  0.47000000000E+01 0. -1.
         -5   -1    0    0    0  501 -0.00000000000E+00 -0.00000000000E+00 -0.84807225834E+03  0.84808528190E+03  0.47000000000E+01 0.  1.
          6    1    1    2  502    0 -0.21980840710E+03 -0.16103307212E+03  0.42270752490E+02  0.32498954239E+03  0.17200000000E+03 0. -1.
         -6    1    1    2    0  502  0.21980840710E+03  0.16103307212E+03 -0.67001567770E+03  0.74347319690E+03  0.17200000000E+03 0.  1.
</event>
<event>
 4    1 -0.6479440E-004  0.1837994E+03  0.7818608E-02  0.1164176E+00
         -5   -1    0    0    0  501 -0.00000000000E+00  0.00000000000E+00  0.24880081080E+04  0.24880125473E+04  0.47000000000E+01 0.  1.
          5   -1    0    0  501    0  0.00000000000E+00 -0.00000000000E+00 -0.76651474641E+02  0.76795433228E+02  0.47000000000E+01 0. -1.
          6    1    1    2  502    0 -0.54348502087E+02  0.35276713890E+02  0.42263658101E+02  0.18859592524E+03  0.17200000000E+03 0. -1.
         -6    1    1    2    0  502  0.54348502087E+02 -0.35276713890E+02  0.23690929752E+04  0.23762120553E+04  0.17200000000E+03 0.  1.
</event>
<event>
 4    1 -0.6479440E-004  0.1912886E+03  0.7818608E-02  0.1157304E+00
          5   -1    0    0  501    0  0.00000000000E+00  0.00000000000E+00  0.29678612468E+03  0.29682333770E+03  0.47000000000E+01 0. -1.
         -5   -1    0    0    0  501 -0.00000000000E+00 -0.00000000000E+00 -0.75947747309E+03  0.75949201584E+03  0.47000000000E+01 0.  1.
          6    1    1    2  502    0  0.83214073571E+02 -0.90969595643E+01  0.25205042986E+03  0.31641864027E+03  0.17200000000E+03 0. -1.
         -6    1    1    2    0  502 -0.83214073571E+02  0.90969595643E+01 -0.71474177827E+03  0.73989671328E+03  0.17200000000E+03 0.  1.
</event>
<event>
 4    1 -0.6479440E-004  0.1761026E+03  0.7818608E-02  0.1171629E+00
          5   -1    0    0  501    0  0.00000000000E+00  0.00000000000E+00  0.84389495758E+02  0.84520275641E+02  0.47000000000E+01 0. -1.
         -5   -1    0    0    0  501 -0.00000000000E+00 -0.00000000000E+00 -0.51908379304E+03  0.51910507047E+03  0.47000000000E+01 0.  1.
          6    1    1    2  502    0  0.21190594298E+02 -0.31290479070E+02 -0.54037326469E+02  0.18420686203E+03  0.17200000000E+03 0. -1.
         -6    1    1    2    0  502 -0.21190594298E+02  0.31290479070E+02 -0.38065697081E+03  0.41941848408E+03  0.17200000000E+03 0.  1.
</event>
<event>
 4    1 -0.6479440E-004  0.2877193E+03  0.7818608E-02  0.1091546E+00
         -5   -1    0    0    0  501 -0.00000000000E+00  0.00000000000E+00  0.23233650222E+04  0.23233697760E+04  0.47000000000E+01 0.  1.
          5   -1    0    0  501    0  0.00000000000E+00 -0.00000000000E+00 -0.30051602838E+03  0.30055277958E+03  0.47000000000E+01 0. -1.
          6    1    1    2  502    0  0.17595227902E+03  0.14912807248E+03 -0.22031448522E+03  0.36238220002E+03  0.17200000000E+03 0. -1.
         -6    1    1    2    0  502 -0.17595227902E+03 -0.14912807248E+03  0.22431634790E+04  0.22615403556E+04  0.17200000000E+03 0.  1.
</event>
<event>
 4    1 -0.6479440E-004  0.1951801E+03  0.7818608E-02  0.1153870E+00
         -5   -1    0    0    0  501 -0.00000000000E+00  0.00000000000E+00  0.34806649091E+02  0.35122540070E+02  0.47000000000E+01 0.  1.
          5   -1    0    0  501    0  0.00000000000E+00 -0.00000000000E+00 -0.23419787209E+04  0.23419834369E+04  0.47000000000E+01 0. -1.
          6    1    1    2  502    0  0.39185127338E+02 -0.83521221944E+02 -0.20228091386E+04  0.20322037496E+04  0.17200000000E+03 0. -1.
         -6    1    1    2    0  502 -0.39185127338E+02  0.83521221944E+02 -0.28436293321E+03  0.34490222746E+03  0.17200000000E+03 0.  1.
</event>
<event>
 4    1 -0.6479440E-004  0.1908638E+03  0.7818608E-02  0.1157685E+00
          5   -1    0    0  501    0  0.00000000000E+00  0.00000000000E+00  0.78802580873E+03  0.78803982464E+03  0.47000000000E+01 0. -1.
         -5   -1    0    0    0  501 -0.00000000000E+00 -0.00000000000E+00 -0.72118793582E+02  0.72271781407E+02  0.47000000000E+01 0.  1.
          6    1    1    2  502    0  0.17061769339E+02  0.80956158491E+02  0.61597837387E+03  0.64487080927E+03  0.17200000000E+03 0. -1.
         -6    1    1    2    0  502 -0.17061769339E+02 -0.80956158491E+02  0.99928641277E+02  0.21544079678E+03  0.17200000000E+03 0.  1.
</event>
<event>
 4    1 -0.6479440E-004  0.1731104E+03  0.7818608E-02  0.1174642E+00
          5   -1    0    0  501    0  0.00000000000E+00  0.00000000000E+00  0.57859213408E+02  0.58049793937E+02  0.47000000000E+01 0. -1.
         -5   -1    0    0    0  501 -0.00000000000E+00 -0.00000000000E+00 -0.63994195743E+03  0.63995921657E+03  0.47000000000E+01 0.  1.
          6    1    1    2  502    0 -0.16837086321E+02 -0.99869154256E+01 -0.13802062964E+03  0.22139765166E+03  0.17200000000E+03 0. -1.
         -6    1    1    2    0  502  0.16837086321E+02  0.99869154256E+01 -0.44406211438E+03  0.47661135884E+03  0.17200000000E+03 0.  1.
</event>
<event>
 4    1 -0.6479440E-004  0.1860536E+03  0.7818608E-02  0.1162070E+00
          5   -1    0    0  501    0  0.00000000000E+00  0.00000000000E+00  0.49009610468E+02  0.49234458647E+02  0.47000000000E+01 0. -1.
         -5   -1    0    0    0  501 -0.00000000000E+00 -0.00000000000E+00 -0.15892553748E+04  0.15892623245E+04  0.47000000000E+01 0.  1.
          6    1    1    2  502    0  0.43384023317E+02 -0.56122686111E+02 -0.15888824617E+03  0.24466590311E+03  0.17200000000E+03 0. -1.
         -6    1    1    2    0  502 -0.43384023317E+02  0.56122686111E+02 -0.13813575181E+04  0.13938308801E+04  0.17200000000E+03 0.  1.
</event>
<event>
 4    1 -0.6479440E-004  0.1750165E+03  0.7818608E-02  0.1172715E+00
         -5   -1    0    0    0  501 -0.00000000000E+00  0.00000000000E+00  0.63580116308E+02  0.63753597465E+02  0.47000000000E+01 0.  1.
          5   -1    0    0  501    0  0.00000000000E+00 -0.00000000000E+00 -0.64138924801E+03  0.64140646821E+03  0.47000000000E+01 0. -1.
          6    1    1    2  502    0  0.10462997762E+02 -0.30615342872E+02 -0.46523212641E+03  0.49706307949E+03  0.17200000000E+03 0. -1.
         -6    1    1    2    0  502 -0.10462997762E+02  0.30615342872E+02 -0.11257700529E+03  0.20809698619E+03  0.17200000000E+03 0.  1.
</event>
<event>
 4    1 -0.6479440E-004  0.1723101E+03  0.7818608E-02  0.1175460E+00
          5   -1    0    0  501    0  0.00000000000E+00  0.00000000000E+00  0.14751281243E+03  0.14758766829E+03  0.47000000000E+01 0. -1.
         -5   -1    0    0    0  501 -0.00000000000E+00 -0.00000000000E+00 -0.32408905401E+03  0.32412313236E+03  0.47000000000E+01 0.  1.
          6    1    1    2  502    0  0.38332255744E+00 -0.10325082669E+02  0.56965635022E+02  0.18148233479E+03  0.17200000000E+03 0. -1.
         -6    1    1    2    0  502 -0.38332255744E+00  0.10325082669E+02 -0.23354187660E+03  0.29022846586E+03  0.17200000000E+03 0.  1.
</event>
<event>
 4    1 -0.6479440E-004  0.1986398E+03  0.7818608E-02  0.1150892E+00
         -5   -1    0    0    0  501 -0.00000000000E+00  0.00000000000E+00  0.60843764974E+03  0.60845580252E+03  0.47000000000E+01 0.  1.
          5   -1    0    0  501    0  0.00000000000E+00 -0.00000000000E+00 -0.98651734785E+02  0.98763630837E+02  0.47000000000E+01 0. -1.
          6    1    1    2  502    0  0.83444411972E+02  0.53951706699E+02  0.47757743801E+02  0.20430016798E+03  0.17200000000E+03 0. -1.
         -6    1    1    2    0  502 -0.83444411972E+02 -0.53951706699E+02  0.46202817115E+03  0.50291926537E+03  0.17200000000E+03 0.  1.
</event>
<event>
 4    1 -0.6479440E-004  0.2098352E+03  0.7818608E-02  0.1141697E+00
          5   -1    0    0  501    0  0.00000000000E+00  0.00000000000E+00  0.29077713879E+03  0.29081512073E+03  0.47000000000E+01 0. -1.
         -5   -1    0    0    0  501 -0.00000000000E+00 -0.00000000000E+00 -0.30800173347E+03  0.30803759157E+03  0.47000000000E+01 0.  1.
          6    1    1    2  502    0  0.22153382264E+02  0.11813576745E+03  0.20490316912E+03  0.29328508420E+03  0.17200000000E+03 0. -1.
         -6    1    1    2    0  502 -0.22153382264E+02 -0.11813576745E+03 -0.22212776379E+03  0.30556762810E+03  0.17200000000E+03 0.  1.
</event>
<event>
 4    1 -0.6479440E-004  0.1855233E+03  0.7818608E-02  0.1162562E+00
          5   -1    0    0  501    0  0.00000000000E+00  0.00000000000E+00  0.76417333168E+03  0.76418778507E+03  0.47000000000E+01 0. -1.
         -5   -1    0    0    0  501 -0.00000000000E+00 -0.00000000000E+00 -0.10426388291E+04  0.10426494223E+04  0.47000000000E+01 0.  1.
          6    1    1    2  502    0 -0.35956508988E+02 -0.59515063501E+02  0.74445771920E+03  0.76722630885E+03  0.17200000000E+03 0. -1.
         -6    1    1    2    0  502  0.35956508988E+02  0.59515063501E+02 -0.10229232166E+04  0.10396108986E+04  0.17200000000E+03 0.  1.
</event>
<event>
 4    1 -0.6479440E-004  0.1934323E+03  0.7818608E-02  0.1155402E+00
         -5   -1    0    0    0  501 -0.00000000000E+00  0.00000000000E+00  0.31071801403E+03  0.31075355870E+03  0.47000000000E+01 0.  1.
          5   -1    0    0  501    0  0.00000000000E+00 -0.00000000000E+00 -0.13368142195E+03  0.13376401824E+03  0.47000000000E+01 0. -1.
          6    1    1    2  502    0  0.83891454818E+02 -0.28183139652E+02  0.18309467869E+02  0.19429694327E+03  0.17200000000E+03 0. -1.
         -6    1    1    2    0  502 -0.83891454818E+02  0.28183139652E+02  0.15872712421E+03  0.25022063367E+03  0.17200000000E+03 0.  1.
</event>
<event>
 4    1 -0.6479440E-004  0.2106342E+03  0.7818608E-02  0.1141065E+00
          5   -1    0    0  501    0  0.00000000000E+00  0.00000000000E+00  0.54974004638E+02  0.55174551977E+02  0.47000000000E+01 0. -1.
         -5   -1    0    0    0  501 -0.00000000000E+00 -0.00000000000E+00 -0.15721518020E+04  0.15721588274E+04  0.47000000000E+01 0.  1.
          6    1    1    2  502    0  0.58987277182E+02  0.10631688126E+03 -0.19038380648E+03  0.28392388395E+03  0.17200000000E+03 0. -1.
         -6    1    1    2    0  502 -0.58987277182E+02 -0.10631688126E+03 -0.13267939909E+04  0.13434094954E+04  0.17200000000E+03 0.  1.
</event>
<event>
 4    1 -0.6479440E-004  0.1851426E+03  0.7818608E-02  0.1162917E+00
          5   -1    0    0  501    0  0.00000000000E+00  0.00000000000E+00  0.41200258077E+03  0.41202938799E+03  0.47000000000E+01 0. -1.
         -5   -1    0    0    0  501 -0.00000000000E+00 -0.00000000000E+00 -0.19604085241E+03  0.19609718462E+03  0.47000000000E+01 0.  1.
          6    1    1    2  502    0  0.63773041952E+02  0.25035255261E+02  0.33869697736E+03  0.38599664164E+03  0.17200000000E+03 0. -1.
         -6    1    1    2    0  502 -0.63773041952E+02 -0.25035255261E+02 -0.12273524899E+03  0.22212993097E+03  0.17200000000E+03 0.  1.
</event>
<event>
 4    1 -0.6479440E-004  0.1741453E+03  0.7818608E-02  0.1173593E+00
         -5   -1    0    0    0  501 -0.00000000000E+00  0.00000000000E+00  0.41172687795E+03  0.41175370311E+03  0.47000000000E+01 0.  1.
          5   -1    0    0  501    0  0.00000000000E+00 -0.00000000000E+00 -0.11932999255E+03  0.11942251514E+03  0.47000000000E+01 0. -1.
          6    1    1    2  502    0  0.15779410895E+02  0.22216667712E+02 -0.18196765775E+02  0.17509338199E+03  0.17200000000E+03 0. -1.
         -6    1    1    2    0  502 -0.15779410895E+02 -0.22216667712E+02  0.31059365117E+03  0.35608283626E+03  0.17200000000E+03 0.  1.
</event>
<event>
 4    1 -0.6479440E-004  0.1763599E+03  0.7818608E-02  0.1171373E+00
          5   -1    0    0  501    0  0.00000000000E+00  0.00000000000E+00  0.10467570945E+03  0.10478117268E+03  0.47000000000E+01 0. -1.
         -5   -1    0    0    0  501 -0.00000000000E+00 -0.00000000000E+00 -0.48067764117E+03  0.48070061859E+03  0.47000000000E+01 0.  1.
          6    1    1    2  502    0  0.37116665539E+02  0.11882122010E+02 -0.69974239027E+01  0.17649871282E+03  0.17200000000E+03 0. -1.
         -6    1    1    2    0  502 -0.37116665539E+02 -0.11882122010E+02 -0.36900450781E+03  0.40898307846E+03  0.17200000000E+03 0.  1.
</event>
<event>
 4    1 -0.6479440E-004  0.2120363E+03  0.7818608E-02  0.1139964E+00
          5   -1    0    0  501    0  0.00000000000E+00  0.00000000000E+00  0.22067925950E+03  0.22072930384E+03  0.47000000000E+01 0. -1.
         -5   -1    0    0    0  501 -0.00000000000E+00 -0.00000000000E+00 -0.62932807819E+03  0.62934562841E+03  0.47000000000E+01 0.  1.
          6    1    1    2  502    0  0.11029059098E+03  0.56668980251E+02  0.14522538911E+03  0.25700155918E+03  0.17200000000E+03 0. -1.
         -6    1    1    2    0  502 -0.11029059098E+03 -0.56668980251E+02 -0.55387420779E+03  0.59307337306E+03  0.17200000000E+03 0.  1.
</event>
<event>
 4    1 -0.6479440E-004  0.2008554E+03  0.7818608E-02  0.1149019E+00
         -5   -1    0    0    0  501 -0.00000000000E+00  0.00000000000E+00  0.10638445043E+03  0.10648822139E+03  0.47000000000E+01 0.  1.
          5   -1    0    0  501    0  0.00000000000E+00 -0.00000000000E+00 -0.40374427266E+03  0.40377162816E+03  0.47000000000E+01 0. -1.
          6    1    1    2  502    0 -0.38461369251E+02 -0.96330845821E+02 -0.21193860590E+03  0.29199465998E+03  0.17200000000E+03 0. -1.
         -6    1    1    2    0  502  0.38461369251E+02  0.96330845821E+02 -0.85421216325E+02  0.21826518957E+03  0.17200000000E+03 0.  1.
</event>
<event>
 4    1 -0.6479440E-004  0.2717586E+03  0.7818608E-02  0.1100277E+00
         -5   -1    0    0    0  501 -0.00000000000E+00  0.00000000000E+00  0.52967179949E+03  0.52969265161E+03  0.47000000000E+01 0.  1.
          5   -1    0    0  501    0  0.00000000000E+00 -0.00000000000E+00 -0.25699796857E+03  0.25704094197E+03  0.47000000000E+01 0. -1.
          6    1    1    2  502    0  0.19625086200E+03  0.75857300866E+02 -0.12974954729E+03  0.30114394557E+03  0.17200000000E+03 0. -1.
         -6    1    1    2    0  502 -0.19625086200E+03 -0.75857300866E+02  0.40242337821E+03  0.48558964802E+03  0.17200000000E+03 0.  1.
</event>
<event>
 4    1 -0.6479440E-004  0.2241702E+03  0.7818608E-02  0.1130812E+00
          5   -1    0    0  501    0  0.00000000000E+00  0.00000000000E+00  0.13867870256E+03  0.13875832423E+03  0.47000000000E+01 0. -1.
         -5   -1    0    0    0  501 -0.00000000000E+00 -0.00000000000E+00 -0.69622128820E+03  0.69623715223E+03  0.47000000000E+01 0.  1.
          6    1    1    2  502    0 -0.38770395617E+01 -0.14371235388E+03  0.10401662441E+02  0.22441137822E+03  0.17200000000E+03 0. -1.
         -6    1    1    2    0  502  0.38770395617E+01  0.14371235388E+03 -0.56794424808E+03  0.61058409824E+03  0.17200000000E+03 0.  1.
</event>
<event>
 4    1 -0.6479440E-004  0.1741788E+03  0.7818608E-02  0.1173559E+00
         -5   -1    0    0    0  501 -0.00000000000E+00  0.00000000000E+00  0.10222354361E+03  0.10233153408E+03  0.47000000000E+01 0.  1.
          5   -1    0    0  501    0  0.00000000000E+00 -0.00000000000E+00 -0.38856845144E+03  0.38859687525E+03  0.47000000000E+01 0. -1.
          6    1    1    2  502    0 -0.13413104859E+01  0.27430910971E+02 -0.26263474125E+03  0.31514323934E+03  0.17200000000E+03 0. -1.
         -6    1    1    2    0  502  0.13413104859E+01 -0.27430910971E+02 -0.23710166587E+02  0.17578516999E+03  0.17200000000E+03 0.  1.
</event>
<event>
 4    1 -0.6479440E-004  0.2308120E+03  0.7818608E-02  0.1126070E+00
         -5   -1    0    0    0  501 -0.00000000000E+00  0.00000000000E+00  0.60380636662E+03  0.60382465863E+03  0.47000000000E+01 0.  1.
          5   -1    0    0  501    0  0.00000000000E+00 -0.00000000000E+00 -0.67927366370E+03  0.67928992352E+03  0.47000000000E+01 0. -1.
          6    1    1    2  502    0 -0.14228543597E+03  0.58694598243E+02 -0.63617882235E+03  0.67675526977E+03  0.17200000000E+03 0. -1.
         -6    1    1    2    0  502  0.14228543597E+03 -0.58694598243E+02  0.56071152526E+03  0.60635931239E+03  0.17200000000E+03 0.  1.
</event>
<event>
 4    1 -0.6479440E-004  0.2079119E+03  0.7818608E-02  0.1143230E+00
          5   -1    0    0  501    0  0.00000000000E+00  0.00000000000E+00  0.28817534282E+03  0.28821366764E+03  0.47000000000E+01 0. -1.
         -5   -1    0    0    0  501 -0.00000000000E+00 -0.00000000000E+00 -0.16583774237E+03  0.16590433024E+03  0.47000000000E+01 0.  1.
          6    1    1    2  502    0  0.50707399312E+02  0.10522419908E+03  0.13149466189E+03  0.24600450915E+03  0.17200000000E+03 0. -1.
         -6    1    1    2    0  502 -0.50707399312E+02 -0.10522419908E+03 -0.91570614371E+01  0.20811348873E+03  0.17200000000E+03 0.  1.
</event>
<event>
 4    1 -0.6479440E-004  0.1787412E+03  0.7818608E-02  0.1169027E+00
          5   -1    0    0  501    0  0.00000000000E+00  0.00000000000E+00  0.10814541303E+03  0.10824749585E+03  0.47000000000E+01 0. -1.
         -5   -1    0    0    0  501 -0.00000000000E+00 -0.00000000000E+00 -0.10039856070E+04  0.10039966081E+04  0.47000000000E+01 0.  1.
          6    1    1    2  502    0  0.17299869499E+02  0.45443816569E+02  0.19329031991E+02  0.17978330686E+03  0.17200000000E+03 0. -1.
         -6    1    1    2    0  502 -0.17299869499E+02 -0.45443816569E+02 -0.91516922601E+03  0.93246079713E+03  0.17200000000E+03 0.  1.
</event>
<event>
 4    1 -0.6479440E-004  0.2049477E+03  0.7818608E-02  0.1145631E+00
         -5   -1    0    0    0  501 -0.00000000000E+00  0.00000000000E+00  0.25545012843E+03  0.25549336218E+03  0.47000000000E+01 0.  1.
          5   -1    0    0  501    0  0.00000000000E+00 -0.00000000000E+00 -0.19587418707E+03  0.19593056719E+03  0.47000000000E+01 0. -1.
          6    1    1    2  502    0  0.96830663580E+02 -0.55166791046E+02  0.12032965366E+03  0.23766105654E+03  0.17200000000E+03 0.  1.
         -6    1    1    2    0  502 -0.96830663580E+02  0.55166791046E+02 -0.60753712297E+02  0.21376287283E+03  0.17200000000E+03 0. -1.
</event>
<event>
 4    1 -0.6479440E-004  0.2033898E+03  0.7818608E-02  0.1146910E+00
          5   -1    0    0  501    0  0.00000000000E+00  0.00000000000E+00  0.38843527299E+03  0.38846370654E+03  0.47000000000E+01 0. -1.
         -5   -1    0    0    0  501 -0.00000000000E+00 -0.00000000000E+00 -0.16165939637E+03  0.16172770460E+03  0.47000000000E+01 0.  1.
          6    1    1    2  502    0 -0.70920055012E+02 -0.82181316821E+02  0.27414870271E+03  0.34135748744E+03  0.17200000000E+03 0. -1.
         -6    1    1    2    0  502  0.70920055012E+02  0.82181316821E+02 -0.47372826093E+02  0.20883392370E+03  0.17200000000E+03 0.  1.
</event>
<event>
 4    1 -0.6479440E-004  0.1755904E+03  0.7818608E-02  0.1172140E+00
         -5   -1    0    0    0  501 -0.00000000000E+00  0.00000000000E+00  0.52008850320E+03  0.52010973953E+03  0.47000000000E+01 0.  1.
          5   -1    0    0  501    0  0.00000000000E+00 -0.00000000000E+00 -0.11550138488E+03  0.11559697189E+03  0.47000000000E+01 0. -1.
          6    1    1    2  502    0  0.26939714981E+02 -0.22852604749E+02 -0.19534704381E+02  0.17667369488E+03  0.17200000000E+03 0. -1.
         -6    1    1    2    0  502 -0.26939714981E+02  0.22852604749E+02  0.42412182270E+03  0.45903301654E+03  0.17200000000E+03 0.  1.
</event>
<event>
 4    1 -0.6479440E-004  0.2683457E+03  0.7818608E-02  0.1102230E+00
         -5   -1    0    0    0  501 -0.00000000000E+00  0.00000000000E+00  0.27244477237E+03  0.27248530968E+03  0.47000000000E+01 0.  1.
          5   -1    0    0  501    0  0.00000000000E+00 -0.00000000000E+00 -0.33065458952E+03  0.33068799127E+03  0.47000000000E+01 0. -1.
          6    1    1    2  502    0  0.11262354839E+03  0.17245683020E+03 -0.16426454934E+03  0.31463036106E+03  0.17200000000E+03 0. -1.
         -6    1    1    2    0  502 -0.11262354839E+03 -0.17245683020E+03  0.10605473219E+03  0.28854293988E+03  0.17200000000E+03 0.  1.
</event>
<event>
 4    1 -0.6479440E-004  0.2145228E+03  0.7818608E-02  0.1138034E+00
         -5   -1    0    0    0  501 -0.00000000000E+00  0.00000000000E+00  0.68809057945E+02  0.68969387813E+02  0.47000000000E+01 0.  1.
          5   -1    0    0  501    0  0.00000000000E+00 -0.00000000000E+00 -0.12339059335E+04  0.12339148847E+04  0.47000000000E+01 0. -1.
          6    1    1    2  502    0  0.26946568384E+02 -0.12533922365E+03 -0.10237426696E+04  0.10459775773E+04  0.17200000000E+03 0. -1.
         -6    1    1    2    0  502 -0.26946568384E+02  0.12533922365E+03 -0.14135420592E+03  0.25690669525E+03  0.17200000000E+03 0.  1.
</event>
<event>
 4    1 -0.6479440E-004  0.2647309E+03  0.7818608E-02  0.1104334E+00
          5   -1    0    0  501    0  0.00000000000E+00  0.00000000000E+00  0.24346329281E+03  0.24350865477E+03  0.47000000000E+01 0. -1.
         -5   -1    0    0    0  501 -0.00000000000E+00 -0.00000000000E+00 -0.47883432330E+03  0.47885738918E+03  0.47000000000E+01 0.  1.
          6    1    1    2  502    0  0.19298700073E+03 -0.57047784014E+02  0.11045152153E+03  0.28684834098E+03  0.17200000000E+03 0. -1.
         -6    1    1    2    0  502 -0.19298700073E+03  0.57047784014E+02 -0.34582255202E+03  0.43551770297E+03  0.17200000000E+03 0.  1.
</event>
<event>
 4    1 -0.6479440E-004  0.1975607E+03  0.7818608E-02  0.1151814E+00
         -5   -1    0    0    0  501 -0.00000000000E+00  0.00000000000E+00  0.13067316540E+04  0.13067401064E+04  0.47000000000E+01 0.  1.
          5   -1    0    0  501    0  0.00000000000E+00 -0.00000000000E+00 -0.37374484150E+02  0.37668847414E+02  0.47000000000E+01 0. -1.
          6    1    1    2  502    0  0.93161419220E+02  0.27697837097E+02  0.33095946001E+03  0.38544050693E+03  0.17200000000E+03 0. -1.
         -6    1    1    2    0  502 -0.93161419220E+02 -0.27697837097E+02  0.93839770985E+03  0.95896844686E+03  0.17200000000E+03 0.  1.
</event>
<event>
 4    1 -0.6479440E-004  0.1762335E+03  0.7818608E-02  0.1171499E+00
         -5   -1    0    0    0  501 -0.00000000000E+00  0.00000000000E+00  0.10666033561E+03  0.10676383841E+03  0.47000000000E+01 0.  1.
          5   -1    0    0  501    0  0.00000000000E+00 -0.00000000000E+00 -0.43165140706E+03  0.43167699408E+03  0.47000000000E+01 0. -1.
          6    1    1    2  502    0  0.31713950671E+02  0.21644121800E+02 -0.31619125675E+03  0.36198778090E+03  0.17200000000E+03 0. -1.
         -6    1    1    2    0  502 -0.31713950671E+02 -0.21644121800E+02 -0.87998147030E+01  0.17645305159E+03  0.17200000000E+03 0.  1.
</event>
<event>
 4    1 -0.6479440E-004  0.1961723E+03  0.7818608E-02  0.1153009E+00
         -5   -1    0    0    0  501 -0.00000000000E+00  0.00000000000E+00  0.32162186001E+03  0.32165619975E+03  0.47000000000E+01 0.  1.
          5   -1    0    0  501    0  0.00000000000E+00 -0.00000000000E+00 -0.19811778572E+03  0.19817352755E+03  0.47000000000E+01 0. -1.
          6    1    1    2  502    0  0.25210188509E+02 -0.90906603903E+02 -0.10186317900E+03  0.22104223912E+03  0.17200000000E+03 0. -1.
         -6    1    1    2    0  502 -0.25210188509E+02  0.90906603903E+02  0.22536725329E+03  0.29878748818E+03  0.17200000000E+03 0.  1.
</event>
<event>
 4    1 -0.6479440E-004  0.2006064E+03  0.7818608E-02  0.1149228E+00
         -5   -1    0    0    0  501 -0.00000000000E+00  0.00000000000E+00  0.62461321374E+03  0.62463089644E+03  0.47000000000E+01 0.  1.
          5   -1    0    0  501    0  0.00000000000E+00 -0.00000000000E+00 -0.14571884644E+03  0.14579462339E+03  0.47000000000E+01 0. -1.
          6    1    1    2  502    0 -0.36893337572E+02 -0.96425223568E+02 -0.48312608411E+02  0.20634207091E+03  0.17200000000E+03 0. -1.
         -6    1    1    2    0  502  0.36893337572E+02  0.96425223568E+02  0.52720697571E+03  0.56408344891E+03  0.17200000000E+03 0.  1.
</event>
<event>
 4    1 -0.6479440E-004  0.1839755E+03  0.7818608E-02  0.1164010E+00
          5   -1    0    0  501    0  0.00000000000E+00  0.00000000000E+00  0.30505049871E+02  0.30864997451E+02  0.47000000000E+01 0. -1.
         -5   -1    0    0    0  501 -0.00000000000E+00 -0.00000000000E+00 -0.12370035605E+04  0.12370124893E+04  0.47000000000E+01 0.  1.
          6    1    1    2  502    0 -0.12938354194E+02  0.63996779093E+02 -0.39438138864E+03  0.43518233931E+03  0.17200000000E+03 0. -1.
         -6    1    1    2    0  502  0.12938354194E+02 -0.63996779093E+02 -0.81211712199E+03  0.83269514744E+03  0.17200000000E+03 0.  1.
</event>
<event>
 4    1 -0.6479440E-004  0.4659807E+03  0.7818608E-02  0.1023061E+00
         -5   -1    0    0    0  501 -0.00000000000E+00  0.00000000000E+00  0.12199820958E+03  0.12208871013E+03  0.47000000000E+01 0.  1.
          5   -1    0    0  501    0  0.00000000000E+00 -0.00000000000E+00 -0.24535184861E+04  0.24535229878E+04  0.47000000000E+01 0. -1.
          6    1    1    2  502    0  0.36109816105E+03  0.23908603185E+03 -0.18409321503E+04  0.18989916257E+04  0.17200000000E+03 0. -1.
         -6    1    1    2    0  502 -0.36109816105E+03 -0.23908603185E+03 -0.49058812629E+03  0.67662007227E+03  0.17200000000E+03 0.  1.
</event>
<event>
 4    1 -0.6479440E-004  0.1746597E+03  0.7818608E-02  0.1173074E+00
          5   -1    0    0  501    0  0.00000000000E+00  0.00000000000E+00  0.61729217031E+03  0.61731006271E+03  0.47000000000E+01 0. -1.
         -5   -1    0    0    0  501 -0.00000000000E+00 -0.00000000000E+00 -0.16632735702E+03  0.16639374896E+03  0.47000000000E+01 0.  1.
          6    1    1    2  502    0 -0.29784618573E+02 -0.59058017408E+01  0.55402546185E+03  0.58090465171E+03  0.17200000000E+03 0. -1.
         -6    1    1    2    0  502  0.29784618573E+02  0.59058017408E+01 -0.10306064857E+03  0.20279915996E+03  0.17200000000E+03 0.  1.
</event>
<event>
 4    1 -0.6479440E-004  0.1777121E+03  0.7818608E-02  0.1170036E+00
          5   -1    0    0  501    0  0.00000000000E+00  0.00000000000E+00  0.16430708899E+04  0.16430776120E+04  0.47000000000E+01 0. -1.
         -5   -1    0    0    0  501 -0.00000000000E+00 -0.00000000000E+00 -0.84045592165E+02  0.84176906348E+02  0.47000000000E+01 0.  1.
          6    1    1    2  502    0  0.19752427736E+02  0.40092657424E+02  0.15380798501E+04  0.15483123731E+04  0.17200000000E+03 0. -1.
         -6    1    1    2    0  502 -0.19752427736E+02 -0.40092657424E+02  0.20945447672E+02  0.17894214528E+03  0.17200000000E+03 0.  1.
</event>
<event>
 4    1 -0.6479440E-004  0.2620759E+03  0.7818608E-02  0.1105902E+00
         -5   -1    0    0    0  501 -0.00000000000E+00  0.00000000000E+00  0.20174187385E+04  0.20174242133E+04  0.47000000000E+01 0.  1.
          5   -1    0    0  501    0  0.00000000000E+00 -0.00000000000E+00 -0.11463768533E+03  0.11473399190E+03  0.47000000000E+01 0. -1.
          6    1    1    2  502    0 -0.13262606897E+03  0.14666317975E+03  0.57435724449E+02  0.26829577878E+03  0.17200000000E+03 0. -1.
         -6    1    1    2    0  502  0.13262606897E+03 -0.14666317975E+03  0.18453453287E+04  0.18638624264E+04  0.17200000000E+03 0.  1.
</event>
<event>
 4    1 -0.6479440E-004  0.1862596E+03  0.7818608E-02  0.1161879E+00
         -5   -1    0    0    0  501 -0.00000000000E+00  0.00000000000E+00  0.81530051092E+03  0.81531405796E+03  0.47000000000E+01 0.  1.
          5   -1    0    0  501    0  0.00000000000E+00 -0.00000000000E+00 -0.89720935116E+02  0.89843954711E+02  0.47000000000E+01 0. -1.
          6    1    1    2  502    0  0.63208899434E+02 -0.33365854655E+02  0.34512397423E+02  0.18943006836E+03  0.17200000000E+03 0. -1.
         -6    1    1    2    0  502 -0.63208899434E+02  0.33365854655E+02  0.69106717838E+03  0.71572794431E+03  0.17200000000E+03 0.  1.
</event>
<event>
 4    1 -0.6479440E-004  0.2077990E+03  0.7818608E-02  0.1143321E+00
          5   -1    0    0  501    0  0.00000000000E+00  0.00000000000E+00  0.29422459107E+03  0.29426212803E+03  0.47000000000E+01 0. -1.
         -5   -1    0    0    0  501 -0.00000000000E+00 -0.00000000000E+00 -0.46822410610E+03  0.46824769464E+03  0.47000000000E+01 0.  1.
          6    1    1    2  502    0 -0.88944034678E+02 -0.75401470565E+02  0.22891616942E+03  0.30916506220E+03  0.17200000000E+03 0. -1.
         -6    1    1    2    0  502  0.88944034678E+02  0.75401470565E+02 -0.40291568444E+03  0.45334476046E+03  0.17200000000E+03 0.  1.
</event>
<event>
 4    1 -0.6479440E-004  0.1876378E+03  0.7818608E-02  0.1160609E+00
          5   -1    0    0  501    0  0.00000000000E+00  0.00000000000E+00  0.23231665782E+03  0.23236419582E+03  0.47000000000E+01 0. -1.
         -5   -1    0    0    0  501 -0.00000000000E+00 -0.00000000000E+00 -0.10074436945E+04  0.10074546578E+04  0.47000000000E+01 0.  1.
          6    1    1    2  502    0  0.38662476340E+02 -0.64258476581E+02  0.18382740557E+03  0.26267937476E+03  0.17200000000E+03 0. -1.
         -6    1    1    2    0  502 -0.38662476340E+02  0.64258476581E+02 -0.95895444225E+03  0.97713947889E+03  0.17200000000E+03 0.  1.
</event>
<event>
 4    1 -0.6479440E-004  0.2285752E+03  0.7818608E-02  0.1127647E+00
          5   -1    0    0  501    0  0.00000000000E+00  0.00000000000E+00  0.24380644632E+03  0.24385174444E+03  0.47000000000E+01 0. -1.
         -5   -1    0    0    0  501 -0.00000000000E+00 -0.00000000000E+00 -0.17151919989E+04  0.17151984384E+04  0.47000000000E+01 0.  1.
          6    1    1    2  502    0 -0.70622011763E+02  0.13294799805E+03  0.18060854918E+03  0.29131784492E+03  0.17200000000E+03 0. -1.
         -6    1    1    2    0  502  0.70622011763E+02 -0.13294799805E+03 -0.16519941018E+04  0.16677323380E+04  0.17200000000E+03 0.  1.
</event>
<event>
 4    1 -0.6479440E-004  0.3008503E+03  0.7818608E-02  0.1084816E+00
         -5   -1    0    0    0  501 -0.00000000000E+00  0.00000000000E+00  0.14836336178E+04  0.14836410624E+04  0.47000000000E+01 0.  1.
          5   -1    0    0  501    0  0.00000000000E+00 -0.00000000000E+00 -0.74132206058E+02  0.74281047213E+02  0.47000000000E+01 0. -1.
          6    1    1    2  502    0 -0.21739098615E+03  0.11691037857E+03  0.37613279170E+03  0.48165003319E+03  0.17200000000E+03 0. -1.
         -6    1    1    2    0  502  0.21739098615E+03 -0.11691037857E+03  0.10333686201E+04  0.10762720764E+04  0.17200000000E+03 0. -1.
</event>
<event>
 4    1 -0.6479440E-004  0.1908996E+03  0.7818608E-02  0.1157652E+00
         -5   -1    0    0    0  501 -0.00000000000E+00  0.00000000000E+00  0.17321440323E+03  0.17327815640E+03  0.47000000000E+01 0.  1.
          5   -1    0    0  501    0  0.00000000000E+00 -0.00000000000E+00 -0.37133813135E+03  0.37136787394E+03  0.47000000000E+01 0. -1.
          6    1    1    2  502    0 -0.66719810465E+02  0.49062263645E+02 -0.27839244259E+03  0.33755738907E+03  0.17200000000E+03 0. -1.
         -6    1    1    2    0  502  0.66719810465E+02 -0.49062263645E+02  0.80268714465E+02  0.20708864127E+03  0.17200000000E+03 0.  1.
</event>
<event>
 4    1 -0.6479440E-004  0.1883052E+03  0.7818608E-02  0.1159999E+00
          5   -1    0    0  501    0  0.00000000000E+00  0.00000000000E+00  0.69703009639E+03  0.69704594201E+03  0.47000000000E+01 0. -1.
         -5   -1    0    0    0  501 -0.00000000000E+00 -0.00000000000E+00 -0.68390365586E+02  0.68551674706E+02  0.47000000000E+01 0.  1.
          6    1    1    2  502    0 -0.54021487248E+02 -0.54373951175E+02  0.50846298454E+03  0.54221163239E+03  0.17200000000E+03 0.  1.
         -6    1    1    2    0  502  0.54021487248E+02  0.54373951175E+02  0.12017674626E+03  0.22338598432E+03  0.17200000000E+03 0.  1.
</event>
<event>
 4    1 -0.6479440E-004  0.2652290E+03  0.7818608E-02  0.1104042E+00
         -5   -1    0    0    0  501 -0.00000000000E+00  0.00000000000E+00  0.10473790642E+03  0.10484330709E+03  0.47000000000E+01 0.  1.
          5   -1    0    0  501    0  0.00000000000E+00 -0.00000000000E+00 -0.13324256207E+04  0.13324339101E+04  0.47000000000E+01 0. -1.
          6    1    1    2  502    0 -0.79366546157E+02  0.18564313260E+03 -0.11200735926E+04  0.11510479026E+04  0.17200000000E+03 0. -1.
         -6    1    1    2    0  502  0.79366546157E+02 -0.18564313260E+03 -0.10761412177E+03  0.28622931460E+03  0.17200000000E+03 0.  1.
</event>
<event>
 4    1 -0.6479440E-004  0.1817924E+03  0.7818608E-02  0.1166080E+00
          5   -1    0    0  501    0  0.00000000000E+00  0.00000000000E+00  0.51906725950E+03  0.51908853762E+03  0.47000000000E+01 0. -1.
         -5   -1    0    0    0  501 -0.00000000000E+00 -0.00000000000E+00 -0.15519418830E+03  0.15526534089E+03  0.47000000000E+01 0.  1.
          6    1    1    2  502    0 -0.38194350538E+02 -0.44784510545E+02  0.44090626782E+03  0.47691382639E+03  0.17200000000E+03 0. -1.
         -6    1    1    2    0  502  0.38194350538E+02  0.44784510545E+02 -0.77033196623E+02  0.19744005212E+03  0.17200000000E+03 0.  1.
</event>
<event>
 4    1 -0.6479440E-004  0.2783659E+03  0.7818608E-02  0.1096585E+00
          5   -1    0    0  501    0  0.00000000000E+00  0.00000000000E+00  0.41278425668E+03  0.41281101313E+03  0.47000000000E+01 0. -1.
         -5   -1    0    0    0  501 -0.00000000000E+00 -0.00000000000E+00 -0.68148125973E+03  0.68149746688E+03  0.47000000000E+01 0.  1.
          6    1    1    2  502    0  0.16941711768E+03  0.13856924147E+03  0.33139681688E+03  0.43279492220E+03  0.17200000000E+03 0. -1.
         -6    1    1    2    0  502 -0.16941711768E+03 -0.13856924147E+03 -0.60009381993E+03  0.66151355781E+03  0.17200000000E+03 0.  1.
</event>
<event>
 4    1 -0.6479440E-004  0.3401968E+03  0.7818608E-02  0.1066712E+00
          5   -1    0    0  501    0  0.00000000000E+00  0.00000000000E+00  0.12233288467E+04  0.12233378753E+04  0.47000000000E+01 0. -1.
         -5   -1    0    0    0  501 -0.00000000000E+00 -0.00000000000E+00 -0.17216186930E+03  0.17222601210E+03  0.47000000000E+01 0.  1.
          6    1    1    2  502    0  0.13757245371E+03  0.25927535229E+03  0.99399071970E+03  0.10505957544E+04  0.17200000000E+03 0. -1.
         -6    1    1    2    0  502 -0.13757245371E+03 -0.25927535229E+03  0.57176257668E+02  0.34496813297E+03  0.17200000000E+03 0.  1.
</event>
<event>
 4    1 -0.6479440E-004  0.2164859E+03  0.7818608E-02  0.1136530E+00
          5   -1    0    0  501    0  0.00000000000E+00  0.00000000000E+00  0.25253522963E+03  0.25257896231E+03  0.47000000000E+01 0. -1.
         -5   -1    0    0    0  501 -0.00000000000E+00 -0.00000000000E+00 -0.35748002925E+03  0.35751092475E+03  0.47000000000E+01 0.  1.
          6    1    1    2  502    0 -0.90322023711E+02  0.95519937165E+02  0.15908674874E+03  0.26865353150E+03  0.17200000000E+03 0. -1.
         -6    1    1    2    0  502  0.90322023711E+02 -0.95519937165E+02 -0.26403154837E+03  0.34143635556E+03  0.17200000000E+03 0.  1.
</event>
<event>
 4    1 -0.6479440E-004  0.2071412E+03  0.7818608E-02  0.1143850E+00
          5   -1    0    0  501    0  0.00000000000E+00  0.00000000000E+00  0.16716781898E+04  0.16716847969E+04  0.47000000000E+01 0. -1.
         -5   -1    0    0    0  501 -0.00000000000E+00 -0.00000000000E+00 -0.25565742341E+02  0.25994175914E+02  0.47000000000E+01 0.  1.
          6    1    1    2  502    0 -0.40461021976E+02 -0.10810355835E+03  0.76531686531E+03  0.79285394491E+03  0.17200000000E+03 0. -1.
         -6    1    1    2    0  502  0.40461021976E+02  0.10810355835E+03  0.88079558211E+03  0.90482502789E+03  0.17200000000E+03 0.  1.
</event>
<event>
 4    1 -0.6479440E-004  0.1868003E+03  0.7818608E-02  0.1161379E+00
         -5   -1    0    0    0  501 -0.00000000000E+00  0.00000000000E+00  0.11650195510E+03  0.11659672183E+03  0.47000000000E+01 0.  1.
          5   -1    0    0  501    0  0.00000000000E+00 -0.00000000000E+00 -0.12091309355E+04  0.12091400701E+04  0.47000000000E+01 0. -1.
          6    1    1    2  502    0 -0.64810007341E+01 -0.72583393561E+02 -0.11212962439E+04  0.11367495850E+04  0.17200000000E+03 0. -1.
         -6    1    1    2    0  502  0.64810007341E+01  0.72583393561E+02  0.28667263522E+02  0.18898720695E+03  0.17200000000E+03 0.  1.
</event>
<event>
 4    1 -0.6479440E-004  0.2591591E+03  0.7818608E-02  0.1107650E+00
         -5   -1    0    0    0  501 -0.00000000000E+00  0.00000000000E+00  0.26529783126E+03  0.26533946045E+03  0.47000000000E+01 0.  1.
          5   -1    0    0  501    0  0.00000000000E+00 -0.00000000000E+00 -0.71881511334E+03  0.71883047874E+03  0.47000000000E+01 0. -1.
          6    1    1    2  502    0  0.83504571869E+00  0.19385233518E+03 -0.62283593520E+03  0.67460212521E+03  0.17200000000E+03 0. -1.
         -6    1    1    2    0  502 -0.83504571869E+00 -0.19385233518E+03  0.16931865312E+03  0.30956781398E+03  0.17200000000E+03 0.  1.
</event>
<event>
 4    1 -0.6479440E-004  0.2328801E+03  0.7818608E-02  0.1124629E+00
         -5   -1    0    0    0  501 -0.00000000000E+00  0.00000000000E+00  0.50746532120E+03  0.50748708577E+03  0.47000000000E+01 0.  1.
          5   -1    0    0  501    0  0.00000000000E+00 -0.00000000000E+00 -0.13946797747E+03  0.13954714880E+03  0.47000000000E+01 0. -1.
          6    1    1    2  502    0  0.37549431730E+02 -0.15244410099E+03  0.27475422034E+02  0.23449533591E+03  0.17200000000E+03 0. -1.
         -6    1    1    2    0  502 -0.37549431730E+02  0.15244410099E+03  0.34052192170E+03  0.41253889866E+03  0.17200000000E+03 0.  1.
</event>
<event>
 4    1 -0.6479440E-004  0.1875603E+03  0.7818608E-02  0.1160680E+00
         -5   -1    0    0    0  501 -0.00000000000E+00  0.00000000000E+00  0.21513936465E+03  0.21519069734E+03  0.47000000000E+01 0.  1.
          5   -1    0    0  501    0  0.00000000000E+00 -0.00000000000E+00 -0.42389710437E+03  0.42392315942E+03  0.47000000000E+01 0. -1.
          6    1    1    2  502    0  0.70634921382E+02  0.24608549551E+02 -0.35485084952E+03  0.40137015115E+03  0.17200000000E+03 0. -1.
         -6    1    1    2    0  502 -0.70634921382E+02 -0.24608549551E+02  0.14609310979E+03  0.23774370561E+03  0.17200000000E+03 0.  1.
</event>
<event>
 4    1 -0.6479440E-004  0.1863802E+03  0.7818608E-02  0.1161767E+00
          5   -1    0    0  501    0  0.00000000000E+00  0.00000000000E+00  0.24903471196E+03  0.24907905926E+03  0.47000000000E+01 0. -1.
         -5   -1    0    0    0  501 -0.00000000000E+00 -0.00000000000E+00 -0.14048069654E+03  0.14055929745E+03  0.47000000000E+01 0.  1.
          6    1    1    2  502    0  0.31592628473E+02  0.64462922933E+02  0.37137659898E+02  0.19004412222E+03  0.17200000000E+03 0. -1.
         -6    1    1    2    0  502 -0.31592628473E+02 -0.64462922933E+02  0.71416355517E+02  0.19959423449E+03  0.17200000000E+03 0.  1.
</event>
<event>
 4    1 -0.6479440E-004  0.2498468E+03  0.7818608E-02  0.1113402E+00
         -5   -1    0    0    0  501 -0.00000000000E+00  0.00000000000E+00  0.65300196665E+03  0.65301888062E+03  0.47000000000E+01 0.  1.
          5   -1    0    0  501    0  0.00000000000E+00 -0.00000000000E+00 -0.28136028245E+03  0.28139953543E+03  0.47000000000E+01 0. -1.
          6    1    1    2  502    0  0.18105939914E+03  0.75433867841E+01 -0.19382512726E+03  0.31621446623E+03  0.17200000000E+03 0. -1.
         -6    1    1    2    0  502 -0.18105939914E+03 -0.75433867841E+01  0.56546681146E+03  0.61820394981E+03  0.17200000000E+03 0.  1.
</event>
<event>
 4    1 -0.6479440E-004  0.2185090E+03  0.7818608E-02  0.1135000E+00
         -5   -1    0    0    0  501 -0.00000000000E+00  0.00000000000E+00  0.84762352906E+03  0.84763655951E+03  0.47000000000E+01 0.  1.
          5   -1    0    0  501    0  0.00000000000E+00 -0.00000000000E+00 -0.56219559508E+02  0.56415679303E+02  0.47000000000E+01 0. -1.
          6    1    1    2  502    0 -0.10773851967E+03  0.80960543803E+02  0.39329522592E+03  0.44991925165E+03  0.17200000000E+03 0. -1.
         -6    1    1    2    0  502  0.10773851967E+03 -0.80960543803E+02  0.39810874363E+03  0.45413298716E+03  0.17200000000E+03 0. -1.
</event>
<event>
 4    1 -0.6479440E-004  0.1804237E+03  0.7818608E-02  0.1167394E+00
          5   -1    0    0  501    0  0.00000000000E+00  0.00000000000E+00  0.23685853454E+04  0.23685900085E+04  0.47000000000E+01 0. -1.
         -5   -1    0    0    0  501 -0.00000000000E+00 -0.00000000000E+00 -0.61364298544E+02  0.61544025996E+02  0.47000000000E+01 0.  1.
          6    1    1    2  502    0 -0.52910095132E+02 -0.13009651438E+02  0.22242344969E+04  0.22315402363E+04  0.17200000000E+03 0. -1.
         -6    1    1    2    0  502  0.52910095132E+02  0.13009651438E+02  0.82986549947E+02  0.19859379816E+03  0.17200000000E+03 0.  1.
</event>
<event>
 4    1 -0.6479440E-004  0.2107231E+03  0.7818608E-02  0.1140995E+00
          5   -1    0    0  501    0  0.00000000000E+00  0.00000000000E+00  0.76767037244E+03  0.76768475999E+03  0.47000000000E+01 0. -1.
         -5   -1    0    0    0  501 -0.00000000000E+00 -0.00000000000E+00 -0.13584647764E+03  0.13592775834E+03  0.47000000000E+01 0.  1.
          6    1    1    2  502    0 -0.11611134039E+03 -0.36583720017E+02  0.65832653685E+03  0.69122936935E+03  0.17200000000E+03 0. -1.
         -6    1    1    2    0  502  0.11611134039E+03  0.36583720017E+02 -0.26502642050E+02  0.21238314898E+03  0.17200000000E+03 0.  1.
</event>
<event>
 4    1 -0.6479440E-004  0.1838337E+03  0.7818608E-02  0.1164144E+00
         -5   -1    0    0    0  501 -0.00000000000E+00  0.00000000000E+00  0.19878040338E+03  0.19883595944E+03  0.47000000000E+01 0.  1.
          5   -1    0    0  501    0  0.00000000000E+00 -0.00000000000E+00 -0.37447505034E+03  0.37450454380E+03  0.47000000000E+01 0. -1.
          6    1    1    2  502    0  0.50805542162E+02 -0.40368623673E+02 -0.29970241742E+03  0.35159119428E+03  0.17200000000E+03 0. -1.
         -6    1    1    2    0  502 -0.50805542162E+02  0.40368623673E+02  0.12400777045E+03  0.22174930896E+03  0.17200000000E+03 0.  1.
</event>
<event>
 4    1 -0.6479440E-004  0.1841217E+03  0.7818608E-02  0.1163873E+00
         -5   -1    0    0    0  501 -0.00000000000E+00  0.00000000000E+00  0.26488717918E+03  0.26492887289E+03  0.47000000000E+01 0.  1.
          5   -1    0    0  501    0  0.00000000000E+00 -0.00000000000E+00 -0.16388814331E+03  0.16395552299E+03  0.47000000000E+01 0. -1.
          6    1    1    2  502    0 -0.30793090913E+02 -0.58039454103E+02 -0.49970658424E+02  0.19078223026E+03  0.17200000000E+03 0. -1.
         -6    1    1    2    0  502  0.30793090913E+02  0.58039454103E+02  0.15096969429E+03  0.23810216562E+03  0.17200000000E+03 0.  1.
</event>
<event>
 4    1 -0.6479440E-004  0.1723898E+03  0.7818608E-02  0.1175378E+00
          5   -1    0    0  501    0  0.00000000000E+00  0.00000000000E+00  0.25894849334E+03  0.25899114310E+03  0.47000000000E+01 0. -1.
         -5   -1    0    0    0  501 -0.00000000000E+00 -0.00000000000E+00 -0.24190589044E+03  0.24195154439E+03  0.47000000000E+01 0.  1.
          6    1    1    2  502    0 -0.11563103238E+02 -0.73461919232E+00  0.19013411015E+03  0.25665000461E+03  0.17200000000E+03 0. -1.
         -6    1    1    2    0  502  0.11563103238E+02  0.73461919232E+00 -0.17309150726E+03  0.24429268287E+03  0.17200000000E+03 0.  1.
</event>
<event>
 4    1 -0.6479440E-004  0.2033923E+03  0.7818608E-02  0.1146908E+00
          5   -1    0    0  501    0  0.00000000000E+00  0.00000000000E+00  0.88705567510E+02  0.88829993286E+02  0.47000000000E+01 0. -1.
         -5   -1    0    0    0  501 -0.00000000000E+00 -0.00000000000E+00 -0.61901167712E+03  0.61902951982E+03  0.47000000000E+01 0.  1.
          6    1    1    2  502    0  0.69076516547E+02  0.83742955195E+02 -0.89146107521E+02  0.22207088096E+03  0.17200000000E+03 0. -1.
         -6    1    1    2    0  502 -0.69076516547E+02 -0.83742955195E+02 -0.44116000209E+03  0.48578863215E+03  0.17200000000E+03 0.  1.
</event>
<event>
 4    1 -0.6479440E-004  0.1858934E+03  0.7818608E-02  0.1162218E+00
         -5   -1    0    0    0  501 -0.00000000000E+00  0.00000000000E+00  0.18509945109E+03  0.18515911210E+03  0.47000000000E+01 0.  1.
          5   -1    0    0  501    0  0.00000000000E+00 -0.00000000000E+00 -0.38625217732E+03  0.38628077157E+03  0.47000000000E+01 0. -1.
          6    1    1    2  502    0 -0.58471836745E+02  0.39413052705E+02 -0.30598327499E+03  0.35802529099E+03  0.17200000000E+03 0. -1.
         -6    1    1    2    0  502  0.58471836745E+02 -0.39413052705E+02  0.10483054876E+03  0.21341459268E+03  0.17200000000E+03 0.  1.
</event>
<event>
 4    1 -0.6479440E-004  0.3085022E+03  0.7818608E-02  0.1081066E+00
         -5   -1    0    0    0  501 -0.00000000000E+00  0.00000000000E+00  0.13746662417E+03  0.13754694747E+03  0.47000000000E+01 0.  1.
          5   -1    0    0  501    0  0.00000000000E+00 -0.00000000000E+00 -0.91949459758E+03  0.91950660954E+03  0.47000000000E+01 0. -1.
          6    1    1    2  502    0  0.22133340668E+03 -0.12884530302E+03 -0.65386448947E+03  0.72298849203E+03  0.17200000000E+03 0. -1.
         -6    1    1    2    0  502 -0.22133340668E+03  0.12884530302E+03 -0.12816348395E+03  0.33406506498E+03  0.17200000000E+03 0.  1.
</event>
<event>
 4    1 -0.6479440E-004  0.2795905E+03  0.7818608E-02  0.1095913E+00
         -5   -1    0    0    0  501 -0.00000000000E+00  0.00000000000E+00  0.49193981121E+03  0.49196226263E+03  0.47000000000E+01 0.  1.
          5   -1    0    0  501    0  0.00000000000E+00 -0.00000000000E+00 -0.36292321341E+03  0.36295364556E+03  0.47000000000E+01 0. -1.
          6    1    1    2  502    0  0.10894224930E+03 -0.19162053449E+03 -0.25600330237E+03  0.37908908418E+03  0.17200000000E+03 0. -1.
         -6    1    1    2    0  502 -0.10894224930E+03  0.19162053449E+03  0.38501990017E+03  0.47582682401E+03  0.17200000000E+03 0.  1.
</event>
<event>
 4    1 -0.6479440E-004  0.2124230E+03  0.7818608E-02  0.1139661E+00
         -5   -1    0    0    0  501 -0.00000000000E+00  0.00000000000E+00  0.34020493955E+03  0.34023740373E+03  0.47000000000E+01 0.  1.
          5   -1    0    0  501    0  0.00000000000E+00 -0.00000000000E+00 -0.15377135758E+03  0.15384316823E+03  0.47000000000E+01 0. -1.
          6    1    1    2  502    0  0.11982495655E+03  0.34373316717E+02  0.18494454327E+03  0.28165231972E+03  0.17200000000E+03 0.  1.
         -6    1    1    2    0  502 -0.11982495655E+03 -0.34373316717E+02  0.14890387050E+01  0.21242825224E+03  0.17200000000E+03 0. -1.
</event>
<event>
 4    1 -0.6479440E-004  0.1820785E+03  0.7818608E-02  0.1165807E+00
         -5   -1    0    0    0  501 -0.00000000000E+00  0.00000000000E+00  0.21362321127E+02  0.21873243105E+02  0.47000000000E+01 0.  1.
          5   -1    0    0  501    0  0.00000000000E+00 -0.00000000000E+00 -0.30517784950E+04  0.30517821142E+04  0.47000000000E+01 0. -1.
          6    1    1    2  502    0 -0.14866210816E+02  0.57858144481E+02 -0.25992597644E+04  0.26056292698E+04  0.17200000000E+03 0. -1.
         -6    1    1    2    0  502  0.14866210816E+02 -0.57858144481E+02 -0.43115640954E+03  0.46802608752E+03  0.17200000000E+03 0.  1.
</event>
<event>
 4    1 -0.6479440E-004  0.3258358E+03  0.7818608E-02  0.1072994E+00
          5   -1    0    0  501    0  0.00000000000E+00  0.00000000000E+00  0.12898124946E+04  0.12898210579E+04  0.47000000000E+01 0. -1.
         -5   -1    0    0    0  501 -0.00000000000E+00 -0.00000000000E+00 -0.19181098611E+03  0.19186856019E+03  0.47000000000E+01 0.  1.
          6    1    1    2  502    0  0.27001849054E+03  0.60621393368E+02  0.11087905299E+04  0.11556752908E+04  0.17200000000E+03 0. -1.
         -6    1    1    2    0  502 -0.27001849054E+03 -0.60621393368E+02 -0.10789021417E+02  0.32601432722E+03  0.17200000000E+03 0.  1.
</event>
<event>
 4    1 -0.6479440E-004  0.2298263E+03  0.7818608E-02  0.1126762E+00
          5   -1    0    0  501    0  0.00000000000E+00  0.00000000000E+00  0.49986125294E+02  0.50206600382E+02  0.47000000000E+01 0. -1.
         -5   -1    0    0    0  501 -0.00000000000E+00 -0.00000000000E+00 -0.16325463407E+04  0.16325531062E+04  0.47000000000E+01 0.  1.
          6    1    1    2  502    0 -0.12810204745E+03 -0.82619522530E+02 -0.29050393120E+03  0.37042226459E+03  0.17200000000E+03 0. -1.
         -6    1    1    2    0  502  0.12810204745E+03  0.82619522530E+02 -0.12920562842E+04  0.13123374420E+04  0.17200000000E+03 0.  1.
</event>
<event>
 4    1 -0.6479440E-004  0.1929244E+03  0.7818608E-02  0.1155850E+00
         -5   -1    0    0    0  501 -0.00000000000E+00  0.00000000000E+00  0.25530296892E+04  0.25530340154E+04  0.47000000000E+01 0.  1.
          5   -1    0    0  501    0  0.00000000000E+00 -0.00000000000E+00 -0.14530873125E+02  0.15272074966E+02  0.47000000000E+01 0. -1.
          6    1    1    2  502    0 -0.62905244896E+02  0.60652625325E+02  0.14594882574E+04  0.14721840185E+04  0.17200000000E+03 0.  1.
         -6    1    1    2    0  502  0.62905244896E+02 -0.60652625325E+02  0.10790105586E+04  0.10961220718E+04  0.17200000000E+03 0. -1.
</event>
<event>
 4    1 -0.6479440E-004  0.2477291E+03  0.7818608E-02  0.1114748E+00
         -5   -1    0    0    0  501 -0.00000000000E+00  0.00000000000E+00  0.52224559598E+03  0.52226674460E+03  0.47000000000E+01 0.  1.
          5   -1    0    0  501    0  0.00000000000E+00 -0.00000000000E+00 -0.40977065868E+03  0.40979761190E+03  0.47000000000E+01 0. -1.
          6    1    1    2  502    0 -0.10087391069E+03 -0.14700394331E+03 -0.33734786800E+03  0.41853708228E+03  0.17200000000E+03 0. -1.
         -6    1    1    2    0  502  0.10087391069E+03  0.14700394331E+03  0.44982280529E+03  0.51352727422E+03  0.17200000000E+03 0.  1.
</event>
<event>
 4    1 -0.6479440E-004  0.1734142E+03  0.7818608E-02  0.1174333E+00
          5   -1    0    0  501    0  0.00000000000E+00  0.00000000000E+00  0.11279658111E+03  0.11289445828E+03  0.47000000000E+01 0. -1.
         -5   -1    0    0    0  501 -0.00000000000E+00 -0.00000000000E+00 -0.76304305209E+03  0.76305752689E+03  0.47000000000E+01 0.  1.
          6    1    1    2  502    0 -0.20734734755E+02 -0.76531489237E+01  0.28201068218E+02  0.17569234520E+03  0.17200000000E+03 0. -1.
         -6    1    1    2    0  502  0.20734734755E+02  0.76531489237E+01 -0.67844753921E+03  0.70025963997E+03  0.17200000000E+03 0.  1.
</event>
<event>
 4    1 -0.6479440E-004  0.1829567E+03  0.7818608E-02  0.1164972E+00
          5   -1    0    0  501    0  0.00000000000E+00  0.00000000000E+00  0.13340364441E+04  0.13340447235E+04  0.47000000000E+01 0. -1.
         -5   -1    0    0    0  501 -0.00000000000E+00 -0.00000000000E+00 -0.54456632109E+02  0.54659077752E+02  0.47000000000E+01 0.  1.
          6    1    1    2  502    0  0.61643205726E+02  0.94481771615E+01  0.11501090285E+04  0.11645702771E+04  0.17200000000E+03 0. -1.
         -6    1    1    2    0  502 -0.61643205726E+02 -0.94481771615E+01  0.12947078355E+03  0.22413352417E+03  0.17200000000E+03 0.  1.
</event>
<event>
 4    1 -0.6479440E-004  0.1854039E+03  0.7818608E-02  0.1162673E+00
          5   -1    0    0  501    0  0.00000000000E+00  0.00000000000E+00  0.98757925417E+03  0.98759043802E+03  0.47000000000E+01 0. -1.
         -5   -1    0    0    0  501 -0.00000000000E+00 -0.00000000000E+00 -0.14015452378E+03  0.14023330751E+03  0.47000000000E+01 0.  1.
          6    1    1    2  502    0 -0.26355387110E+02 -0.64000095948E+02  0.91264186213E+03  0.93128394554E+03  0.17200000000E+03 0. -1.
         -6    1    1    2    0  502  0.26355387110E+02  0.64000095948E+02 -0.65217131730E+02  0.19653980000E+03  0.17200000000E+03 0.  1.
</event>
<event>
 4    1 -0.6479440E-004  0.1735090E+03  0.7818608E-02  0.1174237E+00
         -5   -1    0    0    0  501 -0.00000000000E+00  0.00000000000E+00  0.27756126639E+03  0.27760105655E+03  0.47000000000E+01 0.  1.
          5   -1    0    0  501    0  0.00000000000E+00 -0.00000000000E+00 -0.12784872294E+03  0.12793508493E+03  0.47000000000E+01 0. -1.
          6    1    1    2  502    0  0.76961402145E+01  0.21497344717E+02 -0.42582182892E+01  0.17356122501E+03  0.17200000000E+03 0. -1.
         -6    1    1    2    0  502 -0.76961402145E+01 -0.21497344717E+02  0.15397076174E+03  0.23197491648E+03  0.17200000000E+03 0.  1.
</event>
<event>
 4    1 -0.6479440E-004  0.1758078E+03  0.7818608E-02  0.1171923E+00
          5   -1    0    0  501    0  0.00000000000E+00  0.00000000000E+00  0.87615339841E+02  0.87741311681E+02  0.47000000000E+01 0. -1.
         -5   -1    0    0    0  501 -0.00000000000E+00 -0.00000000000E+00 -0.46446197327E+03  0.46448575287E+03  0.47000000000E+01 0.  1.
          6    1    1    2  502    0  0.76524998646E+01  0.35578468570E+02 -0.52807178754E+02  0.18356738901E+03  0.17200000000E+03 0. -1.
         -6    1    1    2    0  502 -0.76524998646E+01 -0.35578468570E+02 -0.32403945468E+03  0.36865967554E+03  0.17200000000E+03 0.  1.
</event>
<event>
 4    1 -0.6479440E-004  0.2002391E+03  0.7818608E-02  0.1149537E+00
         -5   -1    0    0    0  501 -0.00000000000E+00  0.00000000000E+00  0.56154710770E+02  0.56351056261E+02  0.47000000000E+01 0.  1.
          5   -1    0    0  501    0  0.00000000000E+00 -0.00000000000E+00 -0.77007937342E+03  0.77009371596E+03  0.47000000000E+01 0. -1.
          6    1    1    2  502    0 -0.58677121833E+02 -0.84075478603E+02 -0.46986902212E+03  0.51075687825E+03  0.17200000000E+03 0. -1.
         -6    1    1    2    0  502  0.58677121833E+02  0.84075478603E+02 -0.24405564053E+03  0.31568789398E+03  0.17200000000E+03 0.  1.
</event>
<event>
 4    1 -0.6479440E-004  0.1812732E+03  0.7818608E-02  0.1166577E+00
         -5   -1    0    0    0  501 -0.00000000000E+00  0.00000000000E+00  0.28693233702E+04  0.28693272195E+04  0.47000000000E+01 0.  1.
          5   -1    0    0  501    0  0.00000000000E+00 -0.00000000000E+00 -0.26659506433E+02  0.27070635073E+02  0.47000000000E+01 0. -1.
          6    1    1    2  502    0 -0.18183121507E+02  0.54270908692E+02  0.32434931218E+03  0.37156753592E+03  0.17200000000E+03 0. -1.
         -6    1    1    2    0  502  0.18183121507E+02 -0.54270908692E+02  0.25183145515E+04  0.25248303186E+04  0.17200000000E+03 0.  1.
</event>
<event>
 4    1 -0.6479440E-004  0.1811072E+03  0.7818608E-02  0.1166736E+00
          5   -1    0    0  501    0  0.00000000000E+00  0.00000000000E+00  0.35346500751E+03  0.35349625392E+03  0.47000000000E+01 0. -1.
         -5   -1    0    0    0  501 -0.00000000000E+00 -0.00000000000E+00 -0.19590783176E+03  0.19596420220E+03  0.47000000000E+01 0.  1.
          6    1    1    2  502    0 -0.23872971985E+02 -0.51438268849E+02  0.27812325545E+03  0.33189209017E+03  0.17200000000E+03 0. -1.
         -6    1    1    2    0  502  0.23872971985E+02  0.51438268849E+02 -0.12056607969E+03  0.21756836596E+03  0.17200000000E+03 0.  1.
</event>
<event>
 4    1 -0.6479440E-004  0.1729292E+03  0.7818608E-02  0.1174827E+00
          5   -1    0    0  501    0  0.00000000000E+00  0.00000000000E+00  0.23424176712E+03  0.23428891451E+03  0.47000000000E+01 0. -1.
         -5   -1    0    0    0  501 -0.00000000000E+00 -0.00000000000E+00 -0.56648348689E+03  0.56650298404E+03  0.47000000000E+01 0.  1.
          6    1    1    2  502    0 -0.15561961295E+02  0.88496708868E+01  0.18629153293E+03  0.25418305717E+03  0.17200000000E+03 0. -1.
         -6    1    1    2    0  502  0.15561961295E+02 -0.88496708868E+01 -0.51853325270E+03  0.54660884137E+03  0.17200000000E+03 0.  1.
</event>
<event>
 4    1 -0.6479440E-004  0.1844276E+03  0.7818608E-02  0.1163586E+00
          5   -1    0    0  501    0  0.00000000000E+00  0.00000000000E+00  0.41031219635E+03  0.41033911399E+03  0.47000000000E+01 0. -1.
         -5   -1    0    0    0  501 -0.00000000000E+00 -0.00000000000E+00 -0.99850570847E+03  0.99851676994E+03  0.47000000000E+01 0.  1.
          6    1    1    2  502    0 -0.38150776488E+02 -0.54534761844E+02  0.38045862872E+03  0.42280289754E+03  0.17200000000E+03 0. -1.
         -6    1    1    2    0  502  0.38150776488E+02  0.54534761844E+02 -0.96865214085E+03  0.98605298639E+03  0.17200000000E+03 0.  1.
</event>
<event>
 4    1 -0.6479440E-004  0.1972281E+03  0.7818608E-02  0.1152099E+00
         -5   -1    0    0    0  501 -0.00000000000E+00  0.00000000000E+00  0.27270857042E+03  0.27274906852E+03  0.47000000000E+01 0.  1.
          5   -1    0    0  501    0  0.00000000000E+00 -0.00000000000E+00 -0.21674438166E+03  0.21679533431E+03  0.47000000000E+01 0. -1.
          6    1    1    2  502    0  0.89934616245E+02  0.35023932107E+02 -0.11519410888E+03  0.22840445210E+03  0.17200000000E+03 0. -1.
         -6    1    1    2    0  502 -0.89934616245E+02 -0.35023932107E+02  0.17115829764E+03  0.26113995073E+03  0.17200000000E+03 0.  1.
</event>
<event>
 4    1 -0.6479440E-004  0.1917652E+03  0.7818608E-02  0.1156879E+00
          5   -1    0    0  501    0  0.00000000000E+00  0.00000000000E+00  0.28702727464E+03  0.28706575273E+03  0.47000000000E+01 0. -1.
         -5   -1    0    0    0  501 -0.00000000000E+00 -0.00000000000E+00 -0.85417006068E+03  0.85418299126E+03  0.47000000000E+01 0.  1.
          6    1    1    2  502    0  0.49118946006E+02 -0.69117482264E+02  0.24252587961E+03  0.30918069068E+03  0.17200000000E+03 0. -1.
         -6    1    1    2    0  502 -0.49118946006E+02  0.69117482264E+02 -0.80966866564E+03  0.83206805331E+03  0.17200000000E+03 0.  1.
</event>
<event>
 4    1 -0.6479440E-004  0.2003077E+03  0.7818608E-02  0.1149480E+00
         -5   -1    0    0    0  501 -0.00000000000E+00  0.00000000000E+00  0.17521620605E+04  0.17521683641E+04  0.47000000000E+01 0.  1.
          5   -1    0    0  501    0  0.00000000000E+00 -0.00000000000E+00 -0.11107262377E+03  0.11117201874E+03  0.47000000000E+01 0. -1.
          6    1    1    2  502    0 -0.98634923225E+02  0.28465899256E+02 -0.96041711495E+01  0.20053776603E+03  0.17200000000E+03 0. -1.
         -6    1    1    2    0  502  0.98634923225E+02 -0.28465899256E+02  0.16506936079E+04  0.16628026169E+04  0.17200000000E+03 0.  1.
</event>
<event>
 4    1 -0.6479440E-004  0.1800536E+03  0.7818608E-02  0.1167751E+00
          5   -1    0    0  501    0  0.00000000000E+00  0.00000000000E+00  0.17092182476E+04  0.17092247096E+04  0.47000000000E+01 0. -1.
         -5   -1    0    0    0  501 -0.00000000000E+00 -0.00000000000E+00 -0.22239494336E+02  0.22730708487E+02  0.47000000000E+01 0.  1.
          6    1    1    2  502    0 -0.41032894080E+02  0.33935203643E+02  0.11862822785E+04  0.11998687182E+04  0.17200000000E+03 0. -1.
         -6    1    1    2    0  502  0.41032894080E+02 -0.33935203643E+02  0.50069647470E+03  0.53208669991E+03  0.17200000000E+03 0.  1.
</event>
<event>
 4    1 -0.6479440E-004  0.2002517E+03  0.7818608E-02  0.1149527E+00
          5   -1    0    0  501    0  0.00000000000E+00  0.00000000000E+00  0.33810586344E+03  0.33813852914E+03  0.47000000000E+01 0. -1.
         -5   -1    0    0    0  501 -0.00000000000E+00 -0.00000000000E+00 -0.16801033837E+03  0.16807606551E+03  0.47000000000E+01 0.  1.
          6    1    1    2  502    0 -0.10034883820E+03  0.21139251212E+02  0.22237467222E+03  0.29925115224E+03  0.17200000000E+03 0. -1.
         -6    1    1    2    0  502  0.10034883820E+03 -0.21139251212E+02 -0.52279147157E+02  0.20696344242E+03  0.17200000000E+03 0.  1.
</event>
<event>
 4    1 -0.6479440E-004  0.2425411E+03  0.7818608E-02  0.1118112E+00
          5   -1    0    0  501    0  0.00000000000E+00  0.00000000000E+00  0.12272377828E+04  0.12272467826E+04  0.47000000000E+01 0. -1.
         -5   -1    0    0    0  501 -0.00000000000E+00 -0.00000000000E+00 -0.17758574800E+03  0.17764793242E+03  0.47000000000E+01 0.  1.
          6    1    1    2  502    0 -0.10287916480E+03  0.13659445797E+03  0.11250559766E+04  0.11509027409E+04  0.17200000000E+03 0. -1.
         -6    1    1    2    0  502  0.10287916480E+03 -0.13659445797E+03 -0.75403941812E+02  0.25399197417E+03  0.17200000000E+03 0.  1.
</event>
<event>
 4    1 -0.6479440E-004  0.1722309E+03  0.7818608E-02  0.1175541E+00
          5   -1    0    0  501    0  0.00000000000E+00  0.00000000000E+00  0.54739411776E+03  0.54741429480E+03  0.47000000000E+01 0. -1.
         -5   -1    0    0    0  501 -0.00000000000E+00 -0.00000000000E+00 -0.14700652275E+03  0.14708163628E+03  0.47000000000E+01 0.  1.
          6    1    1    2  502    0 -0.89149732039E+01  0.39017163571E-01  0.47614693674E+03  0.50633919820E+03  0.17200000000E+03 0. -1.
         -6    1    1    2    0  502  0.89149732039E+01 -0.39017163571E-01 -0.75759341733E+02  0.18815673288E+03  0.17200000000E+03 0.  1.
</event>
<event>
 4    1 -0.6479440E-004  0.1869250E+03  0.7818608E-02  0.1161264E+00
         -5   -1    0    0    0  501 -0.00000000000E+00  0.00000000000E+00  0.11527972335E+03  0.11537549400E+03  0.47000000000E+01 0.  1.
          5   -1    0    0  501    0  0.00000000000E+00 -0.00000000000E+00 -0.66212843539E+03  0.66214511624E+03  0.47000000000E+01 0. -1.
          6    1    1    2  502    0  0.66501674431E+02 -0.30569215700E+02 -0.55976425784E+03  0.59014995892E+03  0.17200000000E+03 0. -1.
         -6    1    1    2    0  502 -0.66501674431E+02  0.30569215700E+02  0.12915545797E+02  0.18737065131E+03  0.17200000000E+03 0.  1.
</event>
<event>
 4    1 -0.6479440E-004  0.1821980E+03  0.7818608E-02  0.1165693E+00
         -5   -1    0    0    0  501 -0.00000000000E+00  0.00000000000E+00  0.60004411522E+03  0.60006252192E+03  0.47000000000E+01 0.  1.
          5   -1    0    0  501    0  0.00000000000E+00 -0.00000000000E+00 -0.10779195161E+03  0.10789436886E+03  0.47000000000E+01 0. -1.
          6    1    1    2  502    0 -0.55629483812E+02  0.22747766786E+02 -0.92515976526E+00  0.18220031911E+03  0.17200000000E+03 0. -1.
         -6    1    1    2    0  502  0.55629483812E+02 -0.22747766786E+02  0.49317732337E+03  0.52575657167E+03  0.17200000000E+03 0.  1.
</event>
<event>
 4    1 -0.6479440E-004  0.3179380E+03  0.7818608E-02  0.1076602E+00
          5   -1    0    0  501    0  0.00000000000E+00  0.00000000000E+00  0.42539707521E+03  0.42542303839E+03  0.47000000000E+01 0. -1.
         -5   -1    0    0    0  501 -0.00000000000E+00 -0.00000000000E+00 -0.78514303769E+03  0.78515710507E+03  0.47000000000E+01 0.  1.
          6    1    1    2  502    0  0.17519325173E+02 -0.26682135709E+03  0.32559726755E+03  0.45508037091E+03  0.17200000000E+03 0. -1.
         -6    1    1    2    0  502 -0.17519325173E+02  0.26682135709E+03 -0.68534323004E+03  0.75549977254E+03  0.17200000000E+03 0.  1.
</event>
<event>
 4    1 -0.6479440E-004  0.1898843E+03  0.7818608E-02  0.1158566E+00
          5   -1    0    0  501    0  0.00000000000E+00  0.00000000000E+00  0.12791535352E+03  0.12800167056E+03  0.47000000000E+01 0. -1.
         -5   -1    0    0    0  501 -0.00000000000E+00 -0.00000000000E+00 -0.59241312857E+03  0.59243177236E+03  0.47000000000E+01 0.  1.
          6    1    1    2  502    0  0.23244554326E+02 -0.77017816051E+02  0.28611260497E+02  0.19202775196E+03  0.17200000000E+03 0. -1.
         -6    1    1    2    0  502 -0.23244554326E+02  0.77017816051E+02 -0.49310903555E+03  0.52840569096E+03  0.17200000000E+03 0.  1.
</event>
<event>
 4    1 -0.6479440E-004  0.2504508E+03  0.7818608E-02  0.1113020E+00
          5   -1    0    0  501    0  0.00000000000E+00  0.00000000000E+00  0.28023607621E+04  0.28023647034E+04  0.47000000000E+01 0. -1.
         -5   -1    0    0    0  501 -0.00000000000E+00 -0.00000000000E+00 -0.52244396986E+02  0.52455381196E+02  0.47000000000E+01 0.  1.
          6    1    1    2  502    0 -0.81210570643E+02  0.16293079652E+03  0.24550565221E+04  0.24677982348E+04  0.17200000000E+03 0. -1.
         -6    1    1    2    0  502  0.81210570643E+02 -0.16293079652E+03  0.29505984305E+03  0.38702184980E+03  0.17200000000E+03 0.  1.
</event>
<event>
 4    1 -0.6479440E-004  0.2535932E+03  0.7818608E-02  0.1111055E+00
          5   -1    0    0  501    0  0.00000000000E+00  0.00000000000E+00  0.12360126659E+04  0.12360216019E+04  0.47000000000E+01 0. -1.
         -5   -1    0    0    0  501 -0.00000000000E+00 -0.00000000000E+00 -0.94783032012E+02  0.94899489764E+02  0.47000000000E+01 0.  1.
          6    1    1    2  502    0 -0.29376451016E+01 -0.18632467759E+03  0.10177402726E+04  0.10488587978E+04  0.17200000000E+03 0. -1.
         -6    1    1    2    0  502  0.29376451016E+01  0.18632467759E+03  0.12348936126E+03  0.28206229380E+03  0.17200000000E+03 0.  1.
</event>
<event>
 4    1 -0.6479440E-004  0.1974953E+03  0.7818608E-02  0.1151870E+00
         -5   -1    0    0    0  501 -0.00000000000E+00  0.00000000000E+00  0.65593655397E+03  0.65595339227E+03  0.47000000000E+01 0.  1.
          5   -1    0    0  501    0  0.00000000000E+00 -0.00000000000E+00 -0.60007286558E+02  0.60191066115E+02  0.47000000000E+01 0. -1.
          6    1    1    2  502    0 -0.79489773821E+02  0.55693608321E+02  0.26064265496E+03  0.32701528364E+03  0.17200000000E+03 0. -1.
         -6    1    1    2    0  502  0.79489773821E+02 -0.55693608321E+02  0.33528661245E+03  0.38912917474E+03  0.17200000000E+03 0.  1.
</event>
<event>
 4    1 -0.6479440E-004  0.1910579E+03  0.7818608E-02  0.1157511E+00
          5   -1    0    0  501    0  0.00000000000E+00  0.00000000000E+00  0.37949194785E+03  0.37952105144E+03  0.47000000000E+01 0. -1.
         -5   -1    0    0    0  501 -0.00000000000E+00 -0.00000000000E+00 -0.11188850079E+03  0.11198717162E+03  0.47000000000E+01 0.  1.
          6    1    1    2  502    0  0.44477906837E+02  0.70291068037E+02  0.22606433446E+03  0.29598682700E+03  0.17200000000E+03 0. -1.
         -6    1    1    2    0  502 -0.44477906837E+02 -0.70291068037E+02  0.41539112608E+02  0.19552139606E+03  0.17200000000E+03 0.  1.
</event>
<event>
 4    1 -0.6479440E-004  0.1864965E+03  0.7818608E-02  0.1161660E+00
          5   -1    0    0  501    0  0.00000000000E+00  0.00000000000E+00  0.24019035677E+03  0.24023633673E+03  0.47000000000E+01 0. -1.
         -5   -1    0    0    0  501 -0.00000000000E+00 -0.00000000000E+00 -0.46607113672E+03  0.46609483422E+03  0.47000000000E+01 0.  1.
          6    1    1    2  502    0 -0.24263577855E+01 -0.72048962505E+02  0.18028782856E+03  0.25939283209E+03  0.17200000000E+03 0. -1.
         -6    1    1    2    0  502  0.24263577855E+01  0.72048962505E+02 -0.40616860851E+03  0.44693833887E+03  0.17200000000E+03 0.  1.
</event>
<event>
 4    1 -0.6479440E-004  0.1817112E+03  0.7818608E-02  0.1166157E+00
         -5   -1    0    0    0  501 -0.00000000000E+00  0.00000000000E+00  0.27446052610E+03  0.27450076573E+03  0.47000000000E+01 0.  1.
          5   -1    0    0  501    0  0.00000000000E+00 -0.00000000000E+00 -0.43951504399E+03  0.43954017324E+03  0.47000000000E+01 0. -1.
          6    1    1    2  502    0 -0.51270685561E+02 -0.28395110622E+02 -0.38679812265E+03  0.42735436489E+03  0.17200000000E+03 0. -1.
         -6    1    1    2    0  502  0.51270685561E+02  0.28395110622E+02  0.22174360476E+03  0.28668657408E+03  0.17200000000E+03 0.  1.
</event>
<event>
 4    1 -0.6479440E-004  0.2089140E+03  0.7818608E-02  0.1142429E+00
          5   -1    0    0  501    0  0.00000000000E+00  0.00000000000E+00  0.13549490438E+04  0.13549571953E+04  0.47000000000E+01 0. -1.
         -5   -1    0    0    0  501 -0.00000000000E+00 -0.00000000000E+00 -0.33613972563E+02  0.33940965682E+02  0.47000000000E+01 0.  1.
          6    1    1    2  502    0 -0.37016528076E+02  0.11265355103E+03  0.81056567195E+03  0.83705540704E+03  0.17200000000E+03 0. -1.
         -6    1    1    2    0  502  0.37016528076E+02 -0.11265355103E+03  0.51076939926E+03  0.55184275399E+03  0.17200000000E+03 0.  1.
</event>
<event>
 4    1 -0.6479440E-004  0.2472224E+03  0.7818608E-02  0.1115073E+00
          5   -1    0    0  501    0  0.00000000000E+00  0.00000000000E+00  0.25271625841E+03  0.25275995977E+03  0.47000000000E+01 0. -1.
         -5   -1    0    0    0  501 -0.00000000000E+00 -0.00000000000E+00 -0.10399126398E+04  0.10399232609E+04  0.47000000000E+01 0.  1.
          6    1    1    2  502    0 -0.15438913211E+03  0.87743530866E+02  0.17263001802E+03  0.30152952499E+03  0.17200000000E+03 0. -1.
         -6    1    1    2    0  502  0.15438913211E+03 -0.87743530866E+02 -0.95982639944E+03  0.99115369564E+03  0.17200000000E+03 0.  1.
</event>
<event>
 4    1 -0.6479440E-004  0.2149016E+03  0.7818608E-02  0.1137742E+00
          5   -1    0    0  501    0  0.00000000000E+00  0.00000000000E+00  0.48464426037E+03  0.48466704975E+03  0.47000000000E+01 0. -1.
         -5   -1    0    0    0  501 -0.00000000000E+00 -0.00000000000E+00 -0.95308764533E+02  0.95424580674E+02  0.47000000000E+01 0.  1.
          6    1    1    2  502    0 -0.12858418181E+03 -0.80497234640E+01  0.20404793269E+03  0.29634143938E+03  0.17200000000E+03 0. -1.
         -6    1    1    2    0  502  0.12858418181E+03  0.80497234640E+01  0.18528756315E+03  0.28375019104E+03  0.17200000000E+03 0. -1.
</event>
<event>
 4    1 -0.6479440E-004  0.1833921E+03  0.7818608E-02  0.1164560E+00
          5   -1    0    0  501    0  0.00000000000E+00  0.00000000000E+00  0.73536738062E+03  0.73538240017E+03  0.47000000000E+01 0. -1.
         -5   -1    0    0    0  501 -0.00000000000E+00 -0.00000000000E+00 -0.93061885253E+02  0.93180494133E+02  0.47000000000E+01 0.  1.
          6    1    1    2  502    0  0.42450000251E+02  0.47398779470E+02  0.61670154545E+03  0.64339213779E+03  0.17200000000E+03 0. -1.
         -6    1    1    2    0  502 -0.42450000251E+02 -0.47398779470E+02  0.25603949924E+02  0.18517075651E+03  0.17200000000E+03 0.  1.
</event>
<event>
 4    1 -0.6479440E-004  0.2157093E+03  0.7818608E-02  0.1137123E+00
          5   -1    0    0  501    0  0.00000000000E+00  0.00000000000E+00  0.12949762161E+03  0.12958288468E+03  0.47000000000E+01 0. -1.
         -5   -1    0    0    0  501 -0.00000000000E+00 -0.00000000000E+00 -0.56887015996E+03  0.56888957530E+03  0.47000000000E+01 0.  1.
          6    1    1    2  502    0 -0.12235458038E+03  0.44450560613E+02 -0.76324888412E+01  0.21584427387E+03  0.17200000000E+03 0. -1.
         -6    1    1    2    0  502  0.12235458038E+03 -0.44450560613E+02 -0.43174004951E+03  0.48262818611E+03  0.17200000000E+03 0.  1.
</event>
<event>
 4    1 -0.6479440E-004  0.1723739E+03  0.7818608E-02  0.1175395E+00
          5   -1    0    0  501    0  0.00000000000E+00  0.00000000000E+00  0.26293968390E+03  0.26298168638E+03  0.47000000000E+01 0. -1.
         -5   -1    0    0    0  501 -0.00000000000E+00 -0.00000000000E+00 -0.14892901965E+03  0.14900316404E+03  0.47000000000E+01 0.  1.
          6    1    1    2  502    0 -0.10110187118E+02  0.51519136817E+01  0.15827693013E+03  0.23401782990E+03  0.17200000000E+03 0. -1.
         -6    1    1    2    0  502  0.10110187118E+02 -0.51519136817E+01 -0.44266265884E+02  0.17796702052E+03  0.17200000000E+03 0.  1.
</event>
<event>
 4    1 -0.6479440E-004  0.1860844E+03  0.7818608E-02  0.1162041E+00
         -5   -1    0    0    0  501 -0.00000000000E+00  0.00000000000E+00  0.83122464895E+03  0.83123793647E+03  0.47000000000E+01 0.  1.
          5   -1    0    0  501    0  0.00000000000E+00 -0.00000000000E+00 -0.20446493439E+03  0.20451894630E+03  0.47000000000E+01 0. -1.
          6    1    1    2  502    0  0.70996678107E+02 -0.16966020270E+01 -0.14875194105E+03  0.23823212782E+03  0.17200000000E+03 0. -1.
         -6    1    1    2    0  502 -0.70996678107E+02  0.16966020270E+01  0.77551165561E+03  0.79752475495E+03  0.17200000000E+03 0.  1.
</event>
<event>
 4    1 -0.6479440E-004  0.1730344E+03  0.7818608E-02  0.1174720E+00
         -5   -1    0    0    0  501 -0.00000000000E+00  0.00000000000E+00  0.40672796104E+03  0.40675511588E+03  0.47000000000E+01 0.  1.
          5   -1    0    0  501    0  0.00000000000E+00 -0.00000000000E+00 -0.74859252230E+02  0.75006650668E+02  0.47000000000E+01 0. -1.
          6    1    1    2  502    0 -0.18834782300E+02 -0.14669665639E+01  0.13362621824E+03  0.21862494646E+03  0.17200000000E+03 0.  1.
         -6    1    1    2    0  502  0.18834782300E+02  0.14669665639E+01  0.19824249057E+03  0.26313682008E+03  0.17200000000E+03 0.  1.
</event>
<event>
 4    1 -0.6479440E-004  0.3513817E+03  0.7818608E-02  0.1062049E+00
         -5   -1    0    0    0  501 -0.00000000000E+00  0.00000000000E+00  0.65290319326E+03  0.65292010979E+03  0.47000000000E+01 0.  1.
          5   -1    0    0  501    0  0.00000000000E+00 -0.00000000000E+00 -0.28068037219E+03  0.28071972024E+03  0.47000000000E+01 0. -1.
          6    1    1    2  502    0  0.27460778193E+03  0.13592516335E+03 -0.80568512225E+02  0.36050016517E+03  0.17200000000E+03 0. -1.
         -6    1    1    2    0  502 -0.27460778193E+03 -0.13592516335E+03  0.45279133330E+03  0.57313966486E+03  0.17200000000E+03 0.  1.
</event>
<event>
 4    1 -0.6479440E-004  0.3245085E+03  0.7818608E-02  0.1073593E+00
         -5   -1    0    0    0  501 -0.00000000000E+00  0.00000000000E+00  0.66144544445E+03  0.66146214252E+03  0.47000000000E+01 0.  1.
          5   -1    0    0  501    0  0.00000000000E+00 -0.00000000000E+00 -0.13448174975E+04  0.13448257105E+04  0.47000000000E+01 0. -1.
          6    1    1    2  502    0 -0.26770054880E+03  0.63703847761E+02 -0.12835836068E+04  0.13239685191E+04  0.17200000000E+03 0. -1.
         -6    1    1    2    0  502  0.26770054880E+03 -0.63703847761E+02  0.60021155377E+03  0.68231933384E+03  0.17200000000E+03 0.  1.
</event>
<event>
 4    1 -0.6479440E-004  0.1738354E+03  0.7818608E-02  0.1173906E+00
         -5   -1    0    0    0  501 -0.00000000000E+00  0.00000000000E+00  0.40457394476E+03  0.40460124417E+03  0.47000000000E+01 0.  1.
          5   -1    0    0  501    0  0.00000000000E+00 -0.00000000000E+00 -0.25123098231E+03  0.25127494199E+03  0.47000000000E+01 0. -1.
          6    1    1    2  502    0 -0.24779008668E+02 -0.45551047120E+01 -0.19824181686E+03  0.26366373698E+03  0.17200000000E+03 0. -1.
         -6    1    1    2    0  502  0.24779008668E+02  0.45551047120E+01  0.35158477930E+03  0.39221244918E+03  0.17200000000E+03 0.  1.
</event>
<event>
 4    1 -0.6479440E-004  0.2103853E+03  0.7818608E-02  0.1141261E+00
          5   -1    0    0  501    0  0.00000000000E+00  0.00000000000E+00  0.26561418917E+03  0.26565576878E+03  0.47000000000E+01 0. -1.
         -5   -1    0    0    0  501 -0.00000000000E+00 -0.00000000000E+00 -0.59455078126E+03  0.59456935802E+03  0.47000000000E+01 0.  1.
          6    1    1    2  502    0  0.77245596935E+02 -0.93333236464E+02  0.20043523520E+03  0.29057917817E+03  0.17200000000E+03 0. -1.
         -6    1    1    2    0  502 -0.77245596935E+02  0.93333236464E+02 -0.52937182729E+03  0.56964594864E+03  0.17200000000E+03 0.  1.
</event>
<event>
 4    1 -0.6479440E-004  0.2506898E+03  0.7818608E-02  0.1112870E+00
          5   -1    0    0  501    0  0.00000000000E+00  0.00000000000E+00  0.11211399152E+04  0.11211497667E+04  0.47000000000E+01 0. -1.
         -5   -1    0    0    0  501 -0.00000000000E+00 -0.00000000000E+00 -0.43948685038E+03  0.43951198124E+03  0.47000000000E+01 0.  1.
          6    1    1    2  502    0 -0.67171672057E+02 -0.16955636550E+03  0.10696993450E+04  0.10986819755E+04  0.17200000000E+03 0. -1.
         -6    1    1    2    0  502  0.67171672057E+02  0.16955636550E+03 -0.38804628018E+03  0.46197977247E+03  0.17200000000E+03 0.  1.
</event>
<event>
 4    1 -0.6479440E-004  0.2295995E+03  0.7818608E-02  0.1126922E+00
         -5   -1    0    0    0  501 -0.00000000000E+00  0.00000000000E+00  0.11217288862E+03  0.11227130952E+03  0.47000000000E+01 0.  1.
          5   -1    0    0  501    0  0.00000000000E+00 -0.00000000000E+00 -0.10941171083E+04  0.10941272031E+04  0.47000000000E+01 0. -1.
          6    1    1    2  502    0 -0.37134385050E+02 -0.14748880310E+03 -0.94665807748E+03  0.97410339557E+03  0.17200000000E+03 0. -1.
         -6    1    1    2    0  502  0.37134385050E+02  0.14748880310E+03 -0.35286142179E+02  0.23229511709E+03  0.17200000000E+03 0.  1.
</event>
<event>
 4    1 -0.6479440E-004  0.1871213E+03  0.7818608E-02  0.1161084E+00
         -5   -1    0    0    0  501 -0.00000000000E+00  0.00000000000E+00  0.79435031949E+03  0.79436422381E+03  0.47000000000E+01 0.  1.
          5   -1    0    0  501    0  0.00000000000E+00 -0.00000000000E+00 -0.87011401678E+02  0.87138246608E+02  0.47000000000E+01 0. -1.
          6    1    1    2  502    0 -0.21379585536E+02 -0.70521685857E+02  0.43930082839E+02  0.19220886304E+03  0.17200000000E+03 0. -1.
         -6    1    1    2    0  502  0.21379585536E+02  0.70521685857E+02  0.66340883497E+03  0.68929360738E+03  0.17200000000E+03 0.  1.
</event>
<event>
 4    1 -0.6479440E-004  0.1721129E+03  0.7818608E-02  0.1175662E+00
          5   -1    0    0  501    0  0.00000000000E+00  0.00000000000E+00  0.72243843301E+02  0.72396566873E+02  0.47000000000E+01 0. -1.
         -5   -1    0    0    0  501 -0.00000000000E+00 -0.00000000000E+00 -0.47351009598E+03  0.47353342120E+03  0.47000000000E+01 0.  1.
          6    1    1    2  502    0 -0.59872357660E+01 -0.17286428084E+01 -0.10024390338E+03  0.19917749713E+03  0.17200000000E+03 0. -1.
         -6    1    1    2    0  502  0.59872357660E+01  0.17286428084E+01 -0.30102234930E+03  0.34675249095E+03  0.17200000000E+03 0.  1.
</event>
<event>
 4    1 -0.6479440E-004  0.3002035E+03  0.7818608E-02  0.1085139E+00
         -5   -1    0    0    0  501 -0.00000000000E+00  0.00000000000E+00  0.54161313801E+03  0.54163353041E+03  0.47000000000E+01 0.  1.
          5   -1    0    0  501    0  0.00000000000E+00 -0.00000000000E+00 -0.20824991879E+03  0.20830294927E+03  0.47000000000E+01 0. -1.
          6    1    1    2  502    0  0.18562892164E+03  0.16149315231E+03 -0.15013079950E+01  0.30020724295E+03  0.17200000000E+03 0. -1.
         -6    1    1    2    0  502 -0.18562892164E+03 -0.16149315231E+03  0.33486452722E+03  0.44972923674E+03  0.17200000000E+03 0.  1.
</event>
<event>
 4    1 -0.6479440E-004  0.1827470E+03  0.7818608E-02  0.1165171E+00
          5   -1    0    0  501    0  0.00000000000E+00  0.00000000000E+00  0.13380081248E+03  0.13388333511E+03  0.47000000000E+01 0. -1.
         -5   -1    0    0    0  501 -0.00000000000E+00 -0.00000000000E+00 -0.87625587415E+03  0.87626847882E+03  0.47000000000E+01 0.  1.
          6    1    1    2  502    0 -0.38737245646E+02 -0.48082087649E+02  0.55933609018E+02  0.19111522695E+03  0.17200000000E+03 0. -1.
         -6    1    1    2    0  502  0.38737245646E+02  0.48082087649E+02 -0.79838867068E+03  0.81903658699E+03  0.17200000000E+03 0.  1.
</event>
<event>
 4    1 -0.6479440E-004  0.1735968E+03  0.7818608E-02  0.1174148E+00
         -5   -1    0    0    0  501 -0.00000000000E+00  0.00000000000E+00  0.61597605829E+03  0.61599398892E+03  0.47000000000E+01 0.  1.
          5   -1    0    0  501    0  0.00000000000E+00 -0.00000000000E+00 -0.39319748812E+03  0.39322557733E+03  0.47000000000E+01 0. -1.
          6    1    1    2  502    0 -0.15166555099E+02  0.17939290789E+02 -0.36078814178E+03  0.40037972701E+03  0.17200000000E+03 0. -1.
         -6    1    1    2    0  502  0.15166555099E+02 -0.17939290789E+02  0.58356671195E+03  0.60883983924E+03  0.17200000000E+03 0.  1.
</event>
<event>
 4    1 -0.6479440E-004  0.3093518E+03  0.7818608E-02  0.1080657E+00
          5   -1    0    0  501    0  0.00000000000E+00  0.00000000000E+00  0.57091800114E+03  0.57093734685E+03  0.47000000000E+01 0. -1.
         -5   -1    0    0    0  501 -0.00000000000E+00 -0.00000000000E+00 -0.17191533159E+03  0.17197956633E+03  0.47000000000E+01 0.  1.
          6    1    1    2  502    0 -0.11837934883E+03  0.22825618660E+03  0.25856253495E+03  0.40317879586E+03  0.17200000000E+03 0. -1.
         -6    1    1    2    0  502  0.11837934883E+03 -0.22825618660E+03  0.14044013459E+03  0.33973811731E+03  0.17200000000E+03 0. -1.
</event>
<event>
 4    1 -0.6479440E-004  0.1769588E+03  0.7818608E-02  0.1170779E+00
         -5   -1    0    0    0  501 -0.00000000000E+00  0.00000000000E+00  0.29984732789E+03  0.29988416105E+03  0.47000000000E+01 0.  1.
          5   -1    0    0  501    0  0.00000000000E+00 -0.00000000000E+00 -0.15858822260E+03  0.15865785309E+03  0.47000000000E+01 0. -1.
          6    1    1    2  502    0  0.61491652918E+00 -0.41593677787E+02 -0.63412929055E+02  0.18797768944E+03  0.17200000000E+03 0. -1.
         -6    1    1    2    0  502 -0.61491652918E+00  0.41593677787E+02  0.20467203435E+03  0.27056432470E+03  0.17200000000E+03 0.  1.
</event>
<event>
 4    1 -0.6479440E-004  0.2002062E+03  0.7818608E-02  0.1149565E+00
         -5   -1    0    0    0  501 -0.00000000000E+00  0.00000000000E+00  0.17104735677E+03  0.17111191734E+03  0.47000000000E+01 0.  1.
          5   -1    0    0  501    0  0.00000000000E+00 -0.00000000000E+00 -0.57392791751E+03  0.57394716177E+03  0.47000000000E+01 0. -1.
          6    1    1    2  502    0 -0.10246130649E+03 -0.43666546690E+00 -0.48802861265E+03  0.52749828129E+03  0.17200000000E+03 0. -1.
         -6    1    1    2    0  502  0.10246130649E+03  0.43666546690E+00  0.85148051899E+02  0.21756079782E+03  0.17200000000E+03 0.  1.
</event>
<event>
 4    1 -0.6479440E-004  0.1781653E+03  0.7818608E-02  0.1169591E+00
         -5   -1    0    0    0  501 -0.00000000000E+00  0.00000000000E+00  0.22994654637E+03  0.22999457425E+03  0.47000000000E+01 0.  1.
          5   -1    0    0  501    0  0.00000000000E+00 -0.00000000000E+00 -0.71208102452E+03  0.71209653522E+03  0.47000000000E+01 0. -1.
          6    1    1    2  502    0 -0.46460389075E+02 -0.54810284824E+00 -0.66400600061E+03  0.68749315416E+03  0.17200000000E+03 0. -1.
         -6    1    1    2    0  502  0.46460389075E+02  0.54810284824E+00  0.18187152246E+03  0.25459795532E+03  0.17200000000E+03 0.  1.
</event>
<event>
 4    1 -0.6479440E-004  0.1808875E+03  0.7818608E-02  0.1166947E+00
          5   -1    0    0  501    0  0.00000000000E+00  0.00000000000E+00  0.94890710302E+03  0.94891874265E+03  0.47000000000E+01 0. -1.
         -5   -1    0    0    0  501 -0.00000000000E+00 -0.00000000000E+00 -0.39679871900E+02  0.39957255086E+02  0.47000000000E+01 0.  1.
          6    1    1    2  502    0  0.35023864535E+02  0.43699294946E+02  0.63579539341E+03  0.66102653634E+03  0.17200000000E+03 0. -1.
         -6    1    1    2    0  502 -0.35023864535E+02 -0.43699294946E+02  0.27343183770E+03  0.32784946139E+03  0.17200000000E+03 0.  1.
</event>
<event>
 4    1 -0.6479440E-004  0.1772541E+03  0.7818608E-02  0.1170487E+00
         -5   -1    0    0    0  501 -0.00000000000E+00  0.00000000000E+00  0.53729709966E+02  0.53934884195E+02  0.47000000000E+01 0.  1.
          5   -1    0    0  501    0  0.00000000000E+00 -0.00000000000E+00 -0.12877318954E+04  0.12877404724E+04  0.47000000000E+01 0. -1.
          6    1    1    2  502    0  0.15497282287E+02 -0.39935501727E+02 -0.11130754598E+04  0.11271007006E+04  0.17200000000E+03 0. -1.
         -6    1    1    2    0  502 -0.15497282287E+02  0.39935501727E+02 -0.12092672563E+03  0.21457465607E+03  0.17200000000E+03 0.  1.
</event>
<event>
 4    1 -0.6479440E-004  0.1790901E+03  0.7818608E-02  0.1168687E+00
         -5   -1    0    0    0  501 -0.00000000000E+00  0.00000000000E+00  0.11192166879E+04  0.11192265564E+04  0.47000000000E+01 0.  1.
          5   -1    0    0  501    0  0.00000000000E+00 -0.00000000000E+00 -0.82267448790E+02  0.82401596650E+02  0.47000000000E+01 0. -1.
          6    1    1    2  502    0  0.42057724557E+02 -0.26840640574E+02  0.33342326166E+02  0.18216745839E+03  0.17200000000E+03 0. -1.
         -6    1    1    2    0  502 -0.42057724557E+02  0.26840640574E+02  0.10036069130E+04  0.10194606946E+04  0.17200000000E+03 0.  1.
</event>
<event>
 4    1 -0.6479440E-004  0.3464648E+03  0.7818608E-02  0.1064075E+00
          5   -1    0    0  501    0  0.00000000000E+00  0.00000000000E+00  0.39452303262E+03  0.39455102746E+03  0.47000000000E+01 0. -1.
         -5   -1    0    0    0  501 -0.00000000000E+00 -0.00000000000E+00 -0.33265707278E+03  0.33269027348E+03  0.47000000000E+01 0.  1.
          6    1    1    2  502    0 -0.66311280896E+02  0.29335421023E+03  0.13726771834E+03  0.37266647976E+03  0.17200000000E+03 0. -1.
         -6    1    1    2    0  502  0.66311280896E+02 -0.29335421023E+03 -0.75401758495E+02  0.35457482119E+03  0.17200000000E+03 0.  1.
</event>
<event>
 4    1 -0.6479440E-004  0.1852222E+03  0.7818608E-02  0.1162843E+00
          5   -1    0    0  501    0  0.00000000000E+00  0.00000000000E+00  0.10258359361E+04  0.10258467028E+04  0.47000000000E+01 0. -1.
         -5   -1    0    0    0  501 -0.00000000000E+00 -0.00000000000E+00 -0.17281878527E+03  0.17288268434E+03  0.47000000000E+01 0.  1.
          6    1    1    2  502    0 -0.34582613287E+02 -0.59391216799E+02  0.96478099356E+03  0.98239993857E+03  0.17200000000E+03 0. -1.
         -6    1    1    2    0  502  0.34582613287E+02  0.59391216799E+02 -0.11176384278E+03  0.21632944859E+03  0.17200000000E+03 0.  1.
</event>
<event>
 4    1 -0.6479440E-004  0.1768655E+03  0.7818608E-02  0.1170872E+00
         -5   -1    0    0    0  501 -0.00000000000E+00  0.00000000000E+00  0.67449935787E+03  0.67451573278E+03  0.47000000000E+01 0.  1.
          5   -1    0    0  501    0  0.00000000000E+00 -0.00000000000E+00 -0.56764631839E+02  0.56958874882E+02  0.47000000000E+01 0. -1.
          6    1    1    2  502    0  0.19468591392E+01 -0.41153422021E+02  0.15171459602E+03  0.23302084252E+03  0.17200000000E+03 0. -1.
         -6    1    1    2    0  502 -0.19468591392E+01  0.41153422021E+02  0.46602013001E+03  0.49845376513E+03  0.17200000000E+03 0.  1.
</event>
<event>
 4    1 -0.6479440E-004  0.2120477E+03  0.7818608E-02  0.1139955E+00
          5   -1    0    0  501    0  0.00000000000E+00  0.00000000000E+00  0.80960648173E+02  0.81096957727E+02  0.47000000000E+01 0. -1.
         -5   -1    0    0    0  501 -0.00000000000E+00 -0.00000000000E+00 -0.83798678191E+03  0.83799996220E+03  0.47000000000E+01 0.  1.
          6    1    1    2  502    0 -0.39689507954E+02  0.11749447820E+03 -0.11137699469E+03  0.23951835920E+03  0.17200000000E+03 0. -1.
         -6    1    1    2    0  502  0.39689507954E+02 -0.11749447820E+03 -0.64564913905E+03  0.67957856073E+03  0.17200000000E+03 0. -1.
</event>
<event>
 4    1 -0.6479440E-004  0.1761884E+03  0.7818608E-02  0.1171544E+00
         -5   -1    0    0    0  501 -0.00000000000E+00  0.00000000000E+00  0.21776183851E+03  0.21781255315E+03  0.47000000000E+01 0.  1.
          5   -1    0    0  501    0  0.00000000000E+00 -0.00000000000E+00 -0.19086851947E+04  0.19086909814E+04  0.47000000000E+01 0. -1.
          6    1    1    2  502    0  0.52614744477E+01 -0.37824184817E+02 -0.18682440620E+04  0.18765335668E+04  0.17200000000E+03 0. -1.
         -6    1    1    2    0  502 -0.52614744477E+01  0.37824184817E+02  0.17732070582E+03  0.24996996776E+03  0.17200000000E+03 0.  1.
</event>
<event>
 4    1 -0.6479440E-004  0.1867845E+03  0.7818608E-02  0.1161394E+00
         -5   -1    0    0    0  501 -0.00000000000E+00  0.00000000000E+00  0.13636087531E+03  0.13644184958E+03  0.47000000000E+01 0.  1.
          5   -1    0    0  501    0  0.00000000000E+00 -0.00000000000E+00 -0.29000916566E+03  0.29004724816E+03  0.47000000000E+01 0. -1.
          6    1    1    2  502    0  0.25354008913E+02  0.68276183293E+02 -0.15018118946E+03  0.23967238606E+03  0.17200000000E+03 0. -1.
         -6    1    1    2    0  502 -0.25354008913E+02 -0.68276183293E+02 -0.34671008800E+01  0.18681671168E+03  0.17200000000E+03 0.  1.
</event>
<event>
 4    1 -0.6479440E-004  0.2098405E+03  0.7818608E-02  0.1141692E+00
          5   -1    0    0  501    0  0.00000000000E+00  0.00000000000E+00  0.34929459674E+03  0.34932621618E+03  0.47000000000E+01 0. -1.
         -5   -1    0    0    0  501 -0.00000000000E+00 -0.00000000000E+00 -0.48149895148E+03  0.48152188972E+03  0.47000000000E+01 0.  1.
          6    1    1    2  502    0 -0.54278179834E+02  0.10725156556E+03  0.29082959108E+03  0.35862915410E+03  0.17200000000E+03 0. -1.
         -6    1    1    2    0  502  0.54278179834E+02 -0.10725156556E+03 -0.42303394583E+03  0.47221895180E+03  0.17200000000E+03 0.  1.
</event>
<event>
 4    1 -0.6479440E-004  0.1758981E+03  0.7818608E-02  0.1171833E+00
          5   -1    0    0  501    0  0.00000000000E+00  0.00000000000E+00  0.30197580019E+03  0.30201237375E+03  0.47000000000E+01 0. -1.
         -5   -1    0    0    0  501 -0.00000000000E+00 -0.00000000000E+00 -0.50776976405E+03  0.50779151557E+03  0.47000000000E+01 0.  1.
          6    1    1    2  502    0  0.15108478025E+02  0.33584105339E+02  0.25886167346E+03  0.31296888700E+03  0.17200000000E+03 0. -1.
         -6    1    1    2    0  502 -0.15108478025E+02 -0.33584105339E+02 -0.46465563732E+03  0.49683500233E+03  0.17200000000E+03 0.  1.
</event>
<event>
 4    1 -0.6479440E-004  0.2385671E+03  0.7818608E-02  0.1120751E+00
          5   -1    0    0  501    0  0.00000000000E+00  0.00000000000E+00  0.71054441001E+03  0.71055995426E+03  0.47000000000E+01 0. -1.
         -5   -1    0    0    0  501 -0.00000000000E+00 -0.00000000000E+00 -0.28212958134E+03  0.28216872730E+03  0.47000000000E+01 0.  1.
          6    1    1    2  502    0 -0.13144878695E+03  0.10025701737E+03  0.63425252653E+03  0.67763597936E+03  0.17200000000E+03 0. -1.
         -6    1    1    2    0  502  0.13144878695E+03 -0.10025701737E+03 -0.20583769785E+03  0.31509270220E+03  0.17200000000E+03 0.  1.
</event>
<event>
 4    1 -0.6479440E-004  0.1791359E+03  0.7818608E-02  0.1168642E+00
          5   -1    0    0  501    0  0.00000000000E+00  0.00000000000E+00  0.11322877012E+04  0.11322974557E+04  0.47000000000E+01 0. -1.
         -5   -1    0    0    0  501 -0.00000000000E+00 -0.00000000000E+00 -0.43232551173E+02  0.43487279530E+02  0.47000000000E+01 0.  1.
          6    1    1    2  502    0  0.22855062423E+02  0.44534400267E+02  0.89060492256E+03  0.90844196004E+03  0.17200000000E+03 0. -1.
         -6    1    1    2    0  502 -0.22855062423E+02 -0.44534400267E+02  0.19845022747E+03  0.26734277523E+03  0.17200000000E+03 0.  1.
</event>
<event>
 4    1 -0.6479440E-004  0.1722777E+03  0.7818608E-02  0.1175493E+00
          5   -1    0    0  501    0  0.00000000000E+00  0.00000000000E+00  0.33564157740E+03  0.33567448291E+03  0.47000000000E+01 0. -1.
         -5   -1    0    0    0  501 -0.00000000000E+00 -0.00000000000E+00 -0.95833357304E+02  0.95948540230E+02  0.47000000000E+01 0.  1.
          6    1    1    2  502    0  0.88590904024E+01  0.41359872241E+01  0.18025624246E+03  0.24934294219E+03  0.17200000000E+03 0. -1.
         -6    1    1    2    0  502 -0.88590904024E+01 -0.41359872241E+01  0.59551977637E+02  0.18228008096E+03  0.17200000000E+03 0.  1.
</event>
<event>
 4    1 -0.6479440E-004  0.1885236E+03  0.7818608E-02  0.1159800E+00
         -5   -1    0    0    0  501 -0.00000000000E+00  0.00000000000E+00  0.10977533935E+03  0.10987590787E+03  0.47000000000E+01 0.  1.
          5   -1    0    0  501    0  0.00000000000E+00 -0.00000000000E+00 -0.60547930466E+03  0.60549754613E+03  0.47000000000E+01 0. -1.
          6    1    1    2  502    0 -0.27374138939E+02 -0.72165199323E+02 -0.49192444701E+03  0.52681194087E+03  0.17200000000E+03 0. -1.
         -6    1    1    2    0  502  0.27374138939E+02  0.72165199323E+02 -0.37795183027E+01  0.18856151313E+03  0.17200000000E+03 0.  1.
</event>
<event>
 4    1 -0.6479440E-004  0.2359592E+03  0.7818608E-02  0.1122514E+00
         -5   -1    0    0    0  501 -0.00000000000E+00  0.00000000000E+00  0.54656936379E+02  0.54858642840E+02  0.47000000000E+01 0.  1.
          5   -1    0    0  501    0  0.00000000000E+00 -0.00000000000E+00 -0.13416135844E+04  0.13416218170E+04  0.47000000000E+01 0. -1.
          6    1    1    2  502    0 -0.13708182116E+03 -0.85447683561E+02 -0.29982184185E+03  0.38153619641E+03  0.17200000000E+03 0. -1.
         -6    1    1    2    0  502  0.13708182116E+03  0.85447683561E+02 -0.98713480622E+03  0.10149442635E+04  0.17200000000E+03 0. -1.
</event>
<event>
 4    1 -0.6479440E-004  0.2878864E+03  0.7818608E-02  0.1091458E+00
         -5   -1    0    0    0  501 -0.00000000000E+00  0.00000000000E+00  0.19017795074E+03  0.19023601906E+03  0.47000000000E+01 0.  1.
          5   -1    0    0  501    0  0.00000000000E+00 -0.00000000000E+00 -0.55993858595E+03  0.55995831098E+03  0.47000000000E+01 0. -1.
          6    1    1    2  502    0 -0.22704220612E+03 -0.41790258399E+02 -0.36158356861E+03  0.46219180666E+03  0.17200000000E+03 0. -1.
         -6    1    1    2    0  502  0.22704220612E+03  0.41790258399E+02 -0.81770665944E+01  0.28800252338E+03  0.17200000000E+03 0.  1.
</event>
<event>
 4    1 -0.6479440E-004  0.2066093E+03  0.7818608E-02  0.1144280E+00
         -5   -1    0    0    0  501 -0.00000000000E+00  0.00000000000E+00  0.16485508239E+03  0.16492206702E+03  0.47000000000E+01 0.  1.
          5   -1    0    0  501    0  0.00000000000E+00 -0.00000000000E+00 -0.14815077356E+04  0.14815151909E+04  0.47000000000E+01 0. -1.
          6    1    1    2  502    0  0.11197757471E+03  0.23757449827E+02 -0.14061710345E+04  0.14212685784E+04  0.17200000000E+03 0. -1.
         -6    1    1    2    0  502 -0.11197757471E+03 -0.23757449827E+02  0.89518381224E+02  0.22516867952E+03  0.17200000000E+03 0.  1.
</event>
<event>
 4    1 -0.6479440E-004  0.1825250E+03  0.7818608E-02  0.1165381E+00
         -5   -1    0    0    0  501 -0.00000000000E+00  0.00000000000E+00  0.50806055121E+03  0.50808229028E+03  0.47000000000E+01 0.  1.
          5   -1    0    0  501    0  0.00000000000E+00 -0.00000000000E+00 -0.85688604326E+03  0.85689893286E+03  0.47000000000E+01 0. -1.
          6    1    1    2  502    0 -0.28955318091E+02 -0.53786215791E+02 -0.83027119381E+03  0.85009741955E+03  0.17200000000E+03 0. -1.
         -6    1    1    2    0  502  0.28955318091E+02  0.53786215791E+02  0.48144570176E+03  0.51488380359E+03  0.17200000000E+03 0.  1.
</event>
<event>
 4    1 -0.6479440E-004  0.4405258E+03  0.7818608E-02  0.1030586E+00
         -5   -1    0    0    0  501 -0.00000000000E+00  0.00000000000E+00  0.89003323904E+03  0.89004564861E+03  0.47000000000E+01 0.  1.
          5   -1    0    0  501    0  0.00000000000E+00 -0.00000000000E+00 -0.29053946117E+03  0.29057747418E+03  0.47000000000E+01 0. -1.
          6    1    1    2  502    0  0.35832839233E+03  0.18994675970E+03  0.48156861843E+01  0.44055215253E+03  0.17200000000E+03 0. -1.
         -6    1    1    2    0  502 -0.35832839233E+03 -0.18994675970E+03  0.59467809169E+03  0.74007097025E+03  0.17200000000E+03 0.  1.
</event>
<event>
 4    1 -0.6479440E-004  0.1732554E+03  0.7818608E-02  0.1174495E+00
         -5   -1    0    0    0  501 -0.00000000000E+00  0.00000000000E+00  0.46792346260E+02  0.47027796764E+02  0.47000000000E+01 0.  1.
          5   -1    0    0  501    0  0.00000000000E+00 -0.00000000000E+00 -0.10911148198E+04  0.10911249424E+04  0.47000000000E+01 0. -1.
          6    1    1    2  502    0 -0.88574754092E+01 -0.18840942498E+02 -0.88817560164E+03  0.90491620349E+03  0.17200000000E+03 0. -1.
         -6    1    1    2    0  502  0.88574754092E+01  0.18840942498E+02 -0.15614687191E+03  0.23323653571E+03  0.17200000000E+03 0.  1.
</event>
<event>
 4    1 -0.6479440E-004  0.2484770E+03  0.7818608E-02  0.1114271E+00
          5   -1    0    0  501    0  0.00000000000E+00  0.00000000000E+00  0.11441660217E+03  0.11451309468E+03  0.47000000000E+01 0. -1.
         -5   -1    0    0    0  501 -0.00000000000E+00 -0.00000000000E+00 -0.10266075175E+04  0.10266182762E+04  0.47000000000E+01 0.  1.
          6    1    1    2  502    0 -0.90354168123E+02  0.15489649503E+03 -0.63007024192E+02  0.25634095453E+03  0.17200000000E+03 0. -1.
         -6    1    1    2    0  502  0.90354168123E+02 -0.15489649503E+03 -0.84918389112E+03  0.88479041632E+03  0.17200000000E+03 0.  1.
</event>
<event>
 4    1 -0.6479440E-004  0.1805111E+03  0.7818608E-02  0.1167309E+00
         -5   -1    0    0    0  501 -0.00000000000E+00  0.00000000000E+00  0.12782187825E+03  0.12790825837E+03  0.47000000000E+01 0.  1.
          5   -1    0    0  501    0  0.00000000000E+00 -0.00000000000E+00 -0.42117556341E+03  0.42120178681E+03  0.47000000000E+01 0. -1.
          6    1    1    2  502    0  0.51969574329E+02 -0.17303540264E+02 -0.31925187158E+03  0.36675060555E+03  0.17200000000E+03 0. -1.
         -6    1    1    2    0  502 -0.51969574329E+02  0.17303540264E+02  0.25898186420E+02  0.18235943963E+03  0.17200000000E+03 0.  1.
</event>
<event>
 4    1 -0.6479440E-004  0.1767257E+03  0.7818608E-02  0.1171010E+00
          5   -1    0    0  501    0  0.00000000000E+00  0.00000000000E+00  0.42989872166E+03  0.42992441299E+03  0.47000000000E+01 0. -1.
         -5   -1    0    0    0  501 -0.00000000000E+00 -0.00000000000E+00 -0.25238546848E+03  0.25242922711E+03  0.47000000000E+01 0.  1.
          6    1    1    2  502    0 -0.10302487658E+01 -0.40582298871E+02  0.37668458852E+03  0.41608083785E+03  0.17200000000E+03 0. -1.
         -6    1    1    2    0  502  0.10302487658E+01  0.40582298871E+02 -0.19917133534E+03  0.26627280225E+03  0.17200000000E+03 0.  1.
</event>
<event>
 4    1 -0.6479440E-004  0.2327322E+03  0.7818608E-02  0.1124731E+00
         -5   -1    0    0    0  501 -0.00000000000E+00  0.00000000000E+00  0.93445971192E+02  0.93564093177E+02  0.47000000000E+01 0.  1.
          5   -1    0    0  501    0  0.00000000000E+00 -0.00000000000E+00 -0.16257080910E+04  0.16257148850E+04  0.47000000000E+01 0. -1.
          6    1    1    2  502    0  0.14021992221E+03 -0.70132958421E+02 -0.14558334312E+04  0.14743185673E+04  0.17200000000E+03 0. -1.
         -6    1    1    2    0  502 -0.14021992221E+03  0.70132958421E+02 -0.76428688621E+02  0.24496041085E+03  0.17200000000E+03 0.  1.
</event>
<event>
 4    1 -0.6479440E-004  0.2489730E+03  0.7818608E-02  0.1113956E+00
         -5   -1    0    0    0  501 -0.00000000000E+00  0.00000000000E+00  0.41911323388E+03  0.41913958631E+03  0.47000000000E+01 0.  1.
          5   -1    0    0  501    0  0.00000000000E+00 -0.00000000000E+00 -0.45175940342E+03  0.45178385161E+03  0.47000000000E+01 0. -1.
          6    1    1    2  502    0  0.11264473958E+02  0.17965707667E+03 -0.37346750148E+03  0.44884911522E+03  0.17200000000E+03 0. -1.
         -6    1    1    2    0  502 -0.11264473958E+02 -0.17965707667E+03  0.34082133195E+03  0.42207432270E+03  0.17200000000E+03 0.  1.
</event>
<event>
 4    1 -0.6479440E-004  0.1866802E+03  0.7818608E-02  0.1161490E+00
          5   -1    0    0  501    0  0.00000000000E+00  0.00000000000E+00  0.35290021556E+02  0.35601623860E+02  0.47000000000E+01 0. -1.
         -5   -1    0    0    0  501 -0.00000000000E+00 -0.00000000000E+00 -0.13617989761E+04  0.13618070867E+04  0.47000000000E+01 0.  1.
          6    1    1    2  502    0  0.64263646335E+02  0.33700079769E+02 -0.29472638836E+03  0.34887412574E+03  0.17200000000E+03 0. -1.
         -6    1    1    2    0  502 -0.64263646335E+02 -0.33700079769E+02 -0.10317825662E+04  0.10485345848E+04  0.17200000000E+03 0.  1.
</event>
<event>
 4    1 -0.6479440E-004  0.3067919E+03  0.7818608E-02  0.1081894E+00
          5   -1    0    0  501    0  0.00000000000E+00  0.00000000000E+00  0.88316623160E+02  0.88441596132E+02  0.47000000000E+01 0. -1.
         -5   -1    0    0    0  501 -0.00000000000E+00 -0.00000000000E+00 -0.17881352963E+04  0.17881414731E+04  0.47000000000E+01 0.  1.
          6    1    1    2  502    0  0.25302561746E+03  0.22700292183E+02 -0.25317815198E+03  0.39776933391E+03  0.17200000000E+03 0. -1.
         -6    1    1    2    0  502 -0.25302561746E+03 -0.22700292183E+02 -0.14466405211E+04  0.14788137353E+04  0.17200000000E+03 0.  1.
</event>
<event>
 4    1 -0.6479440E-004  0.1818626E+03  0.7818608E-02  0.1166013E+00
         -5   -1    0    0    0  501 -0.00000000000E+00  0.00000000000E+00  0.50198434264E+03  0.50200634484E+03  0.47000000000E+01 0.  1.
          5   -1    0    0  501    0  0.00000000000E+00 -0.00000000000E+00 -0.25887973064E+03  0.25892239172E+03  0.47000000000E+01 0. -1.
          6    1    1    2  502    0 -0.97324968606E+01  0.58268934526E+02 -0.20695878550E+03  0.27551030674E+03  0.17200000000E+03 0. -1.
         -6    1    1    2    0  502  0.97324968606E+01 -0.58268934526E+02  0.45006339751E+03  0.48541842981E+03  0.17200000000E+03 0.  1.
</event>
<event>
 4    1 -0.6479440E-004  0.1898852E+03  0.7818608E-02  0.1158565E+00
         -5   -1    0    0    0  501 -0.00000000000E+00  0.00000000000E+00  0.15834476802E+04  0.15834546554E+04  0.47000000000E+01 0.  1.
          5   -1    0    0  501    0  0.00000000000E+00 -0.00000000000E+00 -0.27494453330E+02  0.27893278113E+02  0.47000000000E+01 0. -1.
          6    1    1    2  502    0  0.11372094001E+02 -0.79643265697E+02  0.43808516622E+03  0.47746726291E+03  0.17200000000E+03 0. -1.
         -6    1    1    2    0  502 -0.11372094001E+02  0.79643265697E+02  0.11178680606E+04  0.11338806706E+04  0.17200000000E+03 0.  1.
</event>
<event>
 4    1 -0.6479440E-004  0.1801912E+03  0.7818608E-02  0.1167618E+00
          5   -1    0    0  501    0  0.00000000000E+00  0.00000000000E+00  0.50864403499E+02  0.51081087923E+02  0.47000000000E+01 0. -1.
         -5   -1    0    0    0  501 -0.00000000000E+00 -0.00000000000E+00 -0.71979394989E+03  0.71980929440E+03  0.47000000000E+01 0.  1.
          6    1    1    2  502    0  0.15299771171E+02 -0.51485677549E+02 -0.20357132465E+03  0.27186419810E+03  0.17200000000E+03 0. -1.
         -6    1    1    2    0  502 -0.15299771171E+02  0.51485677549E+02 -0.46535822174E+03  0.49902618422E+03  0.17200000000E+03 0.  1.
</event>
<event>
 4    1 -0.6479440E-004  0.1885298E+03  0.7818608E-02  0.1159794E+00
          5   -1    0    0  501    0  0.00000000000E+00  0.00000000000E+00  0.39179736427E+03  0.39182555385E+03  0.47000000000E+01 0. -1.
         -5   -1    0    0    0  501 -0.00000000000E+00 -0.00000000000E+00 -0.15356445472E+03  0.15363636208E+03  0.47000000000E+01 0.  1.
          6    1    1    2  502    0  0.77008328275E+02 -0.54044016183E+01  0.29364557731E+03  0.34895732584E+03  0.17200000000E+03 0. -1.
         -6    1    1    2    0  502 -0.77008328275E+02  0.54044016183E+01 -0.55412667755E+02  0.19650459009E+03  0.17200000000E+03 0. -1.
</event>
<event>
 4    1 -0.6479440E-004  0.2005971E+03  0.7818608E-02  0.1149236E+00
          5   -1    0    0  501    0  0.00000000000E+00  0.00000000000E+00  0.19689266387E+03  0.19694875244E+03  0.47000000000E+01 0. -1.
         -5   -1    0    0    0  501 -0.00000000000E+00 -0.00000000000E+00 -0.44239934914E+03  0.44242431456E+03  0.47000000000E+01 0.  1.
          6    1    1    2  502    0  0.89741676066E+02 -0.51006144053E+02  0.11177032328E+03  0.22963405740E+03  0.17200000000E+03 0. -1.
         -6    1    1    2    0  502 -0.89741676066E+02  0.51006144053E+02 -0.35727700854E+03  0.40973900960E+03  0.17200000000E+03 0.  1.
</event>
<event>
 4    1 -0.6479440E-004  0.2123066E+03  0.7818608E-02  0.1139752E+00
         -5   -1    0    0    0  501 -0.00000000000E+00  0.00000000000E+00  0.29945811466E+02  0.30312400505E+02  0.47000000000E+01 0.  1.
          5   -1    0    0  501    0  0.00000000000E+00 -0.00000000000E+00 -0.16444326187E+04  0.16444393353E+04  0.47000000000E+01 0. -1.
          6    1    1    2  502    0 -0.39636161495E+02  0.11797902899E+03 -0.10590827287E+04  0.10801529071E+04  0.17200000000E+03 0. -1.
         -6    1    1    2    0  502  0.39636161495E+02 -0.11797902899E+03 -0.55540407857E+03  0.59459882868E+03  0.17200000000E+03 0.  1.
</event>
<event>
 4    1 -0.6479440E-004  0.1799455E+03  0.7818608E-02  0.1167856E+00
          5   -1    0    0  501    0  0.00000000000E+00  0.00000000000E+00  0.35444266731E+03  0.35447382754E+03  0.47000000000E+01 0. -1.
         -5   -1    0    0    0  501 -0.00000000000E+00 -0.00000000000E+00 -0.22235531899E+03  0.22240498619E+03  0.47000000000E+01 0.  1.
          6    1    1    2  502    0  0.52877558722E+02  0.59169178579E+00  0.28746043411E+03  0.33913697453E+03  0.17200000000E+03 0. -1.
         -6    1    1    2    0  502 -0.52877558722E+02 -0.59169178579E+00 -0.15537308579E+03  0.23774183920E+03  0.17200000000E+03 0.  1.
</event>
<event>
 4    1 -0.6479440E-004  0.2978183E+03  0.7818608E-02  0.1086336E+00
          5   -1    0    0  501    0  0.00000000000E+00  0.00000000000E+00  0.53185543116E+03  0.53187619768E+03  0.47000000000E+01 0. -1.
         -5   -1    0    0    0  501 -0.00000000000E+00 -0.00000000000E+00 -0.22370605865E+03  0.22375542602E+03  0.47000000000E+01 0.  1.
          6    1    1    2  502    0 -0.43059413362E+02 -0.23928563851E+03  0.34474778404E+03  0.45557300675E+03  0.17200000000E+03 0. -1.
         -6    1    1    2    0  502  0.43059413362E+02  0.23928563851E+03 -0.36598411530E+02  0.30005861695E+03  0.17200000000E+03 0.  1.
</event>
<event>
 4    1 -0.6479440E-004  0.1851124E+03  0.7818608E-02  0.1162945E+00
         -5   -1    0    0    0  501 -0.00000000000E+00  0.00000000000E+00  0.18234930871E+03  0.18240986921E+03  0.47000000000E+01 0.  1.
          5   -1    0    0  501    0  0.00000000000E+00 -0.00000000000E+00 -0.19495747801E+03  0.19501412316E+03  0.47000000000E+01 0. -1.
          6    1    1    2  502    0  0.41281964655E+02  0.54574859427E+02 -0.42460951750E+02  0.18991984707E+03  0.17200000000E+03 0. -1.
         -6    1    1    2    0  502 -0.41281964655E+02 -0.54574859427E+02  0.29852782443E+02  0.18750414531E+03  0.17200000000E+03 0. -1.
</event>
<event>
 4    1 -0.6479440E-004  0.1745923E+03  0.7818608E-02  0.1173142E+00
         -5   -1    0    0    0  501 -0.00000000000E+00  0.00000000000E+00  0.41845182848E+03  0.41847822256E+03  0.47000000000E+01 0.  1.
          5   -1    0    0  501    0  0.00000000000E+00 -0.00000000000E+00 -0.11257176595E+03  0.11266983842E+03  0.47000000000E+01 0. -1.
          6    1    1    2  502    0 -0.16701694089E+02  0.24890464780E+02 -0.49253112037E+01  0.17466178893E+03  0.17200000000E+03 0. -1.
         -6    1    1    2    0  502  0.16701694089E+02 -0.24890464780E+02  0.31080537373E+03  0.35648627205E+03  0.17200000000E+03 0.  1.
</event>
<event>
 4    1 -0.6479440E-004  0.1867024E+03  0.7818608E-02  0.1161470E+00
         -5   -1    0    0    0  501 -0.00000000000E+00  0.00000000000E+00  0.49156429015E+03  0.49158675873E+03  0.47000000000E+01 0.  1.
          5   -1    0    0  501    0  0.00000000000E+00 -0.00000000000E+00 -0.95193130127E+02  0.95309086783E+02  0.47000000000E+01 0. -1.
          6    1    1    2  502    0  0.21476413570E+02  0.69372414018E+02  0.49792837953E+02  0.19322809029E+03  0.17200000000E+03 0. -1.
         -6    1    1    2    0  502 -0.21476413570E+02 -0.69372414018E+02  0.34657832207E+03  0.39366775522E+03  0.17200000000E+03 0.  1.
</event>
<event>
 4    1 -0.6479440E-004  0.1759908E+03  0.7818608E-02  0.1171741E+00
          5   -1    0    0  501    0  0.00000000000E+00  0.00000000000E+00  0.66014906659E+03  0.66016579745E+03  0.47000000000E+01 0. -1.
         -5   -1    0    0    0  501 -0.00000000000E+00 -0.00000000000E+00 -0.29634299520E+03  0.29638026385E+03  0.47000000000E+01 0.  1.
          6    1    1    2  502    0  0.27200481166E+02 -0.25473485396E+02  0.62069036782E+03  0.64515835059E+03  0.17200000000E+03 0. -1.
         -6    1    1    2    0  502 -0.27200481166E+02  0.25473485396E+02 -0.25688429642E+03  0.31138771071E+03  0.17200000000E+03 0.  1.
</event>
<event>
 4    1 -0.6479440E-004  0.3771570E+03  0.7818608E-02  0.1051990E+00
          5   -1    0    0  501    0  0.00000000000E+00  0.00000000000E+00  0.24383505071E+03  0.24388034352E+03  0.47000000000E+01 0. -1.
         -5   -1    0    0    0  501 -0.00000000000E+00 -0.00000000000E+00 -0.10193045179E+04  0.10193153536E+04  0.47000000000E+01 0.  1.
          6    1    1    2  502    0 -0.12057141988E+03 -0.31325061143E+03  0.25348870650E+02  0.37800790745E+03  0.17200000000E+03 0. -1.
         -6    1    1    2    0  502  0.12057141988E+03  0.31325061143E+03 -0.80081833779E+03  0.88518778968E+03  0.17200000000E+03 0.  1.
</event>
<event>
 4    1 -0.6479440E-004  0.2062673E+03  0.7818608E-02  0.1144556E+00
         -5   -1    0    0    0  501 -0.00000000000E+00  0.00000000000E+00  0.44024414134E+03  0.44026922897E+03  0.47000000000E+01 0.  1.
          5   -1    0    0  501    0  0.00000000000E+00 -0.00000000000E+00 -0.14116105407E+03  0.14123927636E+03  0.47000000000E+01 0. -1.
          6    1    1    2  502    0  0.45527951776E+02  0.10435239665E+03 -0.13826687325E+02  0.20673024540E+03  0.17200000000E+03 0. -1.
         -6    1    1    2    0  502 -0.45527951776E+02 -0.10435239665E+03  0.31290977460E+03  0.37477825993E+03  0.17200000000E+03 0.  1.
</event>
<event>
 4    1 -0.6479440E-004  0.1809177E+03  0.7818608E-02  0.1166918E+00
          5   -1    0    0  501    0  0.00000000000E+00  0.00000000000E+00  0.34323023971E+03  0.34326241776E+03  0.47000000000E+01 0. -1.
         -5   -1    0    0    0  501 -0.00000000000E+00 -0.00000000000E+00 -0.10357215382E+03  0.10367873961E+03  0.47000000000E+01 0.  1.
          6    1    1    2  502    0 -0.52402840102E+02  0.20028628429E+02  0.18306369009E+03  0.25737816193E+03  0.17200000000E+03 0.  1.
         -6    1    1    2    0  502  0.52402840102E+02 -0.20028628429E+02  0.56594395790E+02  0.18956299545E+03  0.17200000000E+03 0. -1.
</event>
<event>
 4    1 -0.6479440E-004  0.1891271E+03  0.7818608E-02  0.1159251E+00
         -5   -1    0    0    0  501 -0.00000000000E+00  0.00000000000E+00  0.23240476100E+03  0.23245228098E+03  0.47000000000E+01 0.  1.
          5   -1    0    0  501    0  0.00000000000E+00 -0.00000000000E+00 -0.28745821359E+03  0.28749663400E+03  0.47000000000E+01 0. -1.
          6    1    1    2  502    0 -0.21328587910E+01  0.78616276359E+02 -0.20476129867E+03  0.27874048401E+03  0.17200000000E+03 0. -1.
         -6    1    1    2    0  502  0.21328587910E+01 -0.78616276359E+02  0.14970784608E+03  0.24120843097E+03  0.17200000000E+03 0.  1.
</event>
<event>
 4    1 -0.6479440E-004  0.2203411E+03  0.7818608E-02  0.1133629E+00
          5   -1    0    0  501    0  0.00000000000E+00  0.00000000000E+00  0.35677975477E+03  0.35681071090E+03  0.47000000000E+01 0. -1.
         -5   -1    0    0    0  501 -0.00000000000E+00 -0.00000000000E+00 -0.23085178264E+03  0.23089962224E+03  0.47000000000E+01 0.  1.
          6    1    1    2  502    0 -0.10041193632E+03 -0.94253178868E+02  0.25128388921E+03  0.33420624120E+03  0.17200000000E+03 0. -1.
         -6    1    1    2    0  502  0.10041193632E+03  0.94253178868E+02 -0.12535591708E+03  0.25350409194E+03  0.17200000000E+03 0.  1.
</event>
<event>
 4    1 -0.6479440E-004  0.1982647E+03  0.7818608E-02  0.1151211E+00
          5   -1    0    0  501    0  0.00000000000E+00  0.00000000000E+00  0.15451501903E+04  0.15451573384E+04  0.47000000000E+01 0. -1.
         -5   -1    0    0    0  501 -0.00000000000E+00 -0.00000000000E+00 -0.25574600360E+02  0.26002887985E+02  0.47000000000E+01 0.  1.
          6    1    1    2  502    0  0.41323793972E+02  0.89539074064E+02  0.85204489256E+03  0.87480820793E+03  0.17200000000E+03 0. -1.
         -6    1    1    2    0  502 -0.41323793972E+02 -0.89539074064E+02  0.66753069737E+03  0.69635201849E+03  0.17200000000E+03 0.  1.
</event>
<event>
 4    1 -0.6479440E-004  0.2122052E+03  0.7818608E-02  0.1139832E+00
          5   -1    0    0  501    0  0.00000000000E+00  0.00000000000E+00  0.72030274282E+03  0.72031807648E+03  0.47000000000E+01 0. -1.
         -5   -1    0    0    0  501 -0.00000000000E+00 -0.00000000000E+00 -0.84594536255E+02  0.84724999641E+02  0.47000000000E+01 0.  1.
          6    1    1    2  502    0  0.85776593791E+02 -0.89941217516E+02  0.52376801672E+03  0.56512297952E+03  0.17200000000E+03 0. -1.
         -6    1    1    2    0  502 -0.85776593791E+02  0.89941217516E+02  0.11194018985E+03  0.23992009660E+03  0.17200000000E+03 0. -1.
</event>
<event>
 4    1 -0.6479440E-004  0.2250855E+03  0.7818608E-02  0.1130147E+00
         -5   -1    0    0    0  501 -0.00000000000E+00  0.00000000000E+00  0.38562989855E+03  0.38565853894E+03  0.47000000000E+01 0.  1.
          5   -1    0    0  501    0  0.00000000000E+00 -0.00000000000E+00 -0.15017115177E+03  0.15024468318E+03  0.47000000000E+01 0. -1.
          6    1    1    2  502    0  0.14220315381E+03  0.29287013564E+02  0.22784052347E+02  0.22623567172E+03  0.17200000000E+03 0. -1.
         -6    1    1    2    0  502 -0.14220315381E+03 -0.29287013564E+02  0.21267469444E+03  0.30966755040E+03  0.17200000000E+03 0.  1.
</event>
<event>
 4    1 -0.6479440E-004  0.1975849E+03  0.7818608E-02  0.1151793E+00
         -5   -1    0    0    0  501 -0.00000000000E+00  0.00000000000E+00  0.20659438144E+03  0.20664783677E+03  0.47000000000E+01 0.  1.
          5   -1    0    0  501    0  0.00000000000E+00 -0.00000000000E+00 -0.38028391494E+03  0.38031295792E+03  0.47000000000E+01 0. -1.
          6    1    1    2  502    0 -0.87826965406E+02  0.41739670917E+02 -0.29503793025E+03  0.35508753325E+03  0.17200000000E+03 0. -1.
         -6    1    1    2    0  502  0.87826965406E+02 -0.41739670917E+02  0.12134839675E+03  0.23187326145E+03  0.17200000000E+03 0.  1.
</event>
<event>
 4    1 -0.6479440E-004  0.1868223E+03  0.7818608E-02  0.1161359E+00
         -5   -1    0    0    0  501 -0.00000000000E+00  0.00000000000E+00  0.18768838501E+04  0.18768897348E+04  0.47000000000E+01 0.  1.
          5   -1    0    0  501    0  0.00000000000E+00 -0.00000000000E+00 -0.35258255144E+02  0.35570135729E+02  0.47000000000E+01 0. -1.
          6    1    1    2  502    0  0.70449874515E+02  0.18851386742E+02  0.26178547728E+03  0.32161187123E+03  0.17200000000E+03 0. -1.
         -6    1    1    2    0  502 -0.70449874515E+02 -0.18851386742E+02  0.15798401177E+04  0.15908479993E+04  0.17200000000E+03 0.  1.
</event>
<event>
 4    1 -0.6479440E-004  0.3072370E+03  0.7818608E-02  0.1081678E+00
         -5   -1    0    0    0  501 -0.00000000000E+00  0.00000000000E+00  0.26194045629E+03  0.26198261897E+03  0.47000000000E+01 0.  1.
          5   -1    0    0  501    0  0.00000000000E+00 -0.00000000000E+00 -0.11665803959E+04  0.11665898637E+04  0.47000000000E+01 0. -1.
          6    1    1    2  502    0 -0.25457854803E+03 -0.57509699392E+00 -0.10461358358E+04  0.10903186483E+04  0.17200000000E+03 0. -1.
         -6    1    1    2    0  502  0.25457854803E+03  0.57509699392E+00  0.14149589618E+03  0.33825383441E+03  0.17200000000E+03 0.  1.
</event>
<event>
 4    1 -0.6479440E-004  0.1993825E+03  0.7818608E-02  0.1150261E+00
          5   -1    0    0  501    0  0.00000000000E+00  0.00000000000E+00  0.94558611038E+03  0.94559779089E+03  0.47000000000E+01 0. -1.
         -5   -1    0    0    0  501 -0.00000000000E+00 -0.00000000000E+00 -0.14465809148E+03  0.14473442380E+03  0.47000000000E+01 0.  1.
          6    1    1    2  502    0 -0.99821592511E+02  0.14318889854E+02  0.85966047369E+03  0.88247918444E+03  0.17200000000E+03 0. -1.
         -6    1    1    2    0  502  0.99821592511E+02 -0.14318889854E+02 -0.58732454799E+02  0.20785303025E+03  0.17200000000E+03 0.  1.
</event>
<event>
 4    1 -0.6479440E-004  0.1745459E+03  0.7818608E-02  0.1173188E+00
         -5   -1    0    0    0  501 -0.00000000000E+00  0.00000000000E+00  0.64847160889E+03  0.64848864102E+03  0.47000000000E+01 0.  1.
          5   -1    0    0  501    0  0.00000000000E+00 -0.00000000000E+00 -0.13961983864E+03  0.13969892392E+03  0.47000000000E+01 0. -1.
          6    1    1    2  502    0 -0.28209061396E+02 -0.93016623991E+01 -0.66619972244E+02  0.18682744116E+03  0.17200000000E+03 0. -1.
         -6    1    1    2    0  502  0.28209061396E+02  0.93016623991E+01  0.57547174249E+03  0.60136012378E+03  0.17200000000E+03 0.  1.
</event>
<event>
 4    1 -0.6479440E-004  0.1823134E+03  0.7818608E-02  0.1165583E+00
         -5   -1    0    0    0  501 -0.00000000000E+00  0.00000000000E+00  0.19444524834E+03  0.19450204267E+03  0.47000000000E+01 0.  1.
          5   -1    0    0  501    0  0.00000000000E+00 -0.00000000000E+00 -0.23039203199E+03  0.23043996703E+03  0.47000000000E+01 0. -1.
          6    1    1    2  502    0  0.59277508150E+02  0.11846302037E+02 -0.12598361722E+03  0.22160782850E+03  0.17200000000E+03 0. -1.
         -6    1    1    2    0  502 -0.59277508150E+02 -0.11846302037E+02  0.90036833570E+02  0.20333418120E+03  0.17200000000E+03 0.  1.
</event>
<event>
 4    1 -0.6479440E-004  0.2461104E+03  0.7818608E-02  0.1115788E+00
          5   -1    0    0  501    0  0.00000000000E+00  0.00000000000E+00  0.25610024466E+03  0.25614336867E+03  0.47000000000E+01 0. -1.
         -5   -1    0    0    0  501 -0.00000000000E+00 -0.00000000000E+00 -0.78029603103E+03  0.78031018579E+03  0.47000000000E+01 0.  1.
          6    1    1    2  502    0  0.58912112995E+01 -0.17593078844E+03  0.17053354533E+03  0.29941950300E+03  0.17200000000E+03 0. -1.
         -6    1    1    2    0  502 -0.58912112995E+01  0.17593078844E+03 -0.69472933170E+03  0.73703405146E+03  0.17200000000E+03 0.  1.
</event>
<event>
 4    1 -0.6479440E-004  0.1816523E+03  0.7818608E-02  0.1166214E+00
         -5   -1    0    0    0  501 -0.00000000000E+00  0.00000000000E+00  0.10869703983E+03  0.10879860508E+03  0.47000000000E+01 0.  1.
          5   -1    0    0  501    0  0.00000000000E+00 -0.00000000000E+00 -0.14210461818E+04  0.14210539542E+04  0.47000000000E+01 0. -1.
          6    1    1    2  502    0  0.47504087634E+01 -0.58232086461E+02 -0.13345433634E+04  0.13468494835E+04  0.17200000000E+03 0. -1.
         -6    1    1    2    0  502 -0.47504087634E+01  0.58232086461E+02  0.22194221499E+02  0.18300307578E+03  0.17200000000E+03 0.  1.
</event>
<event>
 4    1 -0.6479440E-004  0.1763830E+03  0.7818608E-02  0.1171350E+00
          5   -1    0    0  501    0  0.00000000000E+00  0.00000000000E+00  0.32551001735E+03  0.32554394695E+03  0.47000000000E+01 0. -1.
         -5   -1    0    0    0  501 -0.00000000000E+00 -0.00000000000E+00 -0.31453375019E+03  0.31456886370E+03  0.47000000000E+01 0.  1.
          6    1    1    2  502    0  0.15672677409E+02  0.35795584641E+02  0.27253868226E+03  0.32463562655E+03  0.17200000000E+03 0. -1.
         -6    1    1    2    0  502 -0.15672677409E+02 -0.35795584641E+02 -0.26156241510E+03  0.31547718410E+03  0.17200000000E+03 0.  1.
</event>
<event>
 4    1 -0.6479440E-004  0.2248106E+03  0.7818608E-02  0.1130347E+00
          5   -1    0    0  501    0  0.00000000000E+00  0.00000000000E+00  0.93654170546E+02  0.93772030268E+02  0.47000000000E+01 0. -1.
         -5   -1    0    0    0  501 -0.00000000000E+00 -0.00000000000E+00 -0.18871005810E+04  0.18871064339E+04  0.47000000000E+01 0.  1.
          6    1    1    2  502    0 -0.99361479176E+02 -0.10527621428E+03 -0.59679453843E+02  0.23259712390E+03  0.17200000000E+03 0. -1.
         -6    1    1    2    0  502  0.99361479176E+02  0.10527621428E+03 -0.17337669567E+04  0.17482813403E+04  0.17200000000E+03 0.  1.
</event>
<event>
 4    1 -0.6479440E-004  0.2132389E+03  0.7818608E-02  0.1139026E+00
         -5   -1    0    0    0  501 -0.00000000000E+00  0.00000000000E+00  0.11741538528E+04  0.11741632595E+04  0.47000000000E+01 0.  1.
          5   -1    0    0  501    0  0.00000000000E+00 -0.00000000000E+00 -0.54038716570E+02  0.54242721987E+02  0.47000000000E+01 0. -1.
          6    1    1    2  502    0 -0.12517013611E+03  0.14808184133E+02  0.23225835353E+03  0.31530110700E+03  0.17200000000E+03 0. -1.
         -6    1    1    2    0  502  0.12517013611E+03 -0.14808184133E+02  0.88785678271E+03  0.91310487453E+03  0.17200000000E+03 0.  1.
</event>
<event>
 4    1 -0.6479440E-004  0.2663500E+03  0.7818608E-02  0.1103387E+00
         -5   -1    0    0    0  501 -0.00000000000E+00  0.00000000000E+00  0.16285097804E+04  0.16285165627E+04  0.47000000000E+01 0.  1.
          5   -1    0    0  501    0  0.00000000000E+00 -0.00000000000E+00 -0.38158471323E+03  0.38161365722E+03  0.47000000000E+01 0. -1.
          6    1    1    2  502    0 -0.89586259865E+02  0.18257230477E+03 -0.32249752127E+03  0.41826665615E+03  0.17200000000E+03 0. -1.
         -6    1    1    2    0  502  0.89586259865E+02 -0.18257230477E+03  0.15694225885E+04  0.15918635637E+04  0.17200000000E+03 0.  1.
</event>
<event>
 4    1 -0.6479440E-004  0.2267790E+03  0.7818608E-02  0.1128928E+00
         -5   -1    0    0    0  501 -0.00000000000E+00  0.00000000000E+00  0.92528432992E+03  0.92529626672E+03  0.47000000000E+01 0.  1.
          5   -1    0    0  501    0  0.00000000000E+00 -0.00000000000E+00 -0.21648815905E+03  0.21653917199E+03  0.47000000000E+01 0. -1.
          6    1    1    2  502    0  0.71561298903E+01 -0.14762621762E+03 -0.13781922563E+03  0.26537303796E+03  0.17200000000E+03 0. -1.
         -6    1    1    2    0  502 -0.71561298903E+01  0.14762621762E+03  0.84661539651E+03  0.87646240075E+03  0.17200000000E+03 0.  1.
</event>
<event>
 4    1 -0.6479440E-004  0.1720290E+03  0.7818608E-02  0.1175748E+00
         -5   -1    0    0    0  501 -0.00000000000E+00  0.00000000000E+00  0.17114778060E+04  0.17114842595E+04  0.47000000000E+01 0.  1.
          5   -1    0    0  501    0  0.00000000000E+00 -0.00000000000E+00 -0.32990498095E+02  0.33323609716E+02  0.47000000000E+01 0. -1.
          6    1    1    2  502    0  0.19670617777E+01 -0.24725176128E+01  0.23570644414E+03  0.29180731739E+03  0.17200000000E+03 0. -1.
         -6    1    1    2    0  502 -0.19670617777E+01  0.24725176128E+01  0.14427808638E+04  0.14530005518E+04  0.17200000000E+03 0.  1.
</event>
<event>
 4    1 -0.6479440E-004  0.2121508E+03  0.7818608E-02  0.1139874E+00
         -5   -1    0    0    0  501 -0.00000000000E+00  0.00000000000E+00  0.57580292288E+03  0.57582210447E+03  0.47000000000E+01 0.  1.
          5   -1    0    0  501    0  0.00000000000E+00 -0.00000000000E+00 -0.11134531543E+03  0.11144446719E+03  0.47000000000E+01 0. -1.
          6    1    1    2  502    0  0.10467398759E+03 -0.66837998330E+02  0.44504813937E+02  0.21676863279E+03  0.17200000000E+03 0. -1.
         -6    1    1    2    0  502 -0.10467398759E+03  0.66837998330E+02  0.41995279351E+03  0.47049793887E+03  0.17200000000E+03 0.  1.
</event>
<event>
 4    1 -0.6479440E-004  0.2046801E+03  0.7818608E-02  0.1145849E+00
         -5   -1    0    0    0  501 -0.00000000000E+00  0.00000000000E+00  0.86886780046E+02  0.87013806645E+02  0.47000000000E+01 0.  1.
          5   -1    0    0  501    0  0.00000000000E+00 -0.00000000000E+00 -0.11280101934E+04  0.11280199849E+04  0.47000000000E+01 0. -1.
          6    1    1    2  502    0  0.34977532630E+02  0.10529246811E+03 -0.98039746007E+03  0.10015353770E+04  0.17200000000E+03 0. -1.
         -6    1    1    2    0  502 -0.34977532630E+02 -0.10529246811E+03 -0.60725953268E+02  0.21349841459E+03  0.17200000000E+03 0.  1.
</event>
<event>
 4    1 -0.6479440E-004  0.1838326E+03  0.7818608E-02  0.1164145E+00
         -5   -1    0    0    0  501 -0.00000000000E+00  0.00000000000E+00  0.13976002341E+04  0.13976081369E+04  0.47000000000E+01 0.  1.
          5   -1    0    0  501    0  0.00000000000E+00 -0.00000000000E+00 -0.25662049651E+02  0.26088901707E+02  0.47000000000E+01 0. -1.
          6    1    1    2  502    0  0.97674157641E+01  0.64148387542E+02  0.50336902408E+03  0.53588692132E+03  0.17200000000E+03 0. -1.
         -6    1    1    2    0  502 -0.97674157641E+01 -0.64148387542E+02  0.86856916034E+03  0.88781011727E+03  0.17200000000E+03 0.  1.
</event>
<event>
 4    1 -0.6479440E-004  0.2297324E+03  0.7818608E-02  0.1126828E+00
         -5   -1    0    0    0  501 -0.00000000000E+00  0.00000000000E+00  0.11059043058E+04  0.11059142931E+04  0.47000000000E+01 0.  1.
          5   -1    0    0  501    0  0.00000000000E+00 -0.00000000000E+00 -0.82784048311E+02  0.82917360394E+02  0.47000000000E+01 0. -1.
          6    1    1    2  502    0  0.15228531005E+03  0.14703813817E+01  0.12447672073E+03  0.26128802437E+03  0.17200000000E+03 0. -1.
         -6    1    1    2    0  502 -0.15228531005E+03 -0.14703813817E+01  0.89864353678E+03  0.92754362909E+03  0.17200000000E+03 0. -1.
</event>
<event>
 4    1 -0.6479440E-004  0.1754443E+03  0.7818608E-02  0.1172286E+00
          5   -1    0    0  501    0  0.00000000000E+00  0.00000000000E+00  0.19593171931E+03  0.19598808288E+03  0.47000000000E+01 0. -1.
         -5   -1    0    0    0  501 -0.00000000000E+00 -0.00000000000E+00 -0.14268036171E+04  0.14268113581E+04  0.47000000000E+01 0.  1.
          6    1    1    2  502    0 -0.29798077160E+02 -0.17572354358E+02  0.15000037688E+03  0.23082639820E+03  0.17200000000E+03 0. -1.
         -6    1    1    2    0  502  0.29798077160E+02  0.17572354358E+02 -0.13808722746E+04  0.13919730428E+04  0.17200000000E+03 0.  1.
</event>
<event>
 4    1 -0.6479440E-004  0.2757947E+03  0.7818608E-02  0.1098008E+00
         -5   -1    0    0    0  501 -0.00000000000E+00  0.00000000000E+00  0.74920246460E+03  0.74921720680E+03  0.47000000000E+01 0.  1.
          5   -1    0    0  501    0  0.00000000000E+00 -0.00000000000E+00 -0.38452021573E+03  0.38454893877E+03  0.47000000000E+01 0. -1.
          6    1    1    2  502    0  0.48755205767E+00 -0.21558871866E+03 -0.30398786418E+03  0.41045262198E+03  0.17200000000E+03 0. -1.
         -6    1    1    2    0  502 -0.48755205767E+00  0.21558871866E+03  0.66867011304E+03  0.72331352358E+03  0.17200000000E+03 0.  1.
</event>
<event>
 4    1 -0.6479440E-004  0.1819384E+03  0.7818608E-02  0.1165940E+00
          5   -1    0    0  501    0  0.00000000000E+00  0.00000000000E+00  0.25187369083E+03  0.25191753836E+03  0.47000000000E+01 0. -1.
         -5   -1    0    0    0  501 -0.00000000000E+00 -0.00000000000E+00 -0.24707859999E+03  0.24712329833E+03  0.47000000000E+01 0.  1.
          6    1    1    2  502    0 -0.39768715594E+02  0.44000270881E+02  0.17314826487E+03  0.25116109612E+03  0.17200000000E+03 0. -1.
         -6    1    1    2    0  502  0.39768715594E+02 -0.44000270881E+02 -0.16835317403E+03  0.24787974057E+03  0.17200000000E+03 0.  1.
</event>
<event>
 4    1 -0.6479440E-004  0.2111551E+03  0.7818608E-02  0.1140655E+00
          5   -1    0    0  501    0  0.00000000000E+00  0.00000000000E+00  0.10478637370E+04  0.10478742774E+04  0.47000000000E+01 0. -1.
         -5   -1    0    0    0  501 -0.00000000000E+00 -0.00000000000E+00 -0.27415377486E+03  0.27419405951E+03  0.47000000000E+01 0.  1.
          6    1    1    2  502    0  0.19497674180E+02 -0.12092272181E+03  0.99443628096E+03  0.10166070927E+04  0.17200000000E+03 0. -1.
         -6    1    1    2    0  502 -0.19497674180E+02  0.12092272181E+03 -0.22072631882E+03  0.30546124430E+03  0.17200000000E+03 0.  1.
</event>
<event>
 4    1 -0.6479440E-004  0.1867694E+03  0.7818608E-02  0.1161408E+00
         -5   -1    0    0    0  501 -0.00000000000E+00  0.00000000000E+00  0.13576978610E+04  0.13577059961E+04  0.47000000000E+01 0.  1.
          5   -1    0    0  501    0  0.00000000000E+00 -0.00000000000E+00 -0.46661304451E+02  0.46897412861E+02  0.47000000000E+01 0. -1.
          6    1    1    2  502    0 -0.11660102237E+02 -0.71852870408E+02  0.18394600795E+03  0.26214295110E+03  0.17200000000E+03 0. -1.
         -6    1    1    2    0  502  0.11660102237E+02  0.71852870408E+02  0.11270905486E+04  0.11424604578E+04  0.17200000000E+03 0.  1.
</event>
<event>
 4    1 -0.6479440E-004  0.2661994E+03  0.7818608E-02  0.1103475E+00
         -5   -1    0    0    0  501 -0.00000000000E+00  0.00000000000E+00  0.15828506440E+03  0.15835482820E+03  0.47000000000E+01 0.  1.
          5   -1    0    0  501    0  0.00000000000E+00 -0.00000000000E+00 -0.50262880185E+03  0.50265077583E+03  0.47000000000E+01 0. -1.
          6    1    1    2  502    0 -0.13001085314E+02  0.20275376860E+03 -0.28161210909E+03  0.38751451442E+03  0.17200000000E+03 0. -1.
         -6    1    1    2    0  502  0.13001085314E+02 -0.20275376860E+03 -0.62731628358E+02  0.27349108961E+03  0.17200000000E+03 0.  1.
</event>
<event>
 4    1 -0.6479440E-004  0.1798891E+03  0.7818608E-02  0.1167910E+00
         -5   -1    0    0    0  501 -0.00000000000E+00  0.00000000000E+00  0.21999625190E+03  0.22004645158E+03  0.47000000000E+01 0.  1.
          5   -1    0    0  501    0  0.00000000000E+00 -0.00000000000E+00 -0.28783195650E+03  0.28787032703E+03  0.47000000000E+01 0. -1.
          6    1    1    2  502    0 -0.14502205371E+02 -0.50653517811E+02 -0.21153279436E+03  0.27768006035E+03  0.17200000000E+03 0. -1.
         -6    1    1    2    0  502  0.14502205371E+02  0.50653517811E+02  0.14369708976E+03  0.23023671825E+03  0.17200000000E+03 0.  1.
</event>
<event>
 4    1 -0.6479440E-004  0.1915684E+03  0.7818608E-02  0.1157054E+00
          5   -1    0    0  501    0  0.00000000000E+00  0.00000000000E+00  0.11749192104E+03  0.11758588993E+03  0.47000000000E+01 0. -1.
         -5   -1    0    0    0  501 -0.00000000000E+00 -0.00000000000E+00 -0.52557075035E+03  0.52559176518E+03  0.47000000000E+01 0.  1.
          6    1    1    2  502    0 -0.82063289259E+02 -0.19495368832E+02  0.88403185471E+00  0.19157044230E+03  0.17200000000E+03 0. -1.
         -6    1    1    2    0  502  0.82063289259E+02  0.19495368832E+02 -0.40896286116E+03  0.45160721281E+03  0.17200000000E+03 0.  1.
</event>
<event>
 4    1 -0.6479440E-004  0.2001527E+03  0.7818608E-02  0.1149610E+00
         -5   -1    0    0    0  501 -0.00000000000E+00  0.00000000000E+00  0.49247187528E+03  0.49249430244E+03  0.47000000000E+01 0.  1.
          5   -1    0    0  501    0  0.00000000000E+00 -0.00000000000E+00 -0.50625912209E+03  0.50628093851E+03  0.47000000000E+01 0. -1.
          6    1    1    2  502    0 -0.33085536948E+02 -0.96863017749E+02 -0.46440784531E+03  0.50570321706E+03  0.17200000000E+03 0. -1.
         -6    1    1    2    0  502  0.33085536948E+02  0.96863017749E+02  0.45062059849E+03  0.49307202390E+03  0.17200000000E+03 0.  1.
</event>
<event>
 4    1 -0.6479440E-004  0.2615231E+03  0.7818608E-02  0.1106232E+00
         -5   -1    0    0    0  501 -0.00000000000E+00  0.00000000000E+00  0.19253787762E+03  0.19259523441E+03  0.47000000000E+01 0.  1.
          5   -1    0    0  501    0  0.00000000000E+00 -0.00000000000E+00 -0.47530737983E+03  0.47533061685E+03  0.47000000000E+01 0. -1.
          6    1    1    2  502    0  0.19700291427E+03  0.40406472868E+00 -0.30931888727E+03  0.40505861986E+03  0.17200000000E+03 0. -1.
         -6    1    1    2    0  502 -0.19700291427E+03 -0.40406472868E+00  0.26549385068E+02  0.26286723141E+03  0.17200000000E+03 0.  1.
</event>
<event>
 4    1 -0.6479440E-004  0.2305077E+03  0.7818608E-02  0.1126283E+00
          5   -1    0    0  501    0  0.00000000000E+00  0.00000000000E+00  0.28691720235E+03  0.28695569519E+03  0.47000000000E+01 0. -1.
         -5   -1    0    0    0  501 -0.00000000000E+00 -0.00000000000E+00 -0.99956157731E+03  0.99957262709E+03  0.47000000000E+01 0.  1.
          6    1    1    2  502    0 -0.36578015866E+02 -0.14903643925E+03  0.22431082867E+03  0.32163513385E+03  0.17200000000E+03 0. -1.
         -6    1    1    2    0  502  0.36578015866E+02  0.14903643925E+03 -0.93695520363E+03  0.96489318843E+03  0.17200000000E+03 0.  1.
</event>
<event>
 4    1 -0.6479440E-004  0.1755376E+03  0.7818608E-02  0.1172193E+00
          5   -1    0    0  501    0  0.00000000000E+00  0.00000000000E+00  0.13581249413E+03  0.13589379516E+03  0.47000000000E+01 0. -1.
         -5   -1    0    0    0  501 -0.00000000000E+00 -0.00000000000E+00 -0.29102902841E+03  0.29106697748E+03  0.47000000000E+01 0.  1.
          6    1    1    2  502    0 -0.35045476565E+02 -0.11232893254E+01  0.22730995093E+02  0.17700323541E+03  0.17200000000E+03 0. -1.
         -6    1    1    2    0  502  0.35045476565E+02  0.11232893254E+01 -0.17794752937E+03  0.24995753723E+03  0.17200000000E+03 0.  1.
</event>
<event>
 4    1 -0.6479440E-004  0.2822235E+03  0.7818608E-02  0.1094481E+00
         -5   -1    0    0    0  501 -0.00000000000E+00  0.00000000000E+00  0.57607238401E+03  0.57609155662E+03  0.47000000000E+01 0.  1.
          5   -1    0    0  501    0  0.00000000000E+00 -0.00000000000E+00 -0.12067055493E+04  0.12067147023E+04  0.47000000000E+01 0. -1.
          6    1    1    2  502    0 -0.20556885974E+03 -0.88360324640E+02 -0.11541001110E+04  0.11881065479E+04  0.17200000000E+03 0. -1.
         -6    1    1    2    0  502  0.20556885974E+03  0.88360324640E+02  0.52346694566E+03  0.59469971100E+03  0.17200000000E+03 0.  1.
</event>
<event>
 4    1 -0.6479440E-004  0.1743176E+03  0.7818608E-02  0.1173419E+00
         -5   -1    0    0    0  501 -0.00000000000E+00  0.00000000000E+00  0.23045090365E+03  0.23049882645E+03  0.47000000000E+01 0.  1.
          5   -1    0    0  501    0  0.00000000000E+00 -0.00000000000E+00 -0.42315972827E+03  0.42318582872E+03  0.47000000000E+01 0. -1.
          6    1    1    2  502    0  0.25817556605E+02 -0.11665505238E+02 -0.36754996999E+03  0.40679185179E+03  0.17200000000E+03 0. -1.
         -6    1    1    2    0  502 -0.25817556605E+02  0.11665505238E+02  0.17484114538E+03  0.24689280338E+03  0.17200000000E+03 0.  1.
</event>
<event>
 4    1 -0.6479440E-004  0.1895233E+03  0.7818608E-02  0.1158892E+00
         -5   -1    0    0    0  501 -0.00000000000E+00  0.00000000000E+00  0.67192916941E+03  0.67194560695E+03  0.47000000000E+01 0.  1.
          5   -1    0    0  501    0  0.00000000000E+00 -0.00000000000E+00 -0.17697146771E+03  0.17703386790E+03  0.47000000000E+01 0. -1.
          6    1    1    2  502    0 -0.79363817981E+02 -0.60400455474E+01 -0.10717240201E+03  0.21772694254E+03  0.17200000000E+03 0. -1.
         -6    1    1    2    0  502  0.79363817981E+02  0.60400455474E+01  0.60213010371E+03  0.63125253231E+03  0.17200000000E+03 0.  1.
</event>
<event>
 4    1 -0.6479440E-004  0.1912493E+03  0.7818608E-02  0.1157339E+00
          5   -1    0    0  501    0  0.00000000000E+00  0.00000000000E+00  0.49597137065E+03  0.49599363958E+03  0.47000000000E+01 0. -1.
         -5   -1    0    0    0  501 -0.00000000000E+00 -0.00000000000E+00 -0.22378052474E+03  0.22382987570E+03  0.47000000000E+01 0.  1.
          6    1    1    2  502    0 -0.79122735185E+02  0.27053263068E+02  0.43081172627E+03  0.47135446297E+03  0.17200000000E+03 0. -1.
         -6    1    1    2    0  502  0.79122735185E+02 -0.27053263068E+02 -0.15862088037E+03  0.24846905231E+03  0.17200000000E+03 0.  1.
</event>
<event>
 4    1 -0.6479440E-004  0.2118997E+03  0.7818608E-02  0.1140070E+00
          5   -1    0    0  501    0  0.00000000000E+00  0.00000000000E+00  0.10832601549E+03  0.10842792829E+03  0.47000000000E+01 0. -1.
         -5   -1    0    0    0  501 -0.00000000000E+00 -0.00000000000E+00 -0.28706733009E+04  0.28706771484E+04  0.47000000000E+01 0.  1.
          6    1    1    2  502    0 -0.11925972519E+03  0.33084997590E+02 -0.32926806557E+01  0.21192531907E+03  0.17200000000E+03 0. -1.
         -6    1    1    2    0  502  0.11925972519E+03 -0.33084997590E+02 -0.27590546047E+04  0.27671797576E+04  0.17200000000E+03 0.  1.
</event>
<event>
 4    1 -0.6479440E-004  0.1998935E+03  0.7818608E-02  0.1149829E+00
         -5   -1    0    0    0  501 -0.00000000000E+00  0.00000000000E+00  0.27536766966E+03  0.27540777675E+03  0.47000000000E+01 0.  1.
          5   -1    0    0  501    0  0.00000000000E+00 -0.00000000000E+00 -0.16203411619E+03  0.16210226652E+03  0.47000000000E+01 0. -1.
          6    1    1    2  502    0  0.91752280137E+02 -0.44214376502E+02 -0.14201066980E+02  0.20039726122E+03  0.17200000000E+03 0. -1.
         -6    1    1    2    0  502 -0.91752280137E+02  0.44214376502E+02  0.12753462044E+03  0.23711278205E+03  0.17200000000E+03 0.  1.
</event>
<event>
 4    1 -0.6479440E-004  0.1926326E+03  0.7818608E-02  0.1156108E+00
         -5   -1    0    0    0  501 -0.00000000000E+00  0.00000000000E+00  0.91814195076E+02  0.91934413674E+02  0.47000000000E+01 0.  1.
          5   -1    0    0  501    0  0.00000000000E+00 -0.00000000000E+00 -0.81266767582E+03  0.81268126675E+03  0.47000000000E+01 0. -1.
          6    1    1    2  502    0  0.37045589549E+02 -0.78428004734E+02 -0.68124087333E+03  0.70795229721E+03  0.17200000000E+03 0. -1.
         -6    1    1    2    0  502 -0.37045589549E+02  0.78428004734E+02 -0.39612607420E+02  0.19666338322E+03  0.17200000000E+03 0.  1.
</event>
<event>
 4    1 -0.6479440E-004  0.2592473E+03  0.7818608E-02  0.1107596E+00
          5   -1    0    0  501    0  0.00000000000E+00  0.00000000000E+00  0.56658016226E+03  0.56659965607E+03  0.47000000000E+01 0. -1.
         -5   -1    0    0    0  501 -0.00000000000E+00 -0.00000000000E+00 -0.13687662699E+03  0.13695729632E+03  0.47000000000E+01 0.  1.
          6    1    1    2  502    0 -0.18302940508E+03 -0.64229398281E+02  0.34350612814E+03  0.43035524720E+03  0.17200000000E+03 0. -1.
         -6    1    1    2    0  502  0.18302940508E+03  0.64229398281E+02  0.86197407125E+02  0.27320170519E+03  0.17200000000E+03 0. -1.
</event>
<event>
 4    1 -0.6479440E-004  0.1824812E+03  0.7818608E-02  0.1165423E+00
         -5   -1    0    0    0  501 -0.00000000000E+00  0.00000000000E+00  0.15330851211E+03  0.15338053946E+03  0.47000000000E+01 0.  1.
          5   -1    0    0  501    0  0.00000000000E+00 -0.00000000000E+00 -0.16207170683E+04  0.16207238832E+04  0.47000000000E+01 0. -1.
          6    1    1    2  502    0 -0.60211586707E+02 -0.94840186998E+01 -0.15591967271E+04  0.15698387865E+04  0.17200000000E+03 0. -1.
         -6    1    1    2    0  502  0.60211586707E+02  0.94840186998E+01  0.91788170919E+02  0.20426563613E+03  0.17200000000E+03 0.  1.
</event>
<event>
 4    1 -0.6479440E-004  0.2136236E+03  0.7818608E-02  0.1138728E+00
          5   -1    0    0  501    0  0.00000000000E+00  0.00000000000E+00  0.84371231955E+03  0.84372541040E+03  0.47000000000E+01 0. -1.
         -5   -1    0    0    0  501 -0.00000000000E+00 -0.00000000000E+00 -0.11450689831E+03  0.11460331478E+03  0.47000000000E+01 0.  1.
          6    1    1    2  502    0 -0.76676839801E+02 -0.10085484415E+03  0.71274693339E+03  0.74407205861E+03  0.17200000000E+03 0. -1.
         -6    1    1    2    0  502  0.76676839801E+02  0.10085484415E+03  0.16458487854E+02  0.21425666658E+03  0.17200000000E+03 0.  1.
</event>
<event>
 4    1 -0.6479440E-004  0.1770396E+03  0.7818608E-02  0.1170699E+00
          5   -1    0    0  501    0  0.00000000000E+00  0.00000000000E+00  0.31652540664E+03  0.31656029923E+03  0.47000000000E+01 0. -1.
         -5   -1    0    0    0  501 -0.00000000000E+00 -0.00000000000E+00 -0.17294101298E+03  0.17300486690E+03  0.47000000000E+01 0.  1.
          6    1    1    2  502    0 -0.14968156964E+02  0.39178618799E+02  0.23187240689E+03  0.29173245101E+03  0.17200000000E+03 0. -1.
         -6    1    1    2    0  502  0.14968156964E+02 -0.39178618799E+02 -0.88288013232E+02  0.19783271513E+03  0.17200000000E+03 0.  1.
</event>
<event>
 4    1 -0.6479440E-004  0.1869551E+03  0.7818608E-02  0.1161237E+00
         -5   -1    0    0    0  501 -0.00000000000E+00  0.00000000000E+00  0.19052407707E+03  0.19058203992E+03  0.47000000000E+01 0.  1.
          5   -1    0    0  501    0  0.00000000000E+00 -0.00000000000E+00 -0.28342202694E+03  0.28346099441E+03  0.47000000000E+01 0. -1.
          6    1    1    2  502    0  0.46086216822E+02  0.56958481980E+02 -0.18727183328E+03  0.26461849442E+03  0.17200000000E+03 0. -1.
         -6    1    1    2    0  502 -0.46086216822E+02 -0.56958481980E+02  0.94373883404E+02  0.20942453992E+03  0.17200000000E+03 0.  1.
</event>
<event>
 4    1 -0.6479440E-004  0.1771079E+03  0.7818608E-02  0.1170632E+00
          5   -1    0    0  501    0  0.00000000000E+00  0.00000000000E+00  0.19164447600E+03  0.19170210009E+03  0.47000000000E+01 0. -1.
         -5   -1    0    0    0  501 -0.00000000000E+00 -0.00000000000E+00 -0.17746061783E+03  0.17752284608E+03  0.47000000000E+01 0.  1.
          6    1    1    2  502    0  0.95187540486E+01  0.41141431068E+02 -0.44562531013E+02  0.18262815555E+03  0.17200000000E+03 0.  1.
         -6    1    1    2    0  502 -0.95187540486E+01 -0.41141431068E+02  0.58746389184E+02  0.18659679062E+03  0.17200000000E+03 0. -1.
</event>
<event>
 4    1 -0.6479440E-004  0.1768642E+03  0.7818608E-02  0.1170873E+00
         -5   -1    0    0    0  501 -0.00000000000E+00  0.00000000000E+00  0.45289366271E+02  0.45532589397E+02  0.47000000000E+01 0.  1.
          5   -1    0    0  501    0  0.00000000000E+00 -0.00000000000E+00 -0.79374708412E+03  0.79376099901E+03  0.47000000000E+01 0. -1.
          6    1    1    2  502    0 -0.34324465255E+02  0.22776962570E+02 -0.52694723876E+03  0.55583662291E+03  0.17200000000E+03 0. -1.
         -6    1    1    2    0  502  0.34324465255E+02 -0.22776962570E+02 -0.22151047909E+03  0.28345696550E+03  0.17200000000E+03 0.  1.
</event>
<event>
 4    1 -0.6479440E-004  0.1720637E+03  0.7818608E-02  0.1175713E+00
          5   -1    0    0  501    0  0.00000000000E+00  0.00000000000E+00  0.43591912294E+03  0.43594445948E+03  0.47000000000E+01 0. -1.
         -5   -1    0    0    0  501 -0.00000000000E+00 -0.00000000000E+00 -0.16223856375E+03  0.16230662823E+03  0.47000000000E+01 0.  1.
          6    1    1    2  502    0 -0.37035841325E+00  0.46673040294E+01  0.36495104557E+03  0.40347885515E+03  0.17200000000E+03 0. -1.
         -6    1    1    2    0  502  0.37035841325E+00 -0.46673040294E+01 -0.91270486377E+02  0.19477223256E+03  0.17200000000E+03 0.  1.
</event>
<event>
 4    1 -0.6479440E-004  0.2350439E+03  0.7818608E-02  0.1123139E+00
          5   -1    0    0  501    0  0.00000000000E+00  0.00000000000E+00  0.71002644836E+02  0.71158032390E+02  0.47000000000E+01 0. -1.
         -5   -1    0    0    0  501 -0.00000000000E+00 -0.00000000000E+00 -0.19384203605E+04  0.19384260584E+04  0.47000000000E+01 0.  1.
          6    1    1    2  502    0 -0.80220001625E+02  0.13865928325E+03 -0.15600166944E+03  0.28210311299E+03  0.17200000000E+03 0. -1.
         -6    1    1    2    0  502  0.80220001625E+02 -0.13865928325E+03 -0.17114160462E+04  0.17274809778E+04  0.17200000000E+03 0.  1.
</event>
<event>
 4    1 -0.6479440E-004  0.2127726E+03  0.7818608E-02  0.1139389E+00
         -5   -1    0    0    0  501 -0.00000000000E+00  0.00000000000E+00  0.11201795926E+04  0.11201894525E+04  0.47000000000E+01 0.  1.
          5   -1    0    0  501    0  0.00000000000E+00 -0.00000000000E+00 -0.90652435091E+02  0.90774192301E+02  0.47000000000E+01 0. -1.
          6    1    1    2  502    0  0.62640253677E+02 -0.10846378250E+03  0.63883014284E+02  0.22215587548E+03  0.17200000000E+03 0. -1.
         -6    1    1    2    0  502 -0.62640253677E+02  0.10846378250E+03  0.96564414318E+03  0.98880776936E+03  0.17200000000E+03 0.  1.
</event>
<event>
 4    1 -0.6479440E-004  0.2962415E+03  0.7818608E-02  0.1087135E+00
          5   -1    0    0  501    0  0.00000000000E+00  0.00000000000E+00  0.49888940045E+03  0.49891153913E+03  0.47000000000E+01 0. -1.
         -5   -1    0    0    0  501 -0.00000000000E+00 -0.00000000000E+00 -0.56370941718E+03  0.56372901027E+03  0.47000000000E+01 0.  1.
          6    1    1    2  502    0  0.85870303611E+02 -0.22539147799E+03  0.40828767334E+03  0.50443815438E+03  0.17200000000E+03 0. -1.
         -6    1    1    2    0  502 -0.85870303611E+02  0.22539147799E+03 -0.47310769008E+03  0.55820239502E+03  0.17200000000E+03 0.  1.
</event>
<event>
 4    1 -0.6479440E-004  0.1764886E+03  0.7818608E-02  0.1171245E+00
          5   -1    0    0  501    0  0.00000000000E+00  0.00000000000E+00  0.38385536468E+03  0.38388413746E+03  0.47000000000E+01 0. -1.
         -5   -1    0    0    0  501 -0.00000000000E+00 -0.00000000000E+00 -0.10483922278E+03  0.10494452169E+03  0.47000000000E+01 0.  1.
          6    1    1    2  502    0  0.24644761206E+02 -0.30933133589E+02  0.25586265057E+03  0.31082779632E+03  0.17200000000E+03 0. -1.
         -6    1    1    2    0  502 -0.24644761206E+02  0.30933133589E+02  0.23153491327E+02  0.17800086283E+03  0.17200000000E+03 0.  1.
</event>
<event>
 4    1 -0.6479440E-004  0.1862275E+03  0.7818608E-02  0.1161909E+00
          5   -1    0    0  501    0  0.00000000000E+00  0.00000000000E+00  0.10758448759E+03  0.10768710215E+03  0.47000000000E+01 0. -1.
         -5   -1    0    0    0  501 -0.00000000000E+00 -0.00000000000E+00 -0.22974521495E+04  0.22974569570E+04  0.47000000000E+01 0.  1.
          6    1    1    2  502    0 -0.43043696567E+02 -0.56955336038E+02  0.20131532242E+02  0.18731243607E+03  0.17200000000E+03 0. -1.
         -6    1    1    2    0  502  0.43043696567E+02  0.56955336038E+02 -0.22099991941E+04  0.22178316230E+04  0.17200000000E+03 0.  1.
</event>
<event>
 4    1 -0.6479440E-004  0.2872487E+03  0.7818608E-02  0.1091794E+00
         -5   -1    0    0    0  501 -0.00000000000E+00  0.00000000000E+00  0.37197253910E+03  0.37200223096E+03  0.47000000000E+01 0.  1.
          5   -1    0    0  501    0  0.00000000000E+00 -0.00000000000E+00 -0.27746769071E+03  0.27750749429E+03  0.47000000000E+01 0. -1.
          6    1    1    2  502    0 -0.20426810136E+03 -0.10584125747E+03 -0.98244208607E+02  0.30358483747E+03  0.17200000000E+03 0. -1.
         -6    1    1    2    0  502  0.20426810136E+03  0.10584125747E+03  0.19274905700E+03  0.34592488778E+03  0.17200000000E+03 0.  1.
</event>
<event>
 4    1 -0.6479440E-004  0.2048196E+03  0.7818608E-02  0.1145735E+00
          5   -1    0    0  501    0  0.00000000000E+00  0.00000000000E+00  0.11998035618E+03  0.12007237763E+03  0.47000000000E+01 0. -1.
         -5   -1    0    0    0  501 -0.00000000000E+00 -0.00000000000E+00 -0.50140966627E+03  0.50143169368E+03  0.47000000000E+01 0.  1.
          6    1    1    2  502    0 -0.90741384425E+02  0.64289107324E+02 -0.19638033550E+02  0.20575893791E+03  0.17200000000E+03 0. -1.
         -6    1    1    2    0  502  0.90741384425E+02 -0.64289107324E+02 -0.36179127653E+03  0.41574513340E+03  0.17200000000E+03 0.  1.
</event>
<event>
 4    1 -0.6479440E-004  0.1812437E+03  0.7818608E-02  0.1166605E+00
         -5   -1    0    0    0  501 -0.00000000000E+00  0.00000000000E+00  0.85198578644E+03  0.85199875018E+03  0.47000000000E+01 0.  1.
          5   -1    0    0  501    0  0.00000000000E+00 -0.00000000000E+00 -0.12512535985E+03  0.12521360021E+03  0.47000000000E+01 0. -1.
          6    1    1    2  502    0  0.41003366895E+02  0.39799475128E+02 -0.43025181849E+02  0.18628054270E+03  0.17200000000E+03 0. -1.
         -6    1    1    2    0  502 -0.41003366895E+02 -0.39799475128E+02  0.76988560844E+03  0.79093180768E+03  0.17200000000E+03 0.  1.
</event>
<event>
 4    1 -0.6479440E-004  0.2004425E+03  0.7818608E-02  0.1149366E+00
         -5   -1    0    0    0  501 -0.00000000000E+00  0.00000000000E+00  0.96254391312E+03  0.96255538785E+03  0.47000000000E+01 0.  1.
          5   -1    0    0  501    0  0.00000000000E+00 -0.00000000000E+00 -0.81624848410E+03  0.81626201541E+03  0.47000000000E+01 0. -1.
          6    1    1    2  502    0  0.79846622092E+02  0.64944008504E+02 -0.79322231323E+03  0.81815575871E+03  0.17200000000E+03 0. -1.
         -6    1    1    2    0  502 -0.79846622092E+02 -0.64944008504E+02  0.93951774225E+03  0.96066164455E+03  0.17200000000E+03 0.  1.
</event>
<event>
 4    1 -0.6479440E-004  0.1833341E+03  0.7818608E-02  0.1164615E+00
          5   -1    0    0  501    0  0.00000000000E+00  0.00000000000E+00  0.95607248301E+02  0.95722703303E+02  0.47000000000E+01 0. -1.
         -5   -1    0    0    0  501 -0.00000000000E+00 -0.00000000000E+00 -0.77108145031E+03  0.77109577421E+03  0.47000000000E+01 0.  1.
          6    1    1    2  502    0  0.14298854547E+02  0.61830006551E+02 -0.17946791117E+02  0.18421046187E+03  0.17200000000E+03 0. -1.
         -6    1    1    2    0  502 -0.14298854547E+02 -0.61830006551E+02 -0.65752741089E+03  0.68260801564E+03  0.17200000000E+03 0.  1.
</event>
<event>
 4    1 -0.6479440E-004  0.1832078E+03  0.7818608E-02  0.1164734E+00
          5   -1    0    0  501    0  0.00000000000E+00  0.00000000000E+00  0.39823676479E+03  0.39826449858E+03  0.47000000000E+01 0. -1.
         -5   -1    0    0    0  501 -0.00000000000E+00 -0.00000000000E+00 -0.17643457073E+03  0.17649716074E+03  0.47000000000E+01 0.  1.
          6    1    1    2  502    0  0.11202423618E+02 -0.62093394334E+02  0.31862559782E+03  0.36754231797E+03  0.17200000000E+03 0. -1.
         -6    1    1    2    0  502 -0.11202423618E+02  0.62093394334E+02 -0.96823403753E+02  0.20721934135E+03  0.17200000000E+03 0.  1.
</event>
<event>
 4    1 -0.6479440E-004  0.3085737E+03  0.7818608E-02  0.1081032E+00
          5   -1    0    0  501    0  0.00000000000E+00  0.00000000000E+00  0.54981250688E+03  0.54983259517E+03  0.47000000000E+01 0. -1.
         -5   -1    0    0    0  501 -0.00000000000E+00 -0.00000000000E+00 -0.30518004252E+03  0.30521623212E+03  0.47000000000E+01 0.  1.
          6    1    1    2  502    0  0.18272185973E+03 -0.17957301249E+03  0.40351091058E+03  0.50797519604E+03  0.17200000000E+03 0. -1.
         -6    1    1    2    0  502 -0.18272185973E+03  0.17957301249E+03 -0.15887844623E+03  0.34707363125E+03  0.17200000000E+03 0.  1.
</event>
<event>
 4    1 -0.6479440E-004  0.2215716E+03  0.7818608E-02  0.1132717E+00
          5   -1    0    0  501    0  0.00000000000E+00  0.00000000000E+00  0.17655155619E+03  0.17661410474E+03  0.47000000000E+01 0. -1.
         -5   -1    0    0    0  501 -0.00000000000E+00 -0.00000000000E+00 -0.68598899614E+03  0.68600509680E+03  0.47000000000E+01 0.  1.
          6    1    1    2  502    0  0.11104872256E+03  0.84723944795E+02  0.77908764604E+02  0.23486962598E+03  0.17200000000E+03 0. -1.
         -6    1    1    2    0  502 -0.11104872256E+03 -0.84723944795E+02 -0.58734620456E+03  0.62774957556E+03  0.17200000000E+03 0.  1.
</event>
<event>
 4    1 -0.6479440E-004  0.1850619E+03  0.7818608E-02  0.1162992E+00
          5   -1    0    0  501    0  0.00000000000E+00  0.00000000000E+00  0.73274222371E+03  0.73275729707E+03  0.47000000000E+01 0. -1.
         -5   -1    0    0    0  501 -0.00000000000E+00 -0.00000000000E+00 -0.37691351226E+03  0.37694281493E+03  0.47000000000E+01 0.  1.
          6    1    1    2  502    0  0.17812677389E+02 -0.65928838739E+02  0.69722719008E+03  0.72136929366E+03  0.17200000000E+03 0. -1.
         -6    1    1    2    0  502 -0.17812677389E+02  0.65928838739E+02 -0.34139847863E+03  0.38833081833E+03  0.17200000000E+03 0.  1.
</event>
<event>
 4    1 -0.6479440E-004  0.2188223E+03  0.7818608E-02  0.1134764E+00
         -5   -1    0    0    0  501 -0.00000000000E+00  0.00000000000E+00  0.94436557337E+03  0.94437726898E+03  0.47000000000E+01 0.  1.
          5   -1    0    0  501    0  0.00000000000E+00 -0.00000000000E+00 -0.59114547139E+02  0.59301093443E+02  0.47000000000E+01 0. -1.
          6    1    1    2  502    0 -0.70189878714E+02  0.11563996535E+03  0.25232379585E+03  0.33399179423E+03  0.17200000000E+03 0. -1.
         -6    1    1    2    0  502  0.70189878714E+02 -0.11563996535E+03  0.63292723038E+03  0.66968656819E+03  0.17200000000E+03 0.  1.
</event>
<event>
 4    1 -0.6479440E-004  0.1853958E+03  0.7818608E-02  0.1162681E+00
         -5   -1    0    0    0  501 -0.00000000000E+00  0.00000000000E+00  0.45162764233E+02  0.45406665515E+02  0.47000000000E+01 0.  1.
          5   -1    0    0  501    0  0.00000000000E+00 -0.00000000000E+00 -0.10028711943E+04  0.10028822076E+04  0.47000000000E+01 0. -1.
          6    1    1    2  502    0 -0.68226113297E+02  0.11523241652E+02 -0.73741760045E+03  0.76036590211E+03  0.17200000000E+03 0. -1.
         -6    1    1    2    0  502  0.68226113297E+02 -0.11523241652E+02 -0.22029082964E+03  0.28792297105E+03  0.17200000000E+03 0.  1.
</event>
<event>
 4    1 -0.6479440E-004  0.2589250E+03  0.7818608E-02  0.1107791E+00
         -5   -1    0    0    0  501 -0.00000000000E+00  0.00000000000E+00  0.32519750939E+03  0.32523147159E+03  0.47000000000E+01 0.  1.
          5   -1    0    0  501    0  0.00000000000E+00 -0.00000000000E+00 -0.79827699061E+03  0.79829082654E+03  0.47000000000E+01 0. -1.
          6    1    1    2  502    0 -0.12796509043E+03 -0.14520018706E+03 -0.72036340522E+03  0.76548389550E+03  0.17200000000E+03 0. -1.
         -6    1    1    2    0  502  0.12796509043E+03  0.14520018706E+03  0.24728392400E+03  0.35803840263E+03  0.17200000000E+03 0.  1.
</event>
<event>
 4    1 -0.6479440E-004  0.3508712E+03  0.7818608E-02  0.1062258E+00
          5   -1    0    0  501    0  0.00000000000E+00  0.00000000000E+00  0.35830993307E+03  0.35834075702E+03  0.47000000000E+01 0. -1.
         -5   -1    0    0    0  501 -0.00000000000E+00 -0.00000000000E+00 -0.35034347536E+03  0.35037500014E+03  0.47000000000E+01 0.  1.
          6    1    1    2  502    0 -0.29076780302E+03  0.94766337263E+02  0.53413733395E+02  0.35491351181E+03  0.17200000000E+03 0. -1.
         -6    1    1    2    0  502  0.29076780302E+03 -0.94766337263E+02 -0.45447275679E+02  0.35380224535E+03  0.17200000000E+03 0.  1.
</event>
<event>
 4    1 -0.6479440E-004  0.1840695E+03  0.7818608E-02  0.1163922E+00
         -5   -1    0    0    0  501 -0.00000000000E+00  0.00000000000E+00  0.30206276064E+03  0.30209932368E+03  0.47000000000E+01 0.  1.
          5   -1    0    0  501    0  0.00000000000E+00 -0.00000000000E+00 -0.43264795247E+03  0.43267348056E+03  0.47000000000E+01 0. -1.
          6    1    1    2  502    0  0.64664137293E+02 -0.10775783314E+02 -0.38149845560E+03  0.42358309667E+03  0.17200000000E+03 0. -1.
         -6    1    1    2    0  502 -0.64664137293E+02  0.10775783314E+02  0.25091326378E+03  0.31118970757E+03  0.17200000000E+03 0.  1.
</event>
<event>
 4    1 -0.6479440E-004  0.1810348E+03  0.7818608E-02  0.1166805E+00
          5   -1    0    0  501    0  0.00000000000E+00  0.00000000000E+00  0.23647011061E+03  0.23651681381E+03  0.47000000000E+01 0. -1.
         -5   -1    0    0    0  501 -0.00000000000E+00 -0.00000000000E+00 -0.32256506160E+03  0.32259930094E+03  0.47000000000E+01 0.  1.
          6    1    1    2  502    0 -0.84966783446E+00  0.56470272719E+02  0.16809968332E+03  0.24704476754E+03  0.17200000000E+03 0. -1.
         -6    1    1    2    0  502  0.84966783446E+00 -0.56470272719E+02 -0.25419463431E+03  0.31207134721E+03  0.17200000000E+03 0.  1.
</event>
<event>
 4    1 -0.6479440E-004  0.2820802E+03  0.7818608E-02  0.1094558E+00
         -5   -1    0    0    0  501 -0.00000000000E+00  0.00000000000E+00  0.84985217347E+03  0.84986516975E+03  0.47000000000E+01 0.  1.
          5   -1    0    0  501    0  0.00000000000E+00 -0.00000000000E+00 -0.15750826583E+03  0.15757837353E+03  0.47000000000E+01 0. -1.
          6    1    1    2  502    0 -0.16327707440E+03 -0.15272807119E+03  0.25305255382E+02  0.28321303414E+03  0.17200000000E+03 0. -1.
         -6    1    1    2    0  502  0.16327707440E+03  0.15272807119E+03  0.66703865226E+03  0.72423050914E+03  0.17200000000E+03 0.  1.
</event>
<event>
 4    1 -0.6479440E-004  0.2367072E+03  0.7818608E-02  0.1122006E+00
         -5   -1    0    0    0  501 -0.00000000000E+00  0.00000000000E+00  0.27209906932E+03  0.27213965813E+03  0.47000000000E+01 0.  1.
          5   -1    0    0  501    0  0.00000000000E+00 -0.00000000000E+00 -0.82457149873E+03  0.82458489346E+03  0.47000000000E+01 0. -1.
          6    1    1    2  502    0 -0.12667793368E+03 -0.10197557998E+03 -0.75122832480E+03  0.78763844102E+03  0.17200000000E+03 0. -1.
         -6    1    1    2    0  502  0.12667793368E+03  0.10197557998E+03  0.19875589539E+03  0.30908611056E+03  0.17200000000E+03 0.  1.
</event>
<event>
 4    1 -0.6479440E-004  0.1854263E+03  0.7818608E-02  0.1162652E+00
          5   -1    0    0  501    0  0.00000000000E+00  0.00000000000E+00  0.39374300585E+03  0.39377105614E+03  0.47000000000E+01 0. -1.
         -5   -1    0    0    0  501 -0.00000000000E+00 -0.00000000000E+00 -0.12932683748E+03  0.12941221307E+03  0.47000000000E+01 0.  1.
          6    1    1    2  502    0  0.68950156391E+02  0.66926554816E+01  0.28137944900E+03  0.33698265538E+03  0.17200000000E+03 0. -1.
         -6    1    1    2    0  502 -0.68950156391E+02 -0.66926554816E+01 -0.16963280637E+02  0.18620061384E+03  0.17200000000E+03 0.  1.
</event>
<event>
 4    1 -0.6479440E-004  0.2490082E+03  0.7818608E-02  0.1113933E+00
          5   -1    0    0  501    0  0.00000000000E+00  0.00000000000E+00  0.38791903557E+03  0.38794750696E+03  0.47000000000E+01 0. -1.
         -5   -1    0    0    0  501 -0.00000000000E+00 -0.00000000000E+00 -0.22811355662E+03  0.22816197035E+03  0.47000000000E+01 0.  1.
          6    1    1    2  502    0 -0.17999073037E+03 -0.49409188614E+01  0.24848574721E+03  0.35178152632E+03  0.17200000000E+03 0. -1.
         -6    1    1    2    0  502  0.17999073037E+03  0.49409188614E+01 -0.88680268260E+02  0.26432795099E+03  0.17200000000E+03 0.  1.
</event>
<event>
 4    1 -0.6479440E-004  0.2149528E+03  0.7818608E-02  0.1137703E+00
         -5   -1    0    0    0  501 -0.00000000000E+00  0.00000000000E+00  0.70237057840E+03  0.70238630354E+03  0.47000000000E+01 0.  1.
          5   -1    0    0  501    0  0.00000000000E+00 -0.00000000000E+00 -0.12080225569E+03  0.12089365153E+03  0.47000000000E+01 0. -1.
          6    1    1    2  502    0  0.58675583196E+01 -0.12878767468E+03  0.12896962517E+02  0.21533932533E+03  0.17200000000E+03 0. -1.
         -6    1    1    2    0  502 -0.58675583196E+01  0.12878767468E+03  0.56867136019E+03  0.60794062974E+03  0.17200000000E+03 0.  1.
</event>
<event>
 4    1 -0.6479440E-004  0.2123865E+03  0.7818608E-02  0.1139690E+00
          5   -1    0    0  501    0  0.00000000000E+00  0.00000000000E+00  0.11933403744E+04  0.11933496299E+04  0.47000000000E+01 0. -1.
         -5   -1    0    0    0  501 -0.00000000000E+00 -0.00000000000E+00 -0.18451630202E+03  0.18457615152E+03  0.47000000000E+01 0.  1.
          6    1    1    2  502    0 -0.35592587928E+02  0.11940346123E+03  0.11187820996E+04  0.11387631032E+04  0.17200000000E+03 0. -1.
         -6    1    1    2    0  502  0.35592587928E+02 -0.11940346123E+03 -0.10995802725E+03  0.23916267816E+03  0.17200000000E+03 0.  1.
</event>
<event>
 4    1 -0.6479440E-004  0.1826190E+03  0.7818608E-02  0.1165292E+00
         -5   -1    0    0    0  501 -0.00000000000E+00  0.00000000000E+00  0.14977857157E+03  0.14985229562E+03  0.47000000000E+01 0.  1.
          5   -1    0    0  501    0  0.00000000000E+00 -0.00000000000E+00 -0.68731862165E+03  0.68733469115E+03  0.47000000000E+01 0. -1.
          6    1    1    2  502    0  0.51100110840E+02 -0.33977573388E+02 -0.61297598872E+03  0.63960085958E+03  0.17200000000E+03 0. -1.
         -6    1    1    2    0  502 -0.51100110840E+02  0.33977573388E+02  0.75435938647E+02  0.19758612720E+03  0.17200000000E+03 0.  1.
</event>
<event>
 4    1 -0.6479440E-004  0.1825376E+03  0.7818608E-02  0.1165370E+00
          5   -1    0    0  501    0  0.00000000000E+00  0.00000000000E+00  0.23517724915E+04  0.23517771880E+04  0.47000000000E+01 0. -1.
         -5   -1    0    0    0  501 -0.00000000000E+00 -0.00000000000E+00 -0.18508378770E+02  0.19095813276E+02  0.47000000000E+01 0.  1.
          6    1    1    2  502    0 -0.60023103065E+02  0.11540965624E+02  0.17553713147E+04  0.17648366551E+04  0.17200000000E+03 0. -1.
         -6    1    1    2    0  502  0.60023103065E+02 -0.11540965624E+02  0.57789279804E+03  0.60603634612E+03  0.17200000000E+03 0.  1.
</event>
<event>
 4    1 -0.6479440E-004  0.2369982E+03  0.7818608E-02  0.1121809E+00
         -5   -1    0    0    0  501 -0.00000000000E+00  0.00000000000E+00  0.25814480602E+03  0.25818758854E+03  0.47000000000E+01 0.  1.
          5   -1    0    0  501    0  0.00000000000E+00 -0.00000000000E+00 -0.67395451241E+03  0.67397090056E+03  0.47000000000E+01 0. -1.
          6    1    1    2  502    0 -0.63241913728E+02  0.15028183579E+03 -0.59145281873E+03  0.63716921348E+03  0.17200000000E+03 0. -1.
         -6    1    1    2    0  502  0.63241913728E+02 -0.15028183579E+03  0.17564311234E+03  0.29498927562E+03  0.17200000000E+03 0.  1.
</event>
<event>
 4    1 -0.6479440E-004  0.1920657E+03  0.7818608E-02  0.1156611E+00
          5   -1    0    0  501    0  0.00000000000E+00  0.00000000000E+00  0.62045280826E+03  0.62047060952E+03  0.47000000000E+01 0. -1.
         -5   -1    0    0    0  501 -0.00000000000E+00 -0.00000000000E+00 -0.13763760409E+03  0.13771782767E+03  0.47000000000E+01 0.  1.
          6    1    1    2  502    0 -0.38975667945E+01  0.85381785237E+02  0.52716962185E+03  0.56106777708E+03  0.17200000000E+03 0. -1.
         -6    1    1    2    0  502  0.38975667945E+01 -0.85381785237E+02 -0.44354417675E+02  0.19712066012E+03  0.17200000000E+03 0.  1.
</event>
<event>
 4    1 -0.6479440E-004  0.2315785E+03  0.7818608E-02  0.1125534E+00
         -5   -1    0    0    0  501 -0.00000000000E+00  0.00000000000E+00  0.17279666123E+03  0.17286056847E+03  0.47000000000E+01 0.  1.
          5   -1    0    0  501    0  0.00000000000E+00 -0.00000000000E+00 -0.43046644259E+03  0.43049210004E+03  0.47000000000E+01 0. -1.
          6    1    1    2  502    0  0.10465137344E+03 -0.11442331759E+03 -0.28826278134E+03  0.36976213527E+03  0.17200000000E+03 0. -1.
         -6    1    1    2    0  502 -0.10465137344E+03  0.11442331759E+03  0.30592999985E+02  0.23359053324E+03  0.17200000000E+03 0.  1.
</event>
<event>
 4    1 -0.6479440E-004  0.2010115E+03  0.7818608E-02  0.1148888E+00
          5   -1    0    0  501    0  0.00000000000E+00  0.00000000000E+00  0.16867915617E+03  0.16874462281E+03  0.47000000000E+01 0. -1.
         -5   -1    0    0    0  501 -0.00000000000E+00 -0.00000000000E+00 -0.11268265353E+04  0.11268363371E+04  0.47000000000E+01 0.  1.
          6    1    1    2  502    0 -0.96220302061E+02 -0.39538254969E+02  0.95773874766E+02  0.22266175069E+03  0.17200000000E+03 0. -1.
         -6    1    1    2    0  502  0.96220302061E+02  0.39538254969E+02 -0.10539212539E+04  0.10729192092E+04  0.17200000000E+03 0.  1.
</event>
<event>
 4    1 -0.6479440E-004  0.1984482E+03  0.7818608E-02  0.1151055E+00
         -5   -1    0    0    0  501 -0.00000000000E+00  0.00000000000E+00  0.12716013581E+03  0.12724696514E+03  0.47000000000E+01 0.  1.
          5   -1    0    0  501    0  0.00000000000E+00 -0.00000000000E+00 -0.33164922679E+03  0.33168252837E+03  0.47000000000E+01 0. -1.
          6    1    1    2  502    0  0.97943436590E+02 -0.14309696962E+02 -0.16154573623E+03  0.25588807923E+03  0.17200000000E+03 0. -1.
         -6    1    1    2    0  502 -0.97943436590E+02  0.14309696962E+02 -0.42943354752E+02  0.20304141429E+03  0.17200000000E+03 0.  1.
</event>
<event>
 4    1 -0.6479440E-004  0.2556423E+03  0.7818608E-02  0.1109790E+00
         -5   -1    0    0    0  501 -0.00000000000E+00  0.00000000000E+00  0.10205248820E+03  0.10216065949E+03  0.47000000000E+01 0.  1.
          5   -1    0    0  501    0  0.00000000000E+00 -0.00000000000E+00 -0.10757927011E+04  0.10758029679E+04  0.47000000000E+01 0. -1.
          6    1    1    2  502    0 -0.84340850566E+02 -0.16927959632E+03 -0.86174637968E+03  0.89886583186E+03  0.17200000000E+03 0. -1.
         -6    1    1    2    0  502  0.84340850566E+02  0.16927959632E+03 -0.11199383327E+03  0.27909779557E+03  0.17200000000E+03 0.  1.
</event>
<event>
 4    1 -0.6479440E-004  0.2469148E+03  0.7818608E-02  0.1115270E+00
         -5   -1    0    0    0  501 -0.00000000000E+00  0.00000000000E+00  0.26331317922E+03  0.26335512213E+03  0.47000000000E+01 0.  1.
          5   -1    0    0  501    0  0.00000000000E+00 -0.00000000000E+00 -0.39096629246E+03  0.39099454196E+03  0.47000000000E+01 0. -1.
          6    1    1    2  502    0  0.12033264276E+03 -0.13001144797E+03 -0.27278681129E+03  0.36793962267E+03  0.17200000000E+03 0. -1.
         -6    1    1    2    0  502 -0.12033264276E+03  0.13001144797E+03  0.14513369805E+03  0.28641004142E+03  0.17200000000E+03 0.  1.
</event>
<event>
 4    1 -0.6479440E-004  0.2202609E+03  0.7818608E-02  0.1133689E+00
          5   -1    0    0  501    0  0.00000000000E+00  0.00000000000E+00  0.56972885644E+03  0.56974824253E+03  0.47000000000E+01 0. -1.
         -5   -1    0    0    0  501 -0.00000000000E+00 -0.00000000000E+00 -0.56141547094E+03  0.56143514408E+03  0.47000000000E+01 0.  1.
          6    1    1    2  502    0 -0.13343867090E+03 -0.33540774863E+02  0.52509477021E+03  0.56942021405E+03  0.17200000000E+03 0. -1.
         -6    1    1    2    0  502  0.13343867090E+03  0.33540774863E+02 -0.51678138470E+03  0.56176317256E+03  0.17200000000E+03 0.  1.
</event>
<event>
 4    1 -0.6479440E-004  0.1788832E+03  0.7818608E-02  0.1168888E+00
          5   -1    0    0  501    0  0.00000000000E+00  0.00000000000E+00  0.10340893002E+03  0.10351568387E+03  0.47000000000E+01 0. -1.
         -5   -1    0    0    0  501 -0.00000000000E+00 -0.00000000000E+00 -0.43668220250E+03  0.43670749476E+03  0.47000000000E+01 0.  1.
          6    1    1    2  502    0 -0.40210955527E+02 -0.28254041212E+02 -0.20692522073E+02  0.18007607353E+03  0.17200000000E+03 0. -1.
         -6    1    1    2    0  502  0.40210955527E+02  0.28254041212E+02 -0.31258075041E+03  0.36014710510E+03  0.17200000000E+03 0.  1.
</event>
<event>
 4    1 -0.6479440E-004  0.2026578E+03  0.7818608E-02  0.1147516E+00
          5   -1    0    0  501    0  0.00000000000E+00  0.00000000000E+00  0.53528934854E+02  0.53734875701E+02  0.47000000000E+01 0. -1.
         -5   -1    0    0    0  501 -0.00000000000E+00 -0.00000000000E+00 -0.10511992909E+04  0.10512097979E+04  0.47000000000E+01 0.  1.
          6    1    1    2  502    0 -0.98863602756E+02 -0.41378470475E+02 -0.21087834556E+03  0.29247199250E+03  0.17200000000E+03 0. -1.
         -6    1    1    2    0  502  0.98863602756E+02  0.41378470475E+02 -0.78679201047E+03  0.81247268109E+03  0.17200000000E+03 0.  1.
</event>
<event>
 4    1 -0.6479440E-004  0.2209298E+03  0.7818608E-02  0.1133192E+00
          5   -1    0    0  501    0  0.00000000000E+00  0.00000000000E+00  0.15915460520E+03  0.15922398801E+03  0.47000000000E+01 0. -1.
         -5   -1    0    0    0  501 -0.00000000000E+00 -0.00000000000E+00 -0.42983339870E+03  0.42985909393E+03  0.47000000000E+01 0.  1.
          6    1    1    2  502    0 -0.11545501310E+03 -0.76786280950E+02  0.22398389707E+02  0.22206233551E+03  0.17200000000E+03 0. -1.
         -6    1    1    2    0  502  0.11545501310E+03  0.76786280950E+02 -0.29307718320E+03  0.36702074643E+03  0.17200000000E+03 0.  1.
</event>
<event>
 4    1 -0.6479440E-004  0.2582741E+03  0.7818608E-02  0.1108185E+00
         -5   -1    0    0    0  501 -0.00000000000E+00  0.00000000000E+00  0.19040776418E+04  0.19040834425E+04  0.47000000000E+01 0.  1.
          5   -1    0    0  501    0  0.00000000000E+00 -0.00000000000E+00 -0.44420836410E+03  0.44423322787E+03  0.47000000000E+01 0. -1.
          6    1    1    2  502    0  0.40368809908E+02 -0.18839283370E+03 -0.39697435260E+03  0.47359701987E+03  0.17200000000E+03 0. -1.
         -6    1    1    2    0  502 -0.40368809908E+02  0.18839283370E+03  0.18568436303E+04  0.18747196505E+04  0.17200000000E+03 0.  1.
</event>
<event>
 4    1 -0.6479440E-004  0.1900142E+03  0.7818608E-02  0.1158449E+00
         -5   -1    0    0    0  501 -0.00000000000E+00  0.00000000000E+00  0.52106882033E+02  0.52318420801E+02  0.47000000000E+01 0.  1.
          5   -1    0    0  501    0  0.00000000000E+00 -0.00000000000E+00 -0.72591259326E+03  0.72592780843E+03  0.47000000000E+01 0. -1.
          6    1    1    2  502    0 -0.91140989142E+01 -0.80239209500E+02 -0.42187462065E+03  0.46269168254E+03  0.17200000000E+03 0. -1.
         -6    1    1    2    0  502  0.91140989142E+01  0.80239209500E+02 -0.25193109057E+03  0.31555454669E+03  0.17200000000E+03 0. -1.
</event>
<event>
 4    1 -0.6479440E-004  0.1788956E+03  0.7818608E-02  0.1168876E+00
          5   -1    0    0  501    0  0.00000000000E+00  0.00000000000E+00  0.36361765309E+03  0.36364802713E+03  0.47000000000E+01 0. -1.
         -5   -1    0    0    0  501 -0.00000000000E+00 -0.00000000000E+00 -0.22284272422E+03  0.22289228281E+03  0.47000000000E+01 0.  1.
          6    1    1    2  502    0 -0.61518926389E+01  0.48803672804E+02  0.29852668608E+03  0.34802561194E+03  0.17200000000E+03 0. -1.
         -6    1    1    2    0  502  0.61518926389E+01 -0.48803672804E+02 -0.15775175721E+03  0.23851469801E+03  0.17200000000E+03 0.  1.
</event>
<event>
 4    1 -0.6479440E-004  0.3097593E+03  0.7818608E-02  0.1080461E+00
         -5   -1    0    0    0  501 -0.00000000000E+00  0.00000000000E+00  0.19326125572E+03  0.19331839789E+03  0.47000000000E+01 0.  1.
          5   -1    0    0  501    0  0.00000000000E+00 -0.00000000000E+00 -0.81717750836E+03  0.81719102428E+03  0.47000000000E+01 0. -1.
          6    1    1    2  502    0 -0.25760945341E+03  0.20474575427E+01 -0.62853140979E+03  0.70071574527E+03  0.17200000000E+03 0. -1.
         -6    1    1    2    0  502  0.25760945341E+03 -0.20474575427E+01  0.46151571588E+01  0.30979367690E+03  0.17200000000E+03 0.  1.
</event>
<event>
 4    1 -0.6479440E-004  0.1795305E+03  0.7818608E-02  0.1168258E+00
         -5   -1    0    0    0  501 -0.00000000000E+00  0.00000000000E+00  0.51019309182E+02  0.51235338483E+02  0.47000000000E+01 0.  1.
          5   -1    0    0  501    0  0.00000000000E+00 -0.00000000000E+00 -0.64403379172E+03  0.64405094121E+03  0.47000000000E+01 0. -1.
          6    1    1    2  502    0 -0.48195008188E+02  0.18012154396E+02 -0.34747521927E+03  0.39111408122E+03  0.17200000000E+03 0. -1.
         -6    1    1    2    0  502  0.48195008188E+02 -0.18012154396E+02 -0.24553926327E+03  0.30417219848E+03  0.17200000000E+03 0.  1.
</event>
<event>
 4    1 -0.6479440E-004  0.2933594E+03  0.7818608E-02  0.1088608E+00
          5   -1    0    0  501    0  0.00000000000E+00  0.00000000000E+00  0.62777650886E+03  0.62779410245E+03  0.47000000000E+01 0. -1.
         -5   -1    0    0    0  501 -0.00000000000E+00 -0.00000000000E+00 -0.16356070093E+03  0.16362821544E+03  0.47000000000E+01 0.  1.
          6    1    1    2  502    0 -0.22361738645E+03  0.80442492524E+02  0.39144540323E+03  0.48917198799E+03  0.17200000000E+03 0. -1.
         -6    1    1    2    0  502  0.22361738645E+03 -0.80442492524E+02  0.72770404694E+02  0.30225032990E+03  0.17200000000E+03 0.  1.
</event>
<event>
 4    1 -0.6479440E-004  0.2171777E+03  0.7818608E-02  0.1136005E+00
          5   -1    0    0  501    0  0.00000000000E+00  0.00000000000E+00  0.87716409030E+02  0.87842235929E+02  0.47000000000E+01 0. -1.
         -5   -1    0    0    0  501 -0.00000000000E+00 -0.00000000000E+00 -0.68093891311E+03  0.68095513317E+03  0.47000000000E+01 0.  1.
          6    1    1    2  502    0  0.10172538517E+03  0.85053477164E+02 -0.12001411076E+03  0.24813209133E+03  0.17200000000E+03 0. -1.
         -6    1    1    2    0  502 -0.10172538517E+03 -0.85053477164E+02 -0.47320839332E+03  0.52066527777E+03  0.17200000000E+03 0.  1.
</event>
<event>
 4    1 -0.6479440E-004  0.1949151E+03  0.7818608E-02  0.1154101E+00
         -5   -1    0    0    0  501 -0.00000000000E+00  0.00000000000E+00  0.60465961975E+02  0.60648351647E+02  0.47000000000E+01 0.  1.
          5   -1    0    0  501    0  0.00000000000E+00 -0.00000000000E+00 -0.64096408582E+03  0.64098131744E+03  0.47000000000E+01 0. -1.
          6    1    1    2  502    0  0.55858025996E+02  0.72717188633E+02 -0.34168402934E+03  0.39336990797E+03  0.17200000000E+03 0. -1.
         -6    1    1    2    0  502 -0.55858025996E+02 -0.72717188633E+02 -0.23881409451E+03  0.30825976112E+03  0.17200000000E+03 0. -1.
</event>
<event>
 4    1 -0.6479440E-004  0.1970698E+03  0.7818608E-02  0.1152235E+00
          5   -1    0    0  501    0  0.00000000000E+00  0.00000000000E+00  0.65050904444E+02  0.65220473541E+02  0.47000000000E+01 0. -1.
         -5   -1    0    0    0  501 -0.00000000000E+00 -0.00000000000E+00 -0.95513098875E+03  0.95514255254E+03  0.47000000000E+01 0.  1.
          6    1    1    2  502    0  0.70214606174E+02  0.65745133155E+02 -0.13225884144E+03  0.23733713278E+03  0.17200000000E+03 0. -1.
         -6    1    1    2    0  502 -0.70214606174E+02 -0.65745133155E+02 -0.75782124286E+03  0.78302589331E+03  0.17200000000E+03 0.  1.
</event>
<event>
 4    1 -0.6479440E-004  0.2151986E+03  0.7818608E-02  0.1137514E+00
          5   -1    0    0  501    0  0.00000000000E+00  0.00000000000E+00  0.97758935229E+02  0.97871852017E+02  0.47000000000E+01 0. -1.
         -5   -1    0    0    0  501 -0.00000000000E+00 -0.00000000000E+00 -0.65149489898E+03  0.65151185208E+03  0.47000000000E+01 0.  1.
          6    1    1    2  502    0  0.50393109075E+02 -0.11910903204E+03 -0.80940915412E+02  0.22991706928E+03  0.17200000000E+03 0. -1.
         -6    1    1    2    0  502 -0.50393109075E+02  0.11910903204E+03 -0.47279504834E+03  0.51946663482E+03  0.17200000000E+03 0.  1.
</event>
<event>
 4    1 -0.6479440E-004  0.2013947E+03  0.7818608E-02  0.1148568E+00
         -5   -1    0    0    0  501 -0.00000000000E+00  0.00000000000E+00  0.21535441900E+03  0.21540570044E+03  0.47000000000E+01 0.  1.
          5   -1    0    0  501    0  0.00000000000E+00 -0.00000000000E+00 -0.33367701233E+03  0.33371011156E+03  0.47000000000E+01 0. -1.
          6    1    1    2  502    0 -0.39399917481E+01 -0.10469150193E+03 -0.24039948435E+03  0.31361081963E+03  0.17200000000E+03 0. -1.
         -6    1    1    2    0  502  0.39399917481E+01  0.10469150193E+03  0.12207689102E+03  0.23550499237E+03  0.17200000000E+03 0.  1.
</event>
<event>
 4    1 -0.6479440E-004  0.2117725E+03  0.7818608E-02  0.1140170E+00
          5   -1    0    0  501    0  0.00000000000E+00  0.00000000000E+00  0.72709734272E+03  0.72711253310E+03  0.47000000000E+01 0. -1.
         -5   -1    0    0    0  501 -0.00000000000E+00 -0.00000000000E+00 -0.27750772320E+03  0.27754752104E+03  0.47000000000E+01 0.  1.
          6    1    1    2  502    0  0.88055144672E+02  0.86659602269E+02  0.66780466816E+03  0.70057881069E+03  0.17200000000E+03 0. -1.
         -6    1    1    2    0  502 -0.88055144672E+02 -0.86659602269E+02 -0.21821504863E+03  0.30408124345E+03  0.17200000000E+03 0.  1.
</event>
<event>
 4    1 -0.6479440E-004  0.1776990E+03  0.7818608E-02  0.1170049E+00
          5   -1    0    0  501    0  0.00000000000E+00  0.00000000000E+00  0.59252332414E+03  0.59254196447E+03  0.47000000000E+01 0. -1.
         -5   -1    0    0    0  501 -0.00000000000E+00 -0.00000000000E+00 -0.11977798883E+03  0.11987016563E+03  0.47000000000E+01 0.  1.
          6    1    1    2  502    0  0.51518229955E+01  0.44343964951E+02  0.50181710361E+03  0.53235076217E+03  0.17200000000E+03 0. -1.
         -6    1    1    2    0  502 -0.51518229955E+01 -0.44343964951E+02 -0.29071768294E+02  0.18006136793E+03  0.17200000000E+03 0.  1.
</event>
<event>
 4    1 -0.6479440E-004  0.2656934E+03  0.7818608E-02  0.1103770E+00
         -5   -1    0    0    0  501 -0.00000000000E+00  0.00000000000E+00  0.66785053888E+03  0.66786707681E+03  0.47000000000E+01 0.  1.
          5   -1    0    0  501    0  0.00000000000E+00 -0.00000000000E+00 -0.11235860481E+03  0.11245686317E+03  0.47000000000E+01 0. -1.
          6    1    1    2  502    0 -0.14313877504E+03 -0.14324908323E+03  0.18232991259E+03  0.32223780938E+03  0.17200000000E+03 0. -1.
         -6    1    1    2    0  502  0.14313877504E+03  0.14324908323E+03  0.37316202148E+03  0.45808613060E+03  0.17200000000E+03 0.  1.
</event>
<event>
 4    1 -0.6479440E-004  0.1762062E+03  0.7818608E-02  0.1171526E+00
          5   -1    0    0  501    0  0.00000000000E+00  0.00000000000E+00  0.10399613492E+04  0.10399719697E+04  0.47000000000E+01 0. -1.
         -5   -1    0    0    0  501 -0.00000000000E+00 -0.00000000000E+00 -0.39876901854E+02  0.40152923946E+02  0.47000000000E+01 0.  1.
          6    1    1    2  502    0  0.36114610459E+02 -0.12663360693E+02  0.77227389260E+03  0.79212094467E+03  0.17200000000E+03 0. -1.
         -6    1    1    2    0  502 -0.36114610459E+02  0.12663360693E+02  0.22781055476E+03  0.28800394902E+03  0.17200000000E+03 0.  1.
</event>
<event>
 4    1 -0.6479440E-004  0.2294814E+03  0.7818608E-02  0.1127005E+00
          5   -1    0    0  501    0  0.00000000000E+00  0.00000000000E+00  0.28199423755E+03  0.28203340230E+03  0.47000000000E+01 0. -1.
         -5   -1    0    0    0  501 -0.00000000000E+00 -0.00000000000E+00 -0.24546393487E+03  0.24550892717E+03  0.47000000000E+01 0.  1.
          6    1    1    2  502    0 -0.13230938584E+03  0.74645574239E+02  0.14733784565E+03  0.27270895859E+03  0.17200000000E+03 0. -1.
         -6    1    1    2    0  502  0.13230938584E+03 -0.74645574239E+02 -0.11080754296E+03  0.25483337088E+03  0.17200000000E+03 0.  1.
</event>
<event>
 4    1 -0.6479440E-004  0.1786713E+03  0.7818608E-02  0.1169095E+00
         -5   -1    0    0    0  501 -0.00000000000E+00  0.00000000000E+00  0.16851852009E+03  0.16858404911E+03  0.47000000000E+01 0.  1.
          5   -1    0    0  501    0  0.00000000000E+00 -0.00000000000E+00 -0.14113481037E+04  0.14113559295E+04  0.47000000000E+01 0. -1.
          6    1    1    2  502    0 -0.47023414444E+02  0.11323683104E+02 -0.13564730375E+04  0.13681895077E+04  0.17200000000E+03 0. -1.
         -6    1    1    2    0  502  0.47023414444E+02 -0.11323683104E+02  0.11364345398E+03  0.21175047093E+03  0.17200000000E+03 0.  1.
</event>
<event>
 4    1 -0.6479440E-004  0.1945366E+03  0.7818608E-02  0.1154432E+00
          5   -1    0    0  501    0  0.00000000000E+00  0.00000000000E+00  0.13172959683E+03  0.13181341617E+03  0.47000000000E+01 0. -1.
         -5   -1    0    0    0  501 -0.00000000000E+00 -0.00000000000E+00 -0.13626717055E+04  0.13626798109E+04  0.47000000000E+01 0.  1.
          6    1    1    2  502    0  0.24996255435E+02  0.87382365358E+02  0.48382077413E+02  0.20046275459E+03  0.17200000000E+03 0. -1.
         -6    1    1    2    0  502 -0.24996255435E+02 -0.87382365358E+02 -0.12793241861E+04  0.12940304725E+04  0.17200000000E+03 0.  1.
</event>
<event>
 4    1 -0.6479440E-004  0.1750577E+03  0.7818608E-02  0.1172674E+00
          5   -1    0    0  501    0  0.00000000000E+00  0.00000000000E+00  0.97559188160E+02  0.97672335871E+02  0.47000000000E+01 0. -1.
         -5   -1    0    0    0  501 -0.00000000000E+00 -0.00000000000E+00 -0.52002143245E+03  0.52004267153E+03  0.47000000000E+01 0.  1.
          6    1    1    2  502    0 -0.12734013493E+02  0.29983848669E+02 -0.16762753413E+02  0.17585839810E+03  0.17200000000E+03 0. -1.
         -6    1    1    2    0  502  0.12734013493E+02 -0.29983848669E+02 -0.40569949088E+03  0.44185660930E+03  0.17200000000E+03 0.  1.
</event>
<event>
 4    1 -0.6479440E-004  0.1813294E+03  0.7818608E-02  0.1166523E+00
          5   -1    0    0  501    0  0.00000000000E+00  0.00000000000E+00  0.47871840401E+03  0.47874147547E+03  0.47000000000E+01 0. -1.
         -5   -1    0    0    0  501 -0.00000000000E+00 -0.00000000000E+00 -0.16960258632E+03  0.16966769665E+03  0.47000000000E+01 0.  1.
          6    1    1    2  502    0 -0.52480365301E+02 -0.23284363334E+02  0.40467320874E+03  0.44344194230E+03  0.17200000000E+03 0. -1.
         -6    1    1    2    0  502  0.52480365301E+02  0.23284363334E+02 -0.95557391045E+02  0.20496722982E+03  0.17200000000E+03 0.  1.
</event>
<event>
 4    1 -0.6479440E-004  0.2219956E+03  0.7818608E-02  0.1132404E+00
         -5   -1    0    0    0  501 -0.00000000000E+00  0.00000000000E+00  0.10477184425E+04  0.10477289844E+04  0.47000000000E+01 0.  1.
          5   -1    0    0  501    0  0.00000000000E+00 -0.00000000000E+00 -0.57434057769E+02  0.57626044388E+02  0.47000000000E+01 0. -1.
          6    1    1    2  502    0  0.13354551275E+03  0.43169981046E+02  0.25901378746E+03  0.34113075694E+03  0.17200000000E+03 0. -1.
         -6    1    1    2    0  502 -0.13354551275E+03 -0.43169981046E+02  0.73127059728E+03  0.76422427185E+03  0.17200000000E+03 0.  1.
</event>
<event>
 4    1 -0.6479440E-004  0.3147784E+03  0.7818608E-02  0.1078078E+00
          5   -1    0    0  501    0  0.00000000000E+00  0.00000000000E+00  0.68661546564E+03  0.68663155160E+03  0.47000000000E+01 0. -1.
         -5   -1    0    0    0  501 -0.00000000000E+00 -0.00000000000E+00 -0.15778485026E+03  0.15785483512E+03  0.47000000000E+01 0.  1.
          6    1    1    2  502    0  0.68880557389E+02 -0.25447375212E+03  0.38803046438E+03  0.49965294254E+03  0.17200000000E+03 0. -1.
         -6    1    1    2    0  502 -0.68880557389E+02  0.25447375212E+03  0.14080015100E+03  0.34483344418E+03  0.17200000000E+03 0.  1.
</event>
<event>
 4    1 -0.6479440E-004  0.4321258E+03  0.7818608E-02  0.1033191E+00
         -5   -1    0    0    0  501 -0.00000000000E+00  0.00000000000E+00  0.61717952705E+03  0.61719742272E+03  0.47000000000E+01 0.  1.
          5   -1    0    0  501    0  0.00000000000E+00 -0.00000000000E+00 -0.71892748078E+03  0.71894284378E+03  0.47000000000E+01 0. -1.
          6    1    1    2  502    0  0.38456564789E+03 -0.96218530503E+02 -0.55929879452E+03  0.70678701509E+03  0.17200000000E+03 0. -1.
         -6    1    1    2    0  502 -0.38456564789E+03  0.96218530503E+02  0.45755084079E+03  0.62935325141E+03  0.17200000000E+03 0.  1.
</event>
<event>
 4    1 -0.6479440E-004  0.3293648E+03  0.7818608E-02  0.1071418E+00
          5   -1    0    0  501    0  0.00000000000E+00  0.00000000000E+00  0.14253978734E+04  0.14254056221E+04  0.47000000000E+01 0. -1.
         -5   -1    0    0    0  501 -0.00000000000E+00 -0.00000000000E+00 -0.16752867112E+03  0.16759458717E+03  0.47000000000E+01 0.  1.
          6    1    1    2  502    0 -0.26670375318E+03  0.88126474174E+02  0.12173891030E+04  0.12611571653E+04  0.17200000000E+03 0. -1.
         -6    1    1    2    0  502  0.26670375318E+03 -0.88126474174E+02  0.40480099283E+02  0.33184304400E+03  0.17200000000E+03 0.  1.
</event>
<event>
 4    1 -0.6479440E-004  0.1959155E+03  0.7818608E-02  0.1153232E+00
          5   -1    0    0  501    0  0.00000000000E+00  0.00000000000E+00  0.80015008947E+03  0.80016389301E+03  0.47000000000E+01 0. -1.
         -5   -1    0    0    0  501 -0.00000000000E+00 -0.00000000000E+00 -0.12971877756E+04  0.12971962902E+04  0.47000000000E+01 0.  1.
          6    1    1    2  502    0  0.21924375199E+02 -0.91204213621E+02  0.78058910726E+03  0.80479950372E+03  0.17200000000E+03 0. -1.
         -6    1    1    2    0  502 -0.21924375199E+02  0.91204213621E+02 -0.12776267934E+04  0.12925606795E+04  0.17200000000E+03 0.  1.
</event>
<event>
 4    1 -0.6479440E-004  0.2048499E+03  0.7818608E-02  0.1145710E+00
         -5   -1    0    0    0  501 -0.00000000000E+00  0.00000000000E+00  0.48642032331E+03  0.48644302948E+03  0.47000000000E+01 0.  1.
          5   -1    0    0  501    0  0.00000000000E+00 -0.00000000000E+00 -0.10979783854E+03  0.10989838647E+03  0.47000000000E+01 0. -1.
          6    1    1    2  502    0 -0.49684981991E+02 -0.99553354206E+02  0.50111854433E+02  0.21089017455E+03  0.17200000000E+03 0. -1.
         -6    1    1    2    0  502  0.49684981991E+02  0.99553354206E+02  0.32651063034E+03  0.38545124139E+03  0.17200000000E+03 0.  1.
</event>
<event>
 4    1 -0.6479440E-004  0.1998625E+03  0.7818608E-02  0.1149855E+00
          5   -1    0    0  501    0  0.00000000000E+00  0.00000000000E+00  0.13224525143E+03  0.13232874414E+03  0.47000000000E+01 0. -1.
         -5   -1    0    0    0  501 -0.00000000000E+00 -0.00000000000E+00 -0.38303133999E+03  0.38306017467E+03  0.47000000000E+01 0.  1.
          6    1    1    2  502    0 -0.34269092638E+02 -0.95846966179E+02 -0.67791159764E+01  0.19997741885E+03  0.17200000000E+03 0. -1.
         -6    1    1    2    0  502  0.34269092638E+02  0.95846966179E+02 -0.24400697259E+03  0.31541149996E+03  0.17200000000E+03 0.  1.
</event>
<event>
 4    1 -0.6479440E-004  0.1748284E+03  0.7818608E-02  0.1172904E+00
          5   -1    0    0  501    0  0.00000000000E+00  0.00000000000E+00  0.75436329380E+02  0.75582602432E+02  0.47000000000E+01 0. -1.
         -5   -1    0    0    0  501 -0.00000000000E+00 -0.00000000000E+00 -0.91216289483E+03  0.91217500334E+03  0.47000000000E+01 0.  1.
          6    1    1    2  502    0  0.73615297982E+00  0.31311619740E+02 -0.49997168284E+02  0.18183694973E+03  0.17200000000E+03 0. -1.
         -6    1    1    2    0  502 -0.73615297982E+00 -0.31311619740E+02 -0.78672939717E+03  0.80592065603E+03  0.17200000000E+03 0.  1.
</event>
<event>
 4    1 -0.6479440E-004  0.2330725E+03  0.7818608E-02  0.1124496E+00
         -5   -1    0    0    0  501 -0.00000000000E+00  0.00000000000E+00  0.26961124450E+03  0.26965220778E+03  0.47000000000E+01 0.  1.
          5   -1    0    0  501    0  0.00000000000E+00 -0.00000000000E+00 -0.58182862113E+03  0.58184760407E+03  0.47000000000E+01 0. -1.
          6    1    1    2  502    0 -0.15530364718E+03  0.24891046138E+02 -0.50035036591E+03  0.55197216929E+03  0.17200000000E+03 0. -1.
         -6    1    1    2    0  502  0.15530364718E+03 -0.24891046138E+02  0.18813298928E+03  0.29952764256E+03  0.17200000000E+03 0.  1.
</event>
<event>
 4    1 -0.6479440E-004  0.1724886E+03  0.7818608E-02  0.1175277E+00
          5   -1    0    0  501    0  0.00000000000E+00  0.00000000000E+00  0.70137769040E+03  0.70139343780E+03  0.47000000000E+01 0. -1.
         -5   -1    0    0    0  501 -0.00000000000E+00 -0.00000000000E+00 -0.85800382539E+02  0.85929015145E+02  0.47000000000E+01 0.  1.
          6    1    1    2  502    0 -0.12010517835E+02  0.49047156824E+01  0.58783242234E+03  0.61261673625E+03  0.17200000000E+03 0. -1.
         -6    1    1    2    0  502  0.12010517835E+02 -0.49047156824E+01  0.27744885519E+02  0.17470571670E+03  0.17200000000E+03 0.  1.
</event>
<event>
 4    1 -0.6479440E-004  0.2293089E+03  0.7818608E-02  0.1127127E+00
          5   -1    0    0  501    0  0.00000000000E+00  0.00000000000E+00  0.58098118929E+03  0.58100019992E+03  0.47000000000E+01 0. -1.
         -5   -1    0    0    0  501 -0.00000000000E+00 -0.00000000000E+00 -0.71797885309E+03  0.71799423639E+03  0.47000000000E+01 0.  1.
          6    1    1    2  502    0  0.14139615406E+03 -0.54824311331E+02  0.53868533965E+03  0.58546090617E+03  0.17200000000E+03 0. -1.
         -6    1    1    2    0  502 -0.14139615406E+03  0.54824311331E+02 -0.67568300345E+03  0.71353353015E+03  0.17200000000E+03 0.  1.
</event>
<event>
 4    1 -0.6479440E-004  0.2398522E+03  0.7818608E-02  0.1119891E+00
         -5   -1    0    0    0  501 -0.00000000000E+00  0.00000000000E+00  0.46506607309E+03  0.46508982179E+03  0.47000000000E+01 0.  1.
          5   -1    0    0  501    0  0.00000000000E+00 -0.00000000000E+00 -0.54908506620E+03  0.54910518111E+03  0.47000000000E+01 0. -1.
          6    1    1    2  502    0  0.14804441649E+03 -0.77639775384E+02 -0.48835156643E+03  0.54407383360E+03  0.17200000000E+03 0. -1.
         -6    1    1    2    0  502 -0.14804441649E+03  0.77639775384E+02  0.40433257332E+03  0.47012116930E+03  0.17200000000E+03 0.  1.
</event>
<event>
 4    1 -0.6479440E-004  0.1945224E+03  0.7818608E-02  0.1154444E+00
         -5   -1    0    0    0  501 -0.00000000000E+00  0.00000000000E+00  0.65841850029E+03  0.65843527512E+03  0.47000000000E+01 0.  1.
          5   -1    0    0  501    0  0.00000000000E+00 -0.00000000000E+00 -0.10186796535E+03  0.10197633237E+03  0.47000000000E+01 0. -1.
          6    1    1    2  502    0 -0.76554293491E+01  0.90533825487E+02  0.27154246485E+02  0.19640858499E+03  0.17200000000E+03 0. -1.
         -6    1    1    2    0  502  0.76554293491E+01 -0.90533825487E+02  0.52939628846E+03  0.56400302250E+03  0.17200000000E+03 0.  1.
</event>
<event>
 4    1 -0.6479440E-004  0.1782553E+03  0.7818608E-02  0.1169502E+00
          5   -1    0    0  501    0  0.00000000000E+00  0.00000000000E+00  0.16183872391E+03  0.16190695648E+03  0.47000000000E+01 0. -1.
         -5   -1    0    0    0  501 -0.00000000000E+00 -0.00000000000E+00 -0.41959907520E+03  0.41962539712E+03  0.47000000000E+01 0.  1.
          6    1    1    2  502    0  0.34830361684E+02  0.31269948529E+02  0.83254253274E+02  0.19673900087E+03  0.17200000000E+03 0. -1.
         -6    1    1    2    0  502 -0.34830361684E+02 -0.31269948529E+02 -0.34101460456E+03  0.38479335273E+03  0.17200000000E+03 0.  1.
</event>
<event>
 4    1 -0.6479440E-004  0.3281015E+03  0.7818608E-02  0.1071980E+00
         -5   -1    0    0    0  501 -0.00000000000E+00  0.00000000000E+00  0.13702670543E+04  0.13702751148E+04  0.47000000000E+01 0.  1.
          5   -1    0    0  501    0  0.00000000000E+00 -0.00000000000E+00 -0.25478863651E+03  0.25483198248E+03  0.47000000000E+01 0. -1.
          6    1    1    2  502    0  0.65229129941E+02 -0.27168316750E+03 -0.11804746499E+03  0.34869153544E+03  0.17200000000E+03 0. -1.
         -6    1    1    2    0  502 -0.65229129941E+02  0.27168316750E+03  0.12335258828E+04  0.12764155618E+04  0.17200000000E+03 0.  1.
</event>
<event>
 4    1 -0.6479440E-004  0.1834536E+03  0.7818608E-02  0.1164502E+00
         -5   -1    0    0    0  501 -0.00000000000E+00  0.00000000000E+00  0.62779563264E+02  0.62955250484E+02  0.47000000000E+01 0.  1.
          5   -1    0    0  501    0  0.00000000000E+00 -0.00000000000E+00 -0.69015378979E+03  0.69016979328E+03  0.47000000000E+01 0. -1.
          6    1    1    2  502    0 -0.63188990754E+02  0.88539111520E+01 -0.49211925713E+03  0.52520148851E+03  0.17200000000E+03 0. -1.
         -6    1    1    2    0  502  0.63188990754E+02 -0.88539111520E+01 -0.13525496940E+03  0.22792355526E+03  0.17200000000E+03 0.  1.
</event>
<event>
 4    1 -0.6479440E-004  0.3287604E+03  0.7818608E-02  0.1071687E+00
         -5   -1    0    0    0  501 -0.00000000000E+00  0.00000000000E+00  0.48041087344E+03  0.48043386363E+03  0.47000000000E+01 0.  1.
          5   -1    0    0  501    0  0.00000000000E+00 -0.00000000000E+00 -0.50450262989E+03  0.50452452227E+03  0.47000000000E+01 0. -1.
          6    1    1    2  502    0  0.27492546918E+03  0.53994094992E+02 -0.37863512691E+03  0.50144584476E+03  0.17200000000E+03 0. -1.
         -6    1    1    2    0  502 -0.27492546918E+03 -0.53994094992E+02  0.35454337046E+03  0.48351254114E+03  0.17200000000E+03 0.  1.
</event>
<event>
 4    1 -0.6479440E-004  0.1894642E+03  0.7818608E-02  0.1158945E+00
          5   -1    0    0  501    0  0.00000000000E+00  0.00000000000E+00  0.89315633498E+02  0.89439210568E+02  0.47000000000E+01 0. -1.
         -5   -1    0    0    0  501 -0.00000000000E+00 -0.00000000000E+00 -0.40589435999E+03  0.40592157060E+03  0.47000000000E+01 0.  1.
          6    1    1    2  502    0  0.30905462064E+02 -0.73195245914E+02 -0.18407595147E+03  0.26416026862E+03  0.17200000000E+03 0. -1.
         -6    1    1    2    0  502 -0.30905462064E+02  0.73195245914E+02 -0.13250277503E+03  0.23120051254E+03  0.17200000000E+03 0. -1.
</event>
<event>
 4    1 -0.6479440E-004  0.1744368E+03  0.7818608E-02  0.1173298E+00
         -5   -1    0    0    0  501 -0.00000000000E+00  0.00000000000E+00  0.16608380599E+03  0.16615029525E+03  0.47000000000E+01 0.  1.
          5   -1    0    0  501    0  0.00000000000E+00 -0.00000000000E+00 -0.24490760347E+03  0.24495269796E+03  0.47000000000E+01 0. -1.
          6    1    1    2  502    0  0.29014914291E+02  0.15270104025E+01 -0.14266831851E+03  0.22534960865E+03  0.17200000000E+03 0. -1.
         -6    1    1    2    0  502 -0.29014914291E+02 -0.15270104025E+01  0.63844521028E+02  0.18575338457E+03  0.17200000000E+03 0.  1.
</event>
<event>
 4    1 -0.6479440E-004  0.1815475E+03  0.7818608E-02  0.1166314E+00
          5   -1    0    0  501    0  0.00000000000E+00  0.00000000000E+00  0.56480821063E+03  0.56482776560E+03  0.47000000000E+01 0. -1.
         -5   -1    0    0    0  501 -0.00000000000E+00 -0.00000000000E+00 -0.10335960357E+03  0.10346640832E+03  0.47000000000E+01 0.  1.
          6    1    1    2  502    0 -0.40418120692E+02  0.41735768110E+02  0.45131801464E+03  0.48646423215E+03  0.17200000000E+03 0. -1.
         -6    1    1    2    0  502  0.40418120692E+02 -0.41735768110E+02  0.10130592415E+02  0.18182994177E+03  0.17200000000E+03 0.  1.
</event>
<event>
 4    1 -0.6479440E-004  0.1739279E+03  0.7818608E-02  0.1173812E+00
         -5   -1    0    0    0  501 -0.00000000000E+00  0.00000000000E+00  0.46237147047E+03  0.46239535757E+03  0.47000000000E+01 0.  1.
          5   -1    0    0  501    0  0.00000000000E+00 -0.00000000000E+00 -0.24807421501E+03  0.24811873398E+03  0.47000000000E+01 0. -1.
          6    1    1    2  502    0 -0.25799952263E+02  0.11364280426E+01 -0.19769460498E+03  0.26331366437E+03  0.17200000000E+03 0. -1.
         -6    1    1    2    0  502  0.25799952263E+02 -0.11364280426E+01  0.41199186044E+03  0.44720042718E+03  0.17200000000E+03 0.  1.
</event>
<event>
 4    1 -0.6479440E-004  0.2005392E+03  0.7818608E-02  0.1149285E+00
         -5   -1    0    0    0  501 -0.00000000000E+00  0.00000000000E+00  0.99003867877E+03  0.99004983484E+03  0.47000000000E+01 0.  1.
          5   -1    0    0  501    0  0.00000000000E+00 -0.00000000000E+00 -0.10221134148E+03  0.10231934483E+03  0.47000000000E+01 0. -1.
          6    1    1    2  502    0  0.56718321492E+02  0.86110426100E+02  0.19841656937E+02  0.20151839823E+03  0.17200000000E+03 0. -1.
         -6    1    1    2    0  502 -0.56718321492E+02 -0.86110426100E+02  0.86798568036E+03  0.89085078143E+03  0.17200000000E+03 0.  1.
</event>
<event>
 4    1 -0.6479440E-004  0.2560091E+03  0.7818608E-02  0.1109565E+00
          5   -1    0    0  501    0  0.00000000000E+00  0.00000000000E+00  0.11779595298E+04  0.11779689062E+04  0.47000000000E+01 0. -1.
         -5   -1    0    0    0  501 -0.00000000000E+00 -0.00000000000E+00 -0.74283503568E+02  0.74432042175E+02  0.47000000000E+01 0.  1.
          6    1    1    2  502    0  0.77390022819E+02 -0.17311113027E+03  0.86608488825E+03  0.90312995339E+03  0.17200000000E+03 0. -1.
         -6    1    1    2    0  502 -0.77390022819E+02  0.17311113027E+03  0.23759113801E+03  0.34927099495E+03  0.17200000000E+03 0.  1.
</event>
<event>
 4    1 -0.6479440E-004  0.2051694E+03  0.7818608E-02  0.1145449E+00
         -5   -1    0    0    0  501 -0.00000000000E+00  0.00000000000E+00  0.43769360571E+03  0.43771883953E+03  0.47000000000E+01 0.  1.
          5   -1    0    0  501    0  0.00000000000E+00 -0.00000000000E+00 -0.39195247116E+03  0.39198064958E+03  0.47000000000E+01 0. -1.
          6    1    1    2  502    0 -0.55912651977E+01 -0.11171048886E+03 -0.33751462604E+03  0.39498179497E+03  0.17200000000E+03 0. -1.
         -6    1    1    2    0  502  0.55912651977E+01  0.11171048886E+03  0.38325576060E+03  0.43471769414E+03  0.17200000000E+03 0.  1.
</event>
<event>
 4    1 -0.6479440E-004  0.3016341E+03  0.7818608E-02  0.1084427E+00
          5   -1    0    0  501    0  0.00000000000E+00  0.00000000000E+00  0.30344417376E+03  0.30348057037E+03  0.47000000000E+01 0. -1.
         -5   -1    0    0    0  501 -0.00000000000E+00 -0.00000000000E+00 -0.62389154852E+03  0.62390925166E+03  0.47000000000E+01 0.  1.
          6    1    1    2  502    0 -0.20372088685E+02 -0.24694955875E+03  0.17398287010E+03  0.34821422380E+03  0.17200000000E+03 0. -1.
         -6    1    1    2    0  502  0.20372088685E+02  0.24694955875E+03 -0.49443024485E+03  0.57917559823E+03  0.17200000000E+03 0.  1.
</event>
<event>
 4    1 -0.6479440E-004  0.2504290E+03  0.7818608E-02  0.1113034E+00
         -5   -1    0    0    0  501 -0.00000000000E+00  0.00000000000E+00  0.35106884158E+03  0.35110030124E+03  0.47000000000E+01 0.  1.
          5   -1    0    0  501    0  0.00000000000E+00 -0.00000000000E+00 -0.26000769384E+03  0.26005016988E+03  0.47000000000E+01 0. -1.
          6    1    1    2  502    0 -0.16181903248E+03 -0.83338356191E+02 -0.12545951608E+03  0.28009778839E+03  0.17200000000E+03 0.  1.
         -6    1    1    2    0  502  0.16181903248E+03  0.83338356191E+02  0.21652066382E+03  0.33105268274E+03  0.17200000000E+03 0.  1.
</event>
<event>
 4    1 -0.6479440E-004  0.1820666E+03  0.7818608E-02  0.1165818E+00
          5   -1    0    0  501    0  0.00000000000E+00  0.00000000000E+00  0.72138940461E+03  0.72140471518E+03  0.47000000000E+01 0. -1.
         -5   -1    0    0    0  501 -0.00000000000E+00 -0.00000000000E+00 -0.57345943374E+02  0.57538224004E+02  0.47000000000E+01 0.  1.
          6    1    1    2  502    0  0.57803016448E+02  0.14935331234E+02  0.50631863852E+03  0.53805837652E+03  0.17200000000E+03 0. -1.
         -6    1    1    2    0  502 -0.57803016448E+02 -0.14935331234E+02  0.15772482272E+03  0.24088456267E+03  0.17200000000E+03 0.  1.
</event>
<event>
 4    1 -0.6479440E-004  0.2247460E+03  0.7818608E-02  0.1130393E+00
         -5   -1    0    0    0  501 -0.00000000000E+00  0.00000000000E+00  0.25887055992E+03  0.25891322251E+03  0.47000000000E+01 0.  1.
          5   -1    0    0  501    0  0.00000000000E+00 -0.00000000000E+00 -0.58230457305E+03  0.58232354048E+03  0.47000000000E+01 0. -1.
          6    1    1    2  502    0  0.14458847710E+03 -0.45750604284E+01 -0.50471464040E+03  0.55249219644E+03  0.17200000000E+03 0. -1.
         -6    1    1    2    0  502 -0.14458847710E+03  0.45750604284E+01  0.18128062727E+03  0.28874456655E+03  0.17200000000E+03 0.  1.
</event>
<event>
 4    1 -0.6479440E-004  0.1891551E+03  0.7818608E-02  0.1159226E+00
         -5   -1    0    0    0  501 -0.00000000000E+00  0.00000000000E+00  0.17777483558E+03  0.17783695388E+03  0.47000000000E+01 0.  1.
          5   -1    0    0  501    0  0.00000000000E+00 -0.00000000000E+00 -0.87048948733E+03  0.87050217550E+03  0.47000000000E+01 0. -1.
          6    1    1    2  502    0  0.78396259877E+02  0.70483467024E+01 -0.80597090685E+03  0.82787001120E+03  0.17200000000E+03 0. -1.
         -6    1    1    2    0  502 -0.78396259877E+02 -0.70483467024E+01  0.11325625509E+03  0.22046911818E+03  0.17200000000E+03 0.  1.
</event>
<event>
 4    1 -0.6479440E-004  0.1838209E+03  0.7818608E-02  0.1164156E+00
         -5   -1    0    0    0  501 -0.00000000000E+00  0.00000000000E+00  0.37323224409E+03  0.37326183576E+03  0.47000000000E+01 0.  1.
          5   -1    0    0  501    0  0.00000000000E+00 -0.00000000000E+00 -0.97312151240E+02  0.97425585854E+02  0.47000000000E+01 0. -1.
          6    1    1    2  502    0  0.62870507391E+02  0.15919324339E+02  0.20045576868E+03  0.27197911828E+03  0.17200000000E+03 0.  1.
         -6    1    1    2    0  502 -0.62870507391E+02 -0.15919324339E+02  0.75464324180E+02  0.19870830333E+03  0.17200000000E+03 0. -1.
</event>
<event>
 4    1 -0.6479440E-004  0.2122598E+03  0.7818608E-02  0.1139789E+00
          5   -1    0    0  501    0  0.00000000000E+00  0.00000000000E+00  0.29606932947E+04  0.29606970252E+04  0.47000000000E+01 0. -1.
         -5   -1    0    0    0  501 -0.00000000000E+00 -0.00000000000E+00 -0.17022422893E+02  0.17659356759E+02  0.47000000000E+01 0.  1.
          6    1    1    2  502    0 -0.10803205332E+03  0.61638340763E+02  0.19933496457E+04  0.20046189213E+04  0.17200000000E+03 0. -1.
         -6    1    1    2    0  502  0.10803205332E+03 -0.61638340763E+02  0.95032122604E+03  0.97373746064E+03  0.17200000000E+03 0. -1.
</event>
<event>
 4    1 -0.6479440E-004  0.1988532E+03  0.7818608E-02  0.1150710E+00
          5   -1    0    0  501    0  0.00000000000E+00  0.00000000000E+00  0.16004954389E+03  0.16011853890E+03  0.47000000000E+01 0. -1.
         -5   -1    0    0    0  501 -0.00000000000E+00 -0.00000000000E+00 -0.35701225912E+03  0.35704319509E+03  0.47000000000E+01 0.  1.
          6    1    1    2  502    0  0.29680807731E+02  0.95276682655E+02  0.45090064867E+02  0.20390122745E+03  0.17200000000E+03 0. -1.
         -6    1    1    2    0  502 -0.29680807731E+02 -0.95276682655E+02 -0.24205278009E+03  0.31326050654E+03  0.17200000000E+03 0.  1.
</event>
<event>
 4    1 -0.6479440E-004  0.2370335E+03  0.7818608E-02  0.1121785E+00
          5   -1    0    0  501    0  0.00000000000E+00  0.00000000000E+00  0.16219596246E+04  0.16219664342E+04  0.47000000000E+01 0. -1.
         -5   -1    0    0    0  501 -0.00000000000E+00 -0.00000000000E+00 -0.84133195836E+03  0.84134508625E+03  0.47000000000E+01 0.  1.
          6    1    1    2  502    0  0.99256593685E+02 -0.12941796236E+03  0.15963481009E+04  0.16138500982E+04  0.17200000000E+03 0. -1.
         -6    1    1    2    0  502 -0.99256593685E+02  0.12941796236E+03 -0.81572043466E+03  0.84946142225E+03  0.17200000000E+03 0.  1.
</event>
<event>
 4    1 -0.6479440E-004  0.2179699E+03  0.7818608E-02  0.1135406E+00
          5   -1    0    0  501    0  0.00000000000E+00  0.00000000000E+00  0.30305673335E+03  0.30309317648E+03  0.47000000000E+01 0. -1.
         -5   -1    0    0    0  501 -0.00000000000E+00 -0.00000000000E+00 -0.16224269917E+03  0.16231076192E+03  0.47000000000E+01 0.  1.
          6    1    1    2  502    0  0.12107408653E+03  0.57165923475E+02  0.11343832348E+03  0.24572165242E+03  0.17200000000E+03 0. -1.
         -6    1    1    2    0  502 -0.12107408653E+03 -0.57165923475E+02  0.27375710700E+02  0.21968228597E+03  0.17200000000E+03 0.  1.
</event>
<event>
 4    1 -0.6479440E-004  0.1818028E+03  0.7818608E-02  0.1166070E+00
          5   -1    0    0  501    0  0.00000000000E+00  0.00000000000E+00  0.57296571582E+03  0.57298499239E+03  0.47000000000E+01 0. -1.
         -5   -1    0    0    0  501 -0.00000000000E+00 -0.00000000000E+00 -0.90615611048E+02  0.90737417671E+02  0.47000000000E+01 0.  1.
          6    1    1    2  502    0  0.44515782232E+02 -0.38556349880E+02  0.44138654792E+03  0.47736184563E+03  0.17200000000E+03 0. -1.
         -6    1    1    2    0  502 -0.44515782232E+02  0.38556349880E+02  0.40963556855E+02  0.18636056443E+03  0.17200000000E+03 0.  1.
</event>
<event>
 4    1 -0.6479440E-004  0.1813529E+03  0.7818608E-02  0.1166500E+00
          5   -1    0    0  501    0  0.00000000000E+00  0.00000000000E+00  0.73641356971E+02  0.73791188203E+02  0.47000000000E+01 0. -1.
         -5   -1    0    0    0  501 -0.00000000000E+00 -0.00000000000E+00 -0.88197810272E+03  0.88199062562E+03  0.47000000000E+01 0.  1.
          6    1    1    2  502    0  0.57487891421E+02 -0.15413309446E-01 -0.68203016832E+02  0.19375373391E+03  0.17200000000E+03 0. -1.
         -6    1    1    2    0  502 -0.57487891421E+02  0.15413309446E-01 -0.74013372892E+03  0.76202807992E+03  0.17200000000E+03 0.  1.
</event>
<event>
 4    1 -0.6479440E-004  0.1802061E+03  0.7818608E-02  0.1167604E+00
          5   -1    0    0  501    0  0.00000000000E+00  0.00000000000E+00  0.23338661660E+03  0.23343393671E+03  0.47000000000E+01 0. -1.
         -5   -1    0    0    0  501 -0.00000000000E+00 -0.00000000000E+00 -0.28870063663E+03  0.28873889172E+03  0.47000000000E+01 0.  1.
          6    1    1    2  502    0 -0.34507613097E+02 -0.41224384603E+02  0.16028806979E+03  0.24117730110E+03  0.17200000000E+03 0. -1.
         -6    1    1    2    0  502  0.34507613097E+02  0.41224384603E+02 -0.21560208981E+03  0.28099552733E+03  0.17200000000E+03 0.  1.
</event>
<event>
 4    1 -0.6479440E-004  0.1843382E+03  0.7818608E-02  0.1163669E+00
          5   -1    0    0  501    0  0.00000000000E+00  0.00000000000E+00  0.46171929436E+03  0.46174321520E+03  0.47000000000E+01 0. -1.
         -5   -1    0    0    0  501 -0.00000000000E+00 -0.00000000000E+00 -0.32883926043E+03  0.32887284655E+03  0.47000000000E+01 0.  1.
          6    1    1    2  502    0  0.61324526033E+01 -0.66022411492E+02  0.41472163625E+03  0.45384424792E+03  0.17200000000E+03 0. -1.
         -6    1    1    2    0  502 -0.61324526033E+01  0.66022411492E+02 -0.28184160232E+03  0.33677181383E+03  0.17200000000E+03 0.  1.
</event>
<event>
 4    1 -0.6479440E-004  0.2206085E+03  0.7818608E-02  0.1133430E+00
         -5   -1    0    0    0  501 -0.00000000000E+00  0.00000000000E+00  0.37136899997E+03  0.37139874009E+03  0.47000000000E+01 0.  1.
          5   -1    0    0  501    0  0.00000000000E+00 -0.00000000000E+00 -0.97397577147E+03  0.97398711152E+03  0.47000000000E+01 0. -1.
          6    1    1    2  502    0 -0.93503734333E+02 -0.10169149544E+03 -0.92710962590E+03  0.95299547062E+03  0.17200000000E+03 0. -1.
         -6    1    1    2    0  502  0.93503734333E+02  0.10169149544E+03  0.32450285440E+03  0.39239038099E+03  0.17200000000E+03 0.  1.
</event>
<event>
 4    1 -0.6479440E-004  0.2055238E+03  0.7818608E-02  0.1145161E+00
          5   -1    0    0  501    0  0.00000000000E+00  0.00000000000E+00  0.67623645321E+03  0.67625278606E+03  0.47000000000E+01 0. -1.
         -5   -1    0    0    0  501 -0.00000000000E+00 -0.00000000000E+00 -0.82207873951E+02  0.82342118868E+02  0.47000000000E+01 0.  1.
          6    1    1    2  502    0 -0.10329024702E+03 -0.44577449015E+02  0.48320152333E+03  0.52509402609E+03  0.17200000000E+03 0. -1.
         -6    1    1    2    0  502  0.10329024702E+03  0.44577449015E+02  0.11082705593E+03  0.23350087883E+03  0.17200000000E+03 0.  1.
</event>
<event>
 4    1 -0.6479440E-004  0.1731168E+03  0.7818608E-02  0.1174636E+00
         -5   -1    0    0    0  501 -0.00000000000E+00  0.00000000000E+00  0.35076292783E+03  0.35079441492E+03  0.47000000000E+01 0.  1.
          5   -1    0    0  501    0  0.00000000000E+00 -0.00000000000E+00 -0.11296679834E+03  0.11306452816E+03  0.47000000000E+01 0. -1.
          6    1    1    2  502    0  0.18243975557E+02 -0.72513807583E+01  0.42777234065E+01  0.17316963962E+03  0.17200000000E+03 0. -1.
         -6    1    1    2    0  502 -0.18243975557E+02  0.72513807583E+01  0.23351840608E+03  0.29068930346E+03  0.17200000000E+03 0.  1.
</event>
<event>
 4    1 -0.6479440E-004  0.2279800E+03  0.7818608E-02  0.1128070E+00
         -5   -1    0    0    0  501 -0.00000000000E+00  0.00000000000E+00  0.16641715876E+04  0.16641782246E+04  0.47000000000E+01 0.  1.
          5   -1    0    0  501    0  0.00000000000E+00 -0.00000000000E+00 -0.61198979241E+02  0.61379190774E+02  0.47000000000E+01 0. -1.
          6    1    1    2  502    0 -0.64587574297E+02  0.13497905204E+03  0.19724784567E+03  0.30146577230E+03  0.17200000000E+03 0. -1.
         -6    1    1    2    0  502  0.64587574297E+02 -0.13497905204E+03  0.14057247627E+04  0.14240916430E+04  0.17200000000E+03 0.  1.
</event>
<event>
 4    1 -0.6479440E-004  0.1753695E+03  0.7818608E-02  0.1172361E+00
         -5   -1    0    0    0  501 -0.00000000000E+00  0.00000000000E+00  0.11846224202E+03  0.11855544181E+03  0.47000000000E+01 0.  1.
          5   -1    0    0  501    0  0.00000000000E+00 -0.00000000000E+00 -0.26429197271E+03  0.26433376031E+03  0.47000000000E+01 0. -1.
          6    1    1    2  502    0  0.27292210097E+02  0.20630261235E+02 -0.98960834158E+02  0.20136464215E+03  0.17200000000E+03 0. -1.
         -6    1    1    2    0  502 -0.27292210097E+02 -0.20630261235E+02 -0.46868896531E+02  0.18152455997E+03  0.17200000000E+03 0.  1.
</event>
<event>
 4    1 -0.6479440E-004  0.1778519E+03  0.7818608E-02  0.1169898E+00
          5   -1    0    0  501    0  0.00000000000E+00  0.00000000000E+00  0.49179753285E+02  0.49403827111E+02  0.47000000000E+01 0. -1.
         -5   -1    0    0    0  501 -0.00000000000E+00 -0.00000000000E+00 -0.70204321536E+03  0.70205894783E+03  0.47000000000E+01 0.  1.
          6    1    1    2  502    0 -0.44400928476E+02 -0.87105180362E+01 -0.21609633232E+03  0.27987307912E+03  0.17200000000E+03 0. -1.
         -6    1    1    2    0  502  0.44400928476E+02  0.87105180362E+01 -0.43676712975E+03  0.47158969582E+03  0.17200000000E+03 0.  1.
</event>
<event>
 4    1 -0.6479440E-004  0.1985210E+03  0.7818608E-02  0.1150993E+00
          5   -1    0    0  501    0  0.00000000000E+00  0.00000000000E+00  0.10889114311E+04  0.10889215742E+04  0.47000000000E+01 0. -1.
         -5   -1    0    0    0  501 -0.00000000000E+00 -0.00000000000E+00 -0.85496379745E+02  0.85625469046E+02  0.47000000000E+01 0.  1.
          6    1    1    2  502    0 -0.22595125768E+02  0.96519671728E+02  0.94782197019E+03  0.96838890633E+03  0.17200000000E+03 0. -1.
         -6    1    1    2    0  502  0.22595125768E+02 -0.96519671728E+02  0.55593081145E+02  0.20615813690E+03  0.17200000000E+03 0.  1.
</event>
<event>
 4    1 -0.6479440E-004  0.2316543E+03  0.7818608E-02  0.1125481E+00
          5   -1    0    0  501    0  0.00000000000E+00  0.00000000000E+00  0.28747937133E+03  0.28751778891E+03  0.47000000000E+01 0. -1.
         -5   -1    0    0    0  501 -0.00000000000E+00 -0.00000000000E+00 -0.26094023219E+03  0.26098255646E+03  0.47000000000E+01 0.  1.
          6    1    1    2  502    0  0.14689587177E+03  0.50013013743E+02  0.15963736545E+03  0.28133216513E+03  0.17200000000E+03 0. -1.
         -6    1    1    2    0  502 -0.14689587177E+03 -0.50013013743E+02 -0.13309822632E+03  0.26716818024E+03  0.17200000000E+03 0.  1.
</event>
<event>
 4    1 -0.6479440E-004  0.1884414E+03  0.7818608E-02  0.1159875E+00
         -5   -1    0    0    0  501 -0.00000000000E+00  0.00000000000E+00  0.90502210339E+03  0.90503430743E+03  0.47000000000E+01 0.  1.
          5   -1    0    0  501    0  0.00000000000E+00 -0.00000000000E+00 -0.12962149679E+03  0.12970667843E+03  0.47000000000E+01 0. -1.
          6    1    1    2  502    0  0.56515071149E+02 -0.52270517203E+02 -0.44366685060E+02  0.19359380925E+03  0.17200000000E+03 0. -1.
         -6    1    1    2    0  502 -0.56515071149E+02  0.52270517203E+02  0.81976729166E+03  0.84114717661E+03  0.17200000000E+03 0.  1.
</event>
<event>
 4    1 -0.6479440E-004  0.2070455E+03  0.7818608E-02  0.1143927E+00
          5   -1    0    0  501    0  0.00000000000E+00  0.00000000000E+00  0.48376796074E+03  0.48379079140E+03  0.47000000000E+01 0. -1.
         -5   -1    0    0    0  501 -0.00000000000E+00 -0.00000000000E+00 -0.17979123518E+03  0.17985265705E+03  0.47000000000E+01 0.  1.
          6    1    1    2  502    0  0.53177205300E+02 -0.10225474079E+03  0.38832733258E+03  0.44007495317E+03  0.17200000000E+03 0. -1.
         -6    1    1    2    0  502 -0.53177205300E+02  0.10225474079E+03 -0.84350607018E+02  0.22356849528E+03  0.17200000000E+03 0.  1.
</event>
<event>
 4    1 -0.6479440E-004  0.1750067E+03  0.7818608E-02  0.1172725E+00
          5   -1    0    0  501    0  0.00000000000E+00  0.00000000000E+00  0.99263732162E+03  0.99264844849E+03  0.47000000000E+01 0. -1.
         -5   -1    0    0    0  501 -0.00000000000E+00 -0.00000000000E+00 -0.59836188379E+02  0.60020491832E+02  0.47000000000E+01 0.  1.
          6    1    1    2  502    0  0.30678071362E+02  0.10109428124E+02  0.83304140096E+03  0.85122577517E+03  0.17200000000E+03 0. -1.
         -6    1    1    2    0  502 -0.30678071362E+02 -0.10109428124E+02  0.99759732286E+02  0.20144316515E+03  0.17200000000E+03 0.  1.
</event>
<event>
 4    1 -0.6479440E-004  0.1794426E+03  0.7818608E-02  0.1168344E+00
          5   -1    0    0  501    0  0.00000000000E+00  0.00000000000E+00  0.72256864849E+02  0.72409560956E+02  0.47000000000E+01 0. -1.
         -5   -1    0    0    0  501 -0.00000000000E+00 -0.00000000000E+00 -0.82569207304E+03  0.82570544959E+03  0.47000000000E+01 0.  1.
          6    1    1    2  502    0 -0.42649591476E+02 -0.28225335192E+02 -0.71830467233E+02  0.19328547080E+03  0.17200000000E+03 0. -1.
         -6    1    1    2    0  502  0.42649591476E+02  0.28225335192E+02 -0.68160474095E+03  0.70482953974E+03  0.17200000000E+03 0.  1.
</event>
<event>
 4    1 -0.6479440E-004  0.1952185E+03  0.7818608E-02  0.1153837E+00
         -5   -1    0    0    0  501 -0.00000000000E+00  0.00000000000E+00  0.22049623205E+04  0.22049673297E+04  0.47000000000E+01 0.  1.
          5   -1    0    0  501    0  0.00000000000E+00 -0.00000000000E+00 -0.17709416213E+02  0.18322484073E+02  0.47000000000E+01 0. -1.
          6    1    1    2  502    0  0.88555275766E+02  0.26157424236E+02  0.86879987003E+03  0.89046249885E+03  0.17200000000E+03 0. -1.
         -6    1    1    2    0  502 -0.88555275766E+02 -0.26157424236E+02  0.13184530343E+04  0.13328273149E+04  0.17200000000E+03 0.  1.
</event>
<event>
 4    1 -0.6479440E-004  0.2287713E+03  0.7818608E-02  0.1127508E+00
         -5   -1    0    0    0  501 -0.00000000000E+00  0.00000000000E+00  0.11578376323E+03  0.11587911731E+03  0.47000000000E+01 0.  1.
          5   -1    0    0  501    0  0.00000000000E+00 -0.00000000000E+00 -0.10719490374E+04  0.10719593410E+04  0.47000000000E+01 0. -1.
          6    1    1    2  502    0 -0.10737850387E+03  0.10593468689E+03 -0.92982636775E+03  0.95755593839E+03  0.17200000000E+03 0. -1.
         -6    1    1    2    0  502  0.10737850387E+03 -0.10593468689E+03 -0.26338906382E+02  0.23028251989E+03  0.17200000000E+03 0.  1.
</event>
<event>
 4    1 -0.6479440E-004  0.1895858E+03  0.7818608E-02  0.1158835E+00
         -5   -1    0    0    0  501 -0.00000000000E+00  0.00000000000E+00  0.60953691735E+03  0.60955503739E+03  0.47000000000E+01 0.  1.
          5   -1    0    0  501    0  0.00000000000E+00 -0.00000000000E+00 -0.14451289889E+03  0.14458930785E+03  0.47000000000E+01 0. -1.
          6    1    1    2  502    0  0.10950820217E+01 -0.79734476276E+02 -0.57643205154E+02  0.19815530528E+03  0.17200000000E+03 0. -1.
         -6    1    1    2    0  502 -0.10950820217E+01  0.79734476276E+02  0.52266722361E+03  0.55598903996E+03  0.17200000000E+03 0.  1.
</event>
<event>
 4    1 -0.6479440E-004  0.1858699E+03  0.7818608E-02  0.1162240E+00
         -5   -1    0    0    0  501 -0.00000000000E+00  0.00000000000E+00  0.37229190253E+02  0.37524693295E+02  0.47000000000E+01 0.  1.
          5   -1    0    0  501    0  0.00000000000E+00 -0.00000000000E+00 -0.12314183904E+04  0.12314273597E+04  0.47000000000E+01 0. -1.
          6    1    1    2  502    0 -0.18437210726E+02 -0.67997821371E+02 -0.91406742177E+03  0.93277375928E+03  0.17200000000E+03 0.  1.
         -6    1    1    2    0  502  0.18437210726E+02  0.67997821371E+02 -0.28012177841E+03  0.33617829375E+03  0.17200000000E+03 0. -1.
</event>
<event>
 4    1 -0.6479440E-004  0.2206251E+03  0.7818608E-02  0.1133418E+00
          5   -1    0    0  501    0  0.00000000000E+00  0.00000000000E+00  0.33121522752E+03  0.33124857273E+03  0.47000000000E+01 0. -1.
         -5   -1    0    0    0  501 -0.00000000000E+00 -0.00000000000E+00 -0.21766118482E+03  0.21771192291E+03  0.47000000000E+01 0.  1.
          6    1    1    2  502    0  0.36604694627E+02  0.13323486893E+03  0.21326390095E+03  0.30685000475E+03  0.17200000000E+03 0. -1.
         -6    1    1    2    0  502 -0.36604694627E+02 -0.13323486893E+03 -0.99709858260E+02  0.24211049090E+03  0.17200000000E+03 0.  1.
</event>
<event>
 4    1 -0.6479440E-004  0.2721996E+03  0.7818608E-02  0.1100027E+00
         -5   -1    0    0    0  501 -0.00000000000E+00  0.00000000000E+00  0.68125380168E+03  0.68127001424E+03  0.47000000000E+01 0.  1.
          5   -1    0    0  501    0  0.00000000000E+00 -0.00000000000E+00 -0.11063262497E+03  0.11073241490E+03  0.47000000000E+01 0. -1.
          6    1    1    2  502    0 -0.16011540145E+03  0.13737420867E+03  0.23287583863E+03  0.35822307465E+03  0.17200000000E+03 0. -1.
         -6    1    1    2    0  502  0.16011540145E+03 -0.13737420867E+03  0.33774533808E+03  0.43377935449E+03  0.17200000000E+03 0.  1.
</event>
<event>
 4    1 -0.6479440E-004  0.2409358E+03  0.7818608E-02  0.1119171E+00
          5   -1    0    0  501    0  0.00000000000E+00  0.00000000000E+00  0.10480350169E+03  0.10490883645E+03  0.47000000000E+01 0. -1.
         -5   -1    0    0    0  501 -0.00000000000E+00 -0.00000000000E+00 -0.10843306207E+04  0.10843408067E+04  0.47000000000E+01 0.  1.
          6    1    1    2  502    0  0.36661411589E+02  0.16468756021E+03 -0.73742065140E+02  0.25196814036E+03  0.17200000000E+03 0. -1.
         -6    1    1    2    0  502 -0.36661411589E+02 -0.16468756021E+03 -0.90578505390E+03  0.93728150278E+03  0.17200000000E+03 0.  1.
</event>
<event>
 4    1 -0.6479440E-004  0.1836421E+03  0.7818608E-02  0.1164324E+00
         -5   -1    0    0    0  501 -0.00000000000E+00  0.00000000000E+00  0.13006292355E+03  0.13014781628E+03  0.47000000000E+01 0.  1.
          5   -1    0    0  501    0  0.00000000000E+00 -0.00000000000E+00 -0.39619615455E+03  0.39622403117E+03  0.47000000000E+01 0. -1.
          6    1    1    2  502    0  0.45665393401E+02  0.45332981458E+02 -0.28785943899E+03  0.34144906499E+03  0.17200000000E+03 0. -1.
         -6    1    1    2    0  502 -0.45665393401E+02 -0.45332981458E+02  0.21726207999E+02  0.18492278247E+03  0.17200000000E+03 0.  1.
</event>
<event>
 4    1 -0.6479440E-004  0.2491568E+03  0.7818608E-02  0.1113839E+00
         -5   -1    0    0    0  501 -0.00000000000E+00  0.00000000000E+00  0.15553757679E+04  0.15553828690E+04  0.47000000000E+01 0.  1.
          5   -1    0    0  501    0  0.00000000000E+00 -0.00000000000E+00 -0.97931307424E+02  0.98044025691E+02  0.47000000000E+01 0. -1.
          6    1    1    2  502    0  0.16701360992E+03 -0.67834736388E+02  0.92256108679E+02  0.26568832671E+03  0.17200000000E+03 0. -1.
         -6    1    1    2    0  502 -0.16701360992E+03  0.67834736388E+02  0.13651883518E+04  0.13877385680E+04  0.17200000000E+03 0.  1.
</event>
<event>
 4    1 -0.6479440E-004  0.1972130E+03  0.7818608E-02  0.1152112E+00
          5   -1    0    0  501    0  0.00000000000E+00  0.00000000000E+00  0.13157746080E+04  0.13157830023E+04  0.47000000000E+01 0. -1.
         -5   -1    0    0    0  501 -0.00000000000E+00 -0.00000000000E+00 -0.16255089901E+03  0.16261883276E+03  0.47000000000E+01 0.  1.
          6    1    1    2  502    0 -0.62589864448E+02 -0.73426626427E+02  0.12452530912E+04  0.12607728669E+04  0.17200000000E+03 0. -1.
         -6    1    1    2    0  502  0.62589864448E+02  0.73426626427E+02 -0.92029382225E+02  0.21762896818E+03  0.17200000000E+03 0.  1.
</event>
<event>
 4    1 -0.6479440E-004  0.3249412E+03  0.7818608E-02  0.1073397E+00
         -5   -1    0    0    0  501 -0.00000000000E+00  0.00000000000E+00  0.29021734065E+03  0.29025539584E+03  0.47000000000E+01 0.  1.
          5   -1    0    0  501    0  0.00000000000E+00 -0.00000000000E+00 -0.63639629644E+03  0.63641365175E+03  0.47000000000E+01 0. -1.
          6    1    1    2  502    0  0.25601761963E+03  0.10226313767E+03 -0.47634969483E+03  0.57662449015E+03  0.17200000000E+03 0. -1.
         -6    1    1    2    0  502 -0.25601761963E+03 -0.10226313767E+03  0.13017073903E+03  0.35004455743E+03  0.17200000000E+03 0.  1.
</event>
<event>
 4    1 -0.6479440E-004  0.4272767E+03  0.7818608E-02  0.1034724E+00
          5   -1    0    0  501    0  0.00000000000E+00  0.00000000000E+00  0.23925008859E+03  0.23929624922E+03  0.47000000000E+01 0. -1.
         -5   -1    0    0    0  501 -0.00000000000E+00 -0.00000000000E+00 -0.14604741732E+04  0.14604817358E+04  0.47000000000E+01 0.  1.
          6    1    1    2  502    0 -0.25524185289E+03  0.29636629026E+03 -0.23274837268E+02  0.42791015356E+03  0.17200000000E+03 0. -1.
         -6    1    1    2    0  502  0.25524185289E+03 -0.29636629026E+03 -0.11979492473E+04  0.12718678314E+04  0.17200000000E+03 0.  1.
</event>
<event>
 4    1 -0.6479440E-004  0.1878114E+03  0.7818608E-02  0.1160450E+00
         -5   -1    0    0    0  501 -0.00000000000E+00  0.00000000000E+00  0.61695165799E+03  0.61696956027E+03  0.47000000000E+01 0.  1.
          5   -1    0    0  501    0  0.00000000000E+00 -0.00000000000E+00 -0.12875438209E+04  0.12875523992E+04  0.47000000000E+01 0. -1.
          6    1    1    2  502    0  0.72327149405E+02 -0.21398754985E+02 -0.12661751594E+04  0.12800283815E+04  0.17200000000E+03 0. -1.
         -6    1    1    2    0  502 -0.72327149405E+02  0.21398754985E+02  0.59558299646E+03  0.62449357798E+03  0.17200000000E+03 0.  1.
</event>
<event>
 4    1 -0.6479440E-004  0.2816102E+03  0.7818608E-02  0.1094813E+00
          5   -1    0    0  501    0  0.00000000000E+00  0.00000000000E+00  0.12957553391E+03  0.12966074575E+03  0.47000000000E+01 0. -1.
         -5   -1    0    0    0  501 -0.00000000000E+00 -0.00000000000E+00 -0.85260725517E+03  0.85262020946E+03  0.47000000000E+01 0.  1.
          6    1    1    2  502    0  0.22297737895E+03  0.11734654701E+01 -0.10048123574E+03  0.29899961084E+03  0.17200000000E+03 0. -1.
         -6    1    1    2    0  502 -0.22297737895E+03 -0.11734654701E+01 -0.62255048552E+03  0.68328134437E+03  0.17200000000E+03 0.  1.
</event>
<event>
 4    1 -0.6479440E-004  0.2124213E+03  0.7818608E-02  0.1139663E+00
         -5   -1    0    0    0  501 -0.00000000000E+00  0.00000000000E+00  0.15448421526E+03  0.15455569470E+03  0.47000000000E+01 0.  1.
          5   -1    0    0  501    0  0.00000000000E+00 -0.00000000000E+00 -0.36537078186E+03  0.36540101017E+03  0.47000000000E+01 0. -1.
          6    1    1    2  502    0  0.26588120105E+02  0.12178628779E+03 -0.22198438281E+03  0.30724565779E+03  0.17200000000E+03 0.  1.
         -6    1    1    2    0  502 -0.26588120105E+02 -0.12178628779E+03  0.11097816207E+02  0.21271104708E+03  0.17200000000E+03 0.  1.
</event>
<event>
 4    1 -0.6479440E-004  0.1744091E+03  0.7818608E-02  0.1173326E+00
         -5   -1    0    0    0  501 -0.00000000000E+00  0.00000000000E+00  0.56273308797E+02  0.56469241919E+02  0.47000000000E+01 0.  1.
          5   -1    0    0  501    0  0.00000000000E+00 -0.00000000000E+00 -0.56518515091E+03  0.56520469284E+03  0.47000000000E+01 0. -1.
          6    1    1    2  502    0  0.45408997114E+00 -0.28884619612E+02 -0.32083077049E+03  0.36517243973E+03  0.17200000000E+03 0. -1.
         -6    1    1    2    0  502 -0.45408997114E+00  0.28884619612E+02 -0.18808107163E+03  0.25650149503E+03  0.17200000000E+03 0.  1.
</event>
<event>
 4    1 -0.6479440E-004  0.1787465E+03  0.7818608E-02  0.1169022E+00
         -5   -1    0    0    0  501 -0.00000000000E+00  0.00000000000E+00  0.18307120726E+02  0.18900811339E+02  0.47000000000E+01 0.  1.
          5   -1    0    0  501    0  0.00000000000E+00 -0.00000000000E+00 -0.17685703101E+04  0.17685765553E+04  0.47000000000E+01 0. -1.
          6    1    1    2  502    0  0.46078048615E+02  0.15592092852E+02 -0.10280245463E+04  0.10434484979E+04  0.17200000000E+03 0.  1.
         -6    1    1    2    0  502 -0.46078048615E+02 -0.15592092852E+02 -0.72223864307E+03  0.74402886871E+03  0.17200000000E+03 0.  1.
</event>
<event>
 4    1 -0.6479440E-004  0.2107260E+03  0.7818608E-02  0.1140992E+00
         -5   -1    0    0    0  501 -0.00000000000E+00  0.00000000000E+00  0.95805039609E+03  0.95806192464E+03  0.47000000000E+01 0.  1.
          5   -1    0    0  501    0  0.00000000000E+00 -0.00000000000E+00 -0.19253678156E+03  0.19259413868E+03  0.47000000000E+01 0. -1.
          6    1    1    2  502    0 -0.10289295298E+03  0.65073020877E+02 -0.11857792953E+03  0.24179781470E+03  0.17200000000E+03 0. -1.
         -6    1    1    2    0  502  0.10289295298E+03 -0.65073020877E+02  0.88409154406E+03  0.90885824863E+03  0.17200000000E+03 0.  1.
</event>
<event>
 4    1 -0.6479440E-004  0.2476904E+03  0.7818608E-02  0.1114773E+00
          5   -1    0    0  501    0  0.00000000000E+00  0.00000000000E+00  0.29037270829E+03  0.29041074312E+03  0.47000000000E+01 0. -1.
         -5   -1    0    0    0  501 -0.00000000000E+00 -0.00000000000E+00 -0.13607235682E+04  0.13607316852E+04  0.47000000000E+01 0.  1.
          6    1    1    2  502    0 -0.16823811464E+03  0.58842645982E+02  0.22360634351E+03  0.33369194935E+03  0.17200000000E+03 0. -1.
         -6    1    1    2    0  502  0.16823811464E+03 -0.58842645982E+02 -0.12939572034E+04  0.13174504789E+04  0.17200000000E+03 0.  1.
</event>
<event>
 4    1 -0.6479440E-004  0.2985414E+03  0.7818608E-02  0.1085972E+00
          5   -1    0    0  501    0  0.00000000000E+00  0.00000000000E+00  0.49851149306E+03  0.49853364853E+03  0.47000000000E+01 0. -1.
         -5   -1    0    0    0  501 -0.00000000000E+00 -0.00000000000E+00 -0.11867052015E+04  0.11867145088E+04  0.47000000000E+01 0.  1.
          6    1    1    2  502    0  0.74053933160E+02 -0.23250593139E+03  0.43246665123E+03  0.52550394630E+03  0.17200000000E+03 0. -1.
         -6    1    1    2    0  502 -0.74053933160E+02  0.23250593139E+03 -0.11206603597E+04  0.11597442110E+04  0.17200000000E+03 0.  1.
</event>
<event>
 4    1 -0.6479440E-004  0.1750410E+03  0.7818608E-02  0.1172690E+00
          5   -1    0    0  501    0  0.00000000000E+00  0.00000000000E+00  0.34082661074E+03  0.34085901571E+03  0.47000000000E+01 0. -1.
         -5   -1    0    0    0  501 -0.00000000000E+00 -0.00000000000E+00 -0.18577158214E+03  0.18583102737E+03  0.47000000000E+01 0.  1.
          6    1    1    2  502    0 -0.31070708574E+02 -0.94857644191E+01  0.26674637555E+03  0.31905014892E+03  0.17200000000E+03 0. -1.
         -6    1    1    2    0  502  0.31070708574E+02  0.94857644191E+01 -0.11169134696E+03  0.20763989415E+03  0.17200000000E+03 0.  1.
</event>
<event>
 4    1 -0.6479440E-004  0.1844287E+03  0.7818608E-02  0.1163584E+00
          5   -1    0    0  501    0  0.00000000000E+00  0.00000000000E+00  0.18116918623E+04  0.18116979588E+04  0.47000000000E+01 0. -1.
         -5   -1    0    0    0  501 -0.00000000000E+00 -0.00000000000E+00 -0.86647806979E+02  0.86775183401E+02  0.47000000000E+01 0.  1.
          6    1    1    2  502    0  0.31622196511E+02 -0.58566031460E+02  0.17027420400E+04  0.17127009073E+04  0.17200000000E+03 0. -1.
         -6    1    1    2    0  502 -0.31622196511E+02  0.58566031460E+02  0.22302015349E+02  0.18577223485E+03  0.17200000000E+03 0.  1.
</event>
<event>
 4    1 -0.6479440E-004  0.2618512E+03  0.7818608E-02  0.1106036E+00
          5   -1    0    0  501    0  0.00000000000E+00  0.00000000000E+00  0.21038451286E+03  0.21043700542E+03  0.47000000000E+01 0. -1.
         -5   -1    0    0    0  501 -0.00000000000E+00 -0.00000000000E+00 -0.61441302075E+03  0.61443099699E+03  0.47000000000E+01 0.  1.
          6    1    1    2  502    0 -0.16120585776E+03 -0.11399444071E+03  0.80640205795E+02  0.27398705057E+03  0.17200000000E+03 0. -1.
         -6    1    1    2    0  502  0.16120585776E+03  0.11399444071E+03 -0.48466871368E+03  0.55088095185E+03  0.17200000000E+03 0.  1.
</event>
<event>
 4    1 -0.6479440E-004  0.1933906E+03  0.7818608E-02  0.1155438E+00
          5   -1    0    0  501    0  0.00000000000E+00  0.00000000000E+00  0.65274040379E+02  0.65443031313E+02  0.47000000000E+01 0. -1.
         -5   -1    0    0    0  501 -0.00000000000E+00 -0.00000000000E+00 -0.15424781411E+04  0.15424853016E+04  0.47000000000E+01 0.  1.
          6    1    1    2  502    0  0.53116948028E+02 -0.70671995493E+02 -0.10095036119E+03  0.21815342431E+03  0.17200000000E+03 0. -1.
         -6    1    1    2    0  502 -0.53116948028E+02  0.70671995493E+02 -0.13762537395E+04  0.13897749086E+04  0.17200000000E+03 0.  1.
</event>
<event>
 4    1 -0.6479440E-004  0.2504208E+03  0.7818608E-02  0.1113039E+00
          5   -1    0    0  501    0  0.00000000000E+00  0.00000000000E+00  0.65359287082E+03  0.65360976950E+03  0.47000000000E+01 0. -1.
         -5   -1    0    0    0  501 -0.00000000000E+00 -0.00000000000E+00 -0.10165268282E+03  0.10176127910E+03  0.47000000000E+01 0.  1.
          6    1    1    2  502    0 -0.84384000159E+02 -0.16126344750E+03  0.36598115185E+03  0.44345547972E+03  0.17200000000E+03 0. -1.
         -6    1    1    2    0  502  0.84384000159E+02  0.16126344750E+03  0.18595903615E+03  0.31191556888E+03  0.17200000000E+03 0.  1.
</event>
<event>
 4    1 -0.6479440E-004  0.1770792E+03  0.7818608E-02  0.1170660E+00
          5   -1    0    0  501    0  0.00000000000E+00  0.00000000000E+00  0.34958328304E+03  0.34961487638E+03  0.47000000000E+01 0. -1.
         -5   -1    0    0    0  501 -0.00000000000E+00 -0.00000000000E+00 -0.10117464821E+03  0.10128375704E+03  0.47000000000E+01 0.  1.
          6    1    1    2  502    0 -0.20552730487E+02  0.36750870654E+02  0.20039982908E+03  0.26742687359E+03  0.17200000000E+03 0. -1.
         -6    1    1    2    0  502  0.20552730487E+02 -0.36750870654E+02  0.48008805754E+02  0.18347175983E+03  0.17200000000E+03 0.  1.
</event>
<event>
 4    1 -0.6479440E-004  0.1811779E+03  0.7818608E-02  0.1166668E+00
          5   -1    0    0  501    0  0.00000000000E+00  0.00000000000E+00  0.19415847344E+03  0.19421535163E+03  0.47000000000E+01 0. -1.
         -5   -1    0    0    0  501 -0.00000000000E+00 -0.00000000000E+00 -0.38549790339E+03  0.38552655358E+03  0.47000000000E+01 0.  1.
          6    1    1    2  502    0 -0.23378854013E+02 -0.51912092223E+02  0.12155603771E+03  0.21817723629E+03  0.17200000000E+03 0. -1.
         -6    1    1    2    0  502  0.23378854013E+02  0.51912092223E+02 -0.31289546765E+03  0.36156466892E+03  0.17200000000E+03 0.  1.
</event>
<event>
 4    1 -0.6479440E-004  0.3002246E+03  0.7818608E-02  0.1085128E+00
          5   -1    0    0  501    0  0.00000000000E+00  0.00000000000E+00  0.60858787614E+03  0.60860602444E+03  0.47000000000E+01 0. -1.
         -5   -1    0    0    0  501 -0.00000000000E+00 -0.00000000000E+00 -0.24860472799E+03  0.24864915198E+03  0.47000000000E+01 0.  1.
          6    1    1    2  502    0  0.21064407261E+03 -0.12720020316E+03  0.45255331836E+03  0.54308316395E+03  0.17200000000E+03 0. -1.
         -6    1    1    2    0  502 -0.21064407261E+03  0.12720020316E+03 -0.92570170203E+02  0.31417201247E+03  0.17200000000E+03 0.  1.
</event>
<event>
 4    1 -0.6479440E-004  0.1927187E+03  0.7818608E-02  0.1156032E+00
         -5   -1    0    0    0  501 -0.00000000000E+00  0.00000000000E+00  0.16524642728E+04  0.16524709567E+04  0.47000000000E+01 0.  1.
          5   -1    0    0  501    0  0.00000000000E+00 -0.00000000000E+00 -0.51773808001E+02  0.51986702097E+02  0.47000000000E+01 0. -1.
          6    1    1    2  502    0 -0.34891565182E+02  0.79618279236E+02  0.15871724855E+03  0.24966308637E+03  0.17200000000E+03 0. -1.
         -6    1    1    2    0  502  0.34891565182E+02 -0.79618279236E+02  0.14419732162E+04  0.14547945725E+04  0.17200000000E+03 0.  1.
</event>
<event>
 4    1 -0.6479440E-004  0.1754744E+03  0.7818608E-02  0.1172256E+00
          5   -1    0    0  501    0  0.00000000000E+00  0.00000000000E+00  0.68286988165E+02  0.68448540910E+02  0.47000000000E+01 0. -1.
         -5   -1    0    0    0  501 -0.00000000000E+00 -0.00000000000E+00 -0.45040792980E+03  0.45043245134E+03  0.47000000000E+01 0.  1.
          6    1    1    2  502    0  0.26826557992E+02  0.22082044679E+02 -0.19658864256E+03  0.26351162270E+03  0.17200000000E+03 0. -1.
         -6    1    1    2    0  502 -0.26826557992E+02 -0.22082044679E+02 -0.18553229907E+03  0.25536936956E+03  0.17200000000E+03 0.  1.
</event>
<event>
 4    1 -0.6479440E-004  0.1842344E+03  0.7818608E-02  0.1163767E+00
         -5   -1    0    0    0  501 -0.00000000000E+00  0.00000000000E+00  0.16148741987E+03  0.16155580081E+03  0.47000000000E+01 0.  1.
          5   -1    0    0  501    0  0.00000000000E+00 -0.00000000000E+00 -0.33090130196E+03  0.33093467881E+03  0.47000000000E+01 0. -1.
          6    1    1    2  502    0  0.65379291966E+02  0.91578621360E+01 -0.23349831041E+03  0.29742861197E+03  0.17200000000E+03 0. -1.
         -6    1    1    2    0  502 -0.65379291966E+02 -0.91578621360E+01  0.64084428322E+02  0.19506186765E+03  0.17200000000E+03 0.  1.
</event>
<event>
 4    1 -0.6479440E-004  0.1795757E+03  0.7818608E-02  0.1168214E+00
         -5   -1    0    0    0  501 -0.00000000000E+00  0.00000000000E+00  0.63439707117E+03  0.63441448116E+03  0.47000000000E+01 0.  1.
          5   -1    0    0  501    0  0.00000000000E+00 -0.00000000000E+00 -0.17687754275E+03  0.17693997606E+03  0.47000000000E+01 0. -1.
          6    1    1    2  502    0 -0.13315467969E+02 -0.49861172952E+02 -0.11371922381E+03  0.21255469912E+03  0.17200000000E+03 0. -1.
         -6    1    1    2    0  502  0.13315467969E+02  0.49861172952E+02  0.57123875223E+03  0.59879975810E+03  0.17200000000E+03 0.  1.
</event>
<event>
 4    1 -0.6479440E-004  0.1763183E+03  0.7818608E-02  0.1171414E+00
         -5   -1    0    0    0  501 -0.00000000000E+00  0.00000000000E+00  0.37546511329E+03  0.37549452899E+03  0.47000000000E+01 0.  1.
          5   -1    0    0  501    0  0.00000000000E+00 -0.00000000000E+00 -0.26479346162E+04  0.26479387874E+04  0.47000000000E+01 0. -1.
          6    1    1    2  502    0  0.38331534029E+02 -0.59030786324E+01 -0.26241297698E+04  0.26300466159E+04  0.17200000000E+03 0. -1.
         -6    1    1    2    0  502 -0.38331534029E+02  0.59030786324E+01  0.35166026688E+03  0.39338670051E+03  0.17200000000E+03 0.  1.
</event>
<event>
 4    1 -0.6479440E-004  0.2840844E+03  0.7818608E-02  0.1093479E+00
         -5   -1    0    0    0  501 -0.00000000000E+00  0.00000000000E+00  0.25832853675E+03  0.25837128885E+03  0.47000000000E+01 0.  1.
          5   -1    0    0  501    0  0.00000000000E+00 -0.00000000000E+00 -0.31232418464E+03  0.31235954653E+03  0.47000000000E+01 0. -1.
          6    1    1    2  502    0  0.12996443909E+02  0.22572338061E+03 -0.27767440209E+02  0.28543822947E+03  0.17200000000E+03 0. -1.
         -6    1    1    2    0  502 -0.12996443909E+02 -0.22572338061E+03 -0.26228207676E+02  0.28529260591E+03  0.17200000000E+03 0. -1.
</event>
<event>
 4    1 -0.6479440E-004  0.1859223E+03  0.7818608E-02  0.1162191E+00
         -5   -1    0    0    0  501 -0.00000000000E+00  0.00000000000E+00  0.37117902987E+02  0.37414285001E+02  0.47000000000E+01 0.  1.
          5   -1    0    0  501    0  0.00000000000E+00 -0.00000000000E+00 -0.92955210474E+03  0.92956398673E+03  0.47000000000E+01 0. -1.
          6    1    1    2  502    0  0.11240618889E+02 -0.69690432757E+02 -0.42228026162E+03  0.46139758049E+03  0.17200000000E+03 0.  1.
         -6    1    1    2    0  502 -0.11240618889E+02  0.69690432757E+02 -0.47015394013E+03  0.50558069124E+03  0.17200000000E+03 0.  1.
</event>
<event>
 4    1 -0.6479440E-004  0.1754098E+03  0.7818608E-02  0.1172321E+00
          5   -1    0    0  501    0  0.00000000000E+00  0.00000000000E+00  0.39547238539E+03  0.39550031302E+03  0.47000000000E+01 0. -1.
         -5   -1    0    0    0  501 -0.00000000000E+00 -0.00000000000E+00 -0.30686787892E+03  0.30690386950E+03  0.47000000000E+01 0.  1.
          6    1    1    2  502    0  0.32460536150E+02  0.11441593738E+02  0.34774383155E+03  0.38947961289E+03  0.17200000000E+03 0. -1.
         -6    1    1    2    0  502 -0.32460536150E+02 -0.11441593738E+02 -0.25913932509E+03  0.31292456964E+03  0.17200000000E+03 0.  1.
</event>
<event>
 4    1 -0.6479440E-004  0.1723030E+03  0.7818608E-02  0.1175467E+00
          5   -1    0    0  501    0  0.00000000000E+00  0.00000000000E+00  0.23398532675E+03  0.23403252580E+03  0.47000000000E+01 0. -1.
         -5   -1    0    0    0  501 -0.00000000000E+00 -0.00000000000E+00 -0.13305295220E+03  0.13313593838E+03  0.47000000000E+01 0.  1.
          6    1    1    2  502    0 -0.13227107695E+01  0.10127921747E+02  0.90316036769E+02  0.19453871301E+03  0.17200000000E+03 0. -1.
         -6    1    1    2    0  502  0.13227107695E+01 -0.10127921747E+02  0.10616337783E+02  0.17262975117E+03  0.17200000000E+03 0.  1.
</event>
<event>
 4    1 -0.6479440E-004  0.1889665E+03  0.7818608E-02  0.1159397E+00
          5   -1    0    0  501    0  0.00000000000E+00  0.00000000000E+00  0.97577276849E+03  0.97578408766E+03  0.47000000000E+01 0. -1.
         -5   -1    0    0    0  501 -0.00000000000E+00 -0.00000000000E+00 -0.82278597014E+03  0.82279939393E+03  0.47000000000E+01 0.  1.
          6    1    1    2  502    0  0.11224275655E+02 -0.77448946745E+02  0.95555942282E+03  0.97406474849E+03  0.17200000000E+03 0. -1.
         -6    1    1    2    0  502 -0.11224275655E+02  0.77448946745E+02 -0.80257262446E+03  0.82451873311E+03  0.17200000000E+03 0.  1.
</event>
<event>
 4    1 -0.6479440E-004  0.1971561E+03  0.7818608E-02  0.1152161E+00
          5   -1    0    0  501    0  0.00000000000E+00  0.00000000000E+00  0.47880447412E+03  0.47882754143E+03  0.47000000000E+01 0. -1.
         -5   -1    0    0    0  501 -0.00000000000E+00 -0.00000000000E+00 -0.48978588464E+03  0.48980843479E+03  0.47000000000E+01 0.  1.
          6    1    1    2  502    0 -0.63809063138E+02  0.72214361917E+02  0.43687611813E+03  0.47930288253E+03  0.17200000000E+03 0. -1.
         -6    1    1    2    0  502  0.63809063138E+02 -0.72214361917E+02 -0.44785752866E+03  0.48933309369E+03  0.17200000000E+03 0.  1.
</event>
<event>
 4    1 -0.6479440E-004  0.1967898E+03  0.7818608E-02  0.1152476E+00
         -5   -1    0    0    0  501 -0.00000000000E+00  0.00000000000E+00  0.28349060165E+03  0.28352955970E+03  0.47000000000E+01 0.  1.
          5   -1    0    0  501    0  0.00000000000E+00 -0.00000000000E+00 -0.16798754955E+03  0.16805328561E+03  0.47000000000E+01 0. -1.
          6    1    1    2  502    0  0.76287319277E+02 -0.57640992938E+02 -0.39945482261E+02  0.20080308937E+03  0.17200000000E+03 0. -1.
         -6    1    1    2    0  502 -0.76287319277E+02  0.57640992938E+02  0.15544853436E+03  0.25077975593E+03  0.17200000000E+03 0.  1.
</event>
<event>
 4    1 -0.6479440E-004  0.2690884E+03  0.7818608E-02  0.1101802E+00
         -5   -1    0    0    0  501 -0.00000000000E+00  0.00000000000E+00  0.70612656641E+02  0.70768900500E+02  0.47000000000E+01 0.  1.
          5   -1    0    0  501    0  0.00000000000E+00 -0.00000000000E+00 -0.21322157760E+04  0.21322209560E+04  0.47000000000E+01 0. -1.
          6    1    1    2  502    0  0.15351652976E+03  0.13877042291E+03 -0.18248285742E+04  0.18445617042E+04  0.17200000000E+03 0. -1.
         -6    1    1    2    0  502 -0.15351652976E+03 -0.13877042291E+03 -0.23677454509E+03  0.35842815233E+03  0.17200000000E+03 0.  1.
</event>
<event>
 4    1 -0.6479440E-004  0.3080213E+03  0.7818608E-02  0.1081298E+00
          5   -1    0    0  501    0  0.00000000000E+00  0.00000000000E+00  0.15260879818E+04  0.15260952193E+04  0.47000000000E+01 0. -1.
         -5   -1    0    0    0  501 -0.00000000000E+00 -0.00000000000E+00 -0.76859957397E+02  0.77003526225E+02  0.47000000000E+01 0.  1.
          6    1    1    2  502    0 -0.19861119390E+03  0.16076908449E+03  0.10757961405E+04  0.11190238785E+04  0.17200000000E+03 0. -1.
         -6    1    1    2    0  502  0.19861119390E+03 -0.16076908449E+03  0.37343188397E+03  0.48407486698E+03  0.17200000000E+03 0.  1.
</event>
<event>
 4    1 -0.6479440E-004  0.2416503E+03  0.7818608E-02  0.1118698E+00
         -5   -1    0    0    0  501 -0.00000000000E+00  0.00000000000E+00  0.47411782783E+02  0.47644172221E+02  0.47000000000E+01 0.  1.
          5   -1    0    0  501    0  0.00000000000E+00 -0.00000000000E+00 -0.19446713899E+04  0.19446770695E+04  0.47000000000E+01 0. -1.
          6    1    1    2  502    0 -0.10745699380E+03  0.13139193233E+03 -0.15531584649E+04  0.15718447960E+04  0.17200000000E+03 0. -1.
         -6    1    1    2    0  502  0.10745699380E+03 -0.13139193233E+03 -0.34410114218E+03  0.42047644577E+03  0.17200000000E+03 0.  1.
</event>
<event>
 4    1 -0.6479440E-004  0.1795044E+03  0.7818608E-02  0.1168284E+00
          5   -1    0    0  501    0  0.00000000000E+00  0.00000000000E+00  0.12678532111E+03  0.12687240696E+03  0.47000000000E+01 0. -1.
         -5   -1    0    0    0  501 -0.00000000000E+00 -0.00000000000E+00 -0.55338853925E+03  0.55340849774E+03  0.47000000000E+01 0.  1.
          6    1    1    2  502    0 -0.49983135724E+02  0.11812221036E+02  0.36877647127E+02  0.18325338545E+03  0.17200000000E+03 0. -1.
         -6    1    1    2    0  502  0.49983135724E+02 -0.11812221036E+02 -0.46348086527E+03  0.49702751925E+03  0.17200000000E+03 0.  1.
</event>
<event>
 4    1 -0.6479440E-004  0.1724382E+03  0.7818608E-02  0.1175329E+00
          5   -1    0    0  501    0  0.00000000000E+00  0.00000000000E+00  0.59001707792E+03  0.59003579742E+03  0.47000000000E+01 0. -1.
         -5   -1    0    0    0  501 -0.00000000000E+00 -0.00000000000E+00 -0.98250596495E+02  0.98362948876E+02  0.47000000000E+01 0.  1.
          6    1    1    2  502    0  0.88906883239E+01 -0.84786284282E+01  0.48619705701E+03  0.51587063274E+03  0.17200000000E+03 0. -1.
         -6    1    1    2    0  502 -0.88906883239E+01  0.84786284282E+01  0.55694244149E+01  0.17252811356E+03  0.17200000000E+03 0.  1.
</event>
<event>
 4    1 -0.6479440E-004  0.1813572E+03  0.7818608E-02  0.1166496E+00
         -5   -1    0    0    0  501 -0.00000000000E+00  0.00000000000E+00  0.20874752020E+03  0.20880042431E+03  0.47000000000E+01 0.  1.
          5   -1    0    0  501    0  0.00000000000E+00 -0.00000000000E+00 -0.64822306869E+03  0.64824010735E+03  0.47000000000E+01 0. -1.
          6    1    1    2  502    0 -0.11885144825E+02  0.56259919094E+02 -0.59257208932E+03  0.61970324850E+03  0.17200000000E+03 0. -1.
         -6    1    1    2    0  502  0.11885144825E+02 -0.56259919094E+02  0.15309654083E+03  0.23733728316E+03  0.17200000000E+03 0.  1.
</event>
<event>
 4    1 -0.6479440E-004  0.3717644E+03  0.7818608E-02  0.1054020E+00
         -5   -1    0    0    0  501 -0.00000000000E+00  0.00000000000E+00  0.57490491073E+03  0.57492412228E+03  0.47000000000E+01 0.  1.
          5   -1    0    0  501    0  0.00000000000E+00 -0.00000000000E+00 -0.54424270033E+03  0.54426299421E+03  0.47000000000E+01 0. -1.
          6    1    1    2  502    0 -0.76030023513E+02 -0.32069330118E+03 -0.40279851202E+03  0.54813812054E+03  0.17200000000E+03 0. -1.
         -6    1    1    2    0  502  0.76030023513E+02  0.32069330118E+03  0.43346072242E+03  0.57104899595E+03  0.17200000000E+03 0.  1.
</event>
<event>
 4    1 -0.6479440E-004  0.2322020E+03  0.7818608E-02  0.1125099E+00
         -5   -1    0    0    0  501 -0.00000000000E+00  0.00000000000E+00  0.21514701431E+03  0.21519834517E+03  0.47000000000E+01 0.  1.
          5   -1    0    0  501    0  0.00000000000E+00 -0.00000000000E+00 -0.91200295112E+03  0.91201506175E+03  0.47000000000E+01 0. -1.
          6    1    1    2  502    0 -0.37375758010E+02  0.15144904817E+03 -0.82840798104E+03  0.86033571618E+03  0.17200000000E+03 0. -1.
         -6    1    1    2    0  502  0.37375758010E+02 -0.15144904817E+03  0.13155204422E+03  0.26687769075E+03  0.17200000000E+03 0.  1.
</event>
<event>
 4    1 -0.6479440E-004  0.2253431E+03  0.7818608E-02  0.1129961E+00
          5   -1    0    0  501    0  0.00000000000E+00  0.00000000000E+00  0.15200634904E+03  0.15207899312E+03  0.47000000000E+01 0. -1.
         -5   -1    0    0    0  501 -0.00000000000E+00 -0.00000000000E+00 -0.34092539282E+03  0.34095778840E+03  0.47000000000E+01 0.  1.
          6    1    1    2  502    0 -0.12018607770E+03 -0.82163309807E+02 -0.12986026905E+03  0.26008304872E+03  0.17200000000E+03 0.  1.
         -6    1    1    2    0  502  0.12018607770E+03  0.82163309807E+02 -0.59058774734E+02  0.23295373280E+03  0.17200000000E+03 0.  1.
</event>
<event>
 4    1 -0.6479440E-004  0.1857702E+03  0.7818608E-02  0.1162333E+00
         -5   -1    0    0    0  501 -0.00000000000E+00  0.00000000000E+00  0.32422977830E+03  0.32426384186E+03  0.47000000000E+01 0.  1.
          5   -1    0    0  501    0  0.00000000000E+00 -0.00000000000E+00 -0.37256814401E+03  0.37259778841E+03  0.47000000000E+01 0. -1.
          6    1    1    2  502    0 -0.15827772595E+02  0.68381525329E+02 -0.31866303209E+03  0.36885861711E+03  0.17200000000E+03 0. -1.
         -6    1    1    2    0  502  0.15827772595E+02 -0.68381525329E+02  0.27032466638E+03  0.32800301317E+03  0.17200000000E+03 0.  1.
</event>
<event>
 4    1 -0.6479440E-004  0.1806829E+03  0.7818608E-02  0.1167144E+00
         -5   -1    0    0    0  501 -0.00000000000E+00  0.00000000000E+00  0.26981346394E+03  0.26985439653E+03  0.47000000000E+01 0.  1.
          5   -1    0    0  501    0  0.00000000000E+00 -0.00000000000E+00 -0.24688472023E+03  0.24692945365E+03  0.47000000000E+01 0. -1.
          6    1    1    2  502    0 -0.23790904953E+01  0.55286857576E+02 -0.17307748842E+03  0.25020414403E+03  0.17200000000E+03 0. -1.
         -6    1    1    2    0  502  0.23790904953E+01 -0.55286857576E+02  0.19600623214E+03  0.26657970615E+03  0.17200000000E+03 0.  1.
</event>
<event>
 4    1 -0.6479440E-004  0.1960610E+03  0.7818608E-02  0.1153106E+00
         -5   -1    0    0    0  501 -0.00000000000E+00  0.00000000000E+00  0.39232260566E+03  0.39235075750E+03  0.47000000000E+01 0.  1.
          5   -1    0    0  501    0  0.00000000000E+00 -0.00000000000E+00 -0.29395367378E+03  0.29399124533E+03  0.47000000000E+01 0. -1.
          6    1    1    2  502    0 -0.50589509103E+02  0.79351213087E+02 -0.23103017382E+03  0.30300966101E+03  0.17200000000E+03 0. -1.
         -6    1    1    2    0  502  0.50589509103E+02 -0.79351213087E+02  0.32939910570E+03  0.38333234182E+03  0.17200000000E+03 0.  1.
</event>
<event>
 4    1 -0.6479440E-004  0.1737569E+03  0.7818608E-02  0.1173986E+00
         -5   -1    0    0    0  501 -0.00000000000E+00  0.00000000000E+00  0.42401118486E+03  0.42403723290E+03  0.47000000000E+01 0.  1.
          5   -1    0    0  501    0  0.00000000000E+00 -0.00000000000E+00 -0.13116109183E+03  0.13124527424E+03  0.47000000000E+01 0. -1.
          6    1    1    2  502    0  0.13176486105E+02 -0.20828834431E+02 -0.41351828918E+02  0.17860972506E+03  0.17200000000E+03 0. -1.
         -6    1    1    2    0  502 -0.13176486105E+02  0.20828834431E+02  0.33420192194E+03  0.37667278208E+03  0.17200000000E+03 0.  1.
</event>
<event>
 4    1 -0.6479440E-004  0.2019563E+03  0.7818608E-02  0.1148099E+00
         -5   -1    0    0    0  501 -0.00000000000E+00  0.00000000000E+00  0.47294117386E+02  0.47527082167E+02  0.47000000000E+01 0.  1.
          5   -1    0    0  501    0  0.00000000000E+00 -0.00000000000E+00 -0.11892251722E+04  0.11892344597E+04  0.47000000000E+01 0. -1.
          6    1    1    2  502    0  0.88992207092E+02 -0.57295262823E+02 -0.89627711667E+03  0.91874862173E+03  0.17200000000E+03 0. -1.
         -6    1    1    2    0  502 -0.88992207092E+02  0.57295262823E+02 -0.24565393816E+03  0.31801292017E+03  0.17200000000E+03 0.  1.
</event>
<event>
 4    1 -0.6479440E-004  0.2047063E+03  0.7818608E-02  0.1145828E+00
         -5   -1    0    0    0  501 -0.00000000000E+00  0.00000000000E+00  0.52494134126E+03  0.52496238129E+03  0.47000000000E+01 0.  1.
          5   -1    0    0  501    0  0.00000000000E+00 -0.00000000000E+00 -0.13171930743E+03  0.13180313331E+03  0.47000000000E+01 0. -1.
          6    1    1    2  502    0  0.83934090333E+02 -0.72634181644E+02 -0.95810816896E+01  0.20493036132E+03  0.17200000000E+03 0. -1.
         -6    1    1    2    0  502 -0.83934090333E+02  0.72634181644E+02  0.40280311552E+03  0.45183515328E+03  0.17200000000E+03 0.  1.
</event>
<event>
 4    1 -0.6479440E-004  0.1840480E+03  0.7818608E-02  0.1163942E+00
         -5   -1    0    0    0  501 -0.00000000000E+00  0.00000000000E+00  0.35689284203E+02  0.35997430560E+02  0.47000000000E+01 0.  1.
          5   -1    0    0  501    0  0.00000000000E+00 -0.00000000000E+00 -0.11301425251E+04  0.11301522981E+04  0.47000000000E+01 0. -1.
          6    1    1    2  502    0 -0.52875816574E+02  0.38649903774E+02 -0.78336260050E+03  0.80469287987E+03  0.17200000000E+03 0. -1.
         -6    1    1    2    0  502  0.52875816574E+02 -0.38649903774E+02 -0.31109064035E+03  0.36145684882E+03  0.17200000000E+03 0.  1.
</event>
<event>
 4    1 -0.6479440E-004  0.2289600E+03  0.7818608E-02  0.1127374E+00
          5   -1    0    0  501    0  0.00000000000E+00  0.00000000000E+00  0.35955241880E+03  0.35958313624E+03  0.47000000000E+01 0. -1.
         -5   -1    0    0    0  501 -0.00000000000E+00 -0.00000000000E+00 -0.22092897553E+03  0.22097896332E+03  0.47000000000E+01 0.  1.
          6    1    1    2  502    0  0.13751187710E+03 -0.62683029373E+02  0.23863660920E+03  0.33071152046E+03  0.17200000000E+03 0. -1.
         -6    1    1    2    0  502 -0.13751187710E+03  0.62683029373E+02 -0.10001316593E+03  0.24985057910E+03  0.17200000000E+03 0.  1.
</event>
<event>
 4    1 -0.6479440E-004  0.2541090E+03  0.7818608E-02  0.1110735E+00
          5   -1    0    0  501    0  0.00000000000E+00  0.00000000000E+00  0.79229470245E+03  0.79230864285E+03  0.47000000000E+01 0. -1.
         -5   -1    0    0    0  501 -0.00000000000E+00 -0.00000000000E+00 -0.22523961764E+03  0.22528864897E+03  0.47000000000E+01 0.  1.
          6    1    1    2  502    0  0.17095647051E+03 -0.75903105752E+02  0.69000370682E+03  0.73530708666E+03  0.17200000000E+03 0. -1.
         -6    1    1    2    0  502 -0.17095647051E+03  0.75903105752E+02 -0.12294862201E+03  0.28229020515E+03  0.17200000000E+03 0.  1.
</event>
<event>
 4    1 -0.6479440E-004  0.2159126E+03  0.7818608E-02  0.1136968E+00
          5   -1    0    0  501    0  0.00000000000E+00  0.00000000000E+00  0.12663179869E+03  0.12671899005E+03  0.47000000000E+01 0. -1.
         -5   -1    0    0    0  501 -0.00000000000E+00 -0.00000000000E+00 -0.10624344078E+04  0.10624448037E+04  0.47000000000E+01 0.  1.
          6    1    1    2  502    0  0.69689453247E+02  0.11035234454E+03  0.12807423661E+02  0.21629214027E+03  0.17200000000E+03 0. -1.
         -6    1    1    2    0  502 -0.69689453247E+02 -0.11035234454E+03 -0.94861003282E+03  0.97287165352E+03  0.17200000000E+03 0.  1.
</event>
<event>
 4    1 -0.6479440E-004  0.3493010E+03  0.7818608E-02  0.1062902E+00
         -5   -1    0    0    0  501 -0.00000000000E+00  0.00000000000E+00  0.46866151995E+03  0.46868508648E+03  0.47000000000E+01 0.  1.
          5   -1    0    0  501    0  0.00000000000E+00 -0.00000000000E+00 -0.58204754835E+03  0.58206652415E+03  0.47000000000E+01 0. -1.
          6    1    1    2  502    0  0.25840579782E+03  0.16016755299E+03 -0.44729644911E+03  0.56752560714E+03  0.17200000000E+03 0. -1.
         -6    1    1    2    0  502 -0.25840579782E+03 -0.16016755299E+03  0.33391042072E+03  0.48322600348E+03  0.17200000000E+03 0.  1.
</event>
<event>
 4    1 -0.6479440E-004  0.1720553E+03  0.7818608E-02  0.1175721E+00
          5   -1    0    0  501    0  0.00000000000E+00  0.00000000000E+00  0.62200044750E+02  0.62377364219E+02  0.47000000000E+01 0. -1.
         -5   -1    0    0    0  501 -0.00000000000E+00 -0.00000000000E+00 -0.79677916415E+03  0.79679302609E+03  0.47000000000E+01 0.  1.
          6    1    1    2  502    0  0.77352727099E+00  0.42911117854E+01 -0.94353199692E+02  0.19622828103E+03  0.17200000000E+03 0. -1.
         -6    1    1    2    0  502 -0.77352727099E+00 -0.42911117854E+01 -0.64022591970E+03  0.66294210927E+03  0.17200000000E+03 0.  1.
</event>
<event>
 4    1 -0.6479440E-004  0.2666315E+03  0.7818608E-02  0.1103223E+00
          5   -1    0    0  501    0  0.00000000000E+00  0.00000000000E+00  0.68225612892E+02  0.68387310625E+02  0.47000000000E+01 0. -1.
         -5   -1    0    0    0  501 -0.00000000000E+00 -0.00000000000E+00 -0.11707852687E+04  0.11707947025E+04  0.47000000000E+01 0.  1.
          6    1    1    2  502    0 -0.13325952569E+03 -0.15411116337E+03 -0.34470125384E+03  0.43578814378E+03  0.17200000000E+03 0. -1.
         -6    1    1    2    0  502  0.13325952569E+03  0.15411116337E+03 -0.75785840193E+03  0.80339386931E+03  0.17200000000E+03 0.  1.
</event>
<event>
 4    1 -0.6479440E-004  0.2697613E+03  0.7818608E-02  0.1101416E+00
          5   -1    0    0  501    0  0.00000000000E+00  0.00000000000E+00  0.47535656477E+03  0.47537979939E+03  0.47000000000E+01 0. -1.
         -5   -1    0    0    0  501 -0.00000000000E+00 -0.00000000000E+00 -0.71233063488E+03  0.71234614015E+03  0.47000000000E+01 0.  1.
          6    1    1    2  502    0  0.20781522734E+03  0.66462913376E-01  0.40771168000E+03  0.48887624931E+03  0.17200000000E+03 0. -1.
         -6    1    1    2    0  502 -0.20781522734E+03 -0.66462913376E-01 -0.64468575011E+03  0.69884969023E+03  0.17200000000E+03 0.  1.
</event>
<event>
 4    1 -0.6479440E-004  0.1870354E+03  0.7818608E-02  0.1161163E+00
         -5   -1    0    0    0  501 -0.00000000000E+00  0.00000000000E+00  0.72526858613E+03  0.72528381481E+03  0.47000000000E+01 0.  1.
          5   -1    0    0  501    0  0.00000000000E+00 -0.00000000000E+00 -0.38507857123E+03  0.38510725262E+03  0.47000000000E+01 0. -1.
          6    1    1    2  502    0  0.55445058182E+02 -0.48208707201E+02 -0.34917006059E+03  0.39610852697E+03  0.17200000000E+03 0. -1.
         -6    1    1    2    0  502 -0.55445058182E+02  0.48208707201E+02  0.68936007549E+03  0.71428254046E+03  0.17200000000E+03 0.  1.
</event>
<event>
 4    1 -0.6479440E-004  0.1949502E+03  0.7818608E-02  0.1154071E+00
         -5   -1    0    0    0  501 -0.00000000000E+00  0.00000000000E+00  0.40409083699E+03  0.40411816903E+03  0.47000000000E+01 0.  1.
          5   -1    0    0  501    0  0.00000000000E+00 -0.00000000000E+00 -0.23175487788E+03  0.23180253109E+03  0.47000000000E+01 0. -1.
          6    1    1    2  502    0  0.72289648375E+02 -0.56531316931E+02 -0.15894575862E+03  0.25153396836E+03  0.17200000000E+03 0. -1.
         -6    1    1    2    0  502 -0.72289648375E+02  0.56531316931E+02  0.33128171773E+03  0.38438673177E+03  0.17200000000E+03 0.  1.
</event>
<event>
 4    1 -0.6479440E-004  0.2040811E+03  0.7818608E-02  0.1146341E+00
          5   -1    0    0  501    0  0.00000000000E+00  0.00000000000E+00  0.31849143354E+03  0.31852611077E+03  0.47000000000E+01 0. -1.
         -5   -1    0    0    0  501 -0.00000000000E+00 -0.00000000000E+00 -0.22821173735E+03  0.22826013025E+03  0.47000000000E+01 0.  1.
          6    1    1    2  502    0  0.86122182652E+02  0.68176670631E+02  0.22382248677E+03  0.30289535214E+03  0.17200000000E+03 0. -1.
         -6    1    1    2    0  502 -0.86122182652E+02 -0.68176670631E+02 -0.13354279057E+03  0.24389088888E+03  0.17200000000E+03 0.  1.
</event>
<event>
 4    1 -0.6479440E-004  0.1918450E+03  0.7818608E-02  0.1156808E+00
         -5   -1    0    0    0  501 -0.00000000000E+00  0.00000000000E+00  0.11343179185E+04  0.11343276556E+04  0.47000000000E+01 0.  1.
          5   -1    0    0  501    0  0.00000000000E+00 -0.00000000000E+00 -0.25396513108E+03  0.25400861757E+03  0.47000000000E+01 0. -1.
          6    1    1    2  502    0  0.74902775535E+02  0.40125797614E+02 -0.20813993241E+03  0.28306666508E+03  0.17200000000E+03 0. -1.
         -6    1    1    2    0  502 -0.74902775535E+02 -0.40125797614E+02  0.10884927199E+04  0.11052696081E+04  0.17200000000E+03 0.  1.
</event>
<event>
 4    1 -0.6479440E-004  0.2257067E+03  0.7818608E-02  0.1129699E+00
          5   -1    0    0  501    0  0.00000000000E+00  0.00000000000E+00  0.16594811168E+03  0.16601465529E+03  0.47000000000E+01 0. -1.
         -5   -1    0    0    0  501 -0.00000000000E+00 -0.00000000000E+00 -0.43713472157E+03  0.43715998765E+03  0.47000000000E+01 0.  1.
          6    1    1    2  502    0  0.12010614576E+03  0.83270852139E+02  0.29042000205E+02  0.22756748195E+03  0.17200000000E+03 0. -1.
         -6    1    1    2    0  502 -0.12010614576E+03 -0.83270852139E+02 -0.30022861010E+03  0.37560716099E+03  0.17200000000E+03 0.  1.
</event>
<event>
 4    1 -0.6479440E-004  0.2317572E+03  0.7818608E-02  0.1125409E+00
         -5   -1    0    0    0  501 -0.00000000000E+00  0.00000000000E+00  0.99706476001E+02  0.99817189684E+02  0.47000000000E+01 0.  1.
          5   -1    0    0  501    0  0.00000000000E+00 -0.00000000000E+00 -0.12616676159E+04  0.12616763702E+04  0.47000000000E+01 0. -1.
          6    1    1    2  502    0  0.58959679211E+02  0.14370508155E+03 -0.10964210286E+04  0.11206473425E+04  0.17200000000E+03 0. -1.
         -6    1    1    2    0  502 -0.58959679211E+02 -0.14370508155E+03 -0.65540111313E+02  0.24084621738E+03  0.17200000000E+03 0.  1.
</event>
<event>
 4    1 -0.6479440E-004  0.2284946E+03  0.7818608E-02  0.1127704E+00
          5   -1    0    0  501    0  0.00000000000E+00  0.00000000000E+00  0.67442259552E+02  0.67605830913E+02  0.47000000000E+01 0. -1.
         -5   -1    0    0    0  501 -0.00000000000E+00 -0.00000000000E+00 -0.24885571224E+04  0.24885615607E+04  0.47000000000E+01 0.  1.
          6    1    1    2  502    0  0.97013645157E+02  0.11495272022E+03 -0.14942658531E+03  0.27301662885E+03  0.17200000000E+03 0. -1.
         -6    1    1    2    0  502 -0.97013645157E+02 -0.11495272022E+03 -0.22716882775E+04  0.22831507628E+04  0.17200000000E+03 0.  1.
</event>
<event>
 4    1 -0.6479440E-004  0.1766005E+03  0.7818608E-02  0.1171134E+00
          5   -1    0    0  501    0  0.00000000000E+00  0.00000000000E+00  0.70398208249E+03  0.70399777163E+03  0.47000000000E+01 0. -1.
         -5   -1    0    0    0  501 -0.00000000000E+00 -0.00000000000E+00 -0.60903994835E+02  0.61085076630E+02  0.47000000000E+01 0.  1.
          6    1    1    2  502    0  0.39805698373E+02  0.43878404961E+01  0.52173254905E+03  0.55081085638E+03  0.17200000000E+03 0. -1.
         -6    1    1    2    0  502 -0.39805698373E+02 -0.43878404961E+01  0.12134553860E+03  0.21427199188E+03  0.17200000000E+03 0.  1.
</event>
<event>
 4    1 -0.6479440E-004  0.1895790E+03  0.7818608E-02  0.1158842E+00
          5   -1    0    0  501    0  0.00000000000E+00  0.00000000000E+00  0.10625710480E+04  0.10625814425E+04  0.47000000000E+01 0. -1.
         -5   -1    0    0    0  501 -0.00000000000E+00 -0.00000000000E+00 -0.19841652446E+03  0.19847218238E+03  0.47000000000E+01 0.  1.
          6    1    1    2  502    0  0.87291783553E+00  0.79721039000E+02  0.10063639517E+04  0.10240647486E+04  0.17200000000E+03 0. -1.
         -6    1    1    2    0  502 -0.87291783553E+00 -0.79721039000E+02 -0.14220942816E+03  0.23698887633E+03  0.17200000000E+03 0.  1.
</event>
<event>
 4    1 -0.6479440E-004  0.2006284E+03  0.7818608E-02  0.1149210E+00
         -5   -1    0    0    0  501 -0.00000000000E+00  0.00000000000E+00  0.25785990255E+03  0.25790273233E+03  0.47000000000E+01 0.  1.
          5   -1    0    0  501    0  0.00000000000E+00 -0.00000000000E+00 -0.16908842236E+03  0.16915373060E+03  0.47000000000E+01 0. -1.
          6    1    1    2  502    0  0.52260691667E+02  0.89087568497E+02 -0.14983764722E+02  0.20118719631E+03  0.17200000000E+03 0. -1.
         -6    1    1    2    0  502 -0.52260691667E+02 -0.89087568497E+02  0.10375524491E+03  0.22586926662E+03  0.17200000000E+03 0.  1.
</event>
<event>
 4    1 -0.6479440E-004  0.2457198E+03  0.7818608E-02  0.1116040E+00
         -5   -1    0    0    0  501 -0.00000000000E+00  0.00000000000E+00  0.19276861152E+03  0.19282589968E+03  0.47000000000E+01 0.  1.
          5   -1    0    0  501    0  0.00000000000E+00 -0.00000000000E+00 -0.45857581130E+03  0.45859989610E+03  0.47000000000E+01 0. -1.
          6    1    1    2  502    0 -0.17508191324E+03 -0.11854619874E+02 -0.31634264954E+03  0.40056320384E+03  0.17200000000E+03 0. -1.
         -6    1    1    2    0  502  0.17508191324E+03  0.11854619874E+02  0.50535449765E+02  0.25086259195E+03  0.17200000000E+03 0.  1.
</event>
<event>
 4    1 -0.6479440E-004  0.1723481E+03  0.7818608E-02  0.1175421E+00
         -5   -1    0    0    0  501 -0.00000000000E+00  0.00000000000E+00  0.14300232976E+04  0.14300310212E+04  0.47000000000E+01 0.  1.
          5   -1    0    0  501    0  0.00000000000E+00 -0.00000000000E+00 -0.43711653644E+02  0.43963606134E+02  0.47000000000E+01 0. -1.
          6    1    1    2  502    0  0.12657299368E+01  0.10874686630E+02  0.15851287315E+03  0.23415847590E+03  0.17200000000E+03 0. -1.
         -6    1    1    2    0  502 -0.12657299368E+01 -0.10874686630E+02  0.12277987708E+04  0.12398361514E+04  0.17200000000E+03 0.  1.
</event>
<event>
 4    1 -0.6479440E-004  0.1867390E+03  0.7818608E-02  0.1161436E+00
          5   -1    0    0  501    0  0.00000000000E+00  0.00000000000E+00  0.54939492557E+03  0.54941502914E+03  0.47000000000E+01 0. -1.
         -5   -1    0    0    0  501 -0.00000000000E+00 -0.00000000000E+00 -0.94944914681E+03  0.94946077980E+03  0.47000000000E+01 0.  1.
          6    1    1    2  502    0 -0.38617393674E+02  0.61612982153E+02  0.52392801961E+03  0.55621221885E+03  0.17200000000E+03 0. -1.
         -6    1    1    2    0  502  0.38617393674E+02 -0.61612982153E+02 -0.92398224086E+03  0.94266359009E+03  0.17200000000E+03 0.  1.
</event>
<event>
 4    1 -0.6479440E-004  0.2239138E+03  0.7818608E-02  0.1130998E+00
         -5   -1    0    0    0  501 -0.00000000000E+00  0.00000000000E+00  0.81123079181E+03  0.81124440681E+03  0.47000000000E+01 0.  1.
          5   -1    0    0  501    0  0.00000000000E+00 -0.00000000000E+00 -0.10956840435E+03  0.10966916263E+03  0.47000000000E+01 0. -1.
          6    1    1    2  502    0  0.23141314646E+02  0.14148451011E+03  0.46697700068E+02  0.22873141944E+03  0.17200000000E+03 0. -1.
         -6    1    1    2    0  502 -0.23141314646E+02 -0.14148451011E+03  0.65496468739E+03  0.69218215000E+03  0.17200000000E+03 0.  1.
</event>
<event>
 4    1 -0.6479440E-004  0.1794236E+03  0.7818608E-02  0.1168362E+00
          5   -1    0    0  501    0  0.00000000000E+00  0.00000000000E+00  0.22173725975E+03  0.22178706536E+03  0.47000000000E+01 0. -1.
         -5   -1    0    0    0  501 -0.00000000000E+00 -0.00000000000E+00 -0.23284801081E+03  0.23289544035E+03  0.47000000000E+01 0.  1.
          6    1    1    2  502    0 -0.40041514076E+02  0.31709797939E+02  0.13398664775E+03  0.22393136428E+03  0.17200000000E+03 0. -1.
         -6    1    1    2    0  502  0.40041514076E+02 -0.31709797939E+02 -0.14509739880E+03  0.23075114144E+03  0.17200000000E+03 0.  1.
</event>
<event>
 4    1 -0.6479440E-004  0.1734059E+03  0.7818608E-02  0.1174342E+00
          5   -1    0    0  501    0  0.00000000000E+00  0.00000000000E+00  0.94144201555E+02  0.94261448569E+02  0.47000000000E+01 0. -1.
         -5   -1    0    0    0  501 -0.00000000000E+00 -0.00000000000E+00 -0.59940567017E+03  0.59942409648E+03  0.47000000000E+01 0.  1.
          6    1    1    2  502    0  0.16885221999E+02  0.14159819949E+02 -0.15459350492E+02  0.17409366083E+03  0.17200000000E+03 0. -1.
         -6    1    1    2    0  502 -0.16885221999E+02 -0.14159819949E+02 -0.48980211813E+03  0.51959188422E+03  0.17200000000E+03 0.  1.
</event>
<event>
 4    1 -0.6479440E-004  0.3535759E+03  0.7818608E-02  0.1061157E+00
         -5   -1    0    0    0  501 -0.00000000000E+00  0.00000000000E+00  0.41922505613E+03  0.41925140153E+03  0.47000000000E+01 0.  1.
          5   -1    0    0  501    0  0.00000000000E+00 -0.00000000000E+00 -0.40774821023E+03  0.40777529712E+03  0.47000000000E+01 0. -1.
          6    1    1    2  502    0  0.74992108230E+02  0.29967999441E+03 -0.20862877326E+03  0.41053852484E+03  0.17200000000E+03 0. -1.
         -6    1    1    2    0  502 -0.74992108230E+02 -0.29967999441E+03  0.22010561916E+03  0.41648817381E+03  0.17200000000E+03 0.  1.
</event>
<event>
 4    1 -0.6479440E-004  0.1856105E+03  0.7818608E-02  0.1162481E+00
          5   -1    0    0  501    0  0.00000000000E+00  0.00000000000E+00  0.20257241741E+03  0.20262693378E+03  0.47000000000E+01 0. -1.
         -5   -1    0    0    0  501 -0.00000000000E+00 -0.00000000000E+00 -0.20922482226E+03  0.20927760571E+03  0.47000000000E+01 0.  1.
          6    1    1    2  502    0 -0.21420296883E+01 -0.69732933505E+02  0.85870651213E+02  0.20451170882E+03  0.17200000000E+03 0. -1.
         -6    1    1    2    0  502  0.21420296883E+01  0.69732933505E+02 -0.92523056067E+02  0.20739283066E+03  0.17200000000E+03 0.  1.
</event>
<event>
 4    1 -0.6479440E-004  0.1758363E+03  0.7818608E-02  0.1171895E+00
         -5   -1    0    0    0  501 -0.00000000000E+00  0.00000000000E+00  0.45645248029E+03  0.45647667713E+03  0.47000000000E+01 0.  1.
          5   -1    0    0  501    0  0.00000000000E+00 -0.00000000000E+00 -0.69617052245E+02  0.69775525532E+02  0.47000000000E+01 0. -1.
          6    1    1    2  502    0 -0.30555708224E+02 -0.20018793564E+02  0.23782673516E+03  0.29577011235E+03  0.17200000000E+03 0.  1.
         -6    1    1    2    0  502  0.30555708224E+02  0.20018793564E+02  0.14900869289E+03  0.23048209032E+03  0.17200000000E+03 0.  1.
</event>
<event>
 4    1 -0.6479440E-004  0.1722493E+03  0.7818608E-02  0.1175522E+00
         -5   -1    0    0    0  501 -0.00000000000E+00  0.00000000000E+00  0.40852686442E+02  0.41122159349E+02  0.47000000000E+01 0.  1.
          5   -1    0    0  501    0  0.00000000000E+00 -0.00000000000E+00 -0.10890347497E+04  0.10890448916E+04  0.47000000000E+01 0. -1.
          6    1    1    2  502    0  0.63440518256E+01 -0.67520597948E+01 -0.85138705862E+03  0.86863672550E+03  0.17200000000E+03 0. -1.
         -6    1    1    2    0  502 -0.63440518256E+01  0.67520597948E+01 -0.19679500460E+03  0.26153032547E+03  0.17200000000E+03 0.  1.
</event>
<event>
 4    1 -0.6479440E-004  0.1740776E+03  0.7818608E-02  0.1173661E+00
         -5   -1    0    0    0  501 -0.00000000000E+00  0.00000000000E+00  0.58637578188E+03  0.58639461762E+03  0.47000000000E+01 0.  1.
          5   -1    0    0  501    0  0.00000000000E+00 -0.00000000000E+00 -0.57447132672E+02  0.57639075741E+02  0.47000000000E+01 0. -1.
          6    1    1    2  502    0 -0.22520744830E+02  0.14553794058E+02  0.16150664741E+03  0.23746029990E+03  0.17200000000E+03 0. -1.
         -6    1    1    2    0  502  0.22520744830E+02 -0.14553794058E+02  0.36742200180E+03  0.40657339347E+03  0.17200000000E+03 0.  1.
</event>
<event>
 4    1 -0.6479440E-004  0.1763374E+03  0.7818608E-02  0.1171396E+00
          5   -1    0    0  501    0  0.00000000000E+00  0.00000000000E+00  0.27658447269E+03  0.27662440336E+03  0.47000000000E+01 0. -1.
         -5   -1    0    0    0  501 -0.00000000000E+00 -0.00000000000E+00 -0.27527837618E+03  0.27531849627E+03  0.47000000000E+01 0.  1.
          6    1    1    2  502    0  0.29010482852E+02  0.25870146377E+02  0.21293869168E+03  0.27647379442E+03  0.17200000000E+03 0. -1.
         -6    1    1    2    0  502 -0.29010482852E+02 -0.25870146377E+02 -0.21163259517E+03  0.27546910521E+03  0.17200000000E+03 0.  1.
</event>
<event>
 4    1 -0.6479440E-004  0.2953506E+03  0.7818608E-02  0.1087588E+00
         -5   -1    0    0    0  501 -0.00000000000E+00  0.00000000000E+00  0.15337135044E+03  0.15344334829E+03  0.47000000000E+01 0.  1.
          5   -1    0    0  501    0  0.00000000000E+00 -0.00000000000E+00 -0.60359834794E+03  0.60361664625E+03  0.47000000000E+01 0. -1.
          6    1    1    2  502    0 -0.21820452309E+03  0.10017375550E+03 -0.13390421837E+03  0.32428742635E+03  0.17200000000E+03 0. -1.
         -6    1    1    2    0  502  0.21820452309E+03 -0.10017375550E+03 -0.31632277913E+03  0.43277256820E+03  0.17200000000E+03 0.  1.
</event>
<event>
 4    1 -0.6479440E-004  0.1727437E+03  0.7818608E-02  0.1175016E+00
          5   -1    0    0  501    0  0.00000000000E+00  0.00000000000E+00  0.64869560145E+02  0.65039602039E+02  0.47000000000E+01 0. -1.
         -5   -1    0    0    0  501 -0.00000000000E+00 -0.00000000000E+00 -0.88423918370E+03  0.88425167457E+03  0.47000000000E+01 0.  1.
          6    1    1    2  502    0 -0.50976545000E+01  0.15178574776E+02 -0.80650031088E+02  0.19064312924E+03  0.17200000000E+03 0. -1.
         -6    1    1    2    0  502  0.50976545000E+01 -0.15178574776E+02 -0.73871959246E+03  0.75864814737E+03  0.17200000000E+03 0.  1.
</event>
<event>
 4    1 -0.6479440E-004  0.1953057E+03  0.7818608E-02  0.1153761E+00
          5   -1    0    0  501    0  0.00000000000E+00  0.00000000000E+00  0.92944181198E+02  0.93062940092E+02  0.47000000000E+01 0. -1.
         -5   -1    0    0    0  501 -0.00000000000E+00 -0.00000000000E+00 -0.88770874434E+03  0.88772118640E+03  0.47000000000E+01 0.  1.
          6    1    1    2  502    0  0.84823111135E+02 -0.36950945217E+02 -0.37671789827E+02  0.19890574724E+03  0.17200000000E+03 0. -1.
         -6    1    1    2    0  502 -0.84823111135E+02  0.36950945217E+02 -0.75709277332E+03  0.78187837925E+03  0.17200000000E+03 0.  1.
</event>
<event>
 4    1 -0.6479440E-004  0.1879618E+03  0.7818608E-02  0.1160313E+00
         -5   -1    0    0    0  501 -0.00000000000E+00  0.00000000000E+00  0.52395322549E+03  0.52397430519E+03  0.47000000000E+01 0.  1.
          5   -1    0    0  501    0  0.00000000000E+00 -0.00000000000E+00 -0.28616986792E+03  0.28620846127E+03  0.47000000000E+01 0. -1.
          6    1    1    2  502    0 -0.48917214609E+02 -0.57902972852E+02 -0.23528241952E+03  0.30114359546E+03  0.17200000000E+03 0. -1.
         -6    1    1    2    0  502  0.48917214609E+02  0.57902972852E+02  0.47306577710E+03  0.50903917100E+03  0.17200000000E+03 0.  1.
</event>
<event>
 4    1 -0.6479440E-004  0.1808804E+03  0.7818608E-02  0.1166954E+00
         -5   -1    0    0    0  501 -0.00000000000E+00  0.00000000000E+00  0.36727410990E+02  0.37026918830E+02  0.47000000000E+01 0.  1.
          5   -1    0    0  501    0  0.00000000000E+00 -0.00000000000E+00 -0.13300044044E+04  0.13300127088E+04  0.47000000000E+01 0. -1.
          6    1    1    2  502    0 -0.53533558969E+02 -0.16367139386E+02 -0.10411192173E+04  0.10567151696E+04  0.17200000000E+03 0. -1.
         -6    1    1    2    0  502  0.53533558969E+02  0.16367139386E+02 -0.25215777610E+03  0.31032445800E+03  0.17200000000E+03 0.  1.
</event>
<event>
 4    1 -0.6479440E-004  0.1975084E+03  0.7818608E-02  0.1151858E+00
          5   -1    0    0  501    0  0.00000000000E+00  0.00000000000E+00  0.30413632105E+03  0.30417263484E+03  0.47000000000E+01 0. -1.
         -5   -1    0    0    0  501 -0.00000000000E+00 -0.00000000000E+00 -0.34749443667E+03  0.34752621990E+03  0.47000000000E+01 0.  1.
          6    1    1    2  502    0  0.68648298127E+02 -0.68651266812E+02  0.23715452931E+03  0.30862899417E+03  0.17200000000E+03 0. -1.
         -6    1    1    2    0  502 -0.68648298127E+02  0.68651266812E+02 -0.28051264492E+03  0.34306986057E+03  0.17200000000E+03 0.  1.
</event>
<event>
 4    1 -0.6479440E-004  0.1830735E+03  0.7818608E-02  0.1164861E+00
         -5   -1    0    0    0  501 -0.00000000000E+00  0.00000000000E+00  0.49017674047E+02  0.49242485406E+02  0.47000000000E+01 0.  1.
          5   -1    0    0  501    0  0.00000000000E+00 -0.00000000000E+00 -0.69621075438E+03  0.69622661865E+03  0.47000000000E+01 0. -1.
          6    1    1    2  502    0 -0.39986347015E+02  0.48301145541E+02 -0.37692527301E+03  0.41903289852E+03  0.17200000000E+03 0. -1.
         -6    1    1    2    0  502  0.39986347015E+02 -0.48301145541E+02 -0.27026780732E+03  0.32643620554E+03  0.17200000000E+03 0.  1.
</event>
<event>
 4    1 -0.6479440E-004  0.2955286E+03  0.7818608E-02  0.1087497E+00
         -5   -1    0    0    0  501 -0.00000000000E+00  0.00000000000E+00  0.22943672761E+03  0.22948486219E+03  0.47000000000E+01 0.  1.
          5   -1    0    0  501    0  0.00000000000E+00 -0.00000000000E+00 -0.67760655556E+03  0.67762285538E+03  0.47000000000E+01 0. -1.
          6    1    1    2  502    0  0.23888017198E+02 -0.23912860255E+03 -0.52436901989E+03  0.60191361086E+03  0.17200000000E+03 0. -1.
         -6    1    1    2    0  502 -0.23888017198E+02  0.23912860255E+03  0.76199191941E+02  0.30519410671E+03  0.17200000000E+03 0.  1.
</event>
<event>
 4    1 -0.6479440E-004  0.2794665E+03  0.7818608E-02  0.1095981E+00
          5   -1    0    0  501    0  0.00000000000E+00  0.00000000000E+00  0.15139629206E+04  0.15139702160E+04  0.47000000000E+01 0. -1.
         -5   -1    0    0    0  501 -0.00000000000E+00 -0.00000000000E+00 -0.24224723308E+03  0.24229282271E+03  0.47000000000E+01 0.  1.
          6    1    1    2  502    0 -0.16813779982E+02  0.21962427713E+03  0.14149110317E+04  0.14422464262E+04  0.17200000000E+03 0. -1.
         -6    1    1    2    0  502  0.16813779982E+02 -0.21962427713E+03 -0.14319534421E+03  0.31401661247E+03  0.17200000000E+03 0.  1.
</event>
<event>
 4    1 -0.6479440E-004  0.2252324E+03  0.7818608E-02  0.1130041E+00
         -5   -1    0    0    0  501 -0.00000000000E+00  0.00000000000E+00  0.95610906492E+03  0.95612061688E+03  0.47000000000E+01 0.  1.
          5   -1    0    0  501    0  0.00000000000E+00 -0.00000000000E+00 -0.80270271360E+02  0.80407751270E+02  0.47000000000E+01 0. -1.
          6    1    1    2  502    0 -0.69704710815E+02  0.12762000542E+03  0.13586976811E+03  0.26304031322E+03  0.17200000000E+03 0. -1.
         -6    1    1    2    0  502  0.69704710815E+02 -0.12762000542E+03  0.73996902545E+03  0.77348805493E+03  0.17200000000E+03 0. -1.
</event>
<event>
 4    1 -0.6479440E-004  0.1952976E+03  0.7818608E-02  0.1153768E+00
          5   -1    0    0  501    0  0.00000000000E+00  0.00000000000E+00  0.27754222674E+03  0.27758201963E+03  0.47000000000E+01 0. -1.
         -5   -1    0    0    0  501 -0.00000000000E+00 -0.00000000000E+00 -0.24681582547E+03  0.24686057138E+03  0.47000000000E+01 0.  1.
          6    1    1    2  502    0  0.32558085543E+02 -0.86586007055E+02  0.18996980601E+03  0.27245126674E+03  0.17200000000E+03 0. -1.
         -6    1    1    2    0  502 -0.32558085543E+02  0.86586007055E+02 -0.15924340474E+03  0.25199132427E+03  0.17200000000E+03 0.  1.
</event>
<event>
 4    1 -0.6479440E-004  0.2217015E+03  0.7818608E-02  0.1132621E+00
          5   -1    0    0  501    0  0.00000000000E+00  0.00000000000E+00  0.26663455721E+02  0.27074524391E+02  0.47000000000E+01 0. -1.
         -5   -1    0    0    0  501 -0.00000000000E+00 -0.00000000000E+00 -0.21495176014E+04  0.21495227398E+04  0.47000000000E+01 0.  1.
          6    1    1    2  502    0  0.20290937998E+02 -0.13840459765E+03 -0.64114978518E+03  0.67839855679E+03  0.17200000000E+03 0. -1.
         -6    1    1    2    0  502 -0.20290937998E+02  0.13840459765E+03 -0.14817043606E+04  0.14981987074E+04  0.17200000000E+03 0.  1.
</event>
<event>
 4    1 -0.6479440E-004  0.1793021E+03  0.7818608E-02  0.1168480E+00
          5   -1    0    0  501    0  0.00000000000E+00  0.00000000000E+00  0.48199164700E+03  0.48201456179E+03  0.47000000000E+01 0. -1.
         -5   -1    0    0    0  501 -0.00000000000E+00 -0.00000000000E+00 -0.78238647057E+02  0.78379690567E+02  0.47000000000E+01 0.  1.
          6    1    1    2  502    0 -0.27696253006E+02  0.42404903361E+02  0.30985471156E+03  0.35799329678E+03  0.17200000000E+03 0. -1.
         -6    1    1    2    0  502  0.27696253006E+02 -0.42404903361E+02  0.93898288383E+02  0.20240095558E+03  0.17200000000E+03 0. -1.
</event>
<event>
 4    1 -0.6479440E-004  0.1802380E+03  0.7818608E-02  0.1167573E+00
         -5   -1    0    0    0  501 -0.00000000000E+00  0.00000000000E+00  0.57415899688E+03  0.57417823339E+03  0.47000000000E+01 0.  1.
          5   -1    0    0  501    0  0.00000000000E+00 -0.00000000000E+00 -0.36197049959E+03  0.36200101184E+03  0.47000000000E+01 0. -1.
          6    1    1    2  502    0 -0.53729077130E+02  0.38619502675E+01 -0.32386265360E+03  0.37063829644E+03  0.17200000000E+03 0. -1.
         -6    1    1    2    0  502  0.53729077130E+02 -0.38619502675E+01  0.53605115089E+03  0.56554094879E+03  0.17200000000E+03 0.  1.
</event>
<event>
 4    1 -0.6479440E-004  0.2115255E+03  0.7818608E-02  0.1140364E+00
         -5   -1    0    0    0  501 -0.00000000000E+00  0.00000000000E+00  0.15582636605E+04  0.15582707485E+04  0.47000000000E+01 0.  1.
          5   -1    0    0  501    0  0.00000000000E+00 -0.00000000000E+00 -0.87647034560E+02  0.87772960912E+02  0.47000000000E+01 0. -1.
          6    1    1    2  502    0  0.12113294933E+03 -0.22041659412E+02  0.60299982421E+02  0.21995252679E+03  0.17200000000E+03 0. -1.
         -6    1    1    2    0  502 -0.12113294933E+03  0.22041659412E+02  0.14103166435E+04  0.14260911826E+04  0.17200000000E+03 0.  1.
</event>
<event>
 4    1 -0.6479440E-004  0.1947068E+03  0.7818608E-02  0.1154283E+00
          5   -1    0    0  501    0  0.00000000000E+00  0.00000000000E+00  0.29202185720E+02  0.29577992677E+02  0.47000000000E+01 0. -1.
         -5   -1    0    0    0  501 -0.00000000000E+00 -0.00000000000E+00 -0.13002519905E+04  0.13002604850E+04  0.47000000000E+01 0.  1.
          6    1    1    2  502    0  0.90619590659E+02 -0.10716331443E+02 -0.69587902568E+03  0.72260526455E+03  0.17200000000E+03 0. -1.
         -6    1    1    2    0  502 -0.90619590659E+02  0.10716331443E+02 -0.57517077908E+03  0.60723321309E+03  0.17200000000E+03 0. -1.
</event>
<event>
 4    1 -0.6479440E-004  0.1835027E+03  0.7818608E-02  0.1164455E+00
         -5   -1    0    0    0  501 -0.00000000000E+00  0.00000000000E+00  0.10878907798E+04  0.10879009324E+04  0.47000000000E+01 0.  1.
          5   -1    0    0  501    0  0.00000000000E+00 -0.00000000000E+00 -0.21559959640E+03  0.21565081954E+03  0.47000000000E+01 0. -1.
          6    1    1    2  502    0 -0.62812980822E+02  0.11991028883E+02 -0.16704063619E+03  0.24814477523E+03  0.17200000000E+03 0. -1.
         -6    1    1    2    0  502  0.62812980822E+02 -0.11991028883E+02  0.10393318196E+04  0.10554069767E+04  0.17200000000E+03 0.  1.
</event>
<event>
 4    1 -0.6479440E-004  0.2012612E+03  0.7818608E-02  0.1148679E+00
          5   -1    0    0  501    0  0.00000000000E+00  0.00000000000E+00  0.14366680564E+03  0.14374366435E+03  0.47000000000E+01 0. -1.
         -5   -1    0    0    0  501 -0.00000000000E+00 -0.00000000000E+00 -0.55525077235E+03  0.55527066391E+03  0.47000000000E+01 0.  1.
          6    1    1    2  502    0  0.10290686642E+03 -0.18227133268E+02  0.39470580852E+02  0.20509504698E+03  0.17200000000E+03 0. -1.
         -6    1    1    2    0  502 -0.10290686642E+03  0.18227133268E+02 -0.45105454757E+03  0.49391928128E+03  0.17200000000E+03 0.  1.
</event>
<event>
 4    1 -0.6479440E-004  0.1860996E+03  0.7818608E-02  0.1162027E+00
          5   -1    0    0  501    0  0.00000000000E+00  0.00000000000E+00  0.44852113011E+02  0.45097694415E+02  0.47000000000E+01 0. -1.
         -5   -1    0    0    0  501 -0.00000000000E+00 -0.00000000000E+00 -0.14241844725E+04  0.14241922278E+04  0.47000000000E+01 0.  1.
          6    1    1    2  502    0  0.60396797562E+02  0.37433674853E+02 -0.19173225577E+03  0.26719713896E+03  0.17200000000E+03 0. -1.
         -6    1    1    2    0  502 -0.60396797562E+02 -0.37433674853E+02 -0.11876001037E+04  0.12020927832E+04  0.17200000000E+03 0.  1.
</event>
<event>
 4    1 -0.6479440E-004  0.1890815E+03  0.7818608E-02  0.1159292E+00
         -5   -1    0    0    0  501 -0.00000000000E+00  0.00000000000E+00  0.50801590957E+03  0.50803765055E+03  0.47000000000E+01 0.  1.
          5   -1    0    0  501    0  0.00000000000E+00 -0.00000000000E+00 -0.36650333370E+03  0.36653346861E+03  0.47000000000E+01 0. -1.
          6    1    1    2  502    0 -0.72569567452E+02  0.30024248854E+02 -0.32231577872E+03  0.37368336710E+03  0.17200000000E+03 0. -1.
         -6    1    1    2    0  502  0.72569567452E+02 -0.30024248854E+02  0.46382835459E+03  0.50088775206E+03  0.17200000000E+03 0.  1.
</event>
<event>
 4    1 -0.6479440E-004  0.1760529E+03  0.7818608E-02  0.1171679E+00
         -5   -1    0    0    0  501 -0.00000000000E+00  0.00000000000E+00  0.73546742339E+03  0.73548244090E+03  0.47000000000E+01 0.  1.
          5   -1    0    0  501    0  0.00000000000E+00 -0.00000000000E+00 -0.65229857258E+02  0.65398962361E+02  0.47000000000E+01 0. -1.
          6    1    1    2  502    0 -0.34636573327E+02  0.14523816717E+02  0.96553684893E+02  0.20079155244E+03  0.17200000000E+03 0. -1.
         -6    1    1    2    0  502  0.34636573327E+02 -0.14523816717E+02  0.57368388124E+03  0.60008985082E+03  0.17200000000E+03 0.  1.
</event>
<event>
 4    1 -0.6479440E-004  0.1847274E+03  0.7818608E-02  0.1163305E+00
         -5   -1    0    0    0  501 -0.00000000000E+00  0.00000000000E+00  0.34097891309E+03  0.34101130359E+03  0.47000000000E+01 0.  1.
          5   -1    0    0  501    0  0.00000000000E+00 -0.00000000000E+00 -0.12904670961E+03  0.12913227041E+03  0.47000000000E+01 0. -1.
          6    1    1    2  502    0  0.37101297030E+02  0.56246863664E+02 -0.55324974386E+01  0.18481023901E+03  0.17200000000E+03 0. -1.
         -6    1    1    2    0  502 -0.37101297030E+02 -0.56246863664E+02  0.21746470092E+03  0.28533333499E+03  0.17200000000E+03 0.  1.
</event>
<event>
 4    1 -0.6479440E-004  0.2241930E+03  0.7818608E-02  0.1130795E+00
          5   -1    0    0  501    0  0.00000000000E+00  0.00000000000E+00  0.17376739798E+03  0.17383094834E+03  0.47000000000E+01 0. -1.
         -5   -1    0    0    0  501 -0.00000000000E+00 -0.00000000000E+00 -0.29200905865E+03  0.29204688037E+03  0.47000000000E+01 0.  1.
          6    1    1    2  502    0 -0.13999241686E+03  0.32872934281E+02 -0.35939492617E+02  0.22705539790E+03  0.17200000000E+03 0. -1.
         -6    1    1    2    0  502  0.13999241686E+03 -0.32872934281E+02 -0.82302168053E+02  0.23882243080E+03  0.17200000000E+03 0.  1.
</event>
<event>
 4    1 -0.6479440E-004  0.1789841E+03  0.7818608E-02  0.1168790E+00
          5   -1    0    0  501    0  0.00000000000E+00  0.00000000000E+00  0.21666254906E+03  0.21671352095E+03  0.47000000000E+01 0. -1.
         -5   -1    0    0    0  501 -0.00000000000E+00 -0.00000000000E+00 -0.23996770254E+03  0.24001372516E+03  0.47000000000E+01 0.  1.
          6    1    1    2  502    0  0.41437329646E+02  0.27097206282E+02  0.12987835818E+03  0.22114180700E+03  0.17200000000E+03 0. -1.
         -6    1    1    2    0  502 -0.41437329646E+02 -0.27097206282E+02 -0.15318351167E+03  0.23558543912E+03  0.17200000000E+03 0.  1.
</event>
<event>
 4    1 -0.6479440E-004  0.2109516E+03  0.7818608E-02  0.1140815E+00
         -5   -1    0    0    0  501 -0.00000000000E+00  0.00000000000E+00  0.32265078110E+03  0.32268501135E+03  0.47000000000E+01 0.  1.
          5   -1    0    0  501    0  0.00000000000E+00 -0.00000000000E+00 -0.19655750402E+03  0.19661368820E+03  0.47000000000E+01 0. -1.
          6    1    1    2  502    0  0.69987512073E+02  0.10009167130E+03 -0.78830425965E+02  0.22519953501E+03  0.17200000000E+03 0. -1.
         -6    1    1    2    0  502 -0.69987512073E+02 -0.10009167130E+03  0.20492370305E+03  0.29409916454E+03  0.17200000000E+03 0.  1.
</event>
<event>
 4    1 -0.6479440E-004  0.2682695E+03  0.7818608E-02  0.1102274E+00
          5   -1    0    0  501    0  0.00000000000E+00  0.00000000000E+00  0.65516959917E+03  0.65518645718E+03  0.47000000000E+01 0. -1.
         -5   -1    0    0    0  501 -0.00000000000E+00 -0.00000000000E+00 -0.28057206718E+03  0.28061143042E+03  0.47000000000E+01 0.  1.
          6    1    1    2  502    0  0.11897009012E+03 -0.16801970317E+03  0.55230334587E+03  0.61400935567E+03  0.17200000000E+03 0. -1.
         -6    1    1    2    0  502 -0.11897009012E+03  0.16801970317E+03 -0.17770581388E+03  0.32178853193E+03  0.17200000000E+03 0.  1.
</event>
<event>
 4    1 -0.6479440E-004  0.1767656E+03  0.7818608E-02  0.1170971E+00
         -5   -1    0    0    0  501 -0.00000000000E+00  0.00000000000E+00  0.51718807650E+02  0.51931927219E+02  0.47000000000E+01 0.  1.
          5   -1    0    0  501    0  0.00000000000E+00 -0.00000000000E+00 -0.14035720309E+04  0.14035799001E+04  0.47000000000E+01 0. -1.
          6    1    1    2  502    0  0.16447719686E+02 -0.37303546767E+02 -0.12256168555E+04  0.12382983318E+04  0.17200000000E+03 0. -1.
         -6    1    1    2    0  502 -0.16447719686E+02  0.37303546767E+02 -0.12623636777E+03  0.21721349551E+03  0.17200000000E+03 0.  1.
</event>
<event>
 4    1 -0.6479440E-004  0.2156026E+03  0.7818608E-02  0.1137205E+00
          5   -1    0    0  501    0  0.00000000000E+00  0.00000000000E+00  0.51395531308E+03  0.51397680282E+03  0.47000000000E+01 0. -1.
         -5   -1    0    0    0  501 -0.00000000000E+00 -0.00000000000E+00 -0.71285622958E+03  0.71287172342E+03  0.47000000000E+01 0.  1.
          6    1    1    2  502    0 -0.75772235651E+02 -0.10563639589E+03  0.47374241281E+03  0.52049625697E+03  0.17200000000E+03 0. -1.
         -6    1    1    2    0  502  0.75772235651E+02  0.10563639589E+03 -0.67264332931E+03  0.70635226927E+03  0.17200000000E+03 0.  1.
</event>
<event>
 4    1 -0.6479440E-004  0.2001892E+03  0.7818608E-02  0.1149579E+00
         -5   -1    0    0    0  501 -0.00000000000E+00  0.00000000000E+00  0.42421685703E+03  0.42424289245E+03  0.47000000000E+01 0.  1.
          5   -1    0    0  501    0  0.00000000000E+00 -0.00000000000E+00 -0.11678019657E+03  0.11687473769E+03  0.47000000000E+01 0. -1.
          6    1    1    2  502    0  0.10241125395E+03 -0.19099411428E+01  0.35295836280E+02  0.20327692655E+03  0.17200000000E+03 0. -1.
         -6    1    1    2    0  502 -0.10241125395E+03  0.19099411428E+01  0.27214082418E+03  0.33784070358E+03  0.17200000000E+03 0.  1.
</event>
<event>
 4    1 -0.6479440E-004  0.1777863E+03  0.7818608E-02  0.1169963E+00
         -5   -1    0    0    0  501 -0.00000000000E+00  0.00000000000E+00  0.12706225636E+03  0.12714915254E+03  0.47000000000E+01 0.  1.
          5   -1    0    0  501    0  0.00000000000E+00 -0.00000000000E+00 -0.26945549074E+03  0.26949647770E+03  0.47000000000E+01 0. -1.
          6    1    1    2  502    0  0.33519661592E+02  0.30006784956E+02 -0.12640345196E+03  0.21814171431E+03  0.17200000000E+03 0. -1.
         -6    1    1    2    0  502 -0.33519661592E+02 -0.30006784956E+02 -0.15989782428E+02  0.17850391592E+03  0.17200000000E+03 0.  1.
</event>
<event>
 4    1 -0.6479440E-004  0.2076639E+03  0.7818608E-02  0.1143429E+00
          5   -1    0    0  501    0  0.00000000000E+00  0.00000000000E+00  0.25869585848E+03  0.25873854989E+03  0.47000000000E+01 0. -1.
         -5   -1    0    0    0  501 -0.00000000000E+00 -0.00000000000E+00 -0.85638458733E+03  0.85639748448E+03  0.47000000000E+01 0.  1.
          6    1    1    2  502    0 -0.98714299461E+02  0.61609908619E+02  0.20153156167E+03  0.28937737318E+03  0.17200000000E+03 0. -1.
         -6    1    1    2    0  502  0.98714299461E+02 -0.61609908619E+02 -0.79922029052E+03  0.82575866119E+03  0.17200000000E+03 0.  1.
</event>
<event>
 4    1 -0.6479440E-004  0.1875289E+03  0.7818608E-02  0.1160709E+00
          5   -1    0    0  501    0  0.00000000000E+00  0.00000000000E+00  0.20459889561E+03  0.20465287216E+03  0.47000000000E+01 0. -1.
         -5   -1    0    0    0  501 -0.00000000000E+00 -0.00000000000E+00 -0.17340317700E+03  0.17346686080E+03  0.47000000000E+01 0.  1.
          6    1    1    2  502    0 -0.22893767982E+01  0.74685020717E+02  0.33915341625E+02  0.19057109950E+03  0.17200000000E+03 0. -1.
         -6    1    1    2    0  502  0.22893767982E+01 -0.74685020717E+02 -0.27196230187E+01  0.18754863347E+03  0.17200000000E+03 0.  1.
</event>
<event>
 4    1 -0.6479440E-004  0.1986583E+03  0.7818608E-02  0.1150876E+00
         -5   -1    0    0    0  501 -0.00000000000E+00  0.00000000000E+00  0.29674886509E+02  0.30044781399E+02  0.47000000000E+01 0.  1.
          5   -1    0    0  501    0  0.00000000000E+00 -0.00000000000E+00 -0.13579985335E+04  0.13580066668E+04  0.47000000000E+01 0. -1.
          6    1    1    2  502    0 -0.43891696178E+02  0.89188685222E+02 -0.77822970435E+03  0.80318526835E+03  0.17200000000E+03 0. -1.
         -6    1    1    2    0  502  0.43891696178E+02 -0.89188685222E+02 -0.55009394268E+03  0.58486617985E+03  0.17200000000E+03 0.  1.
</event>
<event>
 4    1 -0.6479440E-004  0.3071203E+03  0.7818608E-02  0.1081734E+00
         -5   -1    0    0    0  501 -0.00000000000E+00  0.00000000000E+00  0.48216669649E+03  0.48218960296E+03  0.47000000000E+01 0.  1.
          5   -1    0    0  501    0  0.00000000000E+00 -0.00000000000E+00 -0.33453638250E+03  0.33456939671E+03  0.47000000000E+01 0. -1.
          6    1    1    2  502    0 -0.23616547642E+03  0.94682250651E+02 -0.18936775791E+03  0.36080882552E+03  0.17200000000E+03 0. -1.
         -6    1    1    2    0  502  0.23616547642E+03 -0.94682250651E+02  0.33699807190E+03  0.45595017415E+03  0.17200000000E+03 0.  1.
</event>
<event>
 4    1 -0.6479440E-004  0.1765379E+03  0.7818608E-02  0.1171196E+00
         -5   -1    0    0    0  501 -0.00000000000E+00  0.00000000000E+00  0.16080332305E+03  0.16087199477E+03  0.47000000000E+01 0.  1.
          5   -1    0    0  501    0  0.00000000000E+00 -0.00000000000E+00 -0.28560066461E+03  0.28563933488E+03  0.47000000000E+01 0. -1.
          6    1    1    2  502    0 -0.38507929422E+02 -0.99377514151E+01 -0.18903441044E+03  0.25864962374E+03  0.17200000000E+03 0. -1.
         -6    1    1    2    0  502  0.38507929422E+02  0.99377514151E+01  0.64237068867E+02  0.18786170591E+03  0.17200000000E+03 0.  1.
</event>
<event>
 4    1 -0.6479440E-004  0.1771273E+03  0.7818608E-02  0.1170613E+00
          5   -1    0    0  501    0  0.00000000000E+00  0.00000000000E+00  0.66086997910E+02  0.66253915301E+02  0.47000000000E+01 0. -1.
         -5   -1    0    0    0  501 -0.00000000000E+00 -0.00000000000E+00 -0.85718086526E+03  0.85719375043E+03  0.47000000000E+01 0.  1.
          6    1    1    2  502    0  0.14327975928E+02 -0.39809561647E+02 -0.86856843794E+02  0.19727697130E+03  0.17200000000E+03 0. -1.
         -6    1    1    2    0  502 -0.14327975928E+02  0.39809561647E+02 -0.70423702356E+03  0.72617069442E+03  0.17200000000E+03 0.  1.
</event>
<event>
 4    1 -0.6479440E-004  0.1758198E+03  0.7818608E-02  0.1171911E+00
          5   -1    0    0  501    0  0.00000000000E+00  0.00000000000E+00  0.28420880830E+03  0.28424766792E+03  0.47000000000E+01 0. -1.
         -5   -1    0    0    0  501 -0.00000000000E+00 -0.00000000000E+00 -0.52707249895E+03  0.52709345390E+03  0.47000000000E+01 0.  1.
          6    1    1    2  502    0 -0.27653382644E+02  0.23746557279E+02  0.23997312323E+03  0.29748900556E+03  0.17200000000E+03 0. -1.
         -6    1    1    2    0  502  0.27653382644E+02 -0.23746557279E+02 -0.48283681387E+03  0.51385211626E+03  0.17200000000E+03 0.  1.
</event>
<event>
 4    1 -0.6479440E-004  0.1730489E+03  0.7818608E-02  0.1174705E+00
          5   -1    0    0  501    0  0.00000000000E+00  0.00000000000E+00  0.61054433982E+03  0.61056242996E+03  0.47000000000E+01 0. -1.
         -5   -1    0    0    0  501 -0.00000000000E+00 -0.00000000000E+00 -0.71159766795E+02  0.71314811998E+02  0.47000000000E+01 0.  1.
          6    1    1    2  502    0 -0.27275210848E+01 -0.18827657415E+02  0.46002966434E+03  0.49150097877E+03  0.17200000000E+03 0. -1.
         -6    1    1    2    0  502  0.27275210848E+01  0.18827657415E+02  0.79354908677E+02  0.19037626319E+03  0.17200000000E+03 0.  1.
</event>
<event>
 4    1 -0.6479440E-004  0.1738092E+03  0.7818608E-02  0.1173933E+00
          5   -1    0    0  501    0  0.00000000000E+00  0.00000000000E+00  0.11060551869E+04  0.11060651728E+04  0.47000000000E+01 0. -1.
         -5   -1    0    0    0  501 -0.00000000000E+00 -0.00000000000E+00 -0.95240426777E+02  0.95356325919E+02  0.47000000000E+01 0.  1.
          6    1    1    2  502    0  0.23514533185E+02 -0.85270256116E+01  0.10127952272E+04  0.10276010002E+04  0.17200000000E+03 0. -1.
         -6    1    1    2    0  502 -0.23514533185E+02  0.85270256116E+01 -0.19804670941E+01  0.17382049847E+03  0.17200000000E+03 0.  1.
</event>
<event>
 4    1 -0.6479440E-004  0.6593457E+03  0.7818608E-02  0.9789399E-01
          5   -1    0    0  501    0  0.00000000000E+00  0.00000000000E+00  0.12914321639E+04  0.12914407164E+04  0.47000000000E+01 0. -1.
         -5   -1    0    0    0  501 -0.00000000000E+00 -0.00000000000E+00 -0.87387552420E+03  0.87388816320E+03  0.47000000000E+01 0.  1.
          6    1    1    2  502    0 -0.59359570426E+03 -0.22977573333E+03  0.10576804965E+04  0.12463646258E+04  0.17200000000E+03 0. -1.
         -6    1    1    2    0  502  0.59359570426E+03  0.22977573333E+03 -0.64012385680E+03  0.91896425381E+03  0.17200000000E+03 0.  1.
</event>
<event>
 4    1 -0.6479440E-004  0.3015612E+03  0.7818608E-02  0.1084463E+00
         -5   -1    0    0    0  501 -0.00000000000E+00  0.00000000000E+00  0.38425664191E+03  0.38428538465E+03  0.47000000000E+01 0.  1.
          5   -1    0    0  501    0  0.00000000000E+00 -0.00000000000E+00 -0.32253438099E+03  0.32256862358E+03  0.47000000000E+01 0. -1.
          6    1    1    2  502    0 -0.15331976824E+03 -0.19454612835E+03 -0.15154716521E+03  0.33749917137E+03  0.17200000000E+03 0. -1.
         -6    1    1    2    0  502  0.15331976824E+03  0.19454612835E+03  0.21326942614E+03  0.36935483686E+03  0.17200000000E+03 0.  1.
</event>
<event>
 4    1 -0.6479440E-004  0.2245615E+03  0.7818608E-02  0.1130527E+00
         -5   -1    0    0    0  501 -0.00000000000E+00  0.00000000000E+00  0.15000101328E+03  0.15007462806E+03  0.47000000000E+01 0.  1.
          5   -1    0    0  501    0  0.00000000000E+00 -0.00000000000E+00 -0.34338533414E+03  0.34341749767E+03  0.47000000000E+01 0. -1.
          6    1    1    2  502    0 -0.80048871960E+02  0.12015009778E+03 -0.13284596340E+03  0.26091362151E+03  0.17200000000E+03 0. -1.
         -6    1    1    2    0  502  0.80048871960E+02 -0.12015009778E+03 -0.60538357452E+02  0.23257850421E+03  0.17200000000E+03 0. -1.
</event>
<event>
 4    1 -0.6479440E-004  0.1750481E+03  0.7818608E-02  0.1172683E+00
          5   -1    0    0  501    0  0.00000000000E+00  0.00000000000E+00  0.13119809227E+03  0.13128225095E+03  0.47000000000E+01 0. -1.
         -5   -1    0    0    0  501 -0.00000000000E+00 -0.00000000000E+00 -0.10403223004E+04  0.10403329173E+04  0.47000000000E+01 0.  1.
          6    1    1    2  502    0  0.30685217998E+02 -0.10782469885E+02  0.61344392131E+02  0.18548579112E+03  0.17200000000E+03 0. -1.
         -6    1    1    2    0  502 -0.30685217998E+02  0.10782469885E+02 -0.97046860027E+03  0.98612937709E+03  0.17200000000E+03 0.  1.
</event>
<event>
 4    1 -0.6479440E-004  0.4960736E+03  0.7818608E-02  0.1014809E+00
          5   -1    0    0  501    0  0.00000000000E+00  0.00000000000E+00  0.12631033788E+04  0.12631121231E+04  0.47000000000E+01 0. -1.
         -5   -1    0    0    0  501 -0.00000000000E+00 -0.00000000000E+00 -0.21782605067E+03  0.21787675037E+03  0.47000000000E+01 0.  1.
          6    1    1    2  502    0  0.37054269808E+03 -0.28143048433E+03  0.76340636145E+03  0.91042752667E+03  0.17200000000E+03 0. -1.
         -6    1    1    2    0  502 -0.37054269808E+03  0.28143048433E+03  0.28187096670E+03  0.57056134682E+03  0.17200000000E+03 0.  1.
</event>
<event>
 4    1 -0.6479440E-004  0.1785654E+03  0.7818608E-02  0.1169199E+00
          5   -1    0    0  501    0  0.00000000000E+00  0.00000000000E+00  0.27076957818E+03  0.27081036625E+03  0.47000000000E+01 0. -1.
         -5   -1    0    0    0  501 -0.00000000000E+00 -0.00000000000E+00 -0.15068354456E+03  0.15075682606E+03  0.47000000000E+01 0.  1.
          6    1    1    2  502    0  0.20989826397E+02  0.43139692117E+02  0.15867537539E+03  0.23887963622E+03  0.17200000000E+03 0. -1.
         -6    1    1    2    0  502 -0.20989826397E+02 -0.43139692117E+02 -0.38589341771E+02  0.18268755608E+03  0.17200000000E+03 0.  1.
</event>
<event>
 4    1 -0.6479440E-004  0.1828301E+03  0.7818608E-02  0.1165092E+00
         -5   -1    0    0    0  501 -0.00000000000E+00  0.00000000000E+00  0.67030218680E+02  0.67194793074E+02  0.47000000000E+01 0.  1.
          5   -1    0    0  501    0  0.00000000000E+00 -0.00000000000E+00 -0.86670495799E+03  0.86671770156E+03  0.47000000000E+01 0. -1.
          6    1    1    2  502    0 -0.19213109873E+02 -0.58938229308E+02 -0.70441324126E+03  0.72775330499E+03  0.17200000000E+03 0. -1.
         -6    1    1    2    0  502  0.19213109873E+02  0.58938229308E+02 -0.95261498053E+02  0.20615918965E+03  0.17200000000E+03 0.  1.
</event>
<event>
 4    1 -0.6479440E-004  0.1750435E+03  0.7818608E-02  0.1172688E+00
         -5   -1    0    0    0  501 -0.00000000000E+00  0.00000000000E+00  0.30650697115E+02  0.31008954089E+02  0.47000000000E+01 0.  1.
          5   -1    0    0  501    0  0.00000000000E+00 -0.00000000000E+00 -0.24952204972E+04  0.24952249237E+04  0.47000000000E+01 0. -1.
          6    1    1    2  502    0 -0.54341647445E+01 -0.32041852745E+02 -0.22121219355E+04  0.22190366531E+04  0.17200000000E+03 0. -1.
         -6    1    1    2    0  502  0.54341647445E+01  0.32041852745E+02 -0.25244786461E+03  0.30719722463E+03  0.17200000000E+03 0.  1.
</event>
<event>
 4    1 -0.6479440E-004  0.1837463E+03  0.7818608E-02  0.1164226E+00
          5   -1    0    0  501    0  0.00000000000E+00  0.00000000000E+00  0.89361138480E+01  0.10096738617E+02  0.47000000000E+01 0. -1.
         -5   -1    0    0    0  501 -0.00000000000E+00 -0.00000000000E+00 -0.35739373790E+04  0.35739404694E+04  0.47000000000E+01 0.  1.
          6    1    1    2  502    0  0.21044170389E+02  0.61121502953E+02 -0.16260019230E+04  0.16363511080E+04  0.17200000000E+03 0. -1.
         -6    1    1    2    0  502 -0.21044170389E+02 -0.61121502953E+02 -0.19389993421E+04  0.19476861000E+04  0.17200000000E+03 0. -1.
</event>
<event>
 4    1 -0.6479440E-004  0.1890386E+03  0.7818608E-02  0.1159331E+00
          5   -1    0    0  501    0  0.00000000000E+00  0.00000000000E+00  0.32701983094E+03  0.32705360391E+03  0.47000000000E+01 0. -1.
         -5   -1    0    0    0  501 -0.00000000000E+00 -0.00000000000E+00 -0.18361802503E+03  0.18367816723E+03  0.47000000000E+01 0.  1.
          6    1    1    2  502    0 -0.41474968493E+02  0.66569014711E+02  0.23423636323E+03  0.30100212722E+03  0.17200000000E+03 0. -1.
         -6    1    1    2    0  502  0.41474968493E+02 -0.66569014711E+02 -0.90834557322E+02  0.20972964391E+03  0.17200000000E+03 0.  1.
</event>
<event>
 4    1 -0.6479440E-004  0.1758928E+03  0.7818608E-02  0.1171838E+00
         -5   -1    0    0    0  501 -0.00000000000E+00  0.00000000000E+00  0.10453548259E+03  0.10464108715E+03  0.47000000000E+01 0.  1.
          5   -1    0    0  501    0  0.00000000000E+00 -0.00000000000E+00 -0.87515021980E+03  0.87516284040E+03  0.47000000000E+01 0. -1.
          6    1    1    2  502    0 -0.28558311162E+02 -0.23209981741E+02 -0.78391794977E+03  0.80340875796E+03  0.17200000000E+03 0. -1.
         -6    1    1    2    0  502  0.28558311162E+02  0.23209981741E+02  0.13303212565E+02  0.17639516959E+03  0.17200000000E+03 0.  1.
</event>
<event>
 4    1 -0.6479440E-004  0.1999373E+03  0.7818608E-02  0.1149792E+00
          5   -1    0    0  501    0  0.00000000000E+00  0.00000000000E+00  0.30110788052E+03  0.30114455950E+03  0.47000000000E+01 0. -1.
         -5   -1    0    0    0  501 -0.00000000000E+00 -0.00000000000E+00 -0.17624294228E+03  0.17630560032E+03  0.47000000000E+01 0.  1.
          6    1    1    2  502    0 -0.19474502878E+02 -0.10005832596E+03  0.18109132193E+03  0.26975728300E+03  0.17200000000E+03 0. -1.
         -6    1    1    2    0  502  0.19474502878E+02  0.10005832596E+03 -0.56226383681E+02  0.20769287681E+03  0.17200000000E+03 0.  1.
</event>
<event>
 4    1 -0.6479440E-004  0.1945990E+03  0.7818608E-02  0.1154378E+00
         -5   -1    0    0    0  501 -0.00000000000E+00  0.00000000000E+00  0.30444349257E+03  0.30447976972E+03  0.47000000000E+01 0.  1.
          5   -1    0    0  501    0  0.00000000000E+00 -0.00000000000E+00 -0.34691647158E+03  0.34694830776E+03  0.47000000000E+01 0. -1.
          6    1    1    2  502    0  0.23172100687E+02 -0.88021689852E+02 -0.28211807761E+03  0.34272346556E+03  0.17200000000E+03 0. -1.
         -6    1    1    2    0  502 -0.23172100687E+02  0.88021689852E+02  0.23964509859E+03  0.30870461191E+03  0.17200000000E+03 0.  1.
</event>
<event>
 4    1 -0.6479440E-004  0.2471042E+03  0.7818608E-02  0.1115149E+00
         -5   -1    0    0    0  501 -0.00000000000E+00  0.00000000000E+00  0.18467880188E+03  0.18473859874E+03  0.47000000000E+01 0.  1.
          5   -1    0    0  501    0  0.00000000000E+00 -0.00000000000E+00 -0.53717429781E+03  0.53719485872E+03  0.47000000000E+01 0. -1.
          6    1    1    2  502    0 -0.16152351831E+03 -0.73393759831E+02 -0.40012860138E+03  0.47028011716E+03  0.17200000000E+03 0. -1.
         -6    1    1    2    0  502  0.16152351831E+03  0.73393759831E+02  0.47633105450E+02  0.25165334030E+03  0.17200000000E+03 0.  1.
</event>
<event>
 4    1 -0.6479440E-004  0.1733446E+03  0.7818608E-02  0.1174404E+00
          5   -1    0    0  501    0  0.00000000000E+00  0.00000000000E+00  0.37329499937E+03  0.37332458606E+03  0.47000000000E+01 0. -1.
         -5   -1    0    0    0  501 -0.00000000000E+00 -0.00000000000E+00 -0.18475517247E+03  0.18481494462E+03  0.47000000000E+01 0.  1.
          6    1    1    2  502    0  0.36529341992E+01 -0.21236609591E+02  0.30393906101E+03  0.34989611362E+03  0.17200000000E+03 0. -1.
         -6    1    1    2    0  502 -0.36529341992E+01  0.21236609591E+02 -0.11539923411E+03  0.20824341706E+03  0.17200000000E+03 0.  1.
</event>
<event>
 4    1 -0.6479440E-004  0.4072056E+03  0.7818608E-02  0.1041313E+00
          5   -1    0    0  501    0  0.00000000000E+00  0.00000000000E+00  0.14606682114E+03  0.14614241765E+03  0.47000000000E+01 0. -1.
         -5   -1    0    0    0  501 -0.00000000000E+00 -0.00000000000E+00 -0.14845425053E+04  0.14845499453E+04  0.47000000000E+01 0.  1.
          6    1    1    2  502    0  0.13780961093E+03 -0.34240463863E+03 -0.27351989827E+03  0.49054006989E+03  0.17200000000E+03 0. -1.
         -6    1    1    2    0  502 -0.13780961093E+03  0.34240463863E+03 -0.10649557859E+04  0.11401522930E+04  0.17200000000E+03 0.  1.
</event>
<event>
 4    1 -0.6479440E-004  0.1968702E+03  0.7818608E-02  0.1152407E+00
         -5   -1    0    0    0  501 -0.00000000000E+00  0.00000000000E+00  0.12071932080E+04  0.12072023572E+04  0.47000000000E+01 0.  1.
          5   -1    0    0  501    0  0.00000000000E+00 -0.00000000000E+00 -0.33865585673E+02  0.34190172462E+02  0.47000000000E+01 0. -1.
          6    1    1    2  502    0 -0.95459868781E+02 -0.78285606349E+01  0.73451905790E+03  0.76044468525E+03  0.17200000000E+03 0. -1.
         -6    1    1    2    0  502  0.95459868781E+02  0.78285606349E+01  0.43880856438E+03  0.48094784446E+03  0.17200000000E+03 0. -1.
</event>
<event>
 4    1 -0.6479440E-004  0.1796424E+03  0.7818608E-02  0.1168150E+00
          5   -1    0    0  501    0  0.00000000000E+00  0.00000000000E+00  0.73791307258E+03  0.73792804032E+03  0.47000000000E+01 0. -1.
         -5   -1    0    0    0  501 -0.00000000000E+00 -0.00000000000E+00 -0.58448842656E+02  0.58637506835E+02  0.47000000000E+01 0.  1.
          6    1    1    2  502    0  0.32835817869E+02  0.40114754466E+02  0.54013280638E+03  0.56922300813E+03  0.17200000000E+03 0. -1.
         -6    1    1    2    0  502 -0.32835817869E+02 -0.40114754466E+02  0.13933142355E+03  0.22734253902E+03  0.17200000000E+03 0.  1.
</event>
<event>
 4    1 -0.6479440E-004  0.1853939E+03  0.7818608E-02  0.1162683E+00
          5   -1    0    0  501    0  0.00000000000E+00  0.00000000000E+00  0.13021122968E+03  0.13029602578E+03  0.47000000000E+01 0. -1.
         -5   -1    0    0    0  501 -0.00000000000E+00 -0.00000000000E+00 -0.58603436170E+03  0.58605320841E+03  0.47000000000E+01 0.  1.
          6    1    1    2  502    0 -0.68090233568E+02  0.12272288771E+02  0.37668901474E+02  0.18918201584E+03  0.17200000000E+03 0. -1.
         -6    1    1    2    0  502  0.68090233568E+02 -0.12272288771E+02 -0.49349203350E+03  0.52716721835E+03  0.17200000000E+03 0.  1.
</event>
<event>
 4    1 -0.6479440E-004  0.1731008E+03  0.7818608E-02  0.1174652E+00
         -5   -1    0    0    0  501 -0.00000000000E+00  0.00000000000E+00  0.36814818514E+03  0.36817818542E+03  0.47000000000E+01 0.  1.
          5   -1    0    0  501    0  0.00000000000E+00 -0.00000000000E+00 -0.41934948017E+03  0.41937581776E+03  0.47000000000E+01 0. -1.
          6    1    1    2  502    0  0.12137077295E+02 -0.15250640557E+02 -0.37911054895E+03  0.41675976174E+03  0.17200000000E+03 0. -1.
         -6    1    1    2    0  502 -0.12137077295E+02  0.15250640557E+02  0.32790925391E+03  0.37079424144E+03  0.17200000000E+03 0.  1.
</event>
<event>
 4    1 -0.6479440E-004  0.4668955E+03  0.7818608E-02  0.1022800E+00
          5   -1    0    0  501    0  0.00000000000E+00  0.00000000000E+00  0.16349881343E+04  0.16349948897E+04  0.47000000000E+01 0. -1.
         -5   -1    0    0    0  501 -0.00000000000E+00 -0.00000000000E+00 -0.55017494540E+03  0.55019502046E+03  0.47000000000E+01 0.  1.
          6    1    1    2  502    0 -0.43402234054E+03 -0.56551091062E+01  0.14934466920E+04  0.15647282174E+04  0.17200000000E+03 0. -1.
         -6    1    1    2    0  502  0.43402234054E+03  0.56551091062E+01 -0.40863350311E+03  0.62046169278E+03  0.17200000000E+03 0.  1.
</event>
<event>
 4    1 -0.6479440E-004  0.1779972E+03  0.7818608E-02  0.1169756E+00
         -5   -1    0    0    0  501 -0.00000000000E+00  0.00000000000E+00  0.27393910729E+03  0.27397942350E+03  0.47000000000E+01 0.  1.
          5   -1    0    0  501    0  0.00000000000E+00 -0.00000000000E+00 -0.11734764349E+03  0.11744172781E+03  0.47000000000E+01 0. -1.
          6    1    1    2  502    0  0.78256955434E+01 -0.45141577771E+02  0.54157448949E+02  0.18605384390E+03  0.17200000000E+03 0. -1.
         -6    1    1    2    0  502 -0.78256955434E+01  0.45141577771E+02  0.10243401486E+03  0.20536730741E+03  0.17200000000E+03 0.  1.
</event>
<event>
 4    1 -0.6479440E-004  0.1867529E+03  0.7818608E-02  0.1161423E+00
          5   -1    0    0  501    0  0.00000000000E+00  0.00000000000E+00  0.19909715232E+03  0.19915262002E+03  0.47000000000E+01 0. -1.
         -5   -1    0    0    0  501 -0.00000000000E+00 -0.00000000000E+00 -0.42804153964E+03  0.42806734243E+03  0.47000000000E+01 0.  1.
          6    1    1    2  502    0  0.58117401721E+02 -0.43760727426E+02  0.12659520077E+03  0.22561688435E+03  0.17200000000E+03 0. -1.
         -6    1    1    2    0  502 -0.58117401721E+02  0.43760727426E+02 -0.35553958808E+03  0.40160307810E+03  0.17200000000E+03 0.  1.
</event>
<event>
 4    1 -0.6479440E-004  0.4175323E+03  0.7818608E-02  0.1037872E+00
         -5   -1    0    0    0  501 -0.00000000000E+00  0.00000000000E+00  0.12817849315E+04  0.12817935484E+04  0.47000000000E+01 0.  1.
          5   -1    0    0  501    0  0.00000000000E+00 -0.00000000000E+00 -0.82498514561E+03  0.82499853362E+03  0.47000000000E+01 0. -1.
          6    1    1    2  502    0 -0.26072825268E+03  0.27707396734E+03 -0.73425786643E+03  0.84467024307E+03  0.17200000000E+03 0. -1.
         -6    1    1    2    0  502  0.26072825268E+03 -0.27707396734E+03  0.11910576523E+04  0.12621218389E+04  0.17200000000E+03 0.  1.
</event>
<event>
 4    1 -0.6479440E-004  0.1958178E+03  0.7818608E-02  0.1153316E+00
         -5   -1    0    0    0  501 -0.00000000000E+00  0.00000000000E+00  0.83754322357E+03  0.83755641085E+03  0.47000000000E+01 0.  1.
          5   -1    0    0  501    0  0.00000000000E+00 -0.00000000000E+00 -0.10457748033E+03  0.10468304252E+03  0.47000000000E+01 0. -1.
          6    1    1    2  502    0  0.12414578996E+02  0.92771248469E+02  0.13144265748E+02  0.19625849800E+03  0.17200000000E+03 0. -1.
         -6    1    1    2    0  502 -0.12414578996E+02 -0.92771248469E+02  0.71982147750E+03  0.74598095537E+03  0.17200000000E+03 0.  1.
</event>
<event>
 4    1 -0.6479440E-004  0.1832585E+03  0.7818608E-02  0.1164686E+00
          5   -1    0    0  501    0  0.00000000000E+00  0.00000000000E+00  0.57330772814E+03  0.57332699321E+03  0.47000000000E+01 0. -1.
         -5   -1    0    0    0  501 -0.00000000000E+00 -0.00000000000E+00 -0.29304261131E+03  0.29308029965E+03  0.47000000000E+01 0.  1.
          6    1    1    2  502    0  0.22049654473E+02  0.59274653667E+02  0.52763335786E+03  0.55855226448E+03  0.17200000000E+03 0. -1.
         -6    1    1    2    0  502 -0.22049654473E+02 -0.59274653667E+02 -0.24736824102E+03  0.30785502838E+03  0.17200000000E+03 0.  1.
</event>
<event>
 4    1 -0.6479440E-004  0.2755270E+03  0.7818608E-02  0.1098157E+00
         -5   -1    0    0    0  501 -0.00000000000E+00  0.00000000000E+00  0.16666791012E+04  0.16666857282E+04  0.47000000000E+01 0.  1.
          5   -1    0    0  501    0  0.00000000000E+00 -0.00000000000E+00 -0.46027122563E+02  0.46266467463E+02  0.47000000000E+01 0. -1.
          6    1    1    2  502    0  0.64740093563E+02  0.20527998628E+03  0.71228555876E+03  0.76371844923E+03  0.17200000000E+03 0. -1.
         -6    1    1    2    0  502 -0.64740093563E+02 -0.20527998628E+03  0.90836641989E+03  0.94923374638E+03  0.17200000000E+03 0.  1.
</event>
<event>
 4    1 -0.6479440E-004  0.1794951E+03  0.7818608E-02  0.1168293E+00
          5   -1    0    0  501    0  0.00000000000E+00  0.00000000000E+00  0.17609450412E+03  0.17615721496E+03  0.47000000000E+01 0. -1.
         -5   -1    0    0    0  501 -0.00000000000E+00 -0.00000000000E+00 -0.32518946446E+03  0.32522342750E+03  0.47000000000E+01 0.  1.
          6    1    1    2  502    0  0.10209768184E+02  0.50301498629E+02  0.91289070696E+02  0.20137570499E+03  0.17200000000E+03 0. -1.
         -6    1    1    2    0  502 -0.10209768184E+02 -0.50301498629E+02 -0.24038403103E+03  0.30000493747E+03  0.17200000000E+03 0.  1.
</event>
<event>
 4    1 -0.6479440E-004  0.2248274E+03  0.7818608E-02  0.1130334E+00
          5   -1    0    0  501    0  0.00000000000E+00  0.00000000000E+00  0.32800286877E+03  0.32803654053E+03  0.47000000000E+01 0. -1.
         -5   -1    0    0    0  501 -0.00000000000E+00 -0.00000000000E+00 -0.83340267203E+03  0.83341592482E+03  0.47000000000E+01 0.  1.
          6    1    1    2  502    0 -0.12741830356E+03 -0.68759944697E+02  0.27159847566E+03  0.35258060930E+03  0.17200000000E+03 0. -1.
         -6    1    1    2    0  502  0.12741830356E+03  0.68759944697E+02 -0.77699827892E+03  0.80887185605E+03  0.17200000000E+03 0.  1.
</event>
<event>
 4    1 -0.6479440E-004  0.1900033E+03  0.7818608E-02  0.1158458E+00
          5   -1    0    0  501    0  0.00000000000E+00  0.00000000000E+00  0.16559920995E+03  0.16566589370E+03  0.47000000000E+01 0. -1.
         -5   -1    0    0    0  501 -0.00000000000E+00 -0.00000000000E+00 -0.33554846589E+03  0.33558138053E+03  0.47000000000E+01 0.  1.
          6    1    1    2  502    0  0.16204760082E+01 -0.80713236622E+02  0.63422895839E+02  0.20030905178E+03  0.17200000000E+03 0. -1.
         -6    1    1    2    0  502 -0.16204760082E+01  0.80713236622E+02 -0.23337215178E+03  0.30093822246E+03  0.17200000000E+03 0.  1.
</event>
<event>
 4    1 -0.6479440E-004  0.4041640E+03  0.7818608E-02  0.1042347E+00
          5   -1    0    0  501    0  0.00000000000E+00  0.00000000000E+00  0.58780410529E+03  0.58782289526E+03  0.47000000000E+01 0. -1.
         -5   -1    0    0    0  501 -0.00000000000E+00 -0.00000000000E+00 -0.28667617652E+03  0.28671470172E+03  0.47000000000E+01 0.  1.
          6    1    1    2  502    0  0.35963315672E+03  0.66547260147E+02  0.22726800280E+03  0.46368015953E+03  0.17200000000E+03 0. -1.
         -6    1    1    2    0  502 -0.35963315672E+03 -0.66547260147E+02  0.73859925969E+02  0.41085743745E+03  0.17200000000E+03 0.  1.
</event>
<event>
 4    1 -0.6479440E-004  0.1759696E+03  0.7818608E-02  0.1171762E+00
          5   -1    0    0  501    0  0.00000000000E+00  0.00000000000E+00  0.81147375420E+03  0.81148736512E+03  0.47000000000E+01 0. -1.
         -5   -1    0    0    0  501 -0.00000000000E+00 -0.00000000000E+00 -0.28718474520E+03  0.28722320219E+03  0.47000000000E+01 0.  1.
          6    1    1    2  502    0 -0.59663409888E+01  0.36683719839E+02  0.77370682022E+03  0.79346552299E+03  0.17200000000E+03 0. -1.
         -6    1    1    2    0  502  0.59663409888E+01 -0.36683719839E+02 -0.24941781122E+03  0.30524504432E+03  0.17200000000E+03 0.  1.
</event>
<event>
 4    1 -0.6479440E-004  0.3335375E+03  0.7818608E-02  0.1069582E+00
          5   -1    0    0  501    0  0.00000000000E+00  0.00000000000E+00  0.46549369677E+03  0.46551742366E+03  0.47000000000E+01 0. -1.
         -5   -1    0    0    0  501 -0.00000000000E+00 -0.00000000000E+00 -0.25428083490E+03  0.25432426742E+03  0.47000000000E+01 0.  1.
          6    1    1    2  502    0 -0.16815781210E+03  0.23105463937E+03  0.19401396777E+03  0.38586100585E+03  0.17200000000E+03 0. -1.
         -6    1    1    2    0  502  0.16815781210E+03 -0.23105463937E+03  0.17198894095E+02  0.33398068523E+03  0.17200000000E+03 0.  1.
</event>
<event>
 4    1 -0.6479440E-004  0.1929532E+03  0.7818608E-02  0.1155824E+00
          5   -1    0    0  501    0  0.00000000000E+00  0.00000000000E+00  0.19152973202E+04  0.19153030869E+04  0.47000000000E+01 0. -1.
         -5   -1    0    0    0  501 -0.00000000000E+00 -0.00000000000E+00 -0.12497551926E+03  0.12506386534E+03  0.47000000000E+01 0.  1.
          6    1    1    2  502    0  0.80335500641E+02 -0.34541964073E+02  0.18326879190E+04  0.18428173942E+04  0.17200000000E+03 0. -1.
         -6    1    1    2    0  502 -0.80335500641E+02  0.34541964073E+02 -0.42366118020E+02  0.19754955809E+03  0.17200000000E+03 0.  1.
</event>
<event>
 4    1 -0.6479440E-004  0.1737421E+03  0.7818608E-02  0.1174001E+00
          5   -1    0    0  501    0  0.00000000000E+00  0.00000000000E+00  0.87658012455E+02  0.87783923059E+02  0.47000000000E+01 0. -1.
         -5   -1    0    0    0  501 -0.00000000000E+00 -0.00000000000E+00 -0.61028443216E+03  0.61030253001E+03  0.47000000000E+01 0.  1.
          6    1    1    2  502    0  0.24541713035E+02 -0.12705479190E+00 -0.30770040318E+02  0.17644576278E+03  0.17200000000E+03 0. -1.
         -6    1    1    2    0  502 -0.24541713035E+02  0.12705479190E+00 -0.49185637939E+03  0.52164069029E+03  0.17200000000E+03 0.  1.
</event>
<event>
 4    1 -0.6479440E-004  0.1989592E+03  0.7818608E-02  0.1150620E+00
          5   -1    0    0  501    0  0.00000000000E+00  0.00000000000E+00  0.20422166377E+03  0.20427574001E+03  0.47000000000E+01 0. -1.
         -5   -1    0    0    0  501 -0.00000000000E+00 -0.00000000000E+00 -0.21496274838E+03  0.21501412323E+03  0.47000000000E+01 0.  1.
          6    1    1    2  502    0 -0.16210693906E+02  0.98681146977E+02  0.60510012793E+02  0.20795724804E+03  0.17200000000E+03 0. -1.
         -6    1    1    2    0  502  0.16210693906E+02 -0.98681146977E+02 -0.71251097397E+02  0.21133261520E+03  0.17200000000E+03 0.  1.
</event>
<event>
 4    1 -0.6479440E-004  0.2025971E+03  0.7818608E-02  0.1147566E+00
         -5   -1    0    0    0  501 -0.00000000000E+00  0.00000000000E+00  0.15631246343E+03  0.15638310722E+03  0.47000000000E+01 0.  1.
          5   -1    0    0  501    0  0.00000000000E+00 -0.00000000000E+00 -0.98091373551E+03  0.98092499536E+03  0.47000000000E+01 0. -1.
          6    1    1    2  502    0  0.50386820345E+02  0.94460361885E+02 -0.89895195401E+03  0.92149889161E+03  0.17200000000E+03 0. -1.
         -6    1    1    2    0  502 -0.50386820345E+02 -0.94460361885E+02  0.74350681928E+02  0.21580921096E+03  0.17200000000E+03 0.  1.
</event>
<event>
 4    1 -0.6479440E-004  0.2027192E+03  0.7818608E-02  0.1147465E+00
          5   -1    0    0  501    0  0.00000000000E+00  0.00000000000E+00  0.70040137991E+02  0.70197656156E+02  0.47000000000E+01 0. -1.
         -5   -1    0    0    0  501 -0.00000000000E+00 -0.00000000000E+00 -0.61985843867E+03  0.61987625700E+03  0.47000000000E+01 0.  1.
          6    1    1    2  502    0 -0.76668809339E+02 -0.75053129203E+02 -0.19417322225E+03  0.28071038236E+03  0.17200000000E+03 0. -1.
         -6    1    1    2    0  502  0.76668809339E+02  0.75053129203E+02 -0.35564507843E+03  0.40936353079E+03  0.17200000000E+03 0.  1.
</event>
<event>
 4    1 -0.6479440E-004  0.1865499E+03  0.7818608E-02  0.1161610E+00
          5   -1    0    0  501    0  0.00000000000E+00  0.00000000000E+00  0.19922509709E+03  0.19928052918E+03  0.47000000000E+01 0. -1.
         -5   -1    0    0    0  501 -0.00000000000E+00 -0.00000000000E+00 -0.30502362145E+03  0.30505982962E+03  0.47000000000E+01 0.  1.
          6    1    1    2  502    0 -0.27164291474E+02 -0.66925042141E+02  0.11198554049E+03  0.21758129808E+03  0.17200000000E+03 0. -1.
         -6    1    1    2    0  502  0.27164291474E+02  0.66925042141E+02 -0.21778406485E+03  0.28675906071E+03  0.17200000000E+03 0.  1.
</event>
<event>
 4    1 -0.6479440E-004  0.2227968E+03  0.7818608E-02  0.1131815E+00
         -5   -1    0    0    0  501 -0.00000000000E+00  0.00000000000E+00  0.96054723714E+03  0.96055873573E+03  0.47000000000E+01 0.  1.
          5   -1    0    0  501    0  0.00000000000E+00 -0.00000000000E+00 -0.24029910543E+03  0.24034506459E+03  0.47000000000E+01 0. -1.
          6    1    1    2  502    0  0.48514910937E+02 -0.13304407907E+03 -0.17187033664E+03  0.28138556497E+03  0.17200000000E+03 0. -1.
         -6    1    1    2    0  502 -0.48514910937E+02  0.13304407907E+03  0.89211846835E+03  0.91951823534E+03  0.17200000000E+03 0.  1.
</event>
<event>
 4    1 -0.6479440E-004  0.3859906E+03  0.7818608E-02  0.1048742E+00
          5   -1    0    0  501    0  0.00000000000E+00  0.00000000000E+00  0.87513617448E+03  0.87514879529E+03  0.47000000000E+01 0. -1.
         -5   -1    0    0    0  501 -0.00000000000E+00 -0.00000000000E+00 -0.62046778517E+03  0.62048558600E+03  0.47000000000E+01 0.  1.
          6    1    1    2  502    0 -0.33379367487E+03  0.89367428600E+02  0.76435312895E+03  0.85628526813E+03  0.17200000000E+03 0. -1.
         -6    1    1    2    0  502  0.33379367487E+03 -0.89367428600E+02 -0.50968473964E+03  0.63934911316E+03  0.17200000000E+03 0.  1.
</event>
<event>
 4    1 -0.6479440E-004  0.2615584E+03  0.7818608E-02  0.1106211E+00
          5   -1    0    0  501    0  0.00000000000E+00  0.00000000000E+00  0.78828795451E+02  0.78968784923E+02  0.47000000000E+01 0. -1.
         -5   -1    0    0    0  501 -0.00000000000E+00 -0.00000000000E+00 -0.17732619119E+04  0.17732681406E+04  0.47000000000E+01 0.  1.
          6    1    1    2  502    0  0.61922403574E+02 -0.18706786576E+03 -0.18515115632E+03  0.32045861066E+03  0.17200000000E+03 0. -1.
         -6    1    1    2    0  502 -0.61922403574E+02  0.18706786576E+03 -0.15092819602E+04  0.15317783148E+04  0.17200000000E+03 0.  1.
</event>
<event>
 4    1 -0.6479440E-004  0.1769194E+03  0.7818608E-02  0.1170818E+00
          5   -1    0    0  501    0  0.00000000000E+00  0.00000000000E+00  0.13921457786E+03  0.13929389322E+03  0.47000000000E+01 0. -1.
         -5   -1    0    0    0  501 -0.00000000000E+00 -0.00000000000E+00 -0.22472134947E+03  0.22477049385E+03  0.47000000000E+01 0.  1.
          6    1    1    2  502    0  0.11284963058E+02 -0.39863757586E+02 -0.45551570871E+02  0.18268939534E+03  0.17200000000E+03 0.  1.
         -6    1    1    2    0  502 -0.11284963058E+02  0.39863757586E+02 -0.39955200740E+02  0.18137499173E+03  0.17200000000E+03 0. -1.
</event>
<event>
 4    1 -0.6479440E-004  0.1920772E+03  0.7818608E-02  0.1156601E+00
          5   -1    0    0  501    0  0.00000000000E+00  0.00000000000E+00  0.33197231510E+03  0.33200558428E+03  0.47000000000E+01 0. -1.
         -5   -1    0    0    0  501 -0.00000000000E+00 -0.00000000000E+00 -0.15039618898E+03  0.15046961042E+03  0.47000000000E+01 0.  1.
          6    1    1    2  502    0 -0.19124183675E+02 -0.83330205016E+02  0.21413437389E+03  0.28765810878E+03  0.17200000000E+03 0. -1.
         -6    1    1    2    0  502  0.19124183675E+02  0.83330205016E+02 -0.32558247762E+02  0.19481708592E+03  0.17200000000E+03 0.  1.
</event>
<event>
 4    1 -0.6479440E-004  0.2736949E+03  0.7818608E-02  0.1099183E+00
          5   -1    0    0  501    0  0.00000000000E+00  0.00000000000E+00  0.12999466389E+03  0.13007960116E+03  0.47000000000E+01 0. -1.
         -5   -1    0    0    0  501 -0.00000000000E+00 -0.00000000000E+00 -0.61864265675E+03  0.61866051009E+03  0.47000000000E+01 0.  1.
          6    1    1    2  502    0  0.16593535162E+03  0.13338049075E+03 -0.34264680184E+03  0.43853817056E+03  0.17200000000E+03 0.  1.
         -6    1    1    2    0  502 -0.16593535162E+03 -0.13338049075E+03 -0.14600119102E+03  0.31020194069E+03  0.17200000000E+03 0. -1.
</event>
<event>
 4    1 -0.6479440E-004  0.2381520E+03  0.7818608E-02  0.1121030E+00
          5   -1    0    0  501    0  0.00000000000E+00  0.00000000000E+00  0.82020272542E+03  0.82021619150E+03  0.47000000000E+01 0. -1.
         -5   -1    0    0    0  501 -0.00000000000E+00 -0.00000000000E+00 -0.41505321727E+03  0.41507982746E+03  0.47000000000E+01 0.  1.
          6    1    1    2  502    0  0.13391849703E+03  0.95907309790E+02  0.76643321608E+03  0.80258099319E+03  0.17200000000E+03 0. -1.
         -6    1    1    2    0  502 -0.13391849703E+03 -0.95907309790E+02 -0.36128370792E+03  0.43271502577E+03  0.17200000000E+03 0.  1.
</event>
<event>
 4    1 -0.6479440E-004  0.1791104E+03  0.7818608E-02  0.1168667E+00
          5   -1    0    0  501    0  0.00000000000E+00  0.00000000000E+00  0.27127699829E+03  0.27131771008E+03  0.47000000000E+01 0. -1.
         -5   -1    0    0    0  501 -0.00000000000E+00 -0.00000000000E+00 -0.73809883764E+03  0.73811380161E+03  0.47000000000E+01 0.  1.
          6    1    1    2  502    0 -0.49847901740E+02 -0.34249893921E+01  0.22911457630E+03  0.29081614971E+03  0.17200000000E+03 0. -1.
         -6    1    1    2    0  502  0.49847901740E+02  0.34249893921E+01 -0.69593641564E+03  0.71861536198E+03  0.17200000000E+03 0.  1.
</event>
<event>
 4    1 -0.6479440E-004  0.1750466E+03  0.7818608E-02  0.1172685E+00
         -5   -1    0    0    0  501 -0.00000000000E+00  0.00000000000E+00  0.13572617020E+03  0.13580752290E+03  0.47000000000E+01 0.  1.
          5   -1    0    0  501    0  0.00000000000E+00 -0.00000000000E+00 -0.48680485176E+03  0.48682753999E+03  0.47000000000E+01 0. -1.
          6    1    1    2  502    0 -0.26086741096E+02 -0.19411075956E+02 -0.40356152751E+03  0.43989000263E+03  0.17200000000E+03 0. -1.
         -6    1    1    2    0  502  0.26086741096E+02  0.19411075956E+02  0.52482845954E+02  0.18274506026E+03  0.17200000000E+03 0.  1.
</event>
<event>
 4    1 -0.6479440E-004  0.2286605E+03  0.7818608E-02  0.1127586E+00
         -5   -1    0    0    0  501 -0.00000000000E+00  0.00000000000E+00  0.16729539903E+03  0.16736140695E+03  0.47000000000E+01 0.  1.
          5   -1    0    0  501    0  0.00000000000E+00 -0.00000000000E+00 -0.39507297580E+03  0.39510093167E+03  0.47000000000E+01 0. -1.
          6    1    1    2  502    0 -0.14494421699E+03  0.41143634401E+02 -0.24253017421E+03  0.33332643173E+03  0.17200000000E+03 0. -1.
         -6    1    1    2    0  502  0.14494421699E+03 -0.41143634401E+02  0.14752597437E+02  0.22913590688E+03  0.17200000000E+03 0. -1.
</event>
<event>
 4    1 -0.6479440E-004  0.1750765E+03  0.7818608E-02  0.1172655E+00
         -5   -1    0    0    0  501 -0.00000000000E+00  0.00000000000E+00  0.27825523879E+03  0.27829492974E+03  0.47000000000E+01 0.  1.
          5   -1    0    0  501    0  0.00000000000E+00 -0.00000000000E+00 -0.28050174882E+03  0.28054112192E+03  0.47000000000E+01 0. -1.
          6    1    1    2  502    0  0.25984516136E+02 -0.19813545515E+02 -0.21888956587E+03  0.28029344215E+03  0.17200000000E+03 0. -1.
         -6    1    1    2    0  502 -0.25984516136E+02  0.19813545515E+02  0.21664305585E+03  0.27854260951E+03  0.17200000000E+03 0.  1.
</event>
<event>
 4    1 -0.6479440E-004  0.2572041E+03  0.7818608E-02  0.1108835E+00
          5   -1    0    0  501    0  0.00000000000E+00  0.00000000000E+00  0.15119109011E+03  0.15126412572E+03  0.47000000000E+01 0. -1.
         -5   -1    0    0    0  501 -0.00000000000E+00 -0.00000000000E+00 -0.48493769311E+03  0.48496046870E+03  0.47000000000E+01 0.  1.
          6    1    1    2  502    0  0.15526793993E+03 -0.11163259033E+03 -0.67242758875E+02  0.26584874838E+03  0.17200000000E+03 0. -1.
         -6    1    1    2    0  502 -0.15526793993E+03  0.11163259033E+03 -0.26650384413E+03  0.37037584604E+03  0.17200000000E+03 0.  1.
</event>
<event>
 4    1 -0.6479440E-004  0.1972096E+03  0.7818608E-02  0.1152115E+00
          5   -1    0    0  501    0  0.00000000000E+00  0.00000000000E+00  0.31690890652E+03  0.31694375689E+03  0.47000000000E+01 0. -1.
         -5   -1    0    0    0  501 -0.00000000000E+00 -0.00000000000E+00 -0.30271097512E+03  0.30274745987E+03  0.47000000000E+01 0.  1.
          6    1    1    2  502    0 -0.94172460339E+02  0.20956256977E+02  0.24603882850E+03  0.31532003127E+03  0.17200000000E+03 0. -1.
         -6    1    1    2    0  502  0.94172460339E+02 -0.20956256977E+02 -0.23184089709E+03  0.30437118549E+03  0.17200000000E+03 0.  1.
</event>
<event>
 4    1 -0.6479440E-004  0.3202071E+03  0.7818608E-02  0.1075554E+00
          5   -1    0    0  501    0  0.00000000000E+00  0.00000000000E+00  0.22784238902E+04  0.22784287378E+04  0.47000000000E+01 0. -1.
         -5   -1    0    0    0  501 -0.00000000000E+00 -0.00000000000E+00 -0.76434083773E+02  0.76578451031E+02  0.47000000000E+01 0.  1.
          6    1    1    2  502    0  0.18890208633E+03  0.19304046272E+03  0.18566462738E+04  0.18840562636E+04  0.17200000000E+03 0. -1.
         -6    1    1    2    0  502 -0.18890208633E+03 -0.19304046272E+03  0.34534353260E+03  0.47095092523E+03  0.17200000000E+03 0.  1.
</event>
<event>
 4    1 -0.6479440E-004  0.2051214E+03  0.7818608E-02  0.1145489E+00
          5   -1    0    0  501    0  0.00000000000E+00  0.00000000000E+00  0.37102168783E+03  0.37105145578E+03  0.47000000000E+01 0. -1.
         -5   -1    0    0    0  501 -0.00000000000E+00 -0.00000000000E+00 -0.25286851791E+03  0.25291219297E+03  0.47000000000E+01 0.  1.
          6    1    1    2  502    0  0.70664713420E+02  0.86586809128E+02  0.29079431063E+03  0.35585967506E+03  0.17200000000E+03 0. -1.
         -6    1    1    2    0  502 -0.70664713420E+02 -0.86586809128E+02 -0.17264114072E+03  0.26810397369E+03  0.17200000000E+03 0.  1.
</event>
<event>
 4    1 -0.6479440E-004  0.2121147E+03  0.7818608E-02  0.1139902E+00
          5   -1    0    0  501    0  0.00000000000E+00  0.00000000000E+00  0.82362728769E+02  0.82496721694E+02  0.47000000000E+01 0. -1.
         -5   -1    0    0    0  501 -0.00000000000E+00 -0.00000000000E+00 -0.11506837411E+04  0.11506933397E+04  0.47000000000E+01 0.  1.
          6    1    1    2  502    0  0.10384749844E+03 -0.68002387498E+02 -0.87095370012E+02  0.22929943549E+03  0.17200000000E+03 0. -1.
         -6    1    1    2    0  502 -0.10384749844E+03  0.68002387498E+02 -0.98122564232E+03  0.10038906259E+04  0.17200000000E+03 0.  1.
</event>
<event>
 4    1 -0.6479440E-004  0.3029013E+03  0.7818608E-02  0.1083799E+00
         -5   -1    0    0    0  501 -0.00000000000E+00  0.00000000000E+00  0.81474433780E+03  0.81475789409E+03  0.47000000000E+01 0.  1.
          5   -1    0    0  501    0  0.00000000000E+00 -0.00000000000E+00 -0.12834325138E+03  0.12842928083E+03  0.47000000000E+01 0. -1.
          6    1    1    2  502    0  0.97353134403E+02 -0.22953766004E+03  0.17782415099E+03  0.35124151068E+03  0.17200000000E+03 0. -1.
         -6    1    1    2    0  502 -0.97353134403E+02  0.22953766004E+03  0.50857693543E+03  0.59194566424E+03  0.17200000000E+03 0.  1.
</event>
<event>
 4    1 -0.6479440E-004  0.1764294E+03  0.7818608E-02  0.1171304E+00
          5   -1    0    0  501    0  0.00000000000E+00  0.00000000000E+00  0.16764986217E+04  0.16765052098E+04  0.47000000000E+01 0. -1.
         -5   -1    0    0    0  501 -0.00000000000E+00 -0.00000000000E+00 -0.42610303653E+03  0.42612895671E+03  0.47000000000E+01 0.  1.
          6    1    1    2  502    0 -0.15003742953E+01 -0.39256654015E+02  0.16533560242E+04  0.16627427578E+04  0.17200000000E+03 0. -1.
         -6    1    1    2    0  502  0.15003742953E+01  0.39256654015E+02 -0.40296043903E+03  0.43989140868E+03  0.17200000000E+03 0.  1.
</event>
<event>
 4    1 -0.6479440E-004  0.1743802E+03  0.7818608E-02  0.1173355E+00
          5   -1    0    0  501    0  0.00000000000E+00  0.00000000000E+00  0.47730193138E+03  0.47732507131E+03  0.47000000000E+01 0. -1.
         -5   -1    0    0    0  501 -0.00000000000E+00 -0.00000000000E+00 -0.65698187716E+03  0.65699868867E+03  0.47000000000E+01 0.  1.
          6    1    1    2  502    0 -0.21361353028E+02  0.19187057429E+02  0.44912340177E+03  0.48178862647E+03  0.17200000000E+03 0. -1.
         -6    1    1    2    0  502  0.21361353028E+02 -0.19187057429E+02 -0.62880334755E+03  0.65253513351E+03  0.17200000000E+03 0.  1.
</event>
<event>
 4    1 -0.6479440E-004  0.2082751E+03  0.7818608E-02  0.1142939E+00
         -5   -1    0    0    0  501 -0.00000000000E+00  0.00000000000E+00  0.76232295217E+03  0.76233744064E+03  0.47000000000E+01 0.  1.
          5   -1    0    0  501    0  0.00000000000E+00 -0.00000000000E+00 -0.53509513352E+03  0.53511577431E+03  0.47000000000E+01 0. -1.
          6    1    1    2  502    0 -0.62130365284E+02  0.99671055472E+02 -0.49965202962E+03  0.54132305723E+03  0.17200000000E+03 0. -1.
         -6    1    1    2    0  502  0.62130365284E+02 -0.99671055472E+02  0.72687984827E+03  0.75613015771E+03  0.17200000000E+03 0.  1.
</event>
<event>
 4    1 -0.6479440E-004  0.2403552E+03  0.7818608E-02  0.1119556E+00
         -5   -1    0    0    0  501 -0.00000000000E+00  0.00000000000E+00  0.50635621268E+03  0.50637802491E+03  0.47000000000E+01 0.  1.
          5   -1    0    0  501    0  0.00000000000E+00 -0.00000000000E+00 -0.42269383001E+03  0.42271995923E+03  0.47000000000E+01 0. -1.
          6    1    1    2  502    0  0.12850428823E+03  0.10804295821E+03 -0.35511071122E+03  0.42880560880E+03  0.17200000000E+03 0. -1.
         -6    1    1    2    0  502 -0.12850428823E+03 -0.10804295821E+03  0.43877309388E+03  0.50029237535E+03  0.17200000000E+03 0.  1.
</event>
<event>
 4    1 -0.6479440E-004  0.2138299E+03  0.7818608E-02  0.1138568E+00
         -5   -1    0    0    0  501 -0.00000000000E+00  0.00000000000E+00  0.63082124208E+03  0.63083875076E+03  0.47000000000E+01 0.  1.
          5   -1    0    0  501    0  0.00000000000E+00 -0.00000000000E+00 -0.35893263727E+03  0.35896340774E+03  0.47000000000E+01 0. -1.
          6    1    1    2  502    0  0.91856087128E+02  0.87759340358E+02 -0.30617813014E+03  0.37345453530E+03  0.17200000000E+03 0. -1.
         -6    1    1    2    0  502 -0.91856087128E+02 -0.87759340358E+02  0.57806673496E+03  0.61634762320E+03  0.17200000000E+03 0.  1.
</event>
<event>
 4    1 -0.6479440E-004  0.2156352E+03  0.7818608E-02  0.1137180E+00
          5   -1    0    0  501    0  0.00000000000E+00  0.00000000000E+00  0.37189467119E+03  0.37192436927E+03  0.47000000000E+01 0. -1.
         -5   -1    0    0    0  501 -0.00000000000E+00 -0.00000000000E+00 -0.48705081147E+03  0.48707348825E+03  0.47000000000E+01 0.  1.
          6    1    1    2  502    0 -0.88600946221E+02 -0.95207134442E+02  0.31271890708E+03  0.37985739557E+03  0.17200000000E+03 0. -1.
         -6    1    1    2    0  502  0.88600946221E+02  0.95207134442E+02 -0.42787504736E+03  0.47914046195E+03  0.17200000000E+03 0.  1.
</event>
<event>
 4    1 -0.6479440E-004  0.5006036E+03  0.7818608E-02  0.1013621E+00
         -5   -1    0    0    0  501 -0.00000000000E+00  0.00000000000E+00  0.11334750156E+04  0.11334847599E+04  0.47000000000E+01 0.  1.
          5   -1    0    0  501    0  0.00000000000E+00 -0.00000000000E+00 -0.56278755209E+03  0.56280717727E+03  0.47000000000E+01 0. -1.
          6    1    1    2  502    0 -0.14344275023E+03  0.44770988507E+03 -0.37553618339E+03  0.62580459316E+03  0.17200000000E+03 0. -1.
         -6    1    1    2    0  502  0.14344275023E+03 -0.44770988507E+03  0.94622364691E+03  0.10704873440E+04  0.17200000000E+03 0.  1.
</event>
<event>
 4    1 -0.6479440E-004  0.1917965E+03  0.7818608E-02  0.1156851E+00
          5   -1    0    0  501    0  0.00000000000E+00  0.00000000000E+00  0.71355337567E+03  0.71356885437E+03  0.47000000000E+01 0. -1.
         -5   -1    0    0    0  501 -0.00000000000E+00 -0.00000000000E+00 -0.45541826419E+03  0.45544251598E+03  0.47000000000E+01 0.  1.
          6    1    1    2  502    0  0.84625789787E+02  0.63537387779E+01  0.67949957742E+03  0.70604926882E+03  0.17200000000E+03 0. -1.
         -6    1    1    2    0  502 -0.84625789787E+02 -0.63537387779E+01 -0.42136446594E+03  0.46296210153E+03  0.17200000000E+03 0.  1.
</event>
<event>
 4    1 -0.6479440E-004  0.2384824E+03  0.7818608E-02  0.1120808E+00
          5   -1    0    0  501    0  0.00000000000E+00  0.00000000000E+00  0.10877715171E+04  0.10877816708E+04  0.47000000000E+01 0. -1.
         -5   -1    0    0    0  501 -0.00000000000E+00 -0.00000000000E+00 -0.92968386381E+02  0.93087114395E+02  0.47000000000E+01 0.  1.
          6    1    1    2  502    0 -0.16233155407E+03 -0.30632312177E+02  0.88817366880E+03  0.91963380644E+03  0.17200000000E+03 0. -1.
         -6    1    1    2    0  502  0.16233155407E+03  0.30632312177E+02  0.10662946192E+03  0.26123497880E+03  0.17200000000E+03 0.  1.
</event>
<event>
 4    1 -0.6479440E-004  0.1914618E+03  0.7818608E-02  0.1157149E+00
         -5   -1    0    0    0  501 -0.00000000000E+00  0.00000000000E+00  0.47719825248E+03  0.47722139744E+03  0.47000000000E+01 0.  1.
          5   -1    0    0  501    0  0.00000000000E+00 -0.00000000000E+00 -0.63524667293E+03  0.63526405964E+03  0.47000000000E+01 0. -1.
          6    1    1    2  502    0 -0.70557912324E+02  0.45773544480E+02 -0.60055390727E+03  0.63033533290E+03  0.17200000000E+03 0. -1.
         -6    1    1    2    0  502  0.70557912324E+02 -0.45773544480E+02  0.44250548683E+03  0.48215012417E+03  0.17200000000E+03 0.  1.
</event>
<event>
 4    1 -0.6479440E-004  0.1985993E+03  0.7818608E-02  0.1150926E+00
         -5   -1    0    0    0  501 -0.00000000000E+00  0.00000000000E+00  0.30198538840E+03  0.30202196080E+03  0.47000000000E+01 0.  1.
          5   -1    0    0  501    0  0.00000000000E+00 -0.00000000000E+00 -0.26305316867E+03  0.26309515303E+03  0.47000000000E+01 0. -1.
          6    1    1    2  502    0 -0.97668049688E+02 -0.17850520650E+02 -0.18105710630E+03  0.26874405065E+03  0.17200000000E+03 0. -1.
         -6    1    1    2    0  502  0.97668049688E+02  0.17850520650E+02  0.21998932603E+03  0.29637306319E+03  0.17200000000E+03 0.  1.
</event>
<event>
 4    1 -0.6479440E-004  0.1924813E+03  0.7818608E-02  0.1156242E+00
          5   -1    0    0  501    0  0.00000000000E+00  0.00000000000E+00  0.16326968780E+03  0.16333732260E+03  0.47000000000E+01 0. -1.
         -5   -1    0    0    0  501 -0.00000000000E+00 -0.00000000000E+00 -0.45182793553E+03  0.45185238002E+03  0.47000000000E+01 0.  1.
          6    1    1    2  502    0  0.46307763189E+01 -0.86276432838E+02  0.72780731618E+02  0.20578168492E+03  0.17200000000E+03 0. -1.
         -6    1    1    2    0  502 -0.46307763189E+01  0.86276432838E+02 -0.36133897935E+03  0.40940801769E+03  0.17200000000E+03 0.  1.
</event>
<event>
 4    1 -0.6479440E-004  0.1965281E+03  0.7818608E-02  0.1152702E+00
          5   -1    0    0  501    0  0.00000000000E+00  0.00000000000E+00  0.72006430653E+03  0.72007964527E+03  0.47000000000E+01 0. -1.
         -5   -1    0    0    0  501 -0.00000000000E+00 -0.00000000000E+00 -0.97550792183E+02  0.97663949620E+02  0.47000000000E+01 0.  1.
          6    1    1    2  502    0 -0.37598138274E+02 -0.87325072527E+02  0.58570605820E+03  0.61779840960E+03  0.17200000000E+03 0. -1.
         -6    1    1    2    0  502  0.37598138274E+02  0.87325072527E+02  0.36807456146E+02  0.19994518529E+03  0.17200000000E+03 0.  1.
</event>
<event>
 4    1 -0.6479440E-004  0.2102543E+03  0.7818608E-02  0.1141365E+00
          5   -1    0    0  501    0  0.00000000000E+00  0.00000000000E+00  0.69684294222E+03  0.69685879209E+03  0.47000000000E+01 0. -1.
         -5   -1    0    0    0  501 -0.00000000000E+00 -0.00000000000E+00 -0.18033727177E+03  0.18039850772E+03  0.47000000000E+01 0.  1.
          6    1    1    2  502    0 -0.53413418435E+02  0.10848901746E+03  0.61142820760E+03  0.64656887740E+03  0.17200000000E+03 0. -1.
         -6    1    1    2    0  502  0.53413418435E+02 -0.10848901746E+03 -0.94922537148E+02  0.23068842242E+03  0.17200000000E+03 0.  1.
</event>
<event>
 4    1 -0.6479440E-004  0.2907624E+03  0.7818608E-02  0.1089952E+00
         -5   -1    0    0    0  501 -0.00000000000E+00  0.00000000000E+00  0.68556317742E+03  0.68557928808E+03  0.47000000000E+01 0.  1.
          5   -1    0    0  501    0  0.00000000000E+00 -0.00000000000E+00 -0.20128363213E+03  0.20133849747E+03  0.47000000000E+01 0. -1.
          6    1    1    2  502    0  0.23165306114E+03 -0.35994972947E+02 -0.33903406184E+02  0.29273233468E+03  0.17200000000E+03 0. -1.
         -6    1    1    2    0  502 -0.23165306114E+03  0.35994972947E+02  0.51818295148E+03  0.59418545087E+03  0.17200000000E+03 0.  1.
</event>
<event>
 4    1 -0.6479440E-004  0.2666550E+03  0.7818608E-02  0.1103209E+00
          5   -1    0    0  501    0  0.00000000000E+00  0.00000000000E+00  0.40214011295E+03  0.40216757756E+03  0.47000000000E+01 0. -1.
         -5   -1    0    0    0  501 -0.00000000000E+00 -0.00000000000E+00 -0.65150138880E+03  0.65151834173E+03  0.47000000000E+01 0.  1.
          6    1    1    2  502    0 -0.16584793812E+03  0.11838642644E+03  0.32503042820E+03  0.42041606035E+03  0.17200000000E+03 0. -1.
         -6    1    1    2    0  502  0.16584793812E+03 -0.11838642644E+03 -0.57439170406E+03  0.63326985894E+03  0.17200000000E+03 0.  1.
</event>
<event>
 4    1 -0.6479440E-004  0.3133735E+03  0.7818608E-02  0.1078740E+00
          5   -1    0    0  501    0  0.00000000000E+00  0.00000000000E+00  0.12191186462E+03  0.12200242922E+03  0.47000000000E+01 0. -1.
         -5   -1    0    0    0  501 -0.00000000000E+00 -0.00000000000E+00 -0.11628306939E+04  0.11628401923E+04  0.47000000000E+01 0.  1.
          6    1    1    2  502    0 -0.20766287338E+03 -0.15967173862E+03 -0.16416908701E+03  0.35377170919E+03  0.17200000000E+03 0. -1.
         -6    1    1    2    0  502  0.20766287338E+03  0.15967173862E+03 -0.87674974229E+03  0.93107091228E+03  0.17200000000E+03 0.  1.
</event>
<event>
 4    1 -0.6479440E-004  0.1886557E+03  0.7818608E-02  0.1159679E+00
          5   -1    0    0  501    0  0.00000000000E+00  0.00000000000E+00  0.10291174783E+04  0.10291282107E+04  0.47000000000E+01 0. -1.
         -5   -1    0    0    0  501 -0.00000000000E+00 -0.00000000000E+00 -0.40680241848E+02  0.40950849525E+02  0.47000000000E+01 0.  1.
          6    1    1    2  502    0 -0.63130686191E+02  0.44960805701E+02  0.70343477582E+03  0.72829351324E+03  0.17200000000E+03 0. -1.
         -6    1    1    2    0  502  0.63130686191E+02 -0.44960805701E+02  0.28500246060E+03  0.34178554700E+03  0.17200000000E+03 0.  1.
</event>
<event>
 4    1 -0.6479440E-004  0.2145420E+03  0.7818608E-02  0.1138019E+00
          5   -1    0    0  501    0  0.00000000000E+00  0.00000000000E+00  0.36943978442E+02  0.37241744630E+02  0.47000000000E+01 0. -1.
         -5   -1    0    0    0  501 -0.00000000000E+00 -0.00000000000E+00 -0.17695383174E+04  0.17695445592E+04  0.47000000000E+01 0.  1.
          6    1    1    2  502    0  0.12457446760E+03  0.30421220492E+02 -0.37242346229E+03  0.42979935307E+03  0.17200000000E+03 0. -1.
         -6    1    1    2    0  502 -0.12457446760E+03 -0.30421220492E+02 -0.13601708767E+04  0.13769869507E+04  0.17200000000E+03 0.  1.
</event>
<event>
 4    1 -0.6479440E-004  0.2259201E+03  0.7818608E-02  0.1129545E+00
          5   -1    0    0  501    0  0.00000000000E+00  0.00000000000E+00  0.10977594457E+03  0.10987651254E+03  0.47000000000E+01 0. -1.
         -5   -1    0    0    0  501 -0.00000000000E+00 -0.00000000000E+00 -0.55251616801E+03  0.55253615801E+03  0.47000000000E+01 0.  1.
          6    1    1    2  502    0 -0.21907481975E+01  0.14646197543E+03 -0.35345733773E+03  0.41949016582E+03  0.17200000000E+03 0. -1.
         -6    1    1    2    0  502  0.21907481975E+01 -0.14646197543E+03 -0.89282885702E+02  0.24292250473E+03  0.17200000000E+03 0. -1.
</event>
<event>
 4    1 -0.6479440E-004  0.1775293E+03  0.7818608E-02  0.1170216E+00
          5   -1    0    0  501    0  0.00000000000E+00  0.00000000000E+00  0.61172276869E+03  0.61174082399E+03  0.47000000000E+01 0. -1.
         -5   -1    0    0    0  501 -0.00000000000E+00 -0.00000000000E+00 -0.37518328424E+03  0.37521272203E+03  0.47000000000E+01 0.  1.
          6    1    1    2  502    0  0.22939470774E+02  0.37502275369E+02  0.57661682791E+03  0.60332711377E+03  0.17200000000E+03 0. -1.
         -6    1    1    2    0  502 -0.22939470774E+02 -0.37502275369E+02 -0.34007734347E+03  0.38362643224E+03  0.17200000000E+03 0.  1.
</event>
<event>
 4    1 -0.6479440E-004  0.1877431E+03  0.7818608E-02  0.1160513E+00
         -5   -1    0    0    0  501 -0.00000000000E+00  0.00000000000E+00  0.38533381639E+03  0.38536247878E+03  0.47000000000E+01 0.  1.
          5   -1    0    0  501    0  0.00000000000E+00 -0.00000000000E+00 -0.19645935541E+03  0.19651556764E+03  0.47000000000E+01 0. -1.
          6    1    1    2  502    0  0.31194532428E+02  0.68486355685E+02 -0.11827604248E+03  0.22189344739E+03  0.17200000000E+03 0. -1.
         -6    1    1    2    0  502 -0.31194532428E+02 -0.68486355685E+02  0.30715050346E+03  0.35998459904E+03  0.17200000000E+03 0.  1.
</event>
<event>
 4    1 -0.6479440E-004  0.1842321E+03  0.7818608E-02  0.1163769E+00
         -5   -1    0    0    0  501 -0.00000000000E+00  0.00000000000E+00  0.15075263343E+03  0.15082588136E+03  0.47000000000E+01 0.  1.
          5   -1    0    0  501    0  0.00000000000E+00 -0.00000000000E+00 -0.26671204229E+03  0.26675345078E+03  0.47000000000E+01 0. -1.
          6    1    1    2  502    0 -0.56162521927E+01  0.65771863005E+02 -0.14053620321E+03  0.23171513689E+03  0.17200000000E+03 0. -1.
         -6    1    1    2    0  502  0.56162521927E+01 -0.65771863005E+02  0.24576794355E+02  0.18586419524E+03  0.17200000000E+03 0.  1.
</event>
<event>
 4    1 -0.6479440E-004  0.1904139E+03  0.7818608E-02  0.1158089E+00
         -5   -1    0    0    0  501 -0.00000000000E+00  0.00000000000E+00  0.47021678417E+03  0.47024027275E+03  0.47000000000E+01 0.  1.
          5   -1    0    0  501    0  0.00000000000E+00 -0.00000000000E+00 -0.12813944266E+03  0.12822560885E+03  0.47000000000E+01 0. -1.
          6    1    1    2  502    0  0.79892288057E+02  0.17048771468E+02 -0.17876023000E+02  0.19125111895E+03  0.17200000000E+03 0. -1.
         -6    1    1    2    0  502 -0.79892288057E+02 -0.17048771468E+02  0.35995336451E+03  0.40721476266E+03  0.17200000000E+03 0. -1.
</event>
<event>
 4    1 -0.6479440E-004  0.1845050E+03  0.7818608E-02  0.1163513E+00
          5   -1    0    0  501    0  0.00000000000E+00  0.00000000000E+00  0.21203269955E+03  0.21208478417E+03  0.47000000000E+01 0. -1.
         -5   -1    0    0    0  501 -0.00000000000E+00 -0.00000000000E+00 -0.28202450668E+03  0.28206366722E+03  0.47000000000E+01 0.  1.
          6    1    1    2  502    0 -0.56899321034E+01 -0.66526001621E+02  0.12719733274E+03  0.22410097205E+03  0.17200000000E+03 0. -1.
         -6    1    1    2    0  502  0.56899321034E+01  0.66526001621E+02 -0.19718913987E+03  0.27004747935E+03  0.17200000000E+03 0.  1.
</event>
<event>
 4    1 -0.6479440E-004  0.2093006E+03  0.7818608E-02  0.1142121E+00
         -5   -1    0    0    0  501 -0.00000000000E+00  0.00000000000E+00  0.53676634166E+03  0.53678691819E+03  0.47000000000E+01 0.  1.
          5   -1    0    0  501    0  0.00000000000E+00 -0.00000000000E+00 -0.13814150334E+03  0.13822143446E+03  0.47000000000E+01 0. -1.
          6    1    1    2  502    0  0.87037059448E+02  0.81530880467E+02 -0.16659257971E+02  0.20996253252E+03  0.17200000000E+03 0. -1.
         -6    1    1    2    0  502 -0.87037059448E+02 -0.81530880467E+02  0.41528409629E+03  0.46504582013E+03  0.17200000000E+03 0.  1.
</event>
<event>
 4    1 -0.6479440E-004  0.2014104E+03  0.7818608E-02  0.1148554E+00
         -5   -1    0    0    0  501 -0.00000000000E+00  0.00000000000E+00  0.20132733621E+03  0.20138218965E+03  0.47000000000E+01 0.  1.
          5   -1    0    0  501    0  0.00000000000E+00 -0.00000000000E+00 -0.22195053490E+03  0.22200029266E+03  0.47000000000E+01 0. -1.
          6    1    1    2  502    0  0.96508977933E+02 -0.40843254473E+02 -0.74736333117E+02  0.21482940615E+03  0.17200000000E+03 0. -1.
         -6    1    1    2    0  502 -0.96508977933E+02  0.40843254473E+02  0.54113134433E+02  0.20855307616E+03  0.17200000000E+03 0.  1.
</event>
<event>
 4    1 -0.6479440E-004  0.2175091E+03  0.7818608E-02  0.1135754E+00
         -5   -1    0    0    0  501 -0.00000000000E+00  0.00000000000E+00  0.10913649367E+04  0.10913750570E+04  0.47000000000E+01 0.  1.
          5   -1    0    0  501    0  0.00000000000E+00 -0.00000000000E+00 -0.14395191904E+03  0.14402862561E+03  0.47000000000E+01 0. -1.
          6    1    1    2  502    0 -0.70115360789E+02  0.11318146062E+03 -0.42717166065E+02  0.22166407720E+03  0.17200000000E+03 0. -1.
         -6    1    1    2    0  502  0.70115360789E+02 -0.11318146062E+03  0.99013018375E+03  0.10137396054E+04  0.17200000000E+03 0.  1.
</event>
<event>
 4    1 -0.6479440E-004  0.2183779E+03  0.7818608E-02  0.1135098E+00
          5   -1    0    0  501    0  0.00000000000E+00  0.00000000000E+00  0.40823745577E+02  0.41093408266E+02  0.47000000000E+01 0. -1.
         -5   -1    0    0    0  501 -0.00000000000E+00 -0.00000000000E+00 -0.12484907055E+04  0.12484995521E+04  0.47000000000E+01 0.  1.
          6    1    1    2  502    0 -0.70646778177E+02  0.11451608804E+03 -0.77150839228E+03  0.80181924462E+03  0.17200000000E+03 0.  1.
         -6    1    1    2    0  502  0.70646778177E+02 -0.11451608804E+03 -0.43615856760E+03  0.48777371575E+03  0.17200000000E+03 0. -1.
</event>
<event>
 4    1 -0.6479440E-004  0.2495966E+03  0.7818608E-02  0.1113560E+00
         -5   -1    0    0    0  501 -0.00000000000E+00  0.00000000000E+00  0.37553787933E+03  0.37556728932E+03  0.47000000000E+01 0.  1.
          5   -1    0    0  501    0  0.00000000000E+00 -0.00000000000E+00 -0.16784146693E+03  0.16790726018E+03  0.47000000000E+01 0. -1.
          6    1    1    2  502    0 -0.17862671570E+03 -0.28406806946E+02  0.74050093246E+02  0.26034950845E+03  0.17200000000E+03 0. -1.
         -6    1    1    2    0  502  0.17862671570E+03  0.28406806946E+02  0.13364631915E+03  0.28312504104E+03  0.17200000000E+03 0.  1.
</event>
<event>
 4    1 -0.6479440E-004  0.1746152E+03  0.7818608E-02  0.1173119E+00
         -5   -1    0    0    0  501 -0.00000000000E+00  0.00000000000E+00  0.32155499938E+02  0.32497171819E+02  0.47000000000E+01 0.  1.
          5   -1    0    0  501    0  0.00000000000E+00 -0.00000000000E+00 -0.12525966603E+04  0.12526054779E+04  0.47000000000E+01 0. -1.
          6    1    1    2  502    0  0.14709171763E+02 -0.26269800943E+02 -0.29074541282E+03  0.33915093580E+03  0.17200000000E+03 0.  1.
         -6    1    1    2    0  502 -0.14709171763E+02  0.26269800943E+02 -0.92969574754E+03  0.94595171397E+03  0.17200000000E+03 0.  1.
</event>
<event>
 4    1 -0.6479440E-004  0.1738996E+03  0.7818608E-02  0.1173841E+00
         -5   -1    0    0    0  501 -0.00000000000E+00  0.00000000000E+00  0.44761466138E+03  0.44763933595E+03  0.47000000000E+01 0.  1.
          5   -1    0    0  501    0  0.00000000000E+00 -0.00000000000E+00 -0.19538691754E+03  0.19544343823E+03  0.47000000000E+01 0. -1.
          6    1    1    2  502    0 -0.24138362282E+02 -0.86265814873E+01 -0.13398212234E+03  0.21952741867E+03  0.17200000000E+03 0. -1.
         -6    1    1    2    0  502  0.24138362282E+02  0.86265814873E+01  0.38620986618E+03  0.42355535550E+03  0.17200000000E+03 0.  1.
</event>
<event>
 4    1 -0.6479440E-004  0.2277416E+03  0.7818608E-02  0.1128240E+00
          5   -1    0    0  501    0  0.00000000000E+00  0.00000000000E+00  0.76664751555E+03  0.76666192230E+03  0.47000000000E+01 0. -1.
         -5   -1    0    0    0  501 -0.00000000000E+00 -0.00000000000E+00 -0.72547910325E+03  0.72549432751E+03  0.47000000000E+01 0.  1.
          6    1    1    2  502    0  0.13596864149E+03 -0.61601611802E+02  0.73102549696E+03  0.76567911507E+03  0.17200000000E+03 0. -1.
         -6    1    1    2    0  502 -0.13596864149E+03  0.61601611802E+02 -0.68985708466E+03  0.72647713474E+03  0.17200000000E+03 0.  1.
</event>
<event>
 4    1 -0.6479440E-004  0.2521796E+03  0.7818608E-02  0.1111935E+00
         -5   -1    0    0    0  501 -0.00000000000E+00  0.00000000000E+00  0.58983845874E+03  0.58985718391E+03  0.47000000000E+01 0.  1.
          5   -1    0    0  501    0  0.00000000000E+00 -0.00000000000E+00 -0.23061062144E+03  0.23065851105E+03  0.47000000000E+01 0. -1.
          6    1    1    2  502    0 -0.11465451495E+03  0.14444677606E+03 -0.11978049651E+03  0.27918075911E+03  0.17200000000E+03 0. -1.
         -6    1    1    2    0  502  0.11465451495E+03 -0.14444677606E+03  0.47900833381E+03  0.54133493585E+03  0.17200000000E+03 0.  1.
</event>
<event>
 4    1 -0.6479440E-004  0.1801651E+03  0.7818608E-02  0.1167643E+00
          5   -1    0    0  501    0  0.00000000000E+00  0.00000000000E+00  0.32442178581E+03  0.32445582921E+03  0.47000000000E+01 0. -1.
         -5   -1    0    0    0  501 -0.00000000000E+00 -0.00000000000E+00 -0.34798545974E+03  0.34801719813E+03  0.47000000000E+01 0.  1.
          6    1    1    2  502    0  0.52134719135E+02 -0.12547753929E+02  0.27204137302E+03  0.32629125594E+03  0.17200000000E+03 0. -1.
         -6    1    1    2    0  502 -0.52134719135E+02  0.12547753929E+02 -0.29560504695E+03  0.34618177140E+03  0.17200000000E+03 0.  1.
</event>
<event>
 4    1 -0.6479440E-004  0.2073544E+03  0.7818608E-02  0.1143678E+00
         -5   -1    0    0    0  501 -0.00000000000E+00  0.00000000000E+00  0.51882445778E+03  0.51884574585E+03  0.47000000000E+01 0.  1.
          5   -1    0    0  501    0  0.00000000000E+00 -0.00000000000E+00 -0.31452432621E+03  0.31455944077E+03  0.47000000000E+01 0. -1.
          6    1    1    2  502    0 -0.11547535962E+03 -0.87919378220E+01 -0.25547577978E+03  0.32903454363E+03  0.17200000000E+03 0. -1.
         -6    1    1    2    0  502  0.11547535962E+03  0.87919378220E+01  0.45977591135E+03  0.50437064299E+03  0.17200000000E+03 0.  1.
</event>
<event>
 4    1 -0.6479440E-004  0.2100735E+03  0.7818608E-02  0.1141508E+00
          5   -1    0    0  501    0  0.00000000000E+00  0.00000000000E+00  0.98501577279E+03  0.98502698575E+03  0.47000000000E+01 0. -1.
         -5   -1    0    0    0  501 -0.00000000000E+00 -0.00000000000E+00 -0.56183972575E+03  0.56185938404E+03  0.47000000000E+01 0.  1.
          6    1    1    2  502    0  0.14815154898E+02 -0.11969704314E+03  0.95355408515E+03  0.97642012692E+03  0.17200000000E+03 0. -1.
         -6    1    1    2    0  502 -0.14815154898E+02  0.11969704314E+03 -0.53037803811E+03  0.57046624287E+03  0.17200000000E+03 0.  1.
</event>
<event>
 4    1 -0.6479440E-004  0.2216783E+03  0.7818608E-02  0.1132638E+00
          5   -1    0    0  501    0  0.00000000000E+00  0.00000000000E+00  0.11694527248E+04  0.11694621694E+04  0.47000000000E+01 0. -1.
         -5   -1    0    0    0  501 -0.00000000000E+00 -0.00000000000E+00 -0.75774116408E+02  0.75919738655E+02  0.47000000000E+01 0.  1.
          6    1    1    2  502    0  0.13150931579E+03 -0.47566473970E+02  0.96271616370E+03  0.98790874145E+03  0.17200000000E+03 0. -1.
         -6    1    1    2    0  502 -0.13150931579E+03  0.47566473970E+02  0.13096244473E+03  0.25747316659E+03  0.17200000000E+03 0.  1.
</event>
<event>
 4    1 -0.6479440E-004  0.2034131E+03  0.7818608E-02  0.1146891E+00
          5   -1    0    0  501    0  0.00000000000E+00  0.00000000000E+00  0.30775863447E+03  0.30779452089E+03  0.47000000000E+01 0. -1.
         -5   -1    0    0    0  501 -0.00000000000E+00 -0.00000000000E+00 -0.42509463979E+03  0.42512062144E+03  0.47000000000E+01 0.  1.
          6    1    1    2  502    0 -0.24229794660E+02 -0.10585741955E+03  0.24435984032E+03  0.31794434700E+03  0.17200000000E+03 0. -1.
         -6    1    1    2    0  502  0.24229794660E+02  0.10585741955E+03 -0.36169584565E+03  0.41497079534E+03  0.17200000000E+03 0.  1.
</event>
<event>
 4    1 -0.6479440E-004  0.1881336E+03  0.7818608E-02  0.1160156E+00
          5   -1    0    0  501    0  0.00000000000E+00  0.00000000000E+00  0.57004028181E+03  0.57005965730E+03  0.47000000000E+01 0. -1.
         -5   -1    0    0    0  501 -0.00000000000E+00 -0.00000000000E+00 -0.90374291985E+02  0.90496423420E+02  0.47000000000E+01 0.  1.
          6    1    1    2  502    0  0.59353365798E+02  0.47826909148E+02  0.42478355670E+03  0.46458078448E+03  0.17200000000E+03 0. -1.
         -6    1    1    2    0  502 -0.59353365798E+02 -0.47826909148E+02  0.54882433126E+02  0.19597529624E+03  0.17200000000E+03 0.  1.
</event>
<event>
 4    1 -0.6479440E-004  0.1853110E+03  0.7818608E-02  0.1162760E+00
         -5   -1    0    0    0  501 -0.00000000000E+00  0.00000000000E+00  0.17544153374E+03  0.17550447789E+03  0.47000000000E+01 0.  1.
          5   -1    0    0  501    0  0.00000000000E+00 -0.00000000000E+00 -0.84571753208E+03  0.84573059189E+03  0.47000000000E+01 0. -1.
          6    1    1    2  502    0 -0.66662957908E+02 -0.17669609714E+02 -0.78280056220E+03  0.80443575582E+03  0.17200000000E+03 0. -1.
         -6    1    1    2    0  502  0.66662957908E+02  0.17669609714E+02  0.11252456386E+03  0.21679931397E+03  0.17200000000E+03 0.  1.
</event>
<event>
 4    1 -0.6479440E-004  0.2207916E+03  0.7818608E-02  0.1133294E+00
         -5   -1    0    0    0  501 -0.00000000000E+00  0.00000000000E+00  0.38360504839E+03  0.38363383994E+03  0.47000000000E+01 0.  1.
          5   -1    0    0  501    0  0.00000000000E+00 -0.00000000000E+00 -0.11642343846E+04  0.11642438715E+04  0.47000000000E+01 0. -1.
          6    1    1    2  502    0  0.76597039931E+02 -0.11531612012E+03 -0.11207969711E+04  0.11423374127E+04  0.17200000000E+03 0. -1.
         -6    1    1    2    0  502 -0.76597039931E+02  0.11531612012E+03  0.34016763486E+03  0.40554029873E+03  0.17200000000E+03 0.  1.
</event>
<event>
 4    1 -0.6479440E-004  0.1746358E+03  0.7818608E-02  0.1173098E+00
         -5   -1    0    0    0  501 -0.00000000000E+00  0.00000000000E+00  0.33285980859E+03  0.33289298908E+03  0.47000000000E+01 0.  1.
          5   -1    0    0  501    0  0.00000000000E+00 -0.00000000000E+00 -0.12899550877E+03  0.12908110351E+03  0.47000000000E+01 0. -1.
          6    1    1    2  502    0  0.36361532755E+01 -0.30007466460E+02 -0.22494992062E+02  0.17607865947E+03  0.17200000000E+03 0. -1.
         -6    1    1    2    0  502 -0.36361532755E+01  0.30007466460E+02  0.22635929188E+03  0.28589543311E+03  0.17200000000E+03 0.  1.
</event>
<event>
 4    1 -0.6479440E-004  0.2250243E+03  0.7818608E-02  0.1130192E+00
         -5   -1    0    0    0  501 -0.00000000000E+00  0.00000000000E+00  0.20608580036E+03  0.20613938758E+03  0.47000000000E+01 0.  1.
          5   -1    0    0  501    0  0.00000000000E+00 -0.00000000000E+00 -0.76302766853E+03  0.76304214362E+03  0.47000000000E+01 0. -1.
          6    1    1    2  502    0 -0.57681310946E+02  0.13313459686E+03 -0.67750327699E+03  0.71389540190E+03  0.17200000000E+03 0. -1.
         -6    1    1    2    0  502  0.57681310946E+02 -0.13313459686E+03  0.12056140883E+03  0.25528612930E+03  0.17200000000E+03 0.  1.
</event>
<event>
 4    1 -0.6479440E-004  0.1949721E+03  0.7818608E-02  0.1154052E+00
         -5   -1    0    0    0  501 -0.00000000000E+00  0.00000000000E+00  0.47075863296E+03  0.47078209451E+03  0.47000000000E+01 0.  1.
          5   -1    0    0  501    0  0.00000000000E+00 -0.00000000000E+00 -0.75630389928E+03  0.75631850306E+03  0.47000000000E+01 0. -1.
          6    1    1    2  502    0 -0.88675350518E+02 -0.23807608325E+02 -0.72264639892E+03  0.74848643132E+03  0.17200000000E+03 0. -1.
         -6    1    1    2    0  502  0.88675350518E+02  0.23807608325E+02  0.43710113261E+03  0.47861416624E+03  0.17200000000E+03 0.  1.
</event>
<event>
 4    1 -0.6479440E-004  0.2587123E+03  0.7818608E-02  0.1107919E+00
          5   -1    0    0  501    0  0.00000000000E+00  0.00000000000E+00  0.70747973865E+03  0.70749535024E+03  0.47000000000E+01 0. -1.
         -5   -1    0    0    0  501 -0.00000000000E+00 -0.00000000000E+00 -0.26637910687E+03  0.26642056710E+03  0.47000000000E+01 0.  1.
          6    1    1    2  502    0  0.16902614600E+03 -0.93692211509E+02  0.61160381639E+03  0.66407175572E+03  0.17200000000E+03 0. -1.
         -6    1    1    2    0  502 -0.16902614600E+03  0.93692211509E+02 -0.17050318460E+03  0.30984416162E+03  0.17200000000E+03 0.  1.
</event>
<event>
 4    1 -0.6479440E-004  0.2006050E+03  0.7818608E-02  0.1149230E+00
          5   -1    0    0  501    0  0.00000000000E+00  0.00000000000E+00  0.45282747690E+03  0.45285186743E+03  0.47000000000E+01 0. -1.
         -5   -1    0    0    0  501 -0.00000000000E+00 -0.00000000000E+00 -0.12970128163E+03  0.12978641091E+03  0.47000000000E+01 0.  1.
          6    1    1    2  502    0 -0.20220773179E+02 -0.10123968157E+03  0.32511469998E+03  0.38202345600E+03  0.17200000000E+03 0. -1.
         -6    1    1    2    0  502  0.20220773179E+02  0.10123968157E+03 -0.19885047117E+01  0.20061482234E+03  0.17200000000E+03 0.  1.
</event>
<event>
 4    1 -0.6479440E-004  0.2424836E+03  0.7818608E-02  0.1118149E+00
          5   -1    0    0  501    0  0.00000000000E+00  0.00000000000E+00  0.22071917884E+03  0.22076921413E+03  0.47000000000E+01 0. -1.
         -5   -1    0    0    0  501 -0.00000000000E+00 -0.00000000000E+00 -0.89933579126E+03  0.89934807246E+03  0.47000000000E+01 0.  1.
          6    1    1    2  502    0  0.12529268647E+01 -0.17091724596E+03  0.13055388637E+03  0.27539533772E+03  0.17200000000E+03 0. -1.
         -6    1    1    2    0  502 -0.12529268647E+01  0.17091724596E+03 -0.80917049879E+03  0.84472194887E+03  0.17200000000E+03 0.  1.
</event>
<event>
 4    1 -0.6479440E-004  0.2296517E+03  0.7818608E-02  0.1126885E+00
         -5   -1    0    0    0  501 -0.00000000000E+00  0.00000000000E+00  0.45579809132E+03  0.45582232290E+03  0.47000000000E+01 0.  1.
          5   -1    0    0  501    0  0.00000000000E+00 -0.00000000000E+00 -0.15336296863E+03  0.15343497042E+03  0.47000000000E+01 0. -1.
          6    1    1    2  502    0  0.86378702193E+02  0.12527811423E+03  0.17613182854E+00  0.22965173006E+03  0.17200000000E+03 0. -1.
         -6    1    1    2    0  502 -0.86378702193E+02 -0.12527811423E+03  0.30225899086E+03  0.37960556325E+03  0.17200000000E+03 0.  1.
</event>
<event>
 4    1 -0.6479440E-004  0.1779999E+03  0.7818608E-02  0.1169753E+00
          5   -1    0    0  501    0  0.00000000000E+00  0.00000000000E+00  0.96609072716E+02  0.96723331885E+02  0.47000000000E+01 0. -1.
         -5   -1    0    0    0  501 -0.00000000000E+00 -0.00000000000E+00 -0.62599281583E+03  0.62601045955E+03  0.47000000000E+01 0.  1.
          6    1    1    2  502    0 -0.18453592381E+02  0.41945447910E+02 -0.15241883849E+02  0.17865125439E+03  0.17200000000E+03 0. -1.
         -6    1    1    2    0  502  0.18453592381E+02 -0.41945447910E+02 -0.51414185926E+03  0.54408253705E+03  0.17200000000E+03 0.  1.
</event>
<event>
 4    1 -0.6479440E-004  0.1850934E+03  0.7818608E-02  0.1162963E+00
         -5   -1    0    0    0  501 -0.00000000000E+00  0.00000000000E+00  0.32287323797E+02  0.32627615266E+02  0.47000000000E+01 0.  1.
          5   -1    0    0  501    0  0.00000000000E+00 -0.00000000000E+00 -0.11731717459E+04  0.11731811605E+04  0.47000000000E+01 0. -1.
          6    1    1    2  502    0 -0.34845677811E+02  0.58833047443E+02 -0.76161961377E+03  0.78378822701E+03  0.17200000000E+03 0.  1.
         -6    1    1    2    0  502  0.34845677811E+02 -0.58833047443E+02 -0.37926480832E+03  0.42202054874E+03  0.17200000000E+03 0.  1.
</event>
<event>
 4    1 -0.6479440E-004  0.1748786E+03  0.7818608E-02  0.1172854E+00
          5   -1    0    0  501    0  0.00000000000E+00  0.00000000000E+00  0.97733113836E+03  0.97734243948E+03  0.47000000000E+01 0. -1.
         -5   -1    0    0    0  501 -0.00000000000E+00 -0.00000000000E+00 -0.86742351898E+02  0.86869589689E+02  0.47000000000E+01 0.  1.
          6    1    1    2  502    0 -0.31524448033E+02 -0.21742656141E+01  0.87083564495E+03  0.88822139063E+03  0.17200000000E+03 0. -1.
         -6    1    1    2    0  502  0.31524448033E+02  0.21742656141E+01  0.19753141514E+02  0.17599063854E+03  0.17200000000E+03 0.  1.
</event>
<event>
 4    1 -0.6479440E-004  0.1836393E+03  0.7818608E-02  0.1164327E+00
         -5   -1    0    0    0  501 -0.00000000000E+00  0.00000000000E+00  0.37637314759E+02  0.37929638309E+02  0.47000000000E+01 0.  1.
          5   -1    0    0  501    0  0.00000000000E+00 -0.00000000000E+00 -0.11033516655E+04  0.11033616759E+04  0.47000000000E+01 0. -1.
          6    1    1    2  502    0 -0.35895872260E+02 -0.53393755522E+02 -0.78243186061E+03  0.80369336396E+03  0.17200000000E+03 0. -1.
         -6    1    1    2    0  502  0.35895872260E+02  0.53393755522E+02 -0.28328249015E+03  0.33759795023E+03  0.17200000000E+03 0.  1.
</event>
<event>
 4    1 -0.6479440E-004  0.1962301E+03  0.7818608E-02  0.1152959E+00
          5   -1    0    0  501    0  0.00000000000E+00  0.00000000000E+00  0.11492272264E+04  0.11492368372E+04  0.47000000000E+01 0. -1.
         -5   -1    0    0    0  501 -0.00000000000E+00 -0.00000000000E+00 -0.21959334536E+03  0.21964363711E+03  0.47000000000E+01 0.  1.
          6    1    1    2  502    0 -0.43230749258E+02  0.83984248800E+02  0.10948893589E+04  0.11123349136E+04  0.17200000000E+03 0. -1.
         -6    1    1    2    0  502  0.43230749258E+02 -0.83984248800E+02 -0.16525547789E+03  0.25654556067E+03  0.17200000000E+03 0.  1.
</event>
<event>
 4    1 -0.6479440E-004  0.2278951E+03  0.7818608E-02  0.1128130E+00
         -5   -1    0    0    0  501 -0.00000000000E+00  0.00000000000E+00  0.58869178882E+03  0.58871055046E+03  0.47000000000E+01 0.  1.
          5   -1    0    0  501    0  0.00000000000E+00 -0.00000000000E+00 -0.50818986266E+03  0.50821159620E+03  0.47000000000E+01 0. -1.
          6    1    1    2  502    0  0.18013443304E+02  0.14841723813E+03 -0.45833919811E+03  0.51187008238E+03  0.17200000000E+03 0. -1.
         -6    1    1    2    0  502 -0.18013443304E+02 -0.14841723813E+03  0.53884112426E+03  0.58505206427E+03  0.17200000000E+03 0.  1.
</event>
<event>
 4    1 -0.6479440E-004  0.1781335E+03  0.7818608E-02  0.1169622E+00
          5   -1    0    0  501    0  0.00000000000E+00  0.00000000000E+00  0.84977527676E+03  0.84978827421E+03  0.47000000000E+01 0. -1.
         -5   -1    0    0    0  501 -0.00000000000E+00 -0.00000000000E+00 -0.77979493680E+02  0.78121005080E+02  0.47000000000E+01 0.  1.
          6    1    1    2  502    0 -0.44114757557E+01  0.46131283274E+02  0.72099369823E+03  0.74267319145E+03  0.17200000000E+03 0. -1.
         -6    1    1    2    0  502  0.44114757557E+01 -0.46131283274E+02  0.50802084854E+02  0.18523608785E+03  0.17200000000E+03 0.  1.
</event>
<event>
 4    1 -0.6479440E-004  0.1797350E+03  0.7818608E-02  0.1168060E+00
          5   -1    0    0  501    0  0.00000000000E+00  0.00000000000E+00  0.55348182019E+02  0.55547378451E+02  0.47000000000E+01 0. -1.
         -5   -1    0    0    0  501 -0.00000000000E+00 -0.00000000000E+00 -0.97577584267E+03  0.97578716180E+03  0.47000000000E+01 0.  1.
          6    1    1    2  502    0 -0.12348683618E+02 -0.50677280527E+02 -0.13283731967E+03  0.22349592893E+03  0.17200000000E+03 0. -1.
         -6    1    1    2    0  502  0.12348683618E+02  0.50677280527E+02 -0.78759034098E+03  0.80783861133E+03  0.17200000000E+03 0.  1.
</event>
<event>
 4    1 -0.6479440E-004  0.1968400E+03  0.7818608E-02  0.1152433E+00
         -5   -1    0    0    0  501 -0.00000000000E+00  0.00000000000E+00  0.18074874729E+03  0.18080984389E+03  0.47000000000E+01 0.  1.
          5   -1    0    0  501    0  0.00000000000E+00 -0.00000000000E+00 -0.69476599381E+03  0.69478189107E+03  0.47000000000E+01 0. -1.
          6    1    1    2  502    0  0.13769306087E+02  0.94722617209E+02 -0.62107529349E+03  0.65152167131E+03  0.17200000000E+03 0. -1.
         -6    1    1    2    0  502 -0.13769306087E+02 -0.94722617209E+02  0.10705804697E+03  0.22407006365E+03  0.17200000000E+03 0.  1.
</event>
<event>
 4    1 -0.6479440E-004  0.2200987E+03  0.7818608E-02  0.1133809E+00
         -5   -1    0    0    0  501 -0.00000000000E+00  0.00000000000E+00  0.55134998765E+02  0.55334962626E+02  0.47000000000E+01 0.  1.
          5   -1    0    0  501    0  0.00000000000E+00 -0.00000000000E+00 -0.90466208880E+03  0.90467429770E+03  0.47000000000E+01 0. -1.
          6    1    1    2  502    0  0.10260397932E+02  0.13694591099E+03 -0.50893618442E+03  0.55449030480E+03  0.17200000000E+03 0. -1.
         -6    1    1    2    0  502 -0.10260397932E+02 -0.13694591099E+03 -0.34059090562E+03  0.40551895553E+03  0.17200000000E+03 0. -1.
</event>
<event>
 4    1 -0.6479440E-004  0.2442473E+03  0.7818608E-02  0.1116995E+00
         -5   -1    0    0    0  501 -0.00000000000E+00  0.00000000000E+00  0.17570591805E+03  0.17576876752E+03  0.47000000000E+01 0.  1.
          5   -1    0    0  501    0  0.00000000000E+00 -0.00000000000E+00 -0.94326813598E+03  0.94327984519E+03  0.47000000000E+01 0. -1.
          6    1    1    2  502    0  0.13569055516E+03 -0.10798517611E+03 -0.83145096380E+03  0.86658376988E+03  0.17200000000E+03 0. -1.
         -6    1    1    2    0  502 -0.13569055516E+03  0.10798517611E+03  0.63888745870E+02  0.25246484283E+03  0.17200000000E+03 0.  1.
</event>
<event>
 4    1 -0.6479440E-004  0.1748683E+03  0.7818608E-02  0.1172864E+00
          5   -1    0    0  501    0  0.00000000000E+00  0.00000000000E+00  0.10027460529E+04  0.10027570676E+04  0.47000000000E+01 0. -1.
         -5   -1    0    0    0  501 -0.00000000000E+00 -0.00000000000E+00 -0.34629956427E+02  0.34947444573E+02  0.47000000000E+01 0.  1.
          6    1    1    2  502    0  0.28374894746E+02 -0.13776682822E+02  0.66654296225E+03  0.68909974036E+03  0.17200000000E+03 0. -1.
         -6    1    1    2    0  502 -0.28374894746E+02  0.13776682822E+02  0.30157313425E+03  0.34860477183E+03  0.17200000000E+03 0.  1.
</event>
<event>
 4    1 -0.6479440E-004  0.2084440E+03  0.7818608E-02  0.1142804E+00
          5   -1    0    0  501    0  0.00000000000E+00  0.00000000000E+00  0.26333345139E+03  0.26337539107E+03  0.47000000000E+01 0. -1.
         -5   -1    0    0    0  501 -0.00000000000E+00 -0.00000000000E+00 -0.31194765941E+03  0.31198306399E+03  0.47000000000E+01 0.  1.
          6    1    1    2  502    0 -0.50127668390E+02  0.10654633613E+03  0.17317203994E+03  0.27099346911E+03  0.17200000000E+03 0. -1.
         -6    1    1    2    0  502  0.50127668390E+02 -0.10654633613E+03 -0.22178624797E+03  0.30436498594E+03  0.17200000000E+03 0.  1.
</event>
<event>
 4    1 -0.6479440E-004  0.2537940E+03  0.7818608E-02  0.1110930E+00
          5   -1    0    0  501    0  0.00000000000E+00  0.00000000000E+00  0.25579867888E+03  0.25584185373E+03  0.47000000000E+01 0. -1.
         -5   -1    0    0    0  501 -0.00000000000E+00 -0.00000000000E+00 -0.60666191156E+03  0.60668011747E+03  0.47000000000E+01 0.  1.
          6    1    1    2  502    0 -0.13666602943E+03 -0.12708191926E+03  0.15442077923E+03  0.29708112505E+03  0.17200000000E+03 0. -1.
         -6    1    1    2    0  502  0.13666602943E+03  0.12708191926E+03 -0.50528401191E+03  0.56544084615E+03  0.17200000000E+03 0.  1.
</event>
<event>
 4    1 -0.6479440E-004  0.2099141E+03  0.7818608E-02  0.1141634E+00
         -5   -1    0    0    0  501 -0.00000000000E+00  0.00000000000E+00  0.10847985625E+04  0.10848087441E+04  0.47000000000E+01 0.  1.
          5   -1    0    0  501    0  0.00000000000E+00 -0.00000000000E+00 -0.65711047771E+02  0.65878917714E+02  0.47000000000E+01 0. -1.
          6    1    1    2  502    0 -0.25563193496E+02  0.11758589455E+03  0.15360419203E+03  0.26011183608E+03  0.17200000000E+03 0. -1.
         -6    1    1    2    0  502  0.25563193496E+02 -0.11758589455E+03  0.86548332274E+03  0.89057582574E+03  0.17200000000E+03 0.  1.
</event>
<event>
 4    1 -0.6479440E-004  0.1785524E+03  0.7818608E-02  0.1169211E+00
         -5   -1    0    0    0  501 -0.00000000000E+00  0.00000000000E+00  0.25533903510E+03  0.25538228765E+03  0.47000000000E+01 0.  1.
          5   -1    0    0  501    0  0.00000000000E+00 -0.00000000000E+00 -0.26475434593E+03  0.26479606056E+03  0.47000000000E+01 0. -1.
          6    1    1    2  502    0 -0.16941256816E+02  0.44832621012E+02 -0.19379747604E+03  0.26351172993E+03  0.17200000000E+03 0. -1.
         -6    1    1    2    0  502  0.16941256816E+02 -0.44832621012E+02  0.18438216522E+03  0.25666661828E+03  0.17200000000E+03 0.  1.
</event>
<event>
 4    1 -0.6479440E-004  0.1838801E+03  0.7818608E-02  0.1164100E+00
          5   -1    0    0  501    0  0.00000000000E+00  0.00000000000E+00  0.66602345963E+02  0.66767975016E+02  0.47000000000E+01 0. -1.
         -5   -1    0    0    0  501 -0.00000000000E+00 -0.00000000000E+00 -0.14015534770E+04  0.14015613575E+04  0.47000000000E+01 0.  1.
          6    1    1    2  502    0  0.38624650953E+02 -0.52306924647E+02 -0.80935639973E+02  0.20090409614E+03  0.17200000000E+03 0. -1.
         -6    1    1    2    0  502 -0.38624650953E+02  0.52306924647E+02 -0.12540154911E+04  0.12674252364E+04  0.17200000000E+03 0.  1.
</event>
<event>
 4    1 -0.6479440E-004  0.2277995E+03  0.7818608E-02  0.1128198E+00
         -5   -1    0    0    0  501 -0.00000000000E+00  0.00000000000E+00  0.23345622571E+03  0.23350353171E+03  0.47000000000E+01 0.  1.
          5   -1    0    0  501    0  0.00000000000E+00 -0.00000000000E+00 -0.80204433072E+03  0.80205810166E+03  0.47000000000E+01 0. -1.
          6    1    1    2  502    0  0.13698521747E+03 -0.59528609162E+02 -0.72453115907E+03  0.75949852243E+03  0.17200000000E+03 0. -1.
         -6    1    1    2    0  502 -0.13698521747E+03  0.59528609162E+02  0.15594305406E+03  0.27606311094E+03  0.17200000000E+03 0.  1.
</event>
<event>
 4    1 -0.6479440E-004  0.2144496E+03  0.7818608E-02  0.1138090E+00
         -5   -1    0    0    0  501 -0.00000000000E+00  0.00000000000E+00  0.13700059171E+03  0.13708118810E+03  0.47000000000E+01 0.  1.
          5   -1    0    0  501    0  0.00000000000E+00 -0.00000000000E+00 -0.60669138499E+03  0.60670959002E+03  0.47000000000E+01 0. -1.
          6    1    1    2  502    0  0.13399998299E+02 -0.12737766556E+03 -0.48347215771E+03  0.52889881539E+03  0.17200000000E+03 0. -1.
         -6    1    1    2    0  502 -0.13399998299E+02  0.12737766556E+03  0.13781364436E+02  0.21489196272E+03  0.17200000000E+03 0.  1.
</event>
<event>
 4    1 -0.6479440E-004  0.2134910E+03  0.7818608E-02  0.1138831E+00
         -5   -1    0    0    0  501 -0.00000000000E+00  0.00000000000E+00  0.45150318599E+03  0.45152764806E+03  0.47000000000E+01 0.  1.
          5   -1    0    0  501    0  0.00000000000E+00 -0.00000000000E+00 -0.55403672880E+03  0.55405666394E+03  0.47000000000E+01 0. -1.
          6    1    1    2  502    0  0.71331079075E+02 -0.10443305642E+03 -0.50595647158E+03  0.54915420171E+03  0.17200000000E+03 0. -1.
         -6    1    1    2    0  502 -0.71331079075E+02  0.10443305642E+03  0.40342292878E+03  0.45643011029E+03  0.17200000000E+03 0.  1.
</event>
<event>
 4    1 -0.6479440E-004  0.1765496E+03  0.7818608E-02  0.1171185E+00
          5   -1    0    0  501    0  0.00000000000E+00  0.00000000000E+00  0.72417374019E+02  0.72569732394E+02  0.47000000000E+01 0. -1.
         -5   -1    0    0    0  501 -0.00000000000E+00 -0.00000000000E+00 -0.83103354272E+03  0.83104683330E+03  0.47000000000E+01 0.  1.
          6    1    1    2  502    0  0.13918341907E+01 -0.39797252325E+02 -0.65403083543E+02  0.18827459157E+03  0.17200000000E+03 0. -1.
         -6    1    1    2    0  502 -0.13918341907E+01  0.39797252325E+02 -0.69321308516E+03  0.71534197412E+03  0.17200000000E+03 0.  1.
</event>
<event>
 4    1 -0.6479440E-004  0.1984328E+03  0.7818608E-02  0.1151068E+00
          5   -1    0    0  501    0  0.00000000000E+00  0.00000000000E+00  0.99074716883E+02  0.99186135752E+02  0.47000000000E+01 0. -1.
         -5   -1    0    0    0  501 -0.00000000000E+00 -0.00000000000E+00 -0.69826747129E+03  0.69828328883E+03  0.47000000000E+01 0.  1.
          6    1    1    2  502    0 -0.62173335126E+02  0.76980834951E+02 -0.37749759760E+02  0.20199162585E+03  0.17200000000E+03 0. -1.
         -6    1    1    2    0  502  0.62173335126E+02 -0.76980834951E+02 -0.56144299464E+03  0.59547779873E+03  0.17200000000E+03 0.  1.
</event>
<event>
 4    1 -0.6479440E-004  0.2502863E+03  0.7818608E-02  0.1113124E+00
          5   -1    0    0  501    0  0.00000000000E+00  0.00000000000E+00  0.26389025027E+03  0.26393210147E+03  0.47000000000E+01 0. -1.
         -5   -1    0    0    0  501 -0.00000000000E+00 -0.00000000000E+00 -0.23730013233E+03  0.23734667219E+03  0.47000000000E+01 0.  1.
          6    1    1    2  502    0 -0.14696886790E+03 -0.10704861761E+03  0.13593766663E+02  0.25065523165E+03  0.17200000000E+03 0.  1.
         -6    1    1    2    0  502  0.14696886790E+03  0.10704861761E+03  0.12996351280E+02  0.25062354201E+03  0.17200000000E+03 0.  1.
</event>
<event>
 4    1 -0.6479440E-004  0.2021466E+03  0.7818608E-02  0.1147940E+00
          5   -1    0    0  501    0  0.00000000000E+00  0.00000000000E+00  0.91738300533E+03  0.91739504493E+03  0.47000000000E+01 0. -1.
         -5   -1    0    0    0  501 -0.00000000000E+00 -0.00000000000E+00 -0.45332836656E+02  0.45575827796E+02  0.47000000000E+01 0.  1.
          6    1    1    2  502    0  0.13941780850E+02 -0.10528467973E+03  0.36740800663E+03  0.41934696896E+03  0.17200000000E+03 0. -1.
         -6    1    1    2    0  502 -0.13941780850E+02  0.10528467973E+03  0.50464216204E+03  0.54362390377E+03  0.17200000000E+03 0.  1.
</event>
<event>
 4    1 -0.6479440E-004  0.2451019E+03  0.7818608E-02  0.1116440E+00
         -5   -1    0    0    0  501 -0.00000000000E+00  0.00000000000E+00  0.40643405338E+03  0.40646122785E+03  0.47000000000E+01 0.  1.
          5   -1    0    0  501    0  0.00000000000E+00 -0.00000000000E+00 -0.33457086331E+03  0.33460387412E+03  0.47000000000E+01 0. -1.
          6    1    1    2  502    0 -0.52863982622E+02 -0.16642220217E+03 -0.24092419719E+03  0.34368505761E+03  0.17200000000E+03 0. -1.
         -6    1    1    2    0  502  0.52863982622E+02  0.16642220217E+03  0.31278738726E+03  0.39738004437E+03  0.17200000000E+03 0.  1.
</event>
<event>
 4    1 -0.6479440E-004  0.3020932E+03  0.7818608E-02  0.1084199E+00
         -5   -1    0    0    0  501 -0.00000000000E+00  0.00000000000E+00  0.39104547312E+03  0.39107371690E+03  0.47000000000E+01 0.  1.
          5   -1    0    0  501    0  0.00000000000E+00 -0.00000000000E+00 -0.41904094190E+03  0.41906729888E+03  0.47000000000E+01 0. -1.
          6    1    1    2  502    0 -0.19788623922E+03  0.15005779731E+03 -0.28365066416E+03  0.41438871303E+03  0.17200000000E+03 0. -1.
         -6    1    1    2    0  502  0.19788623922E+03 -0.15005779731E+03  0.25565519538E+03  0.39575230275E+03  0.17200000000E+03 0.  1.
</event>
<event>
 4    1 -0.6479440E-004  0.1984764E+03  0.7818608E-02  0.1151031E+00
         -5   -1    0    0    0  501 -0.00000000000E+00  0.00000000000E+00  0.98317022902E+03  0.98318146302E+03  0.47000000000E+01 0.  1.
          5   -1    0    0  501    0  0.00000000000E+00 -0.00000000000E+00 -0.58428996013E+02  0.58617724070E+02  0.47000000000E+01 0. -1.
          6    1    1    2  502    0 -0.75006193813E+02 -0.64675758569E+02  0.16978487268E+03  0.26118917636E+03  0.17200000000E+03 0. -1.
         -6    1    1    2    0  502  0.75006193813E+02  0.64675758569E+02  0.75495636033E+03  0.78061001073E+03  0.17200000000E+03 0.  1.
</event>
<event>
 4    1 -0.6479440E-004  0.2262410E+03  0.7818608E-02  0.1129314E+00
         -5   -1    0    0    0  501 -0.00000000000E+00  0.00000000000E+00  0.21931173300E+03  0.21936208932E+03  0.47000000000E+01 0.  1.
          5   -1    0    0  501    0  0.00000000000E+00 -0.00000000000E+00 -0.49399214443E+03  0.49401450258E+03  0.47000000000E+01 0. -1.
          6    1    1    2  502    0 -0.61913506738E+02  0.13329549115E+03 -0.39643883160E+03  0.45645231676E+03  0.17200000000E+03 0. -1.
         -6    1    1    2    0  502  0.61913506738E+02 -0.13329549115E+03  0.12175842016E+03  0.25692427514E+03  0.17200000000E+03 0.  1.
</event>
<event>
 4    1 -0.6479440E-004  0.2695215E+03  0.7818608E-02  0.1101554E+00
         -5   -1    0    0    0  501 -0.00000000000E+00  0.00000000000E+00  0.28765110133E+03  0.28768949598E+03  0.47000000000E+01 0.  1.
          5   -1    0    0  501    0  0.00000000000E+00 -0.00000000000E+00 -0.25323686651E+03  0.25328047805E+03  0.47000000000E+01 0. -1.
          6    1    1    2  502    0  0.11314282193E+03  0.17394399702E+03  0.32211856684E+02  0.27143952543E+03  0.17200000000E+03 0. -1.
         -6    1    1    2    0  502 -0.11314282193E+03 -0.17394399702E+03  0.22023781324E+01  0.26953044860E+03  0.17200000000E+03 0.  1.
</event>
<event>
 4    1 -0.6479440E-004  0.1868237E+03  0.7818608E-02  0.1161358E+00
         -5   -1    0    0    0  501 -0.00000000000E+00  0.00000000000E+00  0.12236953332E+03  0.12245975945E+03  0.47000000000E+01 0.  1.
          5   -1    0    0  501    0  0.00000000000E+00 -0.00000000000E+00 -0.18418819145E+04  0.18418879111E+04  0.47000000000E+01 0. -1.
          6    1    1    2  502    0 -0.60031932505E+02  0.41415834204E+02 -0.17627199225E+04  0.17725926293E+04  0.17200000000E+03 0. -1.
         -6    1    1    2    0  502  0.60031932505E+02 -0.41415834204E+02  0.43207541254E+02  0.19175504130E+03  0.17200000000E+03 0.  1.
</event>
<event>
 4    1 -0.6479440E-004  0.3276141E+03  0.7818608E-02  0.1072197E+00
          5   -1    0    0  501    0  0.00000000000E+00  0.00000000000E+00  0.14014118465E+04  0.14014197278E+04  0.47000000000E+01 0. -1.
         -5   -1    0    0    0  501 -0.00000000000E+00 -0.00000000000E+00 -0.19015455775E+03  0.19021263321E+03  0.47000000000E+01 0.  1.
          6    1    1    2  502    0 -0.20412628258E+03 -0.18994587670E+03  0.12206836358E+04  0.12638827137E+04  0.17200000000E+03 0. -1.
         -6    1    1    2    0  502  0.20412628258E+03  0.18994587670E+03 -0.94263470136E+01  0.32774964734E+03  0.17200000000E+03 0.  1.
</event>
<event>
 4    1 -0.6479440E-004  0.1804413E+03  0.7818608E-02  0.1167377E+00
          5   -1    0    0  501    0  0.00000000000E+00  0.00000000000E+00  0.32397402952E+03  0.32400811997E+03  0.47000000000E+01 0. -1.
         -5   -1    0    0    0  501 -0.00000000000E+00 -0.00000000000E+00 -0.54301431510E+03  0.54303465488E+03  0.47000000000E+01 0.  1.
          6    1    1    2  502    0 -0.52921516673E+02  0.13205782030E+02  0.28183913550E+03  0.33465262274E+03  0.17200000000E+03 0. -1.
         -6    1    1    2    0  502  0.52921516673E+02 -0.13205782030E+02 -0.50087942108E+03  0.53239015211E+03  0.17200000000E+03 0.  1.
</event>
<event>
 4    1 -0.6479440E-004  0.1771454E+03  0.7818608E-02  0.1170595E+00
          5   -1    0    0  501    0  0.00000000000E+00  0.00000000000E+00  0.14381326635E+03  0.14389004683E+03  0.47000000000E+01 0. -1.
         -5   -1    0    0    0  501 -0.00000000000E+00 -0.00000000000E+00 -0.51899319635E+03  0.51901447750E+03  0.47000000000E+01 0.  1.
          6    1    1    2  502    0 -0.54308090739E+01 -0.42035679166E+02  0.64781655595E+02  0.18861907356E+03  0.17200000000E+03 0. -1.
         -6    1    1    2    0  502  0.54308090739E+01  0.42035679166E+02 -0.43996158560E+03  0.47428545077E+03  0.17200000000E+03 0.  1.
</event>
<event>
 4    1 -0.6479440E-004  0.1879462E+03  0.7818608E-02  0.1160327E+00
          5   -1    0    0  501    0  0.00000000000E+00  0.00000000000E+00  0.14283732229E+03  0.14291462710E+03  0.47000000000E+01 0. -1.
         -5   -1    0    0    0  501 -0.00000000000E+00 -0.00000000000E+00 -0.45718240182E+03  0.45720656003E+03  0.47000000000E+01 0.  1.
          6    1    1    2  502    0 -0.43589932420E+02  0.61965189233E+02  0.46189883847E+02  0.19353881330E+03  0.17200000000E+03 0. -1.
         -6    1    1    2    0  502  0.43589932420E+02 -0.61965189233E+02 -0.36053496338E+03  0.40658237382E+03  0.17200000000E+03 0.  1.
</event>
<event>
 4    1 -0.6479440E-004  0.1794522E+03  0.7818608E-02  0.1168334E+00
          5   -1    0    0  501    0  0.00000000000E+00  0.00000000000E+00  0.55602805277E+02  0.55801092774E+02  0.47000000000E+01 0. -1.
         -5   -1    0    0    0  501 -0.00000000000E+00 -0.00000000000E+00 -0.13426726671E+04  0.13426808932E+04  0.47000000000E+01 0.  1.
          6    1    1    2  502    0 -0.40126016823E+02  0.31764647497E+02 -0.11585959473E+03  0.21360368852E+03  0.17200000000E+03 0. -1.
         -6    1    1    2    0  502  0.40126016823E+02 -0.31764647497E+02 -0.11712102671E+04  0.11848782974E+04  0.17200000000E+03 0.  1.
</event>
<event>
 4    1 -0.6479440E-004  0.2374421E+03  0.7818608E-02  0.1121509E+00
          5   -1    0    0  501    0  0.00000000000E+00  0.00000000000E+00  0.66975628776E+03  0.66977277863E+03  0.47000000000E+01 0. -1.
         -5   -1    0    0    0  501 -0.00000000000E+00 -0.00000000000E+00 -0.10988958799E+03  0.10999005205E+03  0.47000000000E+01 0.  1.
          6    1    1    2  502    0 -0.14260809917E+03  0.80359729314E+02  0.46871434629E+03  0.52542544139E+03  0.17200000000E+03 0. -1.
         -6    1    1    2    0  502  0.14260809917E+03 -0.80359729314E+02  0.91152353475E+02  0.25433738928E+03  0.17200000000E+03 0.  1.
</event>
<event>
 4    1 -0.6479440E-004  0.1795757E+03  0.7818608E-02  0.1168214E+00
         -5   -1    0    0    0  501 -0.00000000000E+00  0.00000000000E+00  0.32588354270E+02  0.32925534681E+02  0.47000000000E+01 0.  1.
          5   -1    0    0  501    0  0.00000000000E+00 -0.00000000000E+00 -0.10066787741E+04  0.10066897458E+04  0.47000000000E+01 0. -1.
          6    1    1    2  502    0  0.50874415367E+02  0.86730888888E+01 -0.56487500634E+03  0.59273198109E+03  0.17200000000E+03 0. -1.
         -6    1    1    2    0  502 -0.50874415367E+02 -0.86730888888E+01 -0.40921541348E+03  0.44688329935E+03  0.17200000000E+03 0. -1.
</event>
<event>
 4    1 -0.6479440E-004  0.1972252E+03  0.7818608E-02  0.1152101E+00
          5   -1    0    0  501    0  0.00000000000E+00  0.00000000000E+00  0.63674554101E+03  0.63676288679E+03  0.47000000000E+01 0. -1.
         -5   -1    0    0    0  501 -0.00000000000E+00 -0.00000000000E+00 -0.15495998074E+03  0.15503124082E+03  0.47000000000E+01 0.  1.
          6    1    1    2  502    0 -0.73210724219E+02  0.62880643926E+02  0.54906232146E+03  0.58340999166E+03  0.17200000000E+03 0. -1.
         -6    1    1    2    0  502  0.73210724219E+02 -0.62880643926E+02 -0.67276761190E+02  0.20838413595E+03  0.17200000000E+03 0.  1.
</event>
<event>
 4    1 -0.6479440E-004  0.2496635E+03  0.7818608E-02  0.1113518E+00
         -5   -1    0    0    0  501 -0.00000000000E+00  0.00000000000E+00  0.93884173594E+03  0.93885350036E+03  0.47000000000E+01 0.  1.
          5   -1    0    0  501    0  0.00000000000E+00 -0.00000000000E+00 -0.18631974195E+03  0.18637901234E+03  0.47000000000E+01 0. -1.
          6    1    1    2  502    0  0.13258948616E+03  0.12315806608E+03 -0.75147307865E+02  0.26072782544E+03  0.17200000000E+03 0. -1.
         -6    1    1    2    0  502 -0.13258948616E+03 -0.12315806608E+03  0.82766930185E+03  0.86450468727E+03  0.17200000000E+03 0.  1.
</event>
<event>
 4    1 -0.6479440E-004  0.1831920E+03  0.7818608E-02  0.1164749E+00
          5   -1    0    0  501    0  0.00000000000E+00  0.00000000000E+00  0.13994859536E+04  0.13994938458E+04  0.47000000000E+01 0. -1.
         -5   -1    0    0    0  501 -0.00000000000E+00 -0.00000000000E+00 -0.45092780993E+02  0.45337058768E+02  0.47000000000E+01 0.  1.
          6    1    1    2  502    0  0.43609232001E+01 -0.62899067499E+02  0.11723247053E+04  0.11865515265E+04  0.17200000000E+03 0. -1.
         -6    1    1    2    0  502 -0.43609232001E+01  0.62899067499E+02  0.18206846736E+03  0.25827937809E+03  0.17200000000E+03 0.  1.
</event>
<event>
 4    1 -0.6479440E-004  0.1896865E+03  0.7818608E-02  0.1158744E+00
          5   -1    0    0  501    0  0.00000000000E+00  0.00000000000E+00  0.12311113944E+03  0.12320082246E+03  0.47000000000E+01 0. -1.
         -5   -1    0    0    0  501 -0.00000000000E+00 -0.00000000000E+00 -0.45653690167E+03  0.45656109403E+03  0.47000000000E+01 0.  1.
          6    1    1    2  502    0 -0.65144557390E+02 -0.46402304782E+02  0.72637761927E+01  0.18982557702E+03  0.17200000000E+03 0. -1.
         -6    1    1    2    0  502  0.65144557390E+02  0.46402304782E+02 -0.34068953842E+03  0.38993633947E+03  0.17200000000E+03 0.  1.
</event>
<event>
 4    1 -0.6479440E-004  0.1797165E+03  0.7818608E-02  0.1168078E+00
         -5   -1    0    0    0  501 -0.00000000000E+00  0.00000000000E+00  0.13073448936E+04  0.13073533420E+04  0.47000000000E+01 0.  1.
          5   -1    0    0  501    0  0.00000000000E+00 -0.00000000000E+00 -0.50048501915E+02  0.50268703424E+02  0.47000000000E+01 0. -1.
          6    1    1    2  502    0 -0.36431059217E+02 -0.37239862903E+02  0.14504797312E+03  0.23094792481E+03  0.17200000000E+03 0. -1.
         -6    1    1    2    0  502  0.36431059217E+02  0.37239862903E+02  0.11122484185E+04  0.11266741206E+04  0.17200000000E+03 0.  1.
</event>
<event>
 4    1 -0.6479440E-004  0.2191203E+03  0.7818608E-02  0.1134541E+00
         -5   -1    0    0    0  501 -0.00000000000E+00  0.00000000000E+00  0.10826888568E+03  0.10837085220E+03  0.47000000000E+01 0.  1.
          5   -1    0    0  501    0  0.00000000000E+00 -0.00000000000E+00 -0.14709516208E+04  0.14709591295E+04  0.47000000000E+01 0. -1.
          6    1    1    2  502    0  0.12237620524E+03  0.58768800092E+02 -0.13413994237E+04  0.13591784729E+04  0.17200000000E+03 0. -1.
         -6    1    1    2    0  502 -0.12237620524E+03 -0.58768800092E+02 -0.21283311440E+02  0.22015150878E+03  0.17200000000E+03 0.  1.
</event>
<event>
 4    1 -0.6479440E-004  0.1928790E+03  0.7818608E-02  0.1155890E+00
         -5   -1    0    0    0  501 -0.00000000000E+00  0.00000000000E+00  0.14536310653E+04  0.14536386635E+04  0.47000000000E+01 0.  1.
          5   -1    0    0  501    0  0.00000000000E+00 -0.00000000000E+00 -0.11816331460E+04  0.11816424932E+04  0.47000000000E+01 0. -1.
          6    1    1    2  502    0  0.61768123804E+02  0.61668396370E+02 -0.11672944890E+04  0.11831224434E+04  0.17200000000E+03 0. -1.
         -6    1    1    2    0  502 -0.61768123804E+02 -0.61668396370E+02  0.14392924082E+04  0.14521587133E+04  0.17200000000E+03 0.  1.
</event>
<event>
 4    1 -0.6479440E-004  0.1954973E+03  0.7818608E-02  0.1153595E+00
         -5   -1    0    0    0  501 -0.00000000000E+00  0.00000000000E+00  0.10069802738E+03  0.10080765209E+03  0.47000000000E+01 0.  1.
          5   -1    0    0  501    0  0.00000000000E+00 -0.00000000000E+00 -0.38338208525E+03  0.38341089355E+03  0.47000000000E+01 0. -1.
          6    1    1    2  502    0  0.10607850736E+02  0.92318290110E+02 -0.11609603762E+03  0.22737080538E+03  0.17200000000E+03 0. -1.
         -6    1    1    2    0  502 -0.10607850736E+02 -0.92318290110E+02 -0.16658802024E+03  0.25684774026E+03  0.17200000000E+03 0.  1.
</event>
<event>
 4    1 -0.6479440E-004  0.1883679E+03  0.7818608E-02  0.1159942E+00
         -5   -1    0    0    0  501 -0.00000000000E+00  0.00000000000E+00  0.69164281113E+02  0.69323789437E+02  0.47000000000E+01 0.  1.
          5   -1    0    0  501    0  0.00000000000E+00 -0.00000000000E+00 -0.61615165134E+03  0.61616957686E+03  0.47000000000E+01 0. -1.
          6    1    1    2  502    0  0.76791415128E+02  0.12423063062E+01 -0.41421664730E+03  0.45503614765E+03  0.17200000000E+03 0. -1.
         -6    1    1    2    0  502 -0.76791415128E+02 -0.12423063062E+01 -0.13277072292E+03  0.23045721865E+03  0.17200000000E+03 0.  1.
</event>
<event>
 4    1 -0.6479440E-004  0.1893530E+03  0.7818608E-02  0.1159046E+00
          5   -1    0    0  501    0  0.00000000000E+00  0.00000000000E+00  0.13705521078E+04  0.13705601666E+04  0.47000000000E+01 0. -1.
         -5   -1    0    0    0  501 -0.00000000000E+00 -0.00000000000E+00 -0.42213198797E+02  0.42474040927E+02  0.47000000000E+01 0.  1.
          6    1    1    2  502    0  0.51349741242E+02  0.60280592009E+02  0.11010125806E+04  0.11171764625E+04  0.17200000000E+03 0. -1.
         -6    1    1    2    0  502 -0.51349741242E+02 -0.60280592009E+02  0.22732632841E+03  0.29585774502E+03  0.17200000000E+03 0.  1.
</event>
<event>
 4    1 -0.6479440E-004  0.2597126E+03  0.7818608E-02  0.1107316E+00
         -5   -1    0    0    0  501 -0.00000000000E+00  0.00000000000E+00  0.57901594667E+03  0.57903502182E+03  0.47000000000E+01 0.  1.
          5   -1    0    0  501    0  0.00000000000E+00 -0.00000000000E+00 -0.12186675963E+03  0.12195735773E+03  0.47000000000E+01 0. -1.
          6    1    1    2  502    0 -0.16768540469E+03  0.98733100210E+02  0.15453316847E+03  0.30221039059E+03  0.17200000000E+03 0. -1.
         -6    1    1    2    0  502  0.16768540469E+03 -0.98733100210E+02  0.30261601857E+03  0.39878198896E+03  0.17200000000E+03 0.  1.
</event>
<event>
 4    1 -0.6479440E-004  0.2037861E+03  0.7818608E-02  0.1146583E+00
          5   -1    0    0  501    0  0.00000000000E+00  0.00000000000E+00  0.17483979299E+03  0.17490295370E+03  0.47000000000E+01 0. -1.
         -5   -1    0    0    0  501 -0.00000000000E+00 -0.00000000000E+00 -0.11276593342E+04  0.11276691288E+04  0.47000000000E+01 0.  1.
          6    1    1    2  502    0 -0.77795313020E+02  0.76763738643E+02  0.10225174785E+03  0.22800044350E+03  0.17200000000E+03 0. -1.
         -6    1    1    2    0  502  0.77795313020E+02 -0.76763738643E+02 -0.10550712891E+04  0.10745716390E+04  0.17200000000E+03 0.  1.
</event>
<event>
 4    1 -0.6479440E-004  0.1894357E+03  0.7818608E-02  0.1158971E+00
         -5   -1    0    0    0  501 -0.00000000000E+00  0.00000000000E+00  0.17433854640E+03  0.17440188864E+03  0.47000000000E+01 0.  1.
          5   -1    0    0  501    0  0.00000000000E+00 -0.00000000000E+00 -0.29363265557E+03  0.29367026819E+03  0.47000000000E+01 0. -1.
          6    1    1    2  502    0  0.63431706394E+02 -0.47731701694E+02 -0.18768648666E+03  0.26666854707E+03  0.17200000000E+03 0. -1.
         -6    1    1    2    0  502 -0.63431706394E+02  0.47731701694E+02  0.68392377487E+02  0.20140360975E+03  0.17200000000E+03 0.  1.
</event>
<event>
 4    1 -0.6479440E-004  0.1769461E+03  0.7818608E-02  0.1170792E+00
          5   -1    0    0  501    0  0.00000000000E+00  0.00000000000E+00  0.56931576623E+02  0.57125252006E+02  0.47000000000E+01 0. -1.
         -5   -1    0    0    0  501 -0.00000000000E+00 -0.00000000000E+00 -0.10134925833E+04  0.10135034812E+04  0.47000000000E+01 0.  1.
          6    1    1    2  502    0  0.36251848977E+02 -0.20291068304E+02 -0.11584764673E+03  0.21149610223E+03  0.17200000000E+03 0. -1.
         -6    1    1    2    0  502 -0.36251848977E+02  0.20291068304E+02 -0.84071335999E+03  0.85913263101E+03  0.17200000000E+03 0.  1.
</event>
<event>
 4    1 -0.6479440E-004  0.1948342E+03  0.7818608E-02  0.1154172E+00
         -5   -1    0    0    0  501 -0.00000000000E+00  0.00000000000E+00  0.14694651773E+03  0.14702166192E+03  0.47000000000E+01 0.  1.
          5   -1    0    0  501    0  0.00000000000E+00 -0.00000000000E+00 -0.33066156645E+03  0.33069496750E+03  0.47000000000E+01 0. -1.
          6    1    1    2  502    0  0.88766826813E+02  0.22289715057E+02 -0.20368073960E+03  0.28186206666E+03  0.17200000000E+03 0. -1.
         -6    1    1    2    0  502 -0.88766826813E+02 -0.22289715057E+02  0.19965690882E+02  0.19585456276E+03  0.17200000000E+03 0.  1.
</event>
<event>
 4    1 -0.6479440E-004  0.2219071E+03  0.7818608E-02  0.1132469E+00
         -5   -1    0    0    0  501 -0.00000000000E+00  0.00000000000E+00  0.13900684542E+04  0.13900763998E+04  0.47000000000E+01 0.  1.
          5   -1    0    0  501    0  0.00000000000E+00 -0.00000000000E+00 -0.16218937061E+03  0.16225745573E+03  0.47000000000E+01 0. -1.
          6    1    1    2  502    0  0.35866105007E+02 -0.13554482167E+03 -0.72273411202E+02  0.23337999515E+03  0.17200000000E+03 0. -1.
         -6    1    1    2    0  502 -0.35866105007E+02  0.13554482167E+03  0.13001524948E+04  0.13189538604E+04  0.17200000000E+03 0.  1.
</event>
<event>
 4    1 -0.6479440E-004  0.2299958E+03  0.7818608E-02  0.1126643E+00
          5   -1    0    0  501    0  0.00000000000E+00  0.00000000000E+00  0.71495625874E+03  0.71497170707E+03  0.47000000000E+01 0. -1.
         -5   -1    0    0    0  501 -0.00000000000E+00 -0.00000000000E+00 -0.30972569528E+03  0.30976135381E+03  0.47000000000E+01 0.  1.
          6    1    1    2  502    0 -0.69970898336E+02 -0.13571352044E+03  0.64962280666E+03  0.68913560144E+03  0.17200000000E+03 0. -1.
         -6    1    1    2    0  502  0.69970898336E+02  0.13571352044E+03 -0.24439224320E+03  0.33559745944E+03  0.17200000000E+03 0.  1.
</event>
<event>
 4    1 -0.6479440E-004  0.1762761E+03  0.7818608E-02  0.1171457E+00
         -5   -1    0    0    0  501 -0.00000000000E+00  0.00000000000E+00  0.19913874942E+03  0.19919420554E+03  0.47000000000E+01 0.  1.
          5   -1    0    0  501    0  0.00000000000E+00 -0.00000000000E+00 -0.18055134126E+03  0.18061250464E+03  0.47000000000E+01 0. -1.
          6    1    1    2  502    0  0.27380325637E+02  0.27195175426E+02 -0.60816381982E+02  0.18647222881E+03  0.17200000000E+03 0. -1.
         -6    1    1    2    0  502 -0.27380325637E+02 -0.27195175426E+02  0.79403790135E+02  0.19333448137E+03  0.17200000000E+03 0.  1.
</event>
<event>
 4    1 -0.6479440E-004  0.1750740E+03  0.7818608E-02  0.1172657E+00
         -5   -1    0    0    0  501 -0.00000000000E+00  0.00000000000E+00  0.43230100186E+03  0.43232655043E+03  0.47000000000E+01 0.  1.
          5   -1    0    0  501    0  0.00000000000E+00 -0.00000000000E+00 -0.16688730331E+03  0.16695347258E+03  0.47000000000E+01 0. -1.
          6    1    1    2  502    0  0.29758651702E+02 -0.13465374582E+02 -0.94568418389E+02  0.19898261085E+03  0.17200000000E+03 0. -1.
         -6    1    1    2    0  502 -0.29758651702E+02  0.13465374582E+02  0.35998211694E+03  0.40029741216E+03  0.17200000000E+03 0.  1.
</event>
<event>
 4    1 -0.6479440E-004  0.1922639E+03  0.7818608E-02  0.1156435E+00
          5   -1    0    0  501    0  0.00000000000E+00  0.00000000000E+00  0.11797153438E+03  0.11806512154E+03  0.47000000000E+01 0. -1.
         -5   -1    0    0    0  501 -0.00000000000E+00 -0.00000000000E+00 -0.42858763199E+03  0.42861340191E+03  0.47000000000E+01 0.  1.
          6    1    1    2  502    0 -0.77695259353E+01  0.85563052222E+02 -0.13443024244E+02  0.19273327772E+03  0.17200000000E+03 0. -1.
         -6    1    1    2    0  502  0.77695259353E+01 -0.85563052222E+02 -0.29717307337E+03  0.35394524573E+03  0.17200000000E+03 0.  1.
</event>
<event>
 4    1 -0.6479440E-004  0.1837633E+03  0.7818608E-02  0.1164210E+00
          5   -1    0    0  501    0  0.00000000000E+00  0.00000000000E+00  0.21422420792E+03  0.21427575985E+03  0.47000000000E+01 0. -1.
         -5   -1    0    0    0  501 -0.00000000000E+00 -0.00000000000E+00 -0.60492648950E+03  0.60494474764E+03  0.47000000000E+01 0.  1.
          6    1    1    2  502    0 -0.16178761380E+02  0.62635422077E+02  0.15688374105E+03  0.24162254991E+03  0.17200000000E+03 0. -1.
         -6    1    1    2    0  502  0.16178761380E+02 -0.62635422077E+02 -0.54758602263E+03  0.57759795758E+03  0.17200000000E+03 0.  1.
</event>
<event>
 4    1 -0.6479440E-004  0.2663120E+03  0.7818608E-02  0.1103409E+00
          5   -1    0    0  501    0  0.00000000000E+00  0.00000000000E+00  0.11199007734E+03  0.11208865876E+03  0.47000000000E+01 0. -1.
         -5   -1    0    0    0  501 -0.00000000000E+00 -0.00000000000E+00 -0.96502328611E+03  0.96503473136E+03  0.47000000000E+01 0.  1.
          6    1    1    2  502    0  0.12284185144E+02  0.20294619153E+03 -0.11058801114E+03  0.28836047939E+03  0.17200000000E+03 0. -1.
         -6    1    1    2    0  502 -0.12284185144E+02 -0.20294619153E+03 -0.74244519763E+03  0.78876291073E+03  0.17200000000E+03 0.  1.
</event>
<event>
 4    1 -0.6479440E-004  0.1967886E+03  0.7818608E-02  0.1152477E+00
          5   -1    0    0  501    0  0.00000000000E+00  0.00000000000E+00  0.10206876062E+04  0.10206984272E+04  0.47000000000E+01 0. -1.
         -5   -1    0    0    0  501 -0.00000000000E+00 -0.00000000000E+00 -0.27901827586E+03  0.27905785827E+03  0.47000000000E+01 0.  1.
          6    1    1    2  502    0 -0.59582441964E+02  0.74777683954E+02  0.97491930894E+03  0.99458203701E+03  0.17200000000E+03 0. -1.
         -6    1    1    2    0  502  0.59582441964E+02 -0.74777683954E+02 -0.23324997864E+03  0.30517424850E+03  0.17200000000E+03 0.  1.
</event>
<event>
 4    1 -0.6479440E-004  0.1901030E+03  0.7818608E-02  0.1158368E+00
         -5   -1    0    0    0  501 -0.00000000000E+00  0.00000000000E+00  0.42361445581E+03  0.42364052825E+03  0.47000000000E+01 0.  1.
          5   -1    0    0  501    0  0.00000000000E+00 -0.00000000000E+00 -0.41386418243E+03  0.41389086907E+03  0.47000000000E+01 0. -1.
          6    1    1    2  502    0 -0.80510327027E+02 -0.85578757392E+01 -0.36824771415E+03  0.41442192144E+03  0.17200000000E+03 0. -1.
         -6    1    1    2    0  502  0.80510327027E+02  0.85578757392E+01  0.37799798753E+03  0.42310947587E+03  0.17200000000E+03 0.  1.
</event>
<event>
 4    1 -0.6479440E-004  0.1824996E+03  0.7818608E-02  0.1165406E+00
         -5   -1    0    0    0  501 -0.00000000000E+00  0.00000000000E+00  0.18359979536E+03  0.18365994352E+03  0.47000000000E+01 0.  1.
          5   -1    0    0  501    0  0.00000000000E+00 -0.00000000000E+00 -0.25215653432E+03  0.25220033268E+03  0.47000000000E+01 0. -1.
          6    1    1    2  502    0  0.60788254007E+02 -0.51852746696E+01 -0.14978827626E+03  0.23609876451E+03  0.17200000000E+03 0. -1.
         -6    1    1    2    0  502 -0.60788254007E+02  0.51852746696E+01  0.81231537298E+02  0.19976151168E+03  0.17200000000E+03 0.  1.
</event>
<event>
 4    1 -0.6479440E-004  0.2426681E+03  0.7818608E-02  0.1118028E+00
          5   -1    0    0  501    0  0.00000000000E+00  0.00000000000E+00  0.32074543433E+03  0.32077986789E+03  0.47000000000E+01 0. -1.
         -5   -1    0    0    0  501 -0.00000000000E+00 -0.00000000000E+00 -0.39844560597E+03  0.39847332522E+03  0.47000000000E+01 0.  1.
          6    1    1    2  502    0  0.97714915118E+02 -0.14055466344E+03  0.22524860806E+03  0.33109629035E+03  0.17200000000E+03 0. -1.
         -6    1    1    2    0  502 -0.97714915118E+02  0.14055466344E+03 -0.30294877969E+03  0.38815690277E+03  0.17200000000E+03 0.  1.
</event>
<event>
 4    1 -0.6479440E-004  0.2066955E+03  0.7818608E-02  0.1144210E+00
         -5   -1    0    0    0  501 -0.00000000000E+00  0.00000000000E+00  0.74852715329E+03  0.74854190879E+03  0.47000000000E+01 0.  1.
          5   -1    0    0  501    0  0.00000000000E+00 -0.00000000000E+00 -0.20877123968E+03  0.20882413778E+03  0.47000000000E+01 0. -1.
          6    1    1    2  502    0  0.10402822256E+03 -0.48136942263E+02 -0.13817394016E+03  0.24862637438E+03  0.17200000000E+03 0. -1.
         -6    1    1    2    0  502 -0.10402822256E+03  0.48136942263E+02  0.67792985377E+03  0.70873967218E+03  0.17200000000E+03 0.  1.
</event>
<event>
 4    1 -0.6479440E-004  0.1803653E+03  0.7818608E-02  0.1167450E+00
         -5   -1    0    0    0  501 -0.00000000000E+00  0.00000000000E+00  0.63785211998E+02  0.63958136852E+02  0.47000000000E+01 0.  1.
          5   -1    0    0  501    0  0.00000000000E+00 -0.00000000000E+00 -0.90423608706E+03  0.90424830170E+03  0.47000000000E+01 0. -1.
          6    1    1    2  502    0  0.28644707335E+02  0.46120881212E+02 -0.74018883970E+03  0.76184721129E+03  0.17200000000E+03 0. -1.
         -6    1    1    2    0  502 -0.28644707335E+02 -0.46120881212E+02 -0.10026203536E+03  0.20635922726E+03  0.17200000000E+03 0.  1.
</event>
<event>
 4    1 -0.6479440E-004  0.4409449E+03  0.7818608E-02  0.1030457E+00
          5   -1    0    0  501    0  0.00000000000E+00  0.00000000000E+00  0.46586699701E+03  0.46589070489E+03  0.47000000000E+01 0. -1.
         -5   -1    0    0    0  501 -0.00000000000E+00 -0.00000000000E+00 -0.57053334049E+03  0.57055269924E+03  0.47000000000E+01 0.  1.
          6    1    1    2  502    0  0.26681677117E+03 -0.30603467200E+03  0.21621484055E+03  0.49110209439E+03  0.17200000000E+03 0. -1.
         -6    1    1    2    0  502 -0.26681677117E+03  0.30603467200E+03 -0.32088118403E+03  0.54534130974E+03  0.17200000000E+03 0.  1.
</event>
<event>
 4    1 -0.6479440E-004  0.1777920E+03  0.7818608E-02  0.1169957E+00
          5   -1    0    0  501    0  0.00000000000E+00  0.00000000000E+00  0.28175900274E+03  0.28179820018E+03  0.47000000000E+01 0. -1.
         -5   -1    0    0    0  501 -0.00000000000E+00 -0.00000000000E+00 -0.48850155032E+03  0.48852415975E+03  0.47000000000E+01 0.  1.
          6    1    1    2  502    0 -0.35654402721E+02 -0.27473143262E+02  0.23469013278E+03  0.29443075325E+03  0.17200000000E+03 0. -1.
         -6    1    1    2    0  502  0.35654402721E+02  0.27473143262E+02 -0.44143268035E+03  0.47589160669E+03  0.17200000000E+03 0.  1.
</event>
<event>
 4    1 -0.6479440E-004  0.3626202E+03  0.7818608E-02  0.1057551E+00
          5   -1    0    0  501    0  0.00000000000E+00  0.00000000000E+00  0.66628881351E+03  0.66630539020E+03  0.47000000000E+01 0. -1.
         -5   -1    0    0    0  501 -0.00000000000E+00 -0.00000000000E+00 -0.24414352094E+03  0.24418875653E+03  0.47000000000E+01 0.  1.
          6    1    1    2  502    0  0.18823969921E+03 -0.25782792022E+03  0.41044573943E+03  0.54768524338E+03  0.17200000000E+03 0. -1.
         -6    1    1    2    0  502 -0.18823969921E+03  0.25782792022E+03  0.11699553139E+02  0.36280890335E+03  0.17200000000E+03 0.  1.
</event>
<event>
 4    1 -0.6479440E-004  0.1729283E+03  0.7818608E-02  0.1174828E+00
         -5   -1    0    0    0  501 -0.00000000000E+00  0.00000000000E+00  0.10354822145E+04  0.10354928810E+04  0.47000000000E+01 0.  1.
          5   -1    0    0  501    0  0.00000000000E+00 -0.00000000000E+00 -0.76054897777E+02  0.76199983437E+02  0.47000000000E+01 0. -1.
          6    1    1    2  502    0 -0.15785700971E+02 -0.84274495118E+01  0.41793517261E+02  0.17790702163E+03  0.17200000000E+03 0. -1.
         -6    1    1    2    0  502  0.15785700971E+02  0.84274495118E+01  0.91763379948E+03  0.93378584280E+03  0.17200000000E+03 0.  1.
</event>
<event>
 4    1 -0.6479440E-004  0.1942482E+03  0.7818608E-02  0.1154685E+00
          5   -1    0    0  501    0  0.00000000000E+00  0.00000000000E+00  0.12764902525E+03  0.12773552226E+03  0.47000000000E+01 0. -1.
         -5   -1    0    0    0  501 -0.00000000000E+00 -0.00000000000E+00 -0.33408338244E+03  0.33411644142E+03  0.47000000000E+01 0.  1.
          6    1    1    2  502    0 -0.49483021921E+02 -0.75496969937E+02 -0.24641411378E+02  0.19580490567E+03  0.17200000000E+03 0. -1.
         -6    1    1    2    0  502  0.49483021921E+02  0.75496969937E+02 -0.18179294582E+03  0.26604705801E+03  0.17200000000E+03 0.  1.
</event>
<event>
 4    1 -0.6479440E-004  0.1821217E+03  0.7818608E-02  0.1165765E+00
         -5   -1    0    0    0  501 -0.00000000000E+00  0.00000000000E+00  0.32116146235E+03  0.32119585131E+03  0.47000000000E+01 0.  1.
          5   -1    0    0  501    0  0.00000000000E+00 -0.00000000000E+00 -0.15497283279E+03  0.15504408697E+03  0.47000000000E+01 0. -1.
          6    1    1    2  502    0  0.42858261029E+02  0.41802885026E+02 -0.54505699600E+02  0.19010308526E+03  0.17200000000E+03 0. -1.
         -6    1    1    2    0  502 -0.42858261029E+02 -0.41802885026E+02  0.22069432916E+03  0.28613685302E+03  0.17200000000E+03 0.  1.
</event>
<event>
 4    1 -0.6479440E-004  0.1880297E+03  0.7818608E-02  0.1160251E+00
         -5   -1    0    0    0  501 -0.00000000000E+00  0.00000000000E+00  0.28069266309E+03  0.28073200942E+03  0.47000000000E+01 0.  1.
          5   -1    0    0  501    0  0.00000000000E+00 -0.00000000000E+00 -0.13925601818E+03  0.13933530996E+03  0.47000000000E+01 0. -1.
          6    1    1    2  502    0 -0.74925491438E+02  0.12543277399E+02  0.56154304111E+01  0.18811351927E+03  0.17200000000E+03 0. -1.
         -6    1    1    2    0  502  0.74925491438E+02 -0.12543277399E+02  0.13582121450E+03  0.23195380010E+03  0.17200000000E+03 0.  1.
</event>
<event>
 4    1 -0.6479440E-004  0.2081482E+03  0.7818608E-02  0.1143041E+00
          5   -1    0    0  501    0  0.00000000000E+00  0.00000000000E+00  0.12984522182E+03  0.12993025679E+03  0.47000000000E+01 0. -1.
         -5   -1    0    0    0  501 -0.00000000000E+00 -0.00000000000E+00 -0.41812042315E+03  0.41814683815E+03  0.47000000000E+01 0.  1.
          6    1    1    2  502    0 -0.10258406078E+03  0.56728943314E+02 -0.20844270633E+02  0.20918925918E+03  0.17200000000E+03 0. -1.
         -6    1    1    2    0  502  0.10258406078E+03 -0.56728943314E+02 -0.26743093069E+03  0.33888783576E+03  0.17200000000E+03 0.  1.
</event>
<event>
 4    1 -0.6479440E-004  0.1911197E+03  0.7818608E-02  0.1157455E+00
         -5   -1    0    0    0  501 -0.00000000000E+00  0.00000000000E+00  0.76218837607E+02  0.76363611793E+02  0.47000000000E+01 0.  1.
          5   -1    0    0  501    0  0.00000000000E+00 -0.00000000000E+00 -0.63559017800E+03  0.63560755531E+03  0.47000000000E+01 0. -1.
          6    1    1    2  502    0  0.19943796162E+02 -0.80901131203E+02 -0.45657038082E+03  0.49495783727E+03  0.17200000000E+03 0. -1.
         -6    1    1    2    0  502 -0.19943796162E+02  0.80901131203E+02 -0.10280095957E+03  0.21701332983E+03  0.17200000000E+03 0.  1.
</event>
<event>
 4    1 -0.6479440E-004  0.3819556E+03  0.7818608E-02  0.1050213E+00
          5   -1    0    0  501    0  0.00000000000E+00  0.00000000000E+00  0.67066678235E+03  0.67068325083E+03  0.47000000000E+01 0. -1.
         -5   -1    0    0    0  501 -0.00000000000E+00 -0.00000000000E+00 -0.30005181077E+03  0.30008861882E+03  0.47000000000E+01 0.  1.
          6    1    1    2  502    0 -0.33372769779E+03 -0.70227405270E+02  0.43990097006E+03  0.58258297966E+03  0.17200000000E+03 0. -1.
         -6    1    1    2    0  502  0.33372769779E+03  0.70227405270E+02 -0.69285998483E+02  0.38818888999E+03  0.17200000000E+03 0.  1.
</event>
<event>
 4    1 -0.6479440E-004  0.3197407E+03  0.7818608E-02  0.1075769E+00
          5   -1    0    0  501    0  0.00000000000E+00  0.00000000000E+00  0.87917688511E+02  0.88043227753E+02  0.47000000000E+01 0. -1.
         -5   -1    0    0    0  501 -0.00000000000E+00 -0.00000000000E+00 -0.17701220545E+04  0.17701282942E+04  0.47000000000E+01 0.  1.
          6    1    1    2  502    0 -0.25356038492E+03  0.91417917126E+02 -0.29650369130E+03  0.43606025194E+03  0.17200000000E+03 0. -1.
         -6    1    1    2    0  502  0.25356038492E+03 -0.91417917126E+02 -0.13857006747E+04  0.14221112700E+04  0.17200000000E+03 0.  1.
</event>
<event>
 4    1 -0.6479440E-004  0.1867222E+03  0.7818608E-02  0.1161451E+00
         -5   -1    0    0    0  501 -0.00000000000E+00  0.00000000000E+00  0.21715681022E+03  0.21720766613E+03  0.47000000000E+01 0.  1.
          5   -1    0    0  501    0  0.00000000000E+00 -0.00000000000E+00 -0.92593195064E+03  0.92594387909E+03  0.47000000000E+01 0. -1.
          6    1    1    2  502    0 -0.26037898973E+01  0.72625065931E+02 -0.87406117457E+03  0.89378303676E+03  0.17200000000E+03 0. -1.
         -6    1    1    2    0  502  0.26037898973E+01 -0.72625065931E+02  0.16528603415E+03  0.24936850845E+03  0.17200000000E+03 0.  1.
</event>
<event>
 4    1 -0.6479440E-004  0.2151575E+03  0.7818608E-02  0.1137546E+00
          5   -1    0    0  501    0  0.00000000000E+00  0.00000000000E+00  0.94364911026E+03  0.94366081475E+03  0.47000000000E+01 0. -1.
         -5   -1    0    0    0  501 -0.00000000000E+00 -0.00000000000E+00 -0.12828825414E+03  0.12837432045E+03  0.47000000000E+01 0.  1.
          6    1    1    2  502    0 -0.85228038533E+02  0.97185021391E+02  0.82898053230E+03  0.85644700354E+03  0.17200000000E+03 0. -1.
         -6    1    1    2    0  502  0.85228038533E+02 -0.97185021391E+02 -0.13619676183E+02  0.21558813166E+03  0.17200000000E+03 0.  1.
</event>
<event>
 4    1 -0.6479440E-004  0.2586932E+03  0.7818608E-02  0.1107931E+00
         -5   -1    0    0    0  501 -0.00000000000E+00  0.00000000000E+00  0.42352653142E+03  0.42355260927E+03  0.47000000000E+01 0.  1.
          5   -1    0    0  501    0  0.00000000000E+00 -0.00000000000E+00 -0.45161302376E+03  0.45163747988E+03  0.47000000000E+01 0. -1.
          6    1    1    2  502    0 -0.14913290716E+03  0.12287200004E+03 -0.36688638020E+03  0.44891844289E+03  0.17200000000E+03 0. -1.
         -6    1    1    2    0  502  0.14913290716E+03 -0.12287200004E+03  0.33879988785E+03  0.42627164626E+03  0.17200000000E+03 0.  1.
</event>
<event>
 4    1 -0.6479440E-004  0.2105605E+03  0.7818608E-02  0.1141123E+00
          5   -1    0    0  501    0  0.00000000000E+00  0.00000000000E+00  0.18817179454E+03  0.18823048175E+03  0.47000000000E+01 0. -1.
         -5   -1    0    0    0  501 -0.00000000000E+00 -0.00000000000E+00 -0.28806608165E+03  0.28810442100E+03  0.47000000000E+01 0.  1.
          6    1    1    2  502    0 -0.11041893598E+03  0.50590520059E+02  0.51779940075E+02  0.21683381733E+03  0.17200000000E+03 0.  1.
         -6    1    1    2    0  502  0.11041893598E+03 -0.50590520059E+02 -0.15167422719E+03  0.25950108542E+03  0.17200000000E+03 0.  1.
</event>
<event>
 4    1 -0.6479440E-004  0.1856114E+03  0.7818608E-02  0.1162480E+00
         -5   -1    0    0    0  501 -0.00000000000E+00  0.00000000000E+00  0.88313700564E+03  0.88314951211E+03  0.47000000000E+01 0.  1.
          5   -1    0    0  501    0  0.00000000000E+00 -0.00000000000E+00 -0.44683885465E+02  0.44930386380E+02  0.47000000000E+01 0. -1.
          6    1    1    2  502    0  0.69767191935E+02 -0.35353408091E+00  0.58629284501E+03  0.61497226455E+03  0.17200000000E+03 0.  1.
         -6    1    1    2    0  502 -0.69767191935E+02  0.35353408091E+00  0.25216027516E+03  0.31310763393E+03  0.17200000000E+03 0. -1.
</event>
<event>
 4    1 -0.6479440E-004  0.2358616E+03  0.7818608E-02  0.1122581E+00
         -5   -1    0    0    0  501 -0.00000000000E+00  0.00000000000E+00  0.10393767860E+04  0.10393874125E+04  0.47000000000E+01 0.  1.
          5   -1    0    0  501    0  0.00000000000E+00 -0.00000000000E+00 -0.13153724432E+03  0.13162118615E+03  0.47000000000E+01 0. -1.
          6    1    1    2  502    0  0.12020790748E+03 -0.10768824289E+03  0.29446213277E+01  0.23587998956E+03  0.17200000000E+03 0. -1.
         -6    1    1    2    0  502 -0.12020790748E+03  0.10768824289E+03  0.90489492036E+03  0.93512860911E+03  0.17200000000E+03 0.  1.
</event>
<event>
 4    1 -0.6479440E-004  0.1886245E+03  0.7818608E-02  0.1159708E+00
         -5   -1    0    0    0  501 -0.00000000000E+00  0.00000000000E+00  0.10664250549E+03  0.10674602558E+03  0.47000000000E+01 0.  1.
          5   -1    0    0  501    0  0.00000000000E+00 -0.00000000000E+00 -0.54827406680E+03  0.54829421146E+03  0.47000000000E+01 0. -1.
          6    1    1    2  502    0 -0.46800708464E+02 -0.61683711914E+02 -0.42585248910E+03  0.46575694209E+03  0.17200000000E+03 0. -1.
         -6    1    1    2    0  502  0.46800708464E+02  0.61683711914E+02 -0.15779072208E+02  0.18928329495E+03  0.17200000000E+03 0.  1.
</event>
<event>
 4    1 -0.6479440E-004  0.3703527E+03  0.7818608E-02  0.1054558E+00
          5   -1    0    0  501    0  0.00000000000E+00  0.00000000000E+00  0.90961267598E+03  0.90962481843E+03  0.47000000000E+01 0. -1.
         -5   -1    0    0    0  501 -0.00000000000E+00 -0.00000000000E+00 -0.24810769364E+04  0.24810813881E+04  0.47000000000E+01 0.  1.
          6    1    1    2  502    0 -0.19604063289E+03  0.26295468575E+03  0.85729548757E+03  0.93387185925E+03  0.17200000000E+03 0. -1.
         -6    1    1    2    0  502  0.19604063289E+03 -0.26295468575E+03 -0.24287597480E+04  0.24568343473E+04  0.17200000000E+03 0.  1.
</event>
<event>
 4    1 -0.6479440E-004  0.1979372E+03  0.7818608E-02  0.1151491E+00
         -5   -1    0    0    0  501 -0.00000000000E+00  0.00000000000E+00  0.21957790680E+03  0.21962820209E+03  0.47000000000E+01 0.  1.
          5   -1    0    0  501    0  0.00000000000E+00 -0.00000000000E+00 -0.66436319088E+03  0.66437981562E+03  0.47000000000E+01 0. -1.
          6    1    1    2  502    0 -0.97936202599E+02 -0.19029076493E+01 -0.60042433185E+03  0.63220922100E+03  0.17200000000E+03 0. -1.
         -6    1    1    2    0  502  0.97936202599E+02  0.19029076493E+01  0.15563904777E+03  0.25179879672E+03  0.17200000000E+03 0.  1.
</event>
<event>
 4    1 -0.6479440E-004  0.1822508E+03  0.7818608E-02  0.1165642E+00
         -5   -1    0    0    0  501 -0.00000000000E+00  0.00000000000E+00  0.28881796127E+03  0.28885620082E+03  0.47000000000E+01 0.  1.
          5   -1    0    0  501    0  0.00000000000E+00 -0.00000000000E+00 -0.13401753159E+03  0.13409992085E+03  0.47000000000E+01 0. -1.
          6    1    1    2  502    0 -0.45212126115E+02 -0.39840017714E+02 -0.24127641378E+01  0.18226679563E+03  0.17200000000E+03 0. -1.
         -6    1    1    2    0  502  0.45212126115E+02  0.39840017714E+02  0.15721319381E+03  0.24068932604E+03  0.17200000000E+03 0. -1.
</event>
<event>
 4    1 -0.6479440E-004  0.2176066E+03  0.7818608E-02  0.1135680E+00
          5   -1    0    0  501    0  0.00000000000E+00  0.00000000000E+00  0.25652529054E+03  0.25656834311E+03  0.47000000000E+01 0. -1.
         -5   -1    0    0    0  501 -0.00000000000E+00 -0.00000000000E+00 -0.53579956131E+03  0.53582017497E+03  0.47000000000E+01 0.  1.
          6    1    1    2  502    0  0.12125351953E+03 -0.55373405939E+02  0.18114457296E+03  0.28313598569E+03  0.17200000000E+03 0. -1.
         -6    1    1    2    0  502 -0.12125351953E+03  0.55373405939E+02 -0.46041884373E+03  0.50925253239E+03  0.17200000000E+03 0.  1.
</event>
<event>
 4    1 -0.6479440E-004  0.1749471E+03  0.7818608E-02  0.1172785E+00
         -5   -1    0    0    0  501 -0.00000000000E+00  0.00000000000E+00  0.27403344627E+03  0.27407374861E+03  0.47000000000E+01 0.  1.
          5   -1    0    0  501    0  0.00000000000E+00 -0.00000000000E+00 -0.33778862591E+03  0.33782132229E+03  0.47000000000E+01 0. -1.
          6    1    1    2  502    0  0.68395055545E+00 -0.31969043405E+02 -0.28220036268E+03  0.33202941469E+03  0.17200000000E+03 0. -1.
         -6    1    1    2    0  502 -0.68395055545E+00  0.31969043405E+02  0.21844518305E+03  0.27986565620E+03  0.17200000000E+03 0.  1.
</event>
<event>
 4    1 -0.6479440E-004  0.2202215E+03  0.7818608E-02  0.1133718E+00
          5   -1    0    0  501    0  0.00000000000E+00  0.00000000000E+00  0.35529360693E+03  0.35532469253E+03  0.47000000000E+01 0. -1.
         -5   -1    0    0    0  501 -0.00000000000E+00 -0.00000000000E+00 -0.43668179686E+03  0.43670708914E+03  0.47000000000E+01 0.  1.
          6    1    1    2  502    0  0.13751530380E+03 -0.17428694022E+01  0.28765559935E+03  0.36227508914E+03  0.17200000000E+03 0. -1.
         -6    1    1    2    0  502 -0.13751530380E+03  0.17428694022E+01 -0.36904378928E+03  0.42975669254E+03  0.17200000000E+03 0.  1.
</event>
<event>
 4    1 -0.6479440E-004  0.2332632E+03  0.7818608E-02  0.1124364E+00
         -5   -1    0    0    0  501 -0.00000000000E+00  0.00000000000E+00  0.89487753646E+02  0.89611093357E+02  0.47000000000E+01 0.  1.
          5   -1    0    0  501    0  0.00000000000E+00 -0.00000000000E+00 -0.79058860713E+03  0.79060257761E+03  0.47000000000E+01 0. -1.
          6    1    1    2  502    0  0.12170611930E+03 -0.10007660292E+03 -0.56233490338E+03  0.60879573708E+03  0.17200000000E+03 0. -1.
         -6    1    1    2    0  502 -0.12170611930E+03  0.10007660292E+03 -0.13876595010E+03  0.27141793389E+03  0.17200000000E+03 0.  1.
</event>
<event>
 4    1 -0.6479440E-004  0.1847879E+03  0.7818608E-02  0.1163248E+00
         -5   -1    0    0    0  501 -0.00000000000E+00  0.00000000000E+00  0.14671801022E+04  0.14671876302E+04  0.47000000000E+01 0.  1.
          5   -1    0    0  501    0  0.00000000000E+00 -0.00000000000E+00 -0.17839427283E+03  0.17845617551E+03  0.47000000000E+01 0. -1.
          6    1    1    2  502    0 -0.44945374478E+02  0.50422955641E+02 -0.12289320317E+03  0.22192183427E+03  0.17200000000E+03 0. -1.
         -6    1    1    2    0  502  0.44945374478E+02 -0.50422955641E+02  0.14116790325E+04  0.14237219714E+04  0.17200000000E+03 0.  1.
</event>
<event>
 4    1 -0.6479440E-004  0.1807737E+03  0.7818608E-02  0.1167056E+00
          5   -1    0    0  501    0  0.00000000000E+00  0.00000000000E+00  0.19480981024E+04  0.19481037721E+04  0.47000000000E+01 0. -1.
         -5   -1    0    0    0  501 -0.00000000000E+00 -0.00000000000E+00 -0.16764002006E+02  0.17410392393E+02  0.47000000000E+01 0.  1.
          6    1    1    2  502    0  0.49361644633E+02 -0.25662223853E+02  0.10997139703E+04  0.11144729419E+04  0.17200000000E+03 0. -1.
         -6    1    1    2    0  502 -0.49361644633E+02  0.25662223853E+02  0.83162013016E+03  0.85104122261E+03  0.17200000000E+03 0.  1.
</event>
<event>
 4    1 -0.6479440E-004  0.4122545E+03  0.7818608E-02  0.1039617E+00
          5   -1    0    0  501    0  0.00000000000E+00  0.00000000000E+00  0.12369307893E+03  0.12378234032E+03  0.47000000000E+01 0. -1.
         -5   -1    0    0    0  501 -0.00000000000E+00 -0.00000000000E+00 -0.15679941308E+04  0.15680011748E+04  0.47000000000E+01 0.  1.
          6    1    1    2  502    0 -0.37417534417E+03 -0.19041194471E+02 -0.42417098655E+03  0.59150213956E+03  0.17200000000E+03 0.  1.
         -6    1    1    2    0  502  0.37417534417E+03  0.19041194471E+02 -0.10201300653E+04  0.11002813756E+04  0.17200000000E+03 0.  1.
</event>
<event>
 4    1 -0.6479440E-004  0.1912356E+03  0.7818608E-02  0.1157352E+00
         -5   -1    0    0    0  501 -0.00000000000E+00  0.00000000000E+00  0.39092574044E+03  0.39095399287E+03  0.47000000000E+01 0.  1.
          5   -1    0    0  501    0  0.00000000000E+00 -0.00000000000E+00 -0.13735242103E+03  0.13743281108E+03  0.47000000000E+01 0. -1.
          6    1    1    2  502    0 -0.83496802430E+02 -0.39148607985E+01 -0.22493209258E+02  0.19255385380E+03  0.17200000000E+03 0. -1.
         -6    1    1    2    0  502  0.83496802430E+02  0.39148607985E+01  0.27606652867E+03  0.33583295015E+03  0.17200000000E+03 0.  1.
</event>
<event>
 4    1 -0.6479440E-004  0.1742683E+03  0.7818608E-02  0.1173468E+00
         -5   -1    0    0    0  501 -0.00000000000E+00  0.00000000000E+00  0.94042529559E+02  0.94159903175E+02  0.47000000000E+01 0.  1.
          5   -1    0    0  501    0  0.00000000000E+00 -0.00000000000E+00 -0.10512499337E+04  0.10512604402E+04  0.47000000000E+01 0. -1.
          6    1    1    2  502    0 -0.27931657487E+02 -0.22955132917E+01 -0.95537854788E+03  0.97114242859E+03  0.17200000000E+03 0. -1.
         -6    1    1    2    0  502  0.27931657487E+02  0.22955132917E+01 -0.18288562934E+01  0.17427791480E+03  0.17200000000E+03 0.  1.
</event>
<event>
 4    1 -0.6479440E-004  0.2180846E+03  0.7818608E-02  0.1135319E+00
          5   -1    0    0  501    0  0.00000000000E+00  0.00000000000E+00  0.13445920602E+03  0.13454132482E+03  0.47000000000E+01 0. -1.
         -5   -1    0    0    0  501 -0.00000000000E+00 -0.00000000000E+00 -0.37967245244E+03  0.37970154219E+03  0.47000000000E+01 0.  1.
          6    1    1    2  502    0 -0.12359438534E+03  0.51974220518E+02 -0.55126724609E+02  0.22494409850E+03  0.17200000000E+03 0. -1.
         -6    1    1    2    0  502  0.12359438534E+03 -0.51974220518E+02 -0.19008652182E+03  0.28929876851E+03  0.17200000000E+03 0.  1.
</event>
<event>
 4    1 -0.6479440E-004  0.1867994E+03  0.7818608E-02  0.1161380E+00
          5   -1    0    0  501    0  0.00000000000E+00  0.00000000000E+00  0.30351649399E+03  0.30355288192E+03  0.47000000000E+01 0. -1.
         -5   -1    0    0    0  501 -0.00000000000E+00 -0.00000000000E+00 -0.29147815444E+03  0.29151604504E+03  0.47000000000E+01 0.  1.
          6    1    1    2  502    0 -0.18660876531E+01 -0.72845905892E+02  0.23757577651E+03  0.30221889066E+03  0.17200000000E+03 0. -1.
         -6    1    1    2    0  502  0.18660876531E+01  0.72845905892E+02 -0.22553743696E+03  0.29285003629E+03  0.17200000000E+03 0.  1.
</event>
<event>
 4    1 -0.6479440E-004  0.2696445E+03  0.7818608E-02  0.1101483E+00
          5   -1    0    0  501    0  0.00000000000E+00  0.00000000000E+00  0.46520479404E+03  0.46522853567E+03  0.47000000000E+01 0. -1.
         -5   -1    0    0    0  501 -0.00000000000E+00 -0.00000000000E+00 -0.80555166251E+03  0.80556537350E+03  0.47000000000E+01 0.  1.
          6    1    1    2  502    0  0.10880690170E+03  0.17687633413E+03  0.40026749431E+03  0.48262018859E+03  0.17200000000E+03 0. -1.
         -6    1    1    2    0  502 -0.10880690170E+03 -0.17687633413E+03 -0.74061436279E+03  0.78817372057E+03  0.17200000000E+03 0.  1.
</event>
<event>
 4    1 -0.6479440E-004  0.2262046E+03  0.7818608E-02  0.1129340E+00
          5   -1    0    0  501    0  0.00000000000E+00  0.00000000000E+00  0.11004283303E+04  0.11004383672E+04  0.47000000000E+01 0. -1.
         -5   -1    0    0    0  501 -0.00000000000E+00 -0.00000000000E+00 -0.56503498024E+02  0.56698635688E+02  0.47000000000E+01 0.  1.
          6    1    1    2  502    0  0.80739600101E+02 -0.12274212561E+03  0.76649415588E+03  0.79917570247E+03  0.17200000000E+03 0. -1.
         -6    1    1    2    0  502 -0.80739600101E+02  0.12274212561E+03  0.27743067635E+03  0.35796130043E+03  0.17200000000E+03 0.  1.
</event>
<event>
 4    1 -0.6479440E-004  0.2275435E+03  0.7818608E-02  0.1128381E+00
         -5   -1    0    0    0  501 -0.00000000000E+00  0.00000000000E+00  0.21913942646E+03  0.21918982237E+03  0.47000000000E+01 0.  1.
          5   -1    0    0  501    0  0.00000000000E+00 -0.00000000000E+00 -0.26768980308E+03  0.26773106034E+03  0.47000000000E+01 0. -1.
          6    1    1    2  502    0 -0.61551193429E+02 -0.13565950009E+03 -0.10780372838E+03  0.25178898552E+03  0.17200000000E+03 0.  1.
         -6    1    1    2    0  502  0.61551193429E+02  0.13565950009E+03  0.59253351769E+02  0.23513189718E+03  0.17200000000E+03 0. -1.
</event>
<event>
 4    1 -0.6479440E-004  0.2073622E+03  0.7818608E-02  0.1143672E+00
         -5   -1    0    0    0  501 -0.00000000000E+00  0.00000000000E+00  0.19869543431E+03  0.19875101413E+03  0.47000000000E+01 0.  1.
          5   -1    0    0  501    0  0.00000000000E+00 -0.00000000000E+00 -0.23891516836E+03  0.23896139369E+03  0.47000000000E+01 0. -1.
          6    1    1    2  502    0 -0.49858978096E+02  0.10454273880E+03 -0.87435939817E+02  0.22504254154E+03  0.17200000000E+03 0. -1.
         -6    1    1    2    0  502  0.49858978096E+02 -0.10454273880E+03  0.47216205765E+02  0.21266986627E+03  0.17200000000E+03 0.  1.
</event>
<event>
 4    1 -0.6479440E-004  0.1922644E+03  0.7818608E-02  0.1156435E+00
          5   -1    0    0  501    0  0.00000000000E+00  0.00000000000E+00  0.15254691148E+03  0.15261929826E+03  0.47000000000E+01 0. -1.
         -5   -1    0    0    0  501 -0.00000000000E+00 -0.00000000000E+00 -0.29890707682E+03  0.29894402581E+03  0.47000000000E+01 0.  1.
          6    1    1    2  502    0  0.22789294075E+02 -0.82838626280E+02  0.25169181707E+02  0.19390481592E+03  0.17200000000E+03 0. -1.
         -6    1    1    2    0  502 -0.22789294075E+02  0.82838626280E+02 -0.17152934704E+03  0.25765850816E+03  0.17200000000E+03 0.  1.
</event>
<event>
 4    1 -0.6479440E-004  0.1776706E+03  0.7818608E-02  0.1170077E+00
          5   -1    0    0  501    0  0.00000000000E+00  0.00000000000E+00  0.12534229655E+04  0.12534317773E+04  0.47000000000E+01 0. -1.
         -5   -1    0    0    0  501 -0.00000000000E+00 -0.00000000000E+00 -0.65128956426E+02  0.65298322836E+02  0.47000000000E+01 0.  1.
          6    1    1    2  502    0 -0.36909583313E+02  0.24910551551E+02  0.11107580331E+04  0.11248778871E+04  0.17200000000E+03 0. -1.
         -6    1    1    2    0  502  0.36909583313E+02 -0.24910551551E+02  0.77535975962E+02  0.19385221301E+03  0.17200000000E+03 0.  1.
</event>
<event>
 4    1 -0.6479440E-004  0.1979557E+03  0.7818608E-02  0.1151475E+00
         -5   -1    0    0    0  501 -0.00000000000E+00  0.00000000000E+00  0.21296322182E+03  0.21301507892E+03  0.47000000000E+01 0.  1.
          5   -1    0    0  501    0  0.00000000000E+00 -0.00000000000E+00 -0.21688834202E+03  0.21693926087E+03  0.47000000000E+01 0. -1.
          6    1    1    2  502    0 -0.91082790183E+02  0.36144018204E+02 -0.85780533866E+02  0.21574235725E+03  0.17200000000E+03 0. -1.
         -6    1    1    2    0  502  0.91082790183E+02 -0.36144018204E+02  0.81855413659E+02  0.21421198254E+03  0.17200000000E+03 0.  1.
</event>
<event>
 4    1 -0.6479440E-004  0.2235006E+03  0.7818608E-02  0.1131300E+00
         -5   -1    0    0    0  501 -0.00000000000E+00  0.00000000000E+00  0.11550406915E+04  0.11550502539E+04  0.47000000000E+01 0.  1.
          5   -1    0    0  501    0  0.00000000000E+00 -0.00000000000E+00 -0.74767665703E+02  0.74915244341E+02  0.47000000000E+01 0. -1.
          6    1    1    2  502    0 -0.93862672470E+02 -0.10750970290E+03  0.14052910912E+03  0.26400940894E+03  0.17200000000E+03 0. -1.
         -6    1    1    2    0  502  0.93862672470E+02  0.10750970290E+03  0.93974391665E+03  0.96595608927E+03  0.17200000000E+03 0.  1.
</event>
<event>
 4    1 -0.6479440E-004  0.2559105E+03  0.7818608E-02  0.1109625E+00
          5   -1    0    0  501    0  0.00000000000E+00  0.00000000000E+00  0.16716323095E+03  0.16722929104E+03  0.47000000000E+01 0. -1.
         -5   -1    0    0    0  501 -0.00000000000E+00 -0.00000000000E+00 -0.80225542900E+03  0.80226919632E+03  0.47000000000E+01 0.  1.
          6    1    1    2  502    0 -0.12445074421E+03  0.14289231805E+03  0.29244531279E+02  0.25757609536E+03  0.17200000000E+03 0. -1.
         -6    1    1    2    0  502  0.12445074421E+03 -0.14289231805E+03 -0.66433672933E+03  0.71192239200E+03  0.17200000000E+03 0.  1.
</event>
<event>
 4    1 -0.6479440E-004  0.2605611E+03  0.7818608E-02  0.1106807E+00
          5   -1    0    0  501    0  0.00000000000E+00  0.00000000000E+00  0.12484948136E+04  0.12485036602E+04  0.47000000000E+01 0. -1.
         -5   -1    0    0    0  501 -0.00000000000E+00 -0.00000000000E+00 -0.22269140170E+03  0.22274099396E+03  0.47000000000E+01 0.  1.
          6    1    1    2  502    0 -0.10053398535E+02 -0.19546613594E+03  0.11524478637E+04  0.11815363556E+04  0.17200000000E+03 0. -1.
         -6    1    1    2    0  502  0.10053398535E+02  0.19546613594E+03 -0.12664445175E+03  0.28970829861E+03  0.17200000000E+03 0.  1.
</event>
<event>
 4    1 -0.6479440E-004  0.1747027E+03  0.7818608E-02  0.1173031E+00
          5   -1    0    0  501    0  0.00000000000E+00  0.00000000000E+00  0.58161644085E+03  0.58163543072E+03  0.47000000000E+01 0. -1.
         -5   -1    0    0    0  501 -0.00000000000E+00 -0.00000000000E+00 -0.14395033454E+03  0.14402704195E+03  0.47000000000E+01 0.  1.
          6    1    1    2  502    0 -0.22987639057E+02 -0.20213811455E+02  0.50810017760E+03  0.53729584048E+03  0.17200000000E+03 0. -1.
         -6    1    1    2    0  502  0.22987639057E+02  0.20213811455E+02 -0.70434071285E+02  0.18836663219E+03  0.17200000000E+03 0.  1.
</event>
<event>
 4    1 -0.6479440E-004  0.2046538E+03  0.7818608E-02  0.1145871E+00
         -5   -1    0    0    0  501 -0.00000000000E+00  0.00000000000E+00  0.18171772404E+03  0.18177849496E+03  0.47000000000E+01 0.  1.
          5   -1    0    0  501    0  0.00000000000E+00 -0.00000000000E+00 -0.44888320651E+03  0.44890781134E+03  0.47000000000E+01 0. -1.
          6    1    1    2  502    0  0.72760275845E+02  0.83696597650E+02 -0.35357987692E+03  0.40853629895E+03  0.17200000000E+03 0. -1.
         -6    1    1    2    0  502 -0.72760275845E+02 -0.83696597650E+02  0.86414394452E+02  0.22215000735E+03  0.17200000000E+03 0.  1.
</event>
<event>
 4    1 -0.6479440E-004  0.1965432E+03  0.7818608E-02  0.1152689E+00
          5   -1    0    0  501    0  0.00000000000E+00  0.00000000000E+00  0.30056162916E+03  0.30059837478E+03  0.47000000000E+01 0. -1.
         -5   -1    0    0    0  501 -0.00000000000E+00 -0.00000000000E+00 -0.12979567111E+03  0.12988073852E+03  0.47000000000E+01 0.  1.
          6    1    1    2  502    0  0.70428647065E+02  0.63914242485E+02  0.10740324896E+03  0.22397473654E+03  0.17200000000E+03 0. -1.
         -6    1    1    2    0  502 -0.70428647065E+02 -0.63914242485E+02  0.63362709096E+02  0.20650437677E+03  0.17200000000E+03 0.  1.
</event>
<event>
 4    1 -0.6479440E-004  0.1860424E+03  0.7818608E-02  0.1162080E+00
          5   -1    0    0  501    0  0.00000000000E+00  0.00000000000E+00  0.10279010947E+03  0.10289750534E+03  0.47000000000E+01 0. -1.
         -5   -1    0    0    0  501 -0.00000000000E+00 -0.00000000000E+00 -0.61654940831E+03  0.61656732227E+03  0.47000000000E+01 0.  1.
          6    1    1    2  502    0  0.32472910633E+02  0.63034128886E+02 -0.14427728065E+02  0.18660104680E+03  0.17200000000E+03 0. -1.
         -6    1    1    2    0  502 -0.32472910633E+02 -0.63034128886E+02 -0.49933157077E+03  0.53286378081E+03  0.17200000000E+03 0.  1.
</event>
<event>
 4    1 -0.6479440E-004  0.2030303E+03  0.7818608E-02  0.1147207E+00
          5   -1    0    0  501    0  0.00000000000E+00  0.00000000000E+00  0.35085949599E+03  0.35089097441E+03  0.47000000000E+01 0. -1.
         -5   -1    0    0    0  501 -0.00000000000E+00 -0.00000000000E+00 -0.23848637327E+03  0.23853268169E+03  0.47000000000E+01 0.  1.
          6    1    1    2  502    0  0.52636597817E+02 -0.94163037966E+02  0.26613652235E+03  0.33473861097E+03  0.17200000000E+03 0. -1.
         -6    1    1    2    0  502 -0.52636597817E+02  0.94163037966E+02 -0.15376339963E+03  0.25468504513E+03  0.17200000000E+03 0.  1.
</event>
<event>
 4    1 -0.6479440E-004  0.1762462E+03  0.7818608E-02  0.1171486E+00
          5   -1    0    0  501    0  0.00000000000E+00  0.00000000000E+00  0.28828790948E+02  0.29209402383E+02  0.47000000000E+01 0. -1.
         -5   -1    0    0    0  501 -0.00000000000E+00 -0.00000000000E+00 -0.11149155637E+04  0.11149254702E+04  0.47000000000E+01 0.  1.
          6    1    1    2  502    0 -0.34447063203E+02  0.17091357169E+02 -0.42828943434E+03  0.46313556787E+03  0.17200000000E+03 0. -1.
         -6    1    1    2    0  502  0.34447063203E+02 -0.17091357169E+02 -0.65779733837E+03  0.68099930472E+03  0.17200000000E+03 0.  1.
</event>
<event>
 4    1 -0.6479440E-004  0.1740063E+03  0.7818608E-02  0.1173733E+00
         -5   -1    0    0    0  501 -0.00000000000E+00  0.00000000000E+00  0.15708992187E+04  0.15709062496E+04  0.47000000000E+01 0.  1.
          5   -1    0    0  501    0  0.00000000000E+00 -0.00000000000E+00 -0.11614013975E+03  0.11623520148E+03  0.47000000000E+01 0. -1.
          6    1    1    2  502    0  0.70890697740E+01 -0.25375914350E+02 -0.43054989315E+02  0.17925379785E+03  0.17200000000E+03 0. -1.
         -6    1    1    2    0  502 -0.70890697740E+01  0.25375914350E+02  0.14978140682E+04  0.15078876533E+04  0.17200000000E+03 0.  1.
</event>
<event>
 4    1 -0.6479440E-004  0.1894807E+03  0.7818608E-02  0.1158931E+00
          5   -1    0    0  501    0  0.00000000000E+00  0.00000000000E+00  0.62961414134E+02  0.63136595329E+02  0.47000000000E+01 0. -1.
         -5   -1    0    0    0  501 -0.00000000000E+00 -0.00000000000E+00 -0.62879709899E+03  0.62881466403E+03  0.47000000000E+01 0.  1.
          6    1    1    2  502    0 -0.26504265650E+02 -0.74943082345E+02 -0.17647492975E+03  0.25893308503E+03  0.17200000000E+03 0. -1.
         -6    1    1    2    0  502  0.26504265650E+02  0.74943082345E+02 -0.38936075510E+03  0.43301817433E+03  0.17200000000E+03 0.  1.
</event>
<event>
 4    1 -0.6479440E-004  0.1740947E+03  0.7818608E-02  0.1173644E+00
          5   -1    0    0  501    0  0.00000000000E+00  0.00000000000E+00  0.15777469185E+04  0.15777539190E+04  0.47000000000E+01 0. -1.
         -5   -1    0    0    0  501 -0.00000000000E+00 -0.00000000000E+00 -0.84692356625E+02  0.84822669556E+02  0.47000000000E+01 0.  1.
          6    1    1    2  502    0 -0.21833867194E+02  0.15755940763E+02  0.14775739892E+04  0.14877949661E+04  0.17200000000E+03 0. -1.
         -6    1    1    2    0  502  0.21833867194E+02 -0.15755940763E+02  0.15480572668E+02  0.17478162248E+03  0.17200000000E+03 0.  1.
</event>
<event>
 4    1 -0.6479440E-004  0.1809650E+03  0.7818608E-02  0.1166872E+00
          5   -1    0    0  501    0  0.00000000000E+00  0.00000000000E+00  0.83683122957E+03  0.83684442806E+03  0.47000000000E+01 0. -1.
         -5   -1    0    0    0  501 -0.00000000000E+00 -0.00000000000E+00 -0.10974665345E+03  0.10984724823E+03  0.47000000000E+01 0.  1.
          6    1    1    2  502    0  0.83911980739E+01 -0.55623119307E+02  0.74329027504E+03  0.76500246835E+03  0.17200000000E+03 0. -1.
         -6    1    1    2    0  502 -0.83911980739E+01  0.55623119307E+02 -0.16205698926E+02  0.18168920795E+03  0.17200000000E+03 0.  1.
</event>
<event>
 4    1 -0.6479440E-004  0.2846766E+03  0.7818608E-02  0.1093162E+00
         -5   -1    0    0    0  501 -0.00000000000E+00  0.00000000000E+00  0.36837661451E+03  0.36840659619E+03  0.47000000000E+01 0.  1.
          5   -1    0    0  501    0  0.00000000000E+00 -0.00000000000E+00 -0.23628137990E+03  0.23632812039E+03  0.47000000000E+01 0. -1.
          6    1    1    2  502    0 -0.11849583570E+03 -0.19343082800E+03 -0.13480755539E+02  0.28499557728E+03  0.17200000000E+03 0. -1.
         -6    1    1    2    0  502  0.11849583570E+03  0.19343082800E+03  0.14557599015E+03  0.31973913931E+03  0.17200000000E+03 0.  1.
</event>
<event>
 4    1 -0.6479440E-004  0.1831861E+03  0.7818608E-02  0.1164755E+00
         -5   -1    0    0    0  501 -0.00000000000E+00  0.00000000000E+00  0.66575055609E+02  0.66740752388E+02  0.47000000000E+01 0.  1.
          5   -1    0    0  501    0  0.00000000000E+00 -0.00000000000E+00 -0.55490799275E+03  0.55492789659E+03  0.47000000000E+01 0. -1.
          6    1    1    2  502    0  0.63030838581E+02  0.49617755961E+00 -0.33899281536E+03  0.38532228286E+03  0.17200000000E+03 0.  1.
         -6    1    1    2    0  502 -0.63030838581E+02 -0.49617755961E+00 -0.14934012178E+03  0.23634636612E+03  0.17200000000E+03 0.  1.
</event>
<event>
 4    1 -0.6479440E-004  0.1903415E+03  0.7818608E-02  0.1158154E+00
          5   -1    0    0  501    0  0.00000000000E+00  0.00000000000E+00  0.19267988763E+03  0.19273720216E+03  0.47000000000E+01 0. -1.
         -5   -1    0    0    0  501 -0.00000000000E+00 -0.00000000000E+00 -0.20725282863E+03  0.20730611418E+03  0.47000000000E+01 0.  1.
          6    1    1    2  502    0 -0.66813124377E+02  0.46710607719E+02  0.53792554533E+02  0.19779664655E+03  0.17200000000E+03 0. -1.
         -6    1    1    2    0  502  0.66813124377E+02 -0.46710607719E+02 -0.68365495536E+02  0.20224666979E+03  0.17200000000E+03 0.  1.
</event>
<event>
 4    1 -0.6479440E-004  0.1850825E+03  0.7818608E-02  0.1162973E+00
         -5   -1    0    0    0  501 -0.00000000000E+00  0.00000000000E+00  0.27286288418E+03  0.27290335938E+03  0.47000000000E+01 0.  1.
          5   -1    0    0  501    0  0.00000000000E+00 -0.00000000000E+00 -0.20687597610E+03  0.20692935869E+03  0.47000000000E+01 0. -1.
          6    1    1    2  502    0 -0.55219200485E+02  0.40278635742E+02 -0.11748579551E+03  0.21922235457E+03  0.17200000000E+03 0. -1.
         -6    1    1    2    0  502  0.55219200485E+02 -0.40278635742E+02  0.18347270359E+03  0.26061036350E+03  0.17200000000E+03 0.  1.
</event>
<event>
 4    1 -0.6479440E-004  0.1760744E+03  0.7818608E-02  0.1171657E+00
         -5   -1    0    0    0  501 -0.00000000000E+00  0.00000000000E+00  0.16437103958E+04  0.16437171153E+04  0.47000000000E+01 0.  1.
          5   -1    0    0  501    0  0.00000000000E+00 -0.00000000000E+00 -0.58127986417E+03  0.58129886503E+03  0.47000000000E+01 0. -1.
          6    1    1    2  502    0 -0.23118182283E+02 -0.29727981634E+02 -0.56309535494E+03  0.58998184888E+03  0.17200000000E+03 0. -1.
         -6    1    1    2    0  502  0.23118182283E+02  0.29727981634E+02  0.16255258866E+04  0.16350341315E+04  0.17200000000E+03 0.  1.
</event>
<event>
 4    1 -0.6479440E-004  0.1797824E+03  0.7818608E-02  0.1168014E+00
         -5   -1    0    0    0  501 -0.00000000000E+00  0.00000000000E+00  0.79867027324E+03  0.79868410236E+03  0.47000000000E+01 0.  1.
          5   -1    0    0  501    0  0.00000000000E+00 -0.00000000000E+00 -0.11818186042E+03  0.11827528115E+03  0.47000000000E+01 0. -1.
          6    1    1    2  502    0  0.47340939029E+02 -0.22283478105E+02 -0.31589581451E+02  0.18253662526E+03  0.17200000000E+03 0. -1.
         -6    1    1    2    0  502 -0.47340939029E+02  0.22283478105E+02  0.71207799427E+03  0.73442275825E+03  0.17200000000E+03 0.  1.
</event>
<event>
 4    1 -0.6479440E-004  0.1879562E+03  0.7818608E-02  0.1160318E+00
          5   -1    0    0  501    0  0.00000000000E+00  0.00000000000E+00  0.13334174172E+03  0.13342454829E+03  0.47000000000E+01 0. -1.
         -5   -1    0    0    0  501 -0.00000000000E+00 -0.00000000000E+00 -0.77932874153E+03  0.77934291385E+03  0.47000000000E+01 0.  1.
          6    1    1    2  502    0  0.67941028933E+02  0.33579082325E+02  0.47826555990E+02  0.19394565641E+03  0.17200000000E+03 0. -1.
         -6    1    1    2    0  502 -0.67941028933E+02 -0.33579082325E+02 -0.69381355580E+03  0.71882180573E+03  0.17200000000E+03 0.  1.
</event>
<event>
 4    1 -0.6479440E-004  0.3180583E+03  0.7818608E-02  0.1076546E+00
          5   -1    0    0  501    0  0.00000000000E+00  0.00000000000E+00  0.11525993612E+04  0.11526089438E+04  0.47000000000E+01 0. -1.
         -5   -1    0    0    0  501 -0.00000000000E+00 -0.00000000000E+00 -0.14979702927E+03  0.14987074424E+03  0.47000000000E+01 0.  1.
          6    1    1    2  502    0 -0.25295007801E+02  0.26634050643E+03  0.92056524553E+03  0.97396174158E+03  0.17200000000E+03 0. -1.
         -6    1    1    2    0  502  0.25295007801E+02 -0.26634050643E+03  0.82237086379E+02  0.32851794648E+03  0.17200000000E+03 0.  1.
</event>
<event>
 4    1 -0.6479440E-004  0.1970927E+03  0.7818608E-02  0.1152215E+00
         -5   -1    0    0    0  501 -0.00000000000E+00  0.00000000000E+00  0.12577062432E+03  0.12585841228E+03  0.47000000000E+01 0.  1.
          5   -1    0    0  501    0  0.00000000000E+00 -0.00000000000E+00 -0.93803562388E+03  0.93804739842E+03  0.47000000000E+01 0. -1.
          6    1    1    2  502    0  0.88082553805E+02  0.38768513292E+02 -0.84184220755E+03  0.86460617412E+03  0.17200000000E+03 0. -1.
         -6    1    1    2    0  502 -0.88082553805E+02 -0.38768513292E+02  0.29577207989E+02  0.19929963658E+03  0.17200000000E+03 0.  1.
</event>
<event>
 4    1 -0.6479440E-004  0.2000151E+03  0.7818608E-02  0.1149726E+00
         -5   -1    0    0    0  501 -0.00000000000E+00  0.00000000000E+00  0.39128764381E+03  0.39131587011E+03  0.47000000000E+01 0.  1.
          5   -1    0    0  501    0  0.00000000000E+00 -0.00000000000E+00 -0.22625041004E+03  0.22629922236E+03  0.47000000000E+01 0. -1.
          6    1    1    2  502    0  0.66588427357E+02  0.77382380611E+02 -0.14612905617E+03  0.24770900779E+03  0.17200000000E+03 0. -1.
         -6    1    1    2    0  502 -0.66588427357E+02 -0.77382380611E+02  0.31116628994E+03  0.36990608468E+03  0.17200000000E+03 0.  1.
</event>
<event>
 4    1 -0.6479440E-004  0.1845157E+03  0.7818608E-02  0.1163503E+00
         -5   -1    0    0    0  501 -0.00000000000E+00  0.00000000000E+00  0.59736301464E+03  0.59738150395E+03  0.47000000000E+01 0.  1.
          5   -1    0    0  501    0  0.00000000000E+00 -0.00000000000E+00 -0.12131887566E+03  0.12140988259E+03  0.47000000000E+01 0. -1.
          6    1    1    2  502    0 -0.60471014207E+02 -0.28378061047E+02 -0.23737654075E+02  0.18603637851E+03  0.17200000000E+03 0. -1.
         -6    1    1    2    0  502  0.60471014207E+02  0.28378061047E+02  0.49978179305E+03  0.53275500803E+03  0.17200000000E+03 0.  1.
</event>
<event>
 4    1 -0.6479440E-004  0.2603800E+03  0.7818608E-02  0.1106915E+00
          5   -1    0    0  501    0  0.00000000000E+00  0.00000000000E+00  0.14851444690E+04  0.14851519059E+04  0.47000000000E+01 0. -1.
         -5   -1    0    0    0  501 -0.00000000000E+00 -0.00000000000E+00 -0.10247637764E+03  0.10258410196E+03  0.47000000000E+01 0.  1.
          6    1    1    2  502    0 -0.58411349240E+01  0.19539606074E+03  0.12826421054E+04  0.13088042290E+04  0.17200000000E+03 0. -1.
         -6    1    1    2    0  502  0.58411349240E+01 -0.19539606074E+03  0.10002598597E+03  0.27893177890E+03  0.17200000000E+03 0.  1.
</event>
<event>
 4    1 -0.6479440E-004  0.1821341E+03  0.7818608E-02  0.1165753E+00
          5   -1    0    0  501    0  0.00000000000E+00  0.00000000000E+00  0.66676373195E+02  0.66841818814E+02  0.47000000000E+01 0. -1.
         -5   -1    0    0    0  501 -0.00000000000E+00 -0.00000000000E+00 -0.94469535910E+03  0.94470705063E+03  0.47000000000E+01 0.  1.
          6    1    1    2  502    0 -0.59859303898E+02  0.23863990351E+01 -0.90758197640E+02  0.20349418076E+03  0.17200000000E+03 0. -1.
         -6    1    1    2    0  502  0.59859303898E+02 -0.23863990351E+01 -0.78726078827E+03  0.80805468869E+03  0.17200000000E+03 0.  1.
</event>
<event>
 4    1 -0.6479440E-004  0.1872089E+03  0.7818608E-02  0.1161003E+00
         -5   -1    0    0    0  501 -0.00000000000E+00  0.00000000000E+00  0.22636114385E+03  0.22640993231E+03  0.47000000000E+01 0.  1.
          5   -1    0    0  501    0  0.00000000000E+00 -0.00000000000E+00 -0.17757446282E+03  0.17763665119E+03  0.47000000000E+01 0. -1.
          6    1    1    2  502    0  0.62241907749E+02  0.39863815285E+02 -0.48047703723E+02  0.19327638418E+03  0.17200000000E+03 0. -1.
         -6    1    1    2    0  502 -0.62241907749E+02 -0.39863815285E+02  0.96834384755E+02  0.21077019932E+03  0.17200000000E+03 0.  1.
</event>
<event>
 4    1 -0.6479440E-004  0.2472879E+03  0.7818608E-02  0.1115031E+00
         -5   -1    0    0    0  501 -0.00000000000E+00  0.00000000000E+00  0.59373248323E+03  0.59375108559E+03  0.47000000000E+01 0.  1.
          5   -1    0    0  501    0  0.00000000000E+00 -0.00000000000E+00 -0.72945810355E+03  0.72947324477E+03  0.47000000000E+01 0. -1.
          6    1    1    2  502    0 -0.70605931594E+02 -0.16304014164E+03 -0.68099343135E+03  0.72450213175E+03  0.17200000000E+03 0. -1.
         -6    1    1    2    0  502  0.70605931594E+02  0.16304014164E+03  0.54526781103E+03  0.59872219861E+03  0.17200000000E+03 0.  1.
</event>
<event>
 4    1 -0.6479440E-004  0.5902471E+03  0.7818608E-02  0.9925849E-01
         -5   -1    0    0    0  501 -0.00000000000E+00  0.00000000000E+00  0.17292954114E+04  0.17293017984E+04  0.47000000000E+01 0.  1.
          5   -1    0    0  501    0  0.00000000000E+00 -0.00000000000E+00 -0.21385999839E+03  0.21391163809E+03  0.47000000000E+01 0. -1.
          6    1    1    2  502    0 -0.29138018330E+03  0.48363749087E+03  0.52351332289E+03  0.78895996922E+03  0.17200000000E+03 0. -1.
         -6    1    1    2    0  502  0.29138018330E+03 -0.48363749087E+03  0.99192209013E+03  0.11542534673E+04  0.17200000000E+03 0.  1.
</event>
<event>
 4    1 -0.6479440E-004  0.2573208E+03  0.7818608E-02  0.1108764E+00
         -5   -1    0    0    0  501 -0.00000000000E+00  0.00000000000E+00  0.20027432181E+04  0.20027487330E+04  0.47000000000E+01 0.  1.
          5   -1    0    0  501    0  0.00000000000E+00 -0.00000000000E+00 -0.20724602688E+03  0.20729931418E+03  0.47000000000E+01 0. -1.
          6    1    1    2  502    0  0.12224637062E+03  0.14726112600E+03 -0.11532186471E+03  0.28198075615E+03  0.17200000000E+03 0. -1.
         -6    1    1    2    0  502 -0.12224637062E+03 -0.14726112600E+03  0.19108190559E+04  0.19280672911E+04  0.17200000000E+03 0.  1.
</event>
<event>
 4    1 -0.6479440E-004  0.2937868E+03  0.7818608E-02  0.1088388E+00
         -5   -1    0    0    0  501 -0.00000000000E+00  0.00000000000E+00  0.73857342296E+02  0.74006736254E+02  0.47000000000E+01 0.  1.
          5   -1    0    0  501    0  0.00000000000E+00 -0.00000000000E+00 -0.24500228969E+04  0.24500274050E+04  0.47000000000E+01 0. -1.
          6    1    1    2  502    0  0.23804661995E+03  0.77758410707E+01 -0.21012207478E+04  0.21216595598E+04  0.17200000000E+03 0. -1.
         -6    1    1    2    0  502 -0.23804661995E+03 -0.77758410707E+01 -0.27494480679E+03  0.40237458140E+03  0.17200000000E+03 0.  1.
</event>
<event>
 4    1 -0.6479440E-004  0.1858686E+03  0.7818608E-02  0.1162241E+00
          5   -1    0    0  501    0  0.00000000000E+00  0.00000000000E+00  0.92187794233E+03  0.92188992323E+03  0.47000000000E+01 0. -1.
         -5   -1    0    0    0  501 -0.00000000000E+00 -0.00000000000E+00 -0.21164652600E+03  0.21169870563E+03  0.47000000000E+01 0.  1.
          6    1    1    2  502    0 -0.67727634566E+02 -0.19393418857E+02  0.86929847910E+03  0.88894712045E+03  0.17200000000E+03 0. -1.
         -6    1    1    2    0  502  0.67727634566E+02  0.19393418857E+02 -0.15906706277E+03  0.24464150841E+03  0.17200000000E+03 0.  1.
</event>
<event>
 4    1 -0.6479440E-004  0.1805258E+03  0.7818608E-02  0.1167295E+00
          5   -1    0    0  501    0  0.00000000000E+00  0.00000000000E+00  0.24111560458E+03  0.24116140813E+03  0.47000000000E+01 0. -1.
         -5   -1    0    0    0  501 -0.00000000000E+00 -0.00000000000E+00 -0.21225631907E+03  0.21230834884E+03  0.47000000000E+01 0.  1.
          6    1    1    2  502    0  0.17945705892E+02  0.51802509596E+02  0.15112867860E+03  0.23543454686E+03  0.17200000000E+03 0. -1.
         -6    1    1    2    0  502 -0.17945705892E+02 -0.51802509596E+02 -0.12226939309E+03  0.21803521011E+03  0.17200000000E+03 0.  1.
</event>
<event>
 4    1 -0.6479440E-004  0.1806688E+03  0.7818608E-02  0.1167157E+00
          5   -1    0    0  501    0  0.00000000000E+00  0.00000000000E+00  0.98643876947E+03  0.98644996625E+03  0.47000000000E+01 0. -1.
         -5   -1    0    0    0  501 -0.00000000000E+00 -0.00000000000E+00 -0.60432024320E+02  0.60614516111E+02  0.47000000000E+01 0.  1.
          6    1    1    2  502    0 -0.33218474805E+02 -0.44201369652E+02  0.81551318136E+03  0.83528616480E+03  0.17200000000E+03 0. -1.
         -6    1    1    2    0  502  0.33218474805E+02  0.44201369652E+02  0.11049356380E+03  0.21177831756E+03  0.17200000000E+03 0.  1.
</event>
<event>
 4    1 -0.6479440E-004  0.1728814E+03  0.7818608E-02  0.1174876E+00
          5   -1    0    0  501    0  0.00000000000E+00  0.00000000000E+00  0.19109793132E+03  0.19115572017E+03  0.47000000000E+01 0. -1.
         -5   -1    0    0    0  501 -0.00000000000E+00 -0.00000000000E+00 -0.13286565660E+04  0.13286648789E+04  0.47000000000E+01 0.  1.
          6    1    1    2  502    0  0.16107265607E+02  0.66733476410E+01  0.14501449020E+03  0.22564835462E+03  0.17200000000E+03 0. -1.
         -6    1    1    2    0  502 -0.16107265607E+02 -0.66733476410E+01 -0.12825731249E+04  0.12941722444E+04  0.17200000000E+03 0.  1.
</event>
<event>
 4    1 -0.6479440E-004  0.1831192E+03  0.7818608E-02  0.1164818E+00
         -5   -1    0    0    0  501 -0.00000000000E+00  0.00000000000E+00  0.26399155264E+03  0.26403338778E+03  0.47000000000E+01 0.  1.
          5   -1    0    0  501    0  0.00000000000E+00 -0.00000000000E+00 -0.16357302925E+03  0.16364053868E+03  0.47000000000E+01 0. -1.
          6    1    1    2  502    0 -0.54733743165E+02  0.30868210328E+02 -0.50968966512E+02  0.19008015309E+03  0.17200000000E+03 0. -1.
         -6    1    1    2    0  502  0.54733743165E+02 -0.30868210328E+02  0.15138748990E+03  0.23759377338E+03  0.17200000000E+03 0.  1.
</event>
<event>
 4    1 -0.6479440E-004  0.1806419E+03  0.7818608E-02  0.1167183E+00
          5   -1    0    0  501    0  0.00000000000E+00  0.00000000000E+00  0.93652881269E+03  0.93654060616E+03  0.47000000000E+01 0. -1.
         -5   -1    0    0    0  501 -0.00000000000E+00 -0.00000000000E+00 -0.76991999014E+02  0.77135322078E+02  0.47000000000E+01 0.  1.
          6    1    1    2  502    0  0.45830027588E+02  0.30774999892E+02  0.80494460457E+03  0.82496503470E+03  0.17200000000E+03 0. -1.
         -6    1    1    2    0  502 -0.45830027588E+02 -0.30774999892E+02  0.54592209102E+02  0.18871089354E+03  0.17200000000E+03 0.  1.
</event>
<event>
 4    1 -0.6479440E-004  0.2952126E+03  0.7818608E-02  0.1087659E+00
         -5   -1    0    0    0  501 -0.00000000000E+00  0.00000000000E+00  0.24775497543E+03  0.24779955175E+03  0.47000000000E+01 0.  1.
          5   -1    0    0  501    0  0.00000000000E+00 -0.00000000000E+00 -0.61329833960E+03  0.61331634851E+03  0.47000000000E+01 0. -1.
          6    1    1    2  502    0 -0.73686351214E+02  0.22833487791E+03 -0.46397114707E+03  0.54992701346E+03  0.17200000000E+03 0. -1.
         -6    1    1    2    0  502  0.73686351214E+02 -0.22833487791E+03  0.98427782901E+02  0.31118888680E+03  0.17200000000E+03 0.  1.
</event>
<event>
 4    1 -0.6479440E-004  0.1772514E+03  0.7818608E-02  0.1170490E+00
          5   -1    0    0  501    0  0.00000000000E+00  0.00000000000E+00  0.91881983286E+02  0.92002113305E+02  0.47000000000E+01 0. -1.
         -5   -1    0    0    0  501 -0.00000000000E+00 -0.00000000000E+00 -0.59387696238E+03  0.59389556021E+03  0.47000000000E+01 0.  1.
          6    1    1    2  502    0  0.32946851893E+02  0.27359858149E+02 -0.27494031699E+02  0.17937106418E+03  0.17200000000E+03 0. -1.
         -6    1    1    2    0  502 -0.32946851893E+02 -0.27359858149E+02 -0.47450094739E+03  0.50652660933E+03  0.17200000000E+03 0.  1.
</event>
<event>
 4    1 -0.6479440E-004  0.2132920E+03  0.7818608E-02  0.1138985E+00
          5   -1    0    0  501    0  0.00000000000E+00  0.00000000000E+00  0.23089525644E+03  0.23094308703E+03  0.47000000000E+01 0. -1.
         -5   -1    0    0    0  501 -0.00000000000E+00 -0.00000000000E+00 -0.33094888504E+03  0.33098225710E+03  0.47000000000E+01 0.  1.
          6    1    1    2  502    0  0.39574955871E+02  0.11976350758E+03  0.12873844597E+03  0.24913262000E+03  0.17200000000E+03 0. -1.
         -6    1    1    2    0  502 -0.39574955871E+02 -0.11976350758E+03 -0.22879207457E+03  0.31279272412E+03  0.17200000000E+03 0.  1.
</event>
<event>
 4    1 -0.6479440E-004  0.1730624E+03  0.7818608E-02  0.1174691E+00
         -5   -1    0    0    0  501 -0.00000000000E+00  0.00000000000E+00  0.31767917946E+03  0.31771394534E+03  0.47000000000E+01 0.  1.
          5   -1    0    0  501    0  0.00000000000E+00 -0.00000000000E+00 -0.11908589197E+03  0.11917860407E+03  0.47000000000E+01 0. -1.
          6    1    1    2  502    0 -0.18991184322E+02  0.24362033872E+01 -0.54307032911E+00  0.17306326905E+03  0.17200000000E+03 0. -1.
         -6    1    1    2    0  502  0.18991184322E+02 -0.24362033872E+01  0.19913635781E+03  0.26382928035E+03  0.17200000000E+03 0.  1.
</event>
<event>
 4    1 -0.6479440E-004  0.1993544E+03  0.7818608E-02  0.1150285E+00
          5   -1    0    0  501    0  0.00000000000E+00  0.00000000000E+00  0.17081765145E+03  0.17088229881E+03  0.47000000000E+01 0. -1.
         -5   -1    0    0    0  501 -0.00000000000E+00 -0.00000000000E+00 -0.29471663649E+03  0.29475411078E+03  0.47000000000E+01 0.  1.
          6    1    1    2  502    0  0.90148728348E+02  0.45070930888E+02  0.44980077241E+02  0.20436582244E+03  0.17200000000E+03 0. -1.
         -6    1    1    2    0  502 -0.90148728348E+02 -0.45070930888E+02 -0.16887906228E+03  0.26127058715E+03  0.17200000000E+03 0.  1.
</event>
<event>
 4    1 -0.6479440E-004  0.1768472E+03  0.7818608E-02  0.1170890E+00
          5   -1    0    0  501    0  0.00000000000E+00  0.00000000000E+00  0.14049020585E+03  0.14056880145E+03  0.47000000000E+01 0. -1.
         -5   -1    0    0    0  501 -0.00000000000E+00 -0.00000000000E+00 -0.48355658297E+03  0.48357942360E+03  0.47000000000E+01 0.  1.
          6    1    1    2  502    0  0.39948746821E+02 -0.97485863896E+01  0.57761351721E+02  0.18604115422E+03  0.17200000000E+03 0. -1.
         -6    1    1    2    0  502 -0.39948746821E+02  0.97485863896E+01 -0.40082772884E+03  0.43810707084E+03  0.17200000000E+03 0.  1.
</event>
<event>
 4    1 -0.6479440E-004  0.2038939E+03  0.7818608E-02  0.1146495E+00
          5   -1    0    0  501    0  0.00000000000E+00  0.00000000000E+00  0.72554611316E+03  0.72556133602E+03  0.47000000000E+01 0. -1.
         -5   -1    0    0    0  501 -0.00000000000E+00 -0.00000000000E+00 -0.25740965059E+03  0.25745255527E+03  0.47000000000E+01 0.  1.
          6    1    1    2  502    0  0.62195343763E+02 -0.90113586242E+02  0.66744175784E+03  0.69789054967E+03  0.17200000000E+03 0. -1.
         -6    1    1    2    0  502 -0.62195343763E+02  0.90113586242E+02 -0.19930529527E+03  0.28512334162E+03  0.17200000000E+03 0.  1.
</event>
<event>
 4    1 -0.6479440E-004  0.2114526E+03  0.7818608E-02  0.1140421E+00
         -5   -1    0    0    0  501 -0.00000000000E+00  0.00000000000E+00  0.47370487923E+03  0.47372819486E+03  0.47000000000E+01 0.  1.
          5   -1    0    0  501    0  0.00000000000E+00 -0.00000000000E+00 -0.11616785902E+03  0.11626289808E+03  0.47000000000E+01 0. -1.
          6    1    1    2  502    0  0.91092918354E+01 -0.12265900042E+03  0.50862017252E+02  0.21748368762E+03  0.17200000000E+03 0. -1.
         -6    1    1    2    0  502 -0.91092918354E+01  0.12265900042E+03  0.30667500295E+03  0.37250740532E+03  0.17200000000E+03 0.  1.
</event>
<event>
 4    1 -0.6479440E-004  0.2324947E+03  0.7818608E-02  0.1124896E+00
         -5   -1    0    0    0  501 -0.00000000000E+00  0.00000000000E+00  0.14094477539E+03  0.14102311764E+03  0.47000000000E+01 0.  1.
          5   -1    0    0  501    0  0.00000000000E+00 -0.00000000000E+00 -0.47605634504E+03  0.47607954551E+03  0.47000000000E+01 0. -1.
          6    1    1    2  502    0 -0.13723899895E+03  0.75068348774E+02 -0.30373044014E+03  0.38249964717E+03  0.17200000000E+03 0. -1.
         -6    1    1    2    0  502  0.13723899895E+03 -0.75068348774E+02 -0.31381129519E+02  0.23460301599E+03  0.17200000000E+03 0.  1.
</event>
<event>
 4    1 -0.6479440E-004  0.1748508E+03  0.7818608E-02  0.1172882E+00
          5   -1    0    0  501    0  0.00000000000E+00  0.00000000000E+00  0.19905391549E+04  0.19905447036E+04  0.47000000000E+01 0. -1.
         -5   -1    0    0    0  501 -0.00000000000E+00 -0.00000000000E+00 -0.25162460074E+02  0.25597644364E+02  0.47000000000E+01 0.  1.
          6    1    1    2  502    0  0.29888961478E+02 -0.97697052394E+01  0.16162277759E+04  0.16256583346E+04  0.17200000000E+03 0. -1.
         -6    1    1    2    0  502 -0.29888961478E+02  0.97697052394E+01  0.34914891889E+03  0.39048401340E+03  0.17200000000E+03 0.  1.
</event>
<event>
 4    1 -0.6479440E-004  0.1746165E+03  0.7818608E-02  0.1173117E+00
          5   -1    0    0  501    0  0.00000000000E+00  0.00000000000E+00  0.36353542683E+03  0.36356580774E+03  0.47000000000E+01 0. -1.
         -5   -1    0    0    0  501 -0.00000000000E+00 -0.00000000000E+00 -0.32756107239E+03  0.32759478956E+03  0.47000000000E+01 0.  1.
          6    1    1    2  502    0  0.11128053436E+02  0.27983894998E+02  0.31606767458E+03  0.36109514933E+03  0.17200000000E+03 0. -1.
         -6    1    1    2    0  502 -0.11128053436E+02 -0.27983894998E+02 -0.28009332014E+03  0.33006544797E+03  0.17200000000E+03 0.  1.
</event>
<event>
 4    1 -0.6479440E-004  0.1958652E+03  0.7818608E-02  0.1153275E+00
          5   -1    0    0  501    0  0.00000000000E+00  0.00000000000E+00  0.15398913578E+03  0.15406084492E+03  0.47000000000E+01 0. -1.
         -5   -1    0    0    0  501 -0.00000000000E+00 -0.00000000000E+00 -0.24903415214E+03  0.24907849954E+03  0.47000000000E+01 0.  1.
          6    1    1    2  502    0 -0.21775620480E+02 -0.91131804562E+02 -0.44476833983E+02  0.20085161740E+03  0.17200000000E+03 0. -1.
         -6    1    1    2    0  502  0.21775620480E+02  0.91131804562E+02 -0.50568182378E+02  0.20228772706E+03  0.17200000000E+03 0.  1.
</event>
<event>
 4    1 -0.6479440E-004  0.2699951E+03  0.7818608E-02  0.1101282E+00
         -5   -1    0    0    0  501 -0.00000000000E+00  0.00000000000E+00  0.17573176140E+04  0.17573238992E+04  0.47000000000E+01 0.  1.
          5   -1    0    0  501    0  0.00000000000E+00 -0.00000000000E+00 -0.99709234210E+02  0.99819944835E+02  0.47000000000E+01 0. -1.
          6    1    1    2  502    0  0.92679736524E+02  0.18634329297E+03  0.11905301775E+03  0.29507791756E+03  0.17200000000E+03 0. -1.
         -6    1    1    2    0  502 -0.92679736524E+02 -0.18634329297E+03  0.15385553621E+04  0.15620659265E+04  0.17200000000E+03 0.  1.
</event>
<event>
 4    1 -0.6479440E-004  0.1960498E+03  0.7818608E-02  0.1153115E+00
         -5   -1    0    0    0  501 -0.00000000000E+00  0.00000000000E+00  0.34995255471E+03  0.34998411471E+03  0.47000000000E+01 0.  1.
          5   -1    0    0  501    0  0.00000000000E+00 -0.00000000000E+00 -0.73319527814E+03  0.73321034219E+03  0.47000000000E+01 0. -1.
          6    1    1    2  502    0  0.44959469453E+02 -0.82644891450E+02 -0.69101318888E+03  0.71828598704E+03  0.17200000000E+03 0. -1.
         -6    1    1    2    0  502 -0.44959469453E+02  0.82644891450E+02  0.30777046545E+03  0.36490846986E+03  0.17200000000E+03 0.  1.
</event>
<event>
 4    1 -0.6479440E-004  0.2094492E+03  0.7818608E-02  0.1142003E+00
          5   -1    0    0  501    0  0.00000000000E+00  0.00000000000E+00  0.47080999359E+03  0.47083345258E+03  0.47000000000E+01 0. -1.
         -5   -1    0    0    0  501 -0.00000000000E+00 -0.00000000000E+00 -0.21931259971E+03  0.21936295583E+03  0.47000000000E+01 0.  1.
          6    1    1    2  502    0 -0.19756719358E+02 -0.11787558825E+03  0.38748751461E+03  0.44047196988E+03  0.17200000000E+03 0. -1.
         -6    1    1    2    0  502  0.19756719358E+02  0.11787558825E+03 -0.13599012073E+03  0.24972443853E+03  0.17200000000E+03 0.  1.
</event>
<event>
 4    1 -0.6479440E-004  0.1757848E+03  0.7818608E-02  0.1171946E+00
         -5   -1    0    0    0  501 -0.00000000000E+00  0.00000000000E+00  0.55092140571E+02  0.55292259428E+02  0.47000000000E+01 0.  1.
          5   -1    0    0  501    0  0.00000000000E+00 -0.00000000000E+00 -0.14273286298E+04  0.14273363680E+04  0.47000000000E+01 0. -1.
          6    1    1    2  502    0  0.10302566530E+02  0.34787051296E+02 -0.12640620381E+04  0.12762261234E+04  0.17200000000E+03 0. -1.
         -6    1    1    2    0  502 -0.10302566530E+02 -0.34787051296E+02 -0.10817445117E+03  0.20640250410E+03  0.17200000000E+03 0.  1.
</event>
<event>
 4    1 -0.6479440E-004  0.2497353E+03  0.7818608E-02  0.1113472E+00
          5   -1    0    0  501    0  0.00000000000E+00  0.00000000000E+00  0.84662761940E+02  0.84793120354E+02  0.47000000000E+01 0. -1.
         -5   -1    0    0    0  501 -0.00000000000E+00 -0.00000000000E+00 -0.12315492469E+04  0.12315582152E+04  0.47000000000E+01 0.  1.
          6    1    1    2  502    0 -0.17941577783E+03 -0.24365744318E+02 -0.15594605033E+03  0.29442635997E+03  0.17200000000E+03 0. -1.
         -6    1    1    2    0  502  0.17941577783E+03  0.24365744318E+02 -0.99094043458E+03  0.10219249756E+04  0.17200000000E+03 0.  1.
</event>
<event>
 4    1 -0.6479440E-004  0.1790831E+03  0.7818608E-02  0.1168693E+00
          5   -1    0    0  501    0  0.00000000000E+00  0.00000000000E+00  0.59250267841E+02  0.59436388174E+02  0.47000000000E+01 0. -1.
         -5   -1    0    0    0  501 -0.00000000000E+00 -0.00000000000E+00 -0.54642726362E+03  0.54644747637E+03  0.47000000000E+01 0.  1.
          6    1    1    2  502    0  0.47542363177E+02 -0.15048994966E+02 -0.21133463746E+03  0.27700736007E+03  0.17200000000E+03 0. -1.
         -6    1    1    2    0  502 -0.47542363177E+02  0.15048994966E+02 -0.27584235832E+03  0.32887650447E+03  0.17200000000E+03 0. -1.
</event>
<event>
 4    1 -0.6479440E-004  0.1743343E+03  0.7818608E-02  0.1173402E+00
          5   -1    0    0  501    0  0.00000000000E+00  0.00000000000E+00  0.72436741553E+03  0.72438266315E+03  0.47000000000E+01 0. -1.
         -5   -1    0    0    0  501 -0.00000000000E+00 -0.00000000000E+00 -0.46323782683E+02  0.46561602657E+02  0.47000000000E+01 0.  1.
          6    1    1    2  502    0 -0.24942412571E+02 -0.13650235916E+02  0.45900619995E+03  0.49099811046E+03  0.17200000000E+03 0. -1.
         -6    1    1    2    0  502  0.24942412571E+02  0.13650235916E+02  0.21903743290E+03  0.27994615535E+03  0.17200000000E+03 0. -1.
</event>
<event>
 4    1 -0.6479440E-004  0.1824072E+03  0.7818608E-02  0.1165493E+00
         -5   -1    0    0    0  501 -0.00000000000E+00  0.00000000000E+00  0.97040339827E+02  0.97154091801E+02  0.47000000000E+01 0.  1.
          5   -1    0    0  501    0  0.00000000000E+00 -0.00000000000E+00 -0.47104738814E+03  0.47107083530E+03  0.47000000000E+01 0. -1.
          6    1    1    2  502    0  0.68192111783E+01 -0.60348166446E+02 -0.33537650569E+03  0.38177192590E+03  0.17200000000E+03 0. -1.
         -6    1    1    2    0  502 -0.68192111783E+01  0.60348166446E+02 -0.38630542618E+02  0.18645300120E+03  0.17200000000E+03 0.  1.
</event>
<event>
 4    1 -0.6479440E-004  0.1847967E+03  0.7818608E-02  0.1163240E+00
          5   -1    0    0  501    0  0.00000000000E+00  0.00000000000E+00  0.10195185468E+03  0.10206013263E+03  0.47000000000E+01 0. -1.
         -5   -1    0    0    0  501 -0.00000000000E+00 -0.00000000000E+00 -0.33467403743E+03  0.33470703806E+03  0.47000000000E+01 0.  1.
          6    1    1    2  502    0  0.67558829113E+02 -0.12794377261E+01 -0.11484111532E+03  0.21757369814E+03  0.17200000000E+03 0.  1.
         -6    1    1    2    0  502 -0.67558829113E+02  0.12794377261E+01 -0.11788106743E+03  0.21919347255E+03  0.17200000000E+03 0.  1.
</event>
<event>
 4    1 -0.6479440E-004  0.2993788E+03  0.7818608E-02  0.1085552E+00
         -5   -1    0    0    0  501 -0.00000000000E+00  0.00000000000E+00  0.11480033825E+04  0.11480130035E+04  0.47000000000E+01 0.  1.
          5   -1    0    0  501    0  0.00000000000E+00 -0.00000000000E+00 -0.88007596173E+02  0.88133007347E+02  0.47000000000E+01 0. -1.
          6    1    1    2  502    0  0.24485813958E+03 -0.93899398541E+01  0.32166107057E+03  0.43942408196E+03  0.17200000000E+03 0. -1.
         -6    1    1    2    0  502 -0.24485813958E+03  0.93899398541E+01  0.73833471572E+03  0.79672192885E+03  0.17200000000E+03 0. -1.
</event>
<event>
 4    1 -0.6479440E-004  0.1828043E+03  0.7818608E-02  0.1165116E+00
         -5   -1    0    0    0  501 -0.00000000000E+00  0.00000000000E+00  0.64097710977E+03  0.64099434104E+03  0.47000000000E+01 0.  1.
          5   -1    0    0  501    0  0.00000000000E+00 -0.00000000000E+00 -0.46714693699E+03  0.46717057992E+03  0.47000000000E+01 0. -1.
          6    1    1    2  502    0 -0.49038730342E+02  0.37796907552E+02 -0.43533672733E+03  0.47216042767E+03  0.17200000000E+03 0. -1.
         -6    1    1    2    0  502  0.49038730342E+02 -0.37796907552E+02  0.60916690011E+03  0.63600449329E+03  0.17200000000E+03 0.  1.
</event>
<event>
 4    1 -0.6479440E-004  0.2161179E+03  0.7818608E-02  0.1136811E+00
          5   -1    0    0  501    0  0.00000000000E+00  0.00000000000E+00  0.28689820401E+03  0.28693669940E+03  0.47000000000E+01 0. -1.
         -5   -1    0    0    0  501 -0.00000000000E+00 -0.00000000000E+00 -0.17603405026E+03  0.17609678262E+03  0.47000000000E+01 0.  1.
          6    1    1    2  502    0  0.11794557283E+03 -0.56672510607E+02  0.11909275378E+03  0.24675902337E+03  0.17200000000E+03 0.  1.
         -6    1    1    2    0  502 -0.11794557283E+03  0.56672510607E+02 -0.82286000306E+01  0.21627445866E+03  0.17200000000E+03 0.  1.
</event>
<event>
 4    1 -0.6479440E-004  0.1936041E+03  0.7818608E-02  0.1155250E+00
          5   -1    0    0  501    0  0.00000000000E+00  0.00000000000E+00  0.17892225789E+03  0.17898397797E+03  0.47000000000E+01 0. -1.
         -5   -1    0    0    0  501 -0.00000000000E+00 -0.00000000000E+00 -0.45957936562E+03  0.45960339784E+03  0.47000000000E+01 0.  1.
          6    1    1    2  502    0 -0.85198826471E+02  0.25292517999E+02  0.95240153899E+02  0.21576199483E+03  0.17200000000E+03 0. -1.
         -6    1    1    2    0  502  0.85198826471E+02 -0.25292517999E+02 -0.37589726163E+03  0.42282538098E+03  0.17200000000E+03 0.  1.
</event>
<event>
 4    1 -0.6479440E-004  0.2037239E+03  0.7818608E-02  0.1146635E+00
         -5   -1    0    0    0  501 -0.00000000000E+00  0.00000000000E+00  0.81609852547E+02  0.81745079563E+02  0.47000000000E+01 0.  1.
          5   -1    0    0  501    0  0.00000000000E+00 -0.00000000000E+00 -0.18838535813E+04  0.18838594443E+04  0.47000000000E+01 0. -1.
          6    1    1    2  502    0  0.10187918332E+03  0.39243699614E+02 -0.17409932052E+04  0.17528721507E+04  0.17200000000E+03 0. -1.
         -6    1    1    2    0  502 -0.10187918332E+03 -0.39243699614E+02 -0.61250523504E+02  0.21273237314E+03  0.17200000000E+03 0.  1.
</event>
<event>
 4    1 -0.6479440E-004  0.1739233E+03  0.7818608E-02  0.1173817E+00
         -5   -1    0    0    0  501 -0.00000000000E+00  0.00000000000E+00  0.12464332157E+04  0.12464420770E+04  0.47000000000E+01 0.  1.
          5   -1    0    0  501    0  0.00000000000E+00 -0.00000000000E+00 -0.55906310800E+02  0.56103525623E+02  0.47000000000E+01 0. -1.
          6    1    1    2  502    0 -0.11578527086E+01  0.25767414843E+02  0.10497193764E+03  0.20314627238E+03  0.17200000000E+03 0. -1.
         -6    1    1    2    0  502  0.11578527086E+01 -0.25767414843E+02  0.10855549673E+04  0.10993993302E+04  0.17200000000E+03 0.  1.
</event>
<event>
 4    1 -0.6479440E-004  0.2277268E+03  0.7818608E-02  0.1128250E+00
         -5   -1    0    0    0  501 -0.00000000000E+00  0.00000000000E+00  0.29902956869E+03  0.29906650256E+03  0.47000000000E+01 0.  1.
          5   -1    0    0  501    0  0.00000000000E+00 -0.00000000000E+00 -0.20604907241E+03  0.20610266918E+03  0.47000000000E+01 0. -1.
          6    1    1    2  502    0 -0.12284490977E+03  0.84762163234E+02 -0.54112967784E+02  0.23406774544E+03  0.17200000000E+03 0. -1.
         -6    1    1    2    0  502  0.12284490977E+03 -0.84762163234E+02  0.14709346406E+03  0.27110142630E+03  0.17200000000E+03 0.  1.
</event>
<event>
 4    1 -0.6479440E-004  0.1804366E+03  0.7818608E-02  0.1167381E+00
         -5   -1    0    0    0  501 -0.00000000000E+00  0.00000000000E+00  0.12109779806E+03  0.12118897101E+03  0.47000000000E+01 0.  1.
          5   -1    0    0  501    0  0.00000000000E+00 -0.00000000000E+00 -0.52405684988E+03  0.52407792541E+03  0.47000000000E+01 0. -1.
          6    1    1    2  502    0 -0.53363173937E+02 -0.11213912383E+02 -0.42669338065E+03  0.46327596662E+03  0.17200000000E+03 0. -1.
         -6    1    1    2    0  502  0.53363173937E+02  0.11213912383E+02  0.23734328825E+02  0.18199092980E+03  0.17200000000E+03 0.  1.
</event>
<event>
 4    1 -0.6479440E-004  0.4018044E+03  0.7818608E-02  0.1043157E+00
         -5   -1    0    0    0  501 -0.00000000000E+00  0.00000000000E+00  0.26385405639E+03  0.26389591334E+03  0.47000000000E+01 0.  1.
          5   -1    0    0  501    0  0.00000000000E+00 -0.00000000000E+00 -0.17354515228E+04  0.17354578871E+04  0.47000000000E+01 0. -1.
          6    1    1    2  502    0 -0.22183569169E+03  0.28749202428E+03 -0.15401883000E+04  0.15917370190E+04  0.17200000000E+03 0. -1.
         -6    1    1    2    0  502  0.22183569169E+03 -0.28749202428E+03  0.68590833551E+02  0.40761678152E+03  0.17200000000E+03 0.  1.
</event>
<event>
 4    1 -0.6479440E-004  0.1866198E+03  0.7818608E-02  0.1161546E+00
          5   -1    0    0  501    0  0.00000000000E+00  0.00000000000E+00  0.10483399521E+04  0.10483504878E+04  0.47000000000E+01 0. -1.
         -5   -1    0    0    0  501 -0.00000000000E+00 -0.00000000000E+00 -0.41873402729E+02  0.42136348396E+02  0.47000000000E+01 0.  1.
          6    1    1    2  502    0  0.61603280394E+02  0.38052519173E+02  0.75268832636E+03  0.77547835238E+03  0.17200000000E+03 0. -1.
         -6    1    1    2    0  502 -0.61603280394E+02 -0.38052519173E+02  0.25377822301E+03  0.31500848376E+03  0.17200000000E+03 0.  1.
</event>
<event>
 4    1 -0.6479440E-004  0.2091988E+03  0.7818608E-02  0.1142202E+00
         -5   -1    0    0    0  501 -0.00000000000E+00  0.00000000000E+00  0.14502448670E+04  0.14502524829E+04  0.47000000000E+01 0.  1.
          5   -1    0    0  501    0  0.00000000000E+00 -0.00000000000E+00 -0.84059877248E+02  0.84191169150E+02  0.47000000000E+01 0. -1.
          6    1    1    2  502    0 -0.65359417625E+02 -0.99540319726E+02  0.68683016875E+02  0.22018511651E+03  0.17200000000E+03 0. -1.
         -6    1    1    2    0  502  0.65359417625E+02  0.99540319726E+02  0.12975019729E+04  0.13142585356E+04  0.17200000000E+03 0.  1.
</event>
<event>
 4    1 -0.6479440E-004  0.2583624E+03  0.7818608E-02  0.1108131E+00
         -5   -1    0    0    0  501 -0.00000000000E+00  0.00000000000E+00  0.95472801330E+03  0.95473958197E+03  0.47000000000E+01 0.  1.
          5   -1    0    0  501    0  0.00000000000E+00 -0.00000000000E+00 -0.15974311023E+03  0.15981223753E+03  0.47000000000E+01 0. -1.
          6    1    1    2  502    0 -0.16527685352E+03 -0.99250526009E+02 -0.20445553699E+02  0.25917007136E+03  0.17200000000E+03 0. -1.
         -6    1    1    2    0  502  0.16527685352E+03  0.99250526009E+02  0.81543045677E+03  0.85538174814E+03  0.17200000000E+03 0.  1.
</event>
<event>
 4    1 -0.6479440E-004  0.1793223E+03  0.7818608E-02  0.1168461E+00
          5   -1    0    0  501    0  0.00000000000E+00  0.00000000000E+00  0.14877803623E+03  0.14885225582E+03  0.47000000000E+01 0. -1.
         -5   -1    0    0    0  501 -0.00000000000E+00 -0.00000000000E+00 -0.84478371605E+03  0.84479679030E+03  0.47000000000E+01 0.  1.
          6    1    1    2  502    0  0.42136270258E+02  0.28231620927E+02  0.80604115440E+02  0.19660496717E+03  0.17200000000E+03 0. -1.
         -6    1    1    2    0  502 -0.42136270258E+02 -0.28231620927E+02 -0.77660979527E+03  0.79704407895E+03  0.17200000000E+03 0.  1.
</event>
<event>
 4    1 -0.6479440E-004  0.1842673E+03  0.7818608E-02  0.1163736E+00
         -5   -1    0    0    0  501 -0.00000000000E+00  0.00000000000E+00  0.30277247054E+02  0.30639870907E+02  0.47000000000E+01 0.  1.
          5   -1    0    0  501    0  0.00000000000E+00 -0.00000000000E+00 -0.11223129867E+04  0.11223228279E+04  0.47000000000E+01 0. -1.
          6    1    1    2  502    0  0.19052219496E+02  0.63304413521E+02 -0.49764216310E+03  0.53066200008E+03  0.17200000000E+03 0. -1.
         -6    1    1    2    0  502 -0.19052219496E+02 -0.63304413521E+02 -0.59439357652E+03  0.62230069874E+03  0.17200000000E+03 0. -1.
</event>
<event>
 4    1 -0.6479440E-004  0.1791122E+03  0.7818608E-02  0.1168665E+00
         -5   -1    0    0    0  501 -0.00000000000E+00  0.00000000000E+00  0.38699437832E+03  0.38702291773E+03  0.47000000000E+01 0.  1.
          5   -1    0    0  501    0  0.00000000000E+00 -0.00000000000E+00 -0.34443485984E+03  0.34446692537E+03  0.47000000000E+01 0. -1.
          6    1    1    2  502    0  0.48574372506E+02 -0.11735470238E+02 -0.29743514232E+03  0.34720146142E+03  0.17200000000E+03 0. -1.
         -6    1    1    2    0  502 -0.48574372506E+02  0.11735470238E+02  0.33999466079E+03  0.38428838168E+03  0.17200000000E+03 0.  1.
</event>
<event>
 4    1 -0.6479440E-004  0.2065194E+03  0.7818608E-02  0.1144352E+00
          5   -1    0    0  501    0  0.00000000000E+00  0.00000000000E+00  0.54754614782E+03  0.54756631926E+03  0.47000000000E+01 0. -1.
         -5   -1    0    0    0  501 -0.00000000000E+00 -0.00000000000E+00 -0.25826470901E+03  0.25830747166E+03  0.47000000000E+01 0.  1.
          6    1    1    2  502    0  0.97135234856E+02 -0.60257712573E+02  0.48138870878E+03  0.52381803588E+03  0.17200000000E+03 0. -1.
         -6    1    1    2    0  502 -0.97135234856E+02  0.60257712573E+02 -0.19210726997E+03  0.28205575504E+03  0.17200000000E+03 0.  1.
</event>
<event>
 4    1 -0.6479440E-004  0.2047303E+03  0.7818608E-02  0.1145808E+00
         -5   -1    0    0    0  501 -0.00000000000E+00  0.00000000000E+00  0.50924981077E+02  0.51141408835E+02  0.47000000000E+01 0.  1.
          5   -1    0    0  501    0  0.00000000000E+00 -0.00000000000E+00 -0.85655158053E+03  0.85656447517E+03  0.47000000000E+01 0. -1.
          6    1    1    2  502    0 -0.19276344880E+01 -0.11102607673E+03 -0.49513988534E+03  0.53579661397E+03  0.17200000000E+03 0.  1.
         -6    1    1    2    0  502  0.19276344880E+01  0.11102607673E+03 -0.31048671412E+03  0.37190927003E+03  0.17200000000E+03 0.  1.
</event>
<event>
 4    1 -0.6479440E-004  0.4160305E+03  0.7818608E-02  0.1038366E+00
         -5   -1    0    0    0  501 -0.00000000000E+00  0.00000000000E+00  0.42786114787E+03  0.42788696154E+03  0.47000000000E+01 0.  1.
          5   -1    0    0  501    0  0.00000000000E+00 -0.00000000000E+00 -0.11414484714E+04  0.11414581477E+04  0.47000000000E+01 0. -1.
          6    1    1    2  502    0  0.99555016532E+01 -0.37867959324E+03 -0.98728298497E+03  0.10713585015E+04  0.17200000000E+03 0. -1.
         -6    1    1    2    0  502 -0.99555016532E+01  0.37867959324E+03  0.27369566144E+03  0.49798660769E+03  0.17200000000E+03 0.  1.
</event>
<event>
 4    1 -0.6479440E-004  0.1790242E+03  0.7818608E-02  0.1168751E+00
         -5   -1    0    0    0  501 -0.00000000000E+00  0.00000000000E+00  0.80681866862E+02  0.80818646612E+02  0.47000000000E+01 0.  1.
          5   -1    0    0  501    0  0.00000000000E+00 -0.00000000000E+00 -0.52420723851E+03  0.52422830800E+03  0.47000000000E+01 0. -1.
          6    1    1    2  502    0  0.18018065958E+02 -0.46271221601E+02 -0.37091375322E+03  0.41185760765E+03  0.17200000000E+03 0. -1.
         -6    1    1    2    0  502 -0.18018065958E+02  0.46271221601E+02 -0.72611618430E+02  0.19318934696E+03  0.17200000000E+03 0.  1.
</event>
<event>
 4    1 -0.6479440E-004  0.1875003E+03  0.7818608E-02  0.1160735E+00
          5   -1    0    0  501    0  0.00000000000E+00  0.00000000000E+00  0.80525638501E+03  0.80527010102E+03  0.47000000000E+01 0. -1.
         -5   -1    0    0    0  501 -0.00000000000E+00 -0.00000000000E+00 -0.15428501896E+03  0.15435659064E+03  0.47000000000E+01 0.  1.
          6    1    1    2  502    0 -0.47148106158E+02  0.57874213237E+02  0.73180557209E+03  0.75544408384E+03  0.17200000000E+03 0. -1.
         -6    1    1    2    0  502  0.47148106158E+02 -0.57874213237E+02 -0.80834206033E+02  0.20418260782E+03  0.17200000000E+03 0.  1.
</event>
<event>
 4    1 -0.6479440E-004  0.1742726E+03  0.7818608E-02  0.1173464E+00
         -5   -1    0    0    0  501 -0.00000000000E+00  0.00000000000E+00  0.11228284880E+03  0.11238117340E+03  0.47000000000E+01 0.  1.
          5   -1    0    0  501    0  0.00000000000E+00 -0.00000000000E+00 -0.15052216944E+04  0.15052290322E+04  0.47000000000E+01 0. -1.
          6    1    1    2  502    0 -0.26032966400E+02 -0.10450455720E+02 -0.14290488298E+04  0.14396358863E+04  0.17200000000E+03 0. -1.
         -6    1    1    2    0  502  0.26032966400E+02  0.10450455720E+02  0.36109984135E+02  0.17797431927E+03  0.17200000000E+03 0.  1.
</event>
<event>
 4    1 -0.6479440E-004  0.2069638E+03  0.7818608E-02  0.1143993E+00
          5   -1    0    0  501    0  0.00000000000E+00  0.00000000000E+00  0.83374411913E+03  0.83375736649E+03  0.47000000000E+01 0. -1.
         -5   -1    0    0    0  501 -0.00000000000E+00 -0.00000000000E+00 -0.17388527397E+03  0.17394878126E+03  0.47000000000E+01 0.  1.
          6    1    1    2  502    0 -0.95475375243E+02 -0.64299949791E+02  0.75287271477E+03  0.78080173890E+03  0.17200000000E+03 0. -1.
         -6    1    1    2    0  502  0.95475375243E+02  0.64299949791E+02 -0.93013869609E+02  0.22690440886E+03  0.17200000000E+03 0.  1.
</event>
<event>
 4    1 -0.6479440E-004  0.2059945E+03  0.7818608E-02  0.1144778E+00
          5   -1    0    0  501    0  0.00000000000E+00  0.00000000000E+00  0.13473373987E+03  0.13481569145E+03  0.47000000000E+01 0. -1.
         -5   -1    0    0    0  501 -0.00000000000E+00 -0.00000000000E+00 -0.11189018859E+04  0.11189117572E+04  0.47000000000E+01 0.  1.
          6    1    1    2  502    0 -0.11226339977E+03 -0.15706127684E+02  0.39321258713E+02  0.20971388786E+03  0.17200000000E+03 0. -1.
         -6    1    1    2    0  502  0.11226339977E+03  0.15706127684E+02 -0.10234894048E+04  0.10440135608E+04  0.17200000000E+03 0.  1.
</event>
<event>
 4    1 -0.6479440E-004  0.2155590E+03  0.7818608E-02  0.1137238E+00
          5   -1    0    0  501    0  0.00000000000E+00  0.00000000000E+00  0.85872826560E+02  0.86001350811E+02  0.47000000000E+01 0. -1.
         -5   -1    0    0    0  501 -0.00000000000E+00 -0.00000000000E+00 -0.18866954407E+04  0.18867012948E+04  0.47000000000E+01 0.  1.
          6    1    1    2  502    0  0.12976657620E+03 -0.65048437696E+01 -0.67287482900E+02  0.22581692285E+03  0.17200000000E+03 0. -1.
         -6    1    1    2    0  502 -0.12976657620E+03  0.65048437696E+01 -0.17335351312E+04  0.17468857228E+04  0.17200000000E+03 0.  1.
</event>
<event>
 4    1 -0.6479440E-004  0.2408743E+03  0.7818608E-02  0.1119212E+00
          5   -1    0    0  501    0  0.00000000000E+00  0.00000000000E+00  0.93950567369E+03  0.93951742980E+03  0.47000000000E+01 0. -1.
         -5   -1    0    0    0  501 -0.00000000000E+00 -0.00000000000E+00 -0.17198013614E+03  0.17204434668E+03  0.47000000000E+01 0.  1.
          6    1    1    2  502    0  0.61002162212E+02  0.15721052422E+03  0.82873608268E+03  0.86303181138E+03  0.17200000000E+03 0. -1.
         -6    1    1    2    0  502 -0.61002162212E+02 -0.15721052422E+03 -0.61210545121E+02  0.24852996511E+03  0.17200000000E+03 0.  1.
</event>
<event>
 4    1 -0.6479440E-004  0.1726093E+03  0.7818608E-02  0.1175154E+00
         -5   -1    0    0    0  501 -0.00000000000E+00  0.00000000000E+00  0.17802046766E+03  0.17808250028E+03  0.47000000000E+01 0.  1.
          5   -1    0    0  501    0  0.00000000000E+00 -0.00000000000E+00 -0.29477381983E+03  0.29481128685E+03  0.47000000000E+01 0. -1.
          6    1    1    2  502    0  0.97467048243E+01  0.10723289545E+02 -0.21387316444E+03  0.27483762053E+03  0.17200000000E+03 0. -1.
         -6    1    1    2    0  502 -0.97467048243E+01 -0.10723289545E+02  0.97119812272E+02  0.19805616660E+03  0.17200000000E+03 0.  1.
</event>
<event>
 4    1 -0.6479440E-004  0.3071928E+03  0.7818608E-02  0.1081699E+00
          5   -1    0    0  501    0  0.00000000000E+00  0.00000000000E+00  0.75707026074E+03  0.75708484973E+03  0.47000000000E+01 0. -1.
         -5   -1    0    0    0  501 -0.00000000000E+00 -0.00000000000E+00 -0.83391876743E+03  0.83393201202E+03  0.47000000000E+01 0.  1.
          6    1    1    2  502    0  0.19144864061E+03  0.16772255525E+03  0.69522794535E+03  0.76007192655E+03  0.17200000000E+03 0. -1.
         -6    1    1    2    0  502 -0.19144864061E+03 -0.16772255525E+03 -0.77207645205E+03  0.83094493520E+03  0.17200000000E+03 0.  1.
</event>
<event>
 4    1 -0.6479440E-004  0.1813390E+03  0.7818608E-02  0.1166513E+00
         -5   -1    0    0    0  501 -0.00000000000E+00  0.00000000000E+00  0.18518583086E+03  0.18524546405E+03  0.47000000000E+01 0.  1.
          5   -1    0    0  501    0  0.00000000000E+00 -0.00000000000E+00 -0.12935673526E+04  0.12935758910E+04  0.47000000000E+01 0. -1.
          6    1    1    2  502    0  0.55263837339E+02  0.15675816597E+02 -0.12409897566E+04  0.12541688080E+04  0.17200000000E+03 0. -1.
         -6    1    1    2    0  502 -0.55263837339E+02 -0.15675816597E+02  0.13260823485E+03  0.22465254704E+03  0.17200000000E+03 0.  1.
</event>
<event>
 4    1 -0.6479440E-004  0.2008707E+03  0.7818608E-02  0.1149007E+00
          5   -1    0    0  501    0  0.00000000000E+00  0.00000000000E+00  0.81299114691E+03  0.81300473243E+03  0.47000000000E+01 0. -1.
         -5   -1    0    0    0  501 -0.00000000000E+00 -0.00000000000E+00 -0.57392718158E+02  0.57584842602E+02  0.47000000000E+01 0.  1.
          6    1    1    2  502    0  0.10280059295E+03  0.14037906262E+02  0.53886207297E+03  0.57508378382E+03  0.17200000000E+03 0. -1.
         -6    1    1    2    0  502 -0.10280059295E+03 -0.14037906262E+02  0.21673635578E+03  0.29550579121E+03  0.17200000000E+03 0.  1.
</event>
<event>
 4    1 -0.6479440E-004  0.1774704E+03  0.7818608E-02  0.1170274E+00
          5   -1    0    0  501    0  0.00000000000E+00  0.00000000000E+00  0.11333069994E+03  0.11342811622E+03  0.47000000000E+01 0. -1.
         -5   -1    0    0    0  501 -0.00000000000E+00 -0.00000000000E+00 -0.60474201622E+03  0.60476027993E+03  0.47000000000E+01 0.  1.
          6    1    1    2  502    0 -0.31981798547E+02 -0.29814418955E+02  0.18351180746E+02  0.17841664959E+03  0.17200000000E+03 0. -1.
         -6    1    1    2    0  502  0.31981798547E+02  0.29814418955E+02 -0.50976249702E+03  0.53977174656E+03  0.17200000000E+03 0.  1.
</event>
<event>
 4    1 -0.6479440E-004  0.1757117E+03  0.7818608E-02  0.1172019E+00
          5   -1    0    0  501    0  0.00000000000E+00  0.00000000000E+00  0.38563933951E+03  0.38566797920E+03  0.47000000000E+01 0. -1.
         -5   -1    0    0    0  501 -0.00000000000E+00 -0.00000000000E+00 -0.84807574730E+02  0.84937710892E+02  0.47000000000E+01 0.  1.
          6    1    1    2  502    0 -0.28530325327E+02  0.21831452771E+02  0.20661740244E+03  0.27122931771E+03  0.17200000000E+03 0. -1.
         -6    1    1    2    0  502  0.28530325327E+02 -0.21831452771E+02  0.94214362342E+02  0.19937637238E+03  0.17200000000E+03 0.  1.
</event>
<event>
 4    1 -0.6479440E-004  0.2305230E+03  0.7818608E-02  0.1126272E+00
          5   -1    0    0  501    0  0.00000000000E+00  0.00000000000E+00  0.20077338925E+03  0.20082839399E+03  0.47000000000E+01 0. -1.
         -5   -1    0    0    0  501 -0.00000000000E+00 -0.00000000000E+00 -0.76574717868E+03  0.76576160236E+03  0.47000000000E+01 0.  1.
          6    1    1    2  502    0  0.42674489672E+02 -0.14743044216E+03  0.10848207153E+03  0.25477285410E+03  0.17200000000E+03 0. -1.
         -6    1    1    2    0  502 -0.42674489672E+02  0.14743044216E+03 -0.67345586095E+03  0.71181714225E+03  0.17200000000E+03 0.  1.
</event>
<event>
 4    1 -0.6479440E-004  0.1826780E+03  0.7818608E-02  0.1165236E+00
          5   -1    0    0  501    0  0.00000000000E+00  0.00000000000E+00  0.51975269270E+02  0.52187341527E+02  0.47000000000E+01 0. -1.
         -5   -1    0    0    0  501 -0.00000000000E+00 -0.00000000000E+00 -0.94168089072E+03  0.94169261967E+03  0.47000000000E+01 0.  1.
          6    1    1    2  502    0  0.20536059604E+02  0.58013076445E+02 -0.16386316087E+03  0.24540249036E+03  0.17200000000E+03 0. -1.
         -6    1    1    2    0  502 -0.20536059604E+02 -0.58013076445E+02 -0.72584246057E+03  0.74847747084E+03  0.17200000000E+03 0.  1.
</event>
<event>
 4    1 -0.6479440E-004  0.3318000E+03  0.7818608E-02  0.1070343E+00
          5   -1    0    0  501    0  0.00000000000E+00  0.00000000000E+00  0.19978303381E+04  0.19978358666E+04  0.47000000000E+01 0. -1.
         -5   -1    0    0    0  501 -0.00000000000E+00 -0.00000000000E+00 -0.34520109937E+03  0.34523309373E+03  0.47000000000E+01 0.  1.
          6    1    1    2  502    0 -0.28349315487E+03 -0.11784145232E+02  0.19002849065E+04  0.19290344633E+04  0.17200000000E+03 0. -1.
         -6    1    1    2    0  502  0.28349315487E+03  0.11784145232E+02 -0.24765566774E+03  0.41403449699E+03  0.17200000000E+03 0.  1.
</event>
<event>
 4    1 -0.6479440E-004  0.2445801E+03  0.7818608E-02  0.1116779E+00
         -5   -1    0    0    0  501 -0.00000000000E+00  0.00000000000E+00  0.45989016731E+03  0.45991418329E+03  0.47000000000E+01 0.  1.
          5   -1    0    0  501    0  0.00000000000E+00 -0.00000000000E+00 -0.27485475798E+03  0.27489493991E+03  0.47000000000E+01 0. -1.
          6    1    1    2  502    0 -0.14997854579E+03 -0.87987910692E+02 -0.17415941935E+03  0.30025146123E+03  0.17200000000E+03 0. -1.
         -6    1    1    2    0  502  0.14997854579E+03  0.87987910692E+02  0.35919482868E+03  0.43455766196E+03  0.17200000000E+03 0.  1.
</event>
<event>
 4    1 -0.6479440E-004  0.3705357E+03  0.7818608E-02  0.1054488E+00
         -5   -1    0    0    0  501 -0.00000000000E+00  0.00000000000E+00  0.19830482193E+04  0.19830537890E+04  0.47000000000E+01 0.  1.
          5   -1    0    0  501    0  0.00000000000E+00 -0.00000000000E+00 -0.17098265033E+03  0.17104723533E+03  0.47000000000E+01 0. -1.
          6    1    1    2  502    0  0.19493669603E+03 -0.26403100450E+03  0.75121242321E+02  0.37807391849E+03  0.17200000000E+03 0. -1.
         -6    1    1    2    0  502 -0.19493669603E+03  0.26403100450E+03  0.17369443267E+04  0.17760271059E+04  0.17200000000E+03 0.  1.
</event>
<event>
 4    1 -0.6479440E-004  0.2824247E+03  0.7818608E-02  0.1094372E+00
          5   -1    0    0  501    0  0.00000000000E+00  0.00000000000E+00  0.57353759638E+03  0.57355685373E+03  0.47000000000E+01 0. -1.
         -5   -1    0    0    0  501 -0.00000000000E+00 -0.00000000000E+00 -0.78607916130E+03  0.78609321192E+03  0.47000000000E+01 0.  1.
          6    1    1    2  502    0 -0.21420059364E+03 -0.65557701392E+02  0.51049532046E+03  0.58341167175E+03  0.17200000000E+03 0. -1.
         -6    1    1    2    0  502  0.21420059364E+03  0.65557701392E+02 -0.72303688538E+03  0.77623839389E+03  0.17200000000E+03 0.  1.
</event>
<event>
 4    1 -0.6479440E-004  0.2547302E+03  0.7818608E-02  0.1110351E+00
          5   -1    0    0  501    0  0.00000000000E+00  0.00000000000E+00  0.59097935954E+03  0.59099804856E+03  0.47000000000E+01 0. -1.
         -5   -1    0    0    0  501 -0.00000000000E+00 -0.00000000000E+00 -0.73540316806E+03  0.73541818688E+03  0.47000000000E+01 0.  1.
          6    1    1    2  502    0 -0.18611213863E+03 -0.25801994532E+02  0.53948985061E+03  0.59660436638E+03  0.17200000000E+03 0. -1.
         -6    1    1    2    0  502  0.18611213863E+03  0.25801994532E+02 -0.68391365913E+03  0.72981186906E+03  0.17200000000E+03 0.  1.
</event>
<event>
 4    1 -0.6479440E-004  0.1895139E+03  0.7818608E-02  0.1158900E+00
         -5   -1    0    0    0  501 -0.00000000000E+00  0.00000000000E+00  0.12790111764E+03  0.12798744428E+03  0.47000000000E+01 0.  1.
          5   -1    0    0  501    0  0.00000000000E+00 -0.00000000000E+00 -0.52046052578E+03  0.52048174694E+03  0.47000000000E+01 0. -1.
          6    1    1    2  502    0 -0.33037086053E+02 -0.72388391329E+02 -0.41636474945E+03  0.45746599091E+03  0.17200000000E+03 0. -1.
         -6    1    1    2    0  502  0.33037086053E+02  0.72388391329E+02  0.23805341305E+02  0.19100320031E+03  0.17200000000E+03 0.  1.
</event>
<event>
 4    1 -0.6479440E-004  0.1813601E+03  0.7818608E-02  0.1166493E+00
          5   -1    0    0  501    0  0.00000000000E+00  0.00000000000E+00  0.28968010781E+03  0.28971823356E+03  0.47000000000E+01 0. -1.
         -5   -1    0    0    0  501 -0.00000000000E+00 -0.00000000000E+00 -0.20809414245E+03  0.20814721263E+03  0.47000000000E+01 0.  1.
          6    1    1    2  502    0  0.57102045340E+02  0.68435945507E+01  0.20862738046E+03  0.27643600027E+03  0.17200000000E+03 0. -1.
         -6    1    1    2    0  502 -0.57102045340E+02 -0.68435945507E+01 -0.12704141510E+03  0.22142944592E+03  0.17200000000E+03 0.  1.
</event>
<event>
 4    1 -0.6479440E-004  0.1942430E+03  0.7818608E-02  0.1154689E+00
         -5   -1    0    0    0  501 -0.00000000000E+00  0.00000000000E+00  0.84484370024E+02  0.84615003269E+02  0.47000000000E+01 0.  1.
          5   -1    0    0  501    0  0.00000000000E+00 -0.00000000000E+00 -0.55353573290E+03  0.55355568609E+03  0.47000000000E+01 0. -1.
          6    1    1    2  502    0 -0.84014136062E+02  0.32984515864E+02 -0.37507636136E+03  0.42238919280E+03  0.17200000000E+03 0. -1.
         -6    1    1    2    0  502  0.84014136062E+02 -0.32984515864E+02 -0.93975001520E+02  0.21578149656E+03  0.17200000000E+03 0.  1.
</event>
<event>
 4    1 -0.6479440E-004  0.2904479E+03  0.7818608E-02  0.1090116E+00
          5   -1    0    0  501    0  0.00000000000E+00  0.00000000000E+00  0.10036236994E+04  0.10036347045E+04  0.47000000000E+01 0. -1.
         -5   -1    0    0    0  501 -0.00000000000E+00 -0.00000000000E+00 -0.93202899539E+02  0.93321329194E+02  0.47000000000E+01 0.  1.
          6    1    1    2  502    0  0.22956155558E+03 -0.45579047129E+02  0.62763704656E+03  0.69158384853E+03  0.17200000000E+03 0.  1.
         -6    1    1    2    0  502 -0.22956155558E+03  0.45579047129E+02  0.28278375330E+03  0.40537218512E+03  0.17200000000E+03 0.  1.
</event>
<event>
 4    1 -0.6479440E-004  0.2499834E+03  0.7818608E-02  0.1113315E+00
          5   -1    0    0  501    0  0.00000000000E+00  0.00000000000E+00  0.21943370844E+03  0.21948403678E+03  0.47000000000E+01 0. -1.
         -5   -1    0    0    0  501 -0.00000000000E+00 -0.00000000000E+00 -0.10507857041E+04  0.10507962153E+04  0.47000000000E+01 0.  1.
          6    1    1    2  502    0 -0.16910921112E+03  0.65648718463E+02  0.12662482064E+03  0.28022406164E+03  0.17200000000E+03 0. -1.
         -6    1    1    2    0  502  0.16910921112E+03 -0.65648718463E+02 -0.95797681634E+03  0.99005619041E+03  0.17200000000E+03 0.  1.
</event>
<event>
 4    1 -0.6479440E-004  0.1899391E+03  0.7818608E-02  0.1158516E+00
          5   -1    0    0  501    0  0.00000000000E+00  0.00000000000E+00  0.32037784641E+03  0.32041231947E+03  0.47000000000E+01 0. -1.
         -5   -1    0    0    0  501 -0.00000000000E+00 -0.00000000000E+00 -0.20366711318E+03  0.20372133661E+03  0.47000000000E+01 0.  1.
          6    1    1    2  502    0 -0.69567871357E+02  0.40659400528E+02  0.23362659766E+03  0.30109510576E+03  0.17200000000E+03 0. -1.
         -6    1    1    2    0  502  0.69567871357E+02 -0.40659400528E+02 -0.11691586443E+03  0.22303855033E+03  0.17200000000E+03 0.  1.
</event>
<event>
 4    1 -0.6479440E-004  0.1787322E+03  0.7818608E-02  0.1169036E+00
          5   -1    0    0  501    0  0.00000000000E+00  0.00000000000E+00  0.32947217961E+03  0.32950570122E+03  0.47000000000E+01 0. -1.
         -5   -1    0    0    0  501 -0.00000000000E+00 -0.00000000000E+00 -0.18121093028E+03  0.18127187111E+03  0.47000000000E+01 0.  1.
          6    1    1    2  502    0  0.20070854613E+02 -0.44253220648E+02  0.24831183050E+03  0.30594762936E+03  0.17200000000E+03 0. -1.
         -6    1    1    2    0  502 -0.20070854613E+02  0.44253220648E+02 -0.10005058118E+03  0.20482994297E+03  0.17200000000E+03 0.  1.
</event>
<event>
 4    1 -0.6479440E-004  0.3031079E+03  0.7818608E-02  0.1083697E+00
          5   -1    0    0  501    0  0.00000000000E+00  0.00000000000E+00  0.54305113578E+03  0.54307147419E+03  0.47000000000E+01 0. -1.
         -5   -1    0    0    0  501 -0.00000000000E+00 -0.00000000000E+00 -0.74820481204E+03  0.74821957389E+03  0.47000000000E+01 0.  1.
          6    1    1    2  502    0 -0.14441338216E+03  0.20355631322E+03  0.46540614808E+03  0.55540731024E+03  0.17200000000E+03 0. -1.
         -6    1    1    2    0  502  0.14441338216E+03 -0.20355631322E+03 -0.67055982433E+03  0.73588373784E+03  0.17200000000E+03 0.  1.
</event>
<event>
 4    1 -0.6479440E-004  0.1768411E+03  0.7818608E-02  0.1170896E+00
         -5   -1    0    0    0  501 -0.00000000000E+00  0.00000000000E+00  0.17623745719E+03  0.17630011718E+03  0.47000000000E+01 0.  1.
          5   -1    0    0  501    0  0.00000000000E+00 -0.00000000000E+00 -0.13756112753E+04  0.13756193045E+04  0.47000000000E+01 0. -1.
          6    1    1    2  502    0  0.24951234122E+02 -0.32653030596E+02 -0.13238840248E+04  0.13356428024E+04  0.17200000000E+03 0. -1.
         -6    1    1    2    0  502 -0.24951234122E+02  0.32653030596E+02  0.12451020662E+03  0.21627661927E+03  0.17200000000E+03 0.  1.
</event>
<event>
 4    1 -0.6479440E-004  0.1994751E+03  0.7818608E-02  0.1150183E+00
          5   -1    0    0  501    0  0.00000000000E+00  0.00000000000E+00  0.84418316211E+02  0.84549051514E+02  0.47000000000E+01 0. -1.
         -5   -1    0    0    0  501 -0.00000000000E+00 -0.00000000000E+00 -0.13199002785E+04  0.13199086465E+04  0.47000000000E+01 0.  1.
          6    1    1    2  502    0 -0.57671621265E+02 -0.82947503014E+02 -0.54553058167E+02  0.20680024253E+03  0.17200000000E+03 0. -1.
         -6    1    1    2    0  502  0.57671621265E+02  0.82947503014E+02 -0.11809289041E+04  0.11976574555E+04  0.17200000000E+03 0.  1.
</event>
<event>
 4    1 -0.6479440E-004  0.1772032E+03  0.7818608E-02  0.1170538E+00
          5   -1    0    0  501    0  0.00000000000E+00  0.00000000000E+00  0.96043965176E+02  0.96158895828E+02  0.47000000000E+01 0. -1.
         -5   -1    0    0    0  501 -0.00000000000E+00 -0.00000000000E+00 -0.14193231276E+04  0.14193309095E+04  0.47000000000E+01 0.  1.
          6    1    1    2  502    0  0.16461403564E+02  0.39319006308E+02  0.31947691293E+01  0.17723196273E+03  0.17200000000E+03 0. -1.
         -6    1    1    2    0  502 -0.16461403564E+02 -0.39319006308E+02 -0.13264739316E+04  0.13382578426E+04  0.17200000000E+03 0.  1.
</event>
<event>
 4    1 -0.6479440E-004  0.1977116E+03  0.7818608E-02  0.1151684E+00
         -5   -1    0    0    0  501 -0.00000000000E+00  0.00000000000E+00  0.29335908013E+03  0.29339672782E+03  0.47000000000E+01 0.  1.
          5   -1    0    0  501    0  0.00000000000E+00 -0.00000000000E+00 -0.13365444477E+03  0.13373705772E+03  0.47000000000E+01 0. -1.
          6    1    1    2  502    0 -0.22177482760E+02 -0.94942239541E+02  0.92815676081E+02  0.21841387162E+03  0.17200000000E+03 0.  1.
         -6    1    1    2    0  502  0.22177482760E+02  0.94942239541E+02  0.66888959281E+02  0.20871991391E+03  0.17200000000E+03 0.  1.
</event>
<event>
 4    1 -0.6479440E-004  0.1740673E+03  0.7818608E-02  0.1173671E+00
         -5   -1    0    0    0  501 -0.00000000000E+00  0.00000000000E+00  0.17990016728E+03  0.17996155197E+03  0.47000000000E+01 0.  1.
          5   -1    0    0  501    0  0.00000000000E+00 -0.00000000000E+00 -0.17967953435E+03  0.17974099439E+03  0.47000000000E+01 0. -1.
          6    1    1    2  502    0 -0.23860771518E+02  0.12086570372E+02 -0.45133992175E+02  0.17982352140E+03  0.17200000000E+03 0. -1.
         -6    1    1    2    0  502  0.23860771518E+02 -0.12086570372E+02  0.45354625108E+02  0.17987902496E+03  0.17200000000E+03 0.  1.
</event>
<event>
 4    1 -0.6479440E-004  0.1815188E+03  0.7818608E-02  0.1166341E+00
         -5   -1    0    0    0  501 -0.00000000000E+00  0.00000000000E+00  0.60249903999E+02  0.60432945749E+02  0.47000000000E+01 0.  1.
          5   -1    0    0  501    0  0.00000000000E+00 -0.00000000000E+00 -0.81737806424E+03  0.81739157685E+03  0.47000000000E+01 0. -1.
          6    1    1    2  502    0  0.87994851049E+01 -0.57337906071E+02 -0.63150547066E+03  0.65707551004E+03  0.17200000000E+03 0. -1.
         -6    1    1    2    0  502 -0.87994851049E+01  0.57337906071E+02 -0.12562268958E+03  0.22074901257E+03  0.17200000000E+03 0.  1.
</event>
<event>
 4    1 -0.6479440E-004  0.1755240E+03  0.7818608E-02  0.1172207E+00
         -5   -1    0    0    0  501 -0.00000000000E+00  0.00000000000E+00  0.30076062514E+02  0.30441083035E+02  0.47000000000E+01 0.  1.
          5   -1    0    0  501    0  0.00000000000E+00 -0.00000000000E+00 -0.14436906420E+04  0.14436982925E+04  0.47000000000E+01 0. -1.
          6    1    1    2  502    0  0.24017820840E+02 -0.25451991751E+02 -0.11070833487E+04  0.11209113259E+04  0.17200000000E+03 0. -1.
         -6    1    1    2    0  502 -0.24017820840E+02  0.25451991751E+02 -0.30653123085E+03  0.35322804969E+03  0.17200000000E+03 0.  1.
</event>
<event>
 4    1 -0.6479440E-004  0.2353745E+03  0.7818608E-02  0.1122913E+00
         -5   -1    0    0    0  501 -0.00000000000E+00  0.00000000000E+00  0.94291062838E+02  0.94408127464E+02  0.47000000000E+01 0.  1.
          5   -1    0    0  501    0  0.00000000000E+00 -0.00000000000E+00 -0.59263586262E+03  0.59265449940E+03  0.47000000000E+01 0. -1.
          6    1    1    2  502    0 -0.14814181431E+03  0.62218455180E+02 -0.28248002505E+03  0.36769021997E+03  0.17200000000E+03 0.  1.
         -6    1    1    2    0  502  0.14814181431E+03 -0.62218455180E+02 -0.21586477473E+03  0.31937240689E+03  0.17200000000E+03 0. -1.
</event>
<event>
 4    1 -0.6479440E-004  0.2002785E+03  0.7818608E-02  0.1149504E+00
          5   -1    0    0  501    0  0.00000000000E+00  0.00000000000E+00  0.12550833488E+03  0.12559630617E+03  0.47000000000E+01 0. -1.
         -5   -1    0    0    0  501 -0.00000000000E+00 -0.00000000000E+00 -0.41300020357E+03  0.41302694603E+03  0.47000000000E+01 0.  1.
          6    1    1    2  502    0 -0.81805551091E+02  0.61930069105E+02 -0.15538231384E+02  0.20088035813E+03  0.17200000000E+03 0. -1.
         -6    1    1    2    0  502  0.81805551091E+02 -0.61930069105E+02 -0.27195363731E+03  0.33774289407E+03  0.17200000000E+03 0.  1.
</event>
<event>
 4    1 -0.6479440E-004  0.2268913E+03  0.7818608E-02  0.1128847E+00
          5   -1    0    0  501    0  0.00000000000E+00  0.00000000000E+00  0.77544795203E+03  0.77546219528E+03  0.47000000000E+01 0. -1.
         -5   -1    0    0    0  501 -0.00000000000E+00 -0.00000000000E+00 -0.13915897144E+03  0.13923831848E+03  0.47000000000E+01 0.  1.
          6    1    1    2  502    0 -0.11695617465E+03 -0.90647261939E+02  0.64893564013E+03  0.68745700805E+03  0.17200000000E+03 0. -1.
         -6    1    1    2    0  502  0.11695617465E+03  0.90647261939E+02 -0.12646659544E+02  0.22724350570E+03  0.17200000000E+03 0.  1.
</event>
<event>
 4    1 -0.6479440E-004  0.1720210E+03  0.7818608E-02  0.1175757E+00
         -5   -1    0    0    0  501 -0.00000000000E+00  0.00000000000E+00  0.65262752764E+02  0.65431772850E+02  0.47000000000E+01 0.  1.
          5   -1    0    0  501    0  0.00000000000E+00 -0.00000000000E+00 -0.12974993409E+04  0.12975078534E+04  0.47000000000E+01 0. -1.
          6    1    1    2  502    0  0.25128040323E+01  0.94771943232E+00 -0.11659780248E+04  0.11785991543E+04  0.17200000000E+03 0. -1.
         -6    1    1    2    0  502 -0.25128040323E+01 -0.94771943232E+00 -0.66258563323E+02  0.18434047187E+03  0.17200000000E+03 0.  1.
</event>
<event>
 4    1 -0.6479440E-004  0.1789572E+03  0.7818608E-02  0.1168816E+00
         -5   -1    0    0    0  501 -0.00000000000E+00  0.00000000000E+00  0.10641278430E+04  0.10641382224E+04  0.47000000000E+01 0.  1.
          5   -1    0    0  501    0  0.00000000000E+00 -0.00000000000E+00 -0.49897917194E+02  0.50118780316E+02  0.47000000000E+01 0. -1.
          6    1    1    2  502    0 -0.15925091314E+02 -0.46776751336E+02  0.15549920949E+03  0.23707736533E+03  0.17200000000E+03 0. -1.
         -6    1    1    2    0  502  0.15925091314E+02  0.46776751336E+02  0.85873071634E+03  0.87717963735E+03  0.17200000000E+03 0.  1.
</event>
<event>
 4    1 -0.6479440E-004  0.1859494E+03  0.7818608E-02  0.1162166E+00
          5   -1    0    0  501    0  0.00000000000E+00  0.00000000000E+00  0.57311736615E+03  0.57313663762E+03  0.47000000000E+01 0. -1.
         -5   -1    0    0    0  501 -0.00000000000E+00 -0.00000000000E+00 -0.85881114492E+03  0.85882400563E+03  0.47000000000E+01 0.  1.
          6    1    1    2  502    0 -0.68960399771E+02  0.15415138616E+02  0.54752782852E+03  0.57824206544E+03  0.17200000000E+03 0. -1.
         -6    1    1    2    0  502  0.68960399771E+02 -0.15415138616E+02 -0.83322160730E+03  0.85371857781E+03  0.17200000000E+03 0.  1.
</event>
<event>
 4    1 -0.6479440E-004  0.2086565E+03  0.7818608E-02  0.1142634E+00
         -5   -1    0    0    0  501 -0.00000000000E+00  0.00000000000E+00  0.44587815108E+03  0.44590292173E+03  0.47000000000E+01 0.  1.
          5   -1    0    0  501    0  0.00000000000E+00 -0.00000000000E+00 -0.43401241332E+03  0.43403786115E+03  0.47000000000E+01 0. -1.
          6    1    1    2  502    0 -0.27581549891E+02  0.11485991396E+03 -0.38140223854E+03  0.43474729360E+03  0.17200000000E+03 0. -1.
         -6    1    1    2    0  502  0.27581549891E+02 -0.11485991396E+03  0.39326797629E+03  0.44519348929E+03  0.17200000000E+03 0.  1.
</event>
<event>
 4    1 -0.6479440E-004  0.1883935E+03  0.7818608E-02  0.1159918E+00
          5   -1    0    0  501    0  0.00000000000E+00  0.00000000000E+00  0.21342713514E+03  0.21347887955E+03  0.47000000000E+01 0. -1.
         -5   -1    0    0    0  501 -0.00000000000E+00 -0.00000000000E+00 -0.23959339034E+03  0.23963948484E+03  0.47000000000E+01 0.  1.
          6    1    1    2  502    0  0.76823455152E+02  0.25061087001E+01  0.11228906538E+03  0.21931930614E+03  0.17200000000E+03 0. -1.
         -6    1    1    2    0  502 -0.76823455152E+02 -0.25061087001E+01 -0.13845532058E+03  0.23379905825E+03  0.17200000000E+03 0.  1.
</event>
