<event>
 4    1  0.8130725E-001  0.2080674E+03  0.7546771E-02  0.1143106E+00
         -2   -1    0    0    0  501 -0.00000000000E+00  0.00000000000E+00  0.83527639746E+02  0.83527639746E+02  0.00000000000E+00 0. -1.
          2   -1    0    0  502    0  0.00000000000E+00 -0.00000000000E+00 -0.52391569151E+03  0.52391569151E+03  0.00000000000E+00 0.  1.
          6    1    1    2  502    0 -0.10156418699E+03 -0.55206505018E+02 -0.18873820804E+03  0.28091663078E+03  0.17300000000E+03 0.  1.
         -6    1    1    2    0  501  0.10156418699E+03  0.55206505018E+02 -0.25164984373E+03  0.32652670048E+03  0.17300000000E+03 0. -1.
<mgrwt>
<rscale>  2 0.20806740E+03</rscale>
<asrwt>0</asrwt>
<pdfrwt beam="2">  1        2 0.80602416E-01 0.20806740E+03</pdfrwt>
<pdfrwt beam="1">  1       -2 0.12850406E-01 0.20806740E+03</pdfrwt>
<totfact> 0.25846179E+03</totfact>
</mgrwt>
</event>
<event>
 4    1  0.8130725E-001  0.1768850E+03  0.7546771E-02  0.1170852E+00
         -3   -1    0    0    0  501 -0.00000000000E+00  0.00000000000E+00  0.50336504977E+02  0.50336504977E+02  0.00000000000E+00 0.  1.
          3   -1    0    0  502    0  0.00000000000E+00 -0.00000000000E+00 -0.77035387592E+03  0.77035387592E+03  0.00000000000E+00 0. -1.
          6    1    1    2  502    0 -0.12880625306E+02 -0.34545416848E+02 -0.17968044911E+03  0.25213758174E+03  0.17300000000E+03 0.  1.
         -6    1    1    2    0  501  0.12880625306E+02  0.34545416848E+02 -0.54033692184E+03  0.56855279916E+03  0.17300000000E+03 0. -1.
<mgrwt>
<rscale>  2 0.17688498E+03</rscale>
<asrwt>0</asrwt>
<pdfrwt beam="2">  1        3 0.11851598E+00 0.17688498E+03</pdfrwt>
<pdfrwt beam="1">  1       -3 0.77440777E-02 0.17688498E+03</pdfrwt>
<totfact> 0.16576618E+02</totfact>
</mgrwt>
</event>
<event>
 4    1  0.8130725E-001  0.2743728E+03  0.7546771E-02  0.1098803E+00
          1   -1    0    0  502    0  0.00000000000E+00  0.00000000000E+00  0.12818917703E+04  0.12818917703E+04  0.00000000000E+00 0. -1.
         -1   -1    0    0    0  501 -0.00000000000E+00 -0.00000000000E+00 -0.67907774400E+02  0.67907774400E+02  0.00000000000E+00 0.  1.
          6    1    1    2  502    0  0.17591223997E+03 -0.12002623470E+03  0.35882606820E+03  0.45170406287E+03  0.17300000000E+03 0.  1.
         -6    1    1    2    0  501 -0.17591223997E+03  0.12002623470E+03  0.85515792775E+03  0.89809548188E+03  0.17300000000E+03 0. -1.
<mgrwt>
<rscale>  2 0.27437276E+03</rscale>
<asrwt>0</asrwt>
<pdfrwt beam="1">  1        1 0.19721410E+00 0.27437276E+03</pdfrwt>
<pdfrwt beam="2">  1       -1 0.10447351E-01 0.27437276E+03</pdfrwt>
<totfact> 0.57319134E+02</totfact>
</mgrwt>
</event>
<event>
 4    1  0.8130725E-001  0.2995630E+03  0.7546771E-02  0.1085459E+00
         -2   -1    0    0    0  501 -0.00000000000E+00  0.00000000000E+00  0.85504935605E+03  0.85504935605E+03  0.00000000000E+00 0.  1.
          2   -1    0    0  502    0  0.00000000000E+00 -0.00000000000E+00 -0.13555591012E+03  0.13555591012E+03  0.00000000000E+00 0. -1.
          6    1    1    2  502    0 -0.14423489422E+03  0.19749750348E+03  0.59509422202E+03  0.66623952275E+03  0.17300000000E+03 0.  1.
         -6    1    1    2    0  501  0.14423489422E+03 -0.19749750348E+03  0.12439922391E+03  0.32436574341E+03  0.17300000000E+03 0. -1.
<mgrwt>
<rscale>  2 0.29956296E+03</rscale>
<asrwt>0</asrwt>
<pdfrwt beam="2">  1        2 0.20854756E-01 0.29956296E+03</pdfrwt>
<pdfrwt beam="1">  1       -2 0.13154605E+00 0.29956296E+03</pdfrwt>
<totfact> 0.11746334E+02</totfact>
</mgrwt>
</event>
<event>
 4    1  0.8130725E-001  0.6575531E+03  0.7546771E-02  0.9792709E-01
         -2   -1    0    0    0  501 -0.00000000000E+00  0.00000000000E+00  0.31104167464E+03  0.31104167464E+03  0.00000000000E+00 0. -1.
          2   -1    0    0  502    0  0.00000000000E+00 -0.00000000000E+00 -0.14178878778E+04  0.14178878778E+04  0.00000000000E+00 0.  1.
          6    1    1    2  502    0  0.30230906003E+03  0.55772427790E+03 -0.43238370708E+03  0.78697637073E+03  0.17300000000E+03 0. -1.
         -6    1    1    2    0  501 -0.30230906003E+03 -0.55772427790E+03 -0.67446249612E+03  0.94195318175E+03  0.17300000000E+03 0.  1.
<mgrwt>
<rscale>  2 0.65755314E+03</rscale>
<asrwt>0</asrwt>
<pdfrwt beam="2">  1        2 0.21813660E+00 0.65755314E+03</pdfrwt>
<pdfrwt beam="1">  1       -2 0.47852566E-01 0.65755314E+03</pdfrwt>
<totfact> 0.60225696E+01</totfact>
</mgrwt>
</event>
<event>
 4    1  0.8130725E-001  0.3379202E+03  0.7546771E-02  0.1067685E+00
          2   -1    0    0  502    0  0.00000000000E+00  0.00000000000E+00  0.16185896159E+04  0.16185896159E+04  0.00000000000E+00 0.  1.
         -2   -1    0    0    0  501 -0.00000000000E+00 -0.00000000000E+00 -0.81254329948E+02  0.81254329948E+02  0.00000000000E+00 0. -1.
          6    1    1    2  502    0 -0.28898475597E+03  0.27365668732E+02  0.10771664192E+04  0.11289276167E+04  0.17300000000E+03 0. -1.
         -6    1    1    2    0  501  0.28898475597E+03 -0.27365668732E+02  0.46016886677E+03  0.57091632921E+03  0.17300000000E+03 0.  1.
<mgrwt>
<rscale>  2 0.33792021E+03</rscale>
<asrwt>0</asrwt>
<pdfrwt beam="1">  1        2 0.24901376E+00 0.33792021E+03</pdfrwt>
<pdfrwt beam="2">  1       -2 0.12500667E-01 0.33792021E+03</pdfrwt>
<totfact> 0.54276027E+02</totfact>
</mgrwt>
</event>
<event>
 4    1  0.8130725E-001  0.1785319E+03  0.7546771E-02  0.1169232E+00
         -4   -1    0    0    0  501 -0.00000000000E+00  0.00000000000E+00  0.16938788022E+04  0.16938788022E+04  0.00000000000E+00 0.  1.
          4   -1    0    0  502    0  0.00000000000E+00 -0.00000000000E+00 -0.19736759397E+02  0.19736759397E+02  0.00000000000E+00 0. -1.
          6    1    1    2  502    0  0.42041932504E+01 -0.43897080941E+02  0.10220383077E+04  0.10375143042E+04  0.17300000000E+03 0.  1.
         -6    1    1    2    0  501 -0.42041932504E+01  0.43897080941E+02  0.65210373508E+03  0.67610125740E+03  0.17300000000E+03 0.  1.
<mgrwt>
<rscale>  2 0.17853187E+03</rscale>
<asrwt>0</asrwt>
<pdfrwt beam="2">  1        4 0.30364259E-02 0.17853187E+03</pdfrwt>
<pdfrwt beam="1">  1       -4 0.26059662E+00 0.17853187E+03</pdfrwt>
<totfact> 0.58625897E+01</totfact>
</mgrwt>
</event>
<event>
 4    1  0.8130725E-001  0.2112312E+03  0.7546771E-02  0.1140595E+00
         -1   -1    0    0    0  501 -0.00000000000E+00  0.00000000000E+00  0.65879687383E+02  0.65879687383E+02  0.00000000000E+00 0. -1.
          1   -1    0    0  502    0  0.00000000000E+00 -0.00000000000E+00 -0.68778826182E+03  0.68778826182E+03  0.00000000000E+00 0.  1.
          6    1    1    2  502    0  0.95119453310E+02 -0.75112606336E+02 -0.26436270312E+03  0.33838772559E+03  0.17300000000E+03 0. -1.
         -6    1    1    2    0  501 -0.95119453310E+02  0.75112606336E+02 -0.35754587131E+03  0.41528022361E+03  0.17300000000E+03 0.  1.
<mgrwt>
<rscale>  2 0.21123119E+03</rscale>
<asrwt>0</asrwt>
<pdfrwt beam="2">  1        1 0.10581358E+00 0.21123119E+03</pdfrwt>
<pdfrwt beam="1">  1       -1 0.10135337E-01 0.21123119E+03</pdfrwt>
<totfact> 0.17205751E+03</totfact>
</mgrwt>
</event>
<event>
 4    1  0.8130725E-001  0.2485792E+03  0.7546771E-02  0.1114206E+00
         -2   -1    0    0    0  501 -0.00000000000E+00  0.00000000000E+00  0.19765841446E+03  0.19765841446E+03  0.00000000000E+00 0.  1.
          2   -1    0    0  502    0  0.00000000000E+00 -0.00000000000E+00 -0.49438791013E+03  0.49438791013E+03  0.00000000000E+00 0. -1.
          6    1    1    2  502    0 -0.80602753562E+02  0.15926644667E+03  0.61448102968E+02  0.25606146582E+03  0.17300000000E+03 0.  1.
         -6    1    1    2    0  501  0.80602753562E+02 -0.15926644667E+03 -0.35817759864E+03  0.43598485878E+03  0.17300000000E+03 0. -1.
<mgrwt>
<rscale>  2 0.24857917E+03</rscale>
<asrwt>0</asrwt>
<pdfrwt beam="2">  1        2 0.76059677E-01 0.24857917E+03</pdfrwt>
<pdfrwt beam="1">  1       -2 0.30408987E-01 0.24857917E+03</pdfrwt>
<totfact> 0.63175172E+02</totfact>
</mgrwt>
</event>
<event>
 4    1  0.8130725E-001  0.3975038E+03  0.7546771E-02  0.1044647E+00
          2   -1    0    0  502    0  0.00000000000E+00  0.00000000000E+00  0.65347773931E+03  0.65347773931E+03  0.00000000000E+00 0.  1.
         -2   -1    0    0    0  501 -0.00000000000E+00 -0.00000000000E+00 -0.24570192057E+03  0.24570192057E+03  0.00000000000E+00 0. -1.
          6    1    1    2  502    0  0.35584884985E+03 -0.38103020773E+02  0.26056321415E+03  0.47529194470E+03  0.17300000000E+03 0. -1.
         -6    1    1    2    0  501 -0.35584884985E+03  0.38103020773E+02  0.14721260459E+03  0.42388771518E+03  0.17300000000E+03 0. -1.
<mgrwt>
<rscale>  2 0.39750377E+03</rscale>
<asrwt>0</asrwt>
<pdfrwt beam="1">  1        2 0.10053504E+00 0.39750377E+03</pdfrwt>
<pdfrwt beam="2">  1       -2 0.37800296E-01 0.39750377E+03</pdfrwt>
<totfact> 0.30234199E+02</totfact>
</mgrwt>
</event>
<event>
 4    1  0.8130725E-001  0.2507131E+03  0.7546771E-02  0.1112855E+00
          2   -1    0    0  502    0  0.00000000000E+00  0.00000000000E+00  0.11339300957E+03  0.11339300957E+03  0.00000000000E+00 0. -1.
         -2   -1    0    0    0  501 -0.00000000000E+00 -0.00000000000E+00 -0.62381515440E+03  0.62381515440E+03  0.00000000000E+00 0.  1.
          6    1    1    2  502    0 -0.61581717256E+02 -0.17069197779E+03 -0.13218968705E+03  0.28342754373E+03  0.17300000000E+03 0. -1.
         -6    1    1    2    0  501  0.61581717256E+02  0.17069197779E+03 -0.37823245779E+03  0.45378062024E+03  0.17300000000E+03 0.  1.
<mgrwt>
<rscale>  2 0.25071310E+03</rscale>
<asrwt>0</asrwt>
<pdfrwt beam="1">  1        2 0.17445078E-01 0.25071310E+03</pdfrwt>
<pdfrwt beam="2">  1       -2 0.95971565E-01 0.25071310E+03</pdfrwt>
<totfact> 0.30811881E+02</totfact>
</mgrwt>
</event>
<event>
 4    1  0.8130725E-001  0.3082573E+03  0.7546771E-02  0.1081184E+00
         -1   -1    0    0    0  501 -0.00000000000E+00  0.00000000000E+00  0.15959334414E+03  0.15959334414E+03  0.00000000000E+00 0. -1.
          1   -1    0    0  502    0  0.00000000000E+00 -0.00000000000E+00 -0.13564572419E+04  0.13564572419E+04  0.00000000000E+00 0.  1.
          6    1    1    2  502    0 -0.74528867097E+02 -0.24400611007E+03 -0.30641438069E+02  0.30977642181E+03  0.17300000000E+03 0. -1.
         -6    1    1    2    0  501  0.74528867097E+02  0.24400611007E+03 -0.11662224597E+04  0.12062741642E+04  0.17300000000E+03 0.  1.
<mgrwt>
<rscale>  2 0.30825725E+03</rscale>
<asrwt>0</asrwt>
<pdfrwt beam="2">  1        1 0.20868574E+00 0.30825725E+03</pdfrwt>
<pdfrwt beam="1">  1       -1 0.24552821E-01 0.30825725E+03</pdfrwt>
<totfact> 0.12842174E+02</totfact>
</mgrwt>
</event>
<event>
 4    1  0.8130725E-001  0.2200551E+03  0.7546771E-02  0.1133842E+00
          2   -1    0    0  502    0  0.00000000000E+00  0.00000000000E+00  0.19682223179E+04  0.19682223179E+04  0.00000000000E+00 0.  1.
         -2   -1    0    0    0  501 -0.00000000000E+00 -0.00000000000E+00 -0.28212337872E+02  0.28212337872E+02  0.00000000000E+00 0. -1.
          6    1    1    2  502    0 -0.11282205922E+03  0.75936904175E+02  0.61296439291E+03  0.65126766958E+03  0.17300000000E+03 0. -1.
         -6    1    1    2    0  501  0.11282205922E+03 -0.75936904175E+02  0.13270455871E+04  0.13451669862E+04  0.17300000000E+03 0.  1.
<mgrwt>
<rscale>  2 0.22005506E+03</rscale>
<asrwt>0</asrwt>
<pdfrwt beam="1">  1        2 0.30280333E+00 0.22005506E+03</pdfrwt>
<pdfrwt beam="2">  1       -2 0.43403612E-02 0.22005506E+03</pdfrwt>
<totfact> 0.18811892E+03</totfact>
</mgrwt>
</event>
<event>
 4    1  0.8130725E-001  0.2837360E+03  0.7546771E-02  0.1093666E+00
         -2   -1    0    0    0  501 -0.00000000000E+00  0.00000000000E+00  0.20837172787E+03  0.20837172787E+03  0.00000000000E+00 0.  1.
          2   -1    0    0  502    0  0.00000000000E+00 -0.00000000000E+00 -0.46318796680E+03  0.46318796680E+03  0.00000000000E+00 0. -1.
          6    1    1    2  502    0  0.14705891472E+03 -0.17014927927E+03 -0.26416244665E+03  0.38766983357E+03  0.17300000000E+03 0. -1.
         -6    1    1    2    0  501 -0.14705891472E+03  0.17014927927E+03  0.93462077247E+01  0.28388986110E+03  0.17300000000E+03 0.  1.
<mgrwt>
<rscale>  2 0.28373597E+03</rscale>
<asrwt>0</asrwt>
<pdfrwt beam="2">  1        2 0.71259687E-01 0.28373597E+03</pdfrwt>
<pdfrwt beam="1">  1       -2 0.32057189E-01 0.28373597E+03</pdfrwt>
<totfact> 0.61647004E+02</totfact>
</mgrwt>
</event>
<event>
 4    1  0.8130725E-001  0.1806432E+03  0.7546771E-02  0.1167182E+00
         -2   -1    0    0    0  501 -0.00000000000E+00  0.00000000000E+00  0.70205431483E+02  0.70205431483E+02  0.00000000000E+00 0. -1.
          2   -1    0    0  502    0  0.00000000000E+00 -0.00000000000E+00 -0.71476034585E+03  0.71476034585E+03  0.00000000000E+00 0.  1.
          6    1    1    2  502    0 -0.51943453507E+02  0.22037876197E+01 -0.55437467880E+03  0.58306368737E+03  0.17300000000E+03 0.  1.
         -6    1    1    2    0  501  0.51943453507E+02 -0.22037876197E+01 -0.90180235569E+02  0.20190208996E+03  0.17300000000E+03 0. -1.
<mgrwt>
<rscale>  2 0.18064324E+03</rscale>
<asrwt>0</asrwt>
<pdfrwt beam="2">  1        2 0.10996314E+00 0.18064324E+03</pdfrwt>
<pdfrwt beam="1">  1       -2 0.10800835E-01 0.18064324E+03</pdfrwt>
<totfact> 0.23737390E+03</totfact>
</mgrwt>
</event>
<event>
 4    1  0.8130725E-001  0.2087401E+03  0.7546771E-02  0.1142568E+00
         -1   -1    0    0    0  501 -0.00000000000E+00  0.00000000000E+00  0.18816163444E+03  0.18816163444E+03  0.00000000000E+00 0.  1.
          1   -1    0    0  502    0  0.00000000000E+00 -0.00000000000E+00 -0.76644405489E+03  0.76644405489E+03  0.00000000000E+00 0. -1.
          6    1    1    2  502    0 -0.11236522230E+03 -0.31897838167E+02  0.10958972851E+03  0.23575903770E+03  0.17300000000E+03 0.  1.
         -6    1    1    2    0  501  0.11236522230E+03  0.31897838167E+02 -0.68787214896E+03  0.71884665164E+03  0.17300000000E+03 0. -1.
<mgrwt>
<rscale>  2 0.20874007E+03</rscale>
<asrwt>0</asrwt>
<pdfrwt beam="2">  1        1 0.11791447E+00 0.20874007E+03</pdfrwt>
<pdfrwt beam="1">  1       -1 0.28947944E-01 0.20874007E+03</pdfrwt>
<totfact> 0.27198216E+02</totfact>
</mgrwt>
</event>
<event>
 4    1  0.8130725E-001  0.1799562E+03  0.7546771E-02  0.1167845E+00
          1   -1    0    0  502    0  0.00000000000E+00  0.00000000000E+00  0.22121461929E+04  0.22121461929E+04  0.00000000000E+00 0. -1.
         -1   -1    0    0    0  501 -0.00000000000E+00 -0.00000000000E+00 -0.14686833153E+02  0.14686833153E+02  0.00000000000E+00 0.  1.
          6    1    1    2  502    0  0.42508980535E+02  0.25460003196E+02  0.10353736369E+04  0.10508961857E+04  0.17300000000E+03 0. -1.
         -6    1    1    2    0  501 -0.42508980535E+02 -0.25460003196E+02  0.11620857228E+04  0.11759368403E+04  0.17300000000E+03 0. -1.
<mgrwt>
<rscale>  2 0.17995618E+03</rscale>
<asrwt>0</asrwt>
<pdfrwt beam="1">  1        1 0.34032992E+00 0.17995618E+03</pdfrwt>
<pdfrwt beam="2">  1       -1 0.22595145E-02 0.17995618E+03</pdfrwt>
<totfact> 0.14158489E+03</totfact>
</mgrwt>
</event>
<event>
 4    1  0.8130725E-001  0.2131234E+03  0.7546771E-02  0.1139116E+00
          1   -1    0    0  502    0  0.00000000000E+00  0.00000000000E+00  0.24444825483E+04  0.24444825483E+04  0.00000000000E+00 0.  1.
         -1   -1    0    0    0  501 -0.00000000000E+00 -0.00000000000E+00 -0.20900971325E+02  0.20900971325E+02  0.00000000000E+00 0. -1.
          6    1    1    2  502    0  0.12407590013E+03  0.98880475884E+01  0.16224549698E+04  0.16363929026E+04  0.17300000000E+03 0.  1.
         -6    1    1    2    0  501 -0.12407590013E+03 -0.98880475884E+01  0.80112660716E+03  0.82899061706E+03  0.17300000000E+03 0. -1.
<mgrwt>
<rscale>  2 0.21312344E+03</rscale>
<asrwt>0</asrwt>
<pdfrwt beam="1">  1        1 0.37607401E+00 0.21312344E+03</pdfrwt>
<pdfrwt beam="2">  1       -1 0.32155360E-02 0.21312344E+03</pdfrwt>
<totfact> 0.59292007E+02</totfact>
</mgrwt>
</event>
<event>
 4    1  0.8130725E-001  0.2154995E+03  0.7546771E-02  0.1137283E+00
         -2   -1    0    0    0  501 -0.00000000000E+00  0.00000000000E+00  0.18337000266E+03  0.18337000266E+03  0.00000000000E+00 0. -1.
          2   -1    0    0  502    0  0.00000000000E+00 -0.00000000000E+00 -0.37294439746E+03  0.37294439746E+03  0.00000000000E+00 0.  1.
          6    1    1    2  502    0 -0.23293696444E+02  0.12636633464E+03 -0.25236295593E+03  0.33185404676E+03  0.17300000000E+03 0.  1.
         -6    1    1    2    0  501  0.23293696444E+02 -0.12636633464E+03  0.62788561127E+02  0.22446035336E+03  0.17300000000E+03 0. -1.
<mgrwt>
<rscale>  2 0.21549953E+03</rscale>
<asrwt>0</asrwt>
<pdfrwt beam="2">  1        2 0.57376060E-01 0.21549953E+03</pdfrwt>
<pdfrwt beam="1">  1       -2 0.28210770E-01 0.21549953E+03</pdfrwt>
<totfact> 0.98549498E+02</totfact>
</mgrwt>
</event>
<event>
 4    1  0.8130725E-001  0.3004966E+03  0.7546771E-02  0.1084993E+00
          2   -1    0    0  502    0  0.00000000000E+00  0.00000000000E+00  0.75952512213E+03  0.75952512213E+03  0.00000000000E+00 0. -1.
         -2   -1    0    0    0  501 -0.00000000000E+00 -0.00000000000E+00 -0.22033691951E+03  0.22033691951E+03  0.00000000000E+00 0.  1.
          6    1    1    2  502    0  0.19771518915E+03 -0.14586940952E+03  0.60203595623E+03  0.67286363645E+03  0.17300000000E+03 0. -1.
         -6    1    1    2    0  501 -0.19771518915E+03  0.14586940952E+03 -0.62847753619E+02  0.30699840519E+03  0.17300000000E+03 0.  1.
<mgrwt>
<rscale>  2 0.30049656E+03</rscale>
<asrwt>0</asrwt>
<pdfrwt beam="1">  1        2 0.11685002E+00 0.30049656E+03</pdfrwt>
<pdfrwt beam="2">  1       -2 0.33897988E-01 0.30049656E+03</pdfrwt>
<totfact> 0.31073582E+02</totfact>
</mgrwt>
</event>
<event>
 4    1  0.8130725E-001  0.3197507E+03  0.7546771E-02  0.1075764E+00
          3   -1    0    0  502    0  0.00000000000E+00  0.00000000000E+00  0.22834034296E+03  0.22834034296E+03  0.00000000000E+00 0.  1.
         -3   -1    0    0    0  501 -0.00000000000E+00 -0.00000000000E+00 -0.49810457133E+03  0.49810457133E+03  0.00000000000E+00 0. -1.
          6    1    1    2  502    0  0.23697002946E+03 -0.12710914541E+03 -0.25036305874E+03  0.40610613254E+03  0.17300000000E+03 0. -1.
         -6    1    1    2    0  501 -0.23697002946E+03  0.12710914541E+03 -0.19401169631E+02  0.32033878175E+03  0.17300000000E+03 0.  1.
<mgrwt>
<rscale>  2 0.31975073E+03</rscale>
<asrwt>0</asrwt>
<pdfrwt beam="1">  1        3 0.35129284E-01 0.31975073E+03</pdfrwt>
<pdfrwt beam="2">  1       -3 0.76631471E-01 0.31975073E+03</pdfrwt>
<totfact> 0.32769942E+01</totfact>
</mgrwt>
</event>
<event>
 4    1  0.8130725E-001  0.2307143E+03  0.7546771E-02  0.1126138E+00
          1   -1    0    0  502    0  0.00000000000E+00  0.00000000000E+00  0.20859132492E+03  0.20859132492E+03  0.00000000000E+00 0.  1.
         -1   -1    0    0    0  501 -0.00000000000E+00 -0.00000000000E+00 -0.28900001559E+03  0.28900001559E+03  0.00000000000E+00 0. -1.
          6    1    1    2  502    0  0.14804347468E+03  0.37191450454E+02  0.44901228601E+02  0.23504296354E+03  0.17300000000E+03 0.  1.
         -6    1    1    2    0  501 -0.14804347468E+03 -0.37191450454E+02 -0.12530991927E+03  0.26254837697E+03  0.17300000000E+03 0. -1.
<mgrwt>
<rscale>  2 0.23071427E+03</rscale>
<asrwt>0</asrwt>
<pdfrwt beam="1">  1        1 0.32090973E-01 0.23071427E+03</pdfrwt>
<pdfrwt beam="2">  1       -1 0.44461541E-01 0.23071427E+03</pdfrwt>
<totfact> 0.71047368E+02</totfact>
</mgrwt>
</event>
<event>
 4    1  0.8130725E-001  0.1959870E+03  0.7546771E-02  0.1153170E+00
         -3   -1    0    0    0  501 -0.00000000000E+00  0.00000000000E+00  0.40965872685E+03  0.40965872685E+03  0.00000000000E+00 0.  1.
          3   -1    0    0  502    0  0.00000000000E+00 -0.00000000000E+00 -0.12275562185E+03  0.12275562185E+03  0.00000000000E+00 0. -1.
          6    1    1    2  502    0 -0.25278658596E+01 -0.92062581341E+02  0.14079227301E+02  0.19649207015E+03  0.17300000000E+03 0. -1.
         -6    1    1    2    0  501  0.25278658596E+01  0.92062581341E+02  0.27282387769E+03  0.33592227855E+03  0.17300000000E+03 0.  1.
<mgrwt>
<rscale>  2 0.19598701E+03</rscale>
<asrwt>0</asrwt>
<pdfrwt beam="2">  1        3 0.18885481E-01 0.19598701E+03</pdfrwt>
<pdfrwt beam="1">  1       -3 0.63024419E-01 0.19598701E+03</pdfrwt>
<totfact> 0.15040168E+02</totfact>
</mgrwt>
</event>
<event>
 4    1  0.8130725E-001  0.1935198E+03  0.7546771E-02  0.1155325E+00
          2   -1    0    0  502    0  0.00000000000E+00  0.00000000000E+00  0.27877332265E+02  0.27877332265E+02  0.00000000000E+00 0.  1.
         -2   -1    0    0    0  501 -0.00000000000E+00 -0.00000000000E+00 -0.13453069403E+04  0.13453069403E+04  0.00000000000E+00 0. -1.
          6    1    1    2  502    0  0.23175318478E+02  0.83569138677E+02 -0.63274088877E+03  0.66167282598E+03  0.17300000000E+03 0. -1.
         -6    1    1    2    0  501 -0.23175318478E+02 -0.83569138677E+02 -0.68468871928E+03  0.71151144659E+03  0.17300000000E+03 0. -1.
<mgrwt>
<rscale>  2 0.19351976E+03</rscale>
<asrwt>0</asrwt>
<pdfrwt beam="1">  1        2 0.42888199E-02 0.19351976E+03</pdfrwt>
<pdfrwt beam="2">  1       -2 0.20697032E+00 0.19351976E+03</pdfrwt>
<totfact> 0.25055446E+02</totfact>
</mgrwt>
</event>
<event>
 4    1  0.8130725E-001  0.2281496E+03  0.7546771E-02  0.1127949E+00
          3   -1    0    0  502    0  0.00000000000E+00  0.00000000000E+00  0.40563854020E+03  0.40563854020E+03  0.00000000000E+00 0.  1.
         -3   -1    0    0    0  501 -0.00000000000E+00 -0.00000000000E+00 -0.16440653150E+03  0.16440653150E+03  0.00000000000E+00 0. -1.
          6    1    1    2  502    0  0.14845859228E+03 -0.91266984184E+01 -0.12914860876E+02  0.22851486577E+03  0.17300000000E+03 0. -1.
         -6    1    1    2    0  501 -0.14845859228E+03  0.91266984184E+01  0.25414686958E+03  0.34153020593E+03  0.17300000000E+03 0. -1.
<mgrwt>
<rscale>  2 0.22814962E+03</rscale>
<asrwt>0</asrwt>
<pdfrwt beam="1">  1        3 0.62405929E-01 0.22814962E+03</pdfrwt>
<pdfrwt beam="2">  1       -3 0.25293313E-01 0.22814962E+03</pdfrwt>
<totfact> 0.92194141E+01</totfact>
</mgrwt>
</event>
<event>
 4    1  0.8130725E-001  0.2162806E+03  0.7546771E-02  0.1136687E+00
         -2   -1    0    0    0  501 -0.00000000000E+00  0.00000000000E+00  0.16787581912E+03  0.16787581912E+03  0.00000000000E+00 0.  1.
          2   -1    0    0  502    0  0.00000000000E+00 -0.00000000000E+00 -0.34659372758E+03  0.34659372758E+03  0.00000000000E+00 0. -1.
          6    1    1    2  502    0 -0.96204206465E+02  0.87138015007E+02  0.24539813741E+02  0.21766829227E+03  0.17300000000E+03 0.  1.
         -6    1    1    2    0  501  0.96204206465E+02 -0.87138015007E+02 -0.20325772220E+03  0.29680125444E+03  0.17300000000E+03 0. -1.
<mgrwt>
<rscale>  2 0.21628057E+03</rscale>
<asrwt>0</asrwt>
<pdfrwt beam="2">  1        2 0.53322112E-01 0.21628057E+03</pdfrwt>
<pdfrwt beam="1">  1       -2 0.25827049E-01 0.21628057E+03</pdfrwt>
<totfact> 0.12487364E+03</totfact>
</mgrwt>
</event>
<event>
 4    1  0.8130725E-001  0.1817231E+03  0.7546771E-02  0.1166146E+00
         -2   -1    0    0    0  501 -0.00000000000E+00  0.00000000000E+00  0.51771775141E+02  0.51771775141E+02  0.00000000000E+00 0.  1.
          2   -1    0    0  502    0  0.00000000000E+00 -0.00000000000E+00 -0.64424501443E+03  0.64424501443E+03  0.00000000000E+00 0. -1.
          6    1    1    2  502    0 -0.34038517401E+02 -0.43996314827E+02 -0.33087402297E+03  0.37749293432E+03  0.17300000000E+03 0. -1.
         -6    1    1    2    0  501  0.34038517401E+02  0.43996314827E+02 -0.26159921633E+03  0.31852385526E+03  0.17300000000E+03 0.  1.
<mgrwt>
<rscale>  2 0.18172313E+03</rscale>
<asrwt>0</asrwt>
<pdfrwt beam="2">  1        2 0.99114621E-01 0.18172313E+03</pdfrwt>
<pdfrwt beam="1">  1       -2 0.79648882E-02 0.18172313E+03</pdfrwt>
<totfact> 0.43375301E+03</totfact>
</mgrwt>
</event>
<event>
 4    1  0.8130725E-001  0.1886452E+03  0.7546771E-02  0.1159689E+00
         -1   -1    0    0    0  501 -0.00000000000E+00  0.00000000000E+00  0.46251938790E+03  0.46251938790E+03  0.00000000000E+00 0.  1.
          1   -1    0    0  502    0  0.00000000000E+00 -0.00000000000E+00 -0.77270565209E+02  0.77270565209E+02  0.00000000000E+00 0. -1.
          6    1    1    2  502    0 -0.66450071909E+01  0.74925598009E+02  0.17501540960E+03  0.25732740809E+03  0.17300000000E+03 0.  1.
         -6    1    1    2    0  501  0.66450071909E+01 -0.74925598009E+02  0.21023341309E+03  0.28246254502E+03  0.17300000000E+03 0. -1.
<mgrwt>
<rscale>  2 0.18864517E+03</rscale>
<asrwt>0</asrwt>
<pdfrwt beam="2">  1        1 0.11887779E-01 0.18864517E+03</pdfrwt>
<pdfrwt beam="1">  1       -1 0.71156828E-01 0.18864517E+03</pdfrwt>
<totfact> 0.10466015E+03</totfact>
</mgrwt>
</event>
<event>
 4    1  0.8130725E-001  0.2545261E+03  0.7546771E-02  0.1110477E+00
         -4   -1    0    0    0  501 -0.00000000000E+00  0.00000000000E+00  0.14644425666E+04  0.14644425666E+04  0.00000000000E+00 0. -1.
          4   -1    0    0  502    0  0.00000000000E+00 -0.00000000000E+00 -0.44956565114E+02  0.44956565114E+02  0.00000000000E+00 0.  1.
          6    1    1    2  502    0  0.17318673818E+03  0.69720227346E+02  0.61430875545E+03  0.66495022626E+03  0.17300000000E+03 0.  1.
         -6    1    1    2    0  501 -0.17318673818E+03 -0.69720227346E+02  0.80517724605E+03  0.84444890547E+03  0.17300000000E+03 0. -1.
<mgrwt>
<rscale>  2 0.25452614E+03</rscale>
<asrwt>0</asrwt>
<pdfrwt beam="2">  1        4 0.69163957E-02 0.25452614E+03</pdfrwt>
<pdfrwt beam="1">  1       -4 0.22529882E+00 0.25452614E+03</pdfrwt>
<totfact> 0.25841665E+01</totfact>
</mgrwt>
</event>
<event>
 4    1  0.8130725E-001  0.2719529E+03  0.7546771E-02  0.1100167E+00
         -1   -1    0    0    0  501 -0.00000000000E+00  0.00000000000E+00  0.29531985990E+03  0.29531985990E+03  0.00000000000E+00 0.  1.
          1   -1    0    0  502    0  0.00000000000E+00 -0.00000000000E+00 -0.27188939007E+03  0.27188939007E+03  0.00000000000E+00 0. -1.
          6    1    1    2  502    0  0.11735699415E+03  0.17394455102E+03  0.91382014138E+02  0.28689552700E+03  0.17300000000E+03 0.  1.
         -6    1    1    2    0  501 -0.11735699415E+03 -0.17394455102E+03 -0.67951544312E+02  0.28031372296E+03  0.17300000000E+03 0. -1.
<mgrwt>
<rscale>  2 0.27195288E+03</rscale>
<asrwt>0</asrwt>
<pdfrwt beam="2">  1        1 0.41829137E-01 0.27195288E+03</pdfrwt>
<pdfrwt beam="1">  1       -1 0.45433824E-01 0.27195288E+03</pdfrwt>
<totfact> 0.48899598E+02</totfact>
</mgrwt>
</event>
<event>
 4    1  0.8130725E-001  0.1758633E+03  0.7546771E-02  0.1171868E+00
         -1   -1    0    0    0  501 -0.00000000000E+00  0.00000000000E+00  0.94290993919E+02  0.94290993919E+02  0.00000000000E+00 0. -1.
          1   -1    0    0  502    0  0.00000000000E+00 -0.00000000000E+00 -0.36165910092E+03  0.36165910092E+03  0.00000000000E+00 0.  1.
          6    1    1    2  502    0  0.31100100568E+02 -0.56287919721E+01 -0.20322776056E+03  0.26875532035E+03  0.17300000000E+03 0.  1.
         -6    1    1    2    0  501 -0.31100100568E+02  0.56287919721E+01 -0.64140346443E+02  0.18719477449E+03  0.17300000000E+03 0. -1.
<mgrwt>
<rscale>  2 0.17586330E+03</rscale>
<asrwt>0</asrwt>
<pdfrwt beam="2">  1        1 0.55639862E-01 0.17586330E+03</pdfrwt>
<pdfrwt beam="1">  1       -1 0.14506307E-01 0.17586330E+03</pdfrwt>
<totfact> 0.23046317E+03</totfact>
</mgrwt>
</event>
<event>
 4    1  0.8130725E-001  0.2978818E+03  0.7546771E-02  0.1086304E+00
          2   -1    0    0  502    0  0.00000000000E+00  0.00000000000E+00  0.72315171972E+03  0.72315171972E+03  0.00000000000E+00 0.  1.
         -2   -1    0    0    0  501 -0.00000000000E+00 -0.00000000000E+00 -0.15683575439E+03  0.15683575439E+03  0.00000000000E+00 0. -1.
          6    1    1    2  502    0 -0.23981445593E+03  0.35966653173E+02  0.77898338497E+02  0.30789888690E+03  0.17300000000E+03 0. -1.
         -6    1    1    2    0  501  0.23981445593E+03 -0.35966653173E+02  0.48841762683E+03  0.57208858721E+03  0.17300000000E+03 0.  1.
<mgrwt>
<rscale>  2 0.29788181E+03</rscale>
<asrwt>0</asrwt>
<pdfrwt beam="1">  1        2 0.11125411E+00 0.29788181E+03</pdfrwt>
<pdfrwt beam="2">  1       -2 0.24128578E-01 0.29788181E+03</pdfrwt>
<totfact> 0.61205907E+02</totfact>
</mgrwt>
</event>
<event>
 4    1  0.8130725E-001  0.1844730E+03  0.7546771E-02  0.1163543E+00
         -1   -1    0    0    0  501 -0.00000000000E+00  0.00000000000E+00  0.11791057315E+03  0.11791057315E+03  0.00000000000E+00 0. -1.
          1   -1    0    0  502    0  0.00000000000E+00 -0.00000000000E+00 -0.39388443170E+03  0.39388443170E+03  0.00000000000E+00 0.  1.
          6    1    1    2  502    0  0.33169090592E+02 -0.54782156750E+02 -0.27028127862E+03  0.32723423238E+03  0.17300000000E+03 0.  1.
         -6    1    1    2    0  501 -0.33169090592E+02  0.54782156750E+02 -0.56925799417E+01  0.18456077247E+03  0.17300000000E+03 0. -1.
<mgrwt>
<rscale>  2 0.18447296E+03</rscale>
<asrwt>0</asrwt>
<pdfrwt beam="2">  1        1 0.60597604E-01 0.18447296E+03</pdfrwt>
<pdfrwt beam="1">  1       -1 0.18140088E-01 0.18447296E+03</pdfrwt>
<totfact> 0.14522730E+03</totfact>
</mgrwt>
</event>
<event>
 4    1  0.8130725E-001  0.2162176E+03  0.7546771E-02  0.1136735E+00
         -2   -1    0    0    0  501 -0.00000000000E+00  0.00000000000E+00  0.10334138376E+03  0.10334138376E+03  0.00000000000E+00 0.  1.
          2   -1    0    0  502    0  0.00000000000E+00 -0.00000000000E+00 -0.65541161077E+03  0.65541161077E+03  0.00000000000E+00 0. -1.
          6    1    1    2  502    0 -0.14505762211E+02 -0.12888224367E+03 -0.48718471902E+03  0.53300938108E+03  0.17300000000E+03 0.  1.
         -6    1    1    2    0  501  0.14505762211E+02  0.12888224367E+03 -0.64885507993E+02  0.22574361346E+03  0.17300000000E+03 0.  1.
<mgrwt>
<rscale>  2 0.21621760E+03</rscale>
<asrwt>0</asrwt>
<pdfrwt beam="2">  1        2 0.10083256E+00 0.21621760E+03</pdfrwt>
<pdfrwt beam="1">  1       -2 0.15898674E-01 0.21621760E+03</pdfrwt>
<totfact> 0.14086767E+03</totfact>
</mgrwt>
</event>
<event>
 4    1  0.8130725E-001  0.2271438E+03  0.7546771E-02  0.1128666E+00
         -2   -1    0    0    0  501 -0.00000000000E+00  0.00000000000E+00  0.25195980986E+03  0.25195980986E+03  0.00000000000E+00 0.  1.
          2   -1    0    0  502    0  0.00000000000E+00 -0.00000000000E+00 -0.20618250369E+03  0.20618250369E+03  0.00000000000E+00 0. -1.
          6    1    1    2  502    0  0.11340891319E+03  0.93828246867E+02  0.39422336833E+01  0.22717804187E+03  0.17300000000E+03 0.  1.
         -6    1    1    2    0  501 -0.11340891319E+03 -0.93828246867E+02  0.41835072482E+02  0.23096427168E+03  0.17300000000E+03 0.  1.
<mgrwt>
<rscale>  2 0.22714383E+03</rscale>
<asrwt>0</asrwt>
<pdfrwt beam="2">  1        2 0.31720385E-01 0.22714383E+03</pdfrwt>
<pdfrwt beam="1">  1       -2 0.38763048E-01 0.22714383E+03</pdfrwt>
<totfact> 0.10407479E+03</totfact>
</mgrwt>
</event>
<event>
 4    1  0.8130725E-001  0.1823687E+03  0.7546771E-02  0.1165530E+00
          2   -1    0    0  502    0  0.00000000000E+00  0.00000000000E+00  0.78283505732E+03  0.78283505732E+03  0.00000000000E+00 0.  1.
         -2   -1    0    0    0  501 -0.00000000000E+00 -0.00000000000E+00 -0.60743040379E+02  0.60743040379E+02  0.00000000000E+00 0. -1.
          6    1    1    2  502    0 -0.56947957848E+02  0.92884897035E+01  0.12979681988E+03  0.22384271352E+03  0.17300000000E+03 0. -1.
         -6    1    1    2    0  501  0.56947957848E+02 -0.92884897035E+01  0.59229519706E+03  0.61973538418E+03  0.17300000000E+03 0.  1.
<mgrwt>
<rscale>  2 0.18236871E+03</rscale>
<asrwt>0</asrwt>
<pdfrwt beam="1">  1        2 0.12043616E+00 0.18236871E+03</pdfrwt>
<pdfrwt beam="2">  1       -2 0.93450837E-02 0.18236871E+03</pdfrwt>
<totfact> 0.26700559E+03</totfact>
</mgrwt>
</event>
<event>
 4    1  0.8130725E-001  0.1837891E+03  0.7546771E-02  0.1164185E+00
         -2   -1    0    0    0  501 -0.00000000000E+00  0.00000000000E+00  0.67805003067E+02  0.67805003067E+02  0.00000000000E+00 0. -1.
          2   -1    0    0  502    0  0.00000000000E+00 -0.00000000000E+00 -0.74727080629E+03  0.74727080629E+03  0.00000000000E+00 0.  1.
          6    1    1    2  502    0 -0.51215461632E+02  0.35020192056E+02 -0.10443593802E+03  0.21138898389E+03  0.17300000000E+03 0. -1.
         -6    1    1    2    0  501  0.51215461632E+02 -0.35020192056E+02 -0.57502986520E+03  0.60368682546E+03  0.17300000000E+03 0.  1.
<mgrwt>
<rscale>  2 0.18378911E+03</rscale>
<asrwt>0</asrwt>
<pdfrwt beam="2">  1        2 0.11496473E+00 0.18378911E+03</pdfrwt>
<pdfrwt beam="1">  1       -2 0.10431539E-01 0.18378911E+03</pdfrwt>
<totfact> 0.23773208E+03</totfact>
</mgrwt>
</event>
<event>
 4    1  0.8130725E-001  0.4440081E+03  0.7546771E-02  0.1029524E+00
          2   -1    0    0  502    0  0.00000000000E+00  0.00000000000E+00  0.21971347358E+03  0.21971347358E+03  0.00000000000E+00 0.  1.
         -2   -1    0    0    0  501 -0.00000000000E+00 -0.00000000000E+00 -0.12524124054E+04  0.12524124054E+04  0.00000000000E+00 0. -1.
          6    1    1    2  502    0  0.39893981744E+03  0.89784292495E+02 -0.90830794528E+03  0.10110225124E+04  0.17300000000E+03 0. -1.
         -6    1    1    2    0  501 -0.39893981744E+03 -0.89784292495E+02 -0.12439098650E+03  0.46110336654E+03  0.17300000000E+03 0.  1.
<mgrwt>
<rscale>  2 0.44400810E+03</rscale>
<asrwt>0</asrwt>
<pdfrwt beam="1">  1        2 0.33802072E-01 0.44400810E+03</pdfrwt>
<pdfrwt beam="2">  1       -2 0.19267884E+00 0.44400810E+03</pdfrwt>
<totfact> 0.24197993E+01</totfact>
</mgrwt>
</event>
<event>
 4    1  0.8130725E-001  0.3659869E+03  0.7546771E-02  0.1056238E+00
         -4   -1    0    0    0  501 -0.00000000000E+00  0.00000000000E+00  0.12592272146E+03  0.12592272146E+03  0.00000000000E+00 0. -1.
          4   -1    0    0  502    0  0.00000000000E+00 -0.00000000000E+00 -0.11047667910E+04  0.11047667910E+04  0.00000000000E+00 0.  1.
          6    1    1    2  502    0  0.26764273202E+03 -0.17995766100E+03 -0.37081018560E+03  0.52100536034E+03  0.17300000000E+03 0. -1.
         -6    1    1    2    0  501 -0.26764273202E+03  0.17995766100E+03 -0.60803388398E+03  0.70968415216E+03  0.17300000000E+03 0.  1.
<mgrwt>
<rscale>  2 0.36598687E+03</rscale>
<asrwt>0</asrwt>
<pdfrwt beam="2">  1        4 0.16996412E+00 0.36598687E+03</pdfrwt>
<pdfrwt beam="1">  1       -4 0.19372727E-01 0.36598687E+03</pdfrwt>
<totfact> 0.10072842E+01</totfact>
</mgrwt>
</event>
<event>
 4    1  0.8130725E-001  0.2134200E+03  0.7546771E-02  0.1138886E+00
         -2   -1    0    0    0  501 -0.00000000000E+00  0.00000000000E+00  0.31095634565E+02  0.31095634565E+02  0.00000000000E+00 0. -1.
          2   -1    0    0  502    0  0.00000000000E+00 -0.00000000000E+00 -0.22234281474E+04  0.22234281474E+04  0.00000000000E+00 0.  1.
          6    1    1    2  502    0 -0.48113675147E+02 -0.11534375326E+03 -0.17546346237E+04  0.17675663410E+04  0.17300000000E+03 0.  1.
         -6    1    1    2    0  501  0.48113675147E+02  0.11534375326E+03 -0.43769788908E+03  0.48695744091E+03  0.17300000000E+03 0.  1.
<mgrwt>
<rscale>  2 0.21342003E+03</rscale>
<asrwt>0</asrwt>
<pdfrwt beam="2">  1        2 0.34206579E+00 0.21342003E+03</pdfrwt>
<pdfrwt beam="1">  1       -2 0.47839449E-02 0.21342003E+03</pdfrwt>
<totfact> 0.11940318E+03</totfact>
</mgrwt>
</event>
<event>
 4    1  0.8130725E-001  0.2432864E+03  0.7546771E-02  0.1117623E+00
         -1   -1    0    0    0  501 -0.00000000000E+00  0.00000000000E+00  0.69567532651E+03  0.69567532651E+03  0.00000000000E+00 0. -1.
          1   -1    0    0  502    0  0.00000000000E+00 -0.00000000000E+00 -0.85104963755E+02  0.85104963755E+02  0.00000000000E+00 0.  1.
          6    1    1    2  502    0 -0.38420473186E+02  0.16668274043E+03  0.31193041186E+03  0.39558671687E+03  0.17300000000E+03 0.  1.
         -6    1    1    2    0  501  0.38420473186E+02 -0.16668274043E+03  0.29863995089E+03  0.38519357340E+03  0.17300000000E+03 0.  1.
<mgrwt>
<rscale>  2 0.24328639E+03</rscale>
<asrwt>0</asrwt>
<pdfrwt beam="2">  1        1 0.13093072E-01 0.24328639E+03</pdfrwt>
<pdfrwt beam="1">  1       -1 0.10702697E+00 0.24328639E+03</pdfrwt>
<totfact> 0.38680567E+02</totfact>
</mgrwt>
</event>
<event>
 4    1  0.8130725E-001  0.1732375E+03  0.7546771E-02  0.1174513E+00
         -1   -1    0    0    0  501 -0.00000000000E+00  0.00000000000E+00  0.97247669025E+03  0.97247669025E+03  0.00000000000E+00 0. -1.
          1   -1    0    0  502    0  0.00000000000E+00 -0.00000000000E+00 -0.23000098509E+03  0.23000098509E+03  0.00000000000E+00 0.  1.
          6    1    1    2  502    0 -0.38843490080E+01 -0.81945325957E+01  0.93068855370E+03  0.94667440154E+03  0.17300000000E+03 0. -1.
         -6    1    1    2    0  501  0.38843490080E+01  0.81945325957E+01 -0.18821284855E+03  0.25580327381E+03  0.17300000000E+03 0.  1.
<mgrwt>
<rscale>  2 0.17323752E+03</rscale>
<asrwt>0</asrwt>
<pdfrwt beam="2">  1        1 0.35384767E-01 0.17323752E+03</pdfrwt>
<pdfrwt beam="1">  1       -1 0.14961180E+00 0.17323752E+03</pdfrwt>
<totfact> 0.48400433E+01</totfact>
</mgrwt>
</event>
<event>
 4    1  0.8130725E-001  0.2004971E+03  0.7546771E-02  0.1149320E+00
         -1   -1    0    0    0  501 -0.00000000000E+00  0.00000000000E+00  0.12622982613E+03  0.12622982613E+03  0.00000000000E+00 0.  1.
          1   -1    0    0  502    0  0.00000000000E+00 -0.00000000000E+00 -0.36829386223E+03  0.36829386223E+03  0.00000000000E+00 0. -1.
          6    1    1    2  502    0  0.99008420995E+02  0.21620151015E+02 -0.21198646439E+03  0.29178306915E+03  0.17300000000E+03 0. -1.
         -6    1    1    2    0  501 -0.99008420995E+02 -0.21620151015E+02 -0.30077571707E+02  0.20274061921E+03  0.17300000000E+03 0. -1.
<mgrwt>
<rscale>  2 0.20049713E+03</rscale>
<asrwt>0</asrwt>
<pdfrwt beam="2">  1        1 0.56660594E-01 0.20049713E+03</pdfrwt>
<pdfrwt beam="1">  1       -1 0.19419973E-01 0.20049713E+03</pdfrwt>
<totfact> 0.14192459E+03</totfact>
</mgrwt>
</event>
<event>
 4    1  0.8130725E-001  0.1758993E+03  0.7546771E-02  0.1171832E+00
          2   -1    0    0  502    0  0.00000000000E+00  0.00000000000E+00  0.11347599456E+04  0.11347599456E+04  0.00000000000E+00 0.  1.
         -2   -1    0    0    0  501 -0.00000000000E+00 -0.00000000000E+00 -0.27343055623E+02  0.27343055623E+02  0.00000000000E+00 0. -1.
          6    1    1    2  502    0  0.24691471857E+01  0.31709178908E+02  0.58451803892E+03  0.61041126017E+03  0.17300000000E+03 0.  1.
         -6    1    1    2    0  501 -0.24691471857E+01 -0.31709178908E+02  0.52289885107E+03  0.55169174107E+03  0.17300000000E+03 0. -1.
<mgrwt>
<rscale>  2 0.17589931E+03</rscale>
<asrwt>0</asrwt>
<pdfrwt beam="1">  1        2 0.17457842E+00 0.17589931E+03</pdfrwt>
<pdfrwt beam="2">  1       -2 0.42066248E-02 0.17589931E+03</pdfrwt>
<totfact> 0.54745262E+03</totfact>
</mgrwt>
</event>
<event>
 4    1  0.8130725E-001  0.1994930E+03  0.7546771E-02  0.1150168E+00
          2   -1    0    0  502    0  0.00000000000E+00  0.00000000000E+00  0.27576886558E+04  0.27576886558E+04  0.00000000000E+00 0. -1.
         -2   -1    0    0    0  501 -0.00000000000E+00 -0.00000000000E+00 -0.18563737693E+02  0.18563737693E+02  0.00000000000E+00 0.  1.
          6    1    1    2  502    0 -0.17132175045E+02 -0.97851577965E+02  0.20244874684E+04  0.20342927401E+04  0.17300000000E+03 0. -1.
         -6    1    1    2    0  501  0.17132175045E+02  0.97851577965E+02  0.71463744968E+03  0.74195965336E+03  0.17300000000E+03 0.  1.
<mgrwt>
<rscale>  2 0.19949296E+03</rscale>
<asrwt>0</asrwt>
<pdfrwt beam="1">  1        2 0.42425947E+00 0.19949296E+03</pdfrwt>
<pdfrwt beam="2">  1       -2 0.28559618E-02 0.19949296E+03</pdfrwt>
<totfact> 0.13280333E+03</totfact>
</mgrwt>
</event>
<event>
 4    1  0.8130725E-001  0.1981103E+03  0.7546771E-02  0.1151343E+00
         -2   -1    0    0    0  501 -0.00000000000E+00  0.00000000000E+00  0.49314441684E+02  0.49314441684E+02  0.00000000000E+00 0. -1.
          2   -1    0    0  502    0  0.00000000000E+00 -0.00000000000E+00 -0.13650484157E+04  0.13650484157E+04  0.00000000000E+00 0.  1.
          6    1    1    2  502    0 -0.95840551435E+02 -0.11543957712E+02 -0.11145161424E+04  0.11319867075E+04  0.17300000000E+03 0.  1.
         -6    1    1    2    0  501  0.95840551435E+02  0.11543957712E+02 -0.20121783155E+03  0.28237614983E+03  0.17300000000E+03 0. -1.
<mgrwt>
<rscale>  2 0.19811026E+03</rscale>
<asrwt>0</asrwt>
<pdfrwt beam="2">  1        2 0.21000744E+00 0.19811026E+03</pdfrwt>
<pdfrwt beam="1">  1       -2 0.75868374E-02 0.19811026E+03</pdfrwt>
<totfact> 0.16636273E+03</totfact>
</mgrwt>
</event>
<event>
 4    1  0.8130725E-001  0.2590919E+03  0.7546771E-02  0.1107690E+00
          2   -1    0    0  502    0  0.00000000000E+00  0.00000000000E+00  0.19289562550E+04  0.19289562550E+04  0.00000000000E+00 0. -1.
         -2   -1    0    0    0  501 -0.00000000000E+00 -0.00000000000E+00 -0.62933385867E+02  0.62933385867E+02  0.00000000000E+00 0.  1.
          6    1    1    2  502    0 -0.56390345410E+02 -0.18444443955E+03  0.15989006019E+04  0.16197566969E+04  0.17300000000E+03 0. -1.
         -6    1    1    2    0  501  0.56390345410E+02  0.18444443955E+03  0.26712226719E+03  0.37213294394E+03  0.17300000000E+03 0.  1.
<mgrwt>
<rscale>  2 0.25909192E+03</rscale>
<asrwt>0</asrwt>
<pdfrwt beam="1">  1        2 0.29676246E+00 0.25909192E+03</pdfrwt>
<pdfrwt beam="2">  1       -2 0.96820608E-02 0.25909192E+03</pdfrwt>
<totfact> 0.56791277E+02</totfact>
</mgrwt>
</event>
<event>
 4    1  0.8130725E-001  0.1997358E+03  0.7546771E-02  0.1149962E+00
         -2   -1    0    0    0  501 -0.00000000000E+00  0.00000000000E+00  0.66558441514E+03  0.66558441514E+03  0.00000000000E+00 0. -1.
          2   -1    0    0  502    0  0.00000000000E+00 -0.00000000000E+00 -0.66499513427E+02  0.66499513427E+02  0.00000000000E+00 0.  1.
          6    1    1    2  502    0 -0.56181302748E+02 -0.82517066132E+02  0.41451482661E+03  0.46012709816E+03  0.17300000000E+03 0. -1.
         -6    1    1    2    0  501  0.56181302748E+02  0.82517066132E+02  0.18457007510E+03  0.27195683041E+03  0.17300000000E+03 0.  1.
<mgrwt>
<rscale>  2 0.19973584E+03</rscale>
<asrwt>0</asrwt>
<pdfrwt beam="2">  1        2 0.10230695E-01 0.19973584E+03</pdfrwt>
<pdfrwt beam="1">  1       -2 0.10239760E+00 0.19973584E+03</pdfrwt>
<totfact> 0.50265263E+02</totfact>
</mgrwt>
</event>
<event>
 4    1  0.8130725E-001  0.3021767E+03  0.7546771E-02  0.1084158E+00
          2   -1    0    0  502    0  0.00000000000E+00  0.00000000000E+00  0.79510195800E+03  0.79510195800E+03  0.00000000000E+00 0.  1.
         -2   -1    0    0    0  501 -0.00000000000E+00 -0.00000000000E+00 -0.11692735299E+03  0.11692735299E+03  0.00000000000E+00 0. -1.
          6    1    1    2  502    0  0.24392957049E+03  0.43360139829E+02  0.27818160354E+03  0.41072587164E+03  0.17300000000E+03 0.  1.
         -6    1    1    2    0  501 -0.24392957049E+03 -0.43360139829E+02  0.39999300147E+03  0.50130343936E+03  0.17300000000E+03 0.  1.
<mgrwt>
<rscale>  2 0.30217667E+03</rscale>
<asrwt>0</asrwt>
<pdfrwt beam="1">  1        2 0.12232337E+00 0.30217667E+03</pdfrwt>
<pdfrwt beam="2">  1       -2 0.17988824E-01 0.30217667E+03</pdfrwt>
<totfact> 0.90285934E+02</totfact>
</mgrwt>
</event>
<event>
 4    1  0.8130725E-001  0.2537916E+03  0.7546771E-02  0.1110932E+00
         -1   -1    0    0    0  501 -0.00000000000E+00  0.00000000000E+00  0.18658409665E+03  0.18658409665E+03  0.00000000000E+00 0. -1.
          1   -1    0    0  502    0  0.00000000000E+00 -0.00000000000E+00 -0.37179455340E+03  0.37179455340E+03  0.00000000000E+00 0.  1.
          6    1    1    2  502    0  0.78707214735E+02 -0.16818543447E+03 -0.17945710400E+02  0.25442526317E+03  0.17300000000E+03 0. -1.
         -6    1    1    2    0  501 -0.78707214735E+02  0.16818543447E+03 -0.16726474636E+03  0.30395338687E+03  0.17300000000E+03 0.  1.
<mgrwt>
<rscale>  2 0.25379158E+03</rscale>
<asrwt>0</asrwt>
<pdfrwt beam="2">  1        1 0.57199162E-01 0.25379158E+03</pdfrwt>
<pdfrwt beam="1">  1       -1 0.28705246E-01 0.25379158E+03</pdfrwt>
<totfact> 0.73617795E+02</totfact>
</mgrwt>
</event>
<event>
 4    1  0.8130725E-001  0.2302800E+03  0.7546771E-02  0.1126443E+00
          1   -1    0    0  502    0  0.00000000000E+00  0.00000000000E+00  0.14339158954E+03  0.14339158954E+03  0.00000000000E+00 0. -1.
         -1   -1    0    0    0  501 -0.00000000000E+00 -0.00000000000E+00 -0.56830830356E+03  0.56830830356E+03  0.00000000000E+00 0.  1.
          6    1    1    2  502    0 -0.14395928521E+03 -0.48739997086E+02 -0.21560674529E+01  0.23029006001E+03  0.17300000000E+03 0. -1.
         -6    1    1    2    0  501  0.14395928521E+03  0.48739997086E+02 -0.42276064656E+03  0.48140983309E+03  0.17300000000E+03 0.  1.
<mgrwt>
<rscale>  2 0.23027997E+03</rscale>
<asrwt>0</asrwt>
<pdfrwt beam="1">  1        1 0.22060245E-01 0.23027997E+03</pdfrwt>
<pdfrwt beam="2">  1       -1 0.87432046E-01 0.23027997E+03</pdfrwt>
<totfact> 0.30601159E+02</totfact>
</mgrwt>
</event>
<event>
 4    1  0.8130725E-001  0.1777740E+03  0.7546771E-02  0.1169975E+00
          2   -1    0    0  502    0  0.00000000000E+00  0.00000000000E+00  0.83340255210E+02  0.83340255210E+02  0.00000000000E+00 0.  1.
         -2   -1    0    0    0  501 -0.00000000000E+00 -0.00000000000E+00 -0.40674494353E+03  0.40674494353E+03  0.00000000000E+00 0. -1.
          6    1    1    2  502    0  0.16034472737E+02  0.37649550910E+02 -0.22545669768E+03  0.28711376757E+03  0.17300000000E+03 0. -1.
         -6    1    1    2    0  501 -0.16034472737E+02 -0.37649550910E+02 -0.97947990636E+02  0.20297143117E+03  0.17300000000E+03 0.  1.
<mgrwt>
<rscale>  2 0.17777399E+03</rscale>
<asrwt>0</asrwt>
<pdfrwt beam="1">  1        2 0.12821578E-01 0.17777399E+03</pdfrwt>
<pdfrwt beam="2">  1       -2 0.62576146E-01 0.17777399E+03</pdfrwt>
<totfact> 0.11254730E+03</totfact>
</mgrwt>
</event>
<event>
 4    1  0.8130725E-001  0.1937621E+03  0.7546771E-02  0.1155111E+00
         -4   -1    0    0    0  501 -0.00000000000E+00  0.00000000000E+00  0.76629682142E+02  0.76629682142E+02  0.00000000000E+00 0. -1.
          4   -1    0    0  502    0  0.00000000000E+00 -0.00000000000E+00 -0.67735432819E+03  0.67735432819E+03  0.00000000000E+00 0.  1.
          6    1    1    2  502    0 -0.85922998873E+02 -0.15231556575E+02 -0.10205974111E+03  0.21899760913E+03  0.17300000000E+03 0. -1.
         -6    1    1    2    0  501  0.85922998873E+02  0.15231556575E+02 -0.49866490494E+03  0.53498640120E+03  0.17300000000E+03 0.  1.
<mgrwt>
<rscale>  2 0.19376213E+03</rscale>
<asrwt>0</asrwt>
<pdfrwt beam="2">  1        4 0.10420836E+00 0.19376213E+03</pdfrwt>
<pdfrwt beam="1">  1       -4 0.11789182E-01 0.19376213E+03</pdfrwt>
<totfact> 0.78716063E+01</totfact>
</mgrwt>
</event>
<event>
 4    1  0.8130725E-001  0.1754479E+03  0.7546771E-02  0.1172283E+00
         -2   -1    0    0    0  501 -0.00000000000E+00  0.00000000000E+00  0.12787453664E+02  0.12787453664E+02  0.00000000000E+00 0. -1.
          2   -1    0    0  502    0  0.00000000000E+00 -0.00000000000E+00 -0.24132902468E+04  0.24132902468E+04  0.00000000000E+00 0.  1.
          6    1    1    2  502    0 -0.25445012186E+02 -0.14336370504E+02 -0.12611807897E+04  0.12733259459E+04  0.17300000000E+03 0. -1.
         -6    1    1    2    0  501  0.25445012186E+02  0.14336370504E+02 -0.11393220034E+04  0.11527517545E+04  0.17300000000E+03 0. -1.
<mgrwt>
<rscale>  2 0.17544794E+03</rscale>
<asrwt>0</asrwt>
<pdfrwt beam="2">  1        2 0.37127547E+00 0.17544794E+03</pdfrwt>
<pdfrwt beam="1">  1       -2 0.19673003E-02 0.17544794E+03</pdfrwt>
<totfact> 0.35559332E+03</totfact>
</mgrwt>
</event>
<event>
 4    1  0.8130725E-001  0.2375758E+03  0.7546771E-02  0.1121418E+00
         -3   -1    0    0    0  501 -0.00000000000E+00  0.00000000000E+00  0.11786566691E+03  0.11786566691E+03  0.00000000000E+00 0.  1.
          3   -1    0    0  502    0  0.00000000000E+00 -0.00000000000E+00 -0.49279981286E+03  0.49279981286E+03  0.00000000000E+00 0. -1.
          6    1    1    2  502    0  0.16234226181E+03  0.12579618739E+02 -0.13613123140E+03  0.27381374863E+03  0.17300000000E+03 0. -1.
         -6    1    1    2    0  501 -0.16234226181E+03 -0.12579618739E+02 -0.23880291455E+03  0.33685173114E+03  0.17300000000E+03 0. -1.
<mgrwt>
<rscale>  2 0.23757579E+03</rscale>
<asrwt>0</asrwt>
<pdfrwt beam="2">  1        3 0.75815357E-01 0.23757579E+03</pdfrwt>
<pdfrwt beam="1">  1       -3 0.18133179E-01 0.23757579E+03</pdfrwt>
<totfact> 0.11100815E+02</totfact>
</mgrwt>
</event>
<event>
 4    1  0.8130725E-001  0.1817893E+03  0.7546771E-02  0.1166082E+00
          2   -1    0    0  502    0  0.00000000000E+00  0.00000000000E+00  0.22128903606E+03  0.22128903606E+03  0.00000000000E+00 0.  1.
         -2   -1    0    0    0  501 -0.00000000000E+00 -0.00000000000E+00 -0.17708926922E+03  0.17708926922E+03  0.00000000000E+00 0. -1.
          6    1    1    2  502    0  0.15395626773E+01  0.55821071048E+02 -0.56748591963E+02  0.19044097489E+03  0.17300000000E+03 0. -1.
         -6    1    1    2    0  501 -0.15395626773E+01 -0.55821071048E+02  0.10094835880E+03  0.20793733039E+03  0.17300000000E+03 0.  1.
<mgrwt>
<rscale>  2 0.18178933E+03</rscale>
<asrwt>0</asrwt>
<pdfrwt beam="1">  1        2 0.34044467E-01 0.18178933E+03</pdfrwt>
<pdfrwt beam="2">  1       -2 0.27244503E-01 0.18178933E+03</pdfrwt>
<totfact> 0.18324974E+03</totfact>
</mgrwt>
</event>
<event>
 4    1  0.8130725E-001  0.2636017E+03  0.7546771E-02  0.1104998E+00
         -2   -1    0    0    0  501 -0.00000000000E+00  0.00000000000E+00  0.36896393894E+02  0.36896393894E+02  0.00000000000E+00 0.  1.
          2   -1    0    0  502    0  0.00000000000E+00 -0.00000000000E+00 -0.21620419608E+04  0.21620419608E+04  0.00000000000E+00 0. -1.
          6    1    1    2  502    0  0.16555526886E+03  0.11021947618E+03 -0.14573711711E+04  0.14810187744E+04  0.17300000000E+03 0. -1.
         -6    1    1    2    0  501 -0.16555526886E+03 -0.11021947618E+03 -0.66777439580E+03  0.71791958022E+03  0.17300000000E+03 0.  1.
<mgrwt>
<rscale>  2 0.26360175E+03</rscale>
<asrwt>0</asrwt>
<pdfrwt beam="2">  1        2 0.33262196E+00 0.26360175E+03</pdfrwt>
<pdfrwt beam="1">  1       -2 0.56763662E-02 0.26360175E+03</pdfrwt>
<totfact> 0.98434200E+02</totfact>
</mgrwt>
</event>
<event>
 4    1  0.8130725E-001  0.1878828E+03  0.7546771E-02  0.1160385E+00
         -1   -1    0    0    0  501 -0.00000000000E+00  0.00000000000E+00  0.35055701672E+02  0.35055701672E+02  0.00000000000E+00 0.  1.
          1   -1    0    0  502    0  0.00000000000E+00 -0.00000000000E+00 -0.10236442137E+04  0.10236442137E+04  0.00000000000E+00 0. -1.
          6    1    1    2  502    0 -0.59981905201E+02 -0.42108223147E+02 -0.56186074499E+03  0.59244191966E+03  0.17300000000E+03 0. -1.
         -6    1    1    2    0  501  0.59981905201E+02  0.42108223147E+02 -0.42672776708E+03  0.46625799576E+03  0.17300000000E+03 0. -1.
<mgrwt>
<rscale>  2 0.18788276E+03</rscale>
<asrwt>0</asrwt>
<pdfrwt beam="2">  1        1 0.15748375E+00 0.18788276E+03</pdfrwt>
<pdfrwt beam="1">  1       -1 0.53931840E-02 0.18788276E+03</pdfrwt>
<totfact> 0.23978466E+03</totfact>
</mgrwt>
</event>
<event>
 4    1  0.8130725E-001  0.3258517E+03  0.7546771E-02  0.1072987E+00
          2   -1    0    0  502    0  0.00000000000E+00  0.00000000000E+00  0.14472938318E+04  0.14472938318E+04  0.00000000000E+00 0. -1.
         -2   -1    0    0    0  501 -0.00000000000E+00 -0.00000000000E+00 -0.85868692794E+02  0.85868692794E+02  0.00000000000E+00 0.  1.
          6    1    1    2  502    0  0.13825449148E+03 -0.23903142762E+03  0.97324669085E+03  0.10263471387E+04  0.17300000000E+03 0.  1.
         -6    1    1    2    0  501 -0.13825449148E+03  0.23903142762E+03  0.38817844821E+03  0.50681538597E+03  0.17300000000E+03 0.  1.
<mgrwt>
<rscale>  2 0.32585170E+03</rscale>
<asrwt>0</asrwt>
<pdfrwt beam="1">  1        2 0.22266057E+00 0.32585170E+03</pdfrwt>
<pdfrwt beam="2">  1       -2 0.13210569E-01 0.32585170E+03</pdfrwt>
<totfact> 0.61397473E+02</totfact>
</mgrwt>
</event>
<event>
 4    1  0.8130725E-001  0.1761194E+03  0.7546771E-02  0.1171612E+00
          1   -1    0    0  502    0  0.00000000000E+00  0.00000000000E+00  0.17749137969E+04  0.17749137969E+04  0.00000000000E+00 0.  1.
         -1   -1    0    0    0  501 -0.00000000000E+00 -0.00000000000E+00 -0.19033038845E+02  0.19033038845E+02  0.00000000000E+00 0. -1.
          6    1    1    2  502    0  0.31740653957E+02  0.90313987655E+01  0.11345089030E+04  0.11480977686E+04  0.17300000000E+03 0.  1.
         -6    1    1    2    0  501 -0.31740653957E+02 -0.90313987655E+01  0.62137185508E+03  0.64584906717E+03  0.17300000000E+03 0. -1.
<mgrwt>
<rscale>  2 0.17611938E+03</rscale>
<asrwt>0</asrwt>
<pdfrwt beam="1">  1        1 0.27306353E+00 0.17611938E+03</pdfrwt>
<pdfrwt beam="2">  1       -1 0.29281612E-02 0.17611938E+03</pdfrwt>
<totfact> 0.18513197E+03</totfact>
</mgrwt>
</event>
<event>
 4    1  0.8130725E-001  0.1853157E+03  0.7546771E-02  0.1162755E+00
         -1   -1    0    0    0  501 -0.00000000000E+00  0.00000000000E+00  0.11507368005E+03  0.11507368005E+03  0.00000000000E+00 0.  1.
          1   -1    0    0  502    0  0.00000000000E+00 -0.00000000000E+00 -0.30084659102E+03  0.30084659102E+03  0.00000000000E+00 0. -1.
          6    1    1    2  502    0 -0.66333348481E+02  0.35748231802E+01 -0.74263259725E+02  0.19964199014E+03  0.17300000000E+03 0.  1.
         -6    1    1    2    0  501  0.66333348481E+02 -0.35748231802E+01 -0.11150965125E+03  0.21627828093E+03  0.17300000000E+03 0. -1.
<mgrwt>
<rscale>  2 0.18531566E+03</rscale>
<asrwt>0</asrwt>
<pdfrwt beam="2">  1        1 0.46284090E-01 0.18531566E+03</pdfrwt>
<pdfrwt beam="1">  1       -1 0.17703643E-01 0.18531566E+03</pdfrwt>
<totfact> 0.21202694E+03</totfact>
</mgrwt>
</event>
<event>
 4    1  0.8130725E-001  0.2361205E+03  0.7546771E-02  0.1122405E+00
         -1   -1    0    0    0  501 -0.00000000000E+00  0.00000000000E+00  0.70161983242E+02  0.70161983242E+02  0.00000000000E+00 0.  1.
          1   -1    0    0  502    0  0.00000000000E+00 -0.00000000000E+00 -0.79539785611E+03  0.79539785611E+03  0.00000000000E+00 0. -1.
          6    1    1    2  502    0  0.15483751771E+03 -0.43002648395E+02 -0.37605613003E+03  0.44403952256E+03  0.17300000000E+03 0.  1.
         -6    1    1    2    0  501 -0.15483751771E+03  0.43002648395E+02 -0.34917974284E+03  0.42152031679E+03  0.17300000000E+03 0. -1.
<mgrwt>
<rscale>  2 0.23612049E+03</rscale>
<asrwt>0</asrwt>
<pdfrwt beam="2">  1        1 0.12236891E+00 0.23612049E+03</pdfrwt>
<pdfrwt beam="1">  1       -1 0.10794151E-01 0.23612049E+03</pdfrwt>
<totfact> 0.12584524E+03</totfact>
</mgrwt>
</event>
<event>
 4    1  0.8130725E-001  0.3774583E+03  0.7546771E-02  0.1051877E+00
          1   -1    0    0  502    0  0.00000000000E+00  0.00000000000E+00  0.23860337948E+03  0.23860337948E+03  0.00000000000E+00 0. -1.
         -1   -1    0    0    0  501 -0.00000000000E+00 -0.00000000000E+00 -0.60377167359E+03  0.60377167359E+03  0.00000000000E+00 0.  1.
          6    1    1    2  502    0 -0.29643924341E+03 -0.15706530366E+03 -0.22679413281E+03  0.44035248758E+03  0.17300000000E+03 0. -1.
         -6    1    1    2    0  501  0.29643924341E+03  0.15706530366E+03 -0.13837416130E+03  0.40202256549E+03  0.17300000000E+03 0.  1.
<mgrwt>
<rscale>  2 0.37745826E+03</rscale>
<asrwt>0</asrwt>
<pdfrwt beam="1">  1        1 0.36708212E-01 0.37745826E+03</pdfrwt>
<pdfrwt beam="2">  1       -1 0.92887950E-01 0.37745826E+03</pdfrwt>
<totfact> 0.13852315E+02</totfact>
</mgrwt>
</event>
<event>
 4    1  0.8130725E-001  0.1734721E+03  0.7546771E-02  0.1174275E+00
          1   -1    0    0  502    0  0.00000000000E+00  0.00000000000E+00  0.66232170924E+02  0.66232170924E+02  0.00000000000E+00 0. -1.
         -1   -1    0    0    0  501 -0.00000000000E+00 -0.00000000000E+00 -0.50581183482E+03  0.50581183482E+03  0.00000000000E+00 0.  1.
          6    1    1    2  502    0 -0.11276043326E+02  0.60354932637E+01 -0.12855760960E+03  0.21591580609E+03  0.17300000000E+03 0. -1.
         -6    1    1    2    0  501  0.11276043326E+02 -0.60354932637E+01 -0.31102205429E+03  0.35612819965E+03  0.17300000000E+03 0.  1.
<mgrwt>
<rscale>  2 0.17347212E+03</rscale>
<asrwt>0</asrwt>
<pdfrwt beam="1">  1        1 0.10189565E-01 0.17347212E+03</pdfrwt>
<pdfrwt beam="2">  1       -1 0.77817207E-01 0.17347212E+03</pdfrwt>
<totfact> 0.10703048E+03</totfact>
</mgrwt>
</event>
<event>
 4    1  0.8130725E-001  0.1741232E+03  0.7546771E-02  0.1173615E+00
         -2   -1    0    0    0  501 -0.00000000000E+00  0.00000000000E+00  0.28002428953E+02  0.28002428953E+02  0.00000000000E+00 0. -1.
          2   -1    0    0  502    0  0.00000000000E+00 -0.00000000000E+00 -0.14392702844E+04  0.14392702844E+04  0.00000000000E+00 0.  1.
          6    1    1    2  502    0  0.19211698254E+02 -0.45616395783E+01 -0.34048695030E+03  0.38242680506E+03  0.17300000000E+03 0. -1.
         -6    1    1    2    0  501 -0.19211698254E+02  0.45616395783E+01 -0.10707809051E+04  0.10848459083E+04  0.17300000000E+03 0.  1.
<mgrwt>
<rscale>  2 0.17412323E+03</rscale>
<asrwt>0</asrwt>
<pdfrwt beam="2">  1        2 0.22142614E+00 0.17412323E+03</pdfrwt>
<pdfrwt beam="1">  1       -2 0.43080672E-02 0.17412323E+03</pdfrwt>
<totfact> 0.35953984E+03</totfact>
</mgrwt>
</event>
<event>
 4    1  0.8130725E-001  0.2047517E+03  0.7546771E-02  0.1145791E+00
         -1   -1    0    0    0  501 -0.00000000000E+00  0.00000000000E+00  0.73198478504E+02  0.73198478504E+02  0.00000000000E+00 0. -1.
          1   -1    0    0  502    0  0.00000000000E+00 -0.00000000000E+00 -0.57398024569E+03  0.57398024569E+03  0.00000000000E+00 0.  1.
          6    1    1    2  502    0 -0.10848549951E+03 -0.15005781983E+02 -0.23531437860E+03  0.31192328203E+03  0.17300000000E+03 0.  1.
         -6    1    1    2    0  501  0.10848549951E+03  0.15005781983E+02 -0.26546738859E+03  0.33525544217E+03  0.17300000000E+03 0.  1.
<mgrwt>
<rscale>  2 0.20475175E+03</rscale>
<asrwt>0</asrwt>
<pdfrwt beam="2">  1        1 0.88304650E-01 0.20475175E+03</pdfrwt>
<pdfrwt beam="1">  1       -1 0.11261305E-01 0.20475175E+03</pdfrwt>
<totfact> 0.18827135E+03</totfact>
</mgrwt>
</event>
<event>
 4    1  0.8130725E-001  0.1875754E+03  0.7546771E-02  0.1160666E+00
          2   -1    0    0  502    0  0.00000000000E+00  0.00000000000E+00  0.67964862541E+03  0.67964862541E+03  0.00000000000E+00 0.  1.
         -2   -1    0    0    0  501 -0.00000000000E+00 -0.00000000000E+00 -0.54860922017E+02  0.54860922017E+02  0.00000000000E+00 0. -1.
          6    1    1    2  502    0 -0.17962539036E+02  0.70234570517E+02  0.22520339175E+03  0.29308892057E+03  0.17300000000E+03 0. -1.
         -6    1    1    2    0  501  0.17962539036E+02 -0.70234570517E+02  0.39958431165E+03  0.44142062686E+03  0.17300000000E+03 0.  1.
<mgrwt>
<rscale>  2 0.18757545E+03</rscale>
<asrwt>0</asrwt>
<pdfrwt beam="1">  1        2 0.10456132E+00 0.18757545E+03</pdfrwt>
<pdfrwt beam="2">  1       -2 0.84401423E-02 0.18757545E+03</pdfrwt>
<totfact> 0.37243667E+03</totfact>
</mgrwt>
</event>
<event>
 4    1  0.8130725E-001  0.2015138E+03  0.7546771E-02  0.1148468E+00
         -1   -1    0    0    0  501 -0.00000000000E+00  0.00000000000E+00  0.30607012078E+02  0.30607012078E+02  0.00000000000E+00 0. -1.
          1   -1    0    0  502    0  0.00000000000E+00 -0.00000000000E+00 -0.22352949617E+04  0.22352949617E+04  0.00000000000E+00 0.  1.
          6    1    1    2  502    0 -0.13002812739E+02  0.10251711339E+03 -0.18246430907E+04  0.18357369747E+04  0.17300000000E+03 0.  1.
         -6    1    1    2    0  501  0.13002812739E+02 -0.10251711339E+03 -0.38004485891E+03  0.43016499911E+03  0.17300000000E+03 0. -1.
<mgrwt>
<rscale>  2 0.20151385E+03</rscale>
<asrwt>0</asrwt>
<pdfrwt beam="2">  1        1 0.34389146E+00 0.20151385E+03</pdfrwt>
<pdfrwt beam="1">  1       -1 0.47087721E-02 0.20151385E+03</pdfrwt>
<totfact> 0.46240151E+02</totfact>
</mgrwt>
</event>
<event>
 4    1  0.8130725E-001  0.2180363E+03  0.7546771E-02  0.1135356E+00
         -2   -1    0    0    0  501 -0.00000000000E+00  0.00000000000E+00  0.39658132822E+02  0.39658132822E+02  0.00000000000E+00 0. -1.
          2   -1    0    0  502    0  0.00000000000E+00 -0.00000000000E+00 -0.20233511441E+04  0.20233511441E+04  0.00000000000E+00 0.  1.
          6    1    1    2  502    0  0.93554852984E+01  0.13237566678E+03 -0.16503526163E+04  0.16646932451E+04  0.17300000000E+03 0.  1.
         -6    1    1    2    0  501 -0.93554852984E+01 -0.13237566678E+03 -0.33334039499E+03  0.39831603180E+03  0.17300000000E+03 0. -1.
<mgrwt>
<rscale>  2 0.21803633E+03</rscale>
<asrwt>0</asrwt>
<pdfrwt beam="2">  1        2 0.31128474E+00 0.21803633E+03</pdfrwt>
<pdfrwt beam="1">  1       -2 0.61012522E-02 0.21803633E+03</pdfrwt>
<totfact> 0.10489197E+03</totfact>
</mgrwt>
</event>
<event>
 4    1  0.8130725E-001  0.2136488E+03  0.7546771E-02  0.1138709E+00
          2   -1    0    0  502    0  0.00000000000E+00  0.00000000000E+00  0.15870546522E+04  0.15870546522E+04  0.00000000000E+00 0.  1.
         -2   -1    0    0    0  501 -0.00000000000E+00 -0.00000000000E+00 -0.48530955133E+02  0.48530955133E+02  0.00000000000E+00 0. -1.
          6    1    1    2  502    0  0.10943347393E+03 -0.61164722998E+02  0.12912168231E+04  0.13087729722E+04  0.17300000000E+03 0.  1.
         -6    1    1    2    0  501 -0.10943347393E+03  0.61164722998E+02  0.24730687395E+03  0.32681263510E+03  0.17300000000E+03 0. -1.
<mgrwt>
<rscale>  2 0.21364880E+03</rscale>
<asrwt>0</asrwt>
<pdfrwt beam="1">  1        2 0.24416221E+00 0.21364880E+03</pdfrwt>
<pdfrwt beam="2">  1       -2 0.74663020E-02 0.21364880E+03</pdfrwt>
<totfact> 0.12980841E+03</totfact>
</mgrwt>
</event>
<event>
 4    1  0.8130725E-001  0.1887879E+03  0.7546771E-02  0.1159559E+00
          1   -1    0    0  502    0  0.00000000000E+00  0.00000000000E+00  0.63120321123E+03  0.63120321123E+03  0.00000000000E+00 0. -1.
         -1   -1    0    0    0  501 -0.00000000000E+00 -0.00000000000E+00 -0.58385327681E+02  0.58385327681E+02  0.00000000000E+00 0.  1.
          6    1    1    2  502    0  0.38902549305E+02 -0.64795654540E+02  0.22387776675E+03  0.29285173661E+03  0.17300000000E+03 0.  1.
         -6    1    1    2    0  501 -0.38902549305E+02  0.64795654540E+02  0.34894011681E+03  0.39673680231E+03  0.17300000000E+03 0. -1.
<mgrwt>
<rscale>  2 0.18878794E+03</rscale>
<asrwt>0</asrwt>
<pdfrwt beam="1">  1        1 0.97108181E-01 0.18878794E+03</pdfrwt>
<pdfrwt beam="2">  1       -1 0.89823586E-02 0.18878794E+03</pdfrwt>
<totfact> 0.23354540E+03</totfact>
</mgrwt>
</event>
<event>
 4    1  0.8130725E-001  0.2118390E+03  0.7546771E-02  0.1140118E+00
         -1   -1    0    0    0  501 -0.00000000000E+00  0.00000000000E+00  0.52463836430E+03  0.52463836430E+03  0.00000000000E+00 0. -1.
          1   -1    0    0  502    0  0.00000000000E+00 -0.00000000000E+00 -0.97353766172E+02  0.97353766172E+02  0.00000000000E+00 0.  1.
          6    1    1    2  502    0 -0.36477365064E+02  0.11668840680E+03  0.32199385905E+03  0.38542940691E+03  0.17300000000E+03 0. -1.
         -6    1    1    2    0  501  0.36477365064E+02 -0.11668840680E+03  0.10529073907E+03  0.23656272356E+03  0.17300000000E+03 0.  1.
<mgrwt>
<rscale>  2 0.21183905E+03</rscale>
<asrwt>0</asrwt>
<pdfrwt beam="2">  1        1 0.14977503E-01 0.21183905E+03</pdfrwt>
<pdfrwt beam="1">  1       -1 0.80713593E-01 0.21183905E+03</pdfrwt>
<totfact> 0.59817081E+02</totfact>
</mgrwt>
</event>
<event>
 4    1  0.8130725E-001  0.2084418E+03  0.7546771E-02  0.1142806E+00
         -2   -1    0    0    0  501 -0.00000000000E+00  0.00000000000E+00  0.76580737883E+02  0.76580737883E+02  0.00000000000E+00 0. -1.
          2   -1    0    0  502    0  0.00000000000E+00 -0.00000000000E+00 -0.62832333277E+03  0.62832333277E+03  0.00000000000E+00 0.  1.
          6    1    1    2  502    0  0.11594790012E+03  0.86637655010E+01 -0.38566648155E+03  0.43839093440E+03  0.17300000000E+03 0.  1.
         -6    1    1    2    0  501 -0.11594790012E+03 -0.86637655010E+01 -0.16607611334E+03  0.26651313626E+03  0.17300000000E+03 0. -1.
<mgrwt>
<rscale>  2 0.20844178E+03</rscale>
<asrwt>0</asrwt>
<pdfrwt beam="2">  1        2 0.96665126E-01 0.20844178E+03</pdfrwt>
<pdfrwt beam="1">  1       -2 0.11781652E-01 0.20844178E+03</pdfrwt>
<totfact> 0.24151968E+03</totfact>
</mgrwt>
</event>
<event>
 4    1  0.8130725E-001  0.1949935E+03  0.7546771E-02  0.1154033E+00
          2   -1    0    0  502    0  0.00000000000E+00  0.00000000000E+00  0.11241008897E+04  0.11241008897E+04  0.00000000000E+00 0.  1.
         -2   -1    0    0    0  501 -0.00000000000E+00 -0.00000000000E+00 -0.33966505700E+02  0.33966505700E+02  0.00000000000E+00 0. -1.
          6    1    1    2  502    0  0.12059196942E+02  0.89151831705E+02  0.58246892746E+03  0.61424142223E+03  0.17300000000E+03 0.  1.
         -6    1    1    2    0  501 -0.12059196942E+02 -0.89151831705E+02  0.50766545651E+03  0.54382597314E+03  0.17300000000E+03 0. -1.
<mgrwt>
<rscale>  2 0.19499352E+03</rscale>
<asrwt>0</asrwt>
<pdfrwt beam="1">  1        2 0.17293857E+00 0.19499352E+03</pdfrwt>
<pdfrwt beam="2">  1       -2 0.52256171E-02 0.19499352E+03</pdfrwt>
<totfact> 0.40140332E+03</totfact>
</mgrwt>
</event>
<event>
 4    1  0.8130725E-001  0.2140382E+03  0.7546771E-02  0.1138408E+00
         -2   -1    0    0    0  501 -0.00000000000E+00  0.00000000000E+00  0.52605951457E+02  0.52605951457E+02  0.00000000000E+00 0.  1.
          2   -1    0    0  502    0  0.00000000000E+00 -0.00000000000E+00 -0.92435879688E+03  0.92435879688E+03  0.00000000000E+00 0. -1.
          6    1    1    2  502    0  0.71905093458E+02  0.10350359102E+03 -0.31835771012E+03  0.38361956078E+03  0.17300000000E+03 0.  1.
         -6    1    1    2    0  501 -0.71905093458E+02 -0.10350359102E+03 -0.55339513530E+03  0.59334518755E+03  0.17300000000E+03 0. -1.
<mgrwt>
<rscale>  2 0.21403816E+03</rscale>
<asrwt>0</asrwt>
<pdfrwt beam="2">  1        2 0.14220904E+00 0.21403816E+03</pdfrwt>
<pdfrwt beam="1">  1       -2 0.80932239E-02 0.21403816E+03</pdfrwt>
<totfact> 0.27057149E+03</totfact>
</mgrwt>
</event>
<event>
 4    1  0.8130725E-001  0.2795828E+03  0.7546771E-02  0.1095917E+00
          2   -1    0    0  502    0  0.00000000000E+00  0.00000000000E+00  0.17559711445E+04  0.17559711445E+04  0.00000000000E+00 0. -1.
         -2   -1    0    0    0  501 -0.00000000000E+00 -0.00000000000E+00 -0.12098015197E+03  0.12098015197E+03  0.00000000000E+00 0.  1.
          6    1    1    2  502    0 -0.55939678358E+02 -0.21238712802E+03  0.15635981027E+04  0.15883971690E+04  0.17300000000E+03 0. -1.
         -6    1    1    2    0  501  0.55939678358E+02  0.21238712802E+03  0.71392889842E+02  0.28855412747E+03  0.17300000000E+03 0.  1.
<mgrwt>
<rscale>  2 0.27958280E+03</rscale>
<asrwt>0</asrwt>
<pdfrwt beam="1">  1        2 0.27014939E+00 0.27958280E+03</pdfrwt>
<pdfrwt beam="2">  1       -2 0.18612332E-01 0.27958280E+03</pdfrwt>
<totfact> 0.23849309E+02</totfact>
</mgrwt>
</event>
<event>
 4    1  0.8130725E-001  0.1863244E+03  0.7546771E-02  0.1161819E+00
         -1   -1    0    0    0  501 -0.00000000000E+00  0.00000000000E+00  0.12800228502E+03  0.12800228502E+03  0.00000000000E+00 0.  1.
          1   -1    0    0  502    0  0.00000000000E+00 -0.00000000000E+00 -0.33036238231E+03  0.33036238231E+03  0.00000000000E+00 0. -1.
          6    1    1    2  502    0 -0.46289623340E+02  0.51429943802E+02 -0.42104547672E+01  0.18637192996E+03  0.17300000000E+03 0.  1.
         -6    1    1    2    0  501  0.46289623340E+02 -0.51429943802E+02 -0.19814964253E+03  0.27199273737E+03  0.17300000000E+03 0. -1.
<mgrwt>
<rscale>  2 0.18632436E+03</rscale>
<asrwt>0</asrwt>
<pdfrwt beam="2">  1        1 0.50824981E-01 0.18632436E+03</pdfrwt>
<pdfrwt beam="1">  1       -1 0.19692660E-01 0.18632436E+03</pdfrwt>
<totfact> 0.15892359E+03</totfact>
</mgrwt>
</event>
<event>
 4    1  0.8130725E-001  0.2029142E+03  0.7546771E-02  0.1147303E+00
         -2   -1    0    0    0  501 -0.00000000000E+00  0.00000000000E+00  0.14208401121E+03  0.14208401121E+03  0.00000000000E+00 0. -1.
          2   -1    0    0  502    0  0.00000000000E+00 -0.00000000000E+00 -0.29332127477E+03  0.29332127477E+03  0.00000000000E+00 0.  1.
          6    1    1    2  502    0 -0.49114341579E+02 -0.93983772233E+02 -0.99513926625E+02  0.22600263181E+03  0.17300000000E+03 0.  1.
         -6    1    1    2    0  501  0.49114341579E+02  0.93983772233E+02 -0.51723336939E+02  0.20940265418E+03  0.17300000000E+03 0. -1.
<mgrwt>
<rscale>  2 0.20291419E+03</rscale>
<asrwt>0</asrwt>
<pdfrwt beam="2">  1        2 0.45126350E-01 0.20291419E+03</pdfrwt>
<pdfrwt beam="1">  1       -2 0.21859079E-01 0.20291419E+03</pdfrwt>
<totfact> 0.19975430E+03</totfact>
</mgrwt>
</event>
<event>
 4    1  0.8130725E-001  0.2169054E+03  0.7546771E-02  0.1136211E+00
         -1   -1    0    0    0  501 -0.00000000000E+00  0.00000000000E+00  0.78211577373E+03  0.78211577373E+03  0.00000000000E+00 0. -1.
          1   -1    0    0  502    0  0.00000000000E+00 -0.00000000000E+00 -0.63374934963E+02  0.63374934963E+02  0.00000000000E+00 0.  1.
          6    1    1    2  502    0 -0.46270261347E+02  0.12238464265E+03  0.26407675575E+03  0.34173742957E+03  0.17300000000E+03 0.  1.
         -6    1    1    2    0  501  0.46270261347E+02 -0.12238464265E+03  0.45466408302E+03  0.50375327913E+03  0.17300000000E+03 0.  1.
<mgrwt>
<rscale>  2 0.21690537E+03</rscale>
<asrwt>0</asrwt>
<pdfrwt beam="2">  1        1 0.97499905E-02 0.21690537E+03</pdfrwt>
<pdfrwt beam="1">  1       -1 0.12032550E+00 0.21690537E+03</pdfrwt>
<totfact> 0.43681826E+02</totfact>
</mgrwt>
</event>
<event>
 4    1  0.8130725E-001  0.3368925E+03  0.7546771E-02  0.1068127E+00
         -1   -1    0    0    0  501 -0.00000000000E+00  0.00000000000E+00  0.10225015616E+04  0.10225015616E+04  0.00000000000E+00 0.  1.
          1   -1    0    0  502    0  0.00000000000E+00 -0.00000000000E+00 -0.19844273573E+03  0.19844273573E+03  0.00000000000E+00 0. -1.
          6    1    1    2  502    0  0.25174694570E+03 -0.14209515889E+03  0.81726989870E+03  0.88398339700E+03  0.17300000000E+03 0.  1.
         -6    1    1    2    0  501 -0.25174694570E+03  0.14209515889E+03  0.67889272193E+01  0.33696090038E+03  0.17300000000E+03 0. -1.
<mgrwt>
<rscale>  2 0.33689250E+03</rscale>
<asrwt>0</asrwt>
<pdfrwt beam="2">  1        1 0.30529652E-01 0.33689250E+03</pdfrwt>
<pdfrwt beam="1">  1       -1 0.15730793E+00 0.33689250E+03</pdfrwt>
<totfact> 0.49160167E+01</totfact>
</mgrwt>
</event>
<event>
 4    1  0.8130725E-001  0.2317054E+03  0.7546771E-02  0.1125445E+00
         -2   -1    0    0    0  501 -0.00000000000E+00  0.00000000000E+00  0.23614784751E+03  0.23614784751E+03  0.00000000000E+00 0. -1.
          2   -1    0    0  502    0  0.00000000000E+00 -0.00000000000E+00 -0.25978095552E+03  0.25978095552E+03  0.00000000000E+00 0.  1.
          6    1    1    2  502    0  0.59830589878E+02  0.14205176147E+03 -0.99433586415E+02  0.25213972422E+03  0.17300000000E+03 0. -1.
         -6    1    1    2    0  501 -0.59830589878E+02 -0.14205176147E+03  0.75800478407E+02  0.24378907881E+03  0.17300000000E+03 0.  1.
<mgrwt>
<rscale>  2 0.23170542E+03</rscale>
<asrwt>0</asrwt>
<pdfrwt beam="2">  1        2 0.39966301E-01 0.23170542E+03</pdfrwt>
<pdfrwt beam="1">  1       -2 0.36330438E-01 0.23170542E+03</pdfrwt>
<totfact> 0.91528306E+02</totfact>
</mgrwt>
</event>
<event>
 4    1  0.8130725E-001  0.2057476E+03  0.7546771E-02  0.1144978E+00
         -2   -1    0    0    0  501 -0.00000000000E+00  0.00000000000E+00  0.23725070078E+02  0.23725070078E+02  0.00000000000E+00 0. -1.
          2   -1    0    0  502    0  0.00000000000E+00 -0.00000000000E+00 -0.20857849804E+04  0.20857849804E+04  0.00000000000E+00 0.  1.
          6    1    1    2  502    0 -0.36051737527E+02 -0.10537248208E+03 -0.14320504029E+04  0.14467551431E+04  0.17300000000E+03 0. -1.
         -6    1    1    2    0  501  0.36051737527E+02  0.10537248208E+03 -0.63000950744E+03  0.66275490735E+03  0.17300000000E+03 0. -1.
<mgrwt>
<rscale>  2 0.20574763E+03</rscale>
<asrwt>0</asrwt>
<pdfrwt beam="2">  1        2 0.32089008E+00 0.20574763E+03</pdfrwt>
<pdfrwt beam="1">  1       -2 0.36500099E-02 0.20574763E+03</pdfrwt>
<totfact> 0.21207974E+03</totfact>
</mgrwt>
</event>
<event>
 4    1  0.8130725E-001  0.1885569E+03  0.7546771E-02  0.1159769E+00
          1   -1    0    0  502    0  0.00000000000E+00  0.00000000000E+00  0.43166040053E+03  0.43166040053E+03  0.00000000000E+00 0. -1.
         -1   -1    0    0    0  501 -0.00000000000E+00 -0.00000000000E+00 -0.85710325079E+02  0.85710325079E+02  0.00000000000E+00 0.  1.
          6    1    1    2  502    0  0.41543622722E+02  0.62440774540E+02  0.12186898498E+03  0.22451229903E+03  0.17300000000E+03 0.  1.
         -6    1    1    2    0  501 -0.41543622722E+02 -0.62440774540E+02  0.22408109047E+03  0.29285842658E+03  0.17300000000E+03 0.  1.
<mgrwt>
<rscale>  2 0.18855695E+03</rscale>
<asrwt>0</asrwt>
<pdfrwt beam="1">  1        1 0.66409291E-01 0.18855695E+03</pdfrwt>
<pdfrwt beam="2">  1       -1 0.13186204E-01 0.18855695E+03</pdfrwt>
<totfact> 0.21416768E+03</totfact>
</mgrwt>
</event>
<event>
 4    1  0.8130725E-001  0.3224444E+03  0.7546771E-02  0.1074530E+00
         -2   -1    0    0    0  501 -0.00000000000E+00  0.00000000000E+00  0.19073423028E+03  0.19073423028E+03  0.00000000000E+00 0.  1.
          2   -1    0    0  502    0  0.00000000000E+00 -0.00000000000E+00 -0.10434362113E+04  0.10434362113E+04  0.00000000000E+00 0. -1.
          6    1    1    2  502    0  0.27098561330E+03  0.24661055738E+02 -0.85280363164E+03  0.91172605777E+03  0.17300000000E+03 0. -1.
         -6    1    1    2    0  501 -0.27098561330E+03 -0.24661055738E+02  0.10165065732E+00  0.32244438376E+03  0.17300000000E+03 0.  1.
<mgrwt>
<rscale>  2 0.32244437E+03</rscale>
<asrwt>0</asrwt>
<pdfrwt beam="2">  1        2 0.16052864E+00 0.32244437E+03</pdfrwt>
<pdfrwt beam="1">  1       -2 0.29343728E-01 0.32244437E+03</pdfrwt>
<totfact> 0.26350194E+02</totfact>
</mgrwt>
</event>
<event>
 4    1  0.8130725E-001  0.2117739E+03  0.7546771E-02  0.1140169E+00
         -1   -1    0    0    0  501 -0.00000000000E+00  0.00000000000E+00  0.77660342609E+02  0.77660342609E+02  0.00000000000E+00 0.  1.
          1   -1    0    0  502    0  0.00000000000E+00 -0.00000000000E+00 -0.78672750286E+03  0.78672750286E+03  0.00000000000E+00 0. -1.
          6    1    1    2  502    0 -0.84849648878E+02  0.87862023051E+02 -0.13164667204E+03  0.24935726231E+03  0.17300000000E+03 0. -1.
         -6    1    1    2    0  501  0.84849648878E+02 -0.87862023051E+02 -0.57742048821E+03  0.61503058315E+03  0.17300000000E+03 0. -1.
<mgrwt>
<rscale>  2 0.21177393E+03</rscale>
<asrwt>0</asrwt>
<pdfrwt beam="2">  1        1 0.12103501E+00 0.21177393E+03</pdfrwt>
<pdfrwt beam="1">  1       -1 0.11947744E-01 0.21177393E+03</pdfrwt>
<totfact> 0.10924969E+03</totfact>
</mgrwt>
</event>
<event>
 4    1  0.8130725E-001  0.2430440E+03  0.7546771E-02  0.1117781E+00
         -2   -1    0    0    0  501 -0.00000000000E+00  0.00000000000E+00  0.19398612210E+03  0.19398612210E+03  0.00000000000E+00 0.  1.
          2   -1    0    0  502    0  0.00000000000E+00 -0.00000000000E+00 -0.61561668627E+03  0.61561668627E+03  0.00000000000E+00 0. -1.
          6    1    1    2  502    0 -0.12194407166E+03  0.11946137327E+03  0.76952855828E+02  0.25493551800E+03  0.17300000000E+03 0.  1.
         -6    1    1    2    0  501  0.12194407166E+03 -0.11946137327E+03 -0.49858341999E+03  0.55466729037E+03  0.17300000000E+03 0. -1.
<mgrwt>
<rscale>  2 0.24304398E+03</rscale>
<asrwt>0</asrwt>
<pdfrwt beam="2">  1        2 0.94710259E-01 0.24304398E+03</pdfrwt>
<pdfrwt beam="1">  1       -2 0.29844019E-01 0.24304398E+03</pdfrwt>
<totfact> 0.50882105E+02</totfact>
</mgrwt>
</event>
<event>
 4    1  0.8130725E-001  0.1833399E+03  0.7546771E-02  0.1164609E+00
         -2   -1    0    0    0  501 -0.00000000000E+00  0.00000000000E+00  0.58733870775E+02  0.58733870775E+02  0.00000000000E+00 0. -1.
          2   -1    0    0  502    0  0.00000000000E+00 -0.00000000000E+00 -0.57236254844E+03  0.57236254844E+03  0.00000000000E+00 0.  1.
          6    1    1    2  502    0  0.51367752183E+02  0.32340080850E+02 -0.26005294964E+03  0.31818400873E+03  0.17300000000E+03 0.  1.
         -6    1    1    2    0  501 -0.51367752183E+02 -0.32340080850E+02 -0.25357572803E+03  0.31291241049E+03  0.17300000000E+03 0. -1.
<mgrwt>
<rscale>  2 0.18333992E+03</rscale>
<asrwt>0</asrwt>
<pdfrwt beam="2">  1        2 0.88055775E-01 0.18333992E+03</pdfrwt>
<pdfrwt beam="1">  1       -2 0.90359803E-02 0.18333992E+03</pdfrwt>
<totfact> 0.40845128E+03</totfact>
</mgrwt>
</event>
<event>
 4    1  0.8130725E-001  0.2610935E+03  0.7546771E-02  0.1106488E+00
          2   -1    0    0  502    0  0.00000000000E+00  0.00000000000E+00  0.15024136021E+03  0.15024136021E+03  0.00000000000E+00 0. -1.
         -2   -1    0    0    0  501 -0.00000000000E+00 -0.00000000000E+00 -0.46706093384E+03  0.46706093384E+03  0.00000000000E+00 0.  1.
          6    1    1    2  502    0  0.17296730007E+03  0.91231171126E+02 -0.21054420570E+03  0.33540822297E+03  0.17300000000E+03 0.  1.
         -6    1    1    2    0  501 -0.17296730007E+03 -0.91231171126E+02 -0.10627536793E+03  0.28189407108E+03  0.17300000000E+03 0. -1.
<mgrwt>
<rscale>  2 0.26109350E+03</rscale>
<asrwt>0</asrwt>
<pdfrwt beam="1">  1        2 0.23114056E-01 0.26109350E+03</pdfrwt>
<pdfrwt beam="2">  1       -2 0.71855528E-01 0.26109350E+03</pdfrwt>
<totfact> 0.42508020E+02</totfact>
</mgrwt>
</event>
<event>
 4    1  0.8130725E-001  0.1915390E+03  0.7546771E-02  0.1157081E+00
         -2   -1    0    0    0  501 -0.00000000000E+00  0.00000000000E+00  0.33656091556E+02  0.33656091556E+02  0.00000000000E+00 0. -1.
          2   -1    0    0  502    0  0.00000000000E+00 -0.00000000000E+00 -0.15442206369E+04  0.15442206369E+04  0.00000000000E+00 0.  1.
          6    1    1    2  502    0 -0.54721107702E+02 -0.61349620845E+02 -0.32743091861E+03  0.37933913859E+03  0.17300000000E+03 0. -1.
         -6    1    1    2    0  501  0.54721107702E+02  0.61349620845E+02 -0.11831336267E+04  0.11985375898E+04  0.17300000000E+03 0.  1.
<mgrwt>
<rscale>  2 0.19153897E+03</rscale>
<asrwt>0</asrwt>
<pdfrwt beam="2">  1        2 0.23757237E+00 0.19153897E+03</pdfrwt>
<pdfrwt beam="1">  1       -2 0.51778611E-02 0.19153897E+03</pdfrwt>
<totfact> 0.23995330E+03</totfact>
</mgrwt>
</event>
<event>
 4    1  0.8130725E-001  0.3752896E+03  0.7546771E-02  0.1052689E+00
          4   -1    0    0  502    0  0.00000000000E+00  0.00000000000E+00  0.13674306048E+04  0.13674306048E+04  0.00000000000E+00 0.  1.
         -4   -1    0    0    0  501 -0.00000000000E+00 -0.00000000000E+00 -0.10302574880E+03  0.10302574880E+03  0.00000000000E+00 0. -1.
          6    1    1    2  502    0 -0.25530717508E+03  0.21384932737E+03  0.64432084302E+03  0.74564846758E+03  0.17300000000E+03 0. -1.
         -6    1    1    2    0  501  0.25530717508E+03 -0.21384932737E+03  0.62008401296E+03  0.72480788599E+03  0.17300000000E+03 0.  1.
<mgrwt>
<rscale>  2 0.37528961E+03</rscale>
<asrwt>0</asrwt>
<pdfrwt beam="1">  1        4 0.21037393E+00 0.37528961E+03</pdfrwt>
<pdfrwt beam="2">  1       -4 0.15850116E-01 0.37528961E+03</pdfrwt>
<totfact> 0.78355022E+00</totfact>
</mgrwt>
</event>
<event>
 4    1  0.8130725E-001  0.1920147E+03  0.7546771E-02  0.1156657E+00
         -2   -1    0    0    0  501 -0.00000000000E+00  0.00000000000E+00  0.51572499501E+02  0.51572499501E+02  0.00000000000E+00 0. -1.
          2   -1    0    0  502    0  0.00000000000E+00 -0.00000000000E+00 -0.91295675619E+03  0.91295675619E+03  0.00000000000E+00 0.  1.
          6    1    1    2  502    0  0.73916355366E+02 -0.38431954928E+02 -0.65531051141E+03  0.68286273080E+03  0.17300000000E+03 0.  1.
         -6    1    1    2    0  501 -0.73916355366E+02  0.38431954928E+02 -0.20607374527E+03  0.28166652488E+03  0.17300000000E+03 0. -1.
<mgrwt>
<rscale>  2 0.19201469E+03</rscale>
<asrwt>0</asrwt>
<pdfrwt beam="2">  1        2 0.14045488E+00 0.19201469E+03</pdfrwt>
<pdfrwt beam="1">  1       -2 0.79342312E-02 0.19201469E+03</pdfrwt>
<totfact> 0.28320230E+03</totfact>
</mgrwt>
</event>
<event>
 4    1  0.8130725E-001  0.1758179E+03  0.7546771E-02  0.1171913E+00
         -4   -1    0    0    0  501 -0.00000000000E+00  0.00000000000E+00  0.18053146109E+03  0.18053146109E+03  0.00000000000E+00 0.  1.
          4   -1    0    0  502    0  0.00000000000E+00 -0.00000000000E+00 -0.17194873388E+03  0.17194873388E+03  0.00000000000E+00 0. -1.
          6    1    1    2  502    0  0.55253149070E+01  0.30861077357E+02 -0.71234606734E+01  0.17596215187E+03  0.17300000000E+03 0. -1.
         -6    1    1    2    0  501 -0.55253149070E+01 -0.30861077357E+02  0.15706187876E+02  0.17651804309E+03  0.17300000000E+03 0.  1.
<mgrwt>
<rscale>  2 0.17581790E+03</rscale>
<asrwt>0</asrwt>
<pdfrwt beam="2">  1        4 0.26453651E-01 0.17581790E+03</pdfrwt>
<pdfrwt beam="1">  1       -4 0.27774071E-01 0.17581790E+03</pdfrwt>
<totfact> 0.28894436E+02</totfact>
</mgrwt>
</event>
<event>
 4    1  0.8130725E-001  0.3886131E+03  0.7546771E-02  0.1047795E+00
          1   -1    0    0  502    0  0.00000000000E+00  0.00000000000E+00  0.15027845780E+04  0.15027845780E+04  0.00000000000E+00 0. -1.
         -1   -1    0    0    0  501 -0.00000000000E+00 -0.00000000000E+00 -0.16163276203E+03  0.16163276203E+03  0.00000000000E+00 0.  1.
          6    1    1    2  502    0 -0.15793580404E+03 -0.31007645683E+03  0.15874379811E+03  0.41978532694E+03  0.17300000000E+03 0.  1.
         -6    1    1    2    0  501  0.15793580404E+03  0.31007645683E+03  0.11824080178E+04  0.12446320131E+04  0.17300000000E+03 0. -1.
<mgrwt>
<rscale>  2 0.38861308E+03</rscale>
<asrwt>0</asrwt>
<pdfrwt beam="1">  1        1 0.23119762E+00 0.38861308E+03</pdfrwt>
<pdfrwt beam="2">  1       -1 0.24866580E-01 0.38861308E+03</pdfrwt>
<totfact> 0.98598565E+01</totfact>
</mgrwt>
</event>
<event>
 4    1  0.8130725E-001  0.2019908E+03  0.7546771E-02  0.1148070E+00
          2   -1    0    0  502    0  0.00000000000E+00  0.00000000000E+00  0.79018213408E+02  0.79018213408E+02  0.00000000000E+00 0. -1.
         -2   -1    0    0    0  501 -0.00000000000E+00 -0.00000000000E+00 -0.53074294736E+03  0.53074294736E+03  0.00000000000E+00 0.  1.
          6    1    1    2  502    0 -0.21055442877E+02 -0.10211736662E+03 -0.17563865963E+03  0.26767373236E+03  0.17300000000E+03 0. -1.
         -6    1    1    2    0  501  0.21055442877E+02  0.10211736662E+03 -0.27608607433E+03  0.34208742841E+03  0.17300000000E+03 0.  1.
<mgrwt>
<rscale>  2 0.20199081E+03</rscale>
<asrwt>0</asrwt>
<pdfrwt beam="1">  1        2 0.12156648E-01 0.20199081E+03</pdfrwt>
<pdfrwt beam="2">  1       -2 0.81652762E-01 0.20199081E+03</pdfrwt>
<totfact> 0.68035732E+02</totfact>
</mgrwt>
</event>
<event>
 4    1  0.8130725E-001  0.2181261E+03  0.7546771E-02  0.1135288E+00
          1   -1    0    0  502    0  0.00000000000E+00  0.00000000000E+00  0.42996156483E+03  0.42996156483E+03  0.00000000000E+00 0.  1.
         -1   -1    0    0    0  501 -0.00000000000E+00 -0.00000000000E+00 -0.11240034613E+03  0.11240034613E+03  0.00000000000E+00 0. -1.
          6    1    1    2  502    0 -0.26291768175E+02 -0.13022570025E+03  0.19253689591E+03  0.29094577908E+03  0.17300000000E+03 0.  1.
         -6    1    1    2    0  501  0.26291768175E+02  0.13022570025E+03  0.12502432279E+03  0.25141613188E+03  0.17300000000E+03 0.  1.
<mgrwt>
<rscale>  2 0.21812609E+03</rscale>
<asrwt>0</asrwt>
<pdfrwt beam="1">  1        1 0.66147932E-01 0.21812609E+03</pdfrwt>
<pdfrwt beam="2">  1       -1 0.17292361E-01 0.21812609E+03</pdfrwt>
<totfact> 0.14053495E+03</totfact>
</mgrwt>
</event>
<event>
 4    1  0.8130725E-001  0.1894939E+03  0.7546771E-02  0.1158919E+00
         -1   -1    0    0    0  501 -0.00000000000E+00  0.00000000000E+00  0.86947079454E+02  0.86947079454E+02  0.00000000000E+00 0.  1.
          1   -1    0    0  502    0  0.00000000000E+00 -0.00000000000E+00 -0.63938061064E+03  0.63938061064E+03  0.00000000000E+00 0. -1.
          6    1    1    2  502    0 -0.74705504944E+02  0.19950691988E+02 -0.60116281431E+02  0.19880118177E+03  0.17300000000E+03 0.  1.
         -6    1    1    2    0  501  0.74705504944E+02 -0.19950691988E+02 -0.49231724976E+03  0.52752650833E+03  0.17300000000E+03 0. -1.
<mgrwt>
<rscale>  2 0.18949391E+03</rscale>
<asrwt>0</asrwt>
<pdfrwt beam="2">  1        1 0.98366242E-01 0.18949391E+03</pdfrwt>
<pdfrwt beam="1">  1       -1 0.13376475E-01 0.18949391E+03</pdfrwt>
<totfact> 0.12385833E+03</totfact>
</mgrwt>
</event>
<event>
 4    1  0.8130725E-001  0.1752301E+03  0.7546771E-02  0.1172501E+00
          2   -1    0    0  502    0  0.00000000000E+00  0.00000000000E+00  0.15872350007E+03  0.15872350007E+03  0.00000000000E+00 0. -1.
         -2   -1    0    0    0  501 -0.00000000000E+00 -0.00000000000E+00 -0.27003817000E+03  0.27003817000E+03  0.00000000000E+00 0.  1.
          6    1    1    2  502    0 -0.27445465170E+02 -0.48316959756E+01  0.58510724766E+02  0.18474063916E+03  0.17300000000E+03 0. -1.
         -6    1    1    2    0  501  0.27445465170E+02  0.48316959756E+01 -0.16982539470E+03  0.24402103092E+03  0.17300000000E+03 0.  1.
<mgrwt>
<rscale>  2 0.17523013E+03</rscale>
<asrwt>0</asrwt>
<pdfrwt beam="1">  1        2 0.24419000E-01 0.17523013E+03</pdfrwt>
<pdfrwt beam="2">  1       -2 0.41544333E-01 0.17523013E+03</pdfrwt>
<totfact> 0.12097593E+03</totfact>
</mgrwt>
</event>
<event>
 4    1  0.8130725E-001  0.1741316E+03  0.7546771E-02  0.1173606E+00
         -1   -1    0    0    0  501 -0.00000000000E+00  0.00000000000E+00  0.37626084009E+02  0.37626084009E+02  0.00000000000E+00 0.  1.
          1   -1    0    0  502    0  0.00000000000E+00 -0.00000000000E+00 -0.81593512710E+03  0.81593512710E+03  0.00000000000E+00 0. -1.
          6    1    1    2  502    0  0.73337318223E+01  0.18412725578E+02 -0.43655041896E+03  0.46999795785E+03  0.17300000000E+03 0.  1.
         -6    1    1    2    0  501 -0.73337318223E+01 -0.18412725578E+02 -0.34175862413E+03  0.38356325326E+03  0.17300000000E+03 0.  1.
<mgrwt>
<rscale>  2 0.17413159E+03</rscale>
<asrwt>0</asrwt>
<pdfrwt beam="2">  1        1 0.12552848E+00 0.17413159E+03</pdfrwt>
<pdfrwt beam="1">  1       -1 0.57886283E-02 0.17413159E+03</pdfrwt>
<totfact> 0.31134568E+03</totfact>
</mgrwt>
</event>
<event>
 4    1  0.8130725E-001  0.1781224E+03  0.7546771E-02  0.1169633E+00
         -1   -1    0    0    0  501 -0.00000000000E+00  0.00000000000E+00  0.21769128397E+03  0.21769128397E+03  0.00000000000E+00 0. -1.
          1   -1    0    0  502    0  0.00000000000E+00 -0.00000000000E+00 -0.14909135368E+03  0.14909135368E+03  0.00000000000E+00 0.  1.
          6    1    1    2  502    0 -0.23805228110E+02  0.35098606448E+02  0.68284034646E+01  0.17825326969E+03  0.17300000000E+03 0.  1.
         -6    1    1    2    0  501  0.23805228110E+02 -0.35098606448E+02  0.61771526820E+02  0.18852936797E+03  0.17300000000E+03 0. -1.
<mgrwt>
<rscale>  2 0.17812243E+03</rscale>
<asrwt>0</asrwt>
<pdfrwt beam="2">  1        1 0.22937131E-01 0.17812243E+03</pdfrwt>
<pdfrwt beam="1">  1       -1 0.33490967E-01 0.17812243E+03</pdfrwt>
<totfact> 0.17810442E+03</totfact>
</mgrwt>
</event>
<event>
 4    1  0.8130725E-001  0.3357649E+03  0.7546771E-02  0.1068614E+00
          2   -1    0    0  502    0  0.00000000000E+00  0.00000000000E+00  0.10669057331E+04  0.10669057331E+04  0.00000000000E+00 0. -1.
         -2   -1    0    0    0  501 -0.00000000000E+00 -0.00000000000E+00 -0.10655799503E+03  0.10655799503E+03  0.00000000000E+00 0.  1.
          6    1    1    2  502    0 -0.66895176617E+02  0.27988227713E+03  0.53378824760E+03  0.63060918720E+03  0.17300000000E+03 0.  1.
         -6    1    1    2    0  501  0.66895176617E+02 -0.27988227713E+03  0.42655949047E+03  0.54285454093E+03  0.17300000000E+03 0.  1.
<mgrwt>
<rscale>  2 0.33576488E+03</rscale>
<asrwt>0</asrwt>
<pdfrwt beam="1">  1        2 0.16413934E+00 0.33576488E+03</pdfrwt>
<pdfrwt beam="2">  1       -2 0.16393538E-01 0.33576488E+03</pdfrwt>
<totfact> 0.70469865E+02</totfact>
</mgrwt>
</event>
<event>
 4    1  0.8130725E-001  0.2051407E+03  0.7546771E-02  0.1145473E+00
          2   -1    0    0  502    0  0.00000000000E+00  0.00000000000E+00  0.51982192185E+03  0.51982192185E+03  0.00000000000E+00 0. -1.
         -2   -1    0    0    0  501 -0.00000000000E+00 -0.00000000000E+00 -0.21790700201E+03  0.21790700201E+03  0.00000000000E+00 0.  1.
          6    1    1    2  502    0  0.10571821345E+03 -0.31262854693E+02  0.44338200282E+03  0.48853895153E+03  0.17300000000E+03 0. -1.
         -6    1    1    2    0  501 -0.10571821345E+03  0.31262854693E+02 -0.14146708299E+03  0.24918997233E+03  0.17300000000E+03 0.  1.
<mgrwt>
<rscale>  2 0.20514070E+03</rscale>
<asrwt>0</asrwt>
<pdfrwt beam="1">  1        2 0.79972603E-01 0.20514070E+03</pdfrwt>
<pdfrwt beam="2">  1       -2 0.33524154E-01 0.20514070E+03</pdfrwt>
<totfact> 0.49977188E+02</totfact>
</mgrwt>
</event>
<event>
 4    1  0.8130725E-001  0.2331470E+03  0.7546771E-02  0.1124444E+00
          2   -1    0    0  502    0  0.00000000000E+00  0.00000000000E+00  0.76733032746E+03  0.76733032746E+03  0.00000000000E+00 0.  1.
         -2   -1    0    0    0  501 -0.00000000000E+00 -0.00000000000E+00 -0.75979546226E+02  0.75979546226E+02  0.00000000000E+00 0. -1.
          6    1    1    2  502    0  0.83502671307E+02 -0.13212048948E+03  0.23600735372E+03  0.33174838488E+03  0.17300000000E+03 0. -1.
         -6    1    1    2    0  501 -0.83502671307E+02  0.13212048948E+03  0.45534342752E+03  0.51156148881E+03  0.17300000000E+03 0.  1.
<mgrwt>
<rscale>  2 0.23314699E+03</rscale>
<asrwt>0</asrwt>
<pdfrwt beam="1">  1        2 0.11805081E+00 0.23314699E+03</pdfrwt>
<pdfrwt beam="2">  1       -2 0.11689162E-01 0.23314699E+03</pdfrwt>
<totfact> 0.19250732E+03</totfact>
</mgrwt>
</event>
<event>
 4    1  0.8130725E-001  0.2025340E+03  0.7546771E-02  0.1147619E+00
          2   -1    0    0  502    0  0.00000000000E+00  0.00000000000E+00  0.17650060452E+04  0.17650060452E+04  0.00000000000E+00 0.  1.
         -2   -1    0    0    0  501 -0.00000000000E+00 -0.00000000000E+00 -0.24364567671E+02  0.24364567671E+02  0.00000000000E+00 0. -1.
          6    1    1    2  502    0 -0.39367373791E+02 -0.97679155847E+02  0.67816866366E+03  0.70776602347E+03  0.17300000000E+03 0.  1.
         -6    1    1    2    0  501  0.39367373791E+02  0.97679155847E+02  0.10624728138E+04  0.10816045894E+04  0.17300000000E+03 0. -1.
<mgrwt>
<rscale>  2 0.20253397E+03</rscale>
<asrwt>0</asrwt>
<pdfrwt beam="1">  1        2 0.27153929E+00 0.20253397E+03</pdfrwt>
<pdfrwt beam="2">  1       -2 0.37483964E-02 0.20253397E+03</pdfrwt>
<totfact> 0.29933609E+03</totfact>
</mgrwt>
</event>
<event>
 4    1  0.8130725E-001  0.2464549E+03  0.7546771E-02  0.1115566E+00
          2   -1    0    0  502    0  0.00000000000E+00  0.00000000000E+00  0.11250088446E+04  0.11250088446E+04  0.00000000000E+00 0. -1.
         -2   -1    0    0    0  501 -0.00000000000E+00 -0.00000000000E+00 -0.85385849975E+02  0.85385849975E+02  0.00000000000E+00 0.  1.
          6    1    1    2  502    0  0.16658523943E+03  0.55320785133E+02  0.15283754106E+03  0.28999887107E+03  0.17300000000E+03 0.  1.
         -6    1    1    2    0  501 -0.16658523943E+03 -0.55320785133E+02  0.88678545358E+03  0.92039582352E+03  0.17300000000E+03 0. -1.
<mgrwt>
<rscale>  2 0.24645493E+03</rscale>
<asrwt>0</asrwt>
<pdfrwt beam="1">  1        2 0.17307827E+00 0.24645493E+03</pdfrwt>
<pdfrwt beam="2">  1       -2 0.13136285E-01 0.24645493E+03</pdfrwt>
<totfact> 0.94478197E+02</totfact>
</mgrwt>
</event>
<event>
 4    1  0.8130725E-001  0.2260440E+03  0.7546771E-02  0.1129456E+00
         -1   -1    0    0    0  501 -0.00000000000E+00  0.00000000000E+00  0.42169538352E+02  0.42169538352E+02  0.00000000000E+00 0. -1.
          1   -1    0    0  502    0  0.00000000000E+00 -0.00000000000E+00 -0.12456206222E+04  0.12456206222E+04  0.00000000000E+00 0.  1.
          6    1    1    2  502    0  0.41807486645E+02 -0.13935209389E+03 -0.49543382069E+03  0.54456454411E+03  0.17300000000E+03 0. -1.
         -6    1    1    2    0  501 -0.41807486645E+02  0.13935209389E+03 -0.70801726311E+03  0.74322561640E+03  0.17300000000E+03 0.  1.
<mgrwt>
<rscale>  2 0.22604396E+03</rscale>
<asrwt>0</asrwt>
<pdfrwt beam="2">  1        1 0.19163397E+00 0.22604396E+03</pdfrwt>
<pdfrwt beam="1">  1       -1 0.64876204E-02 0.22604396E+03</pdfrwt>
<totfact> 0.12649145E+03</totfact>
</mgrwt>
</event>
<event>
 4    1  0.8130725E-001  0.3659030E+03  0.7546771E-02  0.1056271E+00
         -2   -1    0    0    0  501 -0.00000000000E+00  0.00000000000E+00  0.27205100751E+03  0.27205100751E+03  0.00000000000E+00 0.  1.
          2   -1    0    0  502    0  0.00000000000E+00 -0.00000000000E+00 -0.52923829113E+03  0.52923829113E+03  0.00000000000E+00 0. -1.
          6    1    1    2  502    0 -0.22034049244E+02 -0.32166830413E+03 -0.23467954788E+03  0.43469470597E+03  0.17300000000E+03 0. -1.
         -6    1    1    2    0  501  0.22034049244E+02  0.32166830413E+03 -0.22507735737E+02  0.36659459267E+03  0.17300000000E+03 0.  1.
<mgrwt>
<rscale>  2 0.36590299E+03</rscale>
<asrwt>0</asrwt>
<pdfrwt beam="2">  1        2 0.81421275E-01 0.36590299E+03</pdfrwt>
<pdfrwt beam="1">  1       -2 0.41854001E-01 0.36590299E+03</pdfrwt>
<totfact> 0.31904963E+02</totfact>
</mgrwt>
</event>
<event>
 4    1  0.8130725E-001  0.1821506E+03  0.7546771E-02  0.1165738E+00
         -1   -1    0    0    0  501 -0.00000000000E+00  0.00000000000E+00  0.44194335371E+02  0.44194335371E+02  0.00000000000E+00 0.  1.
          1   -1    0    0  502    0  0.00000000000E+00 -0.00000000000E+00 -0.78961121668E+03  0.78961121668E+03  0.00000000000E+00 0. -1.
          6    1    1    2  502    0  0.35392409400E+02  0.44690351773E+02 -0.28021897218E+03  0.33421777714E+03  0.17300000000E+03 0. -1.
         -6    1    1    2    0  501 -0.35392409400E+02 -0.44690351773E+02 -0.46519790912E+03  0.49958777491E+03  0.17300000000E+03 0. -1.
<mgrwt>
<rscale>  2 0.18215062E+03</rscale>
<asrwt>0</asrwt>
<pdfrwt beam="2">  1        1 0.12147865E+00 0.18215062E+03</pdfrwt>
<pdfrwt beam="1">  1       -1 0.67991286E-02 0.18215062E+03</pdfrwt>
<totfact> 0.25730668E+03</totfact>
</mgrwt>
</event>
<event>
 4    1  0.8130725E-001  0.2219810E+03  0.7546771E-02  0.1132415E+00
         -1   -1    0    0    0  501 -0.00000000000E+00  0.00000000000E+00  0.56955025120E+02  0.56955025120E+02  0.00000000000E+00 0.  1.
          1   -1    0    0  502    0  0.00000000000E+00 -0.00000000000E+00 -0.31155175855E+04  0.31155175855E+04  0.00000000000E+00 0. -1.
          6    1    1    2  502    0  0.11388942267E+03  0.79848260315E+02 -0.18116305422E+03  0.28652329310E+03  0.17300000000E+03 0.  1.
         -6    1    1    2    0  501 -0.11388942267E+03 -0.79848260315E+02 -0.28773995062E+04  0.28859493175E+04  0.17300000000E+03 0. -1.
<mgrwt>
<rscale>  2 0.22198096E+03</rscale>
<asrwt>0</asrwt>
<pdfrwt beam="2">  1        1 0.47931050E+00 0.22198096E+03</pdfrwt>
<pdfrwt beam="1">  1       -1 0.87623096E-02 0.22198096E+03</pdfrwt>
<totfact> 0.45893408E+01</totfact>
</mgrwt>
</event>
<event>
 4    1  0.8130725E-001  0.1757865E+03  0.7546771E-02  0.1171944E+00
          1   -1    0    0  502    0  0.00000000000E+00  0.00000000000E+00  0.15473833589E+04  0.15473833589E+04  0.00000000000E+00 0.  1.
         -1   -1    0    0    0  501 -0.00000000000E+00 -0.00000000000E+00 -0.20821885579E+02  0.20821885579E+02  0.00000000000E+00 0. -1.
          6    1    1    2  502    0 -0.14834653665E+02 -0.27419231717E+02  0.60465869292E+03  0.62969279505E+03  0.17300000000E+03 0. -1.
         -6    1    1    2    0  501  0.14834653665E+02  0.27419231717E+02  0.92190278044E+03  0.93851244946E+03  0.17300000000E+03 0.  1.
<mgrwt>
<rscale>  2 0.17578646E+03</rscale>
<asrwt>0</asrwt>
<pdfrwt beam="1">  1        1 0.23805889E+00 0.17578646E+03</pdfrwt>
<pdfrwt beam="2">  1       -1 0.32033682E-02 0.17578646E+03</pdfrwt>
<totfact> 0.22762148E+03</totfact>
</mgrwt>
</event>
<event>
 4    1  0.8130725E-001  0.1881956E+03  0.7546771E-02  0.1160099E+00
          1   -1    0    0  502    0  0.00000000000E+00  0.00000000000E+00  0.11634883162E+04  0.11634883162E+04  0.00000000000E+00 0. -1.
         -1   -1    0    0    0  501 -0.00000000000E+00 -0.00000000000E+00 -0.31515591824E+02  0.31515591824E+02  0.00000000000E+00 0.  1.
          6    1    1    2  502    0  0.58350433885E+02 -0.45648871288E+02  0.45564830718E+03  0.49298374458E+03  0.17300000000E+03 0. -1.
         -6    1    1    2    0  501 -0.58350433885E+02  0.45648871288E+02  0.67632441717E+03  0.70202016342E+03  0.17300000000E+03 0. -1.
<mgrwt>
<rscale>  2 0.18819562E+03</rscale>
<asrwt>0</asrwt>
<pdfrwt beam="1">  1        1 0.17899817E+00 0.18819562E+03</pdfrwt>
<pdfrwt beam="2">  1       -1 0.48485535E-02 0.18819562E+03</pdfrwt>
<totfact> 0.22325206E+03</totfact>
</mgrwt>
</event>
<event>
 4    1  0.8130725E-001  0.2081718E+03  0.7546771E-02  0.1143022E+00
         -2   -1    0    0    0  501 -0.00000000000E+00  0.00000000000E+00  0.15452975939E+02  0.15452975939E+02  0.00000000000E+00 0. -1.
          2   -1    0    0  502    0  0.00000000000E+00 -0.00000000000E+00 -0.28794829601E+04  0.28794829601E+04  0.00000000000E+00 0.  1.
          6    1    1    2  502    0 -0.62957873107E+02 -0.97174140841E+02 -0.16658316728E+04  0.16787884529E+04  0.17300000000E+03 0.  1.
         -6    1    1    2    0  501  0.62957873107E+02  0.97174140841E+02 -0.11981983114E+04  0.12161474832E+04  0.17300000000E+03 0. -1.
<mgrwt>
<rscale>  2 0.20817182E+03</rscale>
<asrwt>0</asrwt>
<pdfrwt beam="2">  1        2 0.44299731E+00 0.20817182E+03</pdfrwt>
<pdfrwt beam="1">  1       -2 0.23773813E-02 0.20817182E+03</pdfrwt>
<totfact> 0.14825215E+03</totfact>
</mgrwt>
</event>
<event>
 4    1  0.8130725E-001  0.1776345E+03  0.7546771E-02  0.1170112E+00
          2   -1    0    0  502    0  0.00000000000E+00  0.00000000000E+00  0.56259504540E+03  0.56259504540E+03  0.00000000000E+00 0. -1.
         -2   -1    0    0    0  501 -0.00000000000E+00 -0.00000000000E+00 -0.65479410565E+02  0.65479410565E+02  0.00000000000E+00 0.  1.
          6    1    1    2  502    0 -0.15861615486E+02  0.37059804646E+02  0.12961793796E+03  0.21989731651E+03  0.17300000000E+03 0.  1.
         -6    1    1    2    0  501  0.15861615486E+02 -0.37059804646E+02  0.36749769688E+03  0.40817713946E+03  0.17300000000E+03 0. -1.
<mgrwt>
<rscale>  2 0.17763451E+03</rscale>
<asrwt>0</asrwt>
<pdfrwt beam="1">  1        2 0.86553081E-01 0.17763451E+03</pdfrwt>
<pdfrwt beam="2">  1       -2 0.10073756E-01 0.17763451E+03</pdfrwt>
<totfact> 0.35051168E+03</totfact>
</mgrwt>
</event>
<event>
 4    1  0.8130725E-001  0.2479647E+03  0.7546771E-02  0.1114598E+00
         -2   -1    0    0    0  501 -0.00000000000E+00  0.00000000000E+00  0.20350127575E+02  0.20350127575E+02  0.00000000000E+00 0. -1.
          2   -1    0    0  502    0  0.00000000000E+00 -0.00000000000E+00 -0.30339245507E+04  0.30339245507E+04  0.00000000000E+00 0.  1.
          6    1    1    2  502    0  0.16483797627E+03 -0.66226424164E+02 -0.16047871992E+04  0.16238314113E+04  0.17300000000E+03 0.  1.
         -6    1    1    2    0  501 -0.16483797627E+03  0.66226424164E+02 -0.14087872239E+04  0.14304432670E+04  0.17300000000E+03 0.  1.
<mgrwt>
<rscale>  2 0.24796471E+03</rscale>
<asrwt>0</asrwt>
<pdfrwt beam="2">  1        2 0.46675778E+00 0.24796471E+03</pdfrwt>
<pdfrwt beam="1">  1       -2 0.31307878E-02 0.24796471E+03</pdfrwt>
<totfact> 0.79400640E+02</totfact>
</mgrwt>
</event>
<event>
 4    1  0.8130725E-001  0.1871964E+03  0.7546771E-02  0.1161015E+00
          1   -1    0    0  502    0  0.00000000000E+00  0.00000000000E+00  0.18643399323E+03  0.18643399323E+03  0.00000000000E+00 0.  1.
         -1   -1    0    0    0  501 -0.00000000000E+00 -0.00000000000E+00 -0.20425423580E+03  0.20425423580E+03  0.00000000000E+00 0. -1.
          6    1    1    2  502    0  0.70531671207E+02 -0.11779765814E+02  0.46260395000E+02  0.19282765277E+03  0.17300000000E+03 0.  1.
         -6    1    1    2    0  501 -0.70531671207E+02  0.11779765814E+02 -0.64080637570E+02  0.19786057626E+03  0.17300000000E+03 0. -1.
<mgrwt>
<rscale>  2 0.18719637E+03</rscale>
<asrwt>0</asrwt>
<pdfrwt beam="1">  1        1 0.28682153E-01 0.18719637E+03</pdfrwt>
<pdfrwt beam="2">  1       -1 0.31423729E-01 0.18719637E+03</pdfrwt>
<totfact> 0.14992583E+03</totfact>
</mgrwt>
</event>
<event>
 4    1  0.8130725E-001  0.1830477E+03  0.7546771E-02  0.1164886E+00
          1   -1    0    0  502    0  0.00000000000E+00  0.00000000000E+00  0.47344219404E+03  0.47344219404E+03  0.00000000000E+00 0. -1.
         -1   -1    0    0    0  501 -0.00000000000E+00 -0.00000000000E+00 -0.77889135128E+02  0.77889135128E+02  0.00000000000E+00 0.  1.
          6    1    1    2  502    0  0.57639580276E+02 -0.15973307498E+02  0.11444760855E+03  0.21588127031E+03  0.17300000000E+03 0.  1.
         -6    1    1    2    0  501 -0.57639580276E+02  0.15973307498E+02  0.28110545036E+03  0.33545005886E+03  0.17300000000E+03 0.  1.
<mgrwt>
<rscale>  2 0.18304772E+03</rscale>
<asrwt>0</asrwt>
<pdfrwt beam="1">  1        1 0.72837259E-01 0.18304772E+03</pdfrwt>
<pdfrwt beam="2">  1       -1 0.11982944E-01 0.18304772E+03</pdfrwt>
<totfact> 0.22041653E+03</totfact>
</mgrwt>
</event>
<event>
 4    1  0.8130725E-001  0.1862338E+03  0.7546771E-02  0.1161903E+00
          2   -1    0    0  502    0  0.00000000000E+00  0.00000000000E+00  0.34979906633E+04  0.34979906633E+04  0.00000000000E+00 0. -1.
         -2   -1    0    0    0  501 -0.00000000000E+00 -0.00000000000E+00 -0.99874172908E+01  0.99874172908E+01  0.00000000000E+00 0.  1.
          6    1    1    2  502    0  0.63667857023E+02 -0.26465787837E+02  0.18932225469E+04  0.19023602829E+04  0.17300000000E+03 0.  1.
         -6    1    1    2    0  501 -0.63667857023E+02  0.26465787837E+02  0.15947806991E+04  0.16056177977E+04  0.17300000000E+03 0.  1.
<mgrwt>
<rscale>  2 0.18623382E+03</rscale>
<asrwt>0</asrwt>
<pdfrwt beam="1">  1        2 0.53815143E+00 0.18623382E+03</pdfrwt>
<pdfrwt beam="2">  1       -2 0.15365285E-02 0.18623382E+03</pdfrwt>
<totfact> 0.11822945E+03</totfact>
</mgrwt>
</event>
<event>
 4    1  0.8130725E-001  0.1841217E+03  0.7546771E-02  0.1163873E+00
         -1   -1    0    0    0  501 -0.00000000000E+00  0.00000000000E+00  0.32646769853E+03  0.32646769853E+03  0.00000000000E+00 0.  1.
          1   -1    0    0  502    0  0.00000000000E+00 -0.00000000000E+00 -0.10829438743E+03  0.10829438743E+03  0.00000000000E+00 0. -1.
          6    1    1    2  502    0 -0.30242931054E+02  0.55291627957E+02  0.15316791234E+03  0.23950200077E+03  0.17300000000E+03 0.  1.
         -6    1    1    2    0  501  0.30242931054E+02 -0.55291627957E+02  0.65005398770E+02  0.19526008519E+03  0.17300000000E+03 0. -1.
<mgrwt>
<rscale>  2 0.18412170E+03</rscale>
<asrwt>0</asrwt>
<pdfrwt beam="2">  1        1 0.16660675E-01 0.18412170E+03</pdfrwt>
<pdfrwt beam="1">  1       -1 0.50225799E-01 0.18412170E+03</pdfrwt>
<totfact> 0.13090974E+03</totfact>
</mgrwt>
</event>
<event>
 4    1  0.8130725E-001  0.2521362E+03  0.7546771E-02  0.1111962E+00
          1   -1    0    0  502    0  0.00000000000E+00  0.00000000000E+00  0.66335606196E+03  0.66335606196E+03  0.00000000000E+00 0.  1.
         -1   -1    0    0    0  501 -0.00000000000E+00 -0.00000000000E+00 -0.15282483337E+03  0.15282483337E+03  0.00000000000E+00 0. -1.
          6    1    1    2  502    0 -0.17874314420E+03  0.41164643284E+02  0.60595152333E+01  0.25220895539E+03  0.17300000000E+03 0. -1.
         -6    1    1    2    0  501  0.17874314420E+03 -0.41164643284E+02  0.50447171336E+03  0.56397193993E+03  0.17300000000E+03 0.  1.
<mgrwt>
<rscale>  2 0.25213615E+03</rscale>
<asrwt>0</asrwt>
<pdfrwt beam="1">  1        1 0.10205478E+00 0.25213615E+03</pdfrwt>
<pdfrwt beam="2">  1       -1 0.23511513E-01 0.25213615E+03</pdfrwt>
<totfact> 0.47381608E+02</totfact>
</mgrwt>
</event>
<event>
 4    1  0.8130725E-001  0.1826700E+03  0.7546771E-02  0.1165244E+00
          2   -1    0    0  502    0  0.00000000000E+00  0.00000000000E+00  0.21001184481E+04  0.21001184481E+04  0.00000000000E+00 0.  1.
         -2   -1    0    0    0  501 -0.00000000000E+00 -0.00000000000E+00 -0.16023526881E+02  0.16023526881E+02  0.00000000000E+00 0. -1.
          6    1    1    2  502    0  0.58090353463E+02 -0.80515888590E+01  0.11390754916E+04  0.11536296168E+04  0.17300000000E+03 0.  1.
         -6    1    1    2    0  501 -0.58090353463E+02  0.80515888590E+01  0.94501942961E+03  0.96251235814E+03  0.17300000000E+03 0.  1.
<mgrwt>
<rscale>  2 0.18266997E+03</rscale>
<asrwt>0</asrwt>
<pdfrwt beam="1">  1        2 0.32309493E+00 0.18266997E+03</pdfrwt>
<pdfrwt beam="2">  1       -2 0.24651596E-02 0.18266997E+03</pdfrwt>
<totfact> 0.37339384E+03</totfact>
</mgrwt>
</event>
<event>
 4    1  0.8130725E-001  0.1822907E+03  0.7546771E-02  0.1165604E+00
          2   -1    0    0  502    0  0.00000000000E+00  0.00000000000E+00  0.26317207436E+03  0.26317207436E+03  0.00000000000E+00 0. -1.
         -2   -1    0    0    0  501 -0.00000000000E+00 -0.00000000000E+00 -0.14706769796E+03  0.14706769796E+03  0.00000000000E+00 0.  1.
          6    1    1    2  502    0 -0.26391282382E+02 -0.51033416868E+02  0.13519396116E+03  0.22695223409E+03  0.17300000000E+03 0. -1.
         -6    1    1    2    0  501  0.26391282382E+02  0.51033416868E+02 -0.19089584764E+02  0.18328753823E+03  0.17300000000E+03 0.  1.
<mgrwt>
<rscale>  2 0.18229073E+03</rscale>
<asrwt>0</asrwt>
<pdfrwt beam="1">  1        2 0.40488011E-01 0.18229073E+03</pdfrwt>
<pdfrwt beam="2">  1       -2 0.22625800E-01 0.18229073E+03</pdfrwt>
<totfact> 0.21068442E+03</totfact>
</mgrwt>
</event>
<event>
 4    1  0.8130725E-001  0.1741131E+03  0.7546771E-02  0.1173625E+00
          1   -1    0    0  502    0  0.00000000000E+00  0.00000000000E+00  0.29255724590E+04  0.29255724590E+04  0.00000000000E+00 0. -1.
         -1   -1    0    0    0  501 -0.00000000000E+00 -0.00000000000E+00 -0.13908641096E+02  0.13908641096E+02  0.00000000000E+00 0.  1.
          6    1    1    2  502    0 -0.10084263162E+02  0.16872398963E+02  0.21979869353E+04  0.22048723179E+04  0.17300000000E+03 0. -1.
         -6    1    1    2    0  501  0.10084263162E+02 -0.16872398963E+02  0.71367688260E+03  0.73460878226E+03  0.17300000000E+03 0.  1.
<mgrwt>
<rscale>  2 0.17411310E+03</rscale>
<asrwt>0</asrwt>
<pdfrwt beam="1">  1        1 0.45008758E+00 0.17411310E+03</pdfrwt>
<pdfrwt beam="2">  1       -1 0.21397933E-02 0.17411310E+03</pdfrwt>
<totfact> 0.51651163E+02</totfact>
</mgrwt>
</event>
<event>
 4    1  0.8130725E-001  0.2093408E+03  0.7546771E-02  0.1142089E+00
          1   -1    0    0  502    0  0.00000000000E+00  0.00000000000E+00  0.27954897875E+04  0.27954897875E+04  0.00000000000E+00 0.  1.
         -1   -1    0    0    0  501 -0.00000000000E+00 -0.00000000000E+00 -0.16266997230E+02  0.16266997230E+02  0.00000000000E+00 0. -1.
          6    1    1    2  502    0 -0.11529445522E+03  0.24530530012E+02  0.16574633067E+04  0.16706310698E+04  0.17300000000E+03 0.  1.
         -6    1    1    2    0  501  0.11529445522E+03 -0.24530530012E+02  0.11217594836E+04  0.11411257149E+04  0.17300000000E+03 0. -1.
<mgrwt>
<rscale>  2 0.20934077E+03</rscale>
<asrwt>0</asrwt>
<pdfrwt beam="1">  1        1 0.43007497E+00 0.20934077E+03</pdfrwt>
<pdfrwt beam="2">  1       -1 0.25026172E-02 0.20934077E+03</pdfrwt>
<totfact> 0.49997204E+02</totfact>
</mgrwt>
</event>
<event>
 4    1  0.8130725E-001  0.2642123E+03  0.7546771E-02  0.1104639E+00
         -2   -1    0    0    0  501 -0.00000000000E+00  0.00000000000E+00  0.25951948396E+03  0.25951948396E+03  0.00000000000E+00 0.  1.
          2   -1    0    0  502    0  0.00000000000E+00 -0.00000000000E+00 -0.36899882563E+03  0.36899882563E+03  0.00000000000E+00 0. -1.
          6    1    1    2  502    0 -0.13836095182E+03 -0.14399778742E+03 -0.21834402686E+03  0.34275680859E+03  0.17300000000E+03 0. -1.
         -6    1    1    2    0  501  0.13836095182E+03  0.14399778742E+03  0.10886468519E+03  0.28576150100E+03  0.17300000000E+03 0.  1.
<mgrwt>
<rscale>  2 0.26421226E+03</rscale>
<asrwt>0</asrwt>
<pdfrwt beam="2">  1        2 0.56769050E-01 0.26421226E+03</pdfrwt>
<pdfrwt beam="1">  1       -2 0.39926074E-01 0.26421226E+03</pdfrwt>
<totfact> 0.52394500E+02</totfact>
</mgrwt>
</event>
<event>
 4    1  0.8130725E-001  0.1734655E+03  0.7546771E-02  0.1174281E+00
         -1   -1    0    0    0  501 -0.00000000000E+00  0.00000000000E+00  0.13865024397E+03  0.13865024397E+03  0.00000000000E+00 0.  1.
          1   -1    0    0  502    0  0.00000000000E+00 -0.00000000000E+00 -0.22983253424E+03  0.22983253424E+03  0.00000000000E+00 0. -1.
          6    1    1    2  502    0 -0.37821025178E+01  0.12123381302E+02 -0.89087161965E+02  0.19500462328E+03  0.17300000000E+03 0.  1.
         -6    1    1    2    0  501  0.37821025178E+01 -0.12123381302E+02 -0.20951283007E+01  0.17347815493E+03  0.17300000000E+03 0.  1.
<mgrwt>
<rscale>  2 0.17346550E+03</rscale>
<asrwt>0</asrwt>
<pdfrwt beam="2">  1        1 0.35358851E-01 0.17346550E+03</pdfrwt>
<pdfrwt beam="1">  1       -1 0.21330807E-01 0.17346550E+03</pdfrwt>
<totfact> 0.21916519E+03</totfact>
</mgrwt>
</event>
<event>
 4    1  0.8130725E-001  0.3310438E+03  0.7546771E-02  0.1070676E+00
          1   -1    0    0  502    0  0.00000000000E+00  0.00000000000E+00  0.12769892088E+04  0.12769892088E+04  0.00000000000E+00 0. -1.
         -1   -1    0    0    0  501 -0.00000000000E+00 -0.00000000000E+00 -0.93418732883E+02  0.93418732883E+02  0.00000000000E+00 0.  1.
          6    1    1    2  502    0  0.75883374102E+02 -0.27185050222E+03  0.78721965134E+03  0.85399342005E+03  0.17300000000E+03 0.  1.
         -6    1    1    2    0  501 -0.75883374102E+02  0.27185050222E+03  0.39635082460E+03  0.51641452166E+03  0.17300000000E+03 0. -1.
<mgrwt>
<rscale>  2 0.33104378E+03</rscale>
<asrwt>0</asrwt>
<pdfrwt beam="1">  1        1 0.19645987E+00 0.33104378E+03</pdfrwt>
<pdfrwt beam="2">  1       -1 0.14372114E-01 0.33104378E+03</pdfrwt>
<totfact> 0.34738690E+02</totfact>
</mgrwt>
</event>
<event>
 4    1  0.8130725E-001  0.2824916E+03  0.7546771E-02  0.1094336E+00
         -2   -1    0    0    0  501 -0.00000000000E+00  0.00000000000E+00  0.54573600926E+02  0.54573600926E+02  0.00000000000E+00 0. -1.
          2   -1    0    0  502    0  0.00000000000E+00 -0.00000000000E+00 -0.15318747913E+04  0.15318747913E+04  0.00000000000E+00 0.  1.
          6    1    1    2  502    0 -0.14231665038E+03  0.17210015803E+03 -0.90773170347E+03  0.95067257184E+03  0.17300000000E+03 0. -1.
         -6    1    1    2    0  501  0.14231665038E+03 -0.17210015803E+03 -0.56956948690E+03  0.63577582038E+03  0.17300000000E+03 0.  1.
<mgrwt>
<rscale>  2 0.28249158E+03</rscale>
<asrwt>0</asrwt>
<pdfrwt beam="2">  1        2 0.23567306E+00 0.28249158E+03</pdfrwt>
<pdfrwt beam="1">  1       -2 0.83959381E-02 0.28249158E+03</pdfrwt>
<totfact> 0.11498912E+03</totfact>
</mgrwt>
</event>
<event>
 4    1  0.8130725E-001  0.3321444E+03  0.7546771E-02  0.1070192E+00
          2   -1    0    0  502    0  0.00000000000E+00  0.00000000000E+00  0.15623838629E+04  0.15623838629E+04  0.00000000000E+00 0. -1.
         -2   -1    0    0    0  501 -0.00000000000E+00 -0.00000000000E+00 -0.12950043168E+03  0.12950043168E+03  0.00000000000E+00 0.  1.
          6    1    1    2  502    0 -0.18958971337E+03 -0.21082380360E+03  0.12869046061E+04  0.13290761456E+04  0.17300000000E+03 0. -1.
         -6    1    1    2    0  501  0.18958971337E+03  0.21082380360E+03  0.14597882510E+03  0.36280814897E+03  0.17300000000E+03 0.  1.
<mgrwt>
<rscale>  2 0.33214445E+03</rscale>
<asrwt>0</asrwt>
<pdfrwt beam="1">  1        2 0.24036673E+00 0.33214445E+03</pdfrwt>
<pdfrwt beam="2">  1       -2 0.19923145E-01 0.33214445E+03</pdfrwt>
<totfact> 0.26644273E+02</totfact>
</mgrwt>
</event>
<event>
 4    1  0.8130725E-001  0.1745410E+03  0.7546771E-02  0.1173193E+00
         -2   -1    0    0    0  501 -0.00000000000E+00  0.00000000000E+00  0.51771529322E+02  0.51771529322E+02  0.00000000000E+00 0.  1.
          2   -1    0    0  502    0  0.00000000000E+00 -0.00000000000E+00 -0.60033577474E+03  0.60033577474E+03  0.00000000000E+00 0. -1.
          6    1    1    2  502    0  0.22450804403E+02  0.56143545351E+01 -0.22838920208E+03  0.28744771215E+03  0.17300000000E+03 0.  1.
         -6    1    1    2    0  501 -0.22450804403E+02 -0.56143545351E+01 -0.32017504334E+03  0.36465959191E+03  0.17300000000E+03 0. -1.
<mgrwt>
<rscale>  2 0.17454100E+03</rscale>
<asrwt>0</asrwt>
<pdfrwt beam="2">  1        2 0.92359352E-01 0.17454100E+03</pdfrwt>
<pdfrwt beam="1">  1       -2 0.79648505E-02 0.17454100E+03</pdfrwt>
<totfact> 0.47002456E+03</totfact>
</mgrwt>
</event>
<event>
 4    1  0.8130725E-001  0.2416996E+03  0.7546771E-02  0.1118666E+00
          2   -1    0    0  502    0  0.00000000000E+00  0.00000000000E+00  0.24966787445E+03  0.24966787445E+03  0.00000000000E+00 0. -1.
         -2   -1    0    0    0  501 -0.00000000000E+00 -0.00000000000E+00 -0.23567219373E+03  0.23567219373E+03  0.00000000000E+00 0.  1.
          6    1    1    2  502    0 -0.11603778432E+03  0.12257623732E+03 -0.13530792543E+02  0.24207805290E+03  0.17300000000E+03 0.  1.
         -6    1    1    2    0  501  0.11603778432E+03 -0.12257623732E+03  0.27526473265E+02  0.24326201528E+03  0.17300000000E+03 0. -1.
<mgrwt>
<rscale>  2 0.24169961E+03</rscale>
<asrwt>0</asrwt>
<pdfrwt beam="1">  1        2 0.38410442E-01 0.24169961E+03</pdfrwt>
<pdfrwt beam="2">  1       -2 0.36257261E-01 0.24169961E+03</pdfrwt>
<totfact> 0.95963109E+02</totfact>
</mgrwt>
</event>
<event>
 4    1  0.8130725E-001  0.2638584E+03  0.7546771E-02  0.1104847E+00
         -1   -1    0    0    0  501 -0.00000000000E+00  0.00000000000E+00  0.23983956192E+02  0.23983956192E+02  0.00000000000E+00 0. -1.
          1   -1    0    0  502    0  0.00000000000E+00 -0.00000000000E+00 -0.29906107671E+04  0.29906107671E+04  0.00000000000E+00 0.  1.
          6    1    1    2  502    0 -0.19486575938E+03 -0.41468134620E+02 -0.17415552643E+04  0.17614301033E+04  0.17300000000E+03 0.  1.
         -6    1    1    2    0  501  0.19486575938E+03  0.41468134620E+02 -0.12250715466E+04  0.12531646199E+04  0.17300000000E+03 0.  1.
<mgrwt>
<rscale>  2 0.26385843E+03</rscale>
<asrwt>0</asrwt>
<pdfrwt beam="2">  1        1 0.46009374E+00 0.26385843E+03</pdfrwt>
<pdfrwt beam="1">  1       -1 0.36898412E-02 0.26385843E+03</pdfrwt>
<totfact> 0.20409767E+02</totfact>
</mgrwt>
</event>
<event>
 4    1  0.8130725E-001  0.1757989E+03  0.7546771E-02  0.1171932E+00
          2   -1    0    0  502    0  0.00000000000E+00  0.00000000000E+00  0.22472101376E+03  0.22472101376E+03  0.00000000000E+00 0.  1.
         -2   -1    0    0    0  501 -0.00000000000E+00 -0.00000000000E+00 -0.17228842872E+03  0.17228842872E+03  0.00000000000E+00 0. -1.
          6    1    1    2  502    0 -0.15519035005E+01 -0.31206301652E+02  0.11538051499E+03  0.21028053858E+03  0.17300000000E+03 0.  1.
         -6    1    1    2    0  501  0.15519035005E+01  0.31206301652E+02 -0.62947929943E+02  0.18672890390E+03  0.17300000000E+03 0. -1.
<mgrwt>
<rscale>  2 0.17579887E+03</rscale>
<asrwt>0</asrwt>
<pdfrwt beam="1">  1        2 0.34572464E-01 0.17579887E+03</pdfrwt>
<pdfrwt beam="2">  1       -2 0.26505912E-01 0.17579887E+03</pdfrwt>
<totfact> 0.18903193E+03</totfact>
</mgrwt>
</event>
<event>
 4    1  0.8130725E-001  0.1778624E+03  0.7546771E-02  0.1169888E+00
         -2   -1    0    0    0  501 -0.00000000000E+00  0.00000000000E+00  0.41577804949E+02  0.41577804949E+02  0.00000000000E+00 0.  1.
          2   -1    0    0  502    0  0.00000000000E+00 -0.00000000000E+00 -0.13814017482E+04  0.13814017482E+04  0.00000000000E+00 0. -1.
          6    1    1    2  502    0  0.39671767734E+02 -0.11497415070E+02 -0.11467741680E+04  0.11604852571E+04  0.17300000000E+03 0. -1.
         -6    1    1    2    0  501 -0.39671767734E+02  0.11497415070E+02 -0.19304977532E+03  0.26249429605E+03  0.17300000000E+03 0. -1.
<mgrwt>
<rscale>  2 0.17786242E+03</rscale>
<asrwt>0</asrwt>
<pdfrwt beam="2">  1        2 0.21252334E+00 0.17786242E+03</pdfrwt>
<pdfrwt beam="1">  1       -2 0.63965855E-02 0.17786242E+03</pdfrwt>
<totfact> 0.21212371E+03</totfact>
</mgrwt>
</event>
<event>
 4    1  0.8130725E-001  0.1760975E+03  0.7546771E-02  0.1171634E+00
         -1   -1    0    0    0  501 -0.00000000000E+00  0.00000000000E+00  0.80151711703E+02  0.80151711703E+02  0.00000000000E+00 0. -1.
          1   -1    0    0  502    0  0.00000000000E+00 -0.00000000000E+00 -0.54730682306E+03  0.54730682306E+03  0.00000000000E+00 0.  1.
          6    1    1    2  502    0  0.22963202259E+02 -0.23537324454E+02 -0.63730708031E+02  0.18727497816E+03  0.17300000000E+03 0. -1.
         -6    1    1    2    0  501 -0.22963202259E+02  0.23537324454E+02 -0.40342440333E+03  0.44018355660E+03  0.17300000000E+03 0.  1.
<mgrwt>
<rscale>  2 0.17609746E+03</rscale>
<asrwt>0</asrwt>
<pdfrwt beam="2">  1        1 0.84201052E-01 0.17609746E+03</pdfrwt>
<pdfrwt beam="1">  1       -1 0.12331032E-01 0.17609746E+03</pdfrwt>
<totfact> 0.17388686E+03</totfact>
</mgrwt>
</event>
<event>
 4    1  0.8130725E-001  0.3651324E+03  0.7546771E-02  0.1056570E+00
          1   -1    0    0  502    0  0.00000000000E+00  0.00000000000E+00  0.62915931765E+03  0.62915931765E+03  0.00000000000E+00 0.  1.
         -1   -1    0    0    0  501 -0.00000000000E+00 -0.00000000000E+00 -0.21842529745E+03  0.21842529745E+03  0.00000000000E+00 0. -1.
          6    1    1    2  502    0  0.15180522845E+02  0.32118872200E+03  0.27859117975E+03  0.45927626637E+03  0.17300000000E+03 0.  1.
         -6    1    1    2    0  501 -0.15180522845E+02 -0.32118872200E+03  0.13214284045E+03  0.38830834873E+03  0.17300000000E+03 0. -1.
<mgrwt>
<rscale>  2 0.36513236E+03</rscale>
<asrwt>0</asrwt>
<pdfrwt beam="1">  1        1 0.96793740E-01 0.36513236E+03</pdfrwt>
<pdfrwt beam="2">  1       -1 0.33603892E-01 0.36513236E+03</pdfrwt>
<totfact> 0.27608723E+02</totfact>
</mgrwt>
</event>
<event>
 4    1  0.8130725E-001  0.1788009E+03  0.7546771E-02  0.1168969E+00
          1   -1    0    0  502    0  0.00000000000E+00  0.00000000000E+00  0.17608465357E+03  0.17608465357E+03  0.00000000000E+00 0.  1.
         -1   -1    0    0    0  501 -0.00000000000E+00 -0.00000000000E+00 -0.21238259118E+03  0.21238259118E+03  0.00000000000E+00 0. -1.
          6    1    1    2  502    0  0.25698885303E+02  0.37152611696E+02  0.55846775714E+02  0.18731954415E+03  0.17300000000E+03 0.  1.
         -6    1    1    2    0  501 -0.25698885303E+02 -0.37152611696E+02 -0.92144713324E+02  0.20114770060E+03  0.17300000000E+03 0. -1.
<mgrwt>
<rscale>  2 0.17880086E+03</rscale>
<asrwt>0</asrwt>
<pdfrwt beam="1">  1        1 0.27089947E-01 0.17880086E+03</pdfrwt>
<pdfrwt beam="2">  1       -1 0.32674245E-01 0.17880086E+03</pdfrwt>
<totfact> 0.15053825E+03</totfact>
</mgrwt>
</event>
<event>
 4    1  0.8130725E-001  0.1878492E+03  0.7546771E-02  0.1160416E+00
         -2   -1    0    0    0  501 -0.00000000000E+00  0.00000000000E+00  0.11843706632E+03  0.11843706632E+03  0.00000000000E+00 0. -1.
          2   -1    0    0  502    0  0.00000000000E+00 -0.00000000000E+00 -0.35468792849E+03  0.35468792849E+03  0.00000000000E+00 0.  1.
          6    1    1    2  502    0  0.50382840468E+02  0.53102823613E+02 -0.23503630879E+02  0.18931392224E+03  0.17300000000E+03 0. -1.
         -6    1    1    2    0  501 -0.50382840468E+02 -0.53102823613E+02 -0.21274723130E+03  0.28381107257E+03  0.17300000000E+03 0.  1.
<mgrwt>
<rscale>  2 0.18784925E+03</rscale>
<asrwt>0</asrwt>
<pdfrwt beam="2">  1        2 0.54567374E-01 0.18784925E+03</pdfrwt>
<pdfrwt beam="1">  1       -2 0.18221087E-01 0.18784925E+03</pdfrwt>
<totfact> 0.22171916E+03</totfact>
</mgrwt>
</event>
<event>
 4    1  0.8130725E-001  0.2103628E+03  0.7546771E-02  0.1141279E+00
         -1   -1    0    0    0  501 -0.00000000000E+00  0.00000000000E+00  0.55164937045E+02  0.55164937045E+02  0.00000000000E+00 0.  1.
          1   -1    0    0  502    0  0.00000000000E+00 -0.00000000000E+00 -0.89059463503E+03  0.89059463503E+03  0.00000000000E+00 0. -1.
          6    1    1    2  502    0  0.26273736943E+02  0.11676121998E+03 -0.56670590975E+03  0.60448993365E+03  0.17300000000E+03 0. -1.
         -6    1    1    2    0  501 -0.26273736943E+02 -0.11676121998E+03 -0.26872378824E+03  0.34126963842E+03  0.17300000000E+03 0.  1.
<mgrwt>
<rscale>  2 0.21036276E+03</rscale>
<asrwt>0</asrwt>
<pdfrwt beam="2">  1        1 0.13701454E+00 0.21036276E+03</pdfrwt>
<pdfrwt beam="1">  1       -1 0.84869145E-02 0.21036276E+03</pdfrwt>
<totfact> 0.15257875E+03</totfact>
</mgrwt>
</event>
<event>
 4    1  0.8130725E-001  0.1807092E+03  0.7546771E-02  0.1167118E+00
          1   -1    0    0  502    0  0.00000000000E+00  0.00000000000E+00  0.13531798300E+04  0.13531798300E+04  0.00000000000E+00 0.  1.
         -1   -1    0    0    0  501 -0.00000000000E+00 -0.00000000000E+00 -0.30948500655E+02  0.30948500655E+02  0.00000000000E+00 0. -1.
          6    1    1    2  502    0 -0.49636984285E+02  0.16217322035E+02  0.98589336283E+03  0.10023180905E+04  0.17300000000E+03 0.  1.
         -6    1    1    2    0  501  0.49636984285E+02 -0.16217322035E+02  0.33633796654E+03  0.38181024014E+03  0.17300000000E+03 0. -1.
<mgrwt>
<rscale>  2 0.18070925E+03</rscale>
<asrwt>0</asrwt>
<pdfrwt beam="1">  1        1 0.20818147E+00 0.18070925E+03</pdfrwt>
<pdfrwt beam="2">  1       -1 0.47613089E-02 0.18070925E+03</pdfrwt>
<totfact> 0.17018789E+03</totfact>
</mgrwt>
</event>
<event>
 4    1  0.8130725E-001  0.1779343E+03  0.7546771E-02  0.1169817E+00
         -1   -1    0    0    0  501 -0.00000000000E+00  0.00000000000E+00  0.61303366947E+02  0.61303366947E+02  0.00000000000E+00 0. -1.
          1   -1    0    0  502    0  0.00000000000E+00 -0.00000000000E+00 -0.51709989628E+03  0.51709989628E+03  0.00000000000E+00 0.  1.
          6    1    1    2  502    0  0.25903966531E+02 -0.32566850340E+02 -0.23808748082E+03  0.29723099392E+03  0.17300000000E+03 0. -1.
         -6    1    1    2    0  501 -0.25903966531E+02  0.32566850340E+02 -0.21770904851E+03  0.28117226930E+03  0.17300000000E+03 0. -1.
<mgrwt>
<rscale>  2 0.17793430E+03</rscale>
<asrwt>0</asrwt>
<pdfrwt beam="2">  1        1 0.79553828E-01 0.17793430E+03</pdfrwt>
<pdfrwt beam="1">  1       -1 0.94312874E-02 0.17793430E+03</pdfrwt>
<totfact> 0.28375473E+03</totfact>
</mgrwt>
</event>
<event>
 4    1  0.8130725E-001  0.2120902E+03  0.7546771E-02  0.1139921E+00
         -2   -1    0    0    0  501 -0.00000000000E+00  0.00000000000E+00  0.50041310135E+02  0.50041310135E+02  0.00000000000E+00 0. -1.
          2   -1    0    0  502    0  0.00000000000E+00 -0.00000000000E+00 -0.92740707541E+03  0.92740707541E+03  0.00000000000E+00 0.  1.
          6    1    1    2  502    0  0.59190504777E+02  0.10746972828E+03 -0.52436417126E+03  0.56563242698E+03  0.17300000000E+03 0.  1.
         -6    1    1    2    0  501 -0.59190504777E+02 -0.10746972828E+03 -0.35300159402E+03  0.41181595857E+03  0.17300000000E+03 0. -1.
<mgrwt>
<rscale>  2 0.21209021E+03</rscale>
<asrwt>0</asrwt>
<pdfrwt beam="2">  1        2 0.14267801E+00 0.21209021E+03</pdfrwt>
<pdfrwt beam="1">  1       -2 0.76986634E-02 0.21209021E+03</pdfrwt>
<totfact> 0.29115981E+03</totfact>
</mgrwt>
</event>
<event>
 4    1  0.8130725E-001  0.1979864E+03  0.7546771E-02  0.1151449E+00
          1   -1    0    0  502    0  0.00000000000E+00  0.00000000000E+00  0.58196898112E+03  0.58196898112E+03  0.00000000000E+00 0. -1.
         -1   -1    0    0    0  501 -0.00000000000E+00 -0.00000000000E+00 -0.72223424636E+02  0.72223424636E+02  0.00000000000E+00 0.  1.
          6    1    1    2  502    0 -0.62856331178E+01  0.96073477592E+02  0.16995025182E+03  0.26092472166E+03  0.17300000000E+03 0.  1.
         -6    1    1    2    0  501  0.62856331178E+01 -0.96073477592E+02  0.33979530466E+03  0.39326768409E+03  0.17300000000E+03 0.  1.
<mgrwt>
<rscale>  2 0.19798642E+03</rscale>
<asrwt>0</asrwt>
<pdfrwt beam="1">  1        1 0.89533686E-01 0.19798642E+03</pdfrwt>
<pdfrwt beam="2">  1       -1 0.11111296E-01 0.19798642E+03</pdfrwt>
<totfact> 0.18851651E+03</totfact>
</mgrwt>
</event>
<event>
 4    1  0.8130725E-001  0.2185107E+03  0.7546771E-02  0.1134998E+00
         -2   -1    0    0    0  501 -0.00000000000E+00  0.00000000000E+00  0.10564129682E+03  0.10564129682E+03  0.00000000000E+00 0.  1.
          2   -1    0    0  502    0  0.00000000000E+00 -0.00000000000E+00 -0.50636726181E+03  0.50636726181E+03  0.00000000000E+00 0. -1.
          6    1    1    2  502    0 -0.12618155023E+03  0.43544719822E+02 -0.10006907678E+03  0.24033465495E+03  0.17300000000E+03 0. -1.
         -6    1    1    2    0  501  0.12618155023E+03 -0.43544719822E+02 -0.30065688821E+03  0.37167390367E+03  0.17300000000E+03 0.  1.
<mgrwt>
<rscale>  2 0.21851070E+03</rscale>
<asrwt>0</asrwt>
<pdfrwt beam="2">  1        2 0.77902657E-01 0.21851070E+03</pdfrwt>
<pdfrwt beam="1">  1       -2 0.16252507E-01 0.21851070E+03</pdfrwt>
<totfact> 0.18270841E+03</totfact>
</mgrwt>
</event>
<event>
 4    1  0.8130725E-001  0.1734589E+03  0.7546771E-02  0.1174288E+00
         -2   -1    0    0    0  501 -0.00000000000E+00  0.00000000000E+00  0.32730901577E+02  0.32730901577E+02  0.00000000000E+00 0. -1.
          2   -1    0    0  502    0  0.00000000000E+00 -0.00000000000E+00 -0.10473631498E+04  0.10473631498E+04  0.00000000000E+00 0.  1.
          6    1    1    2  502    0 -0.11587432692E+02  0.49719594236E+01 -0.69619100818E+03  0.71747467471E+03  0.17300000000E+03 0.  1.
         -6    1    1    2    0  501  0.11587432692E+02 -0.49719594236E+01 -0.31844124006E+03  0.36261937668E+03  0.17300000000E+03 0. -1.
<mgrwt>
<rscale>  2 0.17345890E+03</rscale>
<asrwt>0</asrwt>
<pdfrwt beam="2">  1        2 0.16113281E+00 0.17345890E+03</pdfrwt>
<pdfrwt beam="1">  1       -2 0.50355227E-02 0.17345890E+03</pdfrwt>
<totfact> 0.46922301E+03</totfact>
</mgrwt>
</event>
<event>
 4    1  0.8130725E-001  0.2054098E+03  0.7546771E-02  0.1145253E+00
         -1   -1    0    0    0  501 -0.00000000000E+00  0.00000000000E+00  0.20081086006E+03  0.20081086006E+03  0.00000000000E+00 0.  1.
          1   -1    0    0  502    0  0.00000000000E+00 -0.00000000000E+00 -0.31536534915E+03  0.31536534915E+03  0.00000000000E+00 0. -1.
          6    1    1    2  502    0  0.43685019095E+01  0.11065767685E+03 -0.20637616754E+03  0.29117748502E+03  0.17300000000E+03 0. -1.
         -6    1    1    2    0  501 -0.43685019095E+01 -0.11065767685E+03  0.91821678439E+02  0.22499872419E+03  0.17300000000E+03 0.  1.
<mgrwt>
<rscale>  2 0.20540985E+03</rscale>
<asrwt>0</asrwt>
<pdfrwt beam="2">  1        1 0.48517746E-01 0.20540985E+03</pdfrwt>
<pdfrwt beam="1">  1       -1 0.30893979E-01 0.20540985E+03</pdfrwt>
<totfact> 0.80002266E+02</totfact>
</mgrwt>
</event>
<event>
 4    1  0.8130725E-001  0.1945732E+03  0.7546771E-02  0.1154400E+00
         -3   -1    0    0    0  501 -0.00000000000E+00  0.00000000000E+00  0.99466701443E+02  0.99466701443E+02  0.00000000000E+00 0.  1.
          3   -1    0    0  502    0  0.00000000000E+00 -0.00000000000E+00 -0.86036585016E+03  0.86036585016E+03  0.00000000000E+00 0. -1.
          6    1    1    2  502    0  0.73516113366E+02 -0.50250595778E+02 -0.22080306228E+02  0.19582206521E+03  0.17300000000E+03 0.  1.
         -6    1    1    2    0  501 -0.73516113366E+02  0.50250595778E+02 -0.73881884249E+03  0.76401048639E+03  0.17300000000E+03 0. -1.
<mgrwt>
<rscale>  2 0.19457323E+03</rscale>
<asrwt>0</asrwt>
<pdfrwt beam="2">  1        3 0.13236398E+00 0.19457323E+03</pdfrwt>
<pdfrwt beam="1">  1       -3 0.15302569E-01 0.19457323E+03</pdfrwt>
<totfact> 0.40949910E+01</totfact>
</mgrwt>
</event>
<event>
 4    1  0.8130725E-001  0.2721653E+03  0.7546771E-02  0.1100047E+00
         -2   -1    0    0    0  501 -0.00000000000E+00  0.00000000000E+00  0.16868550307E+03  0.16868550307E+03  0.00000000000E+00 0.  1.
          2   -1    0    0  502    0  0.00000000000E+00 -0.00000000000E+00 -0.46365372026E+03  0.46365372026E+03  0.00000000000E+00 0. -1.
          6    1    1    2  502    0  0.20447674306E+03  0.48313925218E+02 -0.74762546266E+02  0.28224707642E+03  0.17300000000E+03 0.  1.
         -6    1    1    2    0  501 -0.20447674306E+03 -0.48313925218E+02 -0.22020567092E+03  0.35009214691E+03  0.17300000000E+03 0. -1.
<mgrwt>
<rscale>  2 0.27216534E+03</rscale>
<asrwt>0</asrwt>
<pdfrwt beam="2">  1        2 0.71331342E-01 0.27216534E+03</pdfrwt>
<pdfrwt beam="1">  1       -2 0.25951616E-01 0.27216534E+03</pdfrwt>
<totfact> 0.90317696E+02</totfact>
</mgrwt>
</event>
<event>
 4    1  0.8130725E-001  0.1776369E+03  0.7546771E-02  0.1170110E+00
         -2   -1    0    0    0  501 -0.00000000000E+00  0.00000000000E+00  0.18963609146E+03  0.18963609146E+03  0.00000000000E+00 0. -1.
          2   -1    0    0  502    0  0.00000000000E+00 -0.00000000000E+00 -0.26508308692E+03  0.26508308692E+03  0.00000000000E+00 0.  1.
          6    1    1    2  502    0  0.85212945134E+01  0.39411425577E+02 -0.17644707342E+03  0.25037660163E+03  0.17300000000E+03 0.  1.
         -6    1    1    2    0  501 -0.85212945134E+01 -0.39411425577E+02  0.10100007795E+03  0.20434257675E+03  0.17300000000E+03 0. -1.
<mgrwt>
<rscale>  2 0.17763691E+03</rscale>
<asrwt>0</asrwt>
<pdfrwt beam="2">  1        2 0.40782013E-01 0.17763691E+03</pdfrwt>
<pdfrwt beam="1">  1       -2 0.29174783E-01 0.17763691E+03</pdfrwt>
<totfact> 0.13338083E+03</totfact>
</mgrwt>
</event>
<event>
 4    1  0.8130725E-001  0.2991460E+03  0.7546771E-02  0.1085668E+00
         -1   -1    0    0    0  501 -0.00000000000E+00  0.00000000000E+00  0.27141917005E+03  0.27141917005E+03  0.00000000000E+00 0.  1.
          1   -1    0    0  502    0  0.00000000000E+00 -0.00000000000E+00 -0.69595189360E+03  0.69595189360E+03  0.00000000000E+00 0. -1.
          6    1    1    2  502    0  0.22916017756E+03 -0.83934220782E+02  0.13861498407E+03  0.32970055233E+03  0.17300000000E+03 0.  1.
         -6    1    1    2    0  501 -0.22916017756E+03  0.83934220782E+02 -0.56314770762E+03  0.63767051131E+03  0.17300000000E+03 0. -1.
<mgrwt>
<rscale>  2 0.29914602E+03</rscale>
<asrwt>0</asrwt>
<pdfrwt beam="2">  1        1 0.10706952E+00 0.29914602E+03</pdfrwt>
<pdfrwt beam="1">  1       -1 0.41756796E-01 0.29914602E+03</pdfrwt>
<totfact> 0.16360681E+02</totfact>
</mgrwt>
</event>
<event>
 4    1  0.8130725E-001  0.2553295E+03  0.7546771E-02  0.1109982E+00
         -2   -1    0    0    0  501 -0.00000000000E+00  0.00000000000E+00  0.36645920087E+02  0.36645920087E+02  0.00000000000E+00 0.  1.
          2   -1    0    0  502    0  0.00000000000E+00 -0.00000000000E+00 -0.28605207526E+04  0.28605207526E+04  0.00000000000E+00 0. -1.
          6    1    1    2  502    0 -0.15851861641E+03 -0.10067783738E+03 -0.52122422048E+03  0.58040319322E+03  0.17300000000E+03 0.  1.
         -6    1    1    2    0  501  0.15851861641E+03  0.10067783738E+03 -0.23026506120E+04  0.23167634794E+04  0.17300000000E+03 0. -1.
<mgrwt>
<rscale>  2 0.25532955E+03</rscale>
<asrwt>0</asrwt>
<pdfrwt beam="2">  1        2 0.44008016E+00 0.25532955E+03</pdfrwt>
<pdfrwt beam="1">  1       -2 0.56378332E-02 0.25532955E+03</pdfrwt>
<totfact> 0.41146297E+02</totfact>
</mgrwt>
</event>
<event>
 4    1  0.8130725E-001  0.2018672E+03  0.7546771E-02  0.1148173E+00
          3   -1    0    0  502    0  0.00000000000E+00  0.00000000000E+00  0.13244869120E+03  0.13244869120E+03  0.00000000000E+00 0. -1.
         -3   -1    0    0    0  501 -0.00000000000E+00 -0.00000000000E+00 -0.35677668349E+03  0.35677668349E+03  0.00000000000E+00 0.  1.
          6    1    1    2  502    0 -0.74953687311E+02  0.72133946401E+02 -0.20291580725E+03  0.28622576107E+03  0.17300000000E+03 0.  1.
         -6    1    1    2    0  501  0.74953687311E+02 -0.72133946401E+02 -0.21412185042E+02  0.20299961363E+03  0.17300000000E+03 0. -1.
<mgrwt>
<rscale>  2 0.20186719E+03</rscale>
<asrwt>0</asrwt>
<pdfrwt beam="1">  1        3 0.20376722E-01 0.20186719E+03</pdfrwt>
<pdfrwt beam="2">  1       -3 0.54888719E-01 0.20186719E+03</pdfrwt>
<totfact> 0.17546172E+02</totfact>
</mgrwt>
</event>
<event>
 4    1  0.8130725E-001  0.2076448E+03  0.7546771E-02  0.1143445E+00
         -2   -1    0    0    0  501 -0.00000000000E+00  0.00000000000E+00  0.37063586436E+03  0.37063586436E+03  0.00000000000E+00 0. -1.
          2   -1    0    0  502    0  0.00000000000E+00 -0.00000000000E+00 -0.19100995418E+03  0.19100995418E+03  0.00000000000E+00 0.  1.
          6    1    1    2  502    0  0.60913718511E+02  0.97349291274E+02  0.26540475762E+03  0.33698078726E+03  0.17300000000E+03 0. -1.
         -6    1    1    2    0  501 -0.60913718511E+02 -0.97349291274E+02 -0.85778847436E+02  0.22466503128E+03  0.17300000000E+03 0.  1.
<mgrwt>
<rscale>  2 0.20764481E+03</rscale>
<asrwt>0</asrwt>
<pdfrwt beam="2">  1        2 0.29386147E-01 0.20764481E+03</pdfrwt>
<pdfrwt beam="1">  1       -2 0.57020902E-01 0.20764481E+03</pdfrwt>
<totfact> 0.52813757E+02</totfact>
</mgrwt>
</event>
<event>
 4    1  0.8130725E-001  0.2258432E+03  0.7546771E-02  0.1129600E+00
          2   -1    0    0  502    0  0.00000000000E+00  0.00000000000E+00  0.86516007836E+02  0.86516007836E+02  0.00000000000E+00 0.  1.
         -2   -1    0    0    0  501 -0.00000000000E+00 -0.00000000000E+00 -0.64734736470E+03  0.64734736470E+03  0.00000000000E+00 0. -1.
          6    1    1    2  502    0 -0.95361748924E+02  0.10946355082E+03 -0.39006023046E+03  0.45072399038E+03  0.17300000000E+03 0. -1.
         -6    1    1    2    0  501  0.95361748924E+02 -0.10946355082E+03 -0.17077112640E+03  0.28313938216E+03  0.17300000000E+03 0.  1.
<mgrwt>
<rscale>  2 0.22584316E+03</rscale>
<asrwt>0</asrwt>
<pdfrwt beam="1">  1        2 0.13310155E-01 0.22584316E+03</pdfrwt>
<pdfrwt beam="2">  1       -2 0.99591902E-01 0.22584316E+03</pdfrwt>
<totfact> 0.38965709E+02</totfact>
</mgrwt>
</event>
<event>
 4    1  0.8130725E-001  0.2738285E+03  0.7546771E-02  0.1099108E+00
          1   -1    0    0  502    0  0.00000000000E+00  0.00000000000E+00  0.87242509628E+03  0.87242509628E+03  0.00000000000E+00 0.  1.
         -1   -1    0    0    0  501 -0.00000000000E+00 -0.00000000000E+00 -0.12014935372E+03  0.12014935372E+03  0.00000000000E+00 0. -1.
          6    1    1    2  502    0 -0.15218258587E+03  0.14796449579E+03  0.11134732743E+03  0.29560152026E+03  0.17300000000E+03 0. -1.
         -6    1    1    2    0  501  0.15218258587E+03 -0.14796449579E+03  0.64092841514E+03  0.69697292974E+03  0.17300000000E+03 0.  1.
<mgrwt>
<rscale>  2 0.27382847E+03</rscale>
<asrwt>0</asrwt>
<pdfrwt beam="1">  1        1 0.13421924E+00 0.27382847E+03</pdfrwt>
<pdfrwt beam="2">  1       -1 0.18484517E-01 0.27382847E+03</pdfrwt>
<totfact> 0.46322583E+02</totfact>
</mgrwt>
</event>
<event>
 4    1  0.8130725E-001  0.2567298E+03  0.7546771E-02  0.1109124E+00
          2   -1    0    0  502    0  0.00000000000E+00  0.00000000000E+00  0.91202794693E+03  0.91202794693E+03  0.00000000000E+00 0.  1.
         -2   -1    0    0    0  501 -0.00000000000E+00 -0.00000000000E+00 -0.74984426516E+02  0.74984426516E+02  0.00000000000E+00 0. -1.
          6    1    1    2  502    0  0.12084157191E+03 -0.14621382945E+03  0.32458634058E+03  0.41384352347E+03  0.17300000000E+03 0.  1.
         -6    1    1    2    0  501 -0.12084157191E+03  0.14621382945E+03  0.51245717983E+03  0.57316884998E+03  0.17300000000E+03 0.  1.
<mgrwt>
<rscale>  2 0.25672976E+03</rscale>
<asrwt>0</asrwt>
<pdfrwt beam="1">  1        2 0.14031198E+00 0.25672976E+03</pdfrwt>
<pdfrwt beam="2">  1       -2 0.11536066E-01 0.25672976E+03</pdfrwt>
<totfact> 0.15724773E+03</totfact>
</mgrwt>
</event>
<event>
 4    1  0.8130725E-001  0.2128941E+03  0.7546771E-02  0.1139294E+00
         -2   -1    0    0    0  501 -0.00000000000E+00  0.00000000000E+00  0.46667372146E+03  0.46667372146E+03  0.00000000000E+00 0. -1.
          2   -1    0    0  502    0  0.00000000000E+00 -0.00000000000E+00 -0.99565609329E+02  0.99565609329E+02  0.00000000000E+00 0.  1.
          6    1    1    2  502    0  0.37060586453E+02 -0.11841195845E+03  0.22791579689E+03  0.31188056920E+03  0.17300000000E+03 0.  1.
         -6    1    1    2    0  501 -0.37060586453E+02  0.11841195845E+03  0.13919231523E+03  0.25435876158E+03  0.17300000000E+03 0. -1.
<mgrwt>
<rscale>  2 0.21289406E+03</rscale>
<asrwt>0</asrwt>
<pdfrwt beam="2">  1        2 0.15317786E-01 0.21289406E+03</pdfrwt>
<pdfrwt beam="1">  1       -2 0.71795956E-01 0.21289406E+03</pdfrwt>
<totfact> 0.68377925E+02</totfact>
</mgrwt>
</event>
<event>
 4    1  0.8130725E-001  0.1774922E+03  0.7546771E-02  0.1170252E+00
         -1   -1    0    0    0  501 -0.00000000000E+00  0.00000000000E+00  0.43296659056E+02  0.43296659056E+02  0.00000000000E+00 0.  1.
          1   -1    0    0  502    0  0.00000000000E+00 -0.00000000000E+00 -0.73089801935E+03  0.73089801935E+03  0.00000000000E+00 0. -1.
          6    1    1    2  502    0  0.26982805406E+02 -0.29093252065E+02 -0.36972678441E+03  0.41012362065E+03  0.17300000000E+03 0. -1.
         -6    1    1    2    0  501 -0.26982805406E+02  0.29093252065E+02 -0.31787457588E+03  0.36407105776E+03  0.17300000000E+03 0.  1.
<mgrwt>
<rscale>  2 0.17749222E+03</rscale>
<asrwt>0</asrwt>
<pdfrwt beam="2">  1        1 0.11244584E+00 0.17749222E+03</pdfrwt>
<pdfrwt beam="1">  1       -1 0.66610250E-02 0.17749222E+03</pdfrwt>
<totfact> 0.29757641E+03</totfact>
</mgrwt>
</event>
<event>
 4    1  0.8130725E-001  0.2333915E+03  0.7546771E-02  0.1124275E+00
         -2   -1    0    0    0  501 -0.00000000000E+00  0.00000000000E+00  0.15858039735E+03  0.15858039735E+03  0.00000000000E+00 0. -1.
          2   -1    0    0  502    0  0.00000000000E+00 -0.00000000000E+00 -0.41336212144E+03  0.41336212144E+03  0.00000000000E+00 0.  1.
          6    1    1    2  502    0 -0.11742232287E+03  0.10370426888E+03 -0.24496001841E+03  0.33834448113E+03  0.17300000000E+03 0.  1.
         -6    1    1    2    0  501  0.11742232287E+03 -0.10370426888E+03 -0.98217056761E+01  0.23359803765E+03  0.17300000000E+03 0. -1.
<mgrwt>
<rscale>  2 0.23339147E+03</rscale>
<asrwt>0</asrwt>
<pdfrwt beam="2">  1        2 0.63594173E-01 0.23339147E+03</pdfrwt>
<pdfrwt beam="1">  1       -2 0.24396984E-01 0.23339147E+03</pdfrwt>
<totfact> 0.11421259E+03</totfact>
</mgrwt>
</event>
<event>
 4    1  0.8130725E-001  0.1739600E+03  0.7546771E-02  0.1173780E+00
          2   -1    0    0  502    0  0.00000000000E+00  0.00000000000E+00  0.71579257694E+03  0.71579257694E+03  0.00000000000E+00 0.  1.
         -2   -1    0    0    0  501 -0.00000000000E+00 -0.00000000000E+00 -0.44845911786E+02  0.44845911786E+02  0.00000000000E+00 0. -1.
          6    1    1    2  502    0  0.38663903427E+01  0.17836242591E+02  0.24446098479E+03  0.30003875351E+03  0.17300000000E+03 0.  1.
         -6    1    1    2    0  501 -0.38663903427E+01 -0.17836242591E+02  0.42648568037E+03  0.46059973522E+03  0.17300000000E+03 0.  1.
<mgrwt>
<rscale>  2 0.17396000E+03</rscale>
<asrwt>0</asrwt>
<pdfrwt beam="1">  1        2 0.11012193E+00 0.17396000E+03</pdfrwt>
<pdfrwt beam="2">  1       -2 0.68993716E-02 0.17396000E+03</pdfrwt>
<totfact> 0.47704201E+03</totfact>
</mgrwt>
</event>
<event>
 4    1  0.8130725E-001  0.1773503E+03  0.7546771E-02  0.1170392E+00
         -2   -1    0    0    0  501 -0.00000000000E+00  0.00000000000E+00  0.13506116277E+03  0.13506116277E+03  0.00000000000E+00 0.  1.
          2   -1    0    0  502    0  0.00000000000E+00 -0.00000000000E+00 -0.23456852489E+03  0.23456852489E+03  0.00000000000E+00 0. -1.
          6    1    1    2  502    0 -0.36426239707E+02 -0.14044622456E+02 -0.34076040779E+02  0.18059429369E+03  0.17300000000E+03 0. -1.
         -6    1    1    2    0  501  0.36426239707E+02  0.14044622456E+02 -0.65431321339E+02  0.18903539396E+03  0.17300000000E+03 0.  1.
<mgrwt>
<rscale>  2 0.17735028E+03</rscale>
<asrwt>0</asrwt>
<pdfrwt beam="2">  1        2 0.36087465E-01 0.17735028E+03</pdfrwt>
<pdfrwt beam="1">  1       -2 0.20778641E-01 0.17735028E+03</pdfrwt>
<totfact> 0.27579359E+03</totfact>
</mgrwt>
</event>
<event>
 4    1  0.8130725E-001  0.1781143E+03  0.7546771E-02  0.1169641E+00
         -4   -1    0    0    0  501 -0.00000000000E+00  0.00000000000E+00  0.14116823010E+03  0.14116823010E+03  0.00000000000E+00 0. -1.
          4   -1    0    0  502    0  0.00000000000E+00 -0.00000000000E+00 -0.23806211099E+03  0.23806211099E+03  0.00000000000E+00 0.  1.
          6    1    1    2  502    0 -0.38375148744E+02 -0.17973478804E+02 -0.93319601812E+02  0.20108019809E+03  0.17300000000E+03 0.  1.
         -6    1    1    2    0  501  0.38375148744E+02  0.17973478804E+02 -0.35742790801E+01  0.17815014300E+03  0.17300000000E+03 0. -1.
<mgrwt>
<rscale>  2 0.17811428E+03</rscale>
<asrwt>0</asrwt>
<pdfrwt beam="2">  1        4 0.36624940E-01 0.17811428E+03</pdfrwt>
<pdfrwt beam="1">  1       -4 0.21718190E-01 0.17811428E+03</pdfrwt>
<totfact> 0.24532087E+02</totfact>
</mgrwt>
</event>
<event>
 4    1  0.8130725E-001  0.2144403E+03  0.7546771E-02  0.1138097E+00
         -2   -1    0    0    0  501 -0.00000000000E+00  0.00000000000E+00  0.92045911260E+02  0.92045911260E+02  0.00000000000E+00 0.  1.
          2   -1    0    0  502    0  0.00000000000E+00 -0.00000000000E+00 -0.83412581826E+03  0.83412581826E+03  0.00000000000E+00 0. -1.
          6    1    1    2  502    0  0.64855386696E+02 -0.10885513501E+03 -0.66431220274E+03  0.69806544415E+03  0.17300000000E+03 0. -1.
         -6    1    1    2    0  501 -0.64855386696E+02  0.10885513501E+03 -0.77767704264E+02  0.22810628538E+03  0.17300000000E+03 0.  1.
<mgrwt>
<rscale>  2 0.21444035E+03</rscale>
<asrwt>0</asrwt>
<pdfrwt beam="2">  1        2 0.12832704E+00 0.21444035E+03</pdfrwt>
<pdfrwt beam="1">  1       -2 0.14160910E-01 0.21444035E+03</pdfrwt>
<totfact> 0.12666159E+03</totfact>
</mgrwt>
</event>
<event>
 4    1  0.8130725E-001  0.3267255E+03  0.7546771E-02  0.1072595E+00
         -3   -1    0    0    0  501 -0.00000000000E+00  0.00000000000E+00  0.23974348998E+03  0.23974348998E+03  0.00000000000E+00 0. -1.
          3   -1    0    0  502    0  0.00000000000E+00 -0.00000000000E+00 -0.46141306790E+03  0.46141306790E+03  0.00000000000E+00 0.  1.
          6    1    1    2  502    0 -0.68391692692E+02 -0.26859470386E+03 -0.17641785749E+03  0.37131226617E+03  0.17300000000E+03 0.  1.
         -6    1    1    2    0  501  0.68391692692E+02  0.26859470386E+03 -0.45251720438E+02  0.32984429171E+03  0.17300000000E+03 0. -1.
<mgrwt>
<rscale>  2 0.32672548E+03</rscale>
<asrwt>0</asrwt>
<pdfrwt beam="2">  1        3 0.70986625E-01 0.32672548E+03</pdfrwt>
<pdfrwt beam="1">  1       -3 0.36883614E-01 0.32672548E+03</pdfrwt>
<totfact> 0.35302616E+01</totfact>
</mgrwt>
</event>
<event>
 4    1  0.8130725E-001  0.1794507E+03  0.7546771E-02  0.1168336E+00
         -1   -1    0    0    0  501 -0.00000000000E+00  0.00000000000E+00  0.18235998253E+02  0.18235998253E+02  0.00000000000E+00 0. -1.
          1   -1    0    0  502    0  0.00000000000E+00 -0.00000000000E+00 -0.18185462540E+04  0.18185462540E+04  0.00000000000E+00 0.  1.
          6    1    1    2  502    0  0.29257634912E+02 -0.37650101351E+02 -0.10564490000E+04  0.10715815550E+04  0.17300000000E+03 0. -1.
         -6    1    1    2    0  501 -0.29257634912E+02  0.37650101351E+02 -0.74386125572E+03  0.76520069727E+03  0.17300000000E+03 0. -1.
<mgrwt>
<rscale>  2 0.17945066E+03</rscale>
<asrwt>0</asrwt>
<pdfrwt beam="2">  1        1 0.27977637E+00 0.17945066E+03</pdfrwt>
<pdfrwt beam="1">  1       -1 0.28055380E-02 0.17945066E+03</pdfrwt>
<totfact> 0.18477422E+03</totfact>
</mgrwt>
</event>
<event>
 4    1  0.8130725E-001  0.2242102E+03  0.7546771E-02  0.1130783E+00
          2   -1    0    0  502    0  0.00000000000E+00  0.00000000000E+00  0.94760784872E+03  0.94760784872E+03  0.00000000000E+00 0. -1.
         -2   -1    0    0    0  501 -0.00000000000E+00 -0.00000000000E+00 -0.75484219808E+02  0.75484219808E+02  0.00000000000E+00 0.  1.
          6    1    1    2  502    0  0.14908186193E+02 -0.14184124298E+03  0.15718253328E+03  0.27381844531E+03  0.17300000000E+03 0.  1.
         -6    1    1    2    0  501 -0.14908186193E+02  0.14184124298E+03  0.71494109563E+03  0.74927362321E+03  0.17300000000E+03 0.  1.
<mgrwt>
<rscale>  2 0.22421015E+03</rscale>
<asrwt>0</asrwt>
<pdfrwt beam="1">  1        2 0.14578581E+00 0.22421015E+03</pdfrwt>
<pdfrwt beam="2">  1       -2 0.11612958E-01 0.22421015E+03</pdfrwt>
<totfact> 0.14764236E+03</totfact>
</mgrwt>
</event>
<event>
 4    1  0.8130725E-001  0.2049499E+03  0.7546771E-02  0.1145629E+00
         -2   -1    0    0    0  501 -0.00000000000E+00  0.00000000000E+00  0.26301938614E+02  0.26301938614E+02  0.00000000000E+00 0. -1.
          2   -1    0    0  502    0  0.00000000000E+00 -0.00000000000E+00 -0.18265780755E+04  0.18265780755E+04  0.00000000000E+00 0.  1.
          6    1    1    2  502    0  0.10901730599E+03 -0.13808589295E+02 -0.57169942803E+03  0.60732584842E+03  0.17300000000E+03 0. -1.
         -6    1    1    2    0  501 -0.10901730599E+03  0.13808589295E+02 -0.12285767088E+04  0.12455541657E+04  0.17300000000E+03 0.  1.
<mgrwt>
<rscale>  2 0.20494987E+03</rscale>
<asrwt>0</asrwt>
<pdfrwt beam="2">  1        2 0.28101209E+00 0.20494987E+03</pdfrwt>
<pdfrwt beam="1">  1       -2 0.40464509E-02 0.20494987E+03</pdfrwt>
<totfact> 0.24793049E+03</totfact>
</mgrwt>
</event>
<event>
 4    1  0.8130725E-001  0.3121040E+03  0.7546771E-02  0.1079342E+00
          2   -1    0    0  502    0  0.00000000000E+00  0.00000000000E+00  0.20642831885E+04  0.20642831885E+04  0.00000000000E+00 0.  1.
         -2   -1    0    0    0  501 -0.00000000000E+00 -0.00000000000E+00 -0.54981912008E+02  0.54981912008E+02  0.00000000000E+00 0. -1.
          6    1    1    2  502    0 -0.25766135094E+03  0.33023596609E+02  0.14036106811E+04  0.14378914680E+04  0.17300000000E+03 0. -1.
         -6    1    1    2    0  501  0.25766135094E+03 -0.33023596609E+02  0.60569059537E+03  0.68137363247E+03  0.17300000000E+03 0.  1.
<mgrwt>
<rscale>  2 0.31210404E+03</rscale>
<asrwt>0</asrwt>
<pdfrwt beam="1">  1        2 0.31758197E+00 0.31210404E+03</pdfrwt>
<pdfrwt beam="2">  1       -2 0.84587573E-02 0.31210404E+03</pdfrwt>
<totfact> 0.59195368E+02</totfact>
</mgrwt>
</event>
<event>
 4    1  0.8130725E-001  0.1952383E+03  0.7546771E-02  0.1153820E+00
         -2   -1    0    0    0  501 -0.00000000000E+00  0.00000000000E+00  0.79653510442E+02  0.79653510442E+02  0.00000000000E+00 0. -1.
          2   -1    0    0  502    0  0.00000000000E+00 -0.00000000000E+00 -0.13150733026E+04  0.13150733026E+04  0.00000000000E+00 0.  1.
          6    1    1    2  502    0 -0.90480812703E+02 -0.14900626370E+01 -0.61519079738E+02  0.20470123333E+03  0.17300000000E+03 0. -1.
         -6    1    1    2    0  501  0.90480812703E+02  0.14900626370E+01 -0.11739007124E+04  0.11900255797E+04  0.17300000000E+03 0.  1.
<mgrwt>
<rscale>  2 0.19523831E+03</rscale>
<asrwt>0</asrwt>
<pdfrwt beam="2">  1        2 0.20231895E+00 0.19523831E+03</pdfrwt>
<pdfrwt beam="1">  1       -2 0.12254387E-01 0.19523831E+03</pdfrwt>
<totfact> 0.82990536E+02</totfact>
</mgrwt>
</event>
<event>
 4    1  0.8130725E-001  0.1786874E+03  0.7546771E-02  0.1169079E+00
          2   -1    0    0  502    0  0.00000000000E+00  0.00000000000E+00  0.21988143274E+03  0.21988143274E+03  0.00000000000E+00 0.  1.
         -2   -1    0    0    0  501 -0.00000000000E+00 -0.00000000000E+00 -0.15663941542E+03  0.15663941542E+03  0.00000000000E+00 0. -1.
          6    1    1    2  502    0 -0.11403365625E+02 -0.43245129177E+02  0.82472495620E+02  0.19680165263E+03  0.17300000000E+03 0.  1.
         -6    1    1    2    0  501  0.11403365625E+02  0.43245129177E+02 -0.19230478293E+02  0.17971919553E+03  0.17300000000E+03 0. -1.
<mgrwt>
<rscale>  2 0.17868737E+03</rscale>
<asrwt>0</asrwt>
<pdfrwt beam="1">  1        2 0.33827913E-01 0.17868737E+03</pdfrwt>
<pdfrwt beam="2">  1       -2 0.24098372E-01 0.17868737E+03</pdfrwt>
<totfact> 0.22896124E+03</totfact>
</mgrwt>
</event>
<event>
 4    1  0.8130725E-001  0.2338407E+03  0.7546771E-02  0.1123965E+00
         -2   -1    0    0    0  501 -0.00000000000E+00  0.00000000000E+00  0.75631576361E+03  0.75631576361E+03  0.00000000000E+00 0. -1.
          2   -1    0    0  502    0  0.00000000000E+00 -0.00000000000E+00 -0.74178883820E+02  0.74178883820E+02  0.00000000000E+00 0.  1.
          6    1    1    2  502    0  0.36504516118E+02  0.15303555466E+03  0.27497741525E+03  0.36096265677E+03  0.17300000000E+03 0. -1.
         -6    1    1    2    0  501 -0.36504516118E+02 -0.15303555466E+03  0.40715946454E+03  0.46953199066E+03  0.17300000000E+03 0. -1.
<mgrwt>
<rscale>  2 0.23384067E+03</rscale>
<asrwt>0</asrwt>
<pdfrwt beam="2">  1        2 0.11412137E-01 0.23384067E+03</pdfrwt>
<pdfrwt beam="1">  1       -2 0.11635627E+00 0.23384067E+03</pdfrwt>
<totfact> 0.32532215E+02</totfact>
</mgrwt>
</event>
<event>
 4    1  0.8130725E-001  0.2248124E+03  0.7546771E-02  0.1130345E+00
         -3   -1    0    0    0  501 -0.00000000000E+00  0.00000000000E+00  0.26492740583E+03  0.26492740583E+03  0.00000000000E+00 0. -1.
          3   -1    0    0  502    0  0.00000000000E+00 -0.00000000000E+00 -0.39336010006E+03  0.39336010006E+03  0.00000000000E+00 0.  1.
          6    1    1    2  502    0 -0.53380264795E+02  0.13327484606E+03 -0.30042609121E+03  0.37522856174E+03  0.17300000000E+03 0.  1.
         -6    1    1    2    0  501  0.53380264795E+02 -0.13327484606E+03  0.17199339699E+03  0.28305894416E+03  0.17300000000E+03 0. -1.
<mgrwt>
<rscale>  2 0.22481245E+03</rscale>
<asrwt>0</asrwt>
<pdfrwt beam="2">  1        3 0.60516938E-01 0.22481245E+03</pdfrwt>
<pdfrwt beam="1">  1       -3 0.40758063E-01 0.22481245E+03</pdfrwt>
<totfact> 0.39895125E+01</totfact>
</mgrwt>
</event>
<event>
 4    1  0.8130725E-001  0.2000272E+03  0.7546771E-02  0.1149716E+00
         -1   -1    0    0    0  501 -0.00000000000E+00  0.00000000000E+00  0.49776224568E+02  0.49776224568E+02  0.00000000000E+00 0.  1.
          1   -1    0    0  502    0  0.00000000000E+00 -0.00000000000E+00 -0.12293783896E+04  0.12293783896E+04  0.00000000000E+00 0. -1.
          6    1    1    2  502    0 -0.29741011078E+02 -0.95902904718E+02 -0.96609932893E+03  0.98658948313E+03  0.17300000000E+03 0. -1.
         -6    1    1    2    0  501  0.29741011078E+02  0.95902904718E+02 -0.21350283611E+03  0.29256513104E+03  0.17300000000E+03 0.  1.
<mgrwt>
<rscale>  2 0.20002724E+03</rscale>
<asrwt>0</asrwt>
<pdfrwt beam="2">  1        1 0.18913512E+00 0.20002724E+03</pdfrwt>
<pdfrwt beam="1">  1       -1 0.76578812E-02 0.20002724E+03</pdfrwt>
<totfact> 0.10103982E+03</totfact>
</mgrwt>
</event>
<event>
 4    1  0.8130725E-001  0.1740914E+03  0.7546771E-02  0.1173647E+00
          2   -1    0    0  502    0  0.00000000000E+00  0.00000000000E+00  0.48173208122E+02  0.48173208122E+02  0.00000000000E+00 0.  1.
         -2   -1    0    0    0  501 -0.00000000000E+00 -0.00000000000E+00 -0.86625496299E+03  0.86625496299E+03  0.00000000000E+00 0. -1.
          6    1    1    2  502    0  0.19315486258E+02  0.23926753326E+01 -0.16983385872E+03  0.24321051061E+03  0.17300000000E+03 0.  1.
         -6    1    1    2    0  501 -0.19315486258E+02 -0.23926753326E+01 -0.64824789615E+03  0.67121766050E+03  0.17300000000E+03 0. -1.
<mgrwt>
<rscale>  2 0.17409139E+03</rscale>
<asrwt>0</asrwt>
<pdfrwt beam="1">  1        2 0.74112623E-02 0.17409139E+03</pdfrwt>
<pdfrwt beam="2">  1       -2 0.13327000E+00 0.17409139E+03</pdfrwt>
<totfact> 0.39886093E+02</totfact>
</mgrwt>
</event>
<event>
 4    1  0.8130725E-001  0.2079963E+03  0.7546771E-02  0.1143163E+00
         -2   -1    0    0    0  501 -0.00000000000E+00  0.00000000000E+00  0.18015236592E+03  0.18015236592E+03  0.00000000000E+00 0. -1.
          2   -1    0    0  502    0  0.00000000000E+00 -0.00000000000E+00 -0.24718657030E+03  0.24718657030E+03  0.00000000000E+00 0.  1.
          6    1    1    2  502    0  0.10110899860E+03 -0.55771172051E+02 -0.69583710522E+02  0.21932702980E+03  0.17300000000E+03 0. -1.
         -6    1    1    2    0  501 -0.10110899860E+03  0.55771172051E+02  0.25495061390E+01  0.20801190642E+03  0.17300000000E+03 0. -1.
<mgrwt>
<rscale>  2 0.20799628E+03</rscale>
<asrwt>0</asrwt>
<pdfrwt beam="2">  1        2 0.38028703E-01 0.20799628E+03</pdfrwt>
<pdfrwt beam="1">  1       -2 0.27715749E-01 0.20799628E+03</pdfrwt>
<totfact> 0.15829442E+03</totfact>
</mgrwt>
</event>
<event>
 4    1  0.8130725E-001  0.1849833E+03  0.7546771E-02  0.1163066E+00
          1   -1    0    0  502    0  0.00000000000E+00  0.00000000000E+00  0.57288944207E+02  0.57288944207E+02  0.00000000000E+00 0.  1.
         -1   -1    0    0    0  501 -0.00000000000E+00 -0.00000000000E+00 -0.60792430459E+03  0.60792430459E+03  0.00000000000E+00 0. -1.
          6    1    1    2  502    0 -0.64662992005E+02 -0.10416796136E+02 -0.31928312906E+03  0.36899936135E+03  0.17300000000E+03 0.  1.
         -6    1    1    2    0  501  0.64662992005E+02  0.10416796136E+02 -0.23135223133E+03  0.29621388745E+03  0.17300000000E+03 0.  1.
<mgrwt>
<rscale>  2 0.18498328E+03</rscale>
<asrwt>0</asrwt>
<pdfrwt beam="1">  1        1 0.88136838E-02 0.18498328E+03</pdfrwt>
<pdfrwt beam="2">  1       -1 0.93526815E-01 0.18498328E+03</pdfrwt>
<totfact> 0.88452608E+02</totfact>
</mgrwt>
</event>
<event>
 4    1  0.8130725E-001  0.1804634E+03  0.7546771E-02  0.1167355E+00
         -2   -1    0    0    0  501 -0.00000000000E+00  0.00000000000E+00  0.42189578974E+02  0.42189578974E+02  0.00000000000E+00 0. -1.
          2   -1    0    0  502    0  0.00000000000E+00 -0.00000000000E+00 -0.99473353287E+03  0.99473353287E+03  0.00000000000E+00 0.  1.
          6    1    1    2  502    0 -0.39602883264E+02  0.32705349968E+02 -0.23089554774E+03  0.29305252472E+03  0.17300000000E+03 0.  1.
         -6    1    1    2    0  501  0.39602883264E+02 -0.32705349968E+02 -0.72164840616E+03  0.74387058713E+03  0.17300000000E+03 0.  1.
<mgrwt>
<rscale>  2 0.18046337E+03</rscale>
<asrwt>0</asrwt>
<pdfrwt beam="2">  1        2 0.15303590E+00 0.18046337E+03</pdfrwt>
<pdfrwt beam="1">  1       -2 0.64907055E-02 0.18046337E+03</pdfrwt>
<totfact> 0.34318305E+03</totfact>
</mgrwt>
</event>
<event>
 4    1  0.8130725E-001  0.1793142E+03  0.7546771E-02  0.1168468E+00
         -1   -1    0    0    0  501 -0.00000000000E+00  0.00000000000E+00  0.16235213814E+03  0.16235213814E+03  0.00000000000E+00 0. -1.
          1   -1    0    0  502    0  0.00000000000E+00 -0.00000000000E+00 -0.24935015103E+03  0.24935015103E+03  0.00000000000E+00 0.  1.
          6    1    1    2  502    0  0.27038727510E+02 -0.38645463488E+02 -0.13687064806E+03  0.22558177882E+03  0.17300000000E+03 0.  1.
         -6    1    1    2    0  501 -0.27038727510E+02  0.38645463488E+02  0.49872635176E+02  0.18612051035E+03  0.17300000000E+03 0. -1.
<mgrwt>
<rscale>  2 0.17931415E+03</rscale>
<asrwt>0</asrwt>
<pdfrwt beam="2">  1        1 0.38361562E-01 0.17931415E+03</pdfrwt>
<pdfrwt beam="1">  1       -1 0.24977252E-01 0.17931415E+03</pdfrwt>
<totfact> 0.15299661E+03</totfact>
</mgrwt>
</event>
<event>
 4    1  0.8130725E-001  0.2522204E+03  0.7546771E-02  0.1111910E+00
          1   -1    0    0  502    0  0.00000000000E+00  0.00000000000E+00  0.41778778815E+03  0.41778778815E+03  0.00000000000E+00 0. -1.
         -1   -1    0    0    0  501 -0.00000000000E+00 -0.00000000000E+00 -0.17050781008E+03  0.17050781008E+03  0.00000000000E+00 0.  1.
          6    1    1    2  502    0  0.12741912466E+03 -0.13210026128E+03  0.27429886631E+02  0.25370753051E+03  0.17300000000E+03 0.  1.
         -6    1    1    2    0  501 -0.12741912466E+03  0.13210026128E+03  0.21985009143E+03  0.33458806772E+03  0.17300000000E+03 0. -1.
<mgrwt>
<rscale>  2 0.25222036E+03</rscale>
<asrwt>0</asrwt>
<pdfrwt beam="1">  1        1 0.64275044E-01 0.25222036E+03</pdfrwt>
<pdfrwt beam="2">  1       -1 0.26231971E-01 0.25222036E+03</pdfrwt>
<totfact> 0.73772144E+02</totfact>
</mgrwt>
</event>
<event>
 4    1  0.8130725E-001  0.1943719E+03  0.7546771E-02  0.1154576E+00
          1   -1    0    0  502    0  0.00000000000E+00  0.00000000000E+00  0.60345564533E+02  0.60345564533E+02  0.00000000000E+00 0. -1.
         -1   -1    0    0    0  501 -0.00000000000E+00 -0.00000000000E+00 -0.66145659846E+03  0.66145659846E+03  0.00000000000E+00 0.  1.
          6    1    1    2  502    0  0.59807277104E+02 -0.65379965792E+02 -0.38403251186E+03  0.43042005121E+03  0.17300000000E+03 0. -1.
         -6    1    1    2    0  501 -0.59807277104E+02  0.65379965792E+02 -0.21707852207E+03  0.29138211178E+03  0.17300000000E+03 0.  1.
<mgrwt>
<rscale>  2 0.19437194E+03</rscale>
<asrwt>0</asrwt>
<pdfrwt beam="1">  1        1 0.92839328E-02 0.19437194E+03</pdfrwt>
<pdfrwt beam="2">  1       -1 0.10176256E+00 0.19437194E+03</pdfrwt>
<totfact> 0.68572584E+02</totfact>
</mgrwt>
</event>
<event>
 4    1  0.8130725E-001  0.2094927E+03  0.7546771E-02  0.1141968E+00
         -4   -1    0    0    0  501 -0.00000000000E+00  0.00000000000E+00  0.72332916869E+02  0.72332916869E+02  0.00000000000E+00 0. -1.
          4   -1    0    0  502    0  0.00000000000E+00 -0.00000000000E+00 -0.63367765288E+03  0.63367765288E+03  0.00000000000E+00 0.  1.
          6    1    1    2  502    0 -0.96421384882E+02  0.68272418429E+02 -0.20788862285E+03  0.29513536910E+03  0.17300000000E+03 0. -1.
         -6    1    1    2    0  501  0.96421384882E+02 -0.68272418429E+02 -0.35345611316E+03  0.41087520065E+03  0.17300000000E+03 0. -1.
<mgrwt>
<rscale>  2 0.20949274E+03</rscale>
<asrwt>0</asrwt>
<pdfrwt beam="2">  1        4 0.97488871E-01 0.20949274E+03</pdfrwt>
<pdfrwt beam="1">  1       -4 0.11128141E-01 0.20949274E+03</pdfrwt>
<totfact> 0.10260923E+02</totfact>
</mgrwt>
</event>
<event>
 4    1  0.8130725E-001  0.2026413E+03  0.7546771E-02  0.1147530E+00
          2   -1    0    0  502    0  0.00000000000E+00  0.00000000000E+00  0.12715910073E+04  0.12715910073E+04  0.00000000000E+00 0. -1.
         -2   -1    0    0    0  501 -0.00000000000E+00 -0.00000000000E+00 -0.42387328548E+02  0.42387328548E+02  0.00000000000E+00 0.  1.
          6    1    1    2  502    0  0.40944891273E+02 -0.97252230882E+02  0.93521329602E+03  0.95691556032E+03  0.17300000000E+03 0.  1.
         -6    1    1    2    0  501 -0.40944891273E+02  0.97252230882E+02  0.29399038278E+03  0.35706277557E+03  0.17300000000E+03 0.  1.
<mgrwt>
<rscale>  2 0.20264126E+03</rscale>
<asrwt>0</asrwt>
<pdfrwt beam="1">  1        2 0.19562936E+00 0.20264126E+03</pdfrwt>
<pdfrwt beam="2">  1       -2 0.65211284E-02 0.20264126E+03</pdfrwt>
<totfact> 0.23643933E+03</totfact>
</mgrwt>
</event>
<event>
 4    1  0.8130725E-001  0.2349178E+03  0.7546771E-02  0.1123225E+00
          2   -1    0    0  502    0  0.00000000000E+00  0.00000000000E+00  0.10085353098E+04  0.10085353098E+04  0.00000000000E+00 0.  1.
         -2   -1    0    0    0  501 -0.00000000000E+00 -0.00000000000E+00 -0.54740538202E+02  0.54740538202E+02  0.00000000000E+00 0. -1.
          6    1    1    2  502    0 -0.14907936583E+03  0.55070242939E+02  0.48735869483E+03  0.54102207571E+03  0.17300000000E+03 0.  1.
         -6    1    1    2    0  501  0.14907936583E+03 -0.55070242939E+02  0.46643607681E+03  0.52225377234E+03  0.17300000000E+03 0. -1.
<mgrwt>
<rscale>  2 0.23491783E+03</rscale>
<asrwt>0</asrwt>
<pdfrwt beam="1">  1        2 0.15515926E+00 0.23491783E+03</pdfrwt>
<pdfrwt beam="2">  1       -2 0.84216220E-02 0.23491783E+03</pdfrwt>
<totfact> 0.22569240E+03</totfact>
</mgrwt>
</event>
<event>
 4    1  0.8130725E-001  0.3146866E+03  0.7546771E-02  0.1078121E+00
         -2   -1    0    0    0  501 -0.00000000000E+00  0.00000000000E+00  0.75642464436E+02  0.75642464436E+02  0.00000000000E+00 0. -1.
          2   -1    0    0  502    0  0.00000000000E+00 -0.00000000000E+00 -0.18952222717E+04  0.18952222717E+04  0.00000000000E+00 0.  1.
          6    1    1    2  502    0  0.18198711238E+03 -0.18968217168E+03 -0.36180215304E+03  0.47950853305E+03  0.17300000000E+03 0. -1.
         -6    1    1    2    0  501 -0.18198711238E+03  0.18968217168E+03 -0.14577776542E+04  0.14913562031E+04  0.17300000000E+03 0.  1.
<mgrwt>
<rscale>  2 0.31468657E+03</rscale>
<asrwt>0</asrwt>
<pdfrwt beam="2">  1        2 0.29157264E+00 0.31468657E+03</pdfrwt>
<pdfrwt beam="1">  1       -2 0.11637303E-01 0.31468657E+03</pdfrwt>
<totfact> 0.43635310E+02</totfact>
</mgrwt>
</event>
<event>
 4    1  0.8130725E-001  0.2493506E+03  0.7546771E-02  0.1113716E+00
         -1   -1    0    0    0  501 -0.00000000000E+00  0.00000000000E+00  0.17363645210E+03  0.17363645210E+03  0.00000000000E+00 0.  1.
          1   -1    0    0  502    0  0.00000000000E+00 -0.00000000000E+00 -0.60980837625E+03  0.60980837625E+03  0.00000000000E+00 0. -1.
          6    1    1    2  502    0 -0.17889129180E+03 -0.15640041240E+02 -0.46976554972E+03  0.53184149600E+03  0.17300000000E+03 0. -1.
         -6    1    1    2    0  501  0.17889129180E+03  0.15640041240E+02  0.33593625558E+02  0.25160333235E+03  0.17300000000E+03 0.  1.
<mgrwt>
<rscale>  2 0.24935057E+03</rscale>
<asrwt>0</asrwt>
<pdfrwt beam="2">  1        1 0.93816671E-01 0.24935057E+03</pdfrwt>
<pdfrwt beam="1">  1       -1 0.26713301E-01 0.24935057E+03</pdfrwt>
<totfact> 0.43149655E+02</totfact>
</mgrwt>
</event>
<event>
 4    1  0.8130725E-001  0.2253029E+03  0.7546771E-02  0.1129990E+00
          2   -1    0    0  502    0  0.00000000000E+00  0.00000000000E+00  0.44895354578E+03  0.44895354578E+03  0.00000000000E+00 0.  1.
         -2   -1    0    0    0  501 -0.00000000000E+00 -0.00000000000E+00 -0.14635673449E+03  0.14635673449E+03  0.00000000000E+00 0. -1.
          6    1    1    2  502    0 -0.64117172151E+02 -0.12931117817E+03  0.93375656198E+01  0.22549630306E+03  0.17300000000E+03 0. -1.
         -6    1    1    2    0  501  0.64117172151E+02  0.12931117817E+03  0.29325924567E+03  0.36981397721E+03  0.17300000000E+03 0.  1.
<mgrwt>
<rscale>  2 0.22530289E+03</rscale>
<asrwt>0</asrwt>
<pdfrwt beam="1">  1        2 0.69069776E-01 0.22530289E+03</pdfrwt>
<pdfrwt beam="2">  1       -2 0.22516421E-01 0.22530289E+03</pdfrwt>
<totfact> 0.11998674E+03</totfact>
</mgrwt>
</event>
<event>
 4    1  0.8130725E-001  0.1945496E+03  0.7546771E-02  0.1154421E+00
          2   -1    0    0  502    0  0.00000000000E+00  0.00000000000E+00  0.28907914152E+03  0.28907914152E+03  0.00000000000E+00 0.  1.
         -2   -1    0    0    0  501 -0.00000000000E+00 -0.00000000000E+00 -0.13775878261E+03  0.13775878261E+03  0.00000000000E+00 0. -1.
          6    1    1    2  502    0 -0.81438859339E+02 -0.35892256532E+02  0.28148552055E+02  0.19657538725E+03  0.17300000000E+03 0. -1.
         -6    1    1    2    0  501  0.81438859339E+02  0.35892256532E+02  0.12317180685E+03  0.23026253688E+03  0.17300000000E+03 0.  1.
<mgrwt>
<rscale>  2 0.19454959E+03</rscale>
<asrwt>0</asrwt>
<pdfrwt beam="1">  1        2 0.44473714E-01 0.19454959E+03</pdfrwt>
<pdfrwt beam="2">  1       -2 0.21193659E-01 0.19454959E+03</pdfrwt>
<totfact> 0.21373704E+03</totfact>
</mgrwt>
</event>
<event>
 4    1  0.8130725E-001  0.2099017E+03  0.7546771E-02  0.1141644E+00
          2   -1    0    0  502    0  0.00000000000E+00  0.00000000000E+00  0.14789133954E+03  0.14789133954E+03  0.00000000000E+00 0.  1.
         -2   -1    0    0    0  501 -0.00000000000E+00 -0.00000000000E+00 -0.31456079084E+03  0.31456079084E+03  0.00000000000E+00 0. -1.
          6    1    1    2  502    0  0.11257321361E+03  0.38170629750E+02 -0.13652903843E+03  0.25039749146E+03  0.17300000000E+03 0. -1.
         -6    1    1    2    0  501 -0.11257321361E+03 -0.38170629750E+02 -0.30140412882E+02  0.21205463892E+03  0.17300000000E+03 0.  1.
<mgrwt>
<rscale>  2 0.20990170E+03</rscale>
<asrwt>0</asrwt>
<pdfrwt beam="1">  1        2 0.22752514E-01 0.20990170E+03</pdfrwt>
<pdfrwt beam="2">  1       -2 0.48393967E-01 0.20990170E+03</pdfrwt>
<totfact> 0.97713401E+02</totfact>
</mgrwt>
</event>
<event>
 4    1  0.8130725E-001  0.1825936E+03  0.7546771E-02  0.1165316E+00
         -1   -1    0    0    0  501 -0.00000000000E+00  0.00000000000E+00  0.80173150058E+02  0.80173150058E+02  0.00000000000E+00 0. -1.
          1   -1    0    0  502    0  0.00000000000E+00 -0.00000000000E+00 -0.41981315003E+03  0.41981315003E+03  0.00000000000E+00 0.  1.
          6    1    1    2  502    0 -0.15657483120E+02 -0.56269455155E+02 -0.19409415568E+03  0.26648255033E+03  0.17300000000E+03 0. -1.
         -6    1    1    2    0  501  0.15657483120E+02  0.56269455155E+02 -0.14554584429E+03  0.23350374976E+03  0.17300000000E+03 0.  1.
<mgrwt>
<rscale>  2 0.18259356E+03</rscale>
<asrwt>0</asrwt>
<pdfrwt beam="2">  1        1 0.64586638E-01 0.18259356E+03</pdfrwt>
<pdfrwt beam="1">  1       -1 0.12334331E-01 0.18259356E+03</pdfrwt>
<totfact> 0.24611595E+03</totfact>
</mgrwt>
</event>
<event>
 4    1  0.8130725E-001  0.1769083E+03  0.7546771E-02  0.1170829E+00
         -1   -1    0    0    0  501 -0.00000000000E+00  0.00000000000E+00  0.45727192936E+02  0.45727192936E+02  0.00000000000E+00 0. -1.
          1   -1    0    0  502    0  0.00000000000E+00 -0.00000000000E+00 -0.70505959445E+03  0.70505959445E+03  0.00000000000E+00 0.  1.
          6    1    1    2  502    0  0.34106728781E+02  0.14292817260E+02 -0.26543645347E+03  0.31898756152E+03  0.17300000000E+03 0. -1.
         -6    1    1    2    0  501 -0.34106728781E+02 -0.14292817260E+02 -0.39389594804E+03  0.43179922587E+03  0.17300000000E+03 0.  1.
<mgrwt>
<rscale>  2 0.17690832E+03</rscale>
<asrwt>0</asrwt>
<pdfrwt beam="2">  1        1 0.10847071E+00 0.17690832E+03</pdfrwt>
<pdfrwt beam="1">  1       -1 0.70349526E-02 0.17690832E+03</pdfrwt>
<totfact> 0.28877425E+03</totfact>
</mgrwt>
</event>
<event>
 4    1  0.8130725E-001  0.2653757E+03  0.7546771E-02  0.1103956E+00
          2   -1    0    0  502    0  0.00000000000E+00  0.00000000000E+00  0.10355320778E+04  0.10355320778E+04  0.00000000000E+00 0. -1.
         -2   -1    0    0    0  501 -0.00000000000E+00 -0.00000000000E+00 -0.89635721318E+02  0.89635721318E+02  0.00000000000E+00 0.  1.
          6    1    1    2  502    0 -0.18518072237E+03 -0.78761543693E+02  0.74929464411E+03  0.79490046195E+03  0.17300000000E+03 0. -1.
         -6    1    1    2    0  501  0.18518072237E+03  0.78761543693E+02  0.19660171239E+03  0.33026733719E+03  0.17300000000E+03 0.  1.
<mgrwt>
<rscale>  2 0.26537573E+03</rscale>
<asrwt>0</asrwt>
<pdfrwt beam="1">  1        2 0.15931262E+00 0.26537573E+03</pdfrwt>
<pdfrwt beam="2">  1       -2 0.13790112E-01 0.26537573E+03</pdfrwt>
<totfact> 0.98495480E+02</totfact>
</mgrwt>
</event>
<event>
 4    1  0.8130725E-001  0.1732728E+03  0.7546771E-02  0.1174477E+00
         -2   -1    0    0    0  501 -0.00000000000E+00  0.00000000000E+00  0.79331236618E+03  0.79331236618E+03  0.00000000000E+00 0. -1.
          2   -1    0    0  502    0  0.00000000000E+00 -0.00000000000E+00 -0.38260153311E+02  0.38260153311E+02  0.00000000000E+00 0.  1.
          6    1    1    2  502    0 -0.26359515777E+01  0.93541053125E+01  0.33425041409E+03  0.37649274475E+03  0.17300000000E+03 0.  1.
         -6    1    1    2    0  501  0.26359515777E+01 -0.93541053125E+01  0.42080179877E+03  0.45507977474E+03  0.17300000000E+03 0. -1.
<mgrwt>
<rscale>  2 0.17327275E+03</rscale>
<asrwt>0</asrwt>
<pdfrwt beam="2">  1        2 0.58861780E-02 0.17327275E+03</pdfrwt>
<pdfrwt beam="1">  1       -2 0.12204804E+00 0.17327275E+03</pdfrwt>
<totfact> 0.66551610E+02</totfact>
</mgrwt>
</event>
<event>
 4    1  0.8130725E-001  0.2776266E+03  0.7546771E-02  0.1096992E+00
          2   -1    0    0  502    0  0.00000000000E+00  0.00000000000E+00  0.45995426954E+03  0.45995426954E+03  0.00000000000E+00 0.  1.
         -2   -1    0    0    0  501 -0.00000000000E+00 -0.00000000000E+00 -0.16757477736E+03  0.16757477736E+03  0.00000000000E+00 0. -1.
          6    1    1    2  502    0 -0.21680612639E+03 -0.11943038903E+02  0.14669731107E+03  0.31400100906E+03  0.17300000000E+03 0. -1.
         -6    1    1    2    0  501  0.21680612639E+03  0.11943038903E+02  0.14568218111E+03  0.31352803784E+03  0.17300000000E+03 0.  1.
<mgrwt>
<rscale>  2 0.27762661E+03</rscale>
<asrwt>0</asrwt>
<pdfrwt beam="1">  1        2 0.70762195E-01 0.27762661E+03</pdfrwt>
<pdfrwt beam="2">  1       -2 0.25780735E-01 0.27762661E+03</pdfrwt>
<totfact> 0.92213004E+02</totfact>
</mgrwt>
</event>
<event>
 4    1  0.8130725E-001  0.1865142E+03  0.7546771E-02  0.1161643E+00
         -1   -1    0    0    0  501 -0.00000000000E+00  0.00000000000E+00  0.50086109481E+02  0.50086109481E+02  0.00000000000E+00 0. -1.
          1   -1    0    0  502    0  0.00000000000E+00 -0.00000000000E+00 -0.10193723849E+04  0.10193723849E+04  0.00000000000E+00 0.  1.
          6    1    1    2  502    0 -0.50268213772E+02 -0.48287166056E+02 -0.78649045943E+03  0.80830364746E+03  0.17300000000E+03 0.  1.
         -6    1    1    2    0  501  0.50268213772E+02  0.48287166056E+02 -0.18279581595E+03  0.26115484688E+03  0.17300000000E+03 0.  1.
<mgrwt>
<rscale>  2 0.18651419E+03</rscale>
<asrwt>0</asrwt>
<pdfrwt beam="2">  1        1 0.15682653E+00 0.18651419E+03</pdfrwt>
<pdfrwt beam="1">  1       -1 0.77055550E-02 0.18651419E+03</pdfrwt>
<totfact> 0.14109826E+03</totfact>
</mgrwt>
</event>
<event>
 4    1  0.8130725E-001  0.2133499E+03  0.7546771E-02  0.1138940E+00
          1   -1    0    0  502    0  0.00000000000E+00  0.00000000000E+00  0.18316965291E+04  0.18316965291E+04  0.00000000000E+00 0. -1.
         -1   -1    0    0    0  501 -0.00000000000E+00 -0.00000000000E+00 -0.24873616052E+02  0.24873616052E+02  0.00000000000E+00 0.  1.
          6    1    1    2  502    0  0.85625448074E+02  0.90870544989E+02  0.87497882539E+03  0.90061430046E+03  0.17300000000E+03 0. -1.
         -6    1    1    2    0  501 -0.85625448074E+02 -0.90870544989E+02  0.93184408761E+03  0.95595584465E+03  0.17300000000E+03 0.  1.
<mgrwt>
<rscale>  2 0.21334988E+03</rscale>
<asrwt>0</asrwt>
<pdfrwt beam="1">  1        1 0.28179936E+00 0.21334988E+03</pdfrwt>
<pdfrwt beam="2">  1       -1 0.38267116E-02 0.21334988E+03</pdfrwt>
<totfact> 0.11448480E+03</totfact>
</mgrwt>
</event>
<event>
 4    1  0.8130725E-001  0.2741503E+03  0.7546771E-02  0.1098927E+00
          2   -1    0    0  502    0  0.00000000000E+00  0.00000000000E+00  0.16386121730E+04  0.16386121730E+04  0.00000000000E+00 0. -1.
         -2   -1    0    0    0  501 -0.00000000000E+00 -0.00000000000E+00 -0.77986541377E+02  0.77986541377E+02  0.00000000000E+00 0.  1.
          6    1    1    2  502    0  0.85087423667E+02  0.19490904683E+03  0.22948878955E+03  0.35752414007E+03  0.17300000000E+03 0.  1.
         -6    1    1    2    0  501 -0.85087423667E+02 -0.19490904683E+03  0.13311368421E+04  0.13590745743E+04  0.17300000000E+03 0. -1.
<mgrwt>
<rscale>  2 0.27415034E+03</rscale>
<asrwt>0</asrwt>
<pdfrwt beam="1">  1        2 0.25209415E+00 0.27415034E+03</pdfrwt>
<pdfrwt beam="2">  1       -2 0.11997931E-01 0.27415034E+03</pdfrwt>
<totfact> 0.57074315E+02</totfact>
</mgrwt>
</event>
<event>
 4    1  0.8130725E-001  0.2410071E+03  0.7546771E-02  0.1119124E+00
          1   -1    0    0  502    0  0.00000000000E+00  0.00000000000E+00  0.42498928285E+03  0.42498928285E+03  0.00000000000E+00 0. -1.
         -1   -1    0    0    0  501 -0.00000000000E+00 -0.00000000000E+00 -0.21271452214E+03  0.21271452214E+03  0.00000000000E+00 0.  1.
          6    1    1    2  502    0 -0.14249146887E+03 -0.88609205735E+02  0.29677861966E+03  0.38231133796E+03  0.17300000000E+03 0. -1.
         -6    1    1    2    0  501  0.14249146887E+03  0.88609205735E+02 -0.84503858955E+02  0.25539246704E+03  0.17300000000E+03 0.  1.
<mgrwt>
<rscale>  2 0.24100707E+03</rscale>
<asrwt>0</asrwt>
<pdfrwt beam="1">  1        1 0.65382966E-01 0.24100707E+03</pdfrwt>
<pdfrwt beam="2">  1       -1 0.32725311E-01 0.24100707E+03</pdfrwt>
<totfact> 0.49568324E+02</totfact>
</mgrwt>
</event>
<event>
 4    1  0.8130725E-001  0.2202482E+03  0.7546771E-02  0.1133698E+00
         -1   -1    0    0    0  501 -0.00000000000E+00  0.00000000000E+00  0.29106454458E+02  0.29106454458E+02  0.00000000000E+00 0.  1.
          1   -1    0    0  502    0  0.00000000000E+00 -0.00000000000E+00 -0.16959862003E+04  0.16959862003E+04  0.00000000000E+00 0. -1.
          6    1    1    2  502    0 -0.10190913710E+03  0.90525054640E+02 -0.71993067169E+03  0.75286747159E+03  0.17300000000E+03 0. -1.
         -6    1    1    2    0  501  0.10190913710E+03 -0.90525054640E+02 -0.94694907415E+03  0.97222518317E+03  0.17300000000E+03 0. -1.
<mgrwt>
<rscale>  2 0.22024817E+03</rscale>
<asrwt>0</asrwt>
<pdfrwt beam="2">  1        1 0.26092096E+00 0.22024817E+03</pdfrwt>
<pdfrwt beam="1">  1       -1 0.44779159E-02 0.22024817E+03</pdfrwt>
<totfact> 0.11087124E+03</totfact>
</mgrwt>
</event>
<event>
 4    1  0.8130725E-001  0.2006428E+03  0.7546771E-02  0.1149198E+00
         -1   -1    0    0    0  501 -0.00000000000E+00  0.00000000000E+00  0.55468749587E+03  0.55468749587E+03  0.00000000000E+00 0. -1.
          1   -1    0    0  502    0  0.00000000000E+00 -0.00000000000E+00 -0.80413986645E+02  0.80413986645E+02  0.00000000000E+00 0.  1.
          6    1    1    2  502    0  0.22437243159E+01 -0.10160462816E+03  0.33627080886E+03  0.39158088776E+03  0.17300000000E+03 0. -1.
         -6    1    1    2    0  501 -0.22437243159E+01  0.10160462816E+03  0.13800270036E+03  0.24352059475E+03  0.17300000000E+03 0.  1.
<mgrwt>
<rscale>  2 0.20064280E+03</rscale>
<asrwt>0</asrwt>
<pdfrwt beam="2">  1        1 0.12371383E-01 0.20064280E+03</pdfrwt>
<pdfrwt beam="1">  1       -1 0.85336535E-01 0.20064280E+03</pdfrwt>
<totfact> 0.68468361E+02</totfact>
</mgrwt>
</event>
<event>
 4    1  0.8130725E-001  0.1760660E+03  0.7546771E-02  0.1171666E+00
         -1   -1    0    0    0  501 -0.00000000000E+00  0.00000000000E+00  0.38713998634E+02  0.38713998634E+02  0.00000000000E+00 0. -1.
          1   -1    0    0  502    0  0.00000000000E+00 -0.00000000000E+00 -0.80461171045E+03  0.80461171045E+03  0.00000000000E+00 0.  1.
          6    1    1    2  502    0  0.32526802139E+02  0.35003341056E+01 -0.41225738929E+03  0.44828049280E+03  0.17300000000E+03 0.  1.
         -6    1    1    2    0  501 -0.32526802139E+02 -0.35003341056E+01 -0.35364032252E+03  0.39504521628E+03  0.17300000000E+03 0. -1.
<mgrwt>
<rscale>  2 0.17606603E+03</rscale>
<asrwt>0</asrwt>
<pdfrwt beam="2">  1        1 0.12378641E+00 0.17606603E+03</pdfrwt>
<pdfrwt beam="1">  1       -1 0.59560003E-02 0.17606603E+03</pdfrwt>
<totfact> 0.30487195E+03</totfact>
</mgrwt>
</event>
<event>
 4    1  0.8130725E-001  0.1768044E+03  0.7546771E-02  0.1170932E+00
          2   -1    0    0  502    0  0.00000000000E+00  0.00000000000E+00  0.41247669921E+03  0.41247669921E+03  0.00000000000E+00 0.  1.
         -2   -1    0    0    0  501 -0.00000000000E+00 -0.00000000000E+00 -0.83488674068E+02  0.83488674068E+02  0.00000000000E+00 0. -1.
          6    1    1    2  502    0 -0.33033455594E+02 -0.15478246758E+02  0.23981919965E+03  0.29794803881E+03  0.17300000000E+03 0. -1.
         -6    1    1    2    0  501  0.33033455594E+02  0.15478246758E+02  0.89168825502E+02  0.19801733447E+03  0.17300000000E+03 0. -1.
<mgrwt>
<rscale>  2 0.17680437E+03</rscale>
<asrwt>0</asrwt>
<pdfrwt beam="1">  1        2 0.63457953E-01 0.17680437E+03</pdfrwt>
<pdfrwt beam="2">  1       -2 0.12844412E-01 0.17680437E+03</pdfrwt>
<totfact> 0.33474340E+03</totfact>
</mgrwt>
</event>
<event>
 4    1  0.8130725E-001  0.1806192E+03  0.7546771E-02  0.1167205E+00
         -2   -1    0    0    0  501 -0.00000000000E+00  0.00000000000E+00  0.37421182152E+02  0.37421182152E+02  0.00000000000E+00 0.  1.
          2   -1    0    0  502    0  0.00000000000E+00 -0.00000000000E+00 -0.87271214915E+03  0.87271214915E+03  0.00000000000E+00 0. -1.
          6    1    1    2  502    0  0.86620418120E+01  0.51178862191E+02 -0.43246052488E+03  0.46866343199E+03  0.17300000000E+03 0. -1.
         -6    1    1    2    0  501 -0.86620418120E+01 -0.51178862191E+02 -0.40283044211E+03  0.44146989931E+03  0.17300000000E+03 0.  1.
<mgrwt>
<rscale>  2 0.18061923E+03</rscale>
<asrwt>0</asrwt>
<pdfrwt beam="2">  1        2 0.13426341E+00 0.18061923E+03</pdfrwt>
<pdfrwt beam="1">  1       -2 0.57571047E-02 0.18061923E+03</pdfrwt>
<totfact> 0.49158631E+03</totfact>
</mgrwt>
</event>
<event>
 4    1  0.8130725E-001  0.1745232E+03  0.7546771E-02  0.1173211E+00
          2   -1    0    0  502    0  0.00000000000E+00  0.00000000000E+00  0.80853261409E+03  0.80853261409E+03  0.00000000000E+00 0. -1.
         -2   -1    0    0    0  501 -0.00000000000E+00 -0.00000000000E+00 -0.47347828812E+02  0.47347828812E+02  0.00000000000E+00 0.  1.
          6    1    1    2  502    0  0.21490596733E+02 -0.82165965794E+01  0.57405458365E+03  0.59999751935E+03  0.17300000000E+03 0. -1.
         -6    1    1    2    0  501 -0.21490596733E+02  0.82165965794E+01  0.18713020162E+03  0.25588292355E+03  0.17300000000E+03 0.  1.
<mgrwt>
<rscale>  2 0.17452323E+03</rscale>
<asrwt>0</asrwt>
<pdfrwt beam="1">  1        2 0.12438962E+00 0.17452323E+03</pdfrwt>
<pdfrwt beam="2">  1       -2 0.72842819E-02 0.17452323E+03</pdfrwt>
<totfact> 0.37755937E+03</totfact>
</mgrwt>
</event>
<event>
 4    1  0.8130725E-001  0.2012138E+03  0.7546771E-02  0.1148719E+00
          2   -1    0    0  502    0  0.00000000000E+00  0.00000000000E+00  0.10339419894E+04  0.10339419894E+04  0.00000000000E+00 0.  1.
         -2   -1    0    0    0  501 -0.00000000000E+00 -0.00000000000E+00 -0.40406126482E+02  0.40406126482E+02  0.00000000000E+00 0. -1.
          6    1    1    2  502    0 -0.92278156317E+02  0.45196519661E+02  0.40235306358E+03  0.44986105777E+03  0.17300000000E+03 0.  1.
         -6    1    1    2    0  501  0.92278156317E+02 -0.45196519661E+02  0.59118279936E+03  0.62448705814E+03  0.17300000000E+03 0. -1.
<mgrwt>
<rscale>  2 0.20121378E+03</rscale>
<asrwt>0</asrwt>
<pdfrwt beam="1">  1        2 0.15906798E+00 0.20121378E+03</pdfrwt>
<pdfrwt beam="2">  1       -2 0.62163279E-02 0.20121378E+03</pdfrwt>
<totfact> 0.34812806E+03</totfact>
</mgrwt>
</event>
<event>
 4    1  0.8130725E-001  0.1958254E+03  0.7546771E-02  0.1153310E+00
          1   -1    0    0  502    0  0.00000000000E+00  0.00000000000E+00  0.18177736563E+04  0.18177736563E+04  0.00000000000E+00 0. -1.
         -1   -1    0    0    0  501 -0.00000000000E+00 -0.00000000000E+00 -0.22720533157E+02  0.22720533157E+02  0.00000000000E+00 0.  1.
          6    1    1    2  502    0 -0.85371590509E+02  0.33619450232E+02  0.11436044051E+04  0.11602493746E+04  0.17300000000E+03 0. -1.
         -6    1    1    2    0  501  0.85371590509E+02 -0.33619450232E+02  0.65144871807E+03  0.68024481488E+03  0.17300000000E+03 0.  1.
<mgrwt>
<rscale>  2 0.19582537E+03</rscale>
<asrwt>0</asrwt>
<pdfrwt beam="1">  1        1 0.27965737E+00 0.19582537E+03</pdfrwt>
<pdfrwt beam="2">  1       -1 0.34954681E-02 0.19582537E+03</pdfrwt>
<totfact> 0.13379828E+03</totfact>
</mgrwt>
</event>
<event>
 4    1  0.8130725E-001  0.1782824E+03  0.7546771E-02  0.1169476E+00
          2   -1    0    0  502    0  0.00000000000E+00  0.00000000000E+00  0.25535051100E+04  0.25535051100E+04  0.00000000000E+00 0.  1.
         -2   -1    0    0    0  501 -0.00000000000E+00 -0.00000000000E+00 -0.12492241161E+02  0.12492241161E+02  0.00000000000E+00 0. -1.
          6    1    1    2  502    0 -0.42448294629E+02 -0.73315098073E+01  0.13473375561E+04  0.13590817116E+04  0.17300000000E+03 0.  1.
         -6    1    1    2    0  501  0.42448294629E+02  0.73315098073E+01  0.11936753127E+04  0.12069156395E+04  0.17300000000E+03 0. -1.
<mgrwt>
<rscale>  2 0.17828238E+03</rscale>
<asrwt>0</asrwt>
<pdfrwt beam="1">  1        2 0.39284653E+00 0.17828238E+03</pdfrwt>
<pdfrwt beam="2">  1       -2 0.19218853E-02 0.17828238E+03</pdfrwt>
<totfact> 0.30916734E+03</totfact>
</mgrwt>
</event>
<event>
 4    1  0.8130725E-001  0.1741936E+03  0.7546771E-02  0.1173544E+00
          2   -1    0    0  502    0  0.00000000000E+00  0.00000000000E+00  0.40824626484E+03  0.40824626484E+03  0.00000000000E+00 0. -1.
         -2   -1    0    0    0  501 -0.00000000000E+00 -0.00000000000E+00 -0.76702123432E+02  0.76702123432E+02  0.00000000000E+00 0.  1.
          6    1    1    2  502    0 -0.20075806953E+02 -0.33719303434E+01  0.12309694339E+03  0.21329853588E+03  0.17300000000E+03 0.  1.
         -6    1    1    2    0  501  0.20075806953E+02  0.33719303434E+01  0.20844719802E+03  0.27164985238E+03  0.17300000000E+03 0. -1.
<mgrwt>
<rscale>  2 0.17419359E+03</rscale>
<asrwt>0</asrwt>
<pdfrwt beam="1">  1        2 0.62807117E-01 0.17419359E+03</pdfrwt>
<pdfrwt beam="2">  1       -2 0.11800327E-01 0.17419359E+03</pdfrwt>
<totfact> 0.38777042E+03</totfact>
</mgrwt>
</event>
<event>
 4    1  0.8130725E-001  0.1840881E+03  0.7546771E-02  0.1163904E+00
         -2   -1    0    0    0  501 -0.00000000000E+00  0.00000000000E+00  0.19104657530E+02  0.19104657530E+02  0.00000000000E+00 0.  1.
          2   -1    0    0  502    0  0.00000000000E+00 -0.00000000000E+00 -0.19921466669E+04  0.19921466669E+04  0.00000000000E+00 0. -1.
          6    1    1    2  502    0  0.46794492019E+02  0.42067762302E+02 -0.65361716556E+03  0.67904625779E+03  0.17300000000E+03 0.  1.
         -6    1    1    2    0  501 -0.46794492019E+02 -0.42067762302E+02 -0.13194248438E+04  0.13322050666E+04  0.17300000000E+03 0. -1.
<mgrwt>
<rscale>  2 0.18408808E+03</rscale>
<asrwt>0</asrwt>
<pdfrwt beam="2">  1        2 0.30648415E+00 0.18408808E+03</pdfrwt>
<pdfrwt beam="1">  1       -2 0.29391776E-02 0.18408808E+03</pdfrwt>
<totfact> 0.32776355E+03</totfact>
</mgrwt>
</event>
<event>
 4    1  0.8130725E-001  0.1889681E+03  0.7546771E-02  0.1159395E+00
         -1   -1    0    0    0  501 -0.00000000000E+00  0.00000000000E+00  0.97906424176E+02  0.97906424176E+02  0.00000000000E+00 0.  1.
          1   -1    0    0  502    0  0.00000000000E+00 -0.00000000000E+00 -0.41818020347E+03  0.41818020347E+03  0.00000000000E+00 0. -1.
          6    1    1    2  502    0  0.71541658913E+02  0.25723875620E+02 -0.25239522470E+03  0.31529712366E+03  0.17300000000E+03 0. -1.
         -6    1    1    2    0  501 -0.71541658913E+02 -0.25723875620E+02 -0.67878554592E+02  0.20078950398E+03  0.17300000000E+03 0.  1.
<mgrwt>
<rscale>  2 0.18896806E+03</rscale>
<asrwt>0</asrwt>
<pdfrwt beam="2">  1        1 0.64335414E-01 0.18896806E+03</pdfrwt>
<pdfrwt beam="1">  1       -1 0.15062527E-01 0.18896806E+03</pdfrwt>
<totfact> 0.18096651E+03</totfact>
</mgrwt>
</event>
<event>
 4    1  0.8130725E-001  0.1732256E+03  0.7546771E-02  0.1174525E+00
          1   -1    0    0  502    0  0.00000000000E+00  0.00000000000E+00  0.29159320755E+04  0.29159320755E+04  0.00000000000E+00 0. -1.
         -1   -1    0    0    0  501 -0.00000000000E+00 -0.00000000000E+00 -0.10406235606E+02  0.10406235606E+02  0.00000000000E+00 0.  1.
          6    1    1    2  502    0 -0.75892446536E+01  0.45284383156E+01  0.16069072353E+04  0.16162171780E+04  0.17300000000E+03 0. -1.
         -6    1    1    2    0  501  0.75892446536E+01 -0.45284383156E+01  0.12986186046E+04  0.13101211331E+04  0.17300000000E+03 0.  1.
<mgrwt>
<rscale>  2 0.17322559E+03</rscale>
<asrwt>0</asrwt>
<pdfrwt beam="1">  1        1 0.44860428E+00 0.17322559E+03</pdfrwt>
<pdfrwt beam="2">  1       -1 0.16009616E-02 0.17322559E+03</pdfrwt>
<totfact> 0.79867497E+02</totfact>
</mgrwt>
</event>
<event>
 4    1  0.8130725E-001  0.5573057E+03  0.7546771E-02  0.9998170E-01
          1   -1    0    0  502    0  0.00000000000E+00  0.00000000000E+00  0.26644895804E+03  0.26644895804E+03  0.00000000000E+00 0. -1.
         -1   -1    0    0    0  501 -0.00000000000E+00 -0.00000000000E+00 -0.11882520273E+04  0.11882520273E+04  0.00000000000E+00 0.  1.
          6    1    1    2  502    0  0.38625975067E+03  0.36257970882E+03 -0.56118748157E+03  0.79089887451E+03  0.17300000000E+03 0.  1.
         -6    1    1    2    0  501 -0.38625975067E+03 -0.36257970882E+03 -0.36061558766E+03  0.66380211079E+03  0.17300000000E+03 0. -1.
<mgrwt>
<rscale>  2 0.55730570E+03</rscale>
<asrwt>0</asrwt>
<pdfrwt beam="1">  1        1 0.40992149E-01 0.55730570E+03</pdfrwt>
<pdfrwt beam="2">  1       -1 0.18280800E+00 0.55730570E+03</pdfrwt>
<totfact> 0.21325267E+01</totfact>
</mgrwt>
</event>
<event>
 4    1  0.8130725E-001  0.1912995E+03  0.7546771E-02  0.1157294E+00
         -1   -1    0    0    0  501 -0.00000000000E+00  0.00000000000E+00  0.79858307081E+03  0.79858307081E+03  0.00000000000E+00 0. -1.
          1   -1    0    0  502    0  0.00000000000E+00 -0.00000000000E+00 -0.66406715778E+02  0.66406715778E+02  0.00000000000E+00 0.  1.
          6    1    1    2  502    0  0.80652101364E+02 -0.12717564747E+02  0.60686246555E+03  0.63629988999E+03  0.17300000000E+03 0. -1.
         -6    1    1    2    0  501 -0.80652101364E+02  0.12717564747E+02  0.12531388947E+03  0.22868989659E+03  0.17300000000E+03 0. -1.
<mgrwt>
<rscale>  2 0.19129950E+03</rscale>
<asrwt>0</asrwt>
<pdfrwt beam="2">  1        1 0.10216418E-01 0.19129950E+03</pdfrwt>
<pdfrwt beam="1">  1       -1 0.12285893E+00 0.19129950E+03</pdfrwt>
<totfact> 0.39042684E+02</totfact>
</mgrwt>
</event>
<event>
 4    1  0.8130725E-001  0.4483182E+03  0.7546771E-02  0.1028225E+00
         -2   -1    0    0    0  501 -0.00000000000E+00  0.00000000000E+00  0.20252838847E+03  0.20252838847E+03  0.00000000000E+00 0.  1.
          2   -1    0    0  502    0  0.00000000000E+00 -0.00000000000E+00 -0.13417078923E+04  0.13417078923E+04  0.00000000000E+00 0. -1.
          6    1    1    2  502    0  0.33577645025E+03 -0.24148380339E+03 -0.17562376819E+03  0.48149035275E+03  0.17300000000E+03 0.  1.
         -6    1    1    2    0  501 -0.33577645025E+03  0.24148380339E+03 -0.96355573565E+03  0.10627459280E+04  0.17300000000E+03 0. -1.
<mgrwt>
<rscale>  2 0.44831825E+03</rscale>
<asrwt>0</asrwt>
<pdfrwt beam="2">  1        2 0.20641660E+00 0.44831825E+03</pdfrwt>
<pdfrwt beam="1">  1       -2 0.31158213E-01 0.44831825E+03</pdfrwt>
<totfact> 0.15592351E+02</totfact>
</mgrwt>
</event>
<event>
 4    1  0.8130725E-001  0.2372825E+03  0.7546771E-02  0.1121616E+00
          1   -1    0    0  502    0  0.00000000000E+00  0.00000000000E+00  0.99628198263E+03  0.99628198263E+03  0.00000000000E+00 0. -1.
         -1   -1    0    0    0  501 -0.00000000000E+00 -0.00000000000E+00 -0.77463173263E+02  0.77463173263E+02  0.00000000000E+00 0.  1.
          6    1    1    2  502    0 -0.69572358212E+02 -0.14674353355E+03  0.18020876321E+03  0.29795666800E+03  0.17300000000E+03 0.  1.
         -6    1    1    2    0  501  0.69572358212E+02  0.14674353355E+03  0.73861004616E+03  0.77578848789E+03  0.17300000000E+03 0. -1.
<mgrwt>
<rscale>  2 0.23728248E+03</rscale>
<asrwt>0</asrwt>
<pdfrwt beam="1">  1        1 0.15327414E+00 0.23728248E+03</pdfrwt>
<pdfrwt beam="2">  1       -1 0.11917412E-01 0.23728248E+03</pdfrwt>
<totfact> 0.74891224E+02</totfact>
</mgrwt>
</event>
<event>
 4    1  0.8130725E-001  0.2238382E+03  0.7546771E-02  0.1131053E+00
         -2   -1    0    0    0  501 -0.00000000000E+00  0.00000000000E+00  0.47177539255E+02  0.47177539255E+02  0.00000000000E+00 0.  1.
          2   -1    0    0  502    0  0.00000000000E+00 -0.00000000000E+00 -0.10656758407E+04  0.10656758407E+04  0.00000000000E+00 0. -1.
          6    1    1    2  502    0 -0.90516433408E+01 -0.14174834588E+03 -0.47666216135E+03  0.52660264134E+03  0.17300000000E+03 0.  1.
         -6    1    1    2    0  501  0.90516433408E+01  0.14174834588E+03 -0.54183614010E+03  0.58625073862E+03  0.17300000000E+03 0. -1.
<mgrwt>
<rscale>  2 0.22383817E+03</rscale>
<asrwt>0</asrwt>
<pdfrwt beam="2">  1        2 0.16395011E+00 0.22383817E+03</pdfrwt>
<pdfrwt beam="1">  1       -2 0.72580836E-02 0.22383817E+03</pdfrwt>
<totfact> 0.26288705E+03</totfact>
</mgrwt>
</event>
<event>
 4    1  0.8130725E-001  0.4339406E+03  0.7546771E-02  0.1032622E+00
         -2   -1    0    0    0  501 -0.00000000000E+00  0.00000000000E+00  0.33665647261E+03  0.33665647261E+03  0.00000000000E+00 0.  1.
          2   -1    0    0  502    0  0.00000000000E+00 -0.00000000000E+00 -0.57010951418E+03  0.57010951418E+03  0.00000000000E+00 0. -1.
          6    1    1    2  502    0  0.39313083783E+03  0.61835106583E+02 -0.17904885943E+03  0.46942830136E+03  0.17300000000E+03 0.  1.
         -6    1    1    2    0  501 -0.39313083783E+03 -0.61835106583E+02 -0.54404182139E+02  0.43733768542E+03  0.17300000000E+03 0.  1.
<mgrwt>
<rscale>  2 0.43394059E+03</rscale>
<asrwt>0</asrwt>
<pdfrwt beam="2">  1        2 0.87709155E-01 0.43394059E+03</pdfrwt>
<pdfrwt beam="1">  1       -2 0.51793304E-01 0.43394059E+03</pdfrwt>
<totfact> 0.19079959E+02</totfact>
</mgrwt>
</event>
<event>
 4    1  0.8130725E-001  0.1892554E+03  0.7546771E-02  0.1159135E+00
         -1   -1    0    0    0  501 -0.00000000000E+00  0.00000000000E+00  0.46473106467E+03  0.46473106467E+03  0.00000000000E+00 0. -1.
          1   -1    0    0  502    0  0.00000000000E+00 -0.00000000000E+00 -0.91976686373E+02  0.91976686373E+02  0.00000000000E+00 0.  1.
          6    1    1    2  502    0  0.47120832137E+02  0.60565904104E+02  0.29843046284E+03  0.35338129932E+03  0.17300000000E+03 0. -1.
         -6    1    1    2    0  501 -0.47120832137E+02 -0.60565904104E+02  0.74323915462E+02  0.20332645172E+03  0.17300000000E+03 0.  1.
<mgrwt>
<rscale>  2 0.18925539E+03</rscale>
<asrwt>0</asrwt>
<pdfrwt beam="2">  1        1 0.14150260E-01 0.18925539E+03</pdfrwt>
<pdfrwt beam="1">  1       -1 0.71497086E-01 0.18925539E+03</pdfrwt>
<totfact> 0.82400771E+02</totfact>
</mgrwt>
</event>
<event>
 4    1  0.8130725E-001  0.2913647E+03  0.7546771E-02  0.1089639E+00
         -2   -1    0    0    0  501 -0.00000000000E+00  0.00000000000E+00  0.25580555149E+03  0.25580555149E+03  0.00000000000E+00 0.  1.
          2   -1    0    0  502    0  0.00000000000E+00 -0.00000000000E+00 -0.85378369114E+03  0.85378369114E+03  0.00000000000E+00 0. -1.
          6    1    1    2  502    0  0.13410592339E+03 -0.19230186577E+03 -0.73275848960E+03  0.78856097440E+03  0.17300000000E+03 0. -1.
         -6    1    1    2    0  501 -0.13410592339E+03  0.19230186577E+03  0.13478034995E+03  0.32102826822E+03  0.17300000000E+03 0.  1.
<mgrwt>
<rscale>  2 0.29136473E+03</rscale>
<asrwt>0</asrwt>
<pdfrwt beam="2">  1        2 0.13135134E+00 0.29136473E+03</pdfrwt>
<pdfrwt beam="1">  1       -2 0.39354700E-01 0.29136473E+03</pdfrwt>
<totfact> 0.20183154E+02</totfact>
</mgrwt>
</event>
<event>
 4    1  0.8130725E-001  0.1860174E+03  0.7546771E-02  0.1162103E+00
         -2   -1    0    0    0  501 -0.00000000000E+00  0.00000000000E+00  0.36864654864E+02  0.36864654864E+02  0.00000000000E+00 0. -1.
          2   -1    0    0  502    0  0.00000000000E+00 -0.00000000000E+00 -0.93957227605E+03  0.93957227605E+03  0.00000000000E+00 0.  1.
          6    1    1    2  502    0 -0.34166764222E+01  0.68277449911E+02 -0.46676739040E+03  0.50246818863E+03  0.17300000000E+03 0. -1.
         -6    1    1    2    0  501  0.34166764222E+01 -0.68277449911E+02 -0.43594023078E+03  0.47396874228E+03  0.17300000000E+03 0.  1.
<mgrwt>
<rscale>  2 0.18601743E+03</rscale>
<asrwt>0</asrwt>
<pdfrwt beam="2">  1        2 0.14454960E+00 0.18601743E+03</pdfrwt>
<pdfrwt beam="1">  1       -2 0.56714844E-02 0.18601743E+03</pdfrwt>
<totfact> 0.45643696E+03</totfact>
</mgrwt>
</event>
<event>
 4    1  0.8130725E-001  0.1987381E+03  0.7546771E-02  0.1150808E+00
          2   -1    0    0  502    0  0.00000000000E+00  0.00000000000E+00  0.10299120722E+04  0.10299120722E+04  0.00000000000E+00 0. -1.
         -2   -1    0    0    0  501 -0.00000000000E+00 -0.00000000000E+00 -0.38381631473E+02  0.38381631473E+02  0.00000000000E+00 0.  1.
          6    1    1    2  502    0 -0.97613058677E+02  0.62868918136E+01  0.48036213214E+03  0.51985056721E+03  0.17300000000E+03 0. -1.
         -6    1    1    2    0  501  0.97613058677E+02 -0.62868918136E+01  0.51116830862E+03  0.54844313650E+03  0.17300000000E+03 0.  1.
<mgrwt>
<rscale>  2 0.19873810E+03</rscale>
<asrwt>0</asrwt>
<pdfrwt beam="1">  1        2 0.15844799E+00 0.19873810E+03</pdfrwt>
<pdfrwt beam="2">  1       -2 0.59048672E-02 0.19873810E+03</pdfrwt>
<totfact> 0.37863399E+03</totfact>
</mgrwt>
</event>
<event>
 4    1  0.8130725E-001  0.1846692E+03  0.7546771E-02  0.1163359E+00
         -2   -1    0    0    0  501 -0.00000000000E+00  0.00000000000E+00  0.49952704574E+02  0.49952704574E+02  0.00000000000E+00 0. -1.
          2   -1    0    0  502    0  0.00000000000E+00 -0.00000000000E+00 -0.25482962145E+04  0.25482962145E+04  0.00000000000E+00 0.  1.
          6    1    1    2  502    0 -0.34009944683E+02 -0.54927498402E+02 -0.23607361893E+04  0.23679480700E+04  0.17300000000E+03 0.  1.
         -6    1    1    2    0  501  0.34009944683E+02  0.54927498402E+02 -0.13760732058E+03  0.23030084910E+03  0.17300000000E+03 0. -1.
<mgrwt>
<rscale>  2 0.18466918E+03</rscale>
<asrwt>0</asrwt>
<pdfrwt beam="2">  1        2 0.39204561E+00 0.18466918E+03</pdfrwt>
<pdfrwt beam="1">  1       -2 0.76850307E-02 0.18466918E+03</pdfrwt>
<totfact> 0.38969587E+02</totfact>
</mgrwt>
</event>
<event>
 4    1  0.8130725E-001  0.1745597E+03  0.7546771E-02  0.1173175E+00
          2   -1    0    0  502    0  0.00000000000E+00  0.00000000000E+00  0.18713194761E+04  0.18713194761E+04  0.00000000000E+00 0. -1.
         -2   -1    0    0    0  501 -0.00000000000E+00 -0.00000000000E+00 -0.23364271909E+02  0.23364271909E+02  0.00000000000E+00 0.  1.
          6    1    1    2  502    0  0.56139748919E+01 -0.22595668345E+02  0.40244685233E+03  0.43867362571E+03  0.17300000000E+03 0.  1.
         -6    1    1    2    0  501 -0.56139748919E+01  0.22595668345E+02  0.14455083518E+04  0.14560101223E+04  0.17300000000E+03 0. -1.
<mgrwt>
<rscale>  2 0.17455968E+03</rscale>
<asrwt>0</asrwt>
<pdfrwt beam="1">  1        2 0.28789519E+00 0.17455968E+03</pdfrwt>
<pdfrwt beam="2">  1       -2 0.35945048E-02 0.17455968E+03</pdfrwt>
<totfact> 0.28075892E+03</totfact>
</mgrwt>
</event>
<event>
 4    1  0.8130725E-001  0.1823145E+03  0.7546771E-02  0.1165582E+00
          2   -1    0    0  502    0  0.00000000000E+00  0.00000000000E+00  0.28076510194E+03  0.28076510194E+03  0.00000000000E+00 0. -1.
         -2   -1    0    0    0  501 -0.00000000000E+00 -0.00000000000E+00 -0.20689130270E+03  0.20689130270E+03  0.00000000000E+00 0.  1.
          6    1    1    2  502    0  0.18569714744E+02 -0.54449331447E+02  0.19641398188E+03  0.26798697035E+03  0.17300000000E+03 0. -1.
         -6    1    1    2    0  501 -0.18569714744E+02  0.54449331447E+02 -0.12254018264E+03  0.21966943429E+03  0.17300000000E+03 0.  1.
<mgrwt>
<rscale>  2 0.18231446E+03</rscale>
<asrwt>0</asrwt>
<pdfrwt beam="1">  1        2 0.43194631E-01 0.18231446E+03</pdfrwt>
<pdfrwt beam="2">  1       -2 0.31829431E-01 0.18231446E+03</pdfrwt>
<totfact> 0.10716057E+03</totfact>
</mgrwt>
</event>
<event>
 4    1  0.8130725E-001  0.2516056E+03  0.7546771E-02  0.1112294E+00
         -1   -1    0    0    0  501 -0.00000000000E+00  0.00000000000E+00  0.62189392536E+02  0.62189392536E+02  0.00000000000E+00 0.  1.
          1   -1    0    0  502    0  0.00000000000E+00 -0.00000000000E+00 -0.10975988067E+04  0.10975988067E+04  0.00000000000E+00 0. -1.
          6    1    1    2  502    0 -0.98893328979E+02 -0.15361148705E+03 -0.36148701411E+03  0.44042960941E+03  0.17300000000E+03 0.  1.
         -6    1    1    2    0  501  0.98893328979E+02  0.15361148705E+03 -0.67392240008E+03  0.71935858986E+03  0.17300000000E+03 0. -1.
<mgrwt>
<rscale>  2 0.25160560E+03</rscale>
<asrwt>0</asrwt>
<pdfrwt beam="2">  1        1 0.16886135E+00 0.25160560E+03</pdfrwt>
<pdfrwt beam="1">  1       -1 0.95675994E-02 0.25160560E+03</pdfrwt>
<totfact> 0.88696641E+02</totfact>
</mgrwt>
</event>
<event>
 4    1  0.8130725E-001  0.1997183E+03  0.7546771E-02  0.1149977E+00
         -2   -1    0    0    0  501 -0.00000000000E+00  0.00000000000E+00  0.81538119509E+02  0.81538119509E+02  0.00000000000E+00 0. -1.
          2   -1    0    0  502    0  0.00000000000E+00 -0.00000000000E+00 -0.60055070766E+03  0.60055070766E+03  0.00000000000E+00 0.  1.
          6    1    1    2  502    0 -0.24412713479E+02  0.96759570090E+02 -0.11264485688E+03  0.22929513463E+03  0.17300000000E+03 0. -1.
         -6    1    1    2    0  501  0.24412713479E+02 -0.96759570090E+02 -0.40636773128E+03  0.45279369254E+03  0.17300000000E+03 0.  1.
<mgrwt>
<rscale>  2 0.19971829E+03</rscale>
<asrwt>0</asrwt>
<pdfrwt beam="2">  1        2 0.92392416E-01 0.19971829E+03</pdfrwt>
<pdfrwt beam="1">  1       -2 0.12544326E-01 0.19971829E+03</pdfrwt>
<totfact> 0.22982791E+03</totfact>
</mgrwt>
</event>
<event>
 4    1  0.8130725E-001  0.2093775E+03  0.7546771E-02  0.1142060E+00
         -1   -1    0    0    0  501 -0.00000000000E+00  0.00000000000E+00  0.58447462697E+03  0.58447462697E+03  0.00000000000E+00 0.  1.
          1   -1    0    0  502    0  0.00000000000E+00 -0.00000000000E+00 -0.75005796373E+02  0.75005796373E+02  0.00000000000E+00 0. -1.
          6    1    1    2  502    0 -0.10991655983E+03  0.42758684439E+02  0.25500552751E+03  0.32994965416E+03  0.17300000000E+03 0.  1.
         -6    1    1    2    0  501  0.10991655983E+03 -0.42758684439E+02  0.25446330308E+03  0.32953076918E+03  0.17300000000E+03 0. -1.
<mgrwt>
<rscale>  2 0.20937754E+03</rscale>
<asrwt>0</asrwt>
<pdfrwt beam="2">  1        1 0.11539354E-01 0.20937754E+03</pdfrwt>
<pdfrwt beam="1">  1       -1 0.89919170E-01 0.20937754E+03</pdfrwt>
<totfact> 0.67226620E+02</totfact>
</mgrwt>
</event>
<event>
 4    1  0.8130725E-001  0.2333609E+03  0.7546771E-02  0.1124296E+00
          1   -1    0    0  502    0  0.00000000000E+00  0.00000000000E+00  0.10327878258E+04  0.10327878258E+04  0.00000000000E+00 0.  1.
         -1   -1    0    0    0  501 -0.00000000000E+00 -0.00000000000E+00 -0.56692499930E+02  0.56692499930E+02  0.00000000000E+00 0. -1.
          6    1    1    2  502    0  0.13514203964E+03 -0.79151306455E+02  0.34400332044E+03  0.41568688296E+03  0.17300000000E+03 0. -1.
         -6    1    1    2    0  501 -0.13514203964E+03  0.79151306455E+02  0.63209200543E+03  0.67379344277E+03  0.17300000000E+03 0.  1.
<mgrwt>
<rscale>  2 0.23336088E+03</rscale>
<asrwt>0</asrwt>
<pdfrwt beam="1">  1        1 0.15889042E+00 0.23336088E+03</pdfrwt>
<pdfrwt beam="2">  1       -1 0.87219238E-02 0.23336088E+03</pdfrwt>
<totfact> 0.11412042E+03</totfact>
</mgrwt>
</event>
<event>
 4    1  0.8130725E-001  0.2627284E+03  0.7546771E-02  0.1105515E+00
         -1   -1    0    0    0  501 -0.00000000000E+00  0.00000000000E+00  0.90919184640E+02  0.90919184640E+02  0.00000000000E+00 0. -1.
          1   -1    0    0  502    0  0.00000000000E+00 -0.00000000000E+00 -0.76547347851E+03  0.76547347851E+03  0.00000000000E+00 0.  1.
          6    1    1    2  502    0  0.10604555790E+03  0.16688779795E+03 -0.29852481470E+03  0.39767230535E+03  0.17300000000E+03 0. -1.
         -6    1    1    2    0  501 -0.10604555790E+03 -0.16688779795E+03 -0.37602947917E+03  0.45872035780E+03  0.17300000000E+03 0.  1.
<mgrwt>
<rscale>  2 0.26272837E+03</rscale>
<asrwt>0</asrwt>
<pdfrwt beam="2">  1        1 0.11776516E+00 0.26272837E+03</pdfrwt>
<pdfrwt beam="1">  1       -1 0.13987566E-01 0.26272837E+03</pdfrwt>
<totfact> 0.88834950E+02</totfact>
</mgrwt>
</event>
<event>
 4    1  0.8130725E-001  0.2420893E+03  0.7546771E-02  0.1118409E+00
         -2   -1    0    0    0  501 -0.00000000000E+00  0.00000000000E+00  0.95110818579E+03  0.95110818579E+03  0.00000000000E+00 0.  1.
          2   -1    0    0  502    0  0.00000000000E+00 -0.00000000000E+00 -0.43977622664E+03  0.43977622664E+03  0.00000000000E+00 0. -1.
          6    1    1    2  502    0  0.73519676994E+02 -0.15255518684E+03  0.90054883815E+03  0.93252101201E+03  0.17300000000E+03 0.  1.
         -6    1    1    2    0  501 -0.73519676994E+02  0.15255518684E+03 -0.38921687901E+03  0.45836340042E+03  0.17300000000E+03 0. -1.
<mgrwt>
<rscale>  2 0.24208930E+03</rscale>
<asrwt>0</asrwt>
<pdfrwt beam="2">  1        2 0.67657882E-01 0.24208930E+03</pdfrwt>
<pdfrwt beam="1">  1       -2 0.14632433E+00 0.24208930E+03</pdfrwt>
<totfact> 0.24763285E+01</totfact>
</mgrwt>
</event>
<event>
 4    1  0.8130725E-001  0.2071209E+03  0.7546771E-02  0.1143866E+00
          1   -1    0    0  502    0  0.00000000000E+00  0.00000000000E+00  0.12613236393E+03  0.12613236393E+03  0.00000000000E+00 0.  1.
         -1   -1    0    0    0  501 -0.00000000000E+00 -0.00000000000E+00 -0.85137830653E+03  0.85137830653E+03  0.00000000000E+00 0. -1.
          6    1    1    2  502    0 -0.68922605341E+02  0.90662879828E+02  0.16128184395E+02  0.20774792812E+03  0.17300000000E+03 0.  1.
         -6    1    1    2    0  501  0.68922605341E+02 -0.90662879828E+02 -0.74137412700E+03  0.76976274233E+03  0.17300000000E+03 0. -1.
<mgrwt>
<rscale>  2 0.20712094E+03</rscale>
<asrwt>0</asrwt>
<pdfrwt beam="1">  1        1 0.19404979E-01 0.20712094E+03</pdfrwt>
<pdfrwt beam="2">  1       -1 0.13098128E+00 0.20712094E+03</pdfrwt>
<totfact> 0.14377039E+02</totfact>
</mgrwt>
</event>
<event>
 4    1  0.8130725E-001  0.2581937E+03  0.7546771E-02  0.1108233E+00
         -1   -1    0    0    0  501 -0.00000000000E+00  0.00000000000E+00  0.52597017984E+03  0.52597017984E+03  0.00000000000E+00 0.  1.
          1   -1    0    0  502    0  0.00000000000E+00 -0.00000000000E+00 -0.17205026844E+03  0.17205026844E+03  0.00000000000E+00 0. -1.
          6    1    1    2  502    0  0.15093073679E+03 -0.11813089568E+03  0.35605587420E+03  0.43981789570E+03  0.17300000000E+03 0.  1.
         -6    1    1    2    0  501 -0.15093073679E+03  0.11813089568E+03 -0.21359627994E+01  0.25820255258E+03  0.17300000000E+03 0. -1.
<mgrwt>
<rscale>  2 0.25819372E+03</rscale>
<asrwt>0</asrwt>
<pdfrwt beam="2">  1        1 0.26469272E-01 0.25819372E+03</pdfrwt>
<pdfrwt beam="1">  1       -1 0.80918488E-01 0.25819372E+03</pdfrwt>
<totfact> 0.28486407E+02</totfact>
</mgrwt>
</event>
<event>
 4    1  0.8130725E-001  0.2997014E+03  0.7546771E-02  0.1085390E+00
         -2   -1    0    0    0  501 -0.00000000000E+00  0.00000000000E+00  0.45780645716E+03  0.45780645716E+03  0.00000000000E+00 0.  1.
          2   -1    0    0  502    0  0.00000000000E+00 -0.00000000000E+00 -0.51903250285E+03  0.51903250285E+03  0.00000000000E+00 0. -1.
          6    1    1    2  502    0  0.19739498097E+03  0.14466218613E+03 -0.41581220363E+03  0.51256288911E+03  0.17300000000E+03 0. -1.
         -6    1    1    2    0  501 -0.19739498097E+03 -0.14466218613E+03  0.35458615794E+03  0.46427607090E+03  0.17300000000E+03 0.  1.
<mgrwt>
<rscale>  2 0.29970140E+03</rscale>
<asrwt>0</asrwt>
<pdfrwt beam="2">  1        2 0.79851154E-01 0.29970140E+03</pdfrwt>
<pdfrwt beam="1">  1       -2 0.70431763E-01 0.29970140E+03</pdfrwt>
<totfact> 0.11313832E+02</totfact>
</mgrwt>
</event>
<event>
 4    1  0.8130725E-001  0.2345825E+03  0.7546771E-02  0.1123455E+00
         -2   -1    0    0    0  501 -0.00000000000E+00  0.00000000000E+00  0.21817730818E+03  0.21817730818E+03  0.00000000000E+00 0.  1.
          2   -1    0    0  502    0  0.00000000000E+00 -0.00000000000E+00 -0.25240925531E+03  0.25240925531E+03  0.00000000000E+00 0. -1.
          6    1    1    2  502    0 -0.10260795270E+03 -0.12071270941E+03 -0.10694140693E+02  0.23482613742E+03  0.17300000000E+03 0.  1.
         -6    1    1    2    0  501  0.10260795270E+03  0.12071270941E+03 -0.23537806433E+02  0.23576042607E+03  0.17300000000E+03 0. -1.
<mgrwt>
<rscale>  2 0.23458250E+03</rscale>
<asrwt>0</asrwt>
<pdfrwt beam="2">  1        2 0.38832193E-01 0.23458250E+03</pdfrwt>
<pdfrwt beam="1">  1       -2 0.33565740E-01 0.23458250E+03</pdfrwt>
<totfact> 0.10946789E+03</totfact>
</mgrwt>
</event>
<event>
 4    1  0.8130725E-001  0.2163660E+03  0.7546771E-02  0.1136622E+00
          1   -1    0    0  502    0  0.00000000000E+00  0.00000000000E+00  0.13886031239E+04  0.13886031239E+04  0.00000000000E+00 0.  1.
         -1   -1    0    0    0  501 -0.00000000000E+00 -0.00000000000E+00 -0.36725072184E+02  0.36725072184E+02  0.00000000000E+00 0. -1.
          6    1    1    2  502    0 -0.12573521449E+03  0.32801199762E+02  0.47184917723E+03  0.51909142637E+03  0.17300000000E+03 0. -1.
         -6    1    1    2    0  501  0.12573521449E+03 -0.32801199762E+02  0.88002887448E+03  0.90623676972E+03  0.17300000000E+03 0.  1.
<mgrwt>
<rscale>  2 0.21636604E+03</rscale>
<asrwt>0</asrwt>
<pdfrwt beam="1">  1        1 0.21363121E+00 0.21636604E+03</pdfrwt>
<pdfrwt beam="2">  1       -1 0.56500122E-02 0.21636604E+03</pdfrwt>
<totfact> 0.12467050E+03</totfact>
</mgrwt>
</event>
<event>
 4    1  0.8130725E-001  0.1971265E+03  0.7546771E-02  0.1152186E+00
          2   -1    0    0  502    0  0.00000000000E+00  0.00000000000E+00  0.16032649393E+04  0.16032649393E+04  0.00000000000E+00 0. -1.
         -2   -1    0    0    0  501 -0.00000000000E+00 -0.00000000000E+00 -0.33620222663E+02  0.33620222663E+02  0.00000000000E+00 0.  1.
          6    1    1    2  502    0 -0.92055646719E+02  0.21345187454E+02  0.12171931328E+04  0.12330523029E+04  0.17300000000E+03 0. -1.
         -6    1    1    2    0  501  0.92055646719E+02 -0.21345187454E+02  0.35245158384E+03  0.40383285908E+03  0.17300000000E+03 0.  1.
<mgrwt>
<rscale>  2 0.19712651E+03</rscale>
<asrwt>0</asrwt>
<pdfrwt beam="1">  1        2 0.24665609E+00 0.19712651E+03</pdfrwt>
<pdfrwt beam="2">  1       -2 0.51723432E-02 0.19712651E+03</pdfrwt>
<totfact> 0.22377909E+03</totfact>
</mgrwt>
</event>
<event>
 4    1  0.8130725E-001  0.2218801E+03  0.7546771E-02  0.1132489E+00
          2   -1    0    0  502    0  0.00000000000E+00  0.00000000000E+00  0.42697017055E+03  0.42697017055E+03  0.00000000000E+00 0.  1.
         -2   -1    0    0    0  501 -0.00000000000E+00 -0.00000000000E+00 -0.21829891684E+03  0.21829891684E+03  0.00000000000E+00 0. -1.
          6    1    1    2  502    0  0.60884612687E+02 -0.12487924057E+03 -0.11727774962E+03  0.25096778945E+03  0.17300000000E+03 0. -1.
         -6    1    1    2    0  501 -0.60884612687E+02  0.12487924057E+03  0.32594900332E+03  0.39430129794E+03  0.17300000000E+03 0.  1.
<mgrwt>
<rscale>  2 0.22188006E+03</rscale>
<asrwt>0</asrwt>
<pdfrwt beam="1">  1        2 0.65687719E-01 0.22188006E+03</pdfrwt>
<pdfrwt beam="2">  1       -2 0.33584449E-01 0.22188006E+03</pdfrwt>
<totfact> 0.61914439E+02</totfact>
</mgrwt>
</event>
<event>
 4    1  0.8130725E-001  0.1748151E+03  0.7546771E-02  0.1172917E+00
         -2   -1    0    0    0  501 -0.00000000000E+00  0.00000000000E+00  0.37026719186E+03  0.37026719186E+03  0.00000000000E+00 0. -1.
          2   -1    0    0  502    0  0.00000000000E+00 -0.00000000000E+00 -0.83779071236E+02  0.83779071236E+02  0.00000000000E+00 0.  1.
          6    1    1    2  502    0 -0.24018265470E+02  0.73790762207E+01  0.17089893067E+03  0.24447243678E+03  0.17300000000E+03 0.  1.
         -6    1    1    2    0  501  0.24018265470E+02 -0.73790762207E+01  0.11558918996E+03  0.20957382632E+03  0.17300000000E+03 0.  1.
<mgrwt>
<rscale>  2 0.17481512E+03</rscale>
<asrwt>0</asrwt>
<pdfrwt beam="2">  1        2 0.12889088E-01 0.17481512E+03</pdfrwt>
<pdfrwt beam="1">  1       -2 0.56964183E-01 0.17481512E+03</pdfrwt>
<totfact> 0.13566092E+03</totfact>
</mgrwt>
</event>
<event>
 4    1  0.8130725E-001  0.1922605E+03  0.7546771E-02  0.1156438E+00
         -2   -1    0    0    0  501 -0.00000000000E+00  0.00000000000E+00  0.56529380075E+03  0.56529380075E+03  0.00000000000E+00 0.  1.
          2   -1    0    0  502    0  0.00000000000E+00 -0.00000000000E+00 -0.66433116645E+02  0.66433116645E+02  0.00000000000E+00 0. -1.
          6    1    1    2  502    0  0.20161537587E+02  0.81416331721E+02  0.20983528367E+03  0.28459612250E+03  0.17300000000E+03 0. -1.
         -6    1    1    2    0  501 -0.20161537587E+02 -0.81416331721E+02  0.28902540044E+03  0.34713079490E+03  0.17300000000E+03 0.  1.
<mgrwt>
<rscale>  2 0.19226052E+03</rscale>
<asrwt>0</asrwt>
<pdfrwt beam="2">  1        2 0.10220480E-01 0.19226052E+03</pdfrwt>
<pdfrwt beam="1">  1       -2 0.86968274E-01 0.19226052E+03</pdfrwt>
<totfact> 0.73034914E+02</totfact>
</mgrwt>
</event>
<event>
 4    1  0.8130725E-001  0.1768993E+03  0.7546771E-02  0.1170838E+00
         -1   -1    0    0    0  501 -0.00000000000E+00  0.00000000000E+00  0.40620800465E+03  0.40620800465E+03  0.00000000000E+00 0.  1.
          1   -1    0    0  502    0  0.00000000000E+00 -0.00000000000E+00 -0.10926191327E+03  0.10926191327E+03  0.00000000000E+00 0. -1.
          6    1    1    2  502    0  0.36898565541E+02 -0.16934333360E+01  0.28844125395E+03  0.33836626433E+03  0.17300000000E+03 0.  1.
         -6    1    1    2    0  501 -0.36898565541E+02  0.16934333360E+01  0.85048374180E+01  0.17710365359E+03  0.17300000000E+03 0. -1.
<mgrwt>
<rscale>  2 0.17689933E+03</rscale>
<asrwt>0</asrwt>
<pdfrwt beam="2">  1        1 0.16809525E-01 0.17689933E+03</pdfrwt>
<pdfrwt beam="1">  1       -1 0.62493539E-01 0.17689933E+03</pdfrwt>
<totfact> 0.85675515E+02</totfact>
</mgrwt>
</event>
<event>
 4    1  0.8130725E-001  0.1982599E+03  0.7546771E-02  0.1151215E+00
         -3   -1    0    0    0  501 -0.00000000000E+00  0.00000000000E+00  0.12091726809E+03  0.12091726809E+03  0.00000000000E+00 0. -1.
          3   -1    0    0  502    0  0.00000000000E+00 -0.00000000000E+00 -0.45215801279E+03  0.45215801279E+03  0.00000000000E+00 0.  1.
          6    1    1    2  502    0 -0.22132616005E+02 -0.94276894466E+02 -0.31752922266E+03  0.37434181274E+03  0.17300000000E+03 0. -1.
         -6    1    1    2    0  501  0.22132616005E+02  0.94276894466E+02 -0.13711522042E+02  0.19873346814E+03  0.17300000000E+03 0. -1.
<mgrwt>
<rscale>  2 0.19825989E+03</rscale>
<asrwt>0</asrwt>
<pdfrwt beam="2">  1        3 0.69562771E-01 0.19825989E+03</pdfrwt>
<pdfrwt beam="1">  1       -3 0.18602657E-01 0.19825989E+03</pdfrwt>
<totfact> 0.12565354E+02</totfact>
</mgrwt>
</event>
<event>
 4    1  0.8130725E-001  0.1748707E+03  0.7546771E-02  0.1172862E+00
          1   -1    0    0  502    0  0.00000000000E+00  0.00000000000E+00  0.50680377285E+03  0.50680377285E+03  0.00000000000E+00 0.  1.
         -1   -1    0    0    0  501 -0.00000000000E+00 -0.00000000000E+00 -0.32821676222E+03  0.32821676222E+03  0.00000000000E+00 0. -1.
          6    1    1    2  502    0  0.20944835883E+02  0.14562752194E+02  0.46647949214E+03  0.49817956249E+03  0.17300000000E+03 0.  1.
         -6    1    1    2    0  501 -0.20944835883E+02 -0.14562752194E+02 -0.28789248151E+03  0.33684097258E+03  0.17300000000E+03 0. -1.
<mgrwt>
<rscale>  2 0.17487069E+03</rscale>
<asrwt>0</asrwt>
<pdfrwt beam="1">  1        1 0.77969811E-01 0.17487069E+03</pdfrwt>
<pdfrwt beam="2">  1       -1 0.50494887E-01 0.17487069E+03</pdfrwt>
<totfact> 0.18349936E+02</totfact>
</mgrwt>
</event>
<event>
 4    1  0.8130725E-001  0.3717681E+03  0.7546771E-02  0.1054019E+00
         -1   -1    0    0    0  501 -0.00000000000E+00  0.00000000000E+00  0.36260837387E+03  0.36260837387E+03  0.00000000000E+00 0. -1.
          1   -1    0    0  502    0  0.00000000000E+00 -0.00000000000E+00 -0.39955074758E+03  0.39955074758E+03  0.00000000000E+00 0.  1.
          6    1    1    2  502    0 -0.24305995841E+03 -0.22182066620E+03 -0.10023059227E+03  0.38504249500E+03  0.17300000000E+03 0. -1.
         -6    1    1    2    0  501  0.24305995841E+03  0.22182066620E+03  0.63288218559E+02  0.37711662645E+03  0.17300000000E+03 0.  1.
<mgrwt>
<rscale>  2 0.37176814E+03</rscale>
<asrwt>0</asrwt>
<pdfrwt beam="2">  1        1 0.61469346E-01 0.37176814E+03</pdfrwt>
<pdfrwt beam="1">  1       -1 0.55785904E-01 0.37176814E+03</pdfrwt>
<totfact> 0.20266485E+02</totfact>
</mgrwt>
</event>
<event>
 4    1  0.8130725E-001  0.2140236E+03  0.7546771E-02  0.1138419E+00
         -1   -1    0    0    0  501 -0.00000000000E+00  0.00000000000E+00  0.72009102888E+02  0.72009102888E+02  0.00000000000E+00 0.  1.
          1   -1    0    0  502    0  0.00000000000E+00 -0.00000000000E+00 -0.70236508250E+03  0.70236508250E+03  0.00000000000E+00 0. -1.
          6    1    1    2  502    0  0.10781718404E+03 -0.65211615679E+02 -0.19626445658E+03  0.29038911293E+03  0.17300000000E+03 0.  1.
         -6    1    1    2    0  501 -0.10781718404E+03  0.65211615679E+02 -0.43409152303E+03  0.48398507245E+03  0.17300000000E+03 0. -1.
<mgrwt>
<rscale>  2 0.21402360E+03</rscale>
<asrwt>0</asrwt>
<pdfrwt beam="2">  1        1 0.10805617E+00 0.21402360E+03</pdfrwt>
<pdfrwt beam="1">  1       -1 0.11078323E-01 0.21402360E+03</pdfrwt>
<totfact> 0.14545077E+03</totfact>
</mgrwt>
</event>
<event>
 4    1  0.8130725E-001  0.2127343E+03  0.7546771E-02  0.1139419E+00
          2   -1    0    0  502    0  0.00000000000E+00  0.00000000000E+00  0.40495096746E+04  0.40495096746E+04  0.00000000000E+00 0. -1.
         -2   -1    0    0    0  501 -0.00000000000E+00 -0.00000000000E+00 -0.16648206696E+02  0.16648206696E+02  0.00000000000E+00 0.  1.
          6    1    1    2  502    0 -0.55372579228E+02 -0.11072838288E+03  0.31820741119E+04  0.31891772529E+04  0.17300000000E+03 0. -1.
         -6    1    1    2    0  501  0.55372579228E+02  0.11072838288E+03  0.85078735602E+03  0.87698062833E+03  0.17300000000E+03 0.  1.
<mgrwt>
<rscale>  2 0.21273434E+03</rscale>
<asrwt>0</asrwt>
<pdfrwt beam="1">  1        2 0.62300070E+00 0.21273434E+03</pdfrwt>
<pdfrwt beam="2">  1       -2 0.25612658E-02 0.21273434E+03</pdfrwt>
<totfact> 0.22489600E+02</totfact>
</mgrwt>
</event>
<event>
 4    1  0.8130725E-001  0.2255098E+03  0.7546771E-02  0.1129841E+00
         -2   -1    0    0    0  501 -0.00000000000E+00  0.00000000000E+00  0.46292784073E+03  0.46292784073E+03  0.00000000000E+00 0.  1.
          2   -1    0    0  502    0  0.00000000000E+00 -0.00000000000E+00 -0.13867068178E+03  0.13867068178E+03  0.00000000000E+00 0. -1.
          6    1    1    2  502    0  0.10226013305E+03 -0.10231575122E+03  0.29924946630E+03  0.37470640619E+03  0.17300000000E+03 0.  1.
         -6    1    1    2    0  501 -0.10226013305E+03  0.10231575122E+03  0.25007692647E+02  0.22689211632E+03  0.17300000000E+03 0. -1.
<mgrwt>
<rscale>  2 0.22550975E+03</rscale>
<asrwt>0</asrwt>
<pdfrwt beam="2">  1        2 0.21333951E-01 0.22550975E+03</pdfrwt>
<pdfrwt beam="1">  1       -2 0.71219667E-01 0.22550975E+03</pdfrwt>
<totfact> 0.47414004E+02</totfact>
</mgrwt>
</event>
<event>
 4    1  0.8130725E-001  0.2063080E+03  0.7546771E-02  0.1144523E+00
          2   -1    0    0  502    0  0.00000000000E+00  0.00000000000E+00  0.12408939575E+04  0.12408939575E+04  0.00000000000E+00 0. -1.
         -2   -1    0    0    0  501 -0.00000000000E+00 -0.00000000000E+00 -0.37338422802E+02  0.37338422802E+02  0.00000000000E+00 0.  1.
          6    1    1    2  502    0 -0.11229648721E+03 -0.48479031849E+01  0.41946951465E+03  0.46745874356E+03  0.17300000000E+03 0.  1.
         -6    1    1    2    0  501  0.11229648721E+03  0.48479031849E+01  0.78408602002E+03  0.81077363671E+03  0.17300000000E+03 0. -1.
<mgrwt>
<rscale>  2 0.20630803E+03</rscale>
<asrwt>0</asrwt>
<pdfrwt beam="1">  1        2 0.19090673E+00 0.20630803E+03</pdfrwt>
<pdfrwt beam="2">  1       -2 0.57443737E-02 0.20630803E+03</pdfrwt>
<totfact> 0.29871645E+03</totfact>
</mgrwt>
</event>
<event>
 4    1  0.8130725E-001  0.2168439E+03  0.7546771E-02  0.1136258E+00
         -2   -1    0    0    0  501 -0.00000000000E+00  0.00000000000E+00  0.53092740001E+02  0.53092740001E+02  0.00000000000E+00 0. -1.
          2   -1    0    0  502    0  0.00000000000E+00 -0.00000000000E+00 -0.91071156992E+03  0.91071156992E+03  0.00000000000E+00 0.  1.
          6    1    1    2  502    0 -0.16248053730E+02  0.12972377314E+03 -0.34885799155E+03  0.41075924194E+03  0.17300000000E+03 0. -1.
         -6    1    1    2    0  501  0.16248053730E+02 -0.12972377314E+03 -0.50876083837E+03  0.55304506798E+03  0.17300000000E+03 0.  1.
<mgrwt>
<rscale>  2 0.21684385E+03</rscale>
<asrwt>0</asrwt>
<pdfrwt beam="2">  1        2 0.14010946E+00 0.21684385E+03</pdfrwt>
<pdfrwt beam="1">  1       -2 0.81681145E-02 0.21684385E+03</pdfrwt>
<totfact> 0.27215122E+03</totfact>
</mgrwt>
</event>
<event>
 4    1  0.8130725E-001  0.2358712E+03  0.7546771E-02  0.1122574E+00
         -2   -1    0    0    0  501 -0.00000000000E+00  0.00000000000E+00  0.14457435320E+03  0.14457435320E+03  0.00000000000E+00 0. -1.
          2   -1    0    0  502    0  0.00000000000E+00 -0.00000000000E+00 -0.46893503117E+03  0.46893503117E+03  0.00000000000E+00 0.  1.
          6    1    1    2  502    0 -0.12892658183E+03 -0.95310869724E+02 -0.29209838745E+03  0.37544199731E+03  0.17300000000E+03 0.  1.
         -6    1    1    2    0  501  0.12892658183E+03  0.95310869724E+02 -0.32262290519E+02  0.23806738705E+03  0.17300000000E+03 0. -1.
<mgrwt>
<rscale>  2 0.23587121E+03</rscale>
<asrwt>0</asrwt>
<pdfrwt beam="2">  1        2 0.72143851E-01 0.23587121E+03</pdfrwt>
<pdfrwt beam="1">  1       -2 0.22242208E-01 0.23587121E+03</pdfrwt>
<totfact> 0.11687394E+03</totfact>
</mgrwt>
</event>
<event>
 4    1  0.8130725E-001  0.1747279E+03  0.7546771E-02  0.1173005E+00
         -2   -1    0    0    0  501 -0.00000000000E+00  0.00000000000E+00  0.14134580848E+04  0.14134580848E+04  0.00000000000E+00 0. -1.
          2   -1    0    0  502    0  0.00000000000E+00 -0.00000000000E+00 -0.29258837578E+02  0.29258837578E+02  0.00000000000E+00 0.  1.
          6    1    1    2  502    0  0.14502005524E+02 -0.19761998883E+02  0.32301914705E+03  0.36724816422E+03  0.17300000000E+03 0.  1.
         -6    1    1    2    0  501 -0.14502005524E+02  0.19761998883E+02  0.10611801001E+04  0.10754687581E+04  0.17300000000E+03 0. -1.
<mgrwt>
<rscale>  2 0.17472792E+03</rscale>
<asrwt>0</asrwt>
<pdfrwt beam="2">  1        2 0.45013607E-02 0.17472792E+03</pdfrwt>
<pdfrwt beam="1">  1       -2 0.21745504E+00 0.17472792E+03</pdfrwt>
<totfact> 0.20253540E+02</totfact>
</mgrwt>
</event>
<event>
 4    1  0.8130725E-001  0.1756253E+03  0.7546771E-02  0.1172105E+00
          2   -1    0    0  502    0  0.00000000000E+00  0.00000000000E+00  0.34785823902E+03  0.34785823902E+03  0.00000000000E+00 0. -1.
         -2   -1    0    0    0  501 -0.00000000000E+00 -0.00000000000E+00 -0.88669382367E+02  0.88669382367E+02  0.00000000000E+00 0.  1.
          6    1    1    2  502    0  0.28640801346E+01  0.30116997139E+02  0.13005732460E+03  0.21853865597E+03  0.17300000000E+03 0.  1.
         -6    1    1    2    0  501 -0.28640801346E+01 -0.30116997139E+02  0.12913153205E+03  0.21798896541E+03  0.17300000000E+03 0.  1.
<mgrwt>
<rscale>  2 0.17562527E+03</rscale>
<asrwt>0</asrwt>
<pdfrwt beam="1">  1        2 0.53516651E-01 0.17562527E+03</pdfrwt>
<pdfrwt beam="2">  1       -2 0.13641444E-01 0.17562527E+03</pdfrwt>
<totfact> 0.36454613E+03</totfact>
</mgrwt>
</event>
<event>
 4    1  0.8130725E-001  0.1802115E+03  0.7546771E-02  0.1167599E+00
          2   -1    0    0  502    0  0.00000000000E+00  0.00000000000E+00  0.14417497500E+03  0.14417497500E+03  0.00000000000E+00 0.  1.
         -2   -1    0    0    0  501 -0.00000000000E+00 -0.00000000000E+00 -0.23387461363E+03  0.23387461363E+03  0.00000000000E+00 0. -1.
          6    1    1    2  502    0  0.15095926733E+02  0.48159017851E+02 -0.81137853503E+02  0.19763483821E+03  0.17300000000E+03 0. -1.
         -6    1    1    2    0  501 -0.15095926733E+02 -0.48159017851E+02 -0.85617851288E+01  0.18041475042E+03  0.17300000000E+03 0. -1.
<mgrwt>
<rscale>  2 0.18021148E+03</rscale>
<asrwt>0</asrwt>
<pdfrwt beam="1">  1        2 0.22180766E-01 0.18021148E+03</pdfrwt>
<pdfrwt beam="2">  1       -2 0.35980709E-01 0.18021148E+03</pdfrwt>
<totfact> 0.17697135E+03</totfact>
</mgrwt>
</event>
<event>
 4    1  0.8130725E-001  0.2401929E+03  0.7546771E-02  0.1119664E+00
          1   -1    0    0  502    0  0.00000000000E+00  0.00000000000E+00  0.39357948482E+03  0.39357948482E+03  0.00000000000E+00 0.  1.
         -1   -1    0    0    0  501 -0.00000000000E+00 -0.00000000000E+00 -0.15855663834E+03  0.15855663834E+03  0.00000000000E+00 0. -1.
          6    1    1    2  502    0 -0.13303745317E+02  0.16609221148E+03  0.41651632358E+02  0.24377750272E+03  0.17300000000E+03 0. -1.
         -6    1    1    2    0  501  0.13303745317E+02 -0.16609221148E+03  0.19337121412E+03  0.30835862045E+03  0.17300000000E+03 0.  1.
<mgrwt>
<rscale>  2 0.24019286E+03</rscale>
<asrwt>0</asrwt>
<pdfrwt beam="1">  1        1 0.60550690E-01 0.24019286E+03</pdfrwt>
<pdfrwt beam="2">  1       -1 0.24393329E-01 0.24019286E+03</pdfrwt>
<totfact> 0.89932358E+02</totfact>
</mgrwt>
</event>
<event>
 4    1  0.8130725E-001  0.1741616E+03  0.7546771E-02  0.1173576E+00
         -2   -1    0    0    0  501 -0.00000000000E+00  0.00000000000E+00  0.20974485147E+02  0.20974485147E+02  0.00000000000E+00 0.  1.
          2   -1    0    0  502    0  0.00000000000E+00 -0.00000000000E+00 -0.16036910069E+04  0.16036910069E+04  0.00000000000E+00 0. -1.
          6    1    1    2  502    0  0.74501750414E+01 -0.18648063221E+02 -0.10459651676E+04  0.10603656856E+04  0.17300000000E+03 0. -1.
         -6    1    1    2    0  501 -0.74501750414E+01  0.18648063221E+02 -0.53675135418E+03  0.56429980647E+03  0.17300000000E+03 0.  1.
<mgrwt>
<rscale>  2 0.17416158E+03</rscale>
<asrwt>0</asrwt>
<pdfrwt beam="2">  1        2 0.24672178E+00 0.17416158E+03</pdfrwt>
<pdfrwt beam="1">  1       -2 0.32268428E-02 0.17416158E+03</pdfrwt>
<totfact> 0.45339416E+03</totfact>
</mgrwt>
</event>
<event>
 4    1  0.8130725E-001  0.1907696E+03  0.7546771E-02  0.1157769E+00
          2   -1    0    0  502    0  0.00000000000E+00  0.00000000000E+00  0.20795789877E+03  0.20795789877E+03  0.00000000000E+00 0.  1.
         -2   -1    0    0    0  501 -0.00000000000E+00 -0.00000000000E+00 -0.20782284209E+03  0.20782284209E+03  0.00000000000E+00 0. -1.
          6    1    1    2  502    0 -0.56180411516E+02 -0.57513405665E+02 -0.82548280118E+02  0.20786353461E+03  0.17300000000E+03 0. -1.
         -6    1    1    2    0  501  0.56180411516E+02  0.57513405665E+02  0.82683336796E+02  0.20791720625E+03  0.17300000000E+03 0.  1.
<mgrwt>
<rscale>  2 0.19076957E+03</rscale>
<asrwt>0</asrwt>
<pdfrwt beam="1">  1        2 0.31993523E-01 0.19076957E+03</pdfrwt>
<pdfrwt beam="2">  1       -2 0.31972745E-01 0.19076957E+03</pdfrwt>
<totfact> 0.14706162E+03</totfact>
</mgrwt>
</event>
<event>
 4    1  0.8130725E-001  0.1915651E+03  0.7546771E-02  0.1157057E+00
          4   -1    0    0  502    0  0.00000000000E+00  0.00000000000E+00  0.78561406616E+02  0.78561406616E+02  0.00000000000E+00 0. -1.
         -4   -1    0    0    0  501 -0.00000000000E+00 -0.00000000000E+00 -0.56294487838E+03  0.56294487838E+03  0.00000000000E+00 0.  1.
          6    1    1    2  502    0 -0.76594569285E+02  0.30024028334E+02 -0.10985219044E+03  0.22082724937E+03  0.17300000000E+03 0. -1.
         -6    1    1    2    0  501  0.76594569285E+02 -0.30024028334E+02 -0.37453128133E+03  0.42067903563E+03  0.17300000000E+03 0. -1.
<mgrwt>
<rscale>  2 0.19156506E+03</rscale>
<asrwt>0</asrwt>
<pdfrwt beam="1">  1        4 0.12086370E-01 0.19156506E+03</pdfrwt>
<pdfrwt beam="2">  1       -4 0.86606907E-01 0.19156506E+03</pdfrwt>
<totfact> 0.11535447E+02</totfact>
</mgrwt>
</event>
<event>
 4    1  0.8130725E-001  0.2521322E+03  0.7546771E-02  0.1111965E+00
         -2   -1    0    0    0  501 -0.00000000000E+00  0.00000000000E+00  0.23537237944E+02  0.23537237944E+02  0.00000000000E+00 0.  1.
          2   -1    0    0  502    0  0.00000000000E+00 -0.00000000000E+00 -0.27757094028E+04  0.27757094028E+04  0.00000000000E+00 0. -1.
          6    1    1    2  502    0  0.11105548469E+03  0.14597375978E+03 -0.16059304040E+04  0.16256023873E+04  0.17300000000E+03 0. -1.
         -6    1    1    2    0  501 -0.11105548469E+03 -0.14597375978E+03 -0.11462417609E+04  0.11736442534E+04  0.17300000000E+03 0.  1.
<mgrwt>
<rscale>  2 0.25213223E+03</rscale>
<asrwt>0</asrwt>
<pdfrwt beam="2">  1        2 0.42703248E+00 0.25213223E+03</pdfrwt>
<pdfrwt beam="1">  1       -2 0.36211113E-02 0.25213223E+03</pdfrwt>
<totfact> 0.90133831E+02</totfact>
</mgrwt>
</event>
<event>
 4    1  0.8130725E-001  0.2436953E+03  0.7546771E-02  0.1117355E+00
         -2   -1    0    0    0  501 -0.00000000000E+00  0.00000000000E+00  0.13088000704E+03  0.13088000704E+03  0.00000000000E+00 0. -1.
          2   -1    0    0  502    0  0.00000000000E+00 -0.00000000000E+00 -0.47377187468E+03  0.47377187468E+03  0.00000000000E+00 0.  1.
          6    1    1    2  502    0  0.17158631615E+03 -0.40675331642E+01 -0.23358904064E+03  0.33756665804E+03  0.17300000000E+03 0.  1.
         -6    1    1    2    0  501 -0.17158631615E+03  0.40675331642E+01 -0.10930282700E+03  0.26708522368E+03  0.17300000000E+03 0. -1.
<mgrwt>
<rscale>  2 0.24369532E+03</rscale>
<asrwt>0</asrwt>
<pdfrwt beam="2">  1        2 0.72887980E-01 0.24369532E+03</pdfrwt>
<pdfrwt beam="1">  1       -2 0.20135386E-01 0.24369532E+03</pdfrwt>
<totfact> 0.13725499E+03</totfact>
</mgrwt>
</event>
<event>
 4    1  0.8130725E-001  0.1829001E+03  0.7546771E-02  0.1165025E+00
          1   -1    0    0  502    0  0.00000000000E+00  0.00000000000E+00  0.10251476454E+03  0.10251476454E+03  0.00000000000E+00 0.  1.
         -1   -1    0    0    0  501 -0.00000000000E+00 -0.00000000000E+00 -0.36886202400E+03  0.36886202400E+03  0.00000000000E+00 0. -1.
          6    1    1    2  502    0 -0.34074729890E+02  0.48604028277E+02 -0.21321678883E+03  0.28091606900E+03  0.17300000000E+03 0. -1.
         -6    1    1    2    0  501  0.34074729890E+02 -0.48604028277E+02 -0.53130470631E+02  0.19046071955E+03  0.17300000000E+03 0.  1.
<mgrwt>
<rscale>  2 0.18290008E+03</rscale>
<asrwt>0</asrwt>
<pdfrwt beam="1">  1        1 0.15771502E-01 0.18290008E+03</pdfrwt>
<pdfrwt beam="2">  1       -1 0.56748004E-01 0.18290008E+03</pdfrwt>
<totfact> 0.11195181E+03</totfact>
</mgrwt>
</event>
<event>
 4    1  0.8130725E-001  0.2980480E+03  0.7546771E-02  0.1086220E+00
          2   -1    0    0  502    0  0.00000000000E+00  0.00000000000E+00  0.47891712362E+03  0.47891712362E+03  0.00000000000E+00 0.  1.
         -2   -1    0    0    0  501 -0.00000000000E+00 -0.00000000000E+00 -0.26516422440E+03  0.26516422440E+03  0.00000000000E+00 0. -1.
          6    1    1    2  502    0  0.63737861059E+01 -0.24261698090E+03 -0.97063180150E+02  0.31345475832E+03  0.17300000000E+03 0. -1.
         -6    1    1    2    0  501 -0.63737861059E+01  0.24261698090E+03  0.31081607936E+03  0.43062658971E+03  0.17300000000E+03 0.  1.
<mgrwt>
<rscale>  2 0.29804802E+03</rscale>
<asrwt>0</asrwt>
<pdfrwt beam="1">  1        2 0.73679557E-01 0.29804802E+03</pdfrwt>
<pdfrwt beam="2">  1       -2 0.40794496E-01 0.29804802E+03</pdfrwt>
<totfact> 0.37683226E+02</totfact>
</mgrwt>
</event>
<event>
 4    1  0.8130725E-001  0.2469616E+03  0.7546771E-02  0.1115240E+00
         -2   -1    0    0    0  501 -0.00000000000E+00  0.00000000000E+00  0.61438516338E+02  0.61438516338E+02  0.00000000000E+00 0.  1.
          2   -1    0    0  502    0  0.00000000000E+00 -0.00000000000E+00 -0.12028165957E+04  0.12028165957E+04  0.00000000000E+00 0. -1.
          6    1    1    2  502    0  0.13636317144E+03 -0.11165181175E+03 -0.30648786128E+03  0.39360494243E+03  0.17300000000E+03 0.  1.
         -6    1    1    2    0  501 -0.13636317144E+03  0.11165181175E+03 -0.83489021806E+03  0.87065016959E+03  0.17300000000E+03 0. -1.
<mgrwt>
<rscale>  2 0.24696162E+03</rscale>
<asrwt>0</asrwt>
<pdfrwt beam="2">  1        2 0.18504870E+00 0.24696162E+03</pdfrwt>
<pdfrwt beam="1">  1       -2 0.94520797E-02 0.24696162E+03</pdfrwt>
<totfact> 0.14472310E+03</totfact>
</mgrwt>
</event>
<event>
 4    1  0.8130725E-001  0.1951418E+03  0.7546771E-02  0.1153904E+00
         -2   -1    0    0    0  501 -0.00000000000E+00  0.00000000000E+00  0.15862302217E+03  0.15862302217E+03  0.00000000000E+00 0. -1.
          2   -1    0    0  502    0  0.00000000000E+00 -0.00000000000E+00 -0.24509527400E+03  0.24509527400E+03  0.00000000000E+00 0.  1.
          6    1    1    2  502    0 -0.12199477420E+02 -0.89456739453E+02 -0.72145638227E+02  0.20805126435E+03  0.17300000000E+03 0. -1.
         -6    1    1    2    0  501  0.12199477420E+02  0.89456739453E+02 -0.14326613606E+02  0.19566703182E+03  0.17300000000E+03 0.  1.
<mgrwt>
<rscale>  2 0.19514183E+03</rscale>
<asrwt>0</asrwt>
<pdfrwt beam="2">  1        2 0.37706965E-01 0.19514183E+03</pdfrwt>
<pdfrwt beam="1">  1       -2 0.24403542E-01 0.19514183E+03</pdfrwt>
<totfact> 0.19980274E+03</totfact>
</mgrwt>
</event>
<event>
 4    1  0.8130725E-001  0.2719700E+03  0.7546771E-02  0.1100157E+00
         -1   -1    0    0    0  501 -0.00000000000E+00  0.00000000000E+00  0.10497927081E+04  0.10497927081E+04  0.00000000000E+00 0. -1.
          1   -1    0    0  502    0  0.00000000000E+00 -0.00000000000E+00 -0.98389943643E+02  0.98389943643E+02  0.00000000000E+00 0.  1.
          6    1    1    2  502    0 -0.18534104575E+03 -0.98424570831E+02  0.78157766569E+03  0.82754537452E+03  0.17300000000E+03 0.  1.
         -6    1    1    2    0  501  0.18534104575E+03  0.98424570831E+02  0.16982509880E+03  0.32063727726E+03  0.17300000000E+03 0.  1.
<mgrwt>
<rscale>  2 0.27197003E+03</rscale>
<asrwt>0</asrwt>
<pdfrwt beam="2">  1        1 0.15136915E-01 0.27197003E+03</pdfrwt>
<pdfrwt beam="1">  1       -1 0.16150656E+00 0.27197003E+03</pdfrwt>
<totfact> 0.11459194E+02</totfact>
</mgrwt>
</event>
<event>
 4    1  0.8130725E-001  0.1812756E+03  0.7546771E-02  0.1166574E+00
         -2   -1    0    0    0  501 -0.00000000000E+00  0.00000000000E+00  0.48757489210E+02  0.48757489210E+02  0.00000000000E+00 0. -1.
          2   -1    0    0  502    0  0.00000000000E+00 -0.00000000000E+00 -0.22725352084E+04  0.22725352084E+04  0.00000000000E+00 0.  1.
          6    1    1    2  502    0 -0.36091090941E+02  0.40364122922E+02 -0.13844594112E+03  0.22809670729E+03  0.17300000000E+03 0. -1.
         -6    1    1    2    0  501  0.36091090941E+02 -0.40364122922E+02 -0.20853317780E+04  0.20931959903E+04  0.17300000000E+03 0.  1.
<mgrwt>
<rscale>  2 0.18127556E+03</rscale>
<asrwt>0</asrwt>
<pdfrwt beam="2">  1        2 0.34962073E+00 0.18127556E+03</pdfrwt>
<pdfrwt beam="1">  1       -2 0.75011538E-02 0.18127556E+03</pdfrwt>
<totfact> 0.56881538E+02</totfact>
</mgrwt>
</event>
<event>
 4    1  0.8130725E-001  0.2101958E+03  0.7546771E-02  0.1141411E+00
          1   -1    0    0  502    0  0.00000000000E+00  0.00000000000E+00  0.81156024125E+03  0.81156024125E+03  0.00000000000E+00 0.  1.
         -1   -1    0    0    0  501 -0.00000000000E+00 -0.00000000000E+00 -0.54508808571E+02  0.54508808571E+02  0.00000000000E+00 0. -1.
          6    1    1    2  502    0  0.11580875180E+03 -0.29010710736E+02  0.36327152209E+03  0.41970047307E+03  0.17300000000E+03 0. -1.
         -6    1    1    2    0  501 -0.11580875180E+03  0.29010710736E+02  0.39377991059E+03  0.44636857675E+03  0.17300000000E+03 0. -1.
<mgrwt>
<rscale>  2 0.21019583E+03</rscale>
<asrwt>0</asrwt>
<pdfrwt beam="1">  1        1 0.12485541E+00 0.21019583E+03</pdfrwt>
<pdfrwt beam="2">  1       -1 0.83859711E-02 0.21019583E+03</pdfrwt>
<totfact> 0.17988107E+03</totfact>
</mgrwt>
</event>
<event>
 4    1  0.8130725E-001  0.2626124E+03  0.7546771E-02  0.1105584E+00
         -2   -1    0    0    0  501 -0.00000000000E+00  0.00000000000E+00  0.14981957461E+03  0.14981957461E+03  0.00000000000E+00 0.  1.
          2   -1    0    0  502    0  0.00000000000E+00 -0.00000000000E+00 -0.49879486271E+03  0.49879486271E+03  0.00000000000E+00 0. -1.
          6    1    1    2  502    0 -0.66101961278E+02 -0.18619017122E+03 -0.84419177048E+02  0.27584750605E+03  0.17300000000E+03 0. -1.
         -6    1    1    2    0  501  0.66101961278E+02  0.18619017122E+03 -0.26455611105E+03  0.37276693126E+03  0.17300000000E+03 0.  1.
<mgrwt>
<rscale>  2 0.26261236E+03</rscale>
<asrwt>0</asrwt>
<pdfrwt beam="2">  1        2 0.76737671E-01 0.26261236E+03</pdfrwt>
<pdfrwt beam="1">  1       -2 0.23049165E-01 0.26261236E+03</pdfrwt>
<totfact> 0.10260254E+03</totfact>
</mgrwt>
</event>
<event>
 4    1  0.8130725E-001  0.2039567E+03  0.7546771E-02  0.1146443E+00
          3   -1    0    0  502    0  0.00000000000E+00  0.00000000000E+00  0.10685755025E+03  0.10685755025E+03  0.00000000000E+00 0.  1.
         -3   -1    0    0    0  501 -0.00000000000E+00 -0.00000000000E+00 -0.43745560606E+03  0.43745560606E+03  0.00000000000E+00 0. -1.
          6    1    1    2  502    0 -0.73122315328E+02  0.79513989875E+02 -0.74990246319E+02  0.21730597007E+03  0.17300000000E+03 0. -1.
         -6    1    1    2    0  501  0.73122315328E+02 -0.79513989875E+02 -0.25560780949E+03  0.32700718625E+03  0.17300000000E+03 0. -1.
<mgrwt>
<rscale>  2 0.20395673E+03</rscale>
<asrwt>0</asrwt>
<pdfrwt beam="1">  1        3 0.16439623E-01 0.20395673E+03</pdfrwt>
<pdfrwt beam="2">  1       -3 0.67300863E-01 0.20395673E+03</pdfrwt>
<totfact> 0.16763851E+02</totfact>
</mgrwt>
</event>
<event>
 4    1  0.8130725E-001  0.2280482E+03  0.7546771E-02  0.1128021E+00
          2   -1    0    0  502    0  0.00000000000E+00  0.00000000000E+00  0.29342298776E+03  0.29342298776E+03  0.00000000000E+00 0.  1.
         -2   -1    0    0    0  501 -0.00000000000E+00 -0.00000000000E+00 -0.19626033533E+03  0.19626033533E+03  0.00000000000E+00 0. -1.
          6    1    1    2  502    0 -0.76324262053E+01 -0.14838712792E+03  0.12480496507E+03  0.25996590732E+03  0.17300000000E+03 0.  1.
         -6    1    1    2    0  501  0.76324262053E+01  0.14838712792E+03 -0.27642312635E+02  0.22971741578E+03  0.17300000000E+03 0. -1.
<mgrwt>
<rscale>  2 0.22804823E+03</rscale>
<asrwt>0</asrwt>
<pdfrwt beam="1">  1        2 0.45141998E-01 0.22804823E+03</pdfrwt>
<pdfrwt beam="2">  1       -2 0.30193898E-01 0.22804823E+03</pdfrwt>
<totfact> 0.11296596E+03</totfact>
</mgrwt>
</event>
<event>
 4    1  0.8130725E-001  0.1887123E+03  0.7546771E-02  0.1159628E+00
         -1   -1    0    0    0  501 -0.00000000000E+00  0.00000000000E+00  0.68481836528E+02  0.68481836528E+02  0.00000000000E+00 0.  1.
          1   -1    0    0  502    0  0.00000000000E+00 -0.00000000000E+00 -0.52479294647E+03  0.52479294647E+03  0.00000000000E+00 0. -1.
          6    1    1    2  502    0 -0.50085737584E+02  0.56344982484E+02 -0.25642714807E+03  0.31838219238E+03  0.17300000000E+03 0. -1.
         -6    1    1    2    0  501  0.50085737584E+02 -0.56344982484E+02 -0.19988396188E+03  0.27489259062E+03  0.17300000000E+03 0.  1.
<mgrwt>
<rscale>  2 0.18871232E+03</rscale>
<asrwt>0</asrwt>
<pdfrwt beam="2">  1        1 0.80737379E-01 0.18871232E+03</pdfrwt>
<pdfrwt beam="1">  1       -1 0.10535667E-01 0.18871232E+03</pdfrwt>
<totfact> 0.23509325E+03</totfact>
</mgrwt>
</event>
<event>
 4    1  0.8130725E-001  0.1929403E+03  0.7546771E-02  0.1155836E+00
          2   -1    0    0  502    0  0.00000000000E+00  0.00000000000E+00  0.12170845027E+04  0.12170845027E+04  0.00000000000E+00 0. -1.
         -2   -1    0    0    0  501 -0.00000000000E+00 -0.00000000000E+00 -0.30650746712E+02  0.30650746712E+02  0.00000000000E+00 0.  1.
          6    1    1    2  502    0  0.56232687322E+02  0.64302731817E+02  0.56458157604E+03  0.59663918112E+03  0.17300000000E+03 0.  1.
         -6    1    1    2    0  501 -0.56232687322E+02 -0.64302731817E+02  0.62185217998E+03  0.65109606832E+03  0.17300000000E+03 0.  1.
<mgrwt>
<rscale>  2 0.19294029E+03</rscale>
<asrwt>0</asrwt>
<pdfrwt beam="1">  1        2 0.18724373E+00 0.19294029E+03</pdfrwt>
<pdfrwt beam="2">  1       -2 0.47155004E-02 0.19294029E+03</pdfrwt>
<totfact> 0.41520601E+03</totfact>
</mgrwt>
</event>
<event>
 4    1  0.8130725E-001  0.2231802E+03  0.7546771E-02  0.1131534E+00
          1   -1    0    0  502    0  0.00000000000E+00  0.00000000000E+00  0.29592955431E+04  0.29592955431E+04  0.00000000000E+00 0.  1.
         -1   -1    0    0    0  501 -0.00000000000E+00 -0.00000000000E+00 -0.18195823546E+02  0.18195823546E+02  0.00000000000E+00 0. -1.
          6    1    1    2  502    0  0.54762559773E+02  0.12992862900E+03  0.10628945086E+04  0.10860727982E+04  0.17300000000E+03 0. -1.
         -6    1    1    2    0  501 -0.54762559773E+02 -0.12992862900E+03  0.18782052110E+04  0.18914185685E+04  0.17300000000E+03 0.  1.
<mgrwt>
<rscale>  2 0.22318017E+03</rscale>
<asrwt>0</asrwt>
<pdfrwt beam="1">  1        1 0.45527586E+00 0.22318017E+03</pdfrwt>
<pdfrwt beam="2">  1       -1 0.27993598E-02 0.22318017E+03</pdfrwt>
<totfact> 0.32635551E+02</totfact>
</mgrwt>
</event>
<event>
 4    1  0.8130725E-001  0.2314505E+03  0.7546771E-02  0.1125623E+00
          2   -1    0    0  502    0  0.00000000000E+00  0.00000000000E+00  0.31409599311E+04  0.31409599311E+04  0.00000000000E+00 0.  1.
         -2   -1    0    0    0  501 -0.00000000000E+00 -0.00000000000E+00 -0.25063338192E+02  0.25063338192E+02  0.00000000000E+00 0. -1.
          6    1    1    2  502    0 -0.14657634822E+03 -0.46429506354E+02  0.24527641411E+04  0.24636601342E+04  0.17300000000E+03 0.  1.
         -6    1    1    2    0  501  0.14657634822E+03  0.46429506354E+02  0.66313245186E+03  0.70236313515E+03  0.17300000000E+03 0. -1.
<mgrwt>
<rscale>  2 0.23145048E+03</rscale>
<asrwt>0</asrwt>
<pdfrwt beam="1">  1        2 0.48322429E+00 0.23145048E+03</pdfrwt>
<pdfrwt beam="2">  1       -2 0.38559007E-02 0.23145048E+03</pdfrwt>
<totfact> 0.50328207E+02</totfact>
</mgrwt>
</event>
<event>
 4    1  0.8130725E-001  0.2300805E+03  0.7546771E-02  0.1126583E+00
          2   -1    0    0  502    0  0.00000000000E+00  0.00000000000E+00  0.16159569556E+04  0.16159569556E+04  0.00000000000E+00 0. -1.
         -2   -1    0    0    0  501 -0.00000000000E+00 -0.00000000000E+00 -0.16663130998E+03  0.16663130998E+03  0.00000000000E+00 0.  1.
          6    1    1    2  502    0  0.12329096627E+03  0.88359375160E+02 -0.74229439323E+02  0.24175824951E+03  0.17300000000E+03 0.  1.
         -6    1    1    2    0  501 -0.12329096627E+03 -0.88359375160E+02  0.15235550849E+04  0.15408300161E+04  0.17300000000E+03 0. -1.
<mgrwt>
<rscale>  2 0.23008051E+03</rscale>
<asrwt>0</asrwt>
<pdfrwt beam="1">  1        2 0.24860875E+00 0.23008051E+03</pdfrwt>
<pdfrwt beam="2">  1       -2 0.25635587E-01 0.23008051E+03</pdfrwt>
<totfact> 0.16400183E+02</totfact>
</mgrwt>
</event>
<event>
 4    1  0.8130725E-001  0.2187367E+03  0.7546771E-02  0.1134828E+00
          2   -1    0    0  502    0  0.00000000000E+00  0.00000000000E+00  0.77086529246E+02  0.77086529246E+02  0.00000000000E+00 0.  1.
         -2   -1    0    0    0  501 -0.00000000000E+00 -0.00000000000E+00 -0.64747348969E+03  0.64747348969E+03  0.00000000000E+00 0. -1.
          6    1    1    2  502    0 -0.22911200474E+00  0.13385318942E+03 -0.35889620860E+03  0.42030015151E+03  0.17300000000E+03 0. -1.
         -6    1    1    2    0  501  0.22911200474E+00 -0.13385318942E+03 -0.21149075184E+03  0.30425986743E+03  0.17300000000E+03 0.  1.
<mgrwt>
<rscale>  2 0.21873667E+03</rscale>
<asrwt>0</asrwt>
<pdfrwt beam="1">  1        2 0.11859466E-01 0.21873667E+03</pdfrwt>
<pdfrwt beam="2">  1       -2 0.99611304E-01 0.21873667E+03</pdfrwt>
<totfact> 0.44776058E+02</totfact>
</mgrwt>
</event>
<event>
 4    1  0.8130725E-001  0.2368973E+03  0.7546771E-02  0.1121877E+00
          2   -1    0    0  502    0  0.00000000000E+00  0.00000000000E+00  0.11452327062E+04  0.11452327062E+04  0.00000000000E+00 0. -1.
         -2   -1    0    0    0  501 -0.00000000000E+00 -0.00000000000E+00 -0.76875422613E+02  0.76875422613E+02  0.00000000000E+00 0.  1.
          6    1    1    2  502    0 -0.13750971809E+03  0.85337059812E+02  0.90211258095E+03  0.93269901096E+03  0.17300000000E+03 0. -1.
         -6    1    1    2    0  501  0.13750971809E+03 -0.85337059812E+02  0.16624470267E+03  0.28940911788E+03  0.17300000000E+03 0.  1.
<mgrwt>
<rscale>  2 0.23689731E+03</rscale>
<asrwt>0</asrwt>
<pdfrwt beam="1">  1        2 0.17618963E+00 0.23689731E+03</pdfrwt>
<pdfrwt beam="2">  1       -2 0.11826989E-01 0.23689731E+03</pdfrwt>
<totfact> 0.10910993E+03</totfact>
</mgrwt>
</event>
<event>
 4    1  0.8130725E-001  0.2192492E+03  0.7546771E-02  0.1134444E+00
          2   -1    0    0  502    0  0.00000000000E+00  0.00000000000E+00  0.10482685171E+04  0.10482685171E+04  0.00000000000E+00 0. -1.
         -2   -1    0    0    0  501 -0.00000000000E+00 -0.00000000000E+00 -0.56020945354E+02  0.56020945354E+02  0.00000000000E+00 0.  1.
          6    1    1    2  502    0  0.49940746724E+02 -0.12508858358E+03  0.26093678802E+03  0.34081995139E+03  0.17300000000E+03 0.  1.
         -6    1    1    2    0  501 -0.49940746724E+02  0.12508858358E+03  0.73131078377E+03  0.76346951110E+03  0.17300000000E+03 0. -1.
<mgrwt>
<rscale>  2 0.21924925E+03</rscale>
<asrwt>0</asrwt>
<pdfrwt beam="1">  1        2 0.16127207E+00 0.21924925E+03</pdfrwt>
<pdfrwt beam="2">  1       -2 0.86186077E-02 0.21924925E+03</pdfrwt>
<totfact> 0.20584817E+03</totfact>
</mgrwt>
</event>
<event>
 4    1  0.8130725E-001  0.1867949E+03  0.7546771E-02  0.1161384E+00
         -1   -1    0    0    0  501 -0.00000000000E+00  0.00000000000E+00  0.14048828225E+02  0.14048828225E+02  0.00000000000E+00 0. -1.
          1   -1    0    0  502    0  0.00000000000E+00 -0.00000000000E+00 -0.24889231520E+04  0.24889231520E+04  0.00000000000E+00 0.  1.
          6    1    1    2  502    0  0.70418200931E+02  0.21499802352E+01 -0.12950519389E+04  0.13084539999E+04  0.17300000000E+03 0.  1.
         -6    1    1    2    0  501 -0.70418200931E+02 -0.21499802352E+01 -0.11798223849E+04  0.11945179803E+04  0.17300000000E+03 0. -1.
<mgrwt>
<rscale>  2 0.18679493E+03</rscale>
<asrwt>0</asrwt>
<pdfrwt beam="2">  1        1 0.38291081E+00 0.18679493E+03</pdfrwt>
<pdfrwt beam="1">  1       -1 0.21613607E-02 0.18679493E+03</pdfrwt>
<totfact> 0.99651242E+02</totfact>
</mgrwt>
</event>
<event>
 4    1  0.8130725E-001  0.2127699E+03  0.7546771E-02  0.1139391E+00
          2   -1    0    0  502    0  0.00000000000E+00  0.00000000000E+00  0.71080527595E+03  0.71080527595E+03  0.00000000000E+00 0. -1.
         -2   -1    0    0    0  501 -0.00000000000E+00 -0.00000000000E+00 -0.68440572425E+02  0.68440572425E+02  0.00000000000E+00 0.  1.
          6    1    1    2  502    0 -0.10849792760E+03  0.59751500992E+02  0.21852973225E+03  0.30500210826E+03  0.17300000000E+03 0.  1.
         -6    1    1    2    0  501  0.10849792760E+03 -0.59751500992E+02  0.42383497127E+03  0.47424374012E+03  0.17300000000E+03 0. -1.
<mgrwt>
<rscale>  2 0.21276993E+03</rscale>
<asrwt>0</asrwt>
<pdfrwt beam="1">  1        2 0.10935465E+00 0.21276993E+03</pdfrwt>
<pdfrwt beam="2">  1       -2 0.10529319E-01 0.21276993E+03</pdfrwt>
<totfact> 0.24974966E+03</totfact>
</mgrwt>
</event>
<event>
 4    1  0.8130725E-001  0.5509435E+03  0.7546771E-02  0.1001276E+00
         -2   -1    0    0    0  501 -0.00000000000E+00  0.00000000000E+00  0.55031548708E+03  0.55031548708E+03  0.00000000000E+00 0.  1.
          2   -1    0    0  502    0  0.00000000000E+00 -0.00000000000E+00 -0.59741579668E+03  0.59741579668E+03  0.00000000000E+00 0. -1.
          6    1    1    2  502    0  0.24405533005E+03 -0.46265183871E+03 -0.18251869242E+03  0.58038935300E+03  0.17300000000E+03 0.  1.
         -6    1    1    2    0  501 -0.24405533005E+03  0.46265183871E+03  0.13541838281E+03  0.56734193076E+03  0.17300000000E+03 0. -1.
<mgrwt>
<rscale>  2 0.55094349E+03</rscale>
<asrwt>0</asrwt>
<pdfrwt beam="2">  1        2 0.91910122E-01 0.55094349E+03</pdfrwt>
<pdfrwt beam="1">  1       -2 0.84663922E-01 0.55094349E+03</pdfrwt>
<totfact> 0.62299326E+01</totfact>
</mgrwt>
</event>
<event>
 4    1  0.8130725E-001  0.1994736E+03  0.7546771E-02  0.1150184E+00
          1   -1    0    0  502    0  0.00000000000E+00  0.00000000000E+00  0.61490689685E+03  0.61490689685E+03  0.00000000000E+00 0. -1.
         -1   -1    0    0    0  501 -0.00000000000E+00 -0.00000000000E+00 -0.14367327857E+03  0.14367327857E+03  0.00000000000E+00 0.  1.
          6    1    1    2  502    0 -0.83850939597E+02  0.53195203538E+02 -0.45573385511E+02  0.20461339941E+03  0.17300000000E+03 0. -1.
         -6    1    1    2    0  501  0.83850939597E+02 -0.53195203538E+02  0.51680700379E+03  0.55396677601E+03  0.17300000000E+03 0. -1.
<mgrwt>
<rscale>  2 0.19947358E+03</rscale>
<asrwt>0</asrwt>
<pdfrwt beam="1">  1        1 0.94601060E-01 0.19947358E+03</pdfrwt>
<pdfrwt beam="2">  1       -1 0.22103582E-01 0.19947358E+03</pdfrwt>
<totfact> 0.58573382E+02</totfact>
</mgrwt>
</event>
<event>
 4    1  0.8130725E-001  0.2140051E+03  0.7546771E-02  0.1138433E+00
         -2   -1    0    0    0  501 -0.00000000000E+00  0.00000000000E+00  0.34442349971E+02  0.34442349971E+02  0.00000000000E+00 0.  1.
          2   -1    0    0  502    0  0.00000000000E+00 -0.00000000000E+00 -0.13495586443E+04  0.13495586443E+04  0.00000000000E+00 0. -1.
          6    1    1    2  502    0 -0.84857751793E+02  0.93104045944E+02 -0.57362779004E+03  0.61224753402E+03  0.17300000000E+03 0. -1.
         -6    1    1    2    0  501  0.84857751793E+02 -0.93104045944E+02 -0.74148850426E+03  0.77175346022E+03  0.17300000000E+03 0.  1.
<mgrwt>
<rscale>  2 0.21400514E+03</rscale>
<asrwt>0</asrwt>
<pdfrwt beam="2">  1        2 0.20762438E+00 0.21400514E+03</pdfrwt>
<pdfrwt beam="1">  1       -2 0.52988237E-02 0.21400514E+03</pdfrwt>
<totfact> 0.29450586E+03</totfact>
</mgrwt>
</event>
<event>
 4    1  0.8130725E-001  0.2015518E+03  0.7546771E-02  0.1148436E+00
          1   -1    0    0  502    0  0.00000000000E+00  0.00000000000E+00  0.53519142437E+02  0.53519142437E+02  0.00000000000E+00 0.  1.
         -1   -1    0    0    0  501 -0.00000000000E+00 -0.00000000000E+00 -0.83860428987E+03  0.83860428987E+03  0.00000000000E+00 0. -1.
          6    1    1    2  502    0  0.95808654953E+02 -0.38920728691E+02 -0.52993980275E+03  0.56697382305E+03  0.17300000000E+03 0. -1.
         -6    1    1    2    0  501 -0.95808654953E+02  0.38920728691E+02 -0.25514534468E+03  0.32514960925E+03  0.17300000000E+03 0.  1.
<mgrwt>
<rscale>  2 0.20155178E+03</rscale>
<asrwt>0</asrwt>
<pdfrwt beam="1">  1        1 0.82337147E-02 0.20155178E+03</pdfrwt>
<pdfrwt beam="2">  1       -1 0.12901604E+00 0.20155178E+03</pdfrwt>
<totfact> 0.46373353E+02</totfact>
</mgrwt>
</event>
<event>
 4    1  0.8130725E-001  0.2288766E+03  0.7546771E-02  0.1127433E+00
         -1   -1    0    0    0  501 -0.00000000000E+00  0.00000000000E+00  0.77397416301E+02  0.77397416301E+02  0.00000000000E+00 0. -1.
          1   -1    0    0  502    0  0.00000000000E+00 -0.00000000000E+00 -0.70059811173E+03  0.70059811173E+03  0.00000000000E+00 0.  1.
          6    1    1    2  502    0 -0.14847117746E+03 -0.20292744104E+02 -0.38325725068E+03  0.44639736357E+03  0.17300000000E+03 0. -1.
         -6    1    1    2    0  501  0.14847117746E+03  0.20292744104E+02 -0.23994344475E+03  0.33159816446E+03  0.17300000000E+03 0.  1.
<mgrwt>
<rscale>  2 0.22887657E+03</rscale>
<asrwt>0</asrwt>
<pdfrwt beam="2">  1        1 0.10778432E+00 0.22887657E+03</pdfrwt>
<pdfrwt beam="1">  1       -1 0.11907295E-01 0.22887657E+03</pdfrwt>
<totfact> 0.13053339E+03</totfact>
</mgrwt>
</event>
<event>
 4    1  0.8130725E-001  0.2593603E+03  0.7546771E-02  0.1107528E+00
         -2   -1    0    0    0  501 -0.00000000000E+00  0.00000000000E+00  0.17333992628E+03  0.17333992628E+03  0.00000000000E+00 0.  1.
          2   -1    0    0  502    0  0.00000000000E+00 -0.00000000000E+00 -0.39063986761E+03  0.39063986761E+03  0.00000000000E+00 0. -1.
          6    1    1    2  502    0 -0.46874519686E+02  0.18746071895E+03 -0.13152906183E+03  0.29080515101E+03  0.17300000000E+03 0. -1.
         -6    1    1    2    0  501  0.46874519686E+02 -0.18746071895E+03 -0.85770879504E+02  0.27317464289E+03  0.17300000000E+03 0.  1.
<mgrwt>
<rscale>  2 0.25936025E+03</rscale>
<asrwt>0</asrwt>
<pdfrwt beam="2">  1        2 0.60098440E-01 0.25936025E+03</pdfrwt>
<pdfrwt beam="1">  1       -2 0.26667681E-01 0.25936025E+03</pdfrwt>
<totfact> 0.10385387E+03</totfact>
</mgrwt>
</event>
<event>
 4    1  0.8130725E-001  0.6719487E+03  0.7546771E-02  0.9766444E-01
         -1   -1    0    0    0  501 -0.00000000000E+00  0.00000000000E+00  0.14074465329E+03  0.14074465329E+03  0.00000000000E+00 0.  1.
          1   -1    0    0  502    0  0.00000000000E+00 -0.00000000000E+00 -0.32431848940E+04  0.32431848940E+04  0.00000000000E+00 0. -1.
          6    1    1    2  502    0  0.19172251000E+03 -0.62034552819E+03 -0.17273404401E+04  0.18534346741E+04  0.17300000000E+03 0. -1.
         -6    1    1    2    0  501 -0.19172251000E+03  0.62034552819E+03 -0.13750998006E+04  0.15304948731E+04  0.17300000000E+03 0.  1.
<mgrwt>
<rscale>  2 0.67194873E+03</rscale>
<asrwt>0</asrwt>
<pdfrwt beam="2">  1        1 0.49895157E+00 0.67194873E+03</pdfrwt>
<pdfrwt beam="1">  1       -1 0.21653022E-01 0.67194873E+03</pdfrwt>
<totfact> 0.76565388E+00</totfact>
</mgrwt>
</event>
<event>
 4    1  0.8130725E-001  0.2098038E+03  0.7546771E-02  0.1141721E+00
          2   -1    0    0  502    0  0.00000000000E+00  0.00000000000E+00  0.14759269827E+04  0.14759269827E+04  0.00000000000E+00 0.  1.
         -2   -1    0    0    0  501 -0.00000000000E+00 -0.00000000000E+00 -0.30435683872E+02  0.30435683872E+02  0.00000000000E+00 0. -1.
          6    1    1    2  502    0  0.11844516966E+03  0.77051291365E+01  0.61594538890E+03  0.65069681830E+03  0.17300000000E+03 0.  1.
         -6    1    1    2    0  501 -0.11844516966E+03 -0.77051291365E+01  0.82954590991E+03  0.85566584827E+03  0.17300000000E+03 0. -1.
<mgrwt>
<rscale>  2 0.20980378E+03</rscale>
<asrwt>0</asrwt>
<pdfrwt beam="1">  1        2 0.22706563E+00 0.20980378E+03</pdfrwt>
<pdfrwt beam="2">  1       -2 0.46824141E-02 0.20980378E+03</pdfrwt>
<totfact> 0.30378156E+03</totfact>
</mgrwt>
</event>
<event>
 4    1  0.8130725E-001  0.3386563E+03  0.7546771E-02  0.1067370E+00
          2   -1    0    0  502    0  0.00000000000E+00  0.00000000000E+00  0.23476534193E+04  0.23476534193E+04  0.00000000000E+00 0. -1.
         -2   -1    0    0    0  501 -0.00000000000E+00 -0.00000000000E+00 -0.59815676976E+02  0.59815676976E+02  0.00000000000E+00 0.  1.
          6    1    1    2  502    0 -0.28577531747E+03  0.55601561397E+02  0.16592627290E+04  0.16934700675E+04  0.17300000000E+03 0. -1.
         -6    1    1    2    0  501  0.28577531747E+03 -0.55601561397E+02  0.62857501333E+03  0.71399902877E+03  0.17300000000E+03 0.  1.
<mgrwt>
<rscale>  2 0.33865626E+03</rscale>
<asrwt>0</asrwt>
<pdfrwt beam="1">  1        2 0.36117738E+00 0.33865626E+03</pdfrwt>
<pdfrwt beam="2">  1       -2 0.92024136E-02 0.33865626E+03</pdfrwt>
<totfact> 0.36333753E+02</totfact>
</mgrwt>
</event>
<event>
 4    1  0.8130725E-001  0.2032239E+03  0.7546771E-02  0.1147047E+00
          2   -1    0    0  502    0  0.00000000000E+00  0.00000000000E+00  0.19380294201E+04  0.19380294201E+04  0.00000000000E+00 0. -1.
         -2   -1    0    0    0  501 -0.00000000000E+00 -0.00000000000E+00 -0.24072793338E+02  0.24072793338E+02  0.00000000000E+00 0.  1.
          6    1    1    2  502    0  0.10159112895E+03 -0.32406955394E+02  0.12893161770E+04  0.13052341447E+04  0.17300000000E+03 0. -1.
         -6    1    1    2    0  501 -0.10159112895E+03  0.32406955394E+02  0.62464044980E+03  0.65686806876E+03  0.17300000000E+03 0.  1.
<mgrwt>
<rscale>  2 0.20322394E+03</rscale>
<asrwt>0</asrwt>
<pdfrwt beam="1">  1        2 0.29815825E+00 0.20322394E+03</pdfrwt>
<pdfrwt beam="2">  1       -2 0.37035082E-02 0.20322394E+03</pdfrwt>
<totfact> 0.24779756E+03</totfact>
</mgrwt>
</event>
<event>
 4    1  0.8130725E-001  0.1980617E+03  0.7546771E-02  0.1151385E+00
         -2   -1    0    0    0  501 -0.00000000000E+00  0.00000000000E+00  0.15243842637E+03  0.15243842637E+03  0.00000000000E+00 0. -1.
          2   -1    0    0  502    0  0.00000000000E+00 -0.00000000000E+00 -0.33126106720E+03  0.33126106720E+03  0.00000000000E+00 0.  1.
          6    1    1    2  502    0 -0.68083521949E+02 -0.68294051842E+02  0.24835923353E+02  0.19961279159E+03  0.17300000000E+03 0.  1.
         -6    1    1    2    0  501  0.68083521949E+02  0.68294051842E+02 -0.20365856418E+03  0.28408670198E+03  0.17300000000E+03 0.  1.
<mgrwt>
<rscale>  2 0.19806172E+03</rscale>
<asrwt>0</asrwt>
<pdfrwt beam="2">  1        2 0.50963240E-01 0.19806172E+03</pdfrwt>
<pdfrwt beam="1">  1       -2 0.23452066E-01 0.19806172E+03</pdfrwt>
<totfact> 0.15506429E+03</totfact>
</mgrwt>
</event>
<event>
 4    1  0.8130725E-001  0.1751435E+03  0.7546771E-02  0.1172588E+00
          2   -1    0    0  502    0  0.00000000000E+00  0.00000000000E+00  0.10916654563E+04  0.10916654563E+04  0.00000000000E+00 0. -1.
         -2   -1    0    0    0  501 -0.00000000000E+00 -0.00000000000E+00 -0.33113616455E+02  0.33113616455E+02  0.00000000000E+00 0.  1.
          6    1    1    2  502    0  0.45635336334E+01  0.26933338747E+02  0.74811860861E+03  0.76834672065E+03  0.17300000000E+03 0. -1.
         -6    1    1    2    0  501 -0.45635336334E+01 -0.26933338747E+02  0.31043323122E+03  0.35643235210E+03  0.17300000000E+03 0. -1.
<mgrwt>
<rscale>  2 0.17514346E+03</rscale>
<asrwt>0</asrwt>
<pdfrwt beam="1">  1        2 0.16794850E+00 0.17514346E+03</pdfrwt>
<pdfrwt beam="2">  1       -2 0.50944034E-02 0.17514346E+03</pdfrwt>
<totfact> 0.43442894E+03</totfact>
</mgrwt>
</event>
<event>
 4    1  0.8130725E-001  0.2459813E+03  0.7546771E-02  0.1115871E+00
         -2   -1    0    0    0  501 -0.00000000000E+00  0.00000000000E+00  0.73405348543E+02  0.73405348543E+02  0.00000000000E+00 0. -1.
          2   -1    0    0  502    0  0.00000000000E+00 -0.00000000000E+00 -0.10812440031E+04  0.10812440031E+04  0.00000000000E+00 0.  1.
          6    1    1    2  502    0  0.14215354018E+03 -0.10183414786E+03 -0.78536293769E+03  0.82298345460E+03  0.17300000000E+03 0.  1.
         -6    1    1    2    0  501 -0.14215354018E+03  0.10183414786E+03 -0.22247571682E+03  0.33166589700E+03  0.17300000000E+03 0. -1.
<mgrwt>
<rscale>  2 0.24598135E+03</rscale>
<asrwt>0</asrwt>
<pdfrwt beam="2">  1        2 0.16634523E+00 0.24598135E+03</pdfrwt>
<pdfrwt beam="1">  1       -2 0.11293131E-01 0.24598135E+03</pdfrwt>
<totfact> 0.12806588E+03</totfact>
</mgrwt>
</event>
<event>
 4    1  0.8130725E-001  0.2466955E+03  0.7546771E-02  0.1115411E+00
          2   -1    0    0  502    0  0.00000000000E+00  0.00000000000E+00  0.14456215035E+03  0.14456215035E+03  0.00000000000E+00 0. -1.
         -2   -1    0    0    0  501 -0.00000000000E+00 -0.00000000000E+00 -0.44894384894E+03  0.44894384894E+03  0.00000000000E+00 0.  1.
          6    1    1    2  502    0 -0.17211336595E+03  0.36147725201E+02 -0.22624501821E+03  0.33473194804E+03  0.17300000000E+03 0.  1.
         -6    1    1    2    0  501  0.17211336595E+03 -0.36147725201E+02 -0.78136680380E+02  0.25877405124E+03  0.17300000000E+03 0. -1.
<mgrwt>
<rscale>  2 0.24669550E+03</rscale>
<asrwt>0</asrwt>
<pdfrwt beam="1">  1        2 0.22240331E-01 0.24669550E+03</pdfrwt>
<pdfrwt beam="2">  1       -2 0.69068283E-01 0.24669550E+03</pdfrwt>
<totfact> 0.48333717E+02</totfact>
</mgrwt>
</event>
<event>
 4    1  0.8130725E-001  0.3863454E+03  0.7546771E-02  0.1048613E+00
         -2   -1    0    0    0  501 -0.00000000000E+00  0.00000000000E+00  0.83677311352E+03  0.83677311352E+03  0.00000000000E+00 0. -1.
          2   -1    0    0  502    0  0.00000000000E+00 -0.00000000000E+00 -0.20800050795E+03  0.20800050795E+03  0.00000000000E+00 0.  1.
          6    1    1    2  502    0 -0.92908053365E+02 -0.33271892236E+03  0.51152108975E+03  0.64102777860E+03  0.17300000000E+03 0. -1.
         -6    1    1    2    0  501  0.92908053365E+02  0.33271892236E+03  0.11725151581E+03  0.40374584287E+03  0.17300000000E+03 0.  1.
<mgrwt>
<rscale>  2 0.38634543E+03</rscale>
<asrwt>0</asrwt>
<pdfrwt beam="2">  1        2 0.32000079E-01 0.38634543E+03</pdfrwt>
<pdfrwt beam="1">  1       -2 0.12873432E+00 0.38634543E+03</pdfrwt>
<totfact> 0.76010863E+01</totfact>
</mgrwt>
</event>
<event>
 4    1  0.8130725E-001  0.1778101E+03  0.7546771E-02  0.1169939E+00
         -2   -1    0    0    0  501 -0.00000000000E+00  0.00000000000E+00  0.13116448821E+02  0.13116448821E+02  0.00000000000E+00 0. -1.
          2   -1    0    0  502    0  0.00000000000E+00 -0.00000000000E+00 -0.26370152526E+04  0.26370152526E+04  0.00000000000E+00 0.  1.
          6    1    1    2  502    0  0.20776585234E+02 -0.35436977787E+02 -0.17003545401E+04  0.17096262773E+04  0.17300000000E+03 0.  1.
         -6    1    1    2    0  501 -0.20776585234E+02  0.35436977787E+02 -0.92354426373E+03  0.94050542420E+03  0.17300000000E+03 0. -1.
<mgrwt>
<rscale>  2 0.17781014E+03</rscale>
<asrwt>0</asrwt>
<pdfrwt beam="2">  1        2 0.40569469E+00 0.17781014E+03</pdfrwt>
<pdfrwt beam="1">  1       -2 0.20179150E-02 0.17781014E+03</pdfrwt>
<totfact> 0.25920233E+03</totfact>
</mgrwt>
</event>
<event>
 4    1  0.8130725E-001  0.2812301E+03  0.7546771E-02  0.1095019E+00
         -1   -1    0    0    0  501 -0.00000000000E+00  0.00000000000E+00  0.40061627300E+03  0.40061627300E+03  0.00000000000E+00 0.  1.
          1   -1    0    0  502    0  0.00000000000E+00 -0.00000000000E+00 -0.28400913827E+03  0.28400913827E+03  0.00000000000E+00 0. -1.
          6    1    1    2  502    0  0.21613990223E+03  0.49445990569E+02  0.24731331276E+03  0.37450532438E+03  0.17300000000E+03 0.  1.
         -6    1    1    2    0  501 -0.21613990223E+03 -0.49445990569E+02 -0.13070617803E+03  0.31012008689E+03  0.17300000000E+03 0. -1.
<mgrwt>
<rscale>  2 0.28123009E+03</rscale>
<asrwt>0</asrwt>
<pdfrwt beam="2">  1        1 0.43693714E-01 0.28123009E+03</pdfrwt>
<pdfrwt beam="1">  1       -1 0.61633273E-01 0.28123009E+03</pdfrwt>
<totfact> 0.26077192E+02</totfact>
</mgrwt>
</event>
<event>
 4    1  0.8130725E-001  0.4202500E+03  0.7546771E-02  0.1036985E+00
          2   -1    0    0  502    0  0.00000000000E+00  0.00000000000E+00  0.17612325510E+04  0.17612325510E+04  0.00000000000E+00 0.  1.
         -2   -1    0    0    0  501 -0.00000000000E+00 -0.00000000000E+00 -0.10754325625E+03  0.10754325625E+03  0.00000000000E+00 0. -1.
          6    1    1    2  502    0  0.23543839142E+03  0.30207583225E+03  0.10697343811E+04  0.11493222745E+04  0.17300000000E+03 0.  1.
         -6    1    1    2    0  501 -0.23543839142E+03 -0.30207583225E+03  0.58395491357E+03  0.71945353267E+03  0.17300000000E+03 0. -1.
<mgrwt>
<rscale>  2 0.42024998E+03</rscale>
<asrwt>0</asrwt>
<pdfrwt beam="1">  1        2 0.27095883E+00 0.42024998E+03</pdfrwt>
<pdfrwt beam="2">  1       -2 0.16545118E-01 0.42024998E+03</pdfrwt>
<totfact> 0.28276071E+02</totfact>
</mgrwt>
</event>
<event>
 4    1  0.8130725E-001  0.2104610E+03  0.7546771E-02  0.1141201E+00
          3   -1    0    0  502    0  0.00000000000E+00  0.00000000000E+00  0.73704923385E+03  0.73704923385E+03  0.00000000000E+00 0. -1.
         -3   -1    0    0    0  501 -0.00000000000E+00 -0.00000000000E+00 -0.72278884908E+02  0.72278884908E+02  0.00000000000E+00 0.  1.
          6    1    1    2  502    0 -0.12281185158E+02 -0.11922256115E+03  0.16625034208E+03  0.26820332369E+03  0.17300000000E+03 0.  1.
         -6    1    1    2    0  501  0.12281185158E+02  0.11922256115E+03  0.49852000687E+03  0.54112479507E+03  0.17300000000E+03 0. -1.
<mgrwt>
<rscale>  2 0.21046103E+03</rscale>
<asrwt>0</asrwt>
<pdfrwt beam="1">  1        3 0.11339218E+00 0.21046103E+03</pdfrwt>
<pdfrwt beam="2">  1       -3 0.11119829E-01 0.21046103E+03</pdfrwt>
<totfact> 0.10268902E+02</totfact>
</mgrwt>
</event>
<event>
 4    1  0.8130725E-001  0.2585847E+03  0.7546771E-02  0.1107997E+00
          2   -1    0    0  502    0  0.00000000000E+00  0.00000000000E+00  0.28924581345E+03  0.28924581345E+03  0.00000000000E+00 0.  1.
         -2   -1    0    0    0  501 -0.00000000000E+00 -0.00000000000E+00 -0.33778762943E+03  0.33778762943E+03  0.00000000000E+00 0. -1.
          6    1    1    2  502    0  0.16330918992E+03  0.10132699017E+03 -0.20040589588E+03  0.32715221771E+03  0.17300000000E+03 0. -1.
         -6    1    1    2    0  501 -0.16330918992E+03 -0.10132699017E+03  0.15186407990E+03  0.29988122518E+03  0.17300000000E+03 0.  1.
<mgrwt>
<rscale>  2 0.25858471E+03</rscale>
<asrwt>0</asrwt>
<pdfrwt beam="1">  1        2 0.44499356E-01 0.25858471E+03</pdfrwt>
<pdfrwt beam="2">  1       -2 0.51967328E-01 0.25858471E+03</pdfrwt>
<totfact> 0.40637564E+02</totfact>
</mgrwt>
</event>
<event>
 4    1  0.8130725E-001  0.1802828E+03  0.7546771E-02  0.1167530E+00
         -2   -1    0    0    0  501 -0.00000000000E+00  0.00000000000E+00  0.77945192234E+01  0.77945192234E+01  0.00000000000E+00 0.  1.
          2   -1    0    0  502    0  0.00000000000E+00 -0.00000000000E+00 -0.42496611416E+04  0.42496611416E+04  0.00000000000E+00 0. -1.
          6    1    1    2  502    0  0.45232884021E+02  0.22953673939E+02 -0.24126803957E+04  0.24194066580E+04  0.17300000000E+03 0. -1.
         -6    1    1    2    0  501 -0.45232884021E+02 -0.22953673939E+02 -0.18291862267E+04  0.18380490028E+04  0.17300000000E+03 0.  1.
<mgrwt>
<rscale>  2 0.18028279E+03</rscale>
<asrwt>0</asrwt>
<pdfrwt beam="2">  1        2 0.65379257E+00 0.18028279E+03</pdfrwt>
<pdfrwt beam="1">  1       -2 0.11991595E-02 0.18028279E+03</pdfrwt>
<totfact> 0.47842889E+02</totfact>
</mgrwt>
</event>
<event>
 4    1  0.8130725E-001  0.1868498E+03  0.7546771E-02  0.1161334E+00
          2   -1    0    0  502    0  0.00000000000E+00  0.00000000000E+00  0.10736384513E+03  0.10736384513E+03  0.00000000000E+00 0.  1.
         -2   -1    0    0    0  501 -0.00000000000E+00 -0.00000000000E+00 -0.32866566056E+03  0.32866566056E+03  0.00000000000E+00 0. -1.
          6    1    1    2  502    0  0.14747351790E+02 -0.69038802637E+02 -0.13309474734E+03  0.22940586833E+03  0.17300000000E+03 0. -1.
         -6    1    1    2    0  501 -0.14747351790E+02  0.69038802637E+02 -0.88207068088E+02  0.20662363736E+03  0.17300000000E+03 0.  1.
<mgrwt>
<rscale>  2 0.18684978E+03</rscale>
<asrwt>0</asrwt>
<pdfrwt beam="1">  1        2 0.16517515E-01 0.18684978E+03</pdfrwt>
<pdfrwt beam="2">  1       -2 0.50563947E-01 0.18684978E+03</pdfrwt>
<totfact> 0.12892591E+03</totfact>
</mgrwt>
</event>
<event>
 4    1  0.8130725E-001  0.1922001E+03  0.7546771E-02  0.1156492E+00
         -2   -1    0    0    0  501 -0.00000000000E+00  0.00000000000E+00  0.25002754290E+02  0.25002754290E+02  0.00000000000E+00 0. -1.
          2   -1    0    0  502    0  0.00000000000E+00 -0.00000000000E+00 -0.18200605704E+04  0.18200605704E+04  0.00000000000E+00 0.  1.
          6    1    1    2  502    0 -0.80355738340E+02  0.23554812908E+02 -0.49728504600E+03  0.53313534010E+03  0.17300000000E+03 0. -1.
         -6    1    1    2    0  501  0.80355738340E+02 -0.23554812908E+02 -0.12977727701E+04  0.13119279846E+04  0.17300000000E+03 0. -1.
<mgrwt>
<rscale>  2 0.19220009E+03</rscale>
<asrwt>0</asrwt>
<pdfrwt beam="2">  1        2 0.28000941E+00 0.19220009E+03</pdfrwt>
<pdfrwt beam="1">  1       -2 0.38465763E-02 0.19220009E+03</pdfrwt>
<totfact> 0.26965345E+03</totfact>
</mgrwt>
</event>
<event>
 4    1  0.8130725E-001  0.2148623E+03  0.7546771E-02  0.1137772E+00
          1   -1    0    0  502    0  0.00000000000E+00  0.00000000000E+00  0.25706722441E+03  0.25706722441E+03  0.00000000000E+00 0.  1.
         -1   -1    0    0    0  501 -0.00000000000E+00 -0.00000000000E+00 -0.19252240731E+03  0.19252240731E+03  0.00000000000E+00 0. -1.
          6    1    1    2  502    0 -0.80745873208E+02 -0.98574463199E+02  0.90542129582E+02  0.23316024117E+03  0.17300000000E+03 0.  1.
         -6    1    1    2    0  501  0.80745873208E+02  0.98574463199E+02 -0.25997312491E+02  0.21642939055E+03  0.17300000000E+03 0. -1.
<mgrwt>
<rscale>  2 0.21486233E+03</rscale>
<asrwt>0</asrwt>
<pdfrwt beam="1">  1        1 0.39548804E-01 0.21486233E+03</pdfrwt>
<pdfrwt beam="2">  1       -1 0.29618832E-01 0.21486233E+03</pdfrwt>
<totfact> 0.11108509E+03</totfact>
</mgrwt>
</event>
<event>
 4    1  0.8130725E-001  0.2369569E+03  0.7546771E-02  0.1121837E+00
         -1   -1    0    0    0  501 -0.00000000000E+00  0.00000000000E+00  0.37068744139E+02  0.37068744139E+02  0.00000000000E+00 0.  1.
          1   -1    0    0  502    0  0.00000000000E+00 -0.00000000000E+00 -0.15166022431E+04  0.15166022431E+04  0.00000000000E+00 0. -1.
          6    1    1    2  502    0  0.15930482623E+03 -0.29009706382E+02 -0.76716876257E+03  0.80292994775E+03  0.17300000000E+03 0.  1.
         -6    1    1    2    0  501 -0.15930482623E+03  0.29009706382E+02 -0.71236473637E+03  0.75074103947E+03  0.17300000000E+03 0. -1.
<mgrwt>
<rscale>  2 0.23695694E+03</rscale>
<asrwt>0</asrwt>
<pdfrwt beam="2">  1        1 0.23332341E+00 0.23695694E+03</pdfrwt>
<pdfrwt beam="1">  1       -1 0.57028839E-02 0.23695694E+03</pdfrwt>
<totfact> 0.10095843E+03</totfact>
</mgrwt>
</event>
<event>
 4    1  0.8130725E-001  0.2183772E+03  0.7546771E-02  0.1135099E+00
         -2   -1    0    0    0  501 -0.00000000000E+00  0.00000000000E+00  0.47775427137E+02  0.47775427137E+02  0.00000000000E+00 0.  1.
          2   -1    0    0  502    0  0.00000000000E+00 -0.00000000000E+00 -0.10865171282E+04  0.10865171282E+04  0.00000000000E+00 0. -1.
          6    1    1    2  502    0  0.13315913445E+03 -0.53160079594E+01 -0.35765921299E+03  0.41905695039E+03  0.17300000000E+03 0.  1.
         -6    1    1    2    0  501 -0.13315913445E+03  0.53160079594E+01 -0.68108248803E+03  0.71523560491E+03  0.17300000000E+03 0. -1.
<mgrwt>
<rscale>  2 0.21837723E+03</rscale>
<asrwt>0</asrwt>
<pdfrwt beam="2">  1        2 0.16715647E+00 0.21837723E+03</pdfrwt>
<pdfrwt beam="1">  1       -2 0.73500661E-02 0.21837723E+03</pdfrwt>
<totfact> 0.25052788E+03</totfact>
</mgrwt>
</event>
<event>
 4    1  0.8130725E-001  0.1904758E+03  0.7546771E-02  0.1158033E+00
         -1   -1    0    0    0  501 -0.00000000000E+00  0.00000000000E+00  0.42457704868E+03  0.42457704868E+03  0.00000000000E+00 0. -1.
          1   -1    0    0  502    0  0.00000000000E+00 -0.00000000000E+00 -0.12128583970E+03  0.12128583970E+03  0.00000000000E+00 0.  1.
          6    1    1    2  502    0  0.75170396707E+02 -0.26484684000E+02  0.32933293351E+01  0.19050425992E+03  0.17300000000E+03 0.  1.
         -6    1    1    2    0  501 -0.75170396707E+02  0.26484684000E+02  0.29999787965E+03  0.35535862846E+03  0.17300000000E+03 0. -1.
<mgrwt>
<rscale>  2 0.19047579E+03</rscale>
<asrwt>0</asrwt>
<pdfrwt beam="2">  1        1 0.18659360E-01 0.19047579E+03</pdfrwt>
<pdfrwt beam="1">  1       -1 0.65319545E-01 0.19047579E+03</pdfrwt>
<totfact> 0.68762103E+02</totfact>
</mgrwt>
</event>
<event>
 4    1  0.8130725E-001  0.2200763E+03  0.7546771E-02  0.1133826E+00
          2   -1    0    0  502    0  0.00000000000E+00  0.00000000000E+00  0.91744116474E+03  0.91744116474E+03  0.00000000000E+00 0. -1.
         -2   -1    0    0    0  501 -0.00000000000E+00 -0.00000000000E+00 -0.57922193068E+02  0.57922193068E+02  0.00000000000E+00 0.  1.
          6    1    1    2  502    0  0.94944599834E+02 -0.97417115172E+02  0.28462186684E+03  0.35978212636E+03  0.17300000000E+03 0.  1.
         -6    1    1    2    0  501 -0.94944599834E+02  0.97417115172E+02  0.57489710483E+03  0.61558123144E+03  0.17300000000E+03 0. -1.
<mgrwt>
<rscale>  2 0.22007629E+03</rscale>
<asrwt>0</asrwt>
<pdfrwt beam="1">  1        2 0.14114478E+00 0.22007629E+03</pdfrwt>
<pdfrwt beam="2">  1       -2 0.89111073E-02 0.22007629E+03</pdfrwt>
<totfact> 0.23512332E+03</totfact>
</mgrwt>
</event>
<event>
 4    1  0.8130725E-001  0.1764685E+03  0.7546771E-02  0.1171265E+00
         -2   -1    0    0    0  501 -0.00000000000E+00  0.00000000000E+00  0.13228354617E+03  0.13228354617E+03  0.00000000000E+00 0. -1.
          2   -1    0    0  502    0  0.00000000000E+00 -0.00000000000E+00 -0.30516457773E+03  0.30516457773E+03  0.00000000000E+00 0.  1.
          6    1    1    2  502    0  0.34164262048E+02  0.67031540010E+01 -0.19101115261E+03  0.26005074408E+03  0.17300000000E+03 0.  1.
         -6    1    1    2    0  501 -0.34164262048E+02 -0.67031540010E+01  0.18130121056E+02  0.17739737981E+03  0.17300000000E+03 0. -1.
<mgrwt>
<rscale>  2 0.17646849E+03</rscale>
<asrwt>0</asrwt>
<pdfrwt beam="2">  1        2 0.46948396E-01 0.17646849E+03</pdfrwt>
<pdfrwt beam="1">  1       -2 0.20351315E-01 0.17646849E+03</pdfrwt>
<totfact> 0.21551996E+03</totfact>
</mgrwt>
</event>
<event>
 4    1  0.8130725E-001  0.2180923E+03  0.7546771E-02  0.1135313E+00
         -2   -1    0    0    0  501 -0.00000000000E+00  0.00000000000E+00  0.34261769718E+03  0.34261769718E+03  0.00000000000E+00 0.  1.
          2   -1    0    0  502    0  0.00000000000E+00 -0.00000000000E+00 -0.14960527558E+03  0.14960527558E+03  0.00000000000E+00 0. -1.
          6    1    1    2  502    0  0.11558438906E+03 -0.65387154762E+02  0.16256855890E+03  0.27201611597E+03  0.17300000000E+03 0.  1.
         -6    1    1    2    0  501 -0.11558438906E+03  0.65387154762E+02  0.30443862698E+02  0.22020685679E+03  0.17300000000E+03 0. -1.
<mgrwt>
<rscale>  2 0.21809225E+03</rscale>
<asrwt>0</asrwt>
<pdfrwt beam="2">  1        2 0.23016196E-01 0.21809225E+03</pdfrwt>
<pdfrwt beam="1">  1       -2 0.52710415E-01 0.21809225E+03</pdfrwt>
<totfact> 0.81373943E+02</totfact>
</mgrwt>
</event>
<event>
 4    1  0.8130725E-001  0.1753654E+03  0.7546771E-02  0.1172365E+00
         -2   -1    0    0    0  501 -0.00000000000E+00  0.00000000000E+00  0.29333807642E+02  0.29333807642E+02  0.00000000000E+00 0.  1.
          2   -1    0    0  502    0  0.00000000000E+00 -0.00000000000E+00 -0.11717901459E+04  0.11717901459E+04  0.00000000000E+00 0. -1.
          6    1    1    2  502    0 -0.23604183999E+02  0.16335905957E+02 -0.76612546828E+03  0.78593972572E+03  0.17300000000E+03 0. -1.
         -6    1    1    2    0  501  0.23604183999E+02 -0.16335905957E+02 -0.37633086993E+03  0.41518422777E+03  0.17300000000E+03 0.  1.
<mgrwt>
<rscale>  2 0.17536539E+03</rscale>
<asrwt>0</asrwt>
<pdfrwt beam="2">  1        2 0.18027538E+00 0.17536539E+03</pdfrwt>
<pdfrwt beam="1">  1       -2 0.45128943E-02 0.17536539E+03</pdfrwt>
<totfact> 0.46930082E+03</totfact>
</mgrwt>
</event>
<event>
 4    1  0.8130725E-001  0.1843491E+03  0.7546771E-02  0.1163659E+00
         -2   -1    0    0    0  501 -0.00000000000E+00  0.00000000000E+00  0.22309396214E+03  0.22309396214E+03  0.00000000000E+00 0.  1.
          2   -1    0    0  502    0  0.00000000000E+00 -0.00000000000E+00 -0.17915427930E+03  0.17915427930E+03  0.00000000000E+00 0. -1.
          6    1    1    2  502    0 -0.56254895532E+02  0.29849118075E+02  0.99789608308E+02  0.20962478157E+03  0.17300000000E+03 0.  1.
         -6    1    1    2    0  501  0.56254895532E+02 -0.29849118075E+02 -0.55849925465E+02  0.19262345988E+03  0.17300000000E+03 0. -1.
<mgrwt>
<rscale>  2 0.18434908E+03</rscale>
<asrwt>0</asrwt>
<pdfrwt beam="2">  1        2 0.27562197E-01 0.18434908E+03</pdfrwt>
<pdfrwt beam="1">  1       -2 0.34322148E-01 0.18434908E+03</pdfrwt>
<totfact> 0.15178869E+03</totfact>
</mgrwt>
</event>
<event>
 4    1  0.8130725E-001  0.2816975E+03  0.7546771E-02  0.1094765E+00
          2   -1    0    0  502    0  0.00000000000E+00  0.00000000000E+00  0.14283558468E+03  0.14283558468E+03  0.00000000000E+00 0.  1.
         -2   -1    0    0    0  501 -0.00000000000E+00 -0.00000000000E+00 -0.62223844622E+03  0.62223844622E+03  0.00000000000E+00 0. -1.
          6    1    1    2  502    0  0.12043688681E+03 -0.18686740691E+03 -0.11447562241E+03  0.30406930065E+03  0.17300000000E+03 0.  1.
         -6    1    1    2    0  501 -0.12043688681E+03  0.18686740691E+03 -0.36492723912E+03  0.46100473026E+03  0.17300000000E+03 0. -1.
<mgrwt>
<rscale>  2 0.28169748E+03</rscale>
<asrwt>0</asrwt>
<pdfrwt beam="1">  1        2 0.21974706E-01 0.28169748E+03</pdfrwt>
<pdfrwt beam="2">  1       -2 0.95728991E-01 0.28169748E+03</pdfrwt>
<totfact> 0.23736772E+02</totfact>
</mgrwt>
</event>
<event>
 4    1  0.8130725E-001  0.2420576E+03  0.7546771E-02  0.1118430E+00
         -4   -1    0    0    0  501 -0.00000000000E+00  0.00000000000E+00  0.11583172025E+03  0.11583172025E+03  0.00000000000E+00 0.  1.
          4   -1    0    0  502    0  0.00000000000E+00 -0.00000000000E+00 -0.51417066050E+03  0.51417066050E+03  0.00000000000E+00 0. -1.
          6    1    1    2  502    0 -0.74239662575E+02  0.15215565488E+03 -0.23927448991E+03  0.34035885817E+03  0.17300000000E+03 0. -1.
         -6    1    1    2    0  501  0.74239662575E+02 -0.15215565488E+03 -0.15906445033E+03  0.28964352258E+03  0.17300000000E+03 0.  1.
<mgrwt>
<rscale>  2 0.24205758E+03</rscale>
<asrwt>0</asrwt>
<pdfrwt beam="2">  1        4 0.79103177E-01 0.24205758E+03</pdfrwt>
<pdfrwt beam="1">  1       -4 0.17820265E-01 0.24205758E+03</pdfrwt>
<totfact> 0.73595491E+01</totfact>
</mgrwt>
</event>
<event>
 4    1  0.8130725E-001  0.1877438E+03  0.7546771E-02  0.1160512E+00
         -1   -1    0    0    0  501 -0.00000000000E+00  0.00000000000E+00  0.53645016167E+02  0.53645016167E+02  0.00000000000E+00 0.  1.
          1   -1    0    0  502    0  0.00000000000E+00 -0.00000000000E+00 -0.67403774024E+03  0.67403774024E+03  0.00000000000E+00 0. -1.
          6    1    1    2  502    0  0.84322608757E+00  0.72924868500E+02 -0.25244413063E+03  0.31460417443E+03  0.17300000000E+03 0.  1.
         -6    1    1    2    0  501 -0.84322608757E+00 -0.72924868500E+02 -0.36794859344E+03  0.41307858198E+03  0.17300000000E+03 0. -1.
<mgrwt>
<rscale>  2 0.18774383E+03</rscale>
<asrwt>0</asrwt>
<pdfrwt beam="2">  1        1 0.10369811E+00 0.18774383E+03</pdfrwt>
<pdfrwt beam="1">  1       -1 0.82530794E-02 0.18774383E+03</pdfrwt>
<totfact> 0.24219116E+03</totfact>
</mgrwt>
</event>
<event>
 4    1  0.8130725E-001  0.2500119E+03  0.7546771E-02  0.1113297E+00
          1   -1    0    0  502    0  0.00000000000E+00  0.00000000000E+00  0.13039422211E+04  0.13039422211E+04  0.00000000000E+00 0. -1.
         -1   -1    0    0    0  501 -0.00000000000E+00 -0.00000000000E+00 -0.72193705502E+02  0.72193705502E+02  0.00000000000E+00 0.  1.
          6    1    1    2  502    0 -0.57248419171E+02 -0.17117112578E+03  0.21702809182E+03  0.33106967309E+03  0.17300000000E+03 0.  1.
         -6    1    1    2    0  501  0.57248419171E+02  0.17117112578E+03  0.10147204238E+04  0.10450662535E+04  0.17300000000E+03 0. -1.
<mgrwt>
<rscale>  2 0.25001187E+03</rscale>
<asrwt>0</asrwt>
<pdfrwt beam="1">  1        1 0.20060648E+00 0.25001187E+03</pdfrwt>
<pdfrwt beam="2">  1       -1 0.11106725E-01 0.25001187E+03</pdfrwt>
<totfact> 0.50461412E+02</totfact>
</mgrwt>
</event>
<event>
 4    1  0.8130725E-001  0.2230733E+03  0.7546771E-02  0.1131612E+00
         -2   -1    0    0    0  501 -0.00000000000E+00  0.00000000000E+00  0.28318561146E+02  0.28318561146E+02  0.00000000000E+00 0.  1.
          2   -1    0    0  502    0  0.00000000000E+00 -0.00000000000E+00 -0.17583299304E+04  0.17583299304E+04  0.00000000000E+00 0. -1.
          6    1    1    2  502    0  0.13987439043E+03  0.16365737328E+02 -0.84246886519E+03  0.87150184812E+03  0.17300000000E+03 0.  1.
         -6    1    1    2    0  501 -0.13987439043E+03 -0.16365737328E+02 -0.88754250402E+03  0.91514664339E+03  0.17300000000E+03 0.  1.
<mgrwt>
<rscale>  2 0.22307327E+03</rscale>
<asrwt>0</asrwt>
<pdfrwt beam="2">  1        2 0.27051233E+00 0.22307327E+03</pdfrwt>
<pdfrwt beam="1">  1       -2 0.43567011E-02 0.22307327E+03</pdfrwt>
<totfact> 0.24062857E+03</totfact>
</mgrwt>
</event>
<event>
 4    1  0.8130725E-001  0.3030635E+03  0.7546771E-02  0.1083719E+00
         -2   -1    0    0    0  501 -0.00000000000E+00  0.00000000000E+00  0.13880111606E+03  0.13880111606E+03  0.00000000000E+00 0.  1.
          2   -1    0    0  502    0  0.00000000000E+00 -0.00000000000E+00 -0.80691267408E+03  0.80691267408E+03  0.00000000000E+00 0. -1.
          6    1    1    2  502    0 -0.15989990024E+02 -0.24831993325E+03 -0.13347520547E+03  0.33115419295E+03  0.17300000000E+03 0.  1.
         -6    1    1    2    0  501  0.15989990024E+02  0.24831993325E+03 -0.53463635255E+03  0.61455959719E+03  0.17300000000E+03 0. -1.
<mgrwt>
<rscale>  2 0.30306347E+03</rscale>
<asrwt>0</asrwt>
<pdfrwt beam="2">  1        2 0.12414041E+00 0.30306347E+03</pdfrwt>
<pdfrwt beam="1">  1       -2 0.21354018E-01 0.30306347E+03</pdfrwt>
<totfact> 0.65995037E+02</totfact>
</mgrwt>
</event>
<event>
 4    1  0.8130725E-001  0.1731820E+03  0.7546771E-02  0.1174570E+00
          2   -1    0    0  502    0  0.00000000000E+00  0.00000000000E+00  0.25330575703E+03  0.25330575703E+03  0.00000000000E+00 0.  1.
         -2   -1    0    0    0  501 -0.00000000000E+00 -0.00000000000E+00 -0.14683461699E+03  0.14683461699E+03  0.00000000000E+00 0. -1.
          6    1    1    2  502    0 -0.27342582610E+01  0.74509432742E+01  0.14127435110E+03  0.22349593957E+03  0.17300000000E+03 0.  1.
         -6    1    1    2    0  501  0.27342582610E+01 -0.74509432742E+01 -0.34803211061E+02  0.17664443446E+03  0.17300000000E+03 0. -1.
<mgrwt>
<rscale>  2 0.17318196E+03</rscale>
<asrwt>0</asrwt>
<pdfrwt beam="1">  1        2 0.38970116E-01 0.17318196E+03</pdfrwt>
<pdfrwt beam="2">  1       -2 0.22589941E-01 0.17318196E+03</pdfrwt>
<totfact> 0.21970813E+03</totfact>
</mgrwt>
</event>
<event>
 4    1  0.8130725E-001  0.2567864E+03  0.7546771E-02  0.1109090E+00
          2   -1    0    0  502    0  0.00000000000E+00  0.00000000000E+00  0.13575740587E+04  0.13575740587E+04  0.00000000000E+00 0. -1.
         -2   -1    0    0    0  501 -0.00000000000E+00 -0.00000000000E+00 -0.66936894099E+02  0.66936894099E+02  0.00000000000E+00 0.  1.
          6    1    1    2  502    0  0.16272476455E+03 -0.97626310652E+02  0.27223635299E+03  0.37423505637E+03  0.17300000000E+03 0.  1.
         -6    1    1    2    0  501 -0.16272476455E+03  0.97626310652E+02  0.10184008116E+04  0.10502758964E+04  0.17300000000E+03 0. -1.
<mgrwt>
<rscale>  2 0.25678638E+03</rscale>
<asrwt>0</asrwt>
<pdfrwt beam="1">  1        2 0.20885753E+00 0.25678638E+03</pdfrwt>
<pdfrwt beam="2">  1       -2 0.10297985E-01 0.25678638E+03</pdfrwt>
<totfact> 0.10349756E+03</totfact>
</mgrwt>
</event>
<event>
 4    1  0.8130725E-001  0.1756711E+03  0.7546771E-02  0.1172060E+00
          2   -1    0    0  502    0  0.00000000000E+00  0.00000000000E+00  0.23286051949E+04  0.23286051949E+04  0.00000000000E+00 0. -1.
         -2   -1    0    0    0  501 -0.00000000000E+00 -0.00000000000E+00 -0.13723107591E+02  0.13723107591E+02  0.00000000000E+00 0.  1.
          6    1    1    2  502    0  0.32207700084E+01  0.30347275191E+02  0.13742732851E+04  0.13854556624E+04  0.17300000000E+03 0. -1.
         -6    1    1    2    0  501 -0.32207700084E+01 -0.30347275191E+02  0.94060880228E+03  0.95687264012E+03  0.17300000000E+03 0.  1.
<mgrwt>
<rscale>  2 0.17567109E+03</rscale>
<asrwt>0</asrwt>
<pdfrwt beam="1">  1        2 0.35824664E+00 0.17567109E+03</pdfrwt>
<pdfrwt beam="2">  1       -2 0.21112492E-02 0.17567109E+03</pdfrwt>
<totfact> 0.35573252E+03</totfact>
</mgrwt>
</event>
<event>
 4    1  0.8130725E-001  0.1779333E+03  0.7546771E-02  0.1169818E+00
         -2   -1    0    0    0  501 -0.00000000000E+00  0.00000000000E+00  0.16692857947E+02  0.16692857947E+02  0.00000000000E+00 0. -1.
          2   -1    0    0  502    0  0.00000000000E+00 -0.00000000000E+00 -0.19772699383E+04  0.19772699383E+04  0.00000000000E+00 0.  1.
          6    1    1    2  502    0  0.40675482301E+02 -0.87612594232E+01 -0.11816221891E+04  0.11949440373E+04  0.17300000000E+03 0. -1.
         -6    1    1    2    0  501 -0.40675482301E+02  0.87612594232E+01 -0.77895489121E+03  0.79901875890E+03  0.17300000000E+03 0. -1.
<mgrwt>
<rscale>  2 0.17793329E+03</rscale>
<asrwt>0</asrwt>
<pdfrwt beam="2">  1        2 0.30419519E+00 0.17793329E+03</pdfrwt>
<pdfrwt beam="1">  1       -2 0.25681335E-02 0.17793329E+03</pdfrwt>
<totfact> 0.40713321E+03</totfact>
</mgrwt>
</event>
<event>
 4    1  0.8130725E-001  0.1797873E+03  0.7546771E-02  0.1168009E+00
          1   -1    0    0  502    0  0.00000000000E+00  0.00000000000E+00  0.83788644797E+03  0.83788644797E+03  0.00000000000E+00 0.  1.
         -1   -1    0    0    0  501 -0.00000000000E+00 -0.00000000000E+00 -0.11060906160E+03  0.11060906160E+03  0.00000000000E+00 0. -1.
          6    1    1    2  502    0  0.48490902080E+02  0.65646844290E+01 -0.19072981663E+02  0.18079613186E+03  0.17300000000E+03 0. -1.
         -6    1    1    2    0  501 -0.48490902080E+02 -0.65646844290E+01  0.74635036804E+03  0.76769937771E+03  0.17300000000E+03 0.  1.
<mgrwt>
<rscale>  2 0.17978727E+03</rscale>
<asrwt>0</asrwt>
<pdfrwt beam="1">  1        1 0.12890560E+00 0.17978727E+03</pdfrwt>
<pdfrwt beam="2">  1       -1 0.17016779E-01 0.17978727E+03</pdfrwt>
<totfact> 0.56868320E+02</totfact>
</mgrwt>
</event>
<event>
 4    1  0.8130725E-001  0.2065647E+03  0.7546771E-02  0.1144316E+00
         -2   -1    0    0    0  501 -0.00000000000E+00  0.00000000000E+00  0.90273624368E+02  0.90273624368E+02  0.00000000000E+00 0.  1.
          2   -1    0    0  502    0  0.00000000000E+00 -0.00000000000E+00 -0.92681591177E+03  0.92681591177E+03  0.00000000000E+00 0. -1.
          6    1    1    2  502    0 -0.38106941593E+02 -0.10624424133E+03 -0.62284560432E+02  0.21575065303E+03  0.17300000000E+03 0.  1.
         -6    1    1    2    0  501  0.38106941593E+02  0.10624424133E+03 -0.77425772697E+03  0.80133888311E+03  0.17300000000E+03 0. -1.
<mgrwt>
<rscale>  2 0.20656471E+03</rscale>
<asrwt>0</asrwt>
<pdfrwt beam="2">  1        2 0.14258706E+00 0.20656471E+03</pdfrwt>
<pdfrwt beam="1">  1       -2 0.13888251E-01 0.20656471E+03</pdfrwt>
<totfact> 0.11381067E+03</totfact>
</mgrwt>
</event>
<event>
 4    1  0.8130725E-001  0.2134261E+03  0.7546771E-02  0.1138881E+00
          2   -1    0    0  502    0  0.00000000000E+00  0.00000000000E+00  0.10914911349E+04  0.10914911349E+04  0.00000000000E+00 0. -1.
         -2   -1    0    0    0  501 -0.00000000000E+00 -0.00000000000E+00 -0.51632529725E+02  0.51632529725E+02  0.00000000000E+00 0.  1.
          6    1    1    2  502    0 -0.30236666884E+02  0.12127417573E+03  0.77020530296E+03  0.79922893493E+03  0.17300000000E+03 0. -1.
         -6    1    1    2    0  501  0.30236666884E+02 -0.12127417573E+03  0.26965330226E+03  0.34389472974E+03  0.17300000000E+03 0.  1.
<mgrwt>
<rscale>  2 0.21342606E+03</rscale>
<asrwt>0</asrwt>
<pdfrwt beam="1">  1        2 0.16792170E+00 0.21342606E+03</pdfrwt>
<pdfrwt beam="2">  1       -2 0.79434670E-02 0.21342606E+03</pdfrwt>
<totfact> 0.22047628E+03</totfact>
</mgrwt>
</event>
<event>
 4    1  0.8130725E-001  0.1916538E+03  0.7546771E-02  0.1156978E+00
         -1   -1    0    0    0  501 -0.00000000000E+00  0.00000000000E+00  0.31696796333E+03  0.31696796333E+03  0.00000000000E+00 0. -1.
          1   -1    0    0  502    0  0.00000000000E+00 -0.00000000000E+00 -0.11686143103E+03  0.11686143103E+03  0.00000000000E+00 0.  1.
          6    1    1    2  502    0 -0.23748937060E+02 -0.78981964922E+02  0.11990248785E+03  0.22607027533E+03  0.17300000000E+03 0. -1.
         -6    1    1    2    0  501  0.23748937060E+02  0.78981964922E+02  0.80204044454E+02  0.20775911903E+03  0.17300000000E+03 0. -1.
<mgrwt>
<rscale>  2 0.19165376E+03</rscale>
<asrwt>0</asrwt>
<pdfrwt beam="2">  1        1 0.17978682E-01 0.19165376E+03</pdfrwt>
<pdfrwt beam="1">  1       -1 0.48764302E-01 0.19165376E+03</pdfrwt>
<totfact> 0.12535221E+03</totfact>
</mgrwt>
</event>
<event>
 4    1  0.8130725E-001  0.1870512E+03  0.7546771E-02  0.1161148E+00
         -2   -1    0    0    0  501 -0.00000000000E+00  0.00000000000E+00  0.38094677532E+02  0.38094677532E+02  0.00000000000E+00 0.  1.
          2   -1    0    0  502    0  0.00000000000E+00 -0.00000000000E+00 -0.92168951128E+03  0.92168951128E+03  0.00000000000E+00 0. -1.
          6    1    1    2  502    0  0.42551497743E+02 -0.56995878436E+02 -0.47023605255E+03  0.50607322122E+03  0.17300000000E+03 0.  1.
         -6    1    1    2    0  501 -0.42551497743E+02  0.56995878436E+02 -0.41335878119E+03  0.45371096759E+03  0.17300000000E+03 0. -1.
<mgrwt>
<rscale>  2 0.18705122E+03</rscale>
<asrwt>0</asrwt>
<pdfrwt beam="2">  1        2 0.14179839E+00 0.18705122E+03</pdfrwt>
<pdfrwt beam="1">  1       -2 0.58607195E-02 0.18705122E+03</pdfrwt>
<totfact> 0.44560890E+03</totfact>
</mgrwt>
</event>
<event>
 4    1  0.8130725E-001  0.2122751E+03  0.7546771E-02  0.1139777E+00
         -1   -1    0    0    0  501 -0.00000000000E+00  0.00000000000E+00  0.49414555717E+02  0.49414555717E+02  0.00000000000E+00 0.  1.
          1   -1    0    0  502    0  0.00000000000E+00 -0.00000000000E+00 -0.91194588382E+03  0.91194588382E+03  0.00000000000E+00 0. -1.
          6    1    1    2  502    0  0.11823854342E+03 -0.33931835561E+02 -0.42756009085E+03  0.47735558435E+03  0.17300000000E+03 0. -1.
         -6    1    1    2    0  501 -0.11823854342E+03  0.33931835561E+02 -0.43497123725E+03  0.48400485520E+03  0.17300000000E+03 0. -1.
<mgrwt>
<rscale>  2 0.21227511E+03</rscale>
<asrwt>0</asrwt>
<pdfrwt beam="2">  1        1 0.14029935E+00 0.21227511E+03</pdfrwt>
<pdfrwt beam="1">  1       -1 0.76022400E-02 0.21227511E+03</pdfrwt>
<totfact> 0.17368972E+03</totfact>
</mgrwt>
</event>
<event>
 4    1  0.8130725E-001  0.2650221E+03  0.7546771E-02  0.1104163E+00
         -2   -1    0    0    0  501 -0.00000000000E+00  0.00000000000E+00  0.33336028366E+03  0.33336028366E+03  0.00000000000E+00 0.  1.
          2   -1    0    0  502    0  0.00000000000E+00 -0.00000000000E+00 -0.32280818056E+03  0.32280818056E+03  0.00000000000E+00 0. -1.
          6    1    1    2  502    0  0.15505829330E+03 -0.12753288012E+03  0.19862647132E+03  0.33119357624E+03  0.17300000000E+03 0.  1.
         -6    1    1    2    0  501 -0.15505829330E+03  0.12753288012E+03 -0.18807436822E+03  0.32497488798E+03  0.17300000000E+03 0. -1.
<mgrwt>
<rscale>  2 0.26502209E+03</rscale>
<asrwt>0</asrwt>
<pdfrwt beam="2">  1        2 0.49662797E-01 0.26502209E+03</pdfrwt>
<pdfrwt beam="1">  1       -2 0.51286198E-01 0.26502209E+03</pdfrwt>
<totfact> 0.37055101E+02</totfact>
</mgrwt>
</event>
<event>
 4    1  0.8130725E-001  0.1808227E+03  0.7546771E-02  0.1167009E+00
         -1   -1    0    0    0  501 -0.00000000000E+00  0.00000000000E+00  0.79354820220E+03  0.79354820220E+03  0.00000000000E+00 0.  1.
          1   -1    0    0  502    0  0.00000000000E+00 -0.00000000000E+00 -0.49878367221E+02  0.49878367221E+02  0.00000000000E+00 0. -1.
          6    1    1    2  502    0 -0.49664285826E+02 -0.17358180454E+02  0.54770672770E+03  0.57678376129E+03  0.17300000000E+03 0.  1.
         -6    1    1    2    0  501  0.49664285826E+02  0.17358180454E+02  0.19596310727E+03  0.26664280813E+03  0.17300000000E+03 0. -1.
<mgrwt>
<rscale>  2 0.18082270E+03</rscale>
<asrwt>0</asrwt>
<pdfrwt beam="2">  1        1 0.76735955E-02 0.18082270E+03</pdfrwt>
<pdfrwt beam="1">  1       -1 0.12208433E+00 0.18082270E+03</pdfrwt>
<totfact> 0.58249803E+02</totfact>
</mgrwt>
</event>
<event>
 4    1  0.8130725E-001  0.1827189E+03  0.7546771E-02  0.1165197E+00
          1   -1    0    0  502    0  0.00000000000E+00  0.00000000000E+00  0.10616307291E+03  0.10616307291E+03  0.00000000000E+00 0. -1.
         -1   -1    0    0    0  501 -0.00000000000E+00 -0.00000000000E+00 -0.40142975783E+03  0.40142975783E+03  0.00000000000E+00 0.  1.
          6    1    1    2  502    0 -0.58254061405E+02  0.79796779067E+01 -0.26575071206E+03  0.32250527421E+03  0.17300000000E+03 0. -1.
         -6    1    1    2    0  501  0.58254061405E+02 -0.79796779067E+01 -0.29515972861E+02  0.18508755653E+03  0.17300000000E+03 0. -1.
<mgrwt>
<rscale>  2 0.18271894E+03</rscale>
<asrwt>0</asrwt>
<pdfrwt beam="1">  1        1 0.16332781E-01 0.18271894E+03</pdfrwt>
<pdfrwt beam="2">  1       -1 0.61758424E-01 0.18271894E+03</pdfrwt>
<totfact> 0.91030871E+02</totfact>
</mgrwt>
</event>
<event>
 4    1  0.8130725E-001  0.2851147E+03  0.7546771E-02  0.1092928E+00
         -2   -1    0    0    0  501 -0.00000000000E+00  0.00000000000E+00  0.22247334773E+03  0.22247334773E+03  0.00000000000E+00 0. -1.
          2   -1    0    0  502    0  0.00000000000E+00 -0.00000000000E+00 -0.38147591930E+03  0.38147591930E+03  0.00000000000E+00 0.  1.
          6    1    1    2  502    0  0.12923035259E+03  0.18617439873E+03 -0.14150361454E+03  0.31829807366E+03  0.17300000000E+03 0.  1.
         -6    1    1    2    0  501 -0.12923035259E+03 -0.18617439873E+03 -0.17498957031E+02  0.28565119336E+03  0.17300000000E+03 0. -1.
<mgrwt>
<rscale>  2 0.28511470E+03</rscale>
<asrwt>0</asrwt>
<pdfrwt beam="2">  1        2 0.58688603E-01 0.28511470E+03</pdfrwt>
<pdfrwt beam="1">  1       -2 0.34226669E-01 0.28511470E+03</pdfrwt>
<totfact> 0.67605203E+02</totfact>
</mgrwt>
</event>
<event>
 4    1  0.8130725E-001  0.1741457E+03  0.7546771E-02  0.1173592E+00
         -2   -1    0    0    0  501 -0.00000000000E+00  0.00000000000E+00  0.22345967209E+02  0.22345967209E+02  0.00000000000E+00 0.  1.
          2   -1    0    0  502    0  0.00000000000E+00 -0.00000000000E+00 -0.14411167940E+04  0.14411167940E+04  0.00000000000E+00 0. -1.
          6    1    1    2  502    0 -0.88114004517E+01  0.17890785806E+02 -0.53275380579E+03  0.56049383455E+03  0.17300000000E+03 0.  1.
         -6    1    1    2    0  501  0.88114004517E+01 -0.17890785806E+02 -0.88601702104E+03  0.90296892669E+03  0.17300000000E+03 0. -1.
<mgrwt>
<rscale>  2 0.17414569E+03</rscale>
<asrwt>0</asrwt>
<pdfrwt beam="2">  1        2 0.22171025E+00 0.17414569E+03</pdfrwt>
<pdfrwt beam="1">  1       -2 0.34378415E-02 0.17414569E+03</pdfrwt>
<totfact> 0.50241879E+03</totfact>
</mgrwt>
</event>
<event>
 4    1  0.8130725E-001  0.2081273E+03  0.7546771E-02  0.1143058E+00
          2   -1    0    0  502    0  0.00000000000E+00  0.00000000000E+00  0.39451880250E+04  0.39451880250E+04  0.00000000000E+00 0. -1.
         -2   -1    0    0    0  501 -0.00000000000E+00 -0.00000000000E+00 -0.11000750517E+02  0.11000750517E+02  0.00000000000E+00 0.  1.
          6    1    1    2  502    0  0.11568738995E+03  0.20982036312E+01  0.20536270280E+04  0.20641465415E+04  0.17300000000E+03 0.  1.
         -6    1    1    2    0  501 -0.11568738995E+03 -0.20982036312E+01  0.18805602464E+04  0.18920422340E+04  0.17300000000E+03 0. -1.
<mgrwt>
<rscale>  2 0.20812730E+03</rscale>
<asrwt>0</asrwt>
<pdfrwt beam="1">  1        2 0.60695088E+00 0.20812730E+03</pdfrwt>
<pdfrwt beam="2">  1       -2 0.16924263E-02 0.20812730E+03</pdfrwt>
<totfact> 0.49714982E+02</totfact>
</mgrwt>
</event>
<event>
 4    1  0.8130725E-001  0.2304055E+03  0.7546771E-02  0.1126355E+00
          1   -1    0    0  502    0  0.00000000000E+00  0.00000000000E+00  0.15831561173E+04  0.15831561173E+04  0.00000000000E+00 0.  1.
         -1   -1    0    0    0  501 -0.00000000000E+00 -0.00000000000E+00 -0.34833398498E+02  0.34833398498E+02  0.00000000000E+00 0. -1.
          6    1    1    2  502    0 -0.12737403003E+03 -0.83268056024E+02  0.61780375064E+03  0.65936953750E+03  0.17300000000E+03 0. -1.
         -6    1    1    2    0  501  0.12737403003E+03  0.83268056024E+02  0.93051896814E+03  0.95861997827E+03  0.17300000000E+03 0.  1.
<mgrwt>
<rscale>  2 0.23040554E+03</rscale>
<asrwt>0</asrwt>
<pdfrwt beam="1">  1        1 0.24356242E+00 0.23040554E+03</pdfrwt>
<pdfrwt beam="2">  1       -1 0.53589856E-02 0.23040554E+03</pdfrwt>
<totfact> 0.10028855E+03</totfact>
</mgrwt>
</event>
<event>
 4    1  0.8130725E-001  0.1737864E+03  0.7546771E-02  0.1173956E+00
          2   -1    0    0  502    0  0.00000000000E+00  0.00000000000E+00  0.44205128608E+03  0.44205128608E+03  0.00000000000E+00 0. -1.
         -2   -1    0    0    0  501 -0.00000000000E+00 -0.00000000000E+00 -0.83394551801E+02  0.83394551801E+02  0.00000000000E+00 0.  1.
          6    1    1    2  502    0  0.16506194881E+02 -0.52387501854E+00  0.67635422191E+02  0.18648399194E+03  0.17300000000E+03 0.  1.
         -6    1    1    2    0  501 -0.16506194881E+02  0.52387501854E+00  0.29102131209E+03  0.33896184594E+03  0.17300000000E+03 0. -1.
<mgrwt>
<rscale>  2 0.17378645E+03</rscale>
<asrwt>0</asrwt>
<pdfrwt beam="1">  1        2 0.68007889E-01 0.17378645E+03</pdfrwt>
<pdfrwt beam="2">  1       -2 0.12829931E-01 0.17378645E+03</pdfrwt>
<totfact> 0.31087409E+03</totfact>
</mgrwt>
</event>
<event>
 4    1  0.8130725E-001  0.1811592E+03  0.7546771E-02  0.1166686E+00
          2   -1    0    0  502    0  0.00000000000E+00  0.00000000000E+00  0.28292715022E+03  0.28292715022E+03  0.00000000000E+00 0. -1.
         -2   -1    0    0    0  501 -0.00000000000E+00 -0.00000000000E+00 -0.12890833148E+03  0.12890833148E+03  0.00000000000E+00 0.  1.
          6    1    1    2  502    0  0.53252436267E+02  0.73360566309E+01  0.14217861240E+03  0.23028981202E+03  0.17300000000E+03 0. -1.
         -6    1    1    2    0  501 -0.53252436267E+02 -0.73360566309E+01  0.11840206337E+02  0.18154566969E+03  0.17300000000E+03 0.  1.
<mgrwt>
<rscale>  2 0.18115916E+03</rscale>
<asrwt>0</asrwt>
<pdfrwt beam="1">  1        2 0.43527254E-01 0.18115916E+03</pdfrwt>
<pdfrwt beam="2">  1       -2 0.19832051E-01 0.18115916E+03</pdfrwt>
<totfact> 0.24441680E+03</totfact>
</mgrwt>
</event>
<event>
 4    1  0.8130725E-001  0.1848813E+03  0.7546771E-02  0.1163161E+00
         -1   -1    0    0    0  501 -0.00000000000E+00  0.00000000000E+00  0.85721857309E+02  0.85721857309E+02  0.00000000000E+00 0. -1.
          1   -1    0    0  502    0  0.00000000000E+00 -0.00000000000E+00 -0.49183651515E+03  0.49183651515E+03  0.00000000000E+00 0.  1.
          6    1    1    2  502    0  0.39163650076E+02 -0.52137392100E+02 -0.32869279742E+03  0.37712074222E+03  0.17300000000E+03 0.  1.
         -6    1    1    2    0  501 -0.39163650076E+02  0.52137392100E+02 -0.77421860425E+02  0.20043763023E+03  0.17300000000E+03 0. -1.
<mgrwt>
<rscale>  2 0.18488131E+03</rscale>
<asrwt>0</asrwt>
<pdfrwt beam="2">  1        1 0.75667154E-01 0.18488131E+03</pdfrwt>
<pdfrwt beam="1">  1       -1 0.13187978E-01 0.18488131E+03</pdfrwt>
<totfact> 0.18062968E+03</totfact>
</mgrwt>
</event>
<event>
 4    1  0.8130725E-001  0.1976418E+03  0.7546771E-02  0.1151744E+00
          2   -1    0    0  502    0  0.00000000000E+00  0.00000000000E+00  0.46803930176E+03  0.46803930176E+03  0.00000000000E+00 0.  1.
         -2   -1    0    0    0  501 -0.00000000000E+00 -0.00000000000E+00 -0.83816531252E+02  0.83816531252E+02  0.00000000000E+00 0. -1.
          6    1    1    2  502    0 -0.54607407942E+02 -0.78430322032E+02  0.17410037459E+03  0.26338797400E+03  0.17300000000E+03 0.  1.
         -6    1    1    2    0  501  0.54607407942E+02  0.78430322032E+02  0.21012239592E+03  0.28846785901E+03  0.17300000000E+03 0.  1.
<mgrwt>
<rscale>  2 0.19764181E+03</rscale>
<asrwt>0</asrwt>
<pdfrwt beam="1">  1        2 0.72006045E-01 0.19764181E+03</pdfrwt>
<pdfrwt beam="2">  1       -2 0.12894851E-01 0.19764181E+03</pdfrwt>
<totfact> 0.29094644E+03</totfact>
</mgrwt>
</event>
<event>
 4    1  0.8130725E-001  0.2025838E+03  0.7546771E-02  0.1147577E+00
         -2   -1    0    0    0  501 -0.00000000000E+00  0.00000000000E+00  0.29791399459E+02  0.29791399459E+02  0.00000000000E+00 0. -1.
          2   -1    0    0  502    0  0.00000000000E+00 -0.00000000000E+00 -0.17085980849E+04  0.17085980849E+04  0.00000000000E+00 0.  1.
          6    1    1    2  502    0 -0.97494745519E+02 -0.40074617782E+02 -0.45682588635E+03  0.49973001794E+03  0.17300000000E+03 0. -1.
         -6    1    1    2    0  501  0.97494745519E+02  0.40074617782E+02 -0.12219807991E+04  0.12386594664E+04  0.17300000000E+03 0.  1.
<mgrwt>
<rscale>  2 0.20258381E+03</rscale>
<asrwt>0</asrwt>
<pdfrwt beam="2">  1        2 0.26286123E+00 0.20258381E+03</pdfrwt>
<pdfrwt beam="1">  1       -2 0.45832924E-02 0.20258381E+03</pdfrwt>
<totfact> 0.23673002E+03</totfact>
</mgrwt>
</event>
<event>
 4    1  0.8130725E-001  0.1815073E+03  0.7546771E-02  0.1166352E+00
         -1   -1    0    0    0  501 -0.00000000000E+00  0.00000000000E+00  0.43198720813E+02  0.43198720813E+02  0.00000000000E+00 0. -1.
          1   -1    0    0  502    0  0.00000000000E+00 -0.00000000000E+00 -0.85786426496E+03  0.85786426496E+03  0.00000000000E+00 0.  1.
          6    1    1    2  502    0  0.24672422316E+01  0.54861606855E+02 -0.25722621287E+03  0.31481773739E+03  0.17300000000E+03 0. -1.
         -6    1    1    2    0  501 -0.24672422316E+01 -0.54861606855E+02 -0.55743933127E+03  0.58624524837E+03  0.17300000000E+03 0.  1.
<mgrwt>
<rscale>  2 0.18150725E+03</rscale>
<asrwt>0</asrwt>
<pdfrwt beam="2">  1        1 0.13197911E+00 0.18150725E+03</pdfrwt>
<pdfrwt beam="1">  1       -1 0.66459576E-02 0.18150725E+03</pdfrwt>
<totfact> 0.23430339E+03</totfact>
</mgrwt>
</event>
<event>
 4    1  0.8130725E-001  0.1826667E+03  0.7546771E-02  0.1165247E+00
         -1   -1    0    0    0  501 -0.00000000000E+00  0.00000000000E+00  0.39613327138E+02  0.39613327138E+02  0.00000000000E+00 0. -1.
          1   -1    0    0  502    0  0.00000000000E+00 -0.00000000000E+00 -0.84665741386E+03  0.84665741386E+03  0.00000000000E+00 0.  1.
          6    1    1    2  502    0  0.42082641757E+02 -0.40831113227E+02 -0.43523662765E+03  0.47201488387E+03  0.17300000000E+03 0.  1.
         -6    1    1    2    0  501 -0.42082641757E+02  0.40831113227E+02 -0.37180745907E+03  0.41425585713E+03  0.17300000000E+03 0.  1.
<mgrwt>
<rscale>  2 0.18266671E+03</rscale>
<asrwt>0</asrwt>
<pdfrwt beam="2">  1        1 0.13025499E+00 0.18266671E+03</pdfrwt>
<pdfrwt beam="1">  1       -1 0.60943578E-02 0.18266671E+03</pdfrwt>
<totfact> 0.27251820E+03</totfact>
</mgrwt>
</event>
<event>
 4    1  0.8130725E-001  0.1756214E+03  0.7546771E-02  0.1172109E+00
          2   -1    0    0  502    0  0.00000000000E+00  0.00000000000E+00  0.85902214125E+03  0.85902214125E+03  0.00000000000E+00 0.  1.
         -2   -1    0    0    0  501 -0.00000000000E+00 -0.00000000000E+00 -0.40635720097E+02  0.40635720097E+02  0.00000000000E+00 0. -1.
          6    1    1    2  502    0 -0.34772639568E+01 -0.30029681226E+02  0.56268104573E+03  0.58945129768E+03  0.17300000000E+03 0.  1.
         -6    1    1    2    0  501  0.34772639568E+01  0.30029681226E+02  0.25570537543E+03  0.31020656367E+03  0.17300000000E+03 0. -1.
<mgrwt>
<rscale>  2 0.17562139E+03</rscale>
<asrwt>0</asrwt>
<pdfrwt beam="1">  1        2 0.13215724E+00 0.17562139E+03</pdfrwt>
<pdfrwt beam="2">  1       -2 0.62516499E-02 0.17562139E+03</pdfrwt>
<totfact> 0.44205656E+03</totfact>
</mgrwt>
</event>
<event>
 4    1  0.8130725E-001  0.1733167E+03  0.7546771E-02  0.1174433E+00
          1   -1    0    0  502    0  0.00000000000E+00  0.00000000000E+00  0.85611161112E+03  0.85611161112E+03  0.00000000000E+00 0. -1.
         -1   -1    0    0    0  501 -0.00000000000E+00 -0.00000000000E+00 -0.36981941820E+02  0.36981941820E+02  0.00000000000E+00 0.  1.
          6    1    1    2  502    0  0.98852620576E+01 -0.34591568118E+01  0.30849293937E+03  0.35384541514E+03  0.17300000000E+03 0.  1.
         -6    1    1    2    0  501 -0.98852620576E+01  0.34591568118E+01  0.51063672993E+03  0.53924813781E+03  0.17300000000E+03 0. -1.
<mgrwt>
<rscale>  2 0.17331672E+03</rscale>
<asrwt>0</asrwt>
<pdfrwt beam="1">  1        1 0.13170946E+00 0.17331672E+03</pdfrwt>
<pdfrwt beam="2">  1       -1 0.56895301E-02 0.17331672E+03</pdfrwt>
<totfact> 0.29650528E+03</totfact>
</mgrwt>
</event>
<event>
 4    1  0.8130725E-001  0.2622603E+03  0.7546771E-02  0.1105793E+00
         -1   -1    0    0    0  501 -0.00000000000E+00  0.00000000000E+00  0.98436708669E+03  0.98436708669E+03  0.00000000000E+00 0. -1.
          1   -1    0    0  502    0  0.00000000000E+00 -0.00000000000E+00 -0.70576068256E+02  0.70576068256E+02  0.00000000000E+00 0.  1.
          6    1    1    2  502    0  0.16430577005E+03 -0.10888109294E+03  0.40424134129E+03  0.48186257427E+03  0.17300000000E+03 0.  1.
         -6    1    1    2    0  501 -0.16430577005E+03  0.10888109294E+03  0.50954967715E+03  0.57308058068E+03  0.17300000000E+03 0. -1.
<mgrwt>
<rscale>  2 0.26226033E+03</rscale>
<asrwt>0</asrwt>
<pdfrwt beam="2">  1        1 0.10857857E-01 0.26226033E+03</pdfrwt>
<pdfrwt beam="1">  1       -1 0.15144108E+00 0.26226033E+03</pdfrwt>
<totfact> 0.21214499E+02</totfact>
</mgrwt>
</event>
<event>
 4    1  0.8130725E-001  0.1739348E+03  0.7546771E-02  0.1173806E+00
          2   -1    0    0  502    0  0.00000000000E+00  0.00000000000E+00  0.20259057779E+03  0.20259057779E+03  0.00000000000E+00 0. -1.
         -2   -1    0    0    0  501 -0.00000000000E+00 -0.00000000000E+00 -0.17287539441E+03  0.17287539441E+03  0.00000000000E+00 0.  1.
          6    1    1    2  502    0 -0.15049455990E+02 -0.98904638065E+01 -0.54422140877E+02  0.18225003928E+03  0.17300000000E+03 0.  1.
         -6    1    1    2    0  501  0.15049455990E+02  0.98904638065E+01  0.84137324255E+02  0.19321593292E+03  0.17300000000E+03 0. -1.
<mgrwt>
<rscale>  2 0.17393478E+03</rscale>
<asrwt>0</asrwt>
<pdfrwt beam="1">  1        2 0.31167781E-01 0.17393478E+03</pdfrwt>
<pdfrwt beam="2">  1       -2 0.26596215E-01 0.17393478E+03</pdfrwt>
<totfact> 0.21016485E+03</totfact>
</mgrwt>
</event>
<event>
 4    1  0.8130725E-001  0.1870670E+03  0.7546771E-02  0.1161134E+00
         -3   -1    0    0    0  501 -0.00000000000E+00  0.00000000000E+00  0.23984934075E+02  0.23984934075E+02  0.00000000000E+00 0. -1.
          3   -1    0    0  502    0  0.00000000000E+00 -0.00000000000E+00 -0.14898061212E+04  0.14898061212E+04  0.00000000000E+00 0.  1.
          6    1    1    2  502    0 -0.23142951830E+02 -0.67301256845E+02 -0.84174815992E+03  0.86228418756E+03  0.17300000000E+03 0.  1.
         -6    1    1    2    0  501  0.23142951830E+02  0.67301256845E+02 -0.62407302722E+03  0.65150686773E+03  0.17300000000E+03 0.  1.
<mgrwt>
<rscale>  2 0.18706698E+03</rscale>
<asrwt>0</asrwt>
<pdfrwt beam="2">  1        3 0.22920103E+00 0.18706698E+03</pdfrwt>
<pdfrwt beam="1">  1       -3 0.36899885E-02 0.18706698E+03</pdfrwt>
<totfact> 0.97630057E+01</totfact>
</mgrwt>
</event>
<event>
 4    1  0.8130725E-001  0.1976769E+03  0.7546771E-02  0.1151714E+00
          2   -1    0    0  502    0  0.00000000000E+00  0.00000000000E+00  0.19022533219E+03  0.19022533219E+03  0.00000000000E+00 0. -1.
         -2   -1    0    0    0  501 -0.00000000000E+00 -0.00000000000E+00 -0.20554915545E+03  0.20554915545E+03  0.00000000000E+00 0.  1.
          6    1    1    2  502    0 -0.44398494790E+02  0.84710759851E+02 -0.12617112209E+02  0.19807910211E+03  0.17300000000E+03 0. -1.
         -6    1    1    2    0  501  0.44398494790E+02 -0.84710759851E+02 -0.27067110451E+01  0.19769538553E+03  0.17300000000E+03 0. -1.
<mgrwt>
<rscale>  2 0.19767686E+03</rscale>
<asrwt>0</asrwt>
<pdfrwt beam="1">  1        2 0.29265436E-01 0.19767686E+03</pdfrwt>
<pdfrwt beam="2">  1       -2 0.31622947E-01 0.19767686E+03</pdfrwt>
<totfact> 0.16556926E+03</totfact>
</mgrwt>
</event>
<event>
 4    1  0.8130725E-001  0.2077092E+03  0.7546771E-02  0.1143393E+00
          1   -1    0    0  502    0  0.00000000000E+00  0.00000000000E+00  0.62869515688E+03  0.62869515688E+03  0.00000000000E+00 0. -1.
         -1   -1    0    0    0  501 -0.00000000000E+00 -0.00000000000E+00 -0.68673860504E+02  0.68673860504E+02  0.00000000000E+00 0.  1.
          6    1    1    2  502    0 -0.10803124588E+03 -0.39285581279E+02  0.28947614054E+03  0.35628576021E+03  0.17300000000E+03 0.  1.
         -6    1    1    2    0  501  0.10803124588E+03  0.39285581279E+02  0.27054515583E+03  0.34108325717E+03  0.17300000000E+03 0. -1.
<mgrwt>
<rscale>  2 0.20770919E+03</rscale>
<asrwt>0</asrwt>
<pdfrwt beam="1">  1        1 0.96722328E-01 0.20770919E+03</pdfrwt>
<pdfrwt beam="2">  1       -1 0.10565210E-01 0.20770919E+03</pdfrwt>
<totfact> 0.18330029E+03</totfact>
</mgrwt>
</event>
<event>
 4    1  0.8130725E-001  0.2628557E+03  0.7546771E-02  0.1105440E+00
         -2   -1    0    0    0  501 -0.00000000000E+00  0.00000000000E+00  0.17161561049E+03  0.17161561049E+03  0.00000000000E+00 0.  1.
          2   -1    0    0  502    0  0.00000000000E+00 -0.00000000000E+00 -0.50211825277E+03  0.50211825277E+03  0.00000000000E+00 0. -1.
          6    1    1    2  502    0 -0.15918483000E+02 -0.19725799361E+03 -0.31521919588E+03  0.41043422810E+03  0.17300000000E+03 0. -1.
         -6    1    1    2    0  501  0.15918483000E+02  0.19725799361E+03 -0.15283446404E+02  0.26329963517E+03  0.17300000000E+03 0.  1.
<mgrwt>
<rscale>  2 0.26285569E+03</rscale>
<asrwt>0</asrwt>
<pdfrwt beam="2">  1        2 0.77248961E-01 0.26285569E+03</pdfrwt>
<pdfrwt beam="1">  1       -2 0.26402402E-01 0.26285569E+03</pdfrwt>
<totfact> 0.80108577E+02</totfact>
</mgrwt>
</event>
<event>
 4    1  0.8130725E-001  0.1898093E+03  0.7546771E-02  0.1158633E+00
         -2   -1    0    0    0  501 -0.00000000000E+00  0.00000000000E+00  0.10283596752E+03  0.10283596752E+03  0.00000000000E+00 0. -1.
          2   -1    0    0  502    0  0.00000000000E+00 -0.00000000000E+00 -0.37276171036E+03  0.37276171036E+03  0.00000000000E+00 0.  1.
          6    1    1    2  502    0 -0.71925714619E+02  0.30417975966E+02 -0.76641514498E+02  0.20469851839E+03  0.17300000000E+03 0. -1.
         -6    1    1    2    0  501  0.71925714619E+02 -0.30417975966E+02 -0.19328422835E+03  0.27089915949E+03  0.17300000000E+03 0.  1.
<mgrwt>
<rscale>  2 0.18980928E+03</rscale>
<asrwt>0</asrwt>
<pdfrwt beam="2">  1        2 0.57347955E-01 0.18980928E+03</pdfrwt>
<pdfrwt beam="1">  1       -2 0.15820918E-01 0.18980928E+03</pdfrwt>
<totfact> 0.26616178E+03</totfact>
</mgrwt>
</event>
<event>
 4    1  0.8130725E-001  0.2571731E+03  0.7546771E-02  0.1108854E+00
         -2   -1    0    0    0  501 -0.00000000000E+00  0.00000000000E+00  0.42274823801E+03  0.42274823801E+03  0.00000000000E+00 0. -1.
          2   -1    0    0  502    0  0.00000000000E+00 -0.00000000000E+00 -0.18995787197E+04  0.18995787197E+04  0.00000000000E+00 0.  1.
          6    1    1    2  502    0 -0.18850639321E+03  0.25967970127E+02  0.37390472785E+03  0.45380914630E+03  0.17300000000E+03 0. -1.
         -6    1    1    2    0  501  0.18850639321E+03 -0.25967970127E+02 -0.18507352095E+04  0.18685178114E+04  0.17300000000E+03 0.  1.
<mgrwt>
<rscale>  2 0.25717309E+03</rscale>
<asrwt>0</asrwt>
<pdfrwt beam="2">  1        2 0.29224288E+00 0.25717309E+03</pdfrwt>
<pdfrwt beam="1">  1       -2 0.65038190E-01 0.25717309E+03</pdfrwt>
<totfact> 0.19153298E+01</totfact>
</mgrwt>
</event>
<event>
 4    1  0.8130725E-001  0.1763041E+03  0.7546771E-02  0.1171429E+00
          2   -1    0    0  502    0  0.00000000000E+00  0.00000000000E+00  0.75259424283E+02  0.75259424283E+02  0.00000000000E+00 0.  1.
         -2   -1    0    0    0  501 -0.00000000000E+00 -0.00000000000E+00 -0.53268742953E+03  0.53268742953E+03  0.00000000000E+00 0. -1.
          6    1    1    2  502    0  0.18449298357E+02 -0.28526532819E+02 -0.37279264858E+03  0.41238028386E+03  0.17300000000E+03 0. -1.
         -6    1    1    2    0  501 -0.18449298357E+02  0.28526532819E+02 -0.84635356672E+02  0.19556656995E+03  0.17300000000E+03 0.  1.
<mgrwt>
<rscale>  2 0.17630411E+03</rscale>
<asrwt>0</asrwt>
<pdfrwt beam="1">  1        2 0.11578373E-01 0.17630411E+03</pdfrwt>
<pdfrwt beam="2">  1       -2 0.81951912E-01 0.17630411E+03</pdfrwt>
<totfact> 0.71362255E+02</totfact>
</mgrwt>
</event>
<event>
 4    1  0.8130725E-001  0.2141417E+03  0.7546771E-02  0.1138328E+00
         -2   -1    0    0    0  501 -0.00000000000E+00  0.00000000000E+00  0.67465358903E+02  0.67465358903E+02  0.00000000000E+00 0. -1.
          2   -1    0    0  502    0  0.00000000000E+00 -0.00000000000E+00 -0.67970773214E+03  0.67970773214E+03  0.00000000000E+00 0.  1.
          6    1    1    2  502    0  0.95616295390E+02  0.82372335984E+02 -0.30650506602E+03  0.37390110080E+03  0.17300000000E+03 0. -1.
         -6    1    1    2    0  501 -0.95616295390E+02 -0.82372335984E+02 -0.30573730721E+03  0.37327199025E+03  0.17300000000E+03 0.  1.
<mgrwt>
<rscale>  2 0.21414172E+03</rscale>
<asrwt>0</asrwt>
<pdfrwt beam="2">  1        2 0.10457042E+00 0.21414172E+03</pdfrwt>
<pdfrwt beam="1">  1       -2 0.10379286E-01 0.21414172E+03</pdfrwt>
<totfact> 0.26973442E+03</totfact>
</mgrwt>
</event>
<event>
 4    1  0.8130725E-001  0.1901510E+03  0.7546771E-02  0.1158325E+00
          2   -1    0    0  502    0  0.00000000000E+00  0.00000000000E+00  0.20150090327E+03  0.20150090327E+03  0.00000000000E+00 0.  1.
         -2   -1    0    0    0  501 -0.00000000000E+00 -0.00000000000E+00 -0.20903489323E+03  0.20903489323E+03  0.00000000000E+00 0. -1.
          6    1    1    2  502    0  0.61994999836E+02  0.48836693975E+02  0.73468528765E+02  0.20385050258E+03  0.17300000000E+03 0.  1.
         -6    1    1    2    0  501 -0.61994999836E+02 -0.48836693975E+02 -0.81002518730E+02  0.20668529392E+03  0.17300000000E+03 0. -1.
<mgrwt>
<rscale>  2 0.19015100E+03</rscale>
<asrwt>0</asrwt>
<pdfrwt beam="1">  1        2 0.31000139E-01 0.19015100E+03</pdfrwt>
<pdfrwt beam="2">  1       -2 0.32159215E-01 0.19015100E+03</pdfrwt>
<totfact> 0.15057830E+03</totfact>
</mgrwt>
</event>
<event>
 4    1  0.8130725E-001  0.2256602E+03  0.7546771E-02  0.1129732E+00
         -2   -1    0    0    0  501 -0.00000000000E+00  0.00000000000E+00  0.30249581169E+02  0.30249581169E+02  0.00000000000E+00 0. -1.
          2   -1    0    0  502    0  0.00000000000E+00 -0.00000000000E+00 -0.17131347194E+04  0.17131347194E+04  0.00000000000E+00 0.  1.
          6    1    1    2  502    0 -0.10292194497E+03  0.10198324052E+03 -0.95626099979E+03  0.98252613595E+03  0.17300000000E+03 0.  1.
         -6    1    1    2    0  501  0.10292194497E+03 -0.10198324052E+03 -0.72662413845E+03  0.76085816463E+03  0.17300000000E+03 0.  1.
<mgrwt>
<rscale>  2 0.22566016E+03</rscale>
<asrwt>0</asrwt>
<pdfrwt beam="2">  1        2 0.26355927E+00 0.22566016E+03</pdfrwt>
<pdfrwt beam="1">  1       -2 0.46537802E-02 0.22566016E+03</pdfrwt>
<totfact> 0.22993921E+03</totfact>
</mgrwt>
</event>
<event>
 4    1  0.8130725E-001  0.3210991E+03  0.7546771E-02  0.1075145E+00
          2   -1    0    0  502    0  0.00000000000E+00  0.00000000000E+00  0.76666386028E+03  0.76666386028E+03  0.00000000000E+00 0. -1.
         -2   -1    0    0    0  501 -0.00000000000E+00 -0.00000000000E+00 -0.14774934252E+03  0.14774934252E+03  0.00000000000E+00 0.  1.
          6    1    1    2  502    0  0.23349671319E+03 -0.13658299701E+03  0.17246501626E+03  0.36448430964E+03  0.17300000000E+03 0.  1.
         -6    1    1    2    0  501 -0.23349671319E+03  0.13658299701E+03  0.44644950150E+03  0.54992889316E+03  0.17300000000E+03 0. -1.
<mgrwt>
<rscale>  2 0.32109910E+03</rscale>
<asrwt>0</asrwt>
<pdfrwt beam="1">  1        2 0.11794828E+00 0.32109910E+03</pdfrwt>
<pdfrwt beam="2">  1       -2 0.22730668E-01 0.32109910E+03</pdfrwt>
<totfact> 0.63126050E+02</totfact>
</mgrwt>
</event>
<event>
 4    1  0.8130725E-001  0.2154651E+03  0.7546771E-02  0.1137310E+00
         -1   -1    0    0    0  501 -0.00000000000E+00  0.00000000000E+00  0.69934302992E+02  0.69934302992E+02  0.00000000000E+00 0.  1.
          1   -1    0    0  502    0  0.00000000000E+00 -0.00000000000E+00 -0.71861757496E+03  0.71861757496E+03  0.00000000000E+00 0. -1.
          6    1    1    2  502    0 -0.75175436268E+02 -0.10413876309E+03 -0.43319715751E+03  0.48382332051E+03  0.17300000000E+03 0.  1.
         -6    1    1    2    0  501  0.75175436268E+02  0.10413876309E+03 -0.21548611446E+03  0.30472855744E+03  0.17300000000E+03 0.  1.
<mgrwt>
<rscale>  2 0.21546514E+03</rscale>
<asrwt>0</asrwt>
<pdfrwt beam="2">  1        1 0.11055656E+00 0.21546514E+03</pdfrwt>
<pdfrwt beam="1">  1       -1 0.10759123E-01 0.21546514E+03</pdfrwt>
<totfact> 0.14720469E+03</totfact>
</mgrwt>
</event>
<event>
 4    1  0.8130725E-001  0.1885335E+03  0.7546771E-02  0.1159791E+00
         -1   -1    0    0    0  501 -0.00000000000E+00  0.00000000000E+00  0.45596960489E+02  0.45596960489E+02  0.00000000000E+00 0. -1.
          1   -1    0    0  502    0  0.00000000000E+00 -0.00000000000E+00 -0.97910272172E+03  0.97910272172E+03  0.00000000000E+00 0.  1.
          6    1    1    2  502    0 -0.54772891632E+02  0.51144977042E+02 -0.69805885296E+03  0.72307056401E+03  0.17300000000E+03 0. -1.
         -6    1    1    2    0  501  0.54772891632E+02 -0.51144977042E+02 -0.23544690827E+03  0.30162911820E+03  0.17300000000E+03 0. -1.
<mgrwt>
<rscale>  2 0.18853349E+03</rscale>
<asrwt>0</asrwt>
<pdfrwt beam="2">  1        1 0.15063118E+00 0.18853349E+03</pdfrwt>
<pdfrwt beam="1">  1       -1 0.70149172E-02 0.18853349E+03</pdfrwt>
<totfact> 0.17424909E+03</totfact>
</mgrwt>
</event>
<event>
 4    1  0.8130725E-001  0.2131322E+03  0.7546771E-02  0.1139109E+00
          2   -1    0    0  502    0  0.00000000000E+00  0.00000000000E+00  0.12739138291E+04  0.12739138291E+04  0.00000000000E+00 0. -1.
         -2   -1    0    0    0  501 -0.00000000000E+00 -0.00000000000E+00 -0.51207138709E+02  0.51207138709E+02  0.00000000000E+00 0.  1.
          6    1    1    2  502    0 -0.78634957702E+02 -0.96503160923E+02  0.24625288734E+03  0.32567744958E+03  0.17300000000E+03 0.  1.
         -6    1    1    2    0  501  0.78634957702E+02  0.96503160923E+02  0.97645380301E+03  0.99944351819E+03  0.17300000000E+03 0.  1.
<mgrwt>
<rscale>  2 0.21313216E+03</rscale>
<asrwt>0</asrwt>
<pdfrwt beam="1">  1        2 0.19598672E+00 0.21313216E+03</pdfrwt>
<pdfrwt beam="2">  1       -2 0.78780223E-02 0.21313216E+03</pdfrwt>
<totfact> 0.17592941E+03</totfact>
</mgrwt>
</event>
<event>
 4    1  0.8130725E-001  0.2099127E+03  0.7546771E-02  0.1141635E+00
          2   -1    0    0  502    0  0.00000000000E+00  0.00000000000E+00  0.51152229359E+03  0.51152229359E+03  0.00000000000E+00 0. -1.
         -2   -1    0    0    0  501 -0.00000000000E+00 -0.00000000000E+00 -0.88150798213E+02  0.88150798213E+02  0.00000000000E+00 0.  1.
          6    1    1    2  502    0  0.80806076480E+02  0.87205159543E+02  0.16641891816E+03  0.26787799120E+03  0.17300000000E+03 0.  1.
         -6    1    1    2    0  501 -0.80806076480E+02 -0.87205159543E+02  0.25695257722E+03  0.33179510061E+03  0.17300000000E+03 0.  1.
<mgrwt>
<rscale>  2 0.20991275E+03</rscale>
<asrwt>0</asrwt>
<pdfrwt beam="1">  1        2 0.78695736E-01 0.20991275E+03</pdfrwt>
<pdfrwt beam="2">  1       -2 0.13561662E-01 0.20991275E+03</pdfrwt>
<totfact> 0.24326106E+03</totfact>
</mgrwt>
</event>
<event>
 4    1  0.8130725E-001  0.2625286E+03  0.7546771E-02  0.1105633E+00
         -1   -1    0    0    0  501 -0.00000000000E+00  0.00000000000E+00  0.20397978137E+03  0.20397978137E+03  0.00000000000E+00 0. -1.
          1   -1    0    0  502    0  0.00000000000E+00 -0.00000000000E+00 -0.34155260960E+03  0.34155260960E+03  0.00000000000E+00 0.  1.
          6    1    1    2  502    0 -0.97515016904E+02  0.17170644732E+03 -0.97059737857E+02  0.27989618662E+03  0.17300000000E+03 0.  1.
         -6    1    1    2    0  501  0.97515016904E+02 -0.17170644732E+03 -0.40513090372E+02  0.26563620435E+03  0.17300000000E+03 0. -1.
<mgrwt>
<rscale>  2 0.26252863E+03</rscale>
<asrwt>0</asrwt>
<pdfrwt beam="2">  1        1 0.52546554E-01 0.26252863E+03</pdfrwt>
<pdfrwt beam="1">  1       -1 0.31381505E-01 0.26252863E+03</pdfrwt>
<totfact> 0.70450288E+02</totfact>
</mgrwt>
</event>
<event>
 4    1  0.8130725E-001  0.1785710E+03  0.7546771E-02  0.1169193E+00
          2   -1    0    0  502    0  0.00000000000E+00  0.00000000000E+00  0.17228802904E+04  0.17228802904E+04  0.00000000000E+00 0. -1.
         -2   -1    0    0    0  501 -0.00000000000E+00 -0.00000000000E+00 -0.22689158040E+02  0.22689158040E+02  0.00000000000E+00 0.  1.
          6    1    1    2  502    0 -0.43596242338E+02 -0.76148682174E+01  0.47544218732E+03  0.50787094034E+03  0.17300000000E+03 0. -1.
         -6    1    1    2    0  501  0.43596242338E+02  0.76148682174E+01  0.12247489451E+04  0.12376985081E+04  0.17300000000E+03 0. -1.
<mgrwt>
<rscale>  2 0.17857105E+03</rscale>
<asrwt>0</asrwt>
<pdfrwt beam="1">  1        2 0.26505840E+00 0.17857105E+03</pdfrwt>
<pdfrwt beam="2">  1       -2 0.34906410E-02 0.17857105E+03</pdfrwt>
<totfact> 0.34995549E+03</totfact>
</mgrwt>
</event>
<event>
 4    1  0.8130725E-001  0.2440744E+03  0.7546771E-02  0.1117108E+00
         -2   -1    0    0    0  501 -0.00000000000E+00  0.00000000000E+00  0.69631184965E+02  0.69631184965E+02  0.00000000000E+00 0. -1.
          2   -1    0    0  502    0  0.00000000000E+00 -0.00000000000E+00 -0.16723649774E+04  0.16723649774E+04  0.00000000000E+00 0.  1.
          6    1    1    2  502    0 -0.88451869531E+02 -0.14771448887E+03 -0.14100847226E+04  0.14310524897E+04  0.17300000000E+03 0.  1.
         -6    1    1    2    0  501  0.88451869531E+02  0.14771448887E+03 -0.19264906983E+03  0.31094367264E+03  0.17300000000E+03 0.  1.
<mgrwt>
<rscale>  2 0.24407438E+03</rscale>
<asrwt>0</asrwt>
<pdfrwt beam="2">  1        2 0.25728689E+00 0.24407438E+03</pdfrwt>
<pdfrwt beam="1">  1       -2 0.10712491E-01 0.24407438E+03</pdfrwt>
<totfact> 0.66032634E+02</totfact>
</mgrwt>
</event>
<event>
 4    1  0.8130725E-001  0.1981122E+03  0.7546771E-02  0.1151342E+00
          2   -1    0    0  502    0  0.00000000000E+00  0.00000000000E+00  0.10992876227E+04  0.10992876227E+04  0.00000000000E+00 0.  1.
         -2   -1    0    0    0  501 -0.00000000000E+00 -0.00000000000E+00 -0.38347060770E+02  0.38347060770E+02  0.00000000000E+00 0. -1.
          6    1    1    2  502    0  0.95154371879E+02 -0.16281236002E+02  0.38112203399E+03  0.42953746976E+03  0.17300000000E+03 0. -1.
         -6    1    1    2    0  501 -0.95154371879E+02  0.16281236002E+02  0.67981852790E+03  0.70809721368E+03  0.17300000000E+03 0.  1.
<mgrwt>
<rscale>  2 0.19811217E+03</rscale>
<asrwt>0</asrwt>
<pdfrwt beam="1">  1        2 0.16912115E+00 0.19811217E+03</pdfrwt>
<pdfrwt beam="2">  1       -2 0.58995486E-02 0.19811217E+03</pdfrwt>
<totfact> 0.34501966E+03</totfact>
</mgrwt>
</event>
<event>
 4    1  0.8130725E-001  0.2098836E+03  0.7546771E-02  0.1141658E+00
          2   -1    0    0  502    0  0.00000000000E+00  0.00000000000E+00  0.16051805330E+03  0.16051805330E+03  0.00000000000E+00 0.  1.
         -2   -1    0    0    0  501 -0.00000000000E+00 -0.00000000000E+00 -0.35066606658E+03  0.35066606658E+03  0.00000000000E+00 0. -1.
          6    1    1    2  502    0  0.16656887667E+02  0.11766330393E+03 -0.21424712974E+03  0.29992155241E+03  0.17300000000E+03 0.  1.
         -6    1    1    2    0  501 -0.16656887667E+02 -0.11766330393E+03  0.24099116457E+02  0.21126256747E+03  0.17300000000E+03 0.  1.
<mgrwt>
<rscale>  2 0.20988355E+03</rscale>
<asrwt>0</asrwt>
<pdfrwt beam="1">  1        2 0.24695085E-01 0.20988355E+03</pdfrwt>
<pdfrwt beam="2">  1       -2 0.53948625E-01 0.20988355E+03</pdfrwt>
<totfact> 0.71695479E+02</totfact>
</mgrwt>
</event>
<event>
 4    1  0.8130725E-001  0.2651227E+03  0.7546771E-02  0.1104104E+00
         -1   -1    0    0    0  501 -0.00000000000E+00  0.00000000000E+00  0.15323692351E+04  0.15323692351E+04  0.00000000000E+00 0.  1.
          1   -1    0    0  502    0  0.00000000000E+00 -0.00000000000E+00 -0.48353533391E+02  0.48353533391E+02  0.00000000000E+00 0. -1.
          6    1    1    2  502    0  0.19367603016E+03  0.53391465176E+02  0.56289331340E+03  0.62220489832E+03  0.17300000000E+03 0.  1.
         -6    1    1    2    0  501 -0.19367603016E+03 -0.53391465176E+02  0.92112238834E+03  0.95851787021E+03  0.17300000000E+03 0. -1.
<mgrwt>
<rscale>  2 0.26512271E+03</rscale>
<asrwt>0</asrwt>
<pdfrwt beam="2">  1        1 0.74390063E-02 0.26512271E+03</pdfrwt>
<pdfrwt beam="1">  1       -1 0.23574908E+00 0.26512271E+03</pdfrwt>
<totfact> 0.93986243E+01</totfact>
</mgrwt>
</event>
<event>
 4    1  0.8130725E-001  0.2465266E+03  0.7546771E-02  0.1115520E+00
         -2   -1    0    0    0  501 -0.00000000000E+00  0.00000000000E+00  0.16824794277E+03  0.16824794277E+03  0.00000000000E+00 0.  1.
          2   -1    0    0  502    0  0.00000000000E+00 -0.00000000000E+00 -0.10319085600E+04  0.10319085600E+04  0.00000000000E+00 0. -1.
          6    1    1    2  502    0 -0.17366433585E+03  0.26212095451E+02 -0.91560827669E+03  0.94821616303E+03  0.17300000000E+03 0. -1.
         -6    1    1    2    0  501  0.17366433585E+03 -0.26212095451E+02  0.51947659415E+02  0.25194033979E+03  0.17300000000E+03 0.  1.
<mgrwt>
<rscale>  2 0.24652662E+03</rscale>
<asrwt>0</asrwt>
<pdfrwt beam="2">  1        2 0.15875516E+00 0.24652662E+03</pdfrwt>
<pdfrwt beam="1">  1       -2 0.25884299E-01 0.24652662E+03</pdfrwt>
<totfact> 0.33878295E+02</totfact>
</mgrwt>
</event>
<event>
 4    1  0.8130725E-001  0.2182952E+03  0.7546771E-02  0.1135160E+00
          2   -1    0    0  502    0  0.00000000000E+00  0.00000000000E+00  0.93655169516E+02  0.93655169516E+02  0.00000000000E+00 0.  1.
         -2   -1    0    0    0  501 -0.00000000000E+00 -0.00000000000E+00 -0.76948062914E+03  0.76948062914E+03  0.00000000000E+00 0. -1.
          6    1    1    2  502    0 -0.10457744527E+03  0.82385507666E+02 -0.86726858660E+02  0.23489223475E+03  0.17300000000E+03 0.  1.
         -6    1    1    2    0  501  0.10457744527E+03 -0.82385507666E+02 -0.58909860097E+03  0.62824356391E+03  0.17300000000E+03 0. -1.
<mgrwt>
<rscale>  2 0.21829524E+03</rscale>
<asrwt>0</asrwt>
<pdfrwt beam="1">  1        2 0.14408488E-01 0.21829524E+03</pdfrwt>
<pdfrwt beam="2">  1       -2 0.11838163E+00 0.21829524E+03</pdfrwt>
<totfact> 0.23532342E+02</totfact>
</mgrwt>
</event>
<event>
 4    1  0.8130725E-001  0.2124242E+03  0.7546771E-02  0.1139661E+00
         -2   -1    0    0    0  501 -0.00000000000E+00  0.00000000000E+00  0.85957741328E+02  0.85957741328E+02  0.00000000000E+00 0. -1.
          2   -1    0    0  502    0  0.00000000000E+00 -0.00000000000E+00 -0.84856695244E+03  0.84856695244E+03  0.00000000000E+00 0.  1.
          6    1    1    2  502    0 -0.61633554433E+02  0.10675373349E+03 -0.66985997387E+03  0.70273497084E+03  0.17300000000E+03 0.  1.
         -6    1    1    2    0  501  0.61633554433E+02 -0.10675373349E+03 -0.92749237241E+02  0.23178972293E+03  0.17300000000E+03 0. -1.
<mgrwt>
<rscale>  2 0.21242423E+03</rscale>
<asrwt>0</asrwt>
<pdfrwt beam="2">  1        2 0.13054876E+00 0.21242423E+03</pdfrwt>
<pdfrwt beam="1">  1       -2 0.13224268E-01 0.21242423E+03</pdfrwt>
<totfact> 0.13854210E+03</totfact>
</mgrwt>
</event>
<event>
 4    1  0.8130725E-001  0.2390911E+03  0.7546771E-02  0.1120400E+00
         -2   -1    0    0    0  501 -0.00000000000E+00  0.00000000000E+00  0.13354195464E+03  0.13354195464E+03  0.00000000000E+00 0. -1.
          2   -1    0    0  502    0  0.00000000000E+00 -0.00000000000E+00 -0.46640422536E+03  0.46640422536E+03  0.00000000000E+00 0.  1.
          6    1    1    2  502    0 -0.24073342311E+02  0.16326673638E+03 -0.80425624586E+02  0.25225549372E+03  0.17300000000E+03 0.  1.
         -6    1    1    2    0  501  0.24073342311E+02 -0.16326673638E+03 -0.25243664614E+03  0.34769068629E+03  0.17300000000E+03 0. -1.
<mgrwt>
<rscale>  2 0.23909110E+03</rscale>
<asrwt>0</asrwt>
<pdfrwt beam="2">  1        2 0.71754498E-01 0.23909110E+03</pdfrwt>
<pdfrwt beam="1">  1       -2 0.20544915E-01 0.23909110E+03</pdfrwt>
<totfact> 0.13488577E+03</totfact>
</mgrwt>
</event>
<event>
 4    1  0.8130725E-001  0.2536295E+03  0.7546771E-02  0.1111032E+00
          2   -1    0    0  502    0  0.00000000000E+00  0.00000000000E+00  0.10635236880E+04  0.10635236880E+04  0.00000000000E+00 0.  1.
         -2   -1    0    0    0  501 -0.00000000000E+00 -0.00000000000E+00 -0.73542152904E+02  0.73542152904E+02  0.00000000000E+00 0. -1.
          6    1    1    2  502    0 -0.18273677306E+03 -0.31720270979E+02  0.73454351695E+03  0.77709850220E+03  0.17300000000E+03 0.  1.
         -6    1    1    2    0  501  0.18273677306E+03  0.31720270979E+02  0.25543801812E+03  0.35996733868E+03  0.17300000000E+03 0. -1.
<mgrwt>
<rscale>  2 0.25362946E+03</rscale>
<asrwt>0</asrwt>
<pdfrwt beam="1">  1        2 0.16361902E+00 0.25362946E+03</pdfrwt>
<pdfrwt beam="2">  1       -2 0.11314178E-01 0.25362946E+03</pdfrwt>
<totfact> 0.13079240E+03</totfact>
</mgrwt>
</event>
<event>
 4    1  0.8130725E-001  0.1795885E+03  0.7546771E-02  0.1168202E+00
         -2   -1    0    0    0  501 -0.00000000000E+00  0.00000000000E+00  0.12972828034E+02  0.12972828034E+02  0.00000000000E+00 0. -1.
          2   -1    0    0  502    0  0.00000000000E+00 -0.00000000000E+00 -0.26772202720E+04  0.26772202720E+04  0.00000000000E+00 0.  1.
          6    1    1    2  502    0 -0.41208975497E+02 -0.24997277640E+02 -0.97275615636E+03  0.98919491673E+03  0.17300000000E+03 0. -1.
         -6    1    1    2    0  501  0.41208975497E+02  0.24997277640E+02 -0.16914912876E+04  0.17009981833E+04  0.17300000000E+03 0.  1.
<mgrwt>
<rscale>  2 0.17958854E+03</rscale>
<asrwt>0</asrwt>
<pdfrwt beam="2">  1        2 0.41188044E+00 0.17958854E+03</pdfrwt>
<pdfrwt beam="1">  1       -2 0.19958178E-02 0.17958854E+03</pdfrwt>
<totfact> 0.25025069E+03</totfact>
</mgrwt>
</event>
<event>
 4    1  0.8130725E-001  0.2106503E+03  0.7546771E-02  0.1141052E+00
         -1   -1    0    0    0  501 -0.00000000000E+00  0.00000000000E+00  0.63904063879E+02  0.63904063879E+02  0.00000000000E+00 0.  1.
          1   -1    0    0  502    0  0.00000000000E+00 -0.00000000000E+00 -0.80864996032E+03  0.80864996032E+03  0.00000000000E+00 0. -1.
          6    1    1    2  502    0 -0.97025470015E+02  0.70926691337E+02 -0.20836947905E+03  0.29629609713E+03  0.17300000000E+03 0.  1.
         -6    1    1    2    0  501  0.97025470015E+02 -0.70926691337E+02 -0.53637641738E+03  0.57625792706E+03  0.17300000000E+03 0. -1.
<mgrwt>
<rscale>  2 0.21065027E+03</rscale>
<asrwt>0</asrwt>
<pdfrwt beam="2">  1        1 0.12440767E+00 0.21065027E+03</pdfrwt>
<pdfrwt beam="1">  1       -1 0.98313956E-02 0.21065027E+03</pdfrwt>
<totfact> 0.14171067E+03</totfact>
</mgrwt>
</event>
<event>
 4    1  0.8130725E-001  0.4070424E+03  0.7546771E-02  0.1041368E+00
          2   -1    0    0  502    0  0.00000000000E+00  0.00000000000E+00  0.15723762445E+04  0.15723762445E+04  0.00000000000E+00 0. -1.
         -2   -1    0    0    0  501 -0.00000000000E+00 -0.00000000000E+00 -0.10787219686E+03  0.10787219686E+03  0.00000000000E+00 0.  1.
          6    1    1    2  502    0  0.26506559423E+02  0.36749408523E+03  0.60433534676E+03  0.72863208254E+03  0.17300000000E+03 0.  1.
         -6    1    1    2    0  501 -0.26506559423E+02 -0.36749408523E+03  0.86016870089E+03  0.95161635881E+03  0.17300000000E+03 0. -1.
<mgrwt>
<rscale>  2 0.40704238E+03</rscale>
<asrwt>0</asrwt>
<pdfrwt beam="1">  1        2 0.24190402E+00 0.40704238E+03</pdfrwt>
<pdfrwt beam="2">  1       -2 0.16595724E-01 0.40704238E+03</pdfrwt>
<totfact> 0.35591565E+02</totfact>
</mgrwt>
</event>
<event>
 4    1  0.8130725E-001  0.1773555E+03  0.7546771E-02  0.1170387E+00
         -2   -1    0    0    0  501 -0.00000000000E+00  0.00000000000E+00  0.18325753272E+02  0.18325753272E+02  0.00000000000E+00 0. -1.
          2   -1    0    0  502    0  0.00000000000E+00 -0.00000000000E+00 -0.18634646137E+04  0.18634646137E+04  0.00000000000E+00 0.  1.
          6    1    1    2  502    0  0.36738057144E+02 -0.13277936265E+02 -0.65827918445E+03  0.68175250137E+03  0.17300000000E+03 0. -1.
         -6    1    1    2    0  501 -0.36738057144E+02  0.13277936265E+02 -0.11868596759E+04  0.12000378656E+04  0.17300000000E+03 0.  1.
<mgrwt>
<rscale>  2 0.17735554E+03</rscale>
<asrwt>0</asrwt>
<pdfrwt beam="2">  1        2 0.28668691E+00 0.17735554E+03</pdfrwt>
<pdfrwt beam="1">  1       -2 0.28193462E-02 0.17735554E+03</pdfrwt>
<totfact> 0.40624843E+03</totfact>
</mgrwt>
</event>
<event>
 4    1  0.8130725E-001  0.1873875E+03  0.7546771E-02  0.1160839E+00
          2   -1    0    0  502    0  0.00000000000E+00  0.00000000000E+00  0.88523633147E+03  0.88523633147E+03  0.00000000000E+00 0.  1.
         -2   -1    0    0    0  501 -0.00000000000E+00 -0.00000000000E+00 -0.82651354284E+02  0.82651354284E+02  0.00000000000E+00 0. -1.
          6    1    1    2  502    0 -0.69773325567E+02  0.17798036040E+02  0.75029496573E+03  0.77334120713E+03  0.17300000000E+03 0.  1.
         -6    1    1    2    0  501  0.69773325567E+02 -0.17798036040E+02  0.52290011460E+02  0.19454647863E+03  0.17300000000E+03 0. -1.
<mgrwt>
<rscale>  2 0.18738753E+03</rscale>
<asrwt>0</asrwt>
<pdfrwt beam="1">  1        2 0.13619020E+00 0.18738753E+03</pdfrwt>
<pdfrwt beam="2">  1       -2 0.12715594E-01 0.18738753E+03</pdfrwt>
<totfact> 0.13963863E+03</totfact>
</mgrwt>
</event>
<event>
 4    1  0.8130725E-001  0.1780503E+03  0.7546771E-02  0.1169703E+00
         -2   -1    0    0    0  501 -0.00000000000E+00  0.00000000000E+00  0.59644759993E+02  0.59644759993E+02  0.00000000000E+00 0.  1.
          2   -1    0    0  502    0  0.00000000000E+00 -0.00000000000E+00 -0.66146249425E+03  0.66146249425E+03  0.00000000000E+00 0. -1.
          6    1    1    2  502    0 -0.36497581806E+02 -0.20995924942E+02 -0.46071973791E+03  0.49392770649E+03  0.17300000000E+03 0.  1.
         -6    1    1    2    0  501  0.36497581806E+02  0.20995924942E+02 -0.14109799634E+03  0.22717954774E+03  0.17300000000E+03 0.  1.
<mgrwt>
<rscale>  2 0.17805028E+03</rscale>
<asrwt>0</asrwt>
<pdfrwt beam="2">  1        2 0.10176345E+00 0.17805028E+03</pdfrwt>
<pdfrwt beam="1">  1       -2 0.91761175E-02 0.17805028E+03</pdfrwt>
<totfact> 0.33682408E+03</totfact>
</mgrwt>
</event>
<event>
 4    1  0.8130725E-001  0.1757358E+03  0.7546771E-02  0.1171995E+00
          1   -1    0    0  502    0  0.00000000000E+00  0.00000000000E+00  0.61342260021E+03  0.61342260021E+03  0.00000000000E+00 0. -1.
         -1   -1    0    0    0  501 -0.00000000000E+00 -0.00000000000E+00 -0.10684432997E+03  0.10684432997E+03  0.00000000000E+00 0.  1.
          6    1    1    2  502    0  0.19222952342E+02 -0.24177733207E+02  0.51517216645E+03  0.54432108701E+03  0.17300000000E+03 0. -1.
         -6    1    1    2    0  501 -0.19222952342E+02  0.24177733207E+02 -0.85938962047E+01  0.17594584318E+03  0.17300000000E+03 0.  1.
<mgrwt>
<rscale>  2 0.17573584E+03</rscale>
<asrwt>0</asrwt>
<pdfrwt beam="1">  1        1 0.94372706E-01 0.17573584E+03</pdfrwt>
<pdfrwt beam="2">  1       -1 0.16437589E-01 0.17573584E+03</pdfrwt>
<totfact> 0.94762079E+02</totfact>
</mgrwt>
</event>
<event>
 4    1  0.8130725E-001  0.3994655E+03  0.7546771E-02  0.1043965E+00
          2   -1    0    0  502    0  0.00000000000E+00  0.00000000000E+00  0.25036461390E+04  0.25036461390E+04  0.00000000000E+00 0.  1.
         -2   -1    0    0    0  501 -0.00000000000E+00 -0.00000000000E+00 -0.64034373583E+02  0.64034373583E+02  0.00000000000E+00 0. -1.
          6    1    1    2  502    0 -0.27873942315E+03  0.22792112971E+03  0.11321880705E+04  0.12005925763E+04  0.17300000000E+03 0.  1.
         -6    1    1    2    0  501  0.27873942315E+03 -0.22792112971E+03  0.13074236949E+04  0.13670879362E+04  0.17300000000E+03 0. -1.
<mgrwt>
<rscale>  2 0.39946553E+03</rscale>
<asrwt>0</asrwt>
<pdfrwt beam="1">  1        2 0.38517625E+00 0.39946553E+03</pdfrwt>
<pdfrwt beam="2">  1       -2 0.98514440E-02 0.39946553E+03</pdfrwt>
<totfact> 0.26453190E+02</totfact>
</mgrwt>
</event>
<event>
 4    1  0.8130725E-001  0.3757192E+03  0.7546771E-02  0.1052527E+00
          2   -1    0    0  502    0  0.00000000000E+00  0.00000000000E+00  0.20825144422E+04  0.20825144422E+04  0.00000000000E+00 0. -1.
         -2   -1    0    0    0  501 -0.00000000000E+00 -0.00000000000E+00 -0.74039235231E+02  0.74039235231E+02  0.00000000000E+00 0.  1.
          6    1    1    2  502    0  0.26178463714E+03  0.20665123732E+03  0.13176082149E+04  0.13701300442E+04  0.17300000000E+03 0. -1.
         -6    1    1    2    0  501 -0.26178463714E+03 -0.20665123732E+03  0.69086699207E+03  0.78642363321E+03  0.17300000000E+03 0.  1.
<mgrwt>
<rscale>  2 0.37571922E+03</rscale>
<asrwt>0</asrwt>
<pdfrwt beam="1">  1        2 0.32038679E+00 0.37571922E+03</pdfrwt>
<pdfrwt beam="2">  1       -2 0.11390653E-01 0.37571922E+03</pdfrwt>
<totfact> 0.35591970E+02</totfact>
</mgrwt>
</event>
<event>
 4    1  0.8130725E-001  0.2675755E+03  0.7546771E-02  0.1102675E+00
         -2   -1    0    0    0  501 -0.00000000000E+00  0.00000000000E+00  0.16034471192E+03  0.16034471192E+03  0.00000000000E+00 0. -1.
          2   -1    0    0  502    0  0.00000000000E+00 -0.00000000000E+00 -0.53621434544E+03  0.53621434544E+03  0.00000000000E+00 0.  1.
          6    1    1    2  502    0  0.19939544679E+03  0.43693024124E+02 -0.33038032469E+03  0.42514442663E+03  0.17300000000E+03 0.  1.
         -6    1    1    2    0  501 -0.19939544679E+03 -0.43693024124E+02 -0.45489308830E+02  0.27141463073E+03  0.17300000000E+03 0. -1.
<mgrwt>
<rscale>  2 0.26757546E+03</rscale>
<asrwt>0</asrwt>
<pdfrwt beam="2">  1        2 0.82494515E-01 0.26757546E+03</pdfrwt>
<pdfrwt beam="1">  1       -2 0.24668417E-01 0.26757546E+03</pdfrwt>
<totfact> 0.83904489E+02</totfact>
</mgrwt>
</event>
<event>
 4    1  0.8130725E-001  0.1747049E+03  0.7546771E-02  0.1173028E+00
          4   -1    0    0  502    0  0.00000000000E+00  0.00000000000E+00  0.19528505165E+03  0.19528505165E+03  0.00000000000E+00 0. -1.
         -4   -1    0    0    0  501 -0.00000000000E+00 -0.00000000000E+00 -0.15645915242E+03  0.15645915242E+03  0.00000000000E+00 0.  1.
          6    1    1    2  502    0 -0.71482828760E+01 -0.23274803044E+02  0.25132905214E+02  0.17650347682E+03  0.17300000000E+03 0. -1.
         -6    1    1    2    0  501  0.71482828760E+01  0.23274803044E+02  0.13692994017E+02  0.17524072726E+03  0.17300000000E+03 0. -1.
<mgrwt>
<rscale>  2 0.17470494E+03</rscale>
<asrwt>0</asrwt>
<pdfrwt beam="1">  1        4 0.30043854E-01 0.17470494E+03</pdfrwt>
<pdfrwt beam="2">  1       -4 0.24070639E-01 0.17470494E+03</pdfrwt>
<totfact> 0.29650823E+02</totfact>
</mgrwt>
</event>
<event>
 4    1  0.8130725E-001  0.2313941E+03  0.7546771E-02  0.1125662E+00
         -2   -1    0    0    0  501 -0.00000000000E+00  0.00000000000E+00  0.36654267100E+03  0.36654267100E+03  0.00000000000E+00 0.  1.
          2   -1    0    0  502    0  0.00000000000E+00 -0.00000000000E+00 -0.20074506121E+03  0.20074506121E+03  0.00000000000E+00 0. -1.
          6    1    1    2  502    0  0.79879258156E+02 -0.13127649061E+03  0.23091880762E+03  0.32690473931E+03  0.17300000000E+03 0. -1.
         -6    1    1    2    0  501 -0.79879258156E+02  0.13127649061E+03 -0.65121197819E+02  0.24038299290E+03  0.17300000000E+03 0. -1.
<mgrwt>
<rscale>  2 0.23139406E+03</rscale>
<asrwt>0</asrwt>
<pdfrwt beam="2">  1        2 0.30883856E-01 0.23139406E+03</pdfrwt>
<pdfrwt beam="1">  1       -2 0.56391180E-01 0.23139406E+03</pdfrwt>
<totfact> 0.51198839E+02</totfact>
</mgrwt>
</event>
<event>
 4    1  0.8130725E-001  0.2612477E+03  0.7546771E-02  0.1106396E+00
         -2   -1    0    0    0  501 -0.00000000000E+00  0.00000000000E+00  0.25124400256E+02  0.25124400256E+02  0.00000000000E+00 0.  1.
          2   -1    0    0  502    0  0.00000000000E+00 -0.00000000000E+00 -0.28627869688E+04  0.28627869688E+04  0.00000000000E+00 0. -1.
          6    1    1    2  502    0 -0.19536148165E+03 -0.12459298909E+02 -0.10924182253E+04  0.11232221159E+04  0.17300000000E+03 0.  1.
         -6    1    1    2    0  501  0.19536148165E+03  0.12459298909E+02 -0.17452443432E+04  0.17646892532E+04  0.17300000000E+03 0. -1.
<mgrwt>
<rscale>  2 0.26124767E+03</rscale>
<asrwt>0</asrwt>
<pdfrwt beam="2">  1        2 0.44042901E+00 0.26124767E+03</pdfrwt>
<pdfrwt beam="1">  1       -2 0.38652902E-02 0.26124767E+03</pdfrwt>
<totfact> 0.72703659E+02</totfact>
</mgrwt>
</event>
<event>
 4    1  0.8130725E-001  0.1854524E+03  0.7546771E-02  0.1162628E+00
          2   -1    0    0  502    0  0.00000000000E+00  0.00000000000E+00  0.17633127185E+04  0.17633127185E+04  0.00000000000E+00 0.  1.
         -2   -1    0    0    0  501 -0.00000000000E+00 -0.00000000000E+00 -0.24001667015E+02  0.24001667015E+02  0.00000000000E+00 0. -1.
          6    1    1    2  502    0  0.55311967558E+02  0.37472255026E+02  0.12564839433E+04  0.12700962497E+04  0.17300000000E+03 0.  1.
         -6    1    1    2    0  501 -0.55311967558E+02 -0.37472255026E+02  0.48282710820E+03  0.51721813586E+03  0.17300000000E+03 0. -1.
<mgrwt>
<rscale>  2 0.18545238E+03</rscale>
<asrwt>0</asrwt>
<pdfrwt beam="1">  1        2 0.27127878E+00 0.18545238E+03</pdfrwt>
<pdfrwt beam="2">  1       -2 0.36925655E-02 0.18545238E+03</pdfrwt>
<totfact> 0.30671952E+03</totfact>
</mgrwt>
</event>
<event>
 4    1  0.8130725E-001  0.1798367E+03  0.7546771E-02  0.1167961E+00
          4   -1    0    0  502    0  0.00000000000E+00  0.00000000000E+00  0.11394701193E+04  0.11394701193E+04  0.00000000000E+00 0. -1.
         -4   -1    0    0    0  501 -0.00000000000E+00 -0.00000000000E+00 -0.28396425159E+02  0.28396425159E+02  0.00000000000E+00 0.  1.
          6    1    1    2  502    0  0.45527500101E+02 -0.18425337514E+02  0.54270225297E+03  0.57172281894E+03  0.17300000000E+03 0.  1.
         -6    1    1    2    0  501 -0.45527500101E+02  0.18425337514E+02  0.56837144119E+03  0.59614372553E+03  0.17300000000E+03 0. -1.
<mgrwt>
<rscale>  2 0.17983672E+03</rscale>
<asrwt>0</asrwt>
<pdfrwt beam="1">  1        4 0.17530306E+00 0.17983672E+03</pdfrwt>
<pdfrwt beam="2">  1       -4 0.43686817E-02 0.17983672E+03</pdfrwt>
<totfact> 0.10956001E+02</totfact>
</mgrwt>
</event>
<event>
 4    1  0.8130725E-001  0.1956219E+03  0.7546771E-02  0.1153486E+00
         -1   -1    0    0    0  501 -0.00000000000E+00  0.00000000000E+00  0.83837297383E+02  0.83837297383E+02  0.00000000000E+00 0.  1.
          1   -1    0    0  502    0  0.00000000000E+00 -0.00000000000E+00 -0.69111749752E+03  0.69111749752E+03  0.00000000000E+00 0. -1.
          6    1    1    2  502    0  0.32817508036E+02  0.85217051337E+02 -0.52942374657E+03  0.56440892808E+03  0.17300000000E+03 0. -1.
         -6    1    1    2    0  501 -0.32817508036E+02 -0.85217051337E+02 -0.77856453572E+02  0.21054586682E+03  0.17300000000E+03 0.  1.
<mgrwt>
<rscale>  2 0.19562192E+03</rscale>
<asrwt>0</asrwt>
<pdfrwt beam="2">  1        1 0.10632577E+00 0.19562192E+03</pdfrwt>
<pdfrwt beam="1">  1       -1 0.12898046E-01 0.19562192E+03</pdfrwt>
<totfact> 0.11740916E+03</totfact>
</mgrwt>
</event>
<event>
 4    1  0.8130725E-001  0.1935820E+03  0.7546771E-02  0.1155270E+00
         -2   -1    0    0    0  501 -0.00000000000E+00  0.00000000000E+00  0.33537352855E+02  0.33537352855E+02  0.00000000000E+00 0.  1.
          2   -1    0    0  502    0  0.00000000000E+00 -0.00000000000E+00 -0.11188187498E+04  0.11188187498E+04  0.00000000000E+00 0. -1.
          6    1    1    2  502    0 -0.85571983368E+02  0.14914574794E+02 -0.52198773221E+03  0.55672722356E+03  0.17300000000E+03 0.  1.
         -6    1    1    2    0  501  0.85571983368E+02 -0.14914574794E+02 -0.56329366474E+03  0.59562887910E+03  0.17300000000E+03 0.  1.
<mgrwt>
<rscale>  2 0.19358205E+03</rscale>
<asrwt>0</asrwt>
<pdfrwt beam="2">  1        2 0.17212594E+00 0.19358205E+03</pdfrwt>
<pdfrwt beam="1">  1       -2 0.51595934E-02 0.19358205E+03</pdfrwt>
<totfact> 0.41203855E+03</totfact>
</mgrwt>
</event>
<event>
 4    1  0.8130725E-001  0.3165902E+03  0.7546771E-02  0.1077229E+00
          2   -1    0    0  502    0  0.00000000000E+00  0.00000000000E+00  0.58189288752E+03  0.58189288752E+03  0.00000000000E+00 0. -1.
         -2   -1    0    0    0  501 -0.00000000000E+00 -0.00000000000E+00 -0.24730710772E+03  0.24730710772E+03  0.00000000000E+00 0.  1.
          6    1    1    2  502    0 -0.21887457672E+03  0.14964715948E+03  0.39570301241E+03  0.50676446867E+03  0.17300000000E+03 0. -1.
         -6    1    1    2    0  501  0.21887457672E+03 -0.14964715948E+03 -0.61117232602E+02  0.32243552657E+03  0.17300000000E+03 0.  1.
<mgrwt>
<rscale>  2 0.31659020E+03</rscale>
<asrwt>0</asrwt>
<pdfrwt beam="1">  1        2 0.89521982E-01 0.31659020E+03</pdfrwt>
<pdfrwt beam="2">  1       -2 0.38047248E-01 0.31659020E+03</pdfrwt>
<totfact> 0.34447223E+02</totfact>
</mgrwt>
</event>
<event>
 4    1  0.8130725E-001  0.1920810E+03  0.7546771E-02  0.1156598E+00
          2   -1    0    0  502    0  0.00000000000E+00  0.00000000000E+00  0.19977103774E+04  0.19977103774E+04  0.00000000000E+00 0. -1.
         -2   -1    0    0    0  501 -0.00000000000E+00 -0.00000000000E+00 -0.23685630166E+02  0.23685630166E+02  0.00000000000E+00 0.  1.
          6    1    1    2  502    0  0.81892094745E+02  0.16117591794E+02  0.51267548578E+03  0.54747716452E+03  0.17300000000E+03 0.  1.
         -6    1    1    2    0  501 -0.81892094745E+02 -0.16117591794E+02  0.14613492615E+04  0.14739188431E+04  0.17300000000E+03 0. -1.
<mgrwt>
<rscale>  2 0.19208095E+03</rscale>
<asrwt>0</asrwt>
<pdfrwt beam="1">  1        2 0.30733993E+00 0.19208095E+03</pdfrwt>
<pdfrwt beam="2">  1       -2 0.36439447E-02 0.19208095E+03</pdfrwt>
<totfact> 0.23649622E+03</totfact>
</mgrwt>
</event>
<event>
 4    1  0.8130725E-001  0.2180990E+03  0.7546771E-02  0.1135308E+00
         -1   -1    0    0    0  501 -0.00000000000E+00  0.00000000000E+00  0.44555627526E+02  0.44555627526E+02  0.00000000000E+00 0.  1.
          1   -1    0    0  502    0  0.00000000000E+00 -0.00000000000E+00 -0.11881369614E+04  0.11881369614E+04  0.00000000000E+00 0. -1.
          6    1    1    2  502    0 -0.80829680584E+01  0.13256264266E+03 -0.37546919499E+03  0.43421688704E+03  0.17300000000E+03 0.  1.
         -6    1    1    2    0  501  0.80829680584E+01 -0.13256264266E+03 -0.76811213888E+03  0.79847570188E+03  0.17300000000E+03 0. -1.
<mgrwt>
<rscale>  2 0.21809903E+03</rscale>
<asrwt>0</asrwt>
<pdfrwt beam="2">  1        1 0.18279029E+00 0.21809903E+03</pdfrwt>
<pdfrwt beam="1">  1       -1 0.68547122E-02 0.21809903E+03</pdfrwt>
<totfact> 0.12759125E+03</totfact>
</mgrwt>
</event>
<event>
 4    1  0.8130725E-001  0.2139086E+03  0.7546771E-02  0.1138508E+00
         -1   -1    0    0    0  501 -0.00000000000E+00  0.00000000000E+00  0.52676529791E+03  0.52676529791E+03  0.00000000000E+00 0.  1.
          1   -1    0    0  502    0  0.00000000000E+00 -0.00000000000E+00 -0.89380718568E+02  0.89380718568E+02  0.00000000000E+00 0. -1.
          6    1    1    2  502    0 -0.11930595213E+03  0.39924781413E+02  0.16699640061E+03  0.27137556301E+03  0.17300000000E+03 0.  1.
         -6    1    1    2    0  501  0.11930595213E+03 -0.39924781413E+02  0.27038817873E+03  0.34477045346E+03  0.17300000000E+03 0.  1.
<mgrwt>
<rscale>  2 0.21390862E+03</rscale>
<asrwt>0</asrwt>
<pdfrwt beam="2">  1        1 0.13750880E-01 0.21390862E+03</pdfrwt>
<pdfrwt beam="1">  1       -1 0.81040813E-01 0.21390862E+03</pdfrwt>
<totfact> 0.66370045E+02</totfact>
</mgrwt>
</event>
<event>
 4    1  0.8130725E-001  0.2314296E+03  0.7546771E-02  0.1125638E+00
          1   -1    0    0  502    0  0.00000000000E+00  0.00000000000E+00  0.10080211889E+03  0.10080211889E+03  0.00000000000E+00 0. -1.
         -1   -1    0    0    0  501 -0.00000000000E+00 -0.00000000000E+00 -0.55256771651E+03  0.55256771651E+03  0.00000000000E+00 0.  1.
          6    1    1    2  502    0 -0.13760005058E+03 -0.68533668335E+02 -0.16184375841E+03  0.28240580687E+03  0.17300000000E+03 0. -1.
         -6    1    1    2    0  501  0.13760005058E+03  0.68533668335E+02 -0.28992183921E+03  0.37096402853E+03  0.17300000000E+03 0.  1.
<mgrwt>
<rscale>  2 0.23142955E+03</rscale>
<asrwt>0</asrwt>
<pdfrwt beam="1">  1        1 0.15508018E-01 0.23142955E+03</pdfrwt>
<pdfrwt beam="2">  1       -1 0.85010420E-01 0.23142955E+03</pdfrwt>
<totfact> 0.51286342E+02</totfact>
</mgrwt>
</event>
<event>
 4    1  0.8130725E-001  0.1962157E+03  0.7546771E-02  0.1152972E+00
          2   -1    0    0  502    0  0.00000000000E+00  0.00000000000E+00  0.18723389381E+04  0.18723389381E+04  0.00000000000E+00 0.  1.
         -2   -1    0    0    0  501 -0.00000000000E+00 -0.00000000000E+00 -0.21451886932E+02  0.21451886932E+02  0.00000000000E+00 0. -1.
          6    1    1    2  502    0 -0.91385996685E+02  0.14839181977E+02  0.73267675697E+03  0.75849576921E+03  0.17300000000E+03 0.  1.
         -6    1    1    2    0  501  0.91385996685E+02 -0.14839181977E+02  0.11182102942E+04  0.11352950558E+04  0.17300000000E+03 0.  1.
<mgrwt>
<rscale>  2 0.19621570E+03</rscale>
<asrwt>0</asrwt>
<pdfrwt beam="1">  1        2 0.28805202E+00 0.19621570E+03</pdfrwt>
<pdfrwt beam="2">  1       -2 0.33002918E-02 0.19621570E+03</pdfrwt>
<totfact> 0.31838445E+03</totfact>
</mgrwt>
</event>
<event>
 4    1  0.8130725E-001  0.1840833E+03  0.7546771E-02  0.1163909E+00
          1   -1    0    0  502    0  0.00000000000E+00  0.00000000000E+00  0.73461203780E+03  0.73461203780E+03  0.00000000000E+00 0.  1.
         -1   -1    0    0    0  501 -0.00000000000E+00 -0.00000000000E+00 -0.46202160754E+02  0.46202160754E+02  0.00000000000E+00 0. -1.
          6    1    1    2  502    0 -0.58000509762E+01 -0.62641941484E+02  0.35977874541E+03  0.40413784662E+03  0.17300000000E+03 0.  1.
         -6    1    1    2    0  501  0.58000509762E+01  0.62641941484E+02  0.32863113164E+03  0.37667635194E+03  0.17300000000E+03 0. -1.
<mgrwt>
<rscale>  2 0.18408328E+03</rscale>
<asrwt>0</asrwt>
<pdfrwt beam="1">  1        1 0.11301723E+00 0.18408328E+03</pdfrwt>
<pdfrwt beam="2">  1       -1 0.71080253E-02 0.18408328E+03</pdfrwt>
<totfact> 0.26805181E+03</totfact>
</mgrwt>
</event>
<event>
 4    1  0.8130725E-001  0.1965016E+03  0.7546771E-02  0.1152725E+00
          2   -1    0    0  502    0  0.00000000000E+00  0.00000000000E+00  0.99545544488E+03  0.99545544488E+03  0.00000000000E+00 0. -1.
         -2   -1    0    0    0  501 -0.00000000000E+00 -0.00000000000E+00 -0.71158637922E+02  0.71158637922E+02  0.00000000000E+00 0.  1.
          6    1    1    2  502    0  0.60653966837E+02  0.70745899304E+02  0.82184084798E+03  0.84500607417E+03  0.17300000000E+03 0. -1.
         -6    1    1    2    0  501 -0.60653966837E+02 -0.70745899304E+02  0.10245595897E+03  0.22160800863E+03  0.17300000000E+03 0.  1.
<mgrwt>
<rscale>  2 0.19650162E+03</rscale>
<asrwt>0</asrwt>
<pdfrwt beam="1">  1        2 0.15314698E+00 0.19650162E+03</pdfrwt>
<pdfrwt beam="2">  1       -2 0.10947483E-01 0.19650162E+03</pdfrwt>
<totfact> 0.15157632E+03</totfact>
</mgrwt>
</event>
<event>
 4    1  0.8130725E-001  0.2054262E+03  0.7546771E-02  0.1145240E+00
         -1   -1    0    0    0  501 -0.00000000000E+00  0.00000000000E+00  0.38881474032E+03  0.38881474032E+03  0.00000000000E+00 0.  1.
          1   -1    0    0  502    0  0.00000000000E+00 -0.00000000000E+00 -0.14450779354E+03  0.14450779354E+03  0.00000000000E+00 0. -1.
          6    1    1    2  502    0 -0.95951202832E+02  0.55356194919E+02 -0.10892707793E+02  0.20571483350E+03  0.17300000000E+03 0. -1.
         -6    1    1    2    0  501  0.95951202832E+02 -0.55356194919E+02  0.25519965457E+03  0.32760770036E+03  0.17300000000E+03 0.  1.
<mgrwt>
<rscale>  2 0.20542624E+03</rscale>
<asrwt>0</asrwt>
<pdfrwt beam="2">  1        1 0.22231968E-01 0.20542624E+03</pdfrwt>
<pdfrwt beam="1">  1       -1 0.59817652E-01 0.20542624E+03</pdfrwt>
<totfact> 0.65145712E+02</totfact>
</mgrwt>
</event>
<event>
 4    1  0.8130725E-001  0.2816603E+03  0.7546771E-02  0.1094786E+00
          1   -1    0    0  502    0  0.00000000000E+00  0.00000000000E+00  0.27306475639E+03  0.27306475639E+03  0.00000000000E+00 0.  1.
         -1   -1    0    0    0  501 -0.00000000000E+00 -0.00000000000E+00 -0.29216447090E+03  0.29216447090E+03  0.00000000000E+00 0. -1.
          6    1    1    2  502    0 -0.12127595443E+03 -0.18626765692E+03 -0.30711952886E+02  0.28332970403E+03  0.17300000000E+03 0.  1.
         -6    1    1    2    0  501  0.12127595443E+03  0.18626765692E+03  0.11612238376E+02  0.28189952326E+03  0.17300000000E+03 0. -1.
<mgrwt>
<rscale>  2 0.28166025E+03</rscale>
<asrwt>0</asrwt>
<pdfrwt beam="1">  1        1 0.42009963E-01 0.28166025E+03</pdfrwt>
<pdfrwt beam="2">  1       -1 0.44948380E-01 0.28166025E+03</pdfrwt>
<totfact> 0.49581863E+02</totfact>
</mgrwt>
</event>
<event>
 4    1  0.8130725E-001  0.2140283E+03  0.7546771E-02  0.1138415E+00
          2   -1    0    0  502    0  0.00000000000E+00  0.00000000000E+00  0.51468142805E+03  0.51468142805E+03  0.00000000000E+00 0. -1.
         -2   -1    0    0    0  501 -0.00000000000E+00 -0.00000000000E+00 -0.90248332487E+02  0.90248332487E+02  0.00000000000E+00 0.  1.
          6    1    1    2  502    0  0.12118435133E+03 -0.34546628026E+02  0.24774884630E+03  0.32739518530E+03  0.17300000000E+03 0. -1.
         -6    1    1    2    0  501 -0.12118435133E+03  0.34546628026E+02  0.17668424926E+03  0.27753457523E+03  0.17300000000E+03 0.  1.
<mgrwt>
<rscale>  2 0.21402831E+03</rscale>
<asrwt>0</asrwt>
<pdfrwt beam="1">  1        2 0.79181756E-01 0.21402831E+03</pdfrwt>
<pdfrwt beam="2">  1       -2 0.13884359E-01 0.21402831E+03</pdfrwt>
<totfact> 0.23259001E+03</totfact>
</mgrwt>
</event>
<event>
 4    1  0.8130725E-001  0.2455696E+03  0.7546771E-02  0.1116137E+00
          1   -1    0    0  502    0  0.00000000000E+00  0.00000000000E+00  0.93826834324E+03  0.93826834324E+03  0.00000000000E+00 0. -1.
         -1   -1    0    0    0  501 -0.00000000000E+00 -0.00000000000E+00 -0.72702732566E+02  0.72702732566E+02  0.00000000000E+00 0.  1.
          6    1    1    2  502    0 -0.17408461436E+03 -0.83640924907E+01  0.60491624787E+03  0.65286145386E+03  0.17300000000E+03 0. -1.
         -6    1    1    2    0  501  0.17408461436E+03  0.83640924907E+01  0.26064936281E+03  0.35810962195E+03  0.17300000000E+03 0.  1.
<mgrwt>
<rscale>  2 0.24556956E+03</rscale>
<asrwt>0</asrwt>
<pdfrwt beam="1">  1        1 0.14434897E+00 0.24556956E+03</pdfrwt>
<pdfrwt beam="2">  1       -1 0.11185036E-01 0.24556956E+03</pdfrwt>
<totfact> 0.91466515E+02</totfact>
</mgrwt>
</event>
<event>
 4    1  0.8130725E-001  0.2306878E+03  0.7546771E-02  0.1126157E+00
          2   -1    0    0  502    0  0.00000000000E+00  0.00000000000E+00  0.20422856407E+03  0.20422856407E+03  0.00000000000E+00 0.  1.
         -2   -1    0    0    0  501 -0.00000000000E+00 -0.00000000000E+00 -0.26057512961E+03  0.26057512961E+03  0.00000000000E+00 0. -1.
          6    1    1    2  502    0  0.13639645846E+03  0.68438846742E+02 -0.28296378562E+02  0.23241676932E+03  0.17300000000E+03 0.  1.
         -6    1    1    2    0  501 -0.13639645846E+03 -0.68438846742E+02 -0.28050186978E+02  0.23238692436E+03  0.17300000000E+03 0.  1.
<mgrwt>
<rscale>  2 0.23068782E+03</rscale>
<asrwt>0</asrwt>
<pdfrwt beam="1">  1        2 0.31419779E-01 0.23068782E+03</pdfrwt>
<pdfrwt beam="2">  1       -2 0.40088481E-01 0.23068782E+03</pdfrwt>
<totfact> 0.98665536E+02</totfact>
</mgrwt>
</event>
<event>
 4    1  0.8130725E-001  0.1822742E+03  0.7546771E-02  0.1165620E+00
          2   -1    0    0  502    0  0.00000000000E+00  0.00000000000E+00  0.35381276782E+04  0.35381276782E+04  0.00000000000E+00 0.  1.
         -2   -1    0    0    0  501 -0.00000000000E+00 -0.00000000000E+00 -0.95709968776E+01  0.95709968776E+01  0.00000000000E+00 0. -1.
          6    1    1    2  502    0 -0.37174997882E+02 -0.43736709522E+02  0.20080489950E+04  0.20163047008E+04  0.17300000000E+03 0.  1.
         -6    1    1    2    0  501  0.37174997882E+02  0.43736709522E+02  0.15205076863E+04  0.15313939742E+04  0.17300000000E+03 0. -1.
<mgrwt>
<rscale>  2 0.18227419E+03</rscale>
<asrwt>0</asrwt>
<pdfrwt beam="1">  1        2 0.54432629E+00 0.18227419E+03</pdfrwt>
<pdfrwt beam="2">  1       -2 0.14724639E-02 0.18227419E+03</pdfrwt>
<totfact> 0.11850078E+03</totfact>
</mgrwt>
</event>
<event>
 4    1  0.8130725E-001  0.2406493E+03  0.7546771E-02  0.1119361E+00
         -1   -1    0    0    0  501 -0.00000000000E+00  0.00000000000E+00  0.24725168417E+03  0.24725168417E+03  0.00000000000E+00 0.  1.
          1   -1    0    0  502    0  0.00000000000E+00 -0.00000000000E+00 -0.67060496861E+03  0.67060496861E+03  0.00000000000E+00 0. -1.
          6    1    1    2  502    0  0.16277249996E+03 -0.38577462670E+02  0.15853044307E+03  0.28817357400E+03  0.17300000000E+03 0.  1.
         -6    1    1    2    0  501 -0.16277249996E+03  0.38577462670E+02 -0.58188372751E+03  0.62968307879E+03  0.17300000000E+03 0. -1.
<mgrwt>
<rscale>  2 0.24064935E+03</rscale>
<asrwt>0</asrwt>
<pdfrwt beam="2">  1        1 0.10317000E+00 0.24064935E+03</pdfrwt>
<pdfrwt beam="1">  1       -1 0.38038721E-01 0.24064935E+03</pdfrwt>
<totfact> 0.20563917E+02</totfact>
</mgrwt>
</event>
<event>
 4    1  0.8130725E-001  0.2040629E+03  0.7546771E-02  0.1146356E+00
         -1   -1    0    0    0  501 -0.00000000000E+00  0.00000000000E+00  0.15354728932E+03  0.15354728932E+03  0.00000000000E+00 0. -1.
          1   -1    0    0  502    0  0.00000000000E+00 -0.00000000000E+00 -0.29465708685E+03  0.29465708685E+03  0.00000000000E+00 0.  1.
          6    1    1    2  502    0 -0.61096093510E+02 -0.89330463014E+02 -0.13378828338E+03  0.24401018224E+03  0.17300000000E+03 0.  1.
         -6    1    1    2    0  501  0.61096093510E+02  0.89330463014E+02 -0.73215141489E+01  0.20419419393E+03  0.17300000000E+03 0. -1.
<mgrwt>
<rscale>  2 0.20406289E+03</rscale>
<asrwt>0</asrwt>
<pdfrwt beam="2">  1        1 0.45331859E-01 0.20406289E+03</pdfrwt>
<pdfrwt beam="1">  1       -1 0.23622660E-01 0.20406289E+03</pdfrwt>
<totfact> 0.13655035E+03</totfact>
</mgrwt>
</event>
<event>
 4    1  0.8130725E-001  0.1785268E+03  0.7546771E-02  0.1169236E+00
         -1   -1    0    0    0  501 -0.00000000000E+00  0.00000000000E+00  0.27256946448E+02  0.27256946448E+02  0.00000000000E+00 0.  1.
          1   -1    0    0  502    0  0.00000000000E+00 -0.00000000000E+00 -0.18176596504E+04  0.18176596504E+04  0.00000000000E+00 0. -1.
          6    1    1    2  502    0  0.16210132016E+02 -0.40988593448E+02 -0.34427323416E+03  0.38780909341E+03  0.17300000000E+03 0.  1.
         -6    1    1    2    0  501 -0.16210132016E+02  0.40988593448E+02 -0.14461294698E+04  0.14571075035E+04  0.17300000000E+03 0. -1.
<mgrwt>
<rscale>  2 0.17852684E+03</rscale>
<asrwt>0</asrwt>
<pdfrwt beam="2">  1        1 0.27963992E+00 0.17852684E+03</pdfrwt>
<pdfrwt beam="1">  1       -1 0.41933767E-02 0.17852684E+03</pdfrwt>
<totfact> 0.10240358E+03</totfact>
</mgrwt>
</event>
<event>
 4    1  0.8130725E-001  0.2160731E+03  0.7546771E-02  0.1136845E+00
          2   -1    0    0  502    0  0.00000000000E+00  0.00000000000E+00  0.11235346270E+03  0.11235346270E+03  0.00000000000E+00 0.  1.
         -2   -1    0    0    0  501 -0.00000000000E+00 -0.00000000000E+00 -0.42094803099E+03  0.42094803099E+03  0.00000000000E+00 0. -1.
          6    1    1    2  502    0 -0.88808444271E+02  0.94189415825E+02 -0.12407921753E+03  0.24916508192E+03  0.17300000000E+03 0. -1.
         -6    1    1    2    0  501  0.88808444271E+02 -0.94189415825E+02 -0.18451535076E+03  0.28413641177E+03  0.17300000000E+03 0. -1.
<mgrwt>
<rscale>  2 0.21607310E+03</rscale>
<asrwt>0</asrwt>
<pdfrwt beam="1">  1        2 0.17285148E-01 0.21607310E+03</pdfrwt>
<pdfrwt beam="2">  1       -2 0.64761235E-01 0.21607310E+03</pdfrwt>
<totfact> 0.73919450E+02</totfact>
</mgrwt>
</event>
<event>
 4    1  0.8130725E-001  0.2610081E+03  0.7546771E-02  0.1106539E+00
          2   -1    0    0  502    0  0.00000000000E+00  0.00000000000E+00  0.61891848648E+03  0.61891848648E+03  0.00000000000E+00 0.  1.
         -2   -1    0    0    0  501 -0.00000000000E+00 -0.00000000000E+00 -0.26828998393E+03  0.26828998393E+03  0.00000000000E+00 0. -1.
          6    1    1    2  502    0  0.22016052296E+02  0.19419452601E+03 -0.16534658571E+03  0.30897364596E+03  0.17300000000E+03 0. -1.
         -6    1    1    2    0  501 -0.22016052296E+02 -0.19419452601E+03  0.51597508827E+03  0.57823482445E+03  0.17300000000E+03 0.  1.
<mgrwt>
<rscale>  2 0.26100809E+03</rscale>
<asrwt>0</asrwt>
<pdfrwt beam="1">  1        2 0.95218228E-01 0.26100809E+03</pdfrwt>
<pdfrwt beam="2">  1       -2 0.41275382E-01 0.26100809E+03</pdfrwt>
<totfact> 0.27530667E+02</totfact>
</mgrwt>
</event>
<event>
 4    1  0.8130725E-001  0.2000719E+03  0.7546771E-02  0.1149678E+00
          1   -1    0    0  502    0  0.00000000000E+00  0.00000000000E+00  0.11457365683E+04  0.11457365683E+04  0.00000000000E+00 0.  1.
         -1   -1    0    0    0  501 -0.00000000000E+00 -0.00000000000E+00 -0.35102258159E+02  0.35102258159E+02  0.00000000000E+00 0. -1.
          6    1    1    2  502    0  0.82915715770E+02 -0.56786942379E+02  0.51482465286E+03  0.55233431538E+03  0.17300000000E+03 0.  1.
         -6    1    1    2    0  501 -0.82915715770E+02  0.56786942379E+02  0.59580965727E+03  0.62850451108E+03  0.17300000000E+03 0.  1.
<mgrwt>
<rscale>  2 0.20007192E+03</rscale>
<asrwt>0</asrwt>
<pdfrwt beam="1">  1        1 0.17626714E+00 0.20007192E+03</pdfrwt>
<pdfrwt beam="2">  1       -1 0.54003483E-02 0.20007192E+03</pdfrwt>
<totfact> 0.19568465E+03</totfact>
</mgrwt>
</event>
<event>
 4    1  0.8130725E-001  0.2145073E+03  0.7546771E-02  0.1138046E+00
          1   -1    0    0  502    0  0.00000000000E+00  0.00000000000E+00  0.12042146647E+04  0.12042146647E+04  0.00000000000E+00 0.  1.
         -1   -1    0    0    0  501 -0.00000000000E+00 -0.00000000000E+00 -0.39830375999E+02  0.39830375999E+02  0.00000000000E+00 0. -1.
          6    1    1    2  502    0 -0.78118421726E+02  0.99909489315E+02  0.45674300588E+03  0.50460634884E+03  0.17300000000E+03 0. -1.
         -6    1    1    2    0  501  0.78118421726E+02 -0.99909489315E+02  0.70764128286E+03  0.73943869190E+03  0.17300000000E+03 0.  1.
<mgrwt>
<rscale>  2 0.21450733E+03</rscale>
<asrwt>0</asrwt>
<pdfrwt beam="1">  1        1 0.18526377E+00 0.21450733E+03</pdfrwt>
<pdfrwt beam="2">  1       -1 0.61277511E-02 0.21450733E+03</pdfrwt>
<totfact> 0.14731596E+03</totfact>
</mgrwt>
</event>
<event>
 4    1  0.8130725E-001  0.1772700E+03  0.7546771E-02  0.1170472E+00
         -2   -1    0    0    0  501 -0.00000000000E+00  0.00000000000E+00  0.22170080536E+02  0.22170080536E+02  0.00000000000E+00 0.  1.
          2   -1    0    0  502    0  0.00000000000E+00 -0.00000000000E+00 -0.21913997831E+04  0.21913997831E+04  0.00000000000E+00 0. -1.
          6    1    1    2  502    0  0.12511166833E+02 -0.36594035207E+02 -0.42686164710E+03  0.46220722460E+03  0.17300000000E+03 0.  1.
         -6    1    1    2    0  501 -0.12511166833E+02  0.36594035207E+02 -0.17423680555E+04  0.17513626391E+04  0.17300000000E+03 0. -1.
<mgrwt>
<rscale>  2 0.17727000E+03</rscale>
<asrwt>0</asrwt>
<pdfrwt beam="2">  1        2 0.33713839E+00 0.17727000E+03</pdfrwt>
<pdfrwt beam="1">  1       -2 0.34107820E-02 0.17727000E+03</pdfrwt>
<totfact> 0.20709097E+03</totfact>
</mgrwt>
</event>
<event>
 4    1  0.8130725E-001  0.1806699E+03  0.7546771E-02  0.1167156E+00
          2   -1    0    0  502    0  0.00000000000E+00  0.00000000000E+00  0.25839297267E+03  0.25839297267E+03  0.00000000000E+00 0.  1.
         -2   -1    0    0    0  501 -0.00000000000E+00 -0.00000000000E+00 -0.14927230775E+03  0.14927230775E+03  0.00000000000E+00 0. -1.
          6    1    1    2  502    0 -0.50864503483E+02 -0.11198493007E+02 -0.25357902937E+02  0.18244074984E+03  0.17300000000E+03 0. -1.
         -6    1    1    2    0  501  0.50864503483E+02  0.11198493007E+02  0.13447856786E+03  0.22522453058E+03  0.17300000000E+03 0.  1.
<mgrwt>
<rscale>  2 0.18066988E+03</rscale>
<asrwt>0</asrwt>
<pdfrwt beam="1">  1        2 0.39752765E-01 0.18066988E+03</pdfrwt>
<pdfrwt beam="2">  1       -2 0.22964970E-01 0.18066988E+03</pdfrwt>
<totfact> 0.20932829E+03</totfact>
</mgrwt>
</event>
<event>
 4    1  0.8130725E-001  0.1810093E+03  0.7546771E-02  0.1166830E+00
          1   -1    0    0  502    0  0.00000000000E+00  0.00000000000E+00  0.85568616171E+03  0.85568616171E+03  0.00000000000E+00 0. -1.
         -1   -1    0    0    0  501 -0.00000000000E+00 -0.00000000000E+00 -0.38720639083E+02  0.38720639083E+02  0.00000000000E+00 0.  1.
          6    1    1    2  502    0  0.26035047151E+02 -0.46449194808E+02  0.36132914853E+03  0.40413253390E+03  0.17300000000E+03 0.  1.
         -6    1    1    2    0  501 -0.26035047151E+02  0.46449194808E+02  0.45563637409E+03  0.49027426689E+03  0.17300000000E+03 0. -1.
<mgrwt>
<rscale>  2 0.18100926E+03</rscale>
<asrwt>0</asrwt>
<pdfrwt beam="1">  1        1 0.13164401E+00 0.18100926E+03</pdfrwt>
<pdfrwt beam="2">  1       -1 0.59570220E-02 0.18100926E+03</pdfrwt>
<totfact> 0.27729516E+03</totfact>
</mgrwt>
</event>
<event>
 4    1  0.8130725E-001  0.1898483E+03  0.7546771E-02  0.1158598E+00
         -1   -1    0    0    0  501 -0.00000000000E+00  0.00000000000E+00  0.17807180192E+03  0.17807180192E+03  0.00000000000E+00 0.  1.
          1   -1    0    0  502    0  0.00000000000E+00 -0.00000000000E+00 -0.22956827943E+03  0.22956827943E+03  0.00000000000E+00 0. -1.
          6    1    1    2  502    0 -0.39588352121E+02  0.67424947200E+02  0.44363994998E+02  0.19496288155E+03  0.17300000000E+03 0.  1.
         -6    1    1    2    0  501  0.39588352121E+02 -0.67424947200E+02 -0.95860472504E+02  0.21267719981E+03  0.17300000000E+03 0. -1.
<mgrwt>
<rscale>  2 0.18984826E+03</rscale>
<asrwt>0</asrwt>
<pdfrwt beam="2">  1        1 0.35318197E-01 0.18984826E+03</pdfrwt>
<pdfrwt beam="1">  1       -1 0.27395662E-01 0.18984826E+03</pdfrwt>
<totfact> 0.14565541E+03</totfact>
</mgrwt>
</event>
<event>
 4    1  0.8130725E-001  0.2050432E+03  0.7546771E-02  0.1145552E+00
          2   -1    0    0  502    0  0.00000000000E+00  0.00000000000E+00  0.10880262227E+04  0.10880262227E+04  0.00000000000E+00 0. -1.
         -2   -1    0    0    0  501 -0.00000000000E+00 -0.00000000000E+00 -0.39066083410E+02  0.39066083410E+02  0.00000000000E+00 0.  1.
          6    1    1    2  502    0  0.10676065393E+03 -0.26755987856E+02  0.58324608950E+03  0.61823840145E+03  0.17300000000E+03 0.  1.
         -6    1    1    2    0  501 -0.10676065393E+03  0.26755987856E+02  0.46571404982E+03  0.50885390469E+03  0.17300000000E+03 0. -1.
<mgrwt>
<rscale>  2 0.20504322E+03</rscale>
<asrwt>0</asrwt>
<pdfrwt beam="1">  1        2 0.16738863E+00 0.20504322E+03</pdfrwt>
<pdfrwt beam="2">  1       -2 0.60101675E-02 0.20504322E+03</pdfrwt>
<totfact> 0.34068364E+03</totfact>
</mgrwt>
</event>
<event>
 4    1  0.8130725E-001  0.1734423E+03  0.7546771E-02  0.1174305E+00
         -2   -1    0    0    0  501 -0.00000000000E+00  0.00000000000E+00  0.16259390483E+02  0.16259390483E+02  0.00000000000E+00 0. -1.
          2   -1    0    0  502    0  0.00000000000E+00 -0.00000000000E+00 -0.26609414547E+04  0.26609414547E+04  0.00000000000E+00 0.  1.
          6    1    1    2  502    0 -0.12351999753E+02  0.81085762454E+00 -0.58343497147E+03  0.60866952883E+03  0.17300000000E+03 0. -1.
         -6    1    1    2    0  501  0.12351999753E+02 -0.81085762454E+00 -0.20612470928E+04  0.20685313164E+04  0.17300000000E+03 0.  1.
<mgrwt>
<rscale>  2 0.17344229E+03</rscale>
<asrwt>0</asrwt>
<pdfrwt beam="2">  1        2 0.40937546E+00 0.17344229E+03</pdfrwt>
<pdfrwt beam="1">  1       -2 0.25014456E-02 0.17344229E+03</pdfrwt>
<totfact> 0.18363961E+03</totfact>
</mgrwt>
</event>
<event>
 4    1  0.8130725E-001  0.1914605E+03  0.7546771E-02  0.1157151E+00
          1   -1    0    0  502    0  0.00000000000E+00  0.00000000000E+00  0.55456143358E+02  0.55456143358E+02  0.00000000000E+00 0. -1.
         -1   -1    0    0    0  501 -0.00000000000E+00 -0.00000000000E+00 -0.66528312981E+03  0.66528312981E+03  0.00000000000E+00 0.  1.
          6    1    1    2  502    0 -0.74759950554E+02  0.33750016147E+02 -0.27603506485E+03  0.33593521820E+03  0.17300000000E+03 0. -1.
         -6    1    1    2    0  501  0.74759950554E+02 -0.33750016147E+02 -0.33379192160E+03  0.38480405497E+03  0.17300000000E+03 0.  1.
<mgrwt>
<rscale>  2 0.19146048E+03</rscale>
<asrwt>0</asrwt>
<pdfrwt beam="1">  1        1 0.85317146E-02 0.19146048E+03</pdfrwt>
<pdfrwt beam="2">  1       -1 0.10235125E+00 0.19146048E+03</pdfrwt>
<totfact> 0.75839207E+02</totfact>
</mgrwt>
</event>
<event>
 4    1  0.8130725E-001  0.2007638E+03  0.7546771E-02  0.1149096E+00
          1   -1    0    0  502    0  0.00000000000E+00  0.00000000000E+00  0.19473966137E+03  0.19473966137E+03  0.00000000000E+00 0.  1.
         -1   -1    0    0    0  501 -0.00000000000E+00 -0.00000000000E+00 -0.32621021505E+03  0.32621021505E+03  0.00000000000E+00 0. -1.
          6    1    1    2  502    0  0.10183172483E+03 -0.27214491977E+01  0.91743015605E+02  0.22073261513E+03  0.17300000000E+03 0.  1.
         -6    1    1    2    0  501 -0.10183172483E+03  0.27214491977E+01 -0.22321356929E+03  0.30021726130E+03  0.17300000000E+03 0. -1.
<mgrwt>
<rscale>  2 0.20076381E+03</rscale>
<asrwt>0</asrwt>
<pdfrwt beam="1">  1        1 0.29959948E-01 0.20076381E+03</pdfrwt>
<pdfrwt beam="2">  1       -1 0.50186186E-01 0.20076381E+03</pdfrwt>
<totfact> 0.62070731E+02</totfact>
</mgrwt>
</event>
<event>
 4    1  0.8130725E-001  0.1738298E+03  0.7546771E-02  0.1173912E+00
          2   -1    0    0  502    0  0.00000000000E+00  0.00000000000E+00  0.10348448539E+04  0.10348448539E+04  0.00000000000E+00 0.  1.
         -2   -1    0    0    0  501 -0.00000000000E+00 -0.00000000000E+00 -0.29280728500E+02  0.29280728500E+02  0.00000000000E+00 0. -1.
          6    1    1    2  502    0 -0.56815043254E+01  0.15985367507E+02  0.47473485037E+03  0.50555908619E+03  0.17300000000E+03 0. -1.
         -6    1    1    2    0  501  0.56815043254E+01 -0.15985367507E+02  0.53082927498E+03  0.55856649617E+03  0.17300000000E+03 0.  1.
<mgrwt>
<rscale>  2 0.17382983E+03</rscale>
<asrwt>0</asrwt>
<pdfrwt beam="1">  1        2 0.15920687E+00 0.17382983E+03</pdfrwt>
<pdfrwt beam="2">  1       -2 0.45047283E-02 0.17382983E+03</pdfrwt>
<totfact> 0.56459322E+03</totfact>
</mgrwt>
</event>
<event>
 4    1  0.8130725E-001  0.1799063E+03  0.7546771E-02  0.1167894E+00
          4   -1    0    0  502    0  0.00000000000E+00  0.00000000000E+00  0.22205622119E+02  0.22205622119E+02  0.00000000000E+00 0.  1.
         -4   -1    0    0    0  501 -0.00000000000E+00 -0.00000000000E+00 -0.14602314802E+04  0.14602314802E+04  0.00000000000E+00 0. -1.
          6    1    1    2  502    0 -0.44963899743E+02 -0.20384042646E+02 -0.68737195440E+03  0.71052548523E+03  0.17300000000E+03 0. -1.
         -6    1    1    2    0  501  0.44963899743E+02  0.20384042646E+02 -0.75065390365E+03  0.77191161705E+03  0.17300000000E+03 0.  1.
<mgrwt>
<rscale>  2 0.17990626E+03</rscale>
<asrwt>0</asrwt>
<pdfrwt beam="1">  1        4 0.34162486E-02 0.17990626E+03</pdfrwt>
<pdfrwt beam="2">  1       -4 0.22465106E+00 0.17990626E+03</pdfrwt>
<totfact> 0.79227281E+01</totfact>
</mgrwt>
</event>
<event>
 4    1  0.8130725E-001  0.2430083E+03  0.7546771E-02  0.1117805E+00
          1   -1    0    0  502    0  0.00000000000E+00  0.00000000000E+00  0.49887308349E+03  0.49887308349E+03  0.00000000000E+00 0.  1.
         -1   -1    0    0    0  501 -0.00000000000E+00 -0.00000000000E+00 -0.11882715012E+03  0.11882715012E+03  0.00000000000E+00 0. -1.
          6    1    1    2  502    0  0.16314798487E+03  0.50067558423E+02  0.17092599411E+03  0.29710052311E+03  0.17300000000E+03 0. -1.
         -6    1    1    2    0  501 -0.16314798487E+03 -0.50067558423E+02  0.20911993926E+03  0.32059971050E+03  0.17300000000E+03 0.  1.
<mgrwt>
<rscale>  2 0.24300828E+03</rscale>
<asrwt>0</asrwt>
<pdfrwt beam="1">  1        1 0.76749704E-01 0.24300828E+03</pdfrwt>
<pdfrwt beam="2">  1       -1 0.18281100E-01 0.24300828E+03</pdfrwt>
<totfact> 0.10588193E+03</totfact>
</mgrwt>
</event>
<event>
 4    1  0.8130725E-001  0.2255919E+03  0.7546771E-02  0.1129781E+00
          1   -1    0    0  502    0  0.00000000000E+00  0.00000000000E+00  0.80220717598E+02  0.80220717598E+02  0.00000000000E+00 0.  1.
         -1   -1    0    0    0  501 -0.00000000000E+00 -0.00000000000E+00 -0.64231312503E+03  0.64231312503E+03  0.00000000000E+00 0. -1.
          6    1    1    2  502    0  0.11082781022E+03  0.93165912304E+02 -0.32115526771E+03  0.39246961247E+03  0.17300000000E+03 0.  1.
         -6    1    1    2    0  501 -0.11082781022E+03 -0.93165912304E+02 -0.24093713973E+03  0.33006423016E+03  0.17300000000E+03 0.  1.
<mgrwt>
<rscale>  2 0.22559187E+03</rscale>
<asrwt>0</asrwt>
<pdfrwt beam="1">  1        1 0.12341649E-01 0.22559187E+03</pdfrwt>
<pdfrwt beam="2">  1       -1 0.98817403E-01 0.22559187E+03</pdfrwt>
<totfact> 0.50078759E+02</totfact>
</mgrwt>
</event>
<event>
 4    1  0.8130725E-001  0.1969479E+03  0.7546771E-02  0.1152340E+00
          2   -1    0    0  502    0  0.00000000000E+00  0.00000000000E+00  0.26423449523E+04  0.26423449523E+04  0.00000000000E+00 0.  1.
         -2   -1    0    0    0  501 -0.00000000000E+00 -0.00000000000E+00 -0.20472090098E+02  0.20472090098E+02  0.00000000000E+00 0. -1.
          6    1    1    2  502    0  0.86210089771E+02  0.37779721967E+02  0.60272321827E+03  0.63408498233E+03  0.17300000000E+03 0. -1.
         -6    1    1    2    0  501 -0.86210089771E+02 -0.37779721967E+02  0.20191496439E+04  0.20287320601E+04  0.17300000000E+03 0.  1.
<mgrwt>
<rscale>  2 0.19694793E+03</rscale>
<asrwt>0</asrwt>
<pdfrwt beam="1">  1        2 0.40651434E+00 0.19694793E+03</pdfrwt>
<pdfrwt beam="2">  1       -2 0.31495544E-02 0.19694793E+03</pdfrwt>
<totfact> 0.13323569E+03</totfact>
</mgrwt>
</event>
<event>
 4    1  0.8130725E-001  0.1996257E+03  0.7546771E-02  0.1150055E+00
          1   -1    0    0  502    0  0.00000000000E+00  0.00000000000E+00  0.58500836964E+02  0.58500836964E+02  0.00000000000E+00 0. -1.
         -1   -1    0    0    0  501 -0.00000000000E+00 -0.00000000000E+00 -0.68156395896E+03  0.68156395896E+03  0.00000000000E+00 0.  1.
          6    1    1    2  502    0 -0.34817948166E+02 -0.93322627142E+02 -0.32015603370E+03  0.37729337148E+03  0.17300000000E+03 0. -1.
         -6    1    1    2    0  501  0.34817948166E+02  0.93322627142E+02 -0.30290708830E+03  0.36277142444E+03  0.17300000000E+03 0.  1.
<mgrwt>
<rscale>  2 0.19962566E+03</rscale>
<asrwt>0</asrwt>
<pdfrwt beam="1">  1        1 0.90001284E-02 0.19962566E+03</pdfrwt>
<pdfrwt beam="2">  1       -1 0.10485600E+00 0.19962566E+03</pdfrwt>
<totfact> 0.66866294E+02</totfact>
</mgrwt>
</event>
<event>
 4    1  0.8130725E-001  0.2854032E+03  0.7546771E-02  0.1092774E+00
         -2   -1    0    0    0  501 -0.00000000000E+00  0.00000000000E+00  0.54615738045E+03  0.54615738045E+03  0.00000000000E+00 0. -1.
          2   -1    0    0  502    0  0.00000000000E+00 -0.00000000000E+00 -0.17007205244E+03  0.17007205244E+03  0.00000000000E+00 0.  1.
          6    1    1    2  502    0 -0.22293696432E+03  0.42721396977E+02  0.62413410743E+02  0.29214797904E+03  0.17300000000E+03 0.  1.
         -6    1    1    2    0  501  0.22293696432E+03 -0.42721396977E+02  0.31367191727E+03  0.42408145385E+03  0.17300000000E+03 0.  1.
<mgrwt>
<rscale>  2 0.28540324E+03</rscale>
<asrwt>0</asrwt>
<pdfrwt beam="2">  1        2 0.26164931E-01 0.28540324E+03</pdfrwt>
<pdfrwt beam="1">  1       -2 0.84024212E-01 0.28540324E+03</pdfrwt>
<totfact> 0.26200921E+02</totfact>
</mgrwt>
</event>
<event>
 4    1  0.8130725E-001  0.1750040E+03  0.7546771E-02  0.1172728E+00
          2   -1    0    0  502    0  0.00000000000E+00  0.00000000000E+00  0.84407284895E+02  0.84407284895E+02  0.00000000000E+00 0.  1.
         -2   -1    0    0    0  501 -0.00000000000E+00 -0.00000000000E+00 -0.38648610788E+03  0.38648610788E+03  0.00000000000E+00 0. -1.
          6    1    1    2  502    0 -0.26133283442E+02  0.38006241901E+01 -0.20927649476E+03  0.27280587330E+03  0.17300000000E+03 0. -1.
         -6    1    1    2    0  501  0.26133283442E+02 -0.38006241901E+01 -0.92802328220E+02  0.19808751947E+03  0.17300000000E+03 0.  1.
<mgrwt>
<rscale>  2 0.17500398E+03</rscale>
<asrwt>0</asrwt>
<pdfrwt beam="1">  1        2 0.12985736E-01 0.17500398E+03</pdfrwt>
<pdfrwt beam="2">  1       -2 0.59459400E-01 0.17500398E+03</pdfrwt>
<totfact> 0.12314394E+03</totfact>
</mgrwt>
</event>
<event>
 4    1  0.8130725E-001  0.1762631E+03  0.7546771E-02  0.1171469E+00
         -2   -1    0    0    0  501 -0.00000000000E+00  0.00000000000E+00  0.23955233695E+03  0.23955233695E+03  0.00000000000E+00 0.  1.
          2   -1    0    0  502    0  0.00000000000E+00 -0.00000000000E+00 -0.13628153409E+03  0.13628153409E+03  0.00000000000E+00 0. -1.
          6    1    1    2  502    0 -0.26577717458E+01 -0.33654183625E+02  0.92948318982E+02  0.19926880796E+03  0.17300000000E+03 0.  1.
         -6    1    1    2    0  501  0.26577717458E+01  0.33654183625E+02  0.10322483874E+02  0.17656506308E+03  0.17300000000E+03 0.  1.
<mgrwt>
<rscale>  2 0.17626306E+03</rscale>
<asrwt>0</asrwt>
<pdfrwt beam="2">  1        2 0.20966390E-01 0.17626306E+03</pdfrwt>
<pdfrwt beam="1">  1       -2 0.36854206E-01 0.17626306E+03</pdfrwt>
<totfact> 0.18017619E+03</totfact>
</mgrwt>
</event>
<event>
 4    1  0.8130725E-001  0.2028722E+03  0.7546771E-02  0.1147338E+00
         -1   -1    0    0    0  501 -0.00000000000E+00  0.00000000000E+00  0.45263836844E+03  0.45263836844E+03  0.00000000000E+00 0.  1.
          1   -1    0    0  502    0  0.00000000000E+00 -0.00000000000E+00 -0.91814066118E+02  0.91814066118E+02  0.00000000000E+00 0. -1.
          6    1    1    2  502    0  0.90472227612E+02  0.55162377959E+02  0.20716803292E+03  0.28995811038E+03  0.17300000000E+03 0.  1.
         -6    1    1    2    0  501 -0.90472227612E+02 -0.55162377959E+02  0.15365626939E+03  0.25449432417E+03  0.17300000000E+03 0.  1.
<mgrwt>
<rscale>  2 0.20287216E+03</rscale>
<asrwt>0</asrwt>
<pdfrwt beam="2">  1        1 0.14125241E-01 0.20287216E+03</pdfrwt>
<pdfrwt beam="1">  1       -1 0.69636671E-01 0.20287216E+03</pdfrwt>
<totfact> 0.87134325E+02</totfact>
</mgrwt>
</event>
<event>
 4    1  0.8130725E-001  0.1995656E+03  0.7546771E-02  0.1150106E+00
          2   -1    0    0  502    0  0.00000000000E+00  0.00000000000E+00  0.18862392593E+04  0.18862392593E+04  0.00000000000E+00 0.  1.
         -2   -1    0    0    0  501 -0.00000000000E+00 -0.00000000000E+00 -0.26068469170E+02  0.26068469170E+02  0.00000000000E+00 0. -1.
          6    1    1    2  502    0 -0.62560861229E+02 -0.77353585331E+02  0.13469160881E+04  0.13616201331E+04  0.17300000000E+03 0.  1.
         -6    1    1    2    0  501  0.62560861229E+02  0.77353585331E+02  0.51325470203E+03  0.55068759535E+03  0.17300000000E+03 0. -1.
<mgrwt>
<rscale>  2 0.19956562E+03</rscale>
<asrwt>0</asrwt>
<pdfrwt beam="1">  1        2 0.29019055E+00 0.19956562E+03</pdfrwt>
<pdfrwt beam="2">  1       -2 0.40105352E-02 0.19956562E+03</pdfrwt>
<totfact> 0.23401315E+03</totfact>
</mgrwt>
</event>
<event>
 4    1  0.8130725E-001  0.3244593E+03  0.7546771E-02  0.1073615E+00
          2   -1    0    0  502    0  0.00000000000E+00  0.00000000000E+00  0.16260201211E+04  0.16260201211E+04  0.00000000000E+00 0. -1.
         -2   -1    0    0    0  501 -0.00000000000E+00 -0.00000000000E+00 -0.66238958147E+02  0.66238958147E+02  0.00000000000E+00 0.  1.
          6    1    1    2  502    0 -0.19053175664E+03 -0.19759168516E+03  0.90703690218E+03  0.96332225462E+03  0.17300000000E+03 0.  1.
         -6    1    1    2    0  501  0.19053175664E+03  0.19759168516E+03  0.65274426081E+03  0.72893682466E+03  0.17300000000E+03 0. -1.
<mgrwt>
<rscale>  2 0.32445928E+03</rscale>
<asrwt>0</asrwt>
<pdfrwt beam="1">  1        2 0.25015691E+00 0.32445928E+03</pdfrwt>
<pdfrwt beam="2">  1       -2 0.10190610E-01 0.32445928E+03</pdfrwt>
<totfact> 0.74989132E+02</totfact>
</mgrwt>
</event>
<event>
 4    1  0.8130725E-001  0.1800314E+03  0.7546771E-02  0.1167773E+00
          2   -1    0    0  502    0  0.00000000000E+00  0.00000000000E+00  0.42809460200E+03  0.42809460200E+03  0.00000000000E+00 0. -1.
         -2   -1    0    0    0  501 -0.00000000000E+00 -0.00000000000E+00 -0.78429974306E+02  0.78429974306E+02  0.00000000000E+00 0.  1.
          6    1    1    2  502    0 -0.43601765583E+02 -0.24107730295E+02  0.22199130011E+03  0.28581713375E+03  0.17300000000E+03 0. -1.
         -6    1    1    2    0  501  0.43601765583E+02  0.24107730295E+02  0.12767332758E+03  0.22070744255E+03  0.17300000000E+03 0.  1.
<mgrwt>
<rscale>  2 0.18003138E+03</rscale>
<asrwt>0</asrwt>
<pdfrwt beam="1">  1        2 0.65860706E-01 0.18003138E+03</pdfrwt>
<pdfrwt beam="2">  1       -2 0.12066150E-01 0.18003138E+03</pdfrwt>
<totfact> 0.35587878E+03</totfact>
</mgrwt>
</event>
<event>
 4    1  0.8130725E-001  0.1859300E+03  0.7546771E-02  0.1162184E+00
          2   -1    0    0  502    0  0.00000000000E+00  0.00000000000E+00  0.18822641523E+04  0.18822641523E+04  0.00000000000E+00 0. -1.
         -2   -1    0    0    0  501 -0.00000000000E+00 -0.00000000000E+00 -0.20941631302E+02  0.20941631302E+02  0.00000000000E+00 0.  1.
          6    1    1    2  502    0  0.68065082406E+02  0.28450779454E+01  0.59694335183E+03  0.62522901021E+03  0.17300000000E+03 0.  1.
         -6    1    1    2    0  501 -0.68065082406E+02 -0.28450779454E+01  0.12643791692E+04  0.12779767734E+04  0.17300000000E+03 0. -1.
<mgrwt>
<rscale>  2 0.18592996E+03</rscale>
<asrwt>0</asrwt>
<pdfrwt beam="1">  1        2 0.28957897E+00 0.18592996E+03</pdfrwt>
<pdfrwt beam="2">  1       -2 0.32217909E-02 0.18592996E+03</pdfrwt>
<totfact> 0.32609973E+03</totfact>
</mgrwt>
</event>
<event>
 4    1  0.8130725E-001  0.2099992E+03  0.7546771E-02  0.1141567E+00
          1   -1    0    0  502    0  0.00000000000E+00  0.00000000000E+00  0.16554655984E+03  0.16554655984E+03  0.00000000000E+00 0.  1.
         -1   -1    0    0    0  501 -0.00000000000E+00 -0.00000000000E+00 -0.35421075919E+03  0.35421075919E+03  0.00000000000E+00 0. -1.
          6    1    1    2  502    0 -0.98876181832E+02 -0.66288584092E+02  0.35070322355E+02  0.21290749922E+03  0.17300000000E+03 0.  1.
         -6    1    1    2    0  501  0.98876181832E+02  0.66288584092E+02 -0.22373452171E+03  0.30684981981E+03  0.17300000000E+03 0. -1.
<mgrwt>
<rscale>  2 0.20999923E+03</rscale>
<asrwt>0</asrwt>
<pdfrwt beam="1">  1        1 0.25468702E-01 0.20999923E+03</pdfrwt>
<pdfrwt beam="2">  1       -1 0.54493963E-01 0.20999923E+03</pdfrwt>
<totfact> 0.65392823E+02</totfact>
</mgrwt>
</event>
<event>
 4    1  0.8130725E-001  0.1863860E+03  0.7546771E-02  0.1161762E+00
         -1   -1    0    0    0  501 -0.00000000000E+00  0.00000000000E+00  0.47373891464E+02  0.47373891464E+02  0.00000000000E+00 0.  1.
          1   -1    0    0  502    0  0.00000000000E+00 -0.00000000000E+00 -0.85863203114E+03  0.85863203114E+03  0.00000000000E+00 0. -1.
          6    1    1    2  502    0 -0.17665007587E+02  0.67072162734E+02 -0.57869515626E+03  0.60797023890E+03  0.17300000000E+03 0. -1.
         -6    1    1    2    0  501  0.17665007587E+02 -0.67072162734E+02 -0.23256298342E+03  0.29803568371E+03  0.17300000000E+03 0.  1.
<mgrwt>
<rscale>  2 0.18638596E+03</rscale>
<asrwt>0</asrwt>
<pdfrwt beam="2">  1        1 0.13209723E+00 0.18638596E+03</pdfrwt>
<pdfrwt beam="1">  1       -1 0.72882912E-02 0.18638596E+03</pdfrwt>
<totfact> 0.20363132E+03</totfact>
</mgrwt>
</event>
<event>
 4    1  0.8130725E-001  0.3426799E+03  0.7546771E-02  0.1065660E+00
          1   -1    0    0  502    0  0.00000000000E+00  0.00000000000E+00  0.36877832276E+03  0.36877832276E+03  0.00000000000E+00 0. -1.
         -1   -1    0    0    0  501 -0.00000000000E+00 -0.00000000000E+00 -0.32830105706E+03  0.32830105706E+03  0.00000000000E+00 0.  1.
          6    1    1    2  502    0  0.46756684741E+02  0.29208621538E+03  0.80679395310E+02  0.35204929997E+03  0.17300000000E+03 0. -1.
         -6    1    1    2    0  501 -0.46756684741E+02 -0.29208621538E+03 -0.40202129610E+02  0.34503007986E+03  0.17300000000E+03 0.  1.
<mgrwt>
<rscale>  2 0.34267995E+03</rscale>
<asrwt>0</asrwt>
<pdfrwt beam="1">  1        1 0.56735127E-01 0.34267995E+03</pdfrwt>
<pdfrwt beam="2">  1       -1 0.50507855E-01 0.34267995E+03</pdfrwt>
<totfact> 0.27188820E+02</totfact>
</mgrwt>
</event>
<event>
 4    1  0.8130725E-001  0.1888332E+03  0.7546771E-02  0.1159518E+00
          2   -1    0    0  502    0  0.00000000000E+00  0.00000000000E+00  0.83099647941E+02  0.83099647941E+02  0.00000000000E+00 0. -1.
         -2   -1    0    0    0  501 -0.00000000000E+00 -0.00000000000E+00 -0.46163114850E+03  0.46163114850E+03  0.00000000000E+00 0.  1.
          6    1    1    2  502    0 -0.18140510838E+02 -0.73483984434E+02 -0.11696198858E+03  0.22212177037E+03  0.17300000000E+03 0.  1.
         -6    1    1    2    0  501  0.18140510838E+02  0.73483984434E+02 -0.26156951198E+03  0.32260902607E+03  0.17300000000E+03 0.  1.
<mgrwt>
<rscale>  2 0.18883319E+03</rscale>
<asrwt>0</asrwt>
<pdfrwt beam="1">  1        2 0.12784561E-01 0.18883319E+03</pdfrwt>
<pdfrwt beam="2">  1       -2 0.71020176E-01 0.18883319E+03</pdfrwt>
<totfact> 0.86601795E+02</totfact>
</mgrwt>
</event>
<event>
 4    1  0.8130725E-001  0.1793513E+03  0.7546771E-02  0.1168432E+00
         -2   -1    0    0    0  501 -0.00000000000E+00  0.00000000000E+00  0.78544597928E+01  0.78544597928E+01  0.00000000000E+00 0. -1.
          2   -1    0    0  502    0  0.00000000000E+00 -0.00000000000E+00 -0.41296977530E+04  0.41296977530E+04  0.00000000000E+00 0.  1.
          6    1    1    2  502    0  0.31987024210E+02  0.34853038847E+02 -0.18723010563E+04  0.18808716462E+04  0.17300000000E+03 0. -1.
         -6    1    1    2    0  501 -0.31987024210E+02 -0.34853038847E+02 -0.22495422369E+04  0.22566805666E+04  0.17300000000E+03 0.  1.
<mgrwt>
<rscale>  2 0.17935134E+03</rscale>
<asrwt>0</asrwt>
<pdfrwt beam="2">  1        2 0.63533722E+00 0.17935134E+03</pdfrwt>
<pdfrwt beam="1">  1       -2 0.12083801E-02 0.17935134E+03</pdfrwt>
<totfact> 0.59191996E+02</totfact>
</mgrwt>
</event>
<event>
 4    1  0.8130725E-001  0.2112820E+03  0.7546771E-02  0.1140555E+00
         -2   -1    0    0    0  501 -0.00000000000E+00  0.00000000000E+00  0.92867320796E+02  0.92867320796E+02  0.00000000000E+00 0.  1.
          2   -1    0    0  502    0  0.00000000000E+00 -0.00000000000E+00 -0.48666405057E+03  0.48666405057E+03  0.00000000000E+00 0. -1.
          6    1    1    2  502    0  0.11648902434E+03 -0.33784652674E+02 -0.16478521260E+03  0.26794451262E+03  0.17300000000E+03 0. -1.
         -6    1    1    2    0  501 -0.11648902434E+03  0.33784652674E+02 -0.22901151717E+03  0.31158685875E+03  0.17300000000E+03 0.  1.
<mgrwt>
<rscale>  2 0.21128203E+03</rscale>
<asrwt>0</asrwt>
<pdfrwt beam="2">  1        2 0.74871393E-01 0.21128203E+03</pdfrwt>
<pdfrwt beam="1">  1       -2 0.14287280E-01 0.21128203E+03</pdfrwt>
<totfact> 0.23616533E+03</totfact>
</mgrwt>
</event>
<event>
 4    1  0.8130725E-001  0.2205661E+03  0.7546771E-02  0.1133462E+00
          2   -1    0    0  502    0  0.00000000000E+00  0.00000000000E+00  0.38342877056E+03  0.38342877056E+03  0.00000000000E+00 0.  1.
         -2   -1    0    0    0  501 -0.00000000000E+00 -0.00000000000E+00 -0.12765030858E+03  0.12765030858E+03  0.00000000000E+00 0. -1.
          6    1    1    2  502    0  0.13595080886E+03 -0.15420017014E+02  0.14774154750E+03  0.26547497851E+03  0.17300000000E+03 0.  1.
         -6    1    1    2    0  501 -0.13595080886E+03  0.15420017014E+02  0.10803691448E+03  0.24560410063E+03  0.17300000000E+03 0.  1.
<mgrwt>
<rscale>  2 0.22056609E+03</rscale>
<asrwt>0</asrwt>
<pdfrwt beam="1">  1        2 0.58989041E-01 0.22056609E+03</pdfrwt>
<pdfrwt beam="2">  1       -2 0.19638509E-01 0.22056609E+03</pdfrwt>
<totfact> 0.18030716E+03</totfact>
</mgrwt>
</event>
<event>
 4    1  0.8130725E-001  0.1932405E+03  0.7546771E-02  0.1155571E+00
         -1   -1    0    0    0  501 -0.00000000000E+00  0.00000000000E+00  0.66350014346E+03  0.66350014346E+03  0.00000000000E+00 0. -1.
          1   -1    0    0  502    0  0.00000000000E+00 -0.00000000000E+00 -0.80790424560E+02  0.80790424560E+02  0.00000000000E+00 0.  1.
          6    1    1    2  502    0 -0.66434464233E+02  0.54766463935E+02  0.86377238186E+02  0.21166702834E+03  0.17300000000E+03 0.  1.
         -6    1    1    2    0  501  0.66434464233E+02 -0.54766463935E+02  0.49633248071E+03  0.53262353968E+03  0.17300000000E+03 0. -1.
<mgrwt>
<rscale>  2 0.19324053E+03</rscale>
<asrwt>0</asrwt>
<pdfrwt beam="2">  1        1 0.12429297E-01 0.19324053E+03</pdfrwt>
<pdfrwt beam="1">  1       -1 0.10207694E+00 0.19324053E+03</pdfrwt>
<totfact> 0.46148285E+02</totfact>
</mgrwt>
</event>
<event>
 4    1  0.8130725E-001  0.2368371E+03  0.7546771E-02  0.1121918E+00
          2   -1    0    0  502    0  0.00000000000E+00  0.00000000000E+00  0.59478946603E+03  0.59478946603E+03  0.00000000000E+00 0.  1.
         -2   -1    0    0    0  501 -0.00000000000E+00 -0.00000000000E+00 -0.94418345912E+02  0.94418345912E+02  0.00000000000E+00 0. -1.
          6    1    1    2  502    0 -0.11594468533E+03 -0.11278140507E+03  0.23826308000E+03  0.33594807735E+03  0.17300000000E+03 0. -1.
         -6    1    1    2    0  501  0.11594468533E+03  0.11278140507E+03  0.26210804012E+03  0.35325973459E+03  0.17300000000E+03 0. -1.
<mgrwt>
<rscale>  2 0.23683711E+03</rscale>
<asrwt>0</asrwt>
<pdfrwt beam="1">  1        2 0.91506070E-01 0.23683711E+03</pdfrwt>
<pdfrwt beam="2">  1       -2 0.14525900E-01 0.23683711E+03</pdfrwt>
<totfact> 0.18351246E+03</totfact>
</mgrwt>
</event>
<event>
 4    1  0.8130725E-001  0.1741469E+03  0.7546771E-02  0.1173591E+00
          1   -1    0    0  502    0  0.00000000000E+00  0.00000000000E+00  0.45443093893E+03  0.45443093893E+03  0.00000000000E+00 0.  1.
         -1   -1    0    0    0  501 -0.00000000000E+00 -0.00000000000E+00 -0.72885524511E+02  0.72885524511E+02  0.00000000000E+00 0. -1.
          6    1    1    2  502    0 -0.15518503506E+01  0.19893277249E+02  0.11419149739E+03  0.20824708592E+03  0.17300000000E+03 0. -1.
         -6    1    1    2    0  501  0.15518503506E+01 -0.19893277249E+02  0.26735391703E+03  0.31906937752E+03  0.17300000000E+03 0.  1.
<mgrwt>
<rscale>  2 0.17414692E+03</rscale>
<asrwt>0</asrwt>
<pdfrwt beam="1">  1        1 0.69912451E-01 0.17414692E+03</pdfrwt>
<pdfrwt beam="2">  1       -1 0.11213158E-01 0.17414692E+03</pdfrwt>
<totfact> 0.25729081E+03</totfact>
</mgrwt>
</event>
<event>
 4    1  0.8130725E-001  0.1865141E+03  0.7546771E-02  0.1161643E+00
         -2   -1    0    0    0  501 -0.00000000000E+00  0.00000000000E+00  0.38819966349E+03  0.38819966349E+03  0.00000000000E+00 0.  1.
          2   -1    0    0  502    0  0.00000000000E+00 -0.00000000000E+00 -0.89934199971E+02  0.89934199971E+02  0.00000000000E+00 0. -1.
          6    1    1    2  502    0  0.69123645933E+01  0.69359488459E+02  0.13483317975E+03  0.23014670492E+03  0.17300000000E+03 0.  1.
         -6    1    1    2    0  501 -0.69123645933E+01 -0.69359488459E+02  0.16343228377E+03  0.24798715854E+03  0.17300000000E+03 0. -1.
<mgrwt>
<rscale>  2 0.18651413E+03</rscale>
<asrwt>0</asrwt>
<pdfrwt beam="2">  1        2 0.13836031E-01 0.18651413E+03</pdfrwt>
<pdfrwt beam="1">  1       -2 0.59723024E-01 0.18651413E+03</pdfrwt>
<totfact> 0.11335480E+03</totfact>
</mgrwt>
</event>
<event>
 4    1  0.8130725E-001  0.2231304E+03  0.7546771E-02  0.1131571E+00
         -1   -1    0    0    0  501 -0.00000000000E+00  0.00000000000E+00  0.18542652226E+03  0.18542652226E+03  0.00000000000E+00 0. -1.
          1   -1    0    0  502    0  0.00000000000E+00 -0.00000000000E+00 -0.32189294091E+03  0.32189294091E+03  0.00000000000E+00 0.  1.
          6    1    1    2  502    0  0.17751413866E+02  0.13979648283E+03  0.35074914806E+02  0.22587035873E+03  0.17300000000E+03 0. -1.
         -6    1    1    2    0  501 -0.17751413866E+02 -0.13979648283E+03 -0.17154133346E+03  0.28144910444E+03  0.17300000000E+03 0.  1.
<mgrwt>
<rscale>  2 0.22313039E+03</rscale>
<asrwt>0</asrwt>
<pdfrwt beam="2">  1        1 0.49521990E-01 0.22313039E+03</pdfrwt>
<pdfrwt beam="1">  1       -1 0.28527158E-01 0.22313039E+03</pdfrwt>
<totfact> 0.89295510E+02</totfact>
</mgrwt>
</event>
<event>
 4    1  0.8130725E-001  0.2720705E+03  0.7546771E-02  0.1100100E+00
         -1   -1    0    0    0  501 -0.00000000000E+00  0.00000000000E+00  0.95983442983E+02  0.95983442983E+02  0.00000000000E+00 0.  1.
          1   -1    0    0  502    0  0.00000000000E+00 -0.00000000000E+00 -0.90307623751E+03  0.90307623751E+03  0.00000000000E+00 0. -1.
          6    1    1    2  502    0 -0.38571224622E+02 -0.20641126756E+03 -0.21265608696E+03  0.34531863845E+03  0.17300000000E+03 0. -1.
         -6    1    1    2    0  501  0.38571224622E+02  0.20641126756E+03 -0.59443670756E+03  0.65374104204E+03  0.17300000000E+03 0.  1.
<mgrwt>
<rscale>  2 0.27207049E+03</rscale>
<asrwt>0</asrwt>
<pdfrwt beam="2">  1        1 0.13893481E+00 0.27207049E+03</pdfrwt>
<pdfrwt beam="1">  1       -1 0.14766683E-01 0.27207049E+03</pdfrwt>
<totfact> 0.62822122E+02</totfact>
</mgrwt>
</event>
<event>
 4    1  0.8130725E-001  0.2247839E+03  0.7546771E-02  0.1130366E+00
          2   -1    0    0  502    0  0.00000000000E+00  0.00000000000E+00  0.16223202275E+04  0.16223202275E+04  0.00000000000E+00 0. -1.
         -2   -1    0    0    0  501 -0.00000000000E+00 -0.00000000000E+00 -0.31329567498E+02  0.31329567498E+02  0.00000000000E+00 0.  1.
          6    1    1    2  502    0  0.14002767804E+03  0.31481061619E+02  0.73210162253E+03  0.76583326747E+03  0.17300000000E+03 0. -1.
         -6    1    1    2    0  501 -0.14002767804E+03 -0.31481061619E+02  0.85888903751E+03  0.88781652756E+03  0.17300000000E+03 0.  1.
<mgrwt>
<rscale>  2 0.22478391E+03</rscale>
<asrwt>0</asrwt>
<pdfrwt beam="1">  1        2 0.24958766E+00 0.22478391E+03</pdfrwt>
<pdfrwt beam="2">  1       -2 0.48199347E-02 0.22478391E+03</pdfrwt>
<totfact> 0.24330708E+03</totfact>
</mgrwt>
</event>
<event>
 4    1  0.8130725E-001  0.2251219E+03  0.7546771E-02  0.1130121E+00
          2   -1    0    0  502    0  0.00000000000E+00  0.00000000000E+00  0.13865659761E+04  0.13865659761E+04  0.00000000000E+00 0.  1.
         -2   -1    0    0    0  501 -0.00000000000E+00 -0.00000000000E+00 -0.40533453340E+02  0.40533453340E+02  0.00000000000E+00 0. -1.
          6    1    1    2  502    0  0.79839006629E+01  0.14383013253E+03  0.44934336612E+03  0.50258264034E+03  0.17300000000E+03 0. -1.
         -6    1    1    2    0  501 -0.79839006629E+01 -0.14383013253E+03  0.89668915659E+03  0.92451678906E+03  0.17300000000E+03 0.  1.
<mgrwt>
<rscale>  2 0.22512186E+03</rscale>
<asrwt>0</asrwt>
<pdfrwt beam="1">  1        2 0.21331781E+00 0.22512186E+03</pdfrwt>
<pdfrwt beam="2">  1       -2 0.62359170E-02 0.22512186E+03</pdfrwt>
<totfact> 0.21922464E+03</totfact>
</mgrwt>
</event>
<event>
 4    1  0.8130725E-001  0.2128687E+03  0.7546771E-02  0.1139314E+00
         -2   -1    0    0    0  501 -0.00000000000E+00  0.00000000000E+00  0.15125195471E+03  0.15125195471E+03  0.00000000000E+00 0.  1.
          2   -1    0    0  502    0  0.00000000000E+00 -0.00000000000E+00 -0.33091982450E+03  0.33091982450E+03  0.00000000000E+00 0. -1.
          6    1    1    2  502    0 -0.12319670255E+03 -0.14375624438E+02 -0.15649687202E+02  0.21344319808E+03  0.17300000000E+03 0.  1.
         -6    1    1    2    0  501  0.12319670255E+03  0.14375624438E+02 -0.16401818259E+03  0.26872858113E+03  0.17300000000E+03 0. -1.
<mgrwt>
<rscale>  2 0.21286871E+03</rscale>
<asrwt>0</asrwt>
<pdfrwt beam="2">  1        2 0.50910742E-01 0.21286871E+03</pdfrwt>
<pdfrwt beam="1">  1       -2 0.23269532E-01 0.21286871E+03</pdfrwt>
<totfact> 0.15761979E+03</totfact>
</mgrwt>
</event>
<event>
 4    1  0.8130725E-001  0.3298882E+03  0.7546771E-02  0.1071186E+00
         -1   -1    0    0    0  501 -0.00000000000E+00  0.00000000000E+00  0.21057580809E+03  0.21057580809E+03  0.00000000000E+00 0. -1.
          1   -1    0    0  502    0  0.00000000000E+00 -0.00000000000E+00 -0.70341965483E+03  0.70341965483E+03  0.00000000000E+00 0.  1.
          6    1    1    2  502    0  0.25003095256E+03 -0.12799131139E+03 -0.48180853290E+03  0.58392269643E+03  0.17300000000E+03 0.  1.
         -6    1    1    2    0  501 -0.25003095256E+03  0.12799131139E+03 -0.11035313837E+02  0.33007276649E+03  0.17300000000E+03 0. -1.
<mgrwt>
<rscale>  2 0.32988824E+03</rscale>
<asrwt>0</asrwt>
<pdfrwt beam="2">  1        1 0.10821841E+00 0.32988824E+03</pdfrwt>
<pdfrwt beam="1">  1       -1 0.32396278E-01 0.32988824E+03</pdfrwt>
<totfact> 0.25106538E+02</totfact>
</mgrwt>
</event>
<event>
 4    1  0.8130725E-001  0.2184234E+03  0.7546771E-02  0.1135064E+00
         -2   -1    0    0    0  501 -0.00000000000E+00  0.00000000000E+00  0.14409795880E+03  0.14409795880E+03  0.00000000000E+00 0.  1.
          2   -1    0    0  502    0  0.00000000000E+00 -0.00000000000E+00 -0.42852341895E+03  0.42852341895E+03  0.00000000000E+00 0. -1.
          6    1    1    2  502    0 -0.10998336946E+03  0.75388521056E+02 -0.27873826293E+03  0.35412397531E+03  0.17300000000E+03 0. -1.
         -6    1    1    2    0  501  0.10998336946E+03 -0.75388521056E+02 -0.56871972165E+01  0.21849740245E+03  0.17300000000E+03 0.  1.
<mgrwt>
<rscale>  2 0.21842337E+03</rscale>
<asrwt>0</asrwt>
<pdfrwt beam="2">  1        2 0.65926679E-01 0.21842337E+03</pdfrwt>
<pdfrwt beam="1">  1       -2 0.22168917E-01 0.21842337E+03</pdfrwt>
<totfact> 0.12967790E+03</totfact>
</mgrwt>
</event>
<event>
 4    1  0.8130725E-001  0.5455635E+03  0.7546771E-02  0.1002526E+00
          2   -1    0    0  502    0  0.00000000000E+00  0.00000000000E+00  0.11290425021E+04  0.11290425021E+04  0.00000000000E+00 0.  1.
         -2   -1    0    0    0  501 -0.00000000000E+00 -0.00000000000E+00 -0.27742159072E+03  0.27742159072E+03  0.00000000000E+00 0. -1.
          6    1    1    2  502    0 -0.51740418132E+03  0.18528580401E+01  0.26896408096E+03  0.60826079668E+03  0.17300000000E+03 0.  1.
         -6    1    1    2    0  501  0.51740418132E+03 -0.18528580401E+01  0.58265683038E+03  0.79820329611E+03  0.17300000000E+03 0. -1.
<mgrwt>
<rscale>  2 0.54556349E+03</rscale>
<asrwt>0</asrwt>
<pdfrwt beam="1">  1        2 0.17369884E+00 0.54556349E+03</pdfrwt>
<pdfrwt beam="2">  1       -2 0.42680246E-01 0.54556349E+03</pdfrwt>
<totfact> 0.11235493E+02</totfact>
</mgrwt>
</event>
<event>
 4    1  0.8130725E-001  0.1850833E+03  0.7546771E-02  0.1162972E+00
          2   -1    0    0  502    0  0.00000000000E+00  0.00000000000E+00  0.34740838083E+03  0.34740838083E+03  0.00000000000E+00 0.  1.
         -2   -1    0    0    0  501 -0.00000000000E+00 -0.00000000000E+00 -0.11103551027E+03  0.11103551027E+03  0.00000000000E+00 0. -1.
          6    1    1    2  502    0 -0.53430005734E+02 -0.38367408242E+02  0.41487589878E+02  0.18967615465E+03  0.17300000000E+03 0.  1.
         -6    1    1    2    0  501  0.53430005734E+02  0.38367408242E+02  0.19488528069E+03  0.26876773645E+03  0.17300000000E+03 0.  1.
<mgrwt>
<rscale>  2 0.18508329E+03</rscale>
<asrwt>0</asrwt>
<pdfrwt beam="1">  1        2 0.53447442E-01 0.18508329E+03</pdfrwt>
<pdfrwt beam="2">  1       -2 0.17082386E-01 0.18508329E+03</pdfrwt>
<totfact> 0.25249384E+03</totfact>
</mgrwt>
</event>
<event>
 4    1  0.8130725E-001  0.1799070E+03  0.7546771E-02  0.1167893E+00
         -2   -1    0    0    0  501 -0.00000000000E+00  0.00000000000E+00  0.27302963942E+02  0.27302963942E+02  0.00000000000E+00 0. -1.
          2   -1    0    0  502    0  0.00000000000E+00 -0.00000000000E+00 -0.11922124608E+04  0.11922124608E+04  0.00000000000E+00 0.  1.
          6    1    1    2  502    0 -0.45737379549E+02  0.18590840058E+02 -0.62834958364E+03  0.65359752638E+03  0.17300000000E+03 0.  1.
         -6    1    1    2    0  501  0.45737379549E+02 -0.18590840058E+02 -0.53655991323E+03  0.56591789838E+03  0.17300000000E+03 0. -1.
<mgrwt>
<rscale>  2 0.17990700E+03</rscale>
<asrwt>0</asrwt>
<pdfrwt beam="2">  1        2 0.18341729E+00 0.17990700E+03</pdfrwt>
<pdfrwt beam="1">  1       -2 0.42004563E-02 0.17990700E+03</pdfrwt>
<totfact> 0.50938269E+03</totfact>
</mgrwt>
</event>
<event>
 4    1  0.8130725E-001  0.1885381E+03  0.7546771E-02  0.1159786E+00
         -2   -1    0    0    0  501 -0.00000000000E+00  0.00000000000E+00  0.65880874846E+02  0.65880874846E+02  0.00000000000E+00 0.  1.
          2   -1    0    0  502    0  0.00000000000E+00 -0.00000000000E+00 -0.54587097762E+03  0.54587097762E+03  0.00000000000E+00 0. -1.
          6    1    1    2  502    0  0.12655796132E+02 -0.73874597413E+02 -0.27288624962E+03  0.33168287648E+03  0.17300000000E+03 0.  1.
         -6    1    1    2    0  501 -0.12655796132E+02  0.73874597413E+02 -0.20710385316E+03  0.28006897599E+03  0.17300000000E+03 0.  1.
<mgrwt>
<rscale>  2 0.18853813E+03</rscale>
<asrwt>0</asrwt>
<pdfrwt beam="2">  1        2 0.83980151E-01 0.18853813E+03</pdfrwt>
<pdfrwt beam="1">  1       -2 0.10135519E-01 0.18853813E+03</pdfrwt>
<totfact> 0.35996523E+03</totfact>
</mgrwt>
</event>
<event>
 4    1  0.8130725E-001  0.2121558E+03  0.7546771E-02  0.1139870E+00
         -1   -1    0    0    0  501 -0.00000000000E+00  0.00000000000E+00  0.18179741361E+03  0.18179741361E+03  0.00000000000E+00 0. -1.
          1   -1    0    0  502    0  0.00000000000E+00 -0.00000000000E+00 -0.25201916133E+03  0.25201916133E+03  0.00000000000E+00 0.  1.
          6    1    1    2  502    0  0.59155661660E+02 -0.10761829711E+03 -0.63886516305E+02  0.22156619134E+03  0.17300000000E+03 0.  1.
         -6    1    1    2    0  501 -0.59155661660E+02  0.10761829711E+03 -0.63352314125E+01  0.21225038360E+03  0.17300000000E+03 0. -1.
<mgrwt>
<rscale>  2 0.21215582E+03</rscale>
<asrwt>0</asrwt>
<pdfrwt beam="2">  1        1 0.38772178E-01 0.21215582E+03</pdfrwt>
<pdfrwt beam="1">  1       -1 0.27968833E-01 0.21215582E+03</pdfrwt>
<totfact> 0.12543731E+03</totfact>
</mgrwt>
</event>
<event>
 4    1  0.8130725E-001  0.1818781E+03  0.7546771E-02  0.1165998E+00
          4   -1    0    0  502    0  0.00000000000E+00  0.00000000000E+00  0.41202128501E+02  0.41202128501E+02  0.00000000000E+00 0. -1.
         -4   -1    0    0    0  501 -0.00000000000E+00 -0.00000000000E+00 -0.80383970276E+03  0.80383970276E+03  0.00000000000E+00 0.  1.
          6    1    1    2  502    0  0.87337747279E+01  0.55446816343E+02 -0.36658412755E+03  0.40922310643E+03  0.17300000000E+03 0. -1.
         -6    1    1    2    0  501 -0.87337747279E+01 -0.55446816343E+02 -0.39605344671E+03  0.43581872483E+03  0.17300000000E+03 0.  1.
<mgrwt>
<rscale>  2 0.18187806E+03</rscale>
<asrwt>0</asrwt>
<pdfrwt beam="1">  1        4 0.63387892E-02 0.18187806E+03</pdfrwt>
<pdfrwt beam="2">  1       -4 0.12366764E+00 0.18187806E+03</pdfrwt>
<totfact> 0.14674063E+02</totfact>
</mgrwt>
</event>
<event>
 4    1  0.8130725E-001  0.2218598E+03  0.7546771E-02  0.1132504E+00
         -3   -1    0    0    0  501 -0.00000000000E+00  0.00000000000E+00  0.93218876510E+03  0.93218876510E+03  0.00000000000E+00 0.  1.
          3   -1    0    0  502    0  0.00000000000E+00 -0.00000000000E+00 -0.10338063112E+03  0.10338063112E+03  0.00000000000E+00 0. -1.
          6    1    1    2  502    0 -0.11075065451E+03 -0.83827482449E+02  0.77657339700E+03  0.80764348274E+03  0.17300000000E+03 0.  1.
         -6    1    1    2    0  501  0.11075065451E+03  0.83827482449E+02  0.52234736984E+02  0.22792591348E+03  0.17300000000E+03 0.  1.
<mgrwt>
<rscale>  2 0.22185976E+03</rscale>
<asrwt>0</asrwt>
<pdfrwt beam="2">  1        3 0.15904713E-01 0.22185976E+03</pdfrwt>
<pdfrwt beam="1">  1       -3 0.14341365E+00 0.22185976E+03</pdfrwt>
<totfact> 0.31596617E+01</totfact>
</mgrwt>
</event>
<event>
 4    1  0.8130725E-001  0.1971151E+03  0.7546771E-02  0.1152196E+00
          2   -1    0    0  502    0  0.00000000000E+00  0.00000000000E+00  0.36796259040E+03  0.36796259040E+03  0.00000000000E+00 0. -1.
         -2   -1    0    0    0  501 -0.00000000000E+00 -0.00000000000E+00 -0.12739594636E+03  0.12739594636E+03  0.00000000000E+00 0.  1.
          6    1    1    2  502    0 -0.94231338350E+02  0.67700333239E+01  0.22274621447E+03  0.29743949728E+03  0.17300000000E+03 0. -1.
         -6    1    1    2    0  501  0.94231338350E+02 -0.67700333239E+01  0.17820429565E+02  0.19791903948E+03  0.17300000000E+03 0.  1.
<mgrwt>
<rscale>  2 0.19711514E+03</rscale>
<asrwt>0</asrwt>
<pdfrwt beam="1">  1        2 0.56609629E-01 0.19711514E+03</pdfrwt>
<pdfrwt beam="2">  1       -2 0.19599377E-01 0.19711514E+03</pdfrwt>
<totfact> 0.18863363E+03</totfact>
</mgrwt>
</event>
<event>
 4    1  0.8130725E-001  0.2341101E+03  0.7546771E-02  0.1123780E+00
         -1   -1    0    0    0  501 -0.00000000000E+00  0.00000000000E+00  0.49009405217E+02  0.49009405217E+02  0.00000000000E+00 0.  1.
          1   -1    0    0  502    0  0.00000000000E+00 -0.00000000000E+00 -0.11262482830E+04  0.11262482830E+04  0.00000000000E+00 0. -1.
          6    1    1    2  502    0  0.14974930042E+03  0.49534743126E+02 -0.48927468918E+03  0.54239954390E+03  0.17300000000E+03 0. -1.
         -6    1    1    2    0  501 -0.14974930042E+03 -0.49534743126E+02 -0.58796418865E+03  0.63285814436E+03  0.17300000000E+03 0. -1.
<mgrwt>
<rscale>  2 0.23411011E+03</rscale>
<asrwt>0</asrwt>
<pdfrwt beam="2">  1        1 0.17326896E+00 0.23411011E+03</pdfrwt>
<pdfrwt beam="1">  1       -1 0.75399090E-02 0.23411011E+03</pdfrwt>
<totfact> 0.12201445E+03</totfact>
</mgrwt>
</event>
<event>
 4    1  0.8130725E-001  0.1786693E+03  0.7546771E-02  0.1169097E+00
          1   -1    0    0  502    0  0.00000000000E+00  0.00000000000E+00  0.10441198085E+04  0.10441198085E+04  0.00000000000E+00 0. -1.
         -1   -1    0    0    0  501 -0.00000000000E+00 -0.00000000000E+00 -0.10977327523E+03  0.10977327523E+03  0.00000000000E+00 0.  1.
          6    1    1    2  502    0  0.27973257247E+02 -0.34802625752E+02  0.95723227211E+03  0.97376401076E+03  0.17300000000E+03 0. -1.
         -6    1    1    2    0  501 -0.27973257247E+02  0.34802625752E+02 -0.22885738850E+02  0.18012907295E+03  0.17300000000E+03 0.  1.
<mgrwt>
<rscale>  2 0.17866932E+03</rscale>
<asrwt>0</asrwt>
<pdfrwt beam="1">  1        1 0.16063381E+00 0.17866932E+03</pdfrwt>
<pdfrwt beam="2">  1       -1 0.16888197E-01 0.17866932E+03</pdfrwt>
<totfact> 0.40087617E+02</totfact>
</mgrwt>
</event>
<event>
 4    1  0.8130725E-001  0.1919551E+03  0.7546771E-02  0.1156710E+00
         -2   -1    0    0    0  501 -0.00000000000E+00  0.00000000000E+00  0.20504554357E+02  0.20504554357E+02  0.00000000000E+00 0.  1.
          2   -1    0    0  502    0  0.00000000000E+00 -0.00000000000E+00 -0.19320818835E+04  0.19320818835E+04  0.00000000000E+00 0. -1.
          6    1    1    2  502    0 -0.83001507098E+02  0.53377767512E+01 -0.69764496716E+03  0.72357117289E+03  0.17300000000E+03 0.  1.
         -6    1    1    2    0  501  0.83001507098E+02 -0.53377767512E+01 -0.12139323620E+04  0.12290152650E+04  0.17300000000E+03 0. -1.
<mgrwt>
<rscale>  2 0.19195505E+03</rscale>
<asrwt>0</asrwt>
<pdfrwt beam="2">  1        2 0.29724327E+00 0.19195505E+03</pdfrwt>
<pdfrwt beam="1">  1       -2 0.31545479E-02 0.19195505E+03</pdfrwt>
<totfact> 0.31705914E+03</totfact>
</mgrwt>
</event>
<event>
 4    1  0.8130725E-001  0.3788898E+03  0.7546771E-02  0.1051345E+00
         -3   -1    0    0    0  501 -0.00000000000E+00  0.00000000000E+00  0.36823967189E+03  0.36823967189E+03  0.00000000000E+00 0. -1.
          3   -1    0    0  502    0  0.00000000000E+00 -0.00000000000E+00 -0.38998468719E+03  0.38998468719E+03  0.00000000000E+00 0.  1.
          6    1    1    2  502    0  0.51298199797E+02 -0.33316204060E+03 -0.37715130999E+01  0.37890853106E+03  0.17300000000E+03 0. -1.
         -6    1    1    2    0  501 -0.51298199797E+02  0.33316204060E+03 -0.17973502200E+02  0.37931582801E+03  0.17300000000E+03 0.  1.
<mgrwt>
<rscale>  2 0.37888976E+03</rscale>
<asrwt>0</asrwt>
<pdfrwt beam="2">  1        3 0.59997644E-01 0.37888976E+03</pdfrwt>
<pdfrwt beam="1">  1       -3 0.56652257E-01 0.37888976E+03</pdfrwt>
<totfact> 0.21490642E+01</totfact>
</mgrwt>
</event>
<event>
 4    1  0.8130725E-001  0.1860616E+03  0.7546771E-02  0.1162062E+00
         -2   -1    0    0    0  501 -0.00000000000E+00  0.00000000000E+00  0.31320676834E+03  0.31320676834E+03  0.00000000000E+00 0.  1.
          2   -1    0    0  502    0  0.00000000000E+00 -0.00000000000E+00 -0.11489550297E+03  0.11489550297E+03  0.00000000000E+00 0. -1.
          6    1    1    2  502    0 -0.29976155574E+02 -0.61573811390E+02  0.14087692438E+03  0.23337783094E+03  0.17300000000E+03 0.  1.
         -6    1    1    2    0  501  0.29976155574E+02  0.61573811390E+02  0.57434340991E+02  0.19472444037E+03  0.17300000000E+03 0. -1.
<mgrwt>
<rscale>  2 0.18606156E+03</rscale>
<asrwt>0</asrwt>
<pdfrwt beam="2">  1        2 0.17676231E-01 0.18606156E+03</pdfrwt>
<pdfrwt beam="1">  1       -2 0.48185656E-01 0.18606156E+03</pdfrwt>
<totfact> 0.13108489E+03</totfact>
</mgrwt>
</event>
<event>
 4    1  0.8130725E-001  0.4712871E+03  0.7546771E-02  0.1021558E+00
          1   -1    0    0  502    0  0.00000000000E+00  0.00000000000E+00  0.92164801905E+03  0.92164801905E+03  0.00000000000E+00 0. -1.
         -1   -1    0    0    0  501 -0.00000000000E+00 -0.00000000000E+00 -0.27377213803E+03  0.27377213803E+03  0.00000000000E+00 0.  1.
          6    1    1    2  502    0  0.40678660257E+03 -0.16342322033E+03  0.11711952814E+03  0.48562173844E+03  0.17300000000E+03 0.  1.
         -6    1    1    2    0  501 -0.40678660257E+03  0.16342322033E+03  0.53075635288E+03  0.70979841864E+03  0.17300000000E+03 0. -1.
<mgrwt>
<rscale>  2 0.47128706E+03</rscale>
<asrwt>0</asrwt>
<pdfrwt beam="1">  1        1 0.14179200E+00 0.47128706E+03</pdfrwt>
<pdfrwt beam="2">  1       -1 0.42118791E-01 0.47128706E+03</pdfrwt>
<totfact> 0.10134423E+02</totfact>
</mgrwt>
</event>
<event>
 4    1  0.8130725E-001  0.2032766E+03  0.7546771E-02  0.1147004E+00
         -1   -1    0    0    0  501 -0.00000000000E+00  0.00000000000E+00  0.87043671078E+02  0.87043671078E+02  0.00000000000E+00 0. -1.
          1   -1    0    0  502    0  0.00000000000E+00 -0.00000000000E+00 -0.49636366299E+03  0.49636366299E+03  0.00000000000E+00 0.  1.
          6    1    1    2  502    0 -0.29468590293E+01 -0.10669438166E+03 -0.14374743290E+03  0.24896726596E+03  0.17300000000E+03 0.  1.
         -6    1    1    2    0  501  0.29468590293E+01  0.10669438166E+03 -0.26557255901E+03  0.33444006810E+03  0.17300000000E+03 0.  1.
<mgrwt>
<rscale>  2 0.20327660E+03</rscale>
<asrwt>0</asrwt>
<pdfrwt beam="2">  1        1 0.76363641E-01 0.20327660E+03</pdfrwt>
<pdfrwt beam="1">  1       -1 0.13391334E-01 0.20327660E+03</pdfrwt>
<totfact> 0.17456287E+03</totfact>
</mgrwt>
</event>
<event>
 4    1  0.8130725E-001  0.2137392E+03  0.7546771E-02  0.1138639E+00
          2   -1    0    0  502    0  0.00000000000E+00  0.00000000000E+00  0.28068683961E+04  0.28068683961E+04  0.00000000000E+00 0. -1.
         -2   -1    0    0    0  501 -0.00000000000E+00 -0.00000000000E+00 -0.19797990506E+02  0.19797990506E+02  0.00000000000E+00 0.  1.
          6    1    1    2  502    0 -0.95720526700E+02 -0.81197383073E+02  0.19896522134E+04  0.20010997888E+04  0.17300000000E+03 0. -1.
         -6    1    1    2    0  501  0.95720526700E+02  0.81197383073E+02  0.79741819211E+03  0.82556659777E+03  0.17300000000E+03 0.  1.
<mgrwt>
<rscale>  2 0.21373917E+03</rscale>
<asrwt>0</asrwt>
<pdfrwt beam="1">  1        2 0.43182559E+00 0.21373917E+03</pdfrwt>
<pdfrwt beam="2">  1       -2 0.30458469E-02 0.21373917E+03</pdfrwt>
<totfact> 0.11291172E+03</totfact>
</mgrwt>
</event>
<event>
 4    1  0.8130725E-001  0.1820004E+03  0.7546771E-02  0.1165881E+00
          1   -1    0    0  502    0  0.00000000000E+00  0.00000000000E+00  0.69007991060E+02  0.69007991060E+02  0.00000000000E+00 0.  1.
         -1   -1    0    0    0  501 -0.00000000000E+00 -0.00000000000E+00 -0.56050495162E+03  0.56050495162E+03  0.00000000000E+00 0. -1.
          6    1    1    2  502    0 -0.22847582216E+01  0.56479514407E+02 -0.12646405809E+03  0.22162426234E+03  0.17300000000E+03 0. -1.
         -6    1    1    2    0  501  0.22847582216E+01 -0.56479514407E+02 -0.36503290247E+03  0.40788868035E+03  0.17300000000E+03 0. -1.
<mgrwt>
<rscale>  2 0.18200043E+03</rscale>
<asrwt>0</asrwt>
<pdfrwt beam="1">  1        1 0.10616614E-01 0.18200043E+03</pdfrwt>
<pdfrwt beam="2">  1       -1 0.86231528E-01 0.18200043E+03</pdfrwt>
<totfact> 0.81968200E+02</totfact>
</mgrwt>
</event>
<event>
 4    1  0.8130725E-001  0.1897270E+03  0.7546771E-02  0.1158708E+00
          3   -1    0    0  502    0  0.00000000000E+00  0.00000000000E+00  0.63042176827E+02  0.63042176827E+02  0.00000000000E+00 0. -1.
         -3   -1    0    0    0  501 -0.00000000000E+00 -0.00000000000E+00 -0.63787308457E+03  0.63787308457E+03  0.00000000000E+00 0.  1.
          6    1    1    2  502    0  0.18144690613E+01  0.77871892249E+02 -0.40089906688E+03  0.44352720968E+03  0.17300000000E+03 0.  1.
         -6    1    1    2    0  501 -0.18144690613E+01 -0.77871892249E+02 -0.17393184086E+03  0.25738805171E+03  0.17300000000E+03 0.  1.
<mgrwt>
<rscale>  2 0.18972697E+03</rscale>
<asrwt>0</asrwt>
<pdfrwt beam="1">  1        3 0.96987963E-02 0.18972697E+03</pdfrwt>
<pdfrwt beam="2">  1       -3 0.98134322E-01 0.18972697E+03</pdfrwt>
<totfact> 0.17817179E+02</totfact>
</mgrwt>
</event>
<event>
 4    1  0.8130725E-001  0.1879379E+03  0.7546771E-02  0.1160334E+00
         -2   -1    0    0    0  501 -0.00000000000E+00  0.00000000000E+00  0.34604958153E+02  0.34604958153E+02  0.00000000000E+00 0. -1.
          2   -1    0    0  502    0  0.00000000000E+00 -0.00000000000E+00 -0.13638761786E+04  0.13638761786E+04  0.00000000000E+00 0.  1.
          6    1    1    2  502    0 -0.47372790589E+02 -0.56102238735E+02 -0.10153950625E+04  0.10326411649E+04  0.17300000000E+03 0.  1.
         -6    1    1    2    0  501  0.47372790589E+02  0.56102238735E+02 -0.31387615790E+03  0.36583997181E+03  0.17300000000E+03 0. -1.
<mgrwt>
<rscale>  2 0.18793787E+03</rscale>
<asrwt>0</asrwt>
<pdfrwt beam="2">  1        2 0.20982708E+00 0.18793787E+03</pdfrwt>
<pdfrwt beam="1">  1       -2 0.53238404E-02 0.18793787E+03</pdfrwt>
<totfact> 0.28690300E+03</totfact>
</mgrwt>
</event>
<event>
 4    1  0.8130725E-001  0.2236540E+03  0.7546771E-02  0.1131188E+00
          1   -1    0    0  502    0  0.00000000000E+00  0.00000000000E+00  0.89246887426E+03  0.89246887426E+03  0.00000000000E+00 0.  1.
         -1   -1    0    0    0  501 -0.00000000000E+00 -0.00000000000E+00 -0.74891099259E+02  0.74891099259E+02  0.00000000000E+00 0. -1.
          6    1    1    2  502    0 -0.11835835745E+03 -0.77996352703E+02  0.65140448285E+03  0.68872994133E+03  0.17300000000E+03 0.  1.
         -6    1    1    2    0  501  0.11835835745E+03  0.77996352703E+02  0.16617329216E+03  0.27863003219E+03  0.17300000000E+03 0. -1.
<mgrwt>
<rscale>  2 0.22365404E+03</rscale>
<asrwt>0</asrwt>
<pdfrwt beam="1">  1        1 0.13730290E+00 0.22365404E+03</pdfrwt>
<pdfrwt beam="2">  1       -1 0.11521708E-01 0.22365404E+03</pdfrwt>
<totfact> 0.94871558E+02</totfact>
</mgrwt>
</event>
<event>
 4    1  0.8130725E-001  0.2186556E+03  0.7546771E-02  0.1134889E+00
         -2   -1    0    0    0  501 -0.00000000000E+00  0.00000000000E+00  0.10529136596E+03  0.10529136596E+03  0.00000000000E+00 0. -1.
          2   -1    0    0  502    0  0.00000000000E+00 -0.00000000000E+00 -0.55751890082E+03  0.55751890082E+03  0.00000000000E+00 0.  1.
          6    1    1    2  502    0 -0.10121638784E+03  0.87387073748E+02 -0.83362403386E+02  0.23400758134E+03  0.17300000000E+03 0. -1.
         -6    1    1    2    0  501  0.10121638784E+03 -0.87387073748E+02 -0.36886513147E+03  0.42880268544E+03  0.17300000000E+03 0.  1.
<mgrwt>
<rscale>  2 0.21865557E+03</rscale>
<asrwt>0</asrwt>
<pdfrwt beam="2">  1        2 0.85772139E-01 0.21865557E+03</pdfrwt>
<pdfrwt beam="1">  1       -2 0.16198672E-01 0.21865557E+03</pdfrwt>
<totfact> 0.16480296E+03</totfact>
</mgrwt>
</event>
<event>
 4    1  0.8130725E-001  0.2701464E+03  0.7546771E-02  0.1101196E+00
          1   -1    0    0  502    0  0.00000000000E+00  0.00000000000E+00  0.29702649738E+03  0.29702649738E+03  0.00000000000E+00 0.  1.
         -1   -1    0    0    0  501 -0.00000000000E+00 -0.00000000000E+00 -0.34793304763E+03  0.34793304763E+03  0.00000000000E+00 0. -1.
          6    1    1    2  502    0  0.13947610639E+03  0.15361150010E+03  0.14935125147E+03  0.30868248012E+03  0.17300000000E+03 0.  1.
         -6    1    1    2    0  501 -0.13947610639E+03 -0.15361150010E+03 -0.20025780173E+03  0.33627706489E+03  0.17300000000E+03 0. -1.
<mgrwt>
<rscale>  2 0.27014640E+03</rscale>
<asrwt>0</asrwt>
<pdfrwt beam="1">  1        1 0.45696385E-01 0.27014640E+03</pdfrwt>
<pdfrwt beam="2">  1       -1 0.53528161E-01 0.27014640E+03</pdfrwt>
<totfact> 0.32291750E+02</totfact>
</mgrwt>
</event>
<event>
 4    1  0.8130725E-001  0.1862326E+03  0.7546771E-02  0.1161904E+00
         -1   -1    0    0    0  501 -0.00000000000E+00  0.00000000000E+00  0.15658920576E+03  0.15658920576E+03  0.00000000000E+00 0. -1.
          1   -1    0    0  502    0  0.00000000000E+00 -0.00000000000E+00 -0.23435185951E+03  0.23435185951E+03  0.00000000000E+00 0.  1.
          6    1    1    2  502    0  0.31848713771E+02  0.61149394170E+02 -0.84678340754E+02  0.20458008302E+03  0.17300000000E+03 0.  1.
         -6    1    1    2    0  501 -0.31848713771E+02 -0.61149394170E+02  0.69156870075E+01  0.18636098224E+03  0.17300000000E+03 0. -1.
<mgrwt>
<rscale>  2 0.18623262E+03</rscale>
<asrwt>0</asrwt>
<pdfrwt beam="2">  1        1 0.36054132E-01 0.18623262E+03</pdfrwt>
<pdfrwt beam="1">  1       -1 0.24090647E-01 0.18623262E+03</pdfrwt>
<totfact> 0.17565650E+03</totfact>
</mgrwt>
</event>
<event>
 4    1  0.8130725E-001  0.1886268E+03  0.7546771E-02  0.1159706E+00
          1   -1    0    0  502    0  0.00000000000E+00  0.00000000000E+00  0.22498525541E+04  0.22498525541E+04  0.00000000000E+00 0.  1.
         -1   -1    0    0    0  501 -0.00000000000E+00 -0.00000000000E+00 -0.17657912229E+02  0.17657912229E+02  0.00000000000E+00 0. -1.
          6    1    1    2  502    0 -0.64562741897E+02 -0.38506111015E+02  0.14824274504E+04  0.14943798761E+04  0.17300000000E+03 0.  1.
         -6    1    1    2    0  501  0.64562741897E+02  0.38506111015E+02  0.74976719147E+03  0.77313059029E+03  0.17300000000E+03 0. -1.
<mgrwt>
<rscale>  2 0.18862680E+03</rscale>
<asrwt>0</asrwt>
<pdfrwt beam="1">  1        1 0.34613093E+00 0.18862680E+03</pdfrwt>
<pdfrwt beam="2">  1       -1 0.27166037E-02 0.18862680E+03</pdfrwt>
<totfact> 0.10217830E+03</totfact>
</mgrwt>
</event>
<event>
 4    1  0.8130725E-001  0.2318212E+03  0.7546771E-02  0.1125364E+00
         -2   -1    0    0    0  501 -0.00000000000E+00  0.00000000000E+00  0.62573321138E+02  0.62573321138E+02  0.00000000000E+00 0.  1.
          2   -1    0    0  502    0  0.00000000000E+00 -0.00000000000E+00 -0.10047704424E+04  0.10047704424E+04  0.00000000000E+00 0. -1.
          6    1    1    2  502    0  0.12002614287E+03  0.96983546698E+02 -0.26772275466E+03  0.35414200071E+03  0.17300000000E+03 0.  1.
         -6    1    1    2    0  501 -0.12002614287E+03 -0.96983546698E+02 -0.67447436662E+03  0.71320176285E+03  0.17300000000E+03 0. -1.
<mgrwt>
<rscale>  2 0.23182123E+03</rscale>
<asrwt>0</asrwt>
<pdfrwt beam="2">  1        2 0.15458006E+00 0.23182123E+03</pdfrwt>
<pdfrwt beam="1">  1       -2 0.96266653E-02 0.23182123E+03</pdfrwt>
<totfact> 0.18370586E+03</totfact>
</mgrwt>
</event>
<event>
 4    1  0.8130725E-001  0.2083340E+03  0.7546771E-02  0.1142892E+00
         -2   -1    0    0    0  501 -0.00000000000E+00  0.00000000000E+00  0.75263948303E+02  0.75263948303E+02  0.00000000000E+00 0.  1.
          2   -1    0    0  502    0  0.00000000000E+00 -0.00000000000E+00 -0.14779253720E+04  0.14779253720E+04  0.00000000000E+00 0. -1.
          6    1    1    2  502    0  0.12117916499E+02  0.11544351615E+03 -0.94887418409E+02  0.22892503466E+03  0.17300000000E+03 0.  1.
         -6    1    1    2    0  501 -0.12117916499E+02 -0.11544351615E+03 -0.13077740053E+04  0.13242642856E+04  0.17300000000E+03 0. -1.
<mgrwt>
<rscale>  2 0.20833399E+03</rscale>
<asrwt>0</asrwt>
<pdfrwt beam="2">  1        2 0.22737313E+00 0.20833399E+03</pdfrwt>
<pdfrwt beam="1">  1       -2 0.11579069E-01 0.20833399E+03</pdfrwt>
<totfact> 0.74192038E+02</totfact>
</mgrwt>
</event>
<event>
 4    1  0.8130725E-001  0.1874727E+03  0.7546771E-02  0.1160761E+00
         -2   -1    0    0    0  501 -0.00000000000E+00  0.00000000000E+00  0.17892883291E+02  0.17892883291E+02  0.00000000000E+00 0. -1.
          2   -1    0    0  502    0  0.00000000000E+00 -0.00000000000E+00 -0.23330002141E+04  0.23330002141E+04  0.00000000000E+00 0.  1.
          6    1    1    2  502    0 -0.35231609748E+02 -0.63053613930E+02 -0.69023407444E+03  0.71524059035E+03  0.17300000000E+03 0. -1.
         -6    1    1    2    0  501  0.35231609748E+02  0.63053613930E+02 -0.16248732564E+04  0.16356525070E+04  0.17300000000E+03 0.  1.
<mgrwt>
<rscale>  2 0.18747273E+03</rscale>
<asrwt>0</asrwt>
<pdfrwt beam="2">  1        2 0.35892323E+00 0.18747273E+03</pdfrwt>
<pdfrwt beam="1">  1       -2 0.27527503E-02 0.18747273E+03</pdfrwt>
<totfact> 0.23938525E+03</totfact>
</mgrwt>
</event>
<event>
 4    1  0.8130725E-001  0.2892063E+03  0.7546771E-02  0.1090764E+00
          2   -1    0    0  502    0  0.00000000000E+00  0.00000000000E+00  0.61471880841E+03  0.61471880841E+03  0.00000000000E+00 0.  1.
         -2   -1    0    0    0  501 -0.00000000000E+00 -0.00000000000E+00 -0.14004484671E+03  0.14004484671E+03  0.00000000000E+00 0. -1.
          6    1    1    2  502    0 -0.10613021956E+03 -0.20602830269E+03  0.30097365104E+03  0.41740319073E+03  0.17300000000E+03 0.  1.
         -6    1    1    2    0  501  0.10613021956E+03  0.20602830269E+03  0.17370031066E+03  0.33736046439E+03  0.17300000000E+03 0. -1.
<mgrwt>
<rscale>  2 0.28920630E+03</rscale>
<asrwt>0</asrwt>
<pdfrwt beam="1">  1        2 0.94572123E-01 0.28920630E+03</pdfrwt>
<pdfrwt beam="2">  1       -2 0.21545361E-01 0.28920630E+03</pdfrwt>
<totfact> 0.90799951E+02</totfact>
</mgrwt>
</event>
<event>
 4    1  0.8130725E-001  0.2788070E+03  0.7546771E-02  0.1096342E+00
         -1   -1    0    0    0  501 -0.00000000000E+00  0.00000000000E+00  0.10821650699E+04  0.10821650699E+04  0.00000000000E+00 0. -1.
          1   -1    0    0  502    0  0.00000000000E+00 -0.00000000000E+00 -0.82510668320E+02  0.82510668320E+02  0.00000000000E+00 0.  1.
          6    1    1    2  502    0  0.19089030992E+03  0.10660774160E+03  0.70933144031E+03  0.76215773512E+03  0.17300000000E+03 0. -1.
         -6    1    1    2    0  501 -0.19089030992E+03 -0.10660774160E+03  0.29032296130E+03  0.40251800314E+03  0.17300000000E+03 0.  1.
<mgrwt>
<rscale>  2 0.27880696E+03</rscale>
<asrwt>0</asrwt>
<pdfrwt beam="2">  1        1 0.12693950E-01 0.27880696E+03</pdfrwt>
<pdfrwt beam="1">  1       -1 0.16648692E+00 0.27880696E+03</pdfrwt>
<totfact> 0.13300112E+02</totfact>
</mgrwt>
</event>
<event>
 4    1  0.8130725E-001  0.2030827E+03  0.7546771E-02  0.1147164E+00
          4   -1    0    0  502    0  0.00000000000E+00  0.00000000000E+00  0.18296514211E+03  0.18296514211E+03  0.00000000000E+00 0.  1.
         -4   -1    0    0    0  501 -0.00000000000E+00 -0.00000000000E+00 -0.33806147117E+03  0.33806147117E+03  0.00000000000E+00 0. -1.
          6    1    1    2  502    0 -0.10096898728E+03 -0.33449041386E+02 -0.22793030795E+03  0.30527823382E+03  0.17300000000E+03 0. -1.
         -6    1    1    2    0  501  0.10096898728E+03  0.33449041386E+02  0.72833978890E+02  0.21574837947E+03  0.17300000000E+03 0.  1.
<mgrwt>
<rscale>  2 0.20308268E+03</rscale>
<asrwt>0</asrwt>
<pdfrwt beam="1">  1        4 0.28148484E-01 0.20308268E+03</pdfrwt>
<pdfrwt beam="2">  1       -4 0.52009457E-01 0.20308268E+03</pdfrwt>
<totfact> 0.76375581E+01</totfact>
</mgrwt>
</event>
<event>
 4    1  0.8130725E-001  0.1751621E+03  0.7546771E-02  0.1172569E+00
          2   -1    0    0  502    0  0.00000000000E+00  0.00000000000E+00  0.29655857887E+04  0.29655857887E+04  0.00000000000E+00 0.  1.
         -2   -1    0    0    0  501 -0.00000000000E+00 -0.00000000000E+00 -0.17553040358E+02  0.17553040358E+02  0.00000000000E+00 0. -1.
          6    1    1    2  502    0 -0.26651720311E+02 -0.65150303692E+01  0.51825888741E+03  0.54705944302E+03  0.17300000000E+03 0. -1.
         -6    1    1    2    0  501  0.26651720311E+02  0.65150303692E+01  0.24297738610E+04  0.24360793861E+04  0.17300000000E+03 0.  1.
<mgrwt>
<rscale>  2 0.17516210E+03</rscale>
<asrwt>0</asrwt>
<pdfrwt beam="1">  1        2 0.45624357E+00 0.17516210E+03</pdfrwt>
<pdfrwt beam="2">  1       -2 0.27004701E-02 0.17516210E+03</pdfrwt>
<totfact> 0.11035621E+03</totfact>
</mgrwt>
</event>
<event>
 4    1  0.8130725E-001  0.1980426E+03  0.7546771E-02  0.1151401E+00
          2   -1    0    0  502    0  0.00000000000E+00  0.00000000000E+00  0.17093406833E+04  0.17093406833E+04  0.00000000000E+00 0. -1.
         -2   -1    0    0    0  501 -0.00000000000E+00 -0.00000000000E+00 -0.23214749039E+02  0.23214749039E+02  0.00000000000E+00 0.  1.
          6    1    1    2  502    0 -0.78645094852E+02 -0.55738796592E+02  0.93643893701E+03  0.95715137106E+03  0.17300000000E+03 0.  1.
         -6    1    1    2    0  501  0.78645094852E+02  0.55738796592E+02  0.74968699728E+03  0.77540406130E+03  0.17300000000E+03 0.  1.
<mgrwt>
<rscale>  2 0.19804258E+03</rscale>
<asrwt>0</asrwt>
<pdfrwt beam="1">  1        2 0.26297539E+00 0.19804258E+03</pdfrwt>
<pdfrwt beam="2">  1       -2 0.35715012E-02 0.19804258E+03</pdfrwt>
<totfact> 0.34393124E+03</totfact>
</mgrwt>
</event>
<event>
 4    1  0.8130725E-001  0.2218427E+03  0.7546771E-02  0.1132517E+00
          1   -1    0    0  502    0  0.00000000000E+00  0.00000000000E+00  0.29321798114E+04  0.29321798114E+04  0.00000000000E+00 0.  1.
         -1   -1    0    0    0  501 -0.00000000000E+00 -0.00000000000E+00 -0.18918111237E+02  0.18918111237E+02  0.00000000000E+00 0. -1.
          6    1    1    2  502    0  0.16110872649E+02 -0.13793337220E+03  0.19522030926E+04  0.19647674392E+04  0.17300000000E+03 0.  1.
         -6    1    1    2    0  501 -0.16110872649E+02  0.13793337220E+03  0.96105860754E+03  0.98633048341E+03  0.17300000000E+03 0. -1.
<mgrwt>
<rscale>  2 0.22184268E+03</rscale>
<asrwt>0</asrwt>
<pdfrwt beam="1">  1        1 0.45110422E+00 0.22184268E+03</pdfrwt>
<pdfrwt beam="2">  1       -1 0.29104810E-02 0.22184268E+03</pdfrwt>
<totfact> 0.32190005E+02</totfact>
</mgrwt>
</event>
<event>
 4    1  0.8130725E-001  0.2094811E+03  0.7546771E-02  0.1141978E+00
         -1   -1    0    0    0  501 -0.00000000000E+00  0.00000000000E+00  0.32276442550E+02  0.32276442550E+02  0.00000000000E+00 0.  1.
          1   -1    0    0  502    0  0.00000000000E+00 -0.00000000000E+00 -0.15219987297E+04  0.15219987297E+04  0.00000000000E+00 0. -1.
          6    1    1    2  502    0 -0.61694718684E+02 -0.10073278572E+03 -0.49099086402E+03  0.53381116604E+03  0.17300000000E+03 0.  1.
         -6    1    1    2    0  501  0.61694718684E+02  0.10073278572E+03 -0.99873142309E+03  0.10204640062E+04  0.17300000000E+03 0. -1.
<mgrwt>
<rscale>  2 0.20948110E+03</rscale>
<asrwt>0</asrwt>
<pdfrwt beam="2">  1        1 0.23415366E+00 0.20948110E+03</pdfrwt>
<pdfrwt beam="1">  1       -1 0.49656063E-02 0.20948110E+03</pdfrwt>
<totfact> 0.12348155E+03</totfact>
</mgrwt>
</event>
<event>
 4    1  0.8130725E-001  0.1977460E+03  0.7546771E-02  0.1151655E+00
         -2   -1    0    0    0  501 -0.00000000000E+00  0.00000000000E+00  0.65276965757E+03  0.65276965757E+03  0.00000000000E+00 0. -1.
          2   -1    0    0  502    0  0.00000000000E+00 -0.00000000000E+00 -0.78872692775E+02  0.78872692775E+02  0.00000000000E+00 0.  1.
          6    1    1    2  502    0  0.19798669580E+02 -0.93714968766E+02  0.10754752795E+03  0.22509987440E+03  0.17300000000E+03 0. -1.
         -6    1    1    2    0  501 -0.19798669580E+02  0.93714968766E+02  0.46634943685E+03  0.50654247594E+03  0.17300000000E+03 0.  1.
<mgrwt>
<rscale>  2 0.19774601E+03</rscale>
<asrwt>0</asrwt>
<pdfrwt beam="2">  1        2 0.12134261E-01 0.19774601E+03</pdfrwt>
<pdfrwt beam="1">  1       -2 0.10042610E+00 0.19774601E+03</pdfrwt>
<totfact> 0.42665787E+02</totfact>
</mgrwt>
</event>
<event>
 4    1  0.8130725E-001  0.1869716E+03  0.7546771E-02  0.1161221E+00
         -1   -1    0    0    0  501 -0.00000000000E+00  0.00000000000E+00  0.12000846222E+04  0.12000846222E+04  0.00000000000E+00 0. -1.
          1   -1    0    0  502    0  0.00000000000E+00 -0.00000000000E+00 -0.29889939792E+02  0.29889939792E+02  0.00000000000E+00 0.  1.
          6    1    1    2  502    0  0.70912701669E+02 -0.87565802163E+00  0.68316231648E+03  0.70828605005E+03  0.17300000000E+03 0. -1.
         -6    1    1    2    0  501 -0.70912701669E+02  0.87565802163E+00  0.48703236595E+03  0.52168851197E+03  0.17300000000E+03 0.  1.
<mgrwt>
<rscale>  2 0.18697160E+03</rscale>
<asrwt>0</asrwt>
<pdfrwt beam="2">  1        1 0.45984532E-02 0.18697160E+03</pdfrwt>
<pdfrwt beam="1">  1       -1 0.18462837E+00 0.18697160E+03</pdfrwt>
<totfact> 0.39725448E+02</totfact>
</mgrwt>
</event>
<event>
 4    1  0.8130725E-001  0.2295451E+03  0.7546771E-02  0.1126960E+00
         -1   -1    0    0    0  501 -0.00000000000E+00  0.00000000000E+00  0.27084485939E+03  0.27084485939E+03  0.00000000000E+00 0.  1.
          1   -1    0    0  502    0  0.00000000000E+00 -0.00000000000E+00 -0.23761023613E+03  0.23761023613E+03  0.00000000000E+00 0. -1.
          6    1    1    2  502    0 -0.15004439318E+03 -0.15768124892E+02 -0.91616727837E+02  0.24715294558E+03  0.17300000000E+03 0. -1.
         -6    1    1    2    0  501  0.15004439318E+03  0.15768124892E+02  0.12485135110E+03  0.26130214993E+03  0.17300000000E+03 0. -1.
<mgrwt>
<rscale>  2 0.22954510E+03</rscale>
<asrwt>0</asrwt>
<pdfrwt beam="2">  1        1 0.36555421E-01 0.22954510E+03</pdfrwt>
<pdfrwt beam="1">  1       -1 0.41668440E-01 0.22954510E+03</pdfrwt>
<totfact> 0.67767779E+02</totfact>
</mgrwt>
</event>
<event>
 4    1  0.8130725E-001  0.1749306E+03  0.7546771E-02  0.1172801E+00
         -2   -1    0    0    0  501 -0.00000000000E+00  0.00000000000E+00  0.16732270354E+02  0.16732270354E+02  0.00000000000E+00 0. -1.
          2   -1    0    0  502    0  0.00000000000E+00 -0.00000000000E+00 -0.18610445098E+04  0.18610445098E+04  0.00000000000E+00 0.  1.
          6    1    1    2  502    0 -0.13860372379E+02 -0.21900206649E+02 -0.10456542038E+04  0.10601855700E+04  0.17300000000E+03 0. -1.
         -6    1    1    2    0  501  0.13860372379E+02  0.21900206649E+02 -0.79865803573E+03  0.81759121021E+03  0.17300000000E+03 0. -1.
<mgrwt>
<rscale>  2 0.17493064E+03</rscale>
<asrwt>0</asrwt>
<pdfrwt beam="2">  1        2 0.28631460E+00 0.17493064E+03</pdfrwt>
<pdfrwt beam="1">  1       -2 0.25741949E-02 0.17493064E+03</pdfrwt>
<totfact> 0.46581823E+03</totfact>
</mgrwt>
</event>
<event>
 4    1  0.8130725E-001  0.2967109E+03  0.7546771E-02  0.1086896E+00
         -2   -1    0    0    0  501 -0.00000000000E+00  0.00000000000E+00  0.14225868376E+03  0.14225868376E+03  0.00000000000E+00 0. -1.
          2   -1    0    0  502    0  0.00000000000E+00 -0.00000000000E+00 -0.62279476099E+03  0.62279476099E+03  0.00000000000E+00 0.  1.
          6    1    1    2  502    0 -0.17732661913E+02  0.24040363806E+03 -0.27069642773E+03  0.40163903256E+03  0.17300000000E+03 0.  1.
         -6    1    1    2    0  501  0.17732661913E+02 -0.24040363806E+03 -0.20983964950E+03  0.36341441220E+03  0.17300000000E+03 0. -1.
<mgrwt>
<rscale>  2 0.29671090E+03</rscale>
<asrwt>0</asrwt>
<pdfrwt beam="2">  1        2 0.95814578E-01 0.29671090E+03</pdfrwt>
<pdfrwt beam="1">  1       -2 0.21885951E-01 0.29671090E+03</pdfrwt>
<totfact> 0.86999879E+02</totfact>
</mgrwt>
</event>
<event>
 4    1  0.8130725E-001  0.2008280E+03  0.7546771E-02  0.1149042E+00
         -2   -1    0    0    0  501 -0.00000000000E+00  0.00000000000E+00  0.50395037390E+03  0.50395037390E+03  0.00000000000E+00 0.  1.
          2   -1    0    0  502    0  0.00000000000E+00 -0.00000000000E+00 -0.91788962650E+02  0.91788962650E+02  0.00000000000E+00 0. -1.
          6    1    1    2  502    0 -0.99101254125E+02  0.24120992441E+02  0.99472970682E+02  0.22411325874E+03  0.17300000000E+03 0. -1.
         -6    1    1    2    0  501  0.99101254125E+02 -0.24120992441E+02  0.31268844057E+03  0.37162607781E+03  0.17300000000E+03 0.  1.
<mgrwt>
<rscale>  2 0.20082799E+03</rscale>
<asrwt>0</asrwt>
<pdfrwt beam="2">  1        2 0.14121379E-01 0.20082799E+03</pdfrwt>
<pdfrwt beam="1">  1       -2 0.77530826E-01 0.20082799E+03</pdfrwt>
<totfact> 0.63668789E+02</totfact>
</mgrwt>
</event>
<event>
 4    1  0.8130725E-001  0.1777701E+03  0.7546771E-02  0.1169979E+00
          3   -1    0    0  502    0  0.00000000000E+00  0.00000000000E+00  0.19913763432E+02  0.19913763432E+02  0.00000000000E+00 0.  1.
         -3   -1    0    0    0  501 -0.00000000000E+00 -0.00000000000E+00 -0.19736257342E+04  0.19736257342E+04  0.00000000000E+00 0. -1.
          6    1    1    2  502    0 -0.34899369940E+02  0.21336630959E+02 -0.53565760697E+03  0.56438576324E+03  0.17300000000E+03 0.  1.
         -6    1    1    2    0  501  0.34899369940E+02 -0.21336630959E+02 -0.14180543638E+04  0.14291537344E+04  0.17300000000E+03 0. -1.
<mgrwt>
<rscale>  2 0.17777013E+03</rscale>
<asrwt>0</asrwt>
<pdfrwt beam="1">  1        3 0.30636570E-02 0.17777013E+03</pdfrwt>
<pdfrwt beam="2">  1       -3 0.30363462E+00 0.17777013E+03</pdfrwt>
<totfact> 0.50967932E+01</totfact>
</mgrwt>
</event>
<event>
 4    1  0.8130725E-001  0.1915603E+03  0.7546771E-02  0.1157062E+00
          3   -1    0    0  502    0  0.00000000000E+00  0.00000000000E+00  0.13443485818E+03  0.13443485818E+03  0.00000000000E+00 0. -1.
         -3   -1    0    0    0  501 -0.00000000000E+00 -0.00000000000E+00 -0.29310179824E+03  0.29310179824E+03  0.00000000000E+00 0.  1.
          6    1    1    2  502    0  0.39933506708E+02 -0.71914299574E+02 -0.23295520788E+02  0.19297158529E+03  0.17300000000E+03 0. -1.
         -6    1    1    2    0  501 -0.39933506708E+02  0.71914299574E+02 -0.13537141927E+03  0.23456507114E+03  0.17300000000E+03 0.  1.
<mgrwt>
<rscale>  2 0.19156031E+03</rscale>
<asrwt>0</asrwt>
<pdfrwt beam="1">  1        3 0.20682286E-01 0.19156031E+03</pdfrwt>
<pdfrwt beam="2">  1       -3 0.45092584E-01 0.19156031E+03</pdfrwt>
<totfact> 0.25230830E+02</totfact>
</mgrwt>
</event>
<event>
 4    1  0.8130725E-001  0.2017829E+03  0.7546771E-02  0.1148243E+00
          2   -1    0    0  502    0  0.00000000000E+00  0.00000000000E+00  0.70894187063E+03  0.70894187063E+03  0.00000000000E+00 0. -1.
         -2   -1    0    0    0  501 -0.00000000000E+00 -0.00000000000E+00 -0.16355931934E+03  0.16355931934E+03  0.00000000000E+00 0.  1.
          6    1    1    2  502    0 -0.86282022415E+02  0.57816622354E+02  0.62409861577E+03  0.65590809678E+03  0.17300000000E+03 0. -1.
         -6    1    1    2    0  501  0.86282022415E+02 -0.57816622354E+02 -0.78716064485E+02  0.21659309320E+03  0.17300000000E+03 0.  1.
<mgrwt>
<rscale>  2 0.20178293E+03</rscale>
<asrwt>0</asrwt>
<pdfrwt beam="1">  1        2 0.10906798E+00 0.20178293E+03</pdfrwt>
<pdfrwt beam="2">  1       -2 0.25162973E-01 0.20178293E+03</pdfrwt>
<totfact> 0.58490155E+02</totfact>
</mgrwt>
</event>
<event>
 4    1  0.8130725E-001  0.2675991E+03  0.7546771E-02  0.1102662E+00
         -2   -1    0    0    0  501 -0.00000000000E+00  0.00000000000E+00  0.37430429099E+02  0.37430429099E+02  0.00000000000E+00 0.  1.
          2   -1    0    0  502    0  0.00000000000E+00 -0.00000000000E+00 -0.19315178668E+04  0.19315178668E+04  0.00000000000E+00 0. -1.
          6    1    1    2  502    0  0.19503545077E+03 -0.60344427353E+02 -0.10430988522E+04  0.10768771947E+04  0.17300000000E+03 0. -1.
         -6    1    1    2    0  501 -0.19503545077E+03  0.60344427353E+02 -0.85098858545E+03  0.89207110117E+03  0.17300000000E+03 0. -1.
<mgrwt>
<rscale>  2 0.26759910E+03</rscale>
<asrwt>0</asrwt>
<pdfrwt beam="2">  1        2 0.29715657E+00 0.26759910E+03</pdfrwt>
<pdfrwt beam="1">  1       -2 0.57585280E-02 0.26759910E+03</pdfrwt>
<totfact> 0.12732416E+03</totfact>
</mgrwt>
</event>
<event>
 4    1  0.8130725E-001  0.1734127E+03  0.7546771E-02  0.1174335E+00
         -1   -1    0    0    0  501 -0.00000000000E+00  0.00000000000E+00  0.60422411398E+02  0.60422411398E+02  0.00000000000E+00 0.  1.
          1   -1    0    0  502    0  0.00000000000E+00 -0.00000000000E+00 -0.73677860626E+03  0.73677860626E+03  0.00000000000E+00 0. -1.
          6    1    1    2  502    0  0.55101720234E+00  0.11943871511E+02 -0.11111642687E+03  0.20595829677E+03  0.17300000000E+03 0.  1.
         -6    1    1    2    0  501 -0.55101720234E+00 -0.11943871511E+02 -0.56523976799E+03  0.59124272089E+03  0.17300000000E+03 0. -1.
<mgrwt>
<rscale>  2 0.17341269E+03</rscale>
<asrwt>0</asrwt>
<pdfrwt beam="2">  1        1 0.11335055E+00 0.17341269E+03</pdfrwt>
<pdfrwt beam="1">  1       -1 0.92957559E-02 0.17341269E+03</pdfrwt>
<totfact> 0.17727495E+03</totfact>
</mgrwt>
</event>
<event>
 4    1  0.8130725E-001  0.1833320E+03  0.7546771E-02  0.1164617E+00
          1   -1    0    0  502    0  0.00000000000E+00  0.00000000000E+00  0.41133041425E+03  0.41133041425E+03  0.00000000000E+00 0. -1.
         -1   -1    0    0    0  501 -0.00000000000E+00 -0.00000000000E+00 -0.83221146048E+02  0.83221146048E+02  0.00000000000E+00 0.  1.
          6    1    1    2  502    0  0.59726720756E+02  0.10692265968E+02  0.19735424392E+03  0.26936834134E+03  0.17300000000E+03 0.  1.
         -6    1    1    2    0  501 -0.59726720756E+02 -0.10692265968E+02  0.13075502427E+03  0.22518321895E+03  0.17300000000E+03 0.  1.
<mgrwt>
<rscale>  2 0.18333195E+03</rscale>
<asrwt>0</asrwt>
<pdfrwt beam="1">  1        1 0.63281601E-01 0.18333195E+03</pdfrwt>
<pdfrwt beam="2">  1       -1 0.12803254E-01 0.18333195E+03</pdfrwt>
<totfact> 0.23838079E+03</totfact>
</mgrwt>
</event>
<event>
 4    1  0.8130725E-001  0.2114792E+03  0.7546771E-02  0.1140400E+00
          3   -1    0    0  502    0  0.00000000000E+00  0.00000000000E+00  0.14394815411E+03  0.14394815411E+03  0.00000000000E+00 0.  1.
         -3   -1    0    0    0  501 -0.00000000000E+00 -0.00000000000E+00 -0.31786320833E+03  0.31786320833E+03  0.00000000000E+00 0. -1.
          6    1    1    2  502    0  0.60601937914E+02 -0.10546014297E+03 -0.52273271549E+02  0.21784382377E+03  0.17300000000E+03 0.  1.
         -6    1    1    2    0  501 -0.60601937914E+02  0.10546014297E+03 -0.12164178267E+03  0.24396753867E+03  0.17300000000E+03 0.  1.
<mgrwt>
<rscale>  2 0.21147916E+03</rscale>
<asrwt>0</asrwt>
<pdfrwt beam="1">  1        3 0.22145870E-01 0.21147916E+03</pdfrwt>
<pdfrwt beam="2">  1       -3 0.48902031E-01 0.21147916E+03</pdfrwt>
<totfact> 0.19190971E+02</totfact>
</mgrwt>
</event>
<event>
 4    1  0.8130725E-001  0.2020539E+03  0.7546771E-02  0.1148018E+00
         -1   -1    0    0    0  501 -0.00000000000E+00  0.00000000000E+00  0.37828991880E+02  0.37828991880E+02  0.00000000000E+00 0.  1.
          1   -1    0    0  502    0  0.00000000000E+00 -0.00000000000E+00 -0.16778321426E+04  0.16778321426E+04  0.00000000000E+00 0. -1.
          6    1    1    2  502    0 -0.53042581178E+01 -0.10425273968E+03 -0.30761190471E+03  0.36803648298E+03  0.17300000000E+03 0.  1.
         -6    1    1    2    0  501  0.53042581178E+01  0.10425273968E+03 -0.13323912461E+04  0.13476246515E+04  0.17300000000E+03 0. -1.
<mgrwt>
<rscale>  2 0.20205388E+03</rscale>
<asrwt>0</asrwt>
<pdfrwt beam="2">  1        1 0.25812797E+00 0.20205388E+03</pdfrwt>
<pdfrwt beam="1">  1       -1 0.58198460E-02 0.20205388E+03</pdfrwt>
<totfact> 0.77087748E+02</totfact>
</mgrwt>
</event>
<event>
 4    1  0.8130725E-001  0.1983451E+03  0.7546771E-02  0.1151143E+00
          2   -1    0    0  502    0  0.00000000000E+00  0.00000000000E+00  0.53563812405E+03  0.53563812405E+03  0.00000000000E+00 0.  1.
         -2   -1    0    0    0  501 -0.00000000000E+00 -0.00000000000E+00 -0.73732408830E+02  0.73732408830E+02  0.00000000000E+00 0. -1.
          6    1    1    2  502    0 -0.96800172288E+02 -0.64411144605E+01  0.24992487773E+03  0.31906614646E+03  0.17300000000E+03 0.  1.
         -6    1    1    2    0  501  0.96800172288E+02  0.64411144605E+01  0.21198083749E+03  0.29030438642E+03  0.17300000000E+03 0. -1.
<mgrwt>
<rscale>  2 0.19834506E+03</rscale>
<asrwt>0</asrwt>
<pdfrwt beam="1">  1        2 0.82405863E-01 0.19834506E+03</pdfrwt>
<pdfrwt beam="2">  1       -2 0.11343448E-01 0.19834506E+03</pdfrwt>
<totfact> 0.30784749E+03</totfact>
</mgrwt>
</event>
<event>
 4    1  0.8130725E-001  0.2638511E+03  0.7546771E-02  0.1104851E+00
          2   -1    0    0  502    0  0.00000000000E+00  0.00000000000E+00  0.11234220245E+04  0.11234220245E+04  0.00000000000E+00 0.  1.
         -2   -1    0    0    0  501 -0.00000000000E+00 -0.00000000000E+00 -0.62150691352E+02  0.62150691352E+02  0.00000000000E+00 0. -1.
          6    1    1    2  502    0  0.15511634692E+03  0.12500918727E+03  0.49858763708E+03  0.56409840439E+03  0.17300000000E+03 0. -1.
         -6    1    1    2    0  501 -0.15511634692E+03 -0.12500918727E+03  0.56268369605E+03  0.62147431144E+03  0.17300000000E+03 0.  1.
<mgrwt>
<rscale>  2 0.26385105E+03</rscale>
<asrwt>0</asrwt>
<pdfrwt beam="1">  1        2 0.17283414E+00 0.26385105E+03</pdfrwt>
<pdfrwt beam="2">  1       -2 0.95616456E-02 0.26385105E+03</pdfrwt>
<totfact> 0.15781089E+03</totfact>
</mgrwt>
</event>
<event>
 4    1  0.8130725E-001  0.2294656E+03  0.7546771E-02  0.1127016E+00
          1   -1    0    0  502    0  0.00000000000E+00  0.00000000000E+00  0.51726522420E+03  0.51726522420E+03  0.00000000000E+00 0. -1.
         -1   -1    0    0    0  501 -0.00000000000E+00 -0.00000000000E+00 -0.10735482156E+03  0.10735482156E+03  0.00000000000E+00 0.  1.
          6    1    1    2  502    0 -0.14077129340E+03  0.53934453068E+02  0.27603491641E+03  0.35895648393E+03  0.17300000000E+03 0. -1.
         -6    1    1    2    0  501  0.14077129340E+03 -0.53934453068E+02  0.13387548623E+03  0.26566356184E+03  0.17300000000E+03 0.  1.
<mgrwt>
<rscale>  2 0.22946565E+03</rscale>
<asrwt>0</asrwt>
<pdfrwt beam="1">  1        1 0.79579264E-01 0.22946565E+03</pdfrwt>
<pdfrwt beam="2">  1       -1 0.16516127E-01 0.22946565E+03</pdfrwt>
<totfact> 0.11873125E+03</totfact>
</mgrwt>
</event>
<event>
 4    1  0.8130725E-001  0.1864670E+03  0.7546771E-02  0.1161687E+00
         -1   -1    0    0    0  501 -0.00000000000E+00  0.00000000000E+00  0.40576740247E+02  0.40576740247E+02  0.00000000000E+00 0. -1.
          1   -1    0    0  502    0  0.00000000000E+00 -0.00000000000E+00 -0.10578564993E+04  0.10578564993E+04  0.00000000000E+00 0.  1.
          6    1    1    2  502    0  0.29526238305E+02 -0.63001059808E+02 -0.26925942832E+03  0.32752186496E+03  0.17300000000E+03 0. -1.
         -6    1    1    2    0  501 -0.29526238305E+02  0.63001059808E+02 -0.74802033078E+03  0.77091137463E+03  0.17300000000E+03 0.  1.
<mgrwt>
<rscale>  2 0.18646697E+03</rscale>
<asrwt>0</asrwt>
<pdfrwt beam="2">  1        1 0.16274716E+00 0.18646697E+03</pdfrwt>
<pdfrwt beam="1">  1       -1 0.62425751E-02 0.18646697E+03</pdfrwt>
<totfact> 0.18180319E+03</totfact>
</mgrwt>
</event>
<event>
 4    1  0.8130725E-001  0.1923768E+03  0.7546771E-02  0.1156335E+00
          2   -1    0    0  502    0  0.00000000000E+00  0.00000000000E+00  0.13014548384E+03  0.13014548384E+03  0.00000000000E+00 0. -1.
         -2   -1    0    0    0  501 -0.00000000000E+00 -0.00000000000E+00 -0.42270771682E+03  0.42270771682E+03  0.00000000000E+00 0.  1.
          6    1    1    2  502    0  0.83491966175E+02  0.10435828192E+02 -0.30441974280E+03  0.36011136435E+03  0.17300000000E+03 0. -1.
         -6    1    1    2    0  501 -0.83491966175E+02 -0.10435828192E+02  0.11857509823E+02  0.19274183631E+03  0.17300000000E+03 0.  1.
<mgrwt>
<rscale>  2 0.19237675E+03</rscale>
<asrwt>0</asrwt>
<pdfrwt beam="1">  1        2 0.20022382E-01 0.19237675E+03</pdfrwt>
<pdfrwt beam="2">  1       -2 0.65031956E-01 0.19237675E+03</pdfrwt>
<totfact> 0.61718965E+02</totfact>
</mgrwt>
</event>
<event>
 4    1  0.8130725E-001  0.2158780E+03  0.7546771E-02  0.1136994E+00
         -2   -1    0    0    0  501 -0.00000000000E+00  0.00000000000E+00  0.59318713730E+02  0.59318713730E+02  0.00000000000E+00 0.  1.
          2   -1    0    0  502    0  0.00000000000E+00 -0.00000000000E+00 -0.79576115874E+03  0.79576115874E+03  0.00000000000E+00 0. -1.
          6    1    1    2  502    0  0.24160058005E+02  0.12684882207E+03 -0.41643110995E+03  0.46906097834E+03  0.17300000000E+03 0. -1.
         -6    1    1    2    0  501 -0.24160058005E+02 -0.12684882207E+03 -0.32001133506E+03  0.38601889413E+03  0.17300000000E+03 0. -1.
<mgrwt>
<rscale>  2 0.21587805E+03</rscale>
<asrwt>0</asrwt>
<pdfrwt beam="2">  1        2 0.12242479E+00 0.21587805E+03</pdfrwt>
<pdfrwt beam="1">  1       -2 0.91259564E-02 0.21587805E+03</pdfrwt>
<totfact> 0.27251884E+03</totfact>
</mgrwt>
</event>
<event>
 4    1  0.8130725E-001  0.1813694E+03  0.7546771E-02  0.1166484E+00
         -2   -1    0    0    0  501 -0.00000000000E+00  0.00000000000E+00  0.72756584495E+02  0.72756584495E+02  0.00000000000E+00 0. -1.
          2   -1    0    0  502    0  0.00000000000E+00 -0.00000000000E+00 -0.47221232485E+03  0.47221232485E+03  0.00000000000E+00 0.  1.
          6    1    1    2  502    0 -0.52659721383E+02 -0.13885518476E+02 -0.25593175634E+03  0.31368123595E+03  0.17300000000E+03 0.  1.
         -6    1    1    2    0  501  0.52659721383E+02  0.13885518476E+02 -0.14352398401E+03  0.23128767340E+03  0.17300000000E+03 0. -1.
<mgrwt>
<rscale>  2 0.18136939E+03</rscale>
<asrwt>0</asrwt>
<pdfrwt beam="2">  1        2 0.72648053E-01 0.18136939E+03</pdfrwt>
<pdfrwt beam="1">  1       -2 0.11193320E-01 0.18136939E+03</pdfrwt>
<totfact> 0.36069177E+03</totfact>
</mgrwt>
</event>
<event>
 4    1  0.8130725E-001  0.1760010E+03  0.7546771E-02  0.1171730E+00
          1   -1    0    0  502    0  0.00000000000E+00  0.00000000000E+00  0.14801446095E+03  0.14801446095E+03  0.00000000000E+00 0. -1.
         -1   -1    0    0    0  501 -0.00000000000E+00 -0.00000000000E+00 -0.21137994388E+03  0.21137994388E+03  0.00000000000E+00 0.  1.
          6    1    1    2  502    0 -0.12434547041E+02 -0.29878636595E+02 -0.49596798348E+02  0.18285566245E+03  0.17300000000E+03 0.  1.
         -6    1    1    2    0  501  0.12434547041E+02  0.29878636595E+02 -0.13768684573E+02  0.17653874238E+03  0.17300000000E+03 0. -1.
<mgrwt>
<rscale>  2 0.17600100E+03</rscale>
<asrwt>0</asrwt>
<pdfrwt beam="1">  1        1 0.22771455E-01 0.17600100E+03</pdfrwt>
<pdfrwt beam="2">  1       -1 0.32519992E-01 0.17600100E+03</pdfrwt>
<totfact> 0.18897127E+03</totfact>
</mgrwt>
</event>
<event>
 4    1  0.8130725E-001  0.2264936E+03  0.7546771E-02  0.1129132E+00
          2   -1    0    0  502    0  0.00000000000E+00  0.00000000000E+00  0.23196290435E+04  0.23196290435E+04  0.00000000000E+00 0. -1.
         -2   -1    0    0    0  501 -0.00000000000E+00 -0.00000000000E+00 -0.70495292164E+02  0.70495292164E+02  0.00000000000E+00 0.  1.
          6    1    1    2  502    0 -0.11557560942E+03 -0.89513234249E+02  0.21145852247E+04  0.21266805150E+04  0.17300000000E+03 0. -1.
         -6    1    1    2    0  501  0.11557560942E+03  0.89513234249E+02  0.13454852664E+03  0.26344382061E+03  0.17300000000E+03 0.  1.
<mgrwt>
<rscale>  2 0.22649358E+03</rscale>
<asrwt>0</asrwt>
<pdfrwt beam="1">  1        2 0.35686595E+00 0.22649358E+03</pdfrwt>
<pdfrwt beam="2">  1       -2 0.10845431E-01 0.22649358E+03</pdfrwt>
<totfact> 0.29684648E+02</totfact>
</mgrwt>
</event>
<event>
 4    1  0.8130725E-001  0.1827375E+03  0.7546771E-02  0.1165180E+00
          2   -1    0    0  502    0  0.00000000000E+00  0.00000000000E+00  0.21549864335E+03  0.21549864335E+03  0.00000000000E+00 0. -1.
         -2   -1    0    0    0  501 -0.00000000000E+00 -0.00000000000E+00 -0.22136325533E+03  0.22136325533E+03  0.00000000000E+00 0.  1.
          6    1    1    2  502    0  0.50983366661E+02 -0.29405842947E+02  0.11670486782E+03  0.21682489121E+03  0.17300000000E+03 0. -1.
         -6    1    1    2    0  501 -0.50983366661E+02  0.29405842947E+02 -0.12256947981E+03  0.22003700747E+03  0.17300000000E+03 0.  1.
<mgrwt>
<rscale>  2 0.18273754E+03</rscale>
<asrwt>0</asrwt>
<pdfrwt beam="1">  1        2 0.33153637E-01 0.18273754E+03</pdfrwt>
<pdfrwt beam="2">  1       -2 0.34055885E-01 0.18273754E+03</pdfrwt>
<totfact> 0.12582446E+03</totfact>
</mgrwt>
</event>
<event>
 4    1  0.8130725E-001  0.1787737E+03  0.7546771E-02  0.1168995E+00
          1   -1    0    0  502    0  0.00000000000E+00  0.00000000000E+00  0.20927992811E+03  0.20927992811E+03  0.00000000000E+00 0.  1.
         -1   -1    0    0    0  501 -0.00000000000E+00 -0.00000000000E+00 -0.15391176473E+03  0.15391176473E+03  0.00000000000E+00 0. -1.
          6    1    1    2  502    0  0.33619862444E+02 -0.30012446641E+02  0.43701686431E+02  0.18403771217E+03  0.17300000000E+03 0. -1.
         -6    1    1    2    0  501 -0.33619862444E+02  0.30012446641E+02  0.11666476943E+02  0.17915398067E+03  0.17300000000E+03 0. -1.
<mgrwt>
<rscale>  2 0.17877372E+03</rscale>
<asrwt>0</asrwt>
<pdfrwt beam="1">  1        1 0.32196912E-01 0.17877372E+03</pdfrwt>
<pdfrwt beam="2">  1       -1 0.23678733E-01 0.17877372E+03</pdfrwt>
<totfact> 0.20791578E+03</totfact>
</mgrwt>
</event>
<event>
 4    1  0.8130725E-001  0.2320569E+03  0.7546771E-02  0.1125200E+00
          2   -1    0    0  502    0  0.00000000000E+00  0.00000000000E+00  0.97604328517E+02  0.97604328517E+02  0.00000000000E+00 0. -1.
         -2   -1    0    0    0  501 -0.00000000000E+00 -0.00000000000E+00 -0.55823856824E+03  0.55823856824E+03  0.00000000000E+00 0.  1.
          6    1    1    2  502    0  0.13866764664E+02  0.15404260585E+03 -0.19488604585E+03  0.30303627249E+03  0.17300000000E+03 0. -1.
         -6    1    1    2    0  501 -0.13866764664E+02 -0.15404260585E+03 -0.26574819388E+03  0.35280662427E+03  0.17300000000E+03 0. -1.
<mgrwt>
<rscale>  2 0.23205691E+03</rscale>
<asrwt>0</asrwt>
<pdfrwt beam="1">  1        2 0.15016051E-01 0.23205691E+03</pdfrwt>
<pdfrwt beam="2">  1       -2 0.85882856E-01 0.23205691E+03</pdfrwt>
<totfact> 0.47294085E+02</totfact>
</mgrwt>
</event>
<event>
 4    1  0.8130725E-001  0.2150173E+03  0.7546771E-02  0.1137653E+00
         -2   -1    0    0    0  501 -0.00000000000E+00  0.00000000000E+00  0.19138862868E+02  0.19138862868E+02  0.00000000000E+00 0. -1.
          2   -1    0    0  502    0  0.00000000000E+00 -0.00000000000E+00 -0.24688966697E+04  0.24688966697E+04  0.00000000000E+00 0.  1.
          6    1    1    2  502    0 -0.91531735899E+02 -0.89024603398E+02 -0.14076035232E+04  0.14239312193E+04  0.17300000000E+03 0.  1.
         -6    1    1    2    0  501  0.91531735899E+02  0.89024603398E+02 -0.10421542836E+04  0.10641043133E+04  0.17300000000E+03 0. -1.
<mgrwt>
<rscale>  2 0.21501730E+03</rscale>
<asrwt>0</asrwt>
<pdfrwt beam="2">  1        2 0.37983018E+00 0.21501730E+03</pdfrwt>
<pdfrwt beam="1">  1       -2 0.29444411E-02 0.21501730E+03</pdfrwt>
<totfact> 0.18269528E+03</totfact>
</mgrwt>
</event>
<event>
 4    1  0.8130725E-001  0.2477644E+03  0.7546771E-02  0.1114726E+00
         -2   -1    0    0    0  501 -0.00000000000E+00  0.00000000000E+00  0.78448123691E+02  0.78448123691E+02  0.00000000000E+00 0. -1.
          2   -1    0    0  502    0  0.00000000000E+00 -0.00000000000E+00 -0.80057715438E+03  0.80057715438E+03  0.00000000000E+00 0.  1.
          6    1    1    2  502    0  0.10466870810E+03 -0.14318742797E+03 -0.29505572866E+03  0.38528568751E+03  0.17300000000E+03 0.  1.
         -6    1    1    2    0  501 -0.10466870810E+03  0.14318742797E+03 -0.42707330203E+03  0.49373959057E+03  0.17300000000E+03 0. -1.
<mgrwt>
<rscale>  2 0.24776436E+03</rscale>
<asrwt>0</asrwt>
<pdfrwt beam="2">  1        2 0.12316571E+00 0.24776436E+03</pdfrwt>
<pdfrwt beam="1">  1       -2 0.12068943E-01 0.24776436E+03</pdfrwt>
<totfact> 0.17337858E+03</totfact>
</mgrwt>
</event>
<event>
 4    1  0.8130725E-001  0.1740152E+03  0.7546771E-02  0.1173724E+00
         -2   -1    0    0    0  501 -0.00000000000E+00  0.00000000000E+00  0.58436367144E+03  0.58436367144E+03  0.00000000000E+00 0.  1.
          2   -1    0    0  502    0  0.00000000000E+00 -0.00000000000E+00 -0.11667472310E+03  0.11667472310E+03  0.00000000000E+00 0. -1.
          6    1    1    2  502    0 -0.52914678422E+01  0.18008328283E+02  0.49517892446E+03  0.52486518912E+03  0.17300000000E+03 0.  1.
         -6    1    1    2    0  501  0.52914678422E+01 -0.18008328283E+02 -0.27489976128E+02  0.17617320542E+03  0.17300000000E+03 0. -1.
<mgrwt>
<rscale>  2 0.17401523E+03</rscale>
<asrwt>0</asrwt>
<pdfrwt beam="2">  1        2 0.17949958E-01 0.17401523E+03</pdfrwt>
<pdfrwt beam="1">  1       -2 0.89902101E-01 0.17401523E+03</pdfrwt>
<totfact> 0.34519353E+02</totfact>
</mgrwt>
</event>
<event>
 4    1  0.8130725E-001  0.2807349E+03  0.7546771E-02  0.1095288E+00
          1   -1    0    0  502    0  0.00000000000E+00  0.00000000000E+00  0.89038208970E+03  0.89038208970E+03  0.00000000000E+00 0.  1.
         -1   -1    0    0    0  501 -0.00000000000E+00 -0.00000000000E+00 -0.90907664763E+02  0.90907664763E+02  0.00000000000E+00 0. -1.
          6    1    1    2  502    0  0.21337994160E+03 -0.57897392085E+02  0.47933745388E+03  0.55549662661E+03  0.17300000000E+03 0. -1.
         -6    1    1    2    0  501 -0.21337994160E+03  0.57897392085E+02  0.32013697105E+03  0.42579312784E+03  0.17300000000E+03 0.  1.
<mgrwt>
<rscale>  2 0.28073494E+03</rscale>
<asrwt>0</asrwt>
<pdfrwt beam="1">  1        1 0.13698185E+00 0.28073494E+03</pdfrwt>
<pdfrwt beam="2">  1       -1 0.13985795E-01 0.28073494E+03</pdfrwt>
<totfact> 0.70051173E+02</totfact>
</mgrwt>
</event>
<event>
 4    1  0.8130725E-001  0.5189250E+03  0.7546771E-02  0.1008954E+00
          1   -1    0    0  502    0  0.00000000000E+00  0.00000000000E+00  0.64094073579E+03  0.64094073579E+03  0.00000000000E+00 0.  1.
         -1   -1    0    0    0  501 -0.00000000000E+00 -0.00000000000E+00 -0.45064982098E+03  0.45064982098E+03  0.00000000000E+00 0. -1.
          6    1    1    2  502    0 -0.28499299902E+02 -0.48840751298E+03 -0.46874452739E+02  0.52103773678E+03  0.17300000000E+03 0.  1.
         -6    1    1    2    0  501  0.28499299902E+02  0.48840751298E+03  0.23716536755E+03  0.57055281999E+03  0.17300000000E+03 0. -1.
<mgrwt>
<rscale>  2 0.51892495E+03</rscale>
<asrwt>0</asrwt>
<pdfrwt beam="1">  1        1 0.98606267E-01 0.51892495E+03</pdfrwt>
<pdfrwt beam="2">  1       -1 0.69330742E-01 0.51892495E+03</pdfrwt>
<totfact> 0.68289131E+01</totfact>
</mgrwt>
</event>
<event>
 4    1  0.8130725E-001  0.1814544E+03  0.7546771E-02  0.1166403E+00
         -1   -1    0    0    0  501 -0.00000000000E+00  0.00000000000E+00  0.13574352757E+03  0.13574352757E+03  0.00000000000E+00 0. -1.
          1   -1    0    0  502    0  0.00000000000E+00 -0.00000000000E+00 -0.92285414165E+03  0.92285414165E+03  0.00000000000E+00 0.  1.
          6    1    1    2  502    0  0.10416077832E+02 -0.53742077239E+02  0.60891802451E+02  0.19139884312E+03  0.17300000000E+03 0. -1.
         -6    1    1    2    0  501 -0.10416077832E+02  0.53742077239E+02 -0.84800241653E+03  0.86719882610E+03  0.17300000000E+03 0.  1.
<mgrwt>
<rscale>  2 0.18145442E+03</rscale>
<asrwt>0</asrwt>
<pdfrwt beam="2">  1        1 0.14197755E+00 0.18145442E+03</pdfrwt>
<pdfrwt beam="1">  1       -1 0.20883621E-01 0.18145442E+03</pdfrwt>
<totfact> 0.35073969E+02</totfact>
</mgrwt>
</event>
<event>
 4    1  0.8130725E-001  0.1877585E+03  0.7546771E-02  0.1160499E+00
          1   -1    0    0  502    0  0.00000000000E+00  0.00000000000E+00  0.28468642455E+03  0.28468642455E+03  0.00000000000E+00 0.  1.
         -1   -1    0    0    0  501 -0.00000000000E+00 -0.00000000000E+00 -0.13595629943E+03  0.13595629943E+03  0.00000000000E+00 0. -1.
          6    1    1    2  502    0  0.45258637274E+02 -0.57235572046E+02  0.13717295301E+03  0.23252886701E+03  0.17300000000E+03 0.  1.
         -6    1    1    2    0  501 -0.45258637274E+02  0.57235572046E+02  0.11557172102E+02  0.18811385697E+03  0.17300000000E+03 0. -1.
<mgrwt>
<rscale>  2 0.18775850E+03</rscale>
<asrwt>0</asrwt>
<pdfrwt beam="1">  1        1 0.43797912E-01 0.18775850E+03</pdfrwt>
<pdfrwt beam="2">  1       -1 0.20916354E-01 0.18775850E+03</pdfrwt>
<totfact> 0.17366838E+03</totfact>
</mgrwt>
</event>
<event>
 4    1  0.8130725E-001  0.2084900E+03  0.7546771E-02  0.1142767E+00
          2   -1    0    0  502    0  0.00000000000E+00  0.00000000000E+00  0.16735521525E+04  0.16735521525E+04  0.00000000000E+00 0.  1.
         -2   -1    0    0    0  501 -0.00000000000E+00 -0.00000000000E+00 -0.26038015449E+02  0.26038015449E+02  0.00000000000E+00 0. -1.
          6    1    1    2  502    0  0.10244692792E+03 -0.55169822546E+02  0.86604244355E+03  0.89078482048E+03  0.17300000000E+03 0. -1.
         -6    1    1    2    0  501 -0.10244692792E+03  0.55169822546E+02  0.78147169352E+03  0.80880534749E+03  0.17300000000E+03 0. -1.
<mgrwt>
<rscale>  2 0.20849001E+03</rscale>
<asrwt>0</asrwt>
<pdfrwt beam="1">  1        2 0.25746948E+00 0.20849001E+03</pdfrwt>
<pdfrwt beam="2">  1       -2 0.40058498E-02 0.20849001E+03</pdfrwt>
<totfact> 0.30240175E+03</totfact>
</mgrwt>
</event>
<event>
 4    1  0.8130725E-001  0.2536789E+03  0.7546771E-02  0.1111002E+00
         -2   -1    0    0    0  501 -0.00000000000E+00  0.00000000000E+00  0.38103947772E+03  0.38103947772E+03  0.00000000000E+00 0. -1.
          2   -1    0    0  502    0  0.00000000000E+00 -0.00000000000E+00 -0.17737618637E+03  0.17737618637E+03  0.00000000000E+00 0.  1.
          6    1    1    2  502    0  0.17766417802E+03  0.53473524785E+02  0.40753118636E+02  0.25693149804E+03  0.17300000000E+03 0.  1.
         -6    1    1    2    0  501 -0.17766417802E+03 -0.53473524785E+02  0.16291017271E+03  0.30148416605E+03  0.17300000000E+03 0. -1.
<mgrwt>
<rscale>  2 0.25367889E+03</rscale>
<asrwt>0</asrwt>
<pdfrwt beam="2">  1        2 0.27288644E-01 0.25367889E+03</pdfrwt>
<pdfrwt beam="1">  1       -2 0.58621458E-01 0.25367889E+03</pdfrwt>
<totfact> 0.54226163E+02</totfact>
</mgrwt>
</event>
<event>
 4    1  0.8130725E-001  0.2831660E+03  0.7546771E-02  0.1093972E+00
         -2   -1    0    0    0  501 -0.00000000000E+00  0.00000000000E+00  0.22949666967E+03  0.22949666967E+03  0.00000000000E+00 0.  1.
          2   -1    0    0  502    0  0.00000000000E+00 -0.00000000000E+00 -0.18324218415E+04  0.18324218415E+04  0.00000000000E+00 0. -1.
          6    1    1    2  502    0 -0.12086473837E+03 -0.18880071947E+03 -0.17289425764E+04  0.17519775767E+04  0.17300000000E+03 0. -1.
         -6    1    1    2    0  501  0.12086473837E+03  0.18880071947E+03  0.12601740454E+03  0.30994093454E+03  0.17300000000E+03 0.  1.
<mgrwt>
<rscale>  2 0.28316602E+03</rscale>
<asrwt>0</asrwt>
<pdfrwt beam="2">  1        2 0.28191104E+00 0.28316602E+03</pdfrwt>
<pdfrwt beam="1">  1       -2 0.35307181E-01 0.28316602E+03</pdfrwt>
<totfact> 0.69347844E+01</totfact>
</mgrwt>
</event>
<event>
 4    1  0.8130725E-001  0.3576412E+03  0.7546771E-02  0.1059522E+00
         -1   -1    0    0    0  501 -0.00000000000E+00  0.00000000000E+00  0.59855426614E+03  0.59855426614E+03  0.00000000000E+00 0. -1.
          1   -1    0    0  502    0  0.00000000000E+00 -0.00000000000E+00 -0.30229926720E+03  0.30229926720E+03  0.00000000000E+00 0.  1.
          6    1    1    2  502    0  0.26221765783E+03 -0.17093887524E+03  0.39198519322E+03  0.53062189066E+03  0.17300000000E+03 0. -1.
         -6    1    1    2    0  501 -0.26221765783E+03  0.17093887524E+03 -0.95730194280E+02  0.37023164268E+03  0.17300000000E+03 0.  1.
<mgrwt>
<rscale>  2 0.35764116E+03</rscale>
<asrwt>0</asrwt>
<pdfrwt beam="2">  1        1 0.46507580E-01 0.35764116E+03</pdfrwt>
<pdfrwt beam="1">  1       -1 0.92085272E-01 0.35764116E+03</pdfrwt>
<totfact> 0.10470254E+02</totfact>
</mgrwt>
</event>
<event>
 4    1  0.8130725E-001  0.1973660E+03  0.7546771E-02  0.1151981E+00
          2   -1    0    0  502    0  0.00000000000E+00  0.00000000000E+00  0.25214014850E+03  0.25214014850E+03  0.00000000000E+00 0.  1.
         -2   -1    0    0    0  501 -0.00000000000E+00 -0.00000000000E+00 -0.16508642272E+03  0.16508642272E+03  0.00000000000E+00 0. -1.
          6    1    1    2  502    0 -0.15691301163E+02  0.93691633523E+02 -0.93236310462E+01  0.19758610584E+03  0.17300000000E+03 0. -1.
         -6    1    1    2    0  501  0.15691301163E+02 -0.93691633523E+02  0.96377356825E+02  0.21964046538E+03  0.17300000000E+03 0.  1.
<mgrwt>
<rscale>  2 0.19736600E+03</rscale>
<asrwt>0</asrwt>
<pdfrwt beam="1">  1        2 0.38790792E-01 0.19736600E+03</pdfrwt>
<pdfrwt beam="2">  1       -2 0.25397911E-01 0.19736600E+03</pdfrwt>
<totfact> 0.18070339E+03</totfact>
</mgrwt>
</event>
<event>
 4    1  0.8130725E-001  0.2008265E+03  0.7546771E-02  0.1149044E+00
          2   -1    0    0  502    0  0.00000000000E+00  0.00000000000E+00  0.10018218656E+03  0.10018218656E+03  0.00000000000E+00 0. -1.
         -2   -1    0    0    0  501 -0.00000000000E+00 -0.00000000000E+00 -0.42569657544E+03  0.42569657544E+03  0.00000000000E+00 0.  1.
          6    1    1    2  502    0  0.72656035467E+02  0.71577831659E+02 -0.10148367075E+03  0.22501160171E+03  0.17300000000E+03 0. -1.
         -6    1    1    2    0  501 -0.72656035467E+02 -0.71577831659E+02 -0.22403071814E+03  0.30086716029E+03  0.17300000000E+03 0.  1.
<mgrwt>
<rscale>  2 0.20082651E+03</rscale>
<asrwt>0</asrwt>
<pdfrwt beam="1">  1        2 0.15412644E-01 0.20082651E+03</pdfrwt>
<pdfrwt beam="2">  1       -2 0.65491780E-01 0.20082651E+03</pdfrwt>
<totfact> 0.82457166E+02</totfact>
</mgrwt>
</event>
<event>
 4    1  0.8130725E-001  0.3663114E+03  0.7546771E-02  0.1056112E+00
          2   -1    0    0  502    0  0.00000000000E+00  0.00000000000E+00  0.12972073893E+03  0.12972073893E+03  0.00000000000E+00 0.  1.
         -2   -1    0    0    0  501 -0.00000000000E+00 -0.00000000000E+00 -0.12086484057E+04  0.12086484057E+04  0.00000000000E+00 0. -1.
          6    1    1    2  502    0 -0.88807432207E+02 -0.31043238271E+03 -0.79354458548E+03  0.87401203275E+03  0.17300000000E+03 0. -1.
         -6    1    1    2    0  501  0.88807432207E+02  0.31043238271E+03 -0.28538308125E+03  0.46435711184E+03  0.17300000000E+03 0.  1.
<mgrwt>
<rscale>  2 0.36631138E+03</rscale>
<asrwt>0</asrwt>
<pdfrwt beam="1">  1        2 0.19957036E-01 0.36631138E+03</pdfrwt>
<pdfrwt beam="2">  1       -2 0.18594591E+00 0.36631138E+03</pdfrwt>
<totfact> 0.49107172E+01</totfact>
</mgrwt>
</event>
<event>
 4    1  0.8130725E-001  0.1766247E+03  0.7546771E-02  0.1171110E+00
         -1   -1    0    0    0  501 -0.00000000000E+00  0.00000000000E+00  0.29604311518E+03  0.29604311518E+03  0.00000000000E+00 0.  1.
          1   -1    0    0  502    0  0.00000000000E+00 -0.00000000000E+00 -0.11329785793E+03  0.11329785793E+03  0.00000000000E+00 0. -1.
          6    1    1    2  502    0  0.80099583138E+01 -0.34686267033E+02  0.37257891154E+02  0.18051162568E+03  0.17300000000E+03 0. -1.
         -6    1    1    2    0  501 -0.80099583138E+01  0.34686267033E+02  0.14548736609E+03  0.22882934743E+03  0.17300000000E+03 0.  1.
<mgrwt>
<rscale>  2 0.17662473E+03</rscale>
<asrwt>0</asrwt>
<pdfrwt beam="2">  1        1 0.17430440E-01 0.17662473E+03</pdfrwt>
<pdfrwt beam="1">  1       -1 0.45545094E-01 0.17662473E+03</pdfrwt>
<totfact> 0.14741157E+03</totfact>
</mgrwt>
</event>
<event>
 4    1  0.8130725E-001  0.2404174E+03  0.7546771E-02  0.1119515E+00
         -3   -1    0    0    0  501 -0.00000000000E+00  0.00000000000E+00  0.15485334766E+03  0.15485334766E+03  0.00000000000E+00 0. -1.
          3   -1    0    0  502    0  0.00000000000E+00 -0.00000000000E+00 -0.37422532946E+03  0.37422532946E+03  0.00000000000E+00 0.  1.
          6    1    1    2  502    0 -0.41946977482E+02 -0.16159200236E+03 -0.96248619284E+02  0.25896779889E+03  0.17300000000E+03 0.  1.
         -6    1    1    2    0  501  0.41946977482E+02  0.16159200236E+03 -0.12312336252E+03  0.27011087824E+03  0.17300000000E+03 0. -1.
<mgrwt>
<rscale>  2 0.24041740E+03</rscale>
<asrwt>0</asrwt>
<pdfrwt beam="2">  1        3 0.57573127E-01 0.24041740E+03</pdfrwt>
<pdfrwt beam="1">  1       -3 0.23823592E-01 0.24041740E+03</pdfrwt>
<totfact> 0.12213230E+02</totfact>
</mgrwt>
</event>
<event>
 4    1  0.8130725E-001  0.1797294E+03  0.7546771E-02  0.1168065E+00
         -1   -1    0    0    0  501 -0.00000000000E+00  0.00000000000E+00  0.96636267131E+02  0.96636267131E+02  0.00000000000E+00 0.  1.
          1   -1    0    0  502    0  0.00000000000E+00 -0.00000000000E+00 -0.34297444172E+03  0.34297444172E+03  0.00000000000E+00 0. -1.
          6    1    1    2  502    0  0.48375648855E+02  0.57849973243E+01 -0.15818465541E+03  0.23942651232E+03  0.17300000000E+03 0. -1.
         -6    1    1    2    0  501 -0.48375648855E+02 -0.57849973243E+01 -0.88153519182E+02  0.20018419653E+03  0.17300000000E+03 0. -1.
<mgrwt>
<rscale>  2 0.17972943E+03</rscale>
<asrwt>0</asrwt>
<pdfrwt beam="2">  1        1 0.52765299E-01 0.17972943E+03</pdfrwt>
<pdfrwt beam="1">  1       -1 0.14867118E-01 0.17972943E+03</pdfrwt>
<totfact> 0.23719104E+03</totfact>
</mgrwt>
</event>
<event>
 4    1  0.8130725E-001  0.2739601E+03  0.7546771E-02  0.1099034E+00
         -2   -1    0    0    0  501 -0.00000000000E+00  0.00000000000E+00  0.29496326427E+03  0.29496326427E+03  0.00000000000E+00 0. -1.
          2   -1    0    0  502    0  0.00000000000E+00 -0.00000000000E+00 -0.40338410239E+03  0.40338410239E+03  0.00000000000E+00 0.  1.
          6    1    1    2  502    0  0.10651043290E+03  0.18379516672E+03  0.15795547300E+03  0.31623419657E+03  0.17300000000E+03 0.  1.
         -6    1    1    2    0  501 -0.10651043290E+03 -0.18379516672E+03 -0.26637631112E+03  0.38211317009E+03  0.17300000000E+03 0. -1.
<mgrwt>
<rscale>  2 0.27396010E+03</rscale>
<asrwt>0</asrwt>
<pdfrwt beam="2">  1        2 0.62059092E-01 0.27396010E+03</pdfrwt>
<pdfrwt beam="1">  1       -2 0.45378964E-01 0.27396010E+03</pdfrwt>
<totfact> 0.37078076E+02</totfact>
</mgrwt>
</event>
<event>
 4    1  0.8130725E-001  0.2791432E+03  0.7546771E-02  0.1096158E+00
         -1   -1    0    0    0  501 -0.00000000000E+00  0.00000000000E+00  0.19857062684E+04  0.19857062684E+04  0.00000000000E+00 0. -1.
          1   -1    0    0  502    0  0.00000000000E+00 -0.00000000000E+00 -0.39705199656E+02  0.39705199656E+02  0.00000000000E+00 0.  1.
          6    1    1    2  502    0  0.45120920803E+02  0.21437353967E+03  0.86348992618E+03  0.90748871322E+03  0.17300000000E+03 0. -1.
         -6    1    1    2    0  501 -0.45120920803E+02 -0.21437353967E+03  0.10825111425E+04  0.11179227548E+04  0.17300000000E+03 0.  1.
<mgrwt>
<rscale>  2 0.27914317E+03</rscale>
<asrwt>0</asrwt>
<pdfrwt beam="2">  1        1 0.61084938E-02 0.27914317E+03</pdfrwt>
<pdfrwt beam="1">  1       -1 0.30549319E+00 0.27914317E+03</pdfrwt>
<totfact> 0.44905228E+01</totfact>
</mgrwt>
</event>
<event>
 4    1  0.8130725E-001  0.4426532E+03  0.7546771E-02  0.1029936E+00
          1   -1    0    0  502    0  0.00000000000E+00  0.00000000000E+00  0.38265180504E+03  0.38265180504E+03  0.00000000000E+00 0. -1.
         -1   -1    0    0    0  501 -0.00000000000E+00 -0.00000000000E+00 -0.51217177606E+03  0.51217177606E+03  0.00000000000E+00 0.  1.
          6    1    1    2  502    0  0.33320711145E+03 -0.23449073267E+03 -0.71276224220E+02  0.44835497429E+03  0.17300000000E+03 0.  1.
         -6    1    1    2    0  501 -0.33320711145E+03  0.23449073267E+03 -0.58243746799E+02  0.44646860682E+03  0.17300000000E+03 0.  1.
<mgrwt>
<rscale>  2 0.44265323E+03</rscale>
<asrwt>0</asrwt>
<pdfrwt beam="1">  1        1 0.58869509E-01 0.44265323E+03</pdfrwt>
<pdfrwt beam="2">  1       -1 0.78795658E-01 0.44265323E+03</pdfrwt>
<totfact> 0.10685119E+02</totfact>
</mgrwt>
</event>
<event>
 4    1  0.8130725E-001  0.5270674E+03  0.7546771E-02  0.1006946E+00
         -2   -1    0    0    0  501 -0.00000000000E+00  0.00000000000E+00  0.26475533543E+03  0.26475533543E+03  0.00000000000E+00 0.  1.
          2   -1    0    0  502    0  0.00000000000E+00 -0.00000000000E+00 -0.14886896460E+04  0.14886896460E+04  0.00000000000E+00 0. -1.
          6    1    1    2  502    0 -0.31467762300E+03 -0.38580960254E+03 -0.13564653950E+03  0.54424262927E+03  0.17300000000E+03 0.  1.
         -6    1    1    2    0  501  0.31467762300E+03  0.38580960254E+03 -0.10882877711E+04  0.12092023522E+04  0.17300000000E+03 0. -1.
<mgrwt>
<rscale>  2 0.52706741E+03</rscale>
<asrwt>0</asrwt>
<pdfrwt beam="2">  1        2 0.22902918E+00 0.52706741E+03</pdfrwt>
<pdfrwt beam="1">  1       -2 0.40731589E-01 0.52706741E+03</pdfrwt>
<totfact> 0.76903654E+01</totfact>
</mgrwt>
</event>
<event>
 4    1  0.8130725E-001  0.3135874E+03  0.7546771E-02  0.1078639E+00
          2   -1    0    0  502    0  0.00000000000E+00  0.00000000000E+00  0.22156682998E+03  0.22156682998E+03  0.00000000000E+00 0. -1.
         -2   -1    0    0    0  501 -0.00000000000E+00 -0.00000000000E+00 -0.47318437954E+03  0.47318437954E+03  0.00000000000E+00 0.  1.
          6    1    1    2  502    0  0.17746102917E+03  0.19213437135E+03 -0.21233605225E+03  0.37871312707E+03  0.17300000000E+03 0.  1.
         -6    1    1    2    0  501 -0.17746102917E+03 -0.19213437135E+03 -0.39281497309E+02  0.31603808245E+03  0.17300000000E+03 0. -1.
<mgrwt>
<rscale>  2 0.31358736E+03</rscale>
<asrwt>0</asrwt>
<pdfrwt beam="1">  1        2 0.34087205E-01 0.31358736E+03</pdfrwt>
<pdfrwt beam="2">  1       -2 0.72797597E-01 0.31358736E+03</pdfrwt>
<totfact> 0.26795663E+02</totfact>
</mgrwt>
</event>
<event>
 4    1  0.8130725E-001  0.2911738E+03  0.7546771E-02  0.1089738E+00
         -1   -1    0    0    0  501 -0.00000000000E+00  0.00000000000E+00  0.24870904605E+03  0.24870904605E+03  0.00000000000E+00 0. -1.
          1   -1    0    0  502    0  0.00000000000E+00 -0.00000000000E+00 -0.45234679809E+03  0.45234679809E+03  0.00000000000E+00 0.  1.
          6    1    1    2  502    0 -0.17790820219E+03 -0.15232154307E+03 -0.27581599807E+03  0.40106937764E+03  0.17300000000E+03 0.  1.
         -6    1    1    2    0  501  0.17790820219E+03  0.15232154307E+03  0.72178246028E+02  0.29998646651E+03  0.17300000000E+03 0. -1.
<mgrwt>
<rscale>  2 0.29117380E+03</rscale>
<asrwt>0</asrwt>
<pdfrwt beam="2">  1        1 0.69591815E-01 0.29117380E+03</pdfrwt>
<pdfrwt beam="1">  1       -1 0.38262930E-01 0.29117380E+03</pdfrwt>
<totfact> 0.34673736E+02</totfact>
</mgrwt>
</event>
<event>
 4    1  0.8130725E-001  0.1818560E+03  0.7546771E-02  0.1166019E+00
         -2   -1    0    0    0  501 -0.00000000000E+00  0.00000000000E+00  0.27154918033E+02  0.27154918033E+02  0.00000000000E+00 0.  1.
          2   -1    0    0  502    0  0.00000000000E+00 -0.00000000000E+00 -0.12179026112E+04  0.12179026112E+04  0.00000000000E+00 0. -1.
          6    1    1    2  502    0 -0.32758053242E+02 -0.45491817692E+02 -0.59767030858E+03  0.62472505415E+03  0.17300000000E+03 0. -1.
         -6    1    1    2    0  501  0.32758053242E+02  0.45491817692E+02 -0.59307738457E+03  0.62033247506E+03  0.17300000000E+03 0.  1.
<mgrwt>
<rscale>  2 0.18185597E+03</rscale>
<asrwt>0</asrwt>
<pdfrwt beam="2">  1        2 0.18736962E+00 0.18185597E+03</pdfrwt>
<pdfrwt beam="1">  1       -2 0.41776800E-02 0.18185597E+03</pdfrwt>
<totfact> 0.49697463E+03</totfact>
</mgrwt>
</event>
<event>
 4    1  0.8130725E-001  0.1956250E+03  0.7546771E-02  0.1153484E+00
          3   -1    0    0  502    0  0.00000000000E+00  0.00000000000E+00  0.42184404602E+02  0.42184404602E+02  0.00000000000E+00 0. -1.
         -3   -1    0    0    0  501 -0.00000000000E+00 -0.00000000000E+00 -0.92640070248E+03  0.92640070248E+03  0.00000000000E+00 0.  1.
          6    1    1    2  502    0 -0.48593726530E+02  0.77322696390E+02 -0.51185301252E+03  0.54796227613E+03  0.17300000000E+03 0.  1.
         -6    1    1    2    0  501  0.48593726530E+02 -0.77322696390E+02 -0.37236328536E+03  0.42062283095E+03  0.17300000000E+03 0. -1.
<mgrwt>
<rscale>  2 0.19562502E+03</rscale>
<asrwt>0</asrwt>
<pdfrwt beam="1">  1        3 0.64899088E-02 0.19562502E+03</pdfrwt>
<pdfrwt beam="2">  1       -3 0.14252318E+00 0.19562502E+03</pdfrwt>
<totfact> 0.14232351E+02</totfact>
</mgrwt>
</event>
<event>
 4    1  0.8130725E-001  0.1770973E+03  0.7546771E-02  0.1170642E+00
         -1   -1    0    0    0  501 -0.00000000000E+00  0.00000000000E+00  0.23081390828E+02  0.23081390828E+02  0.00000000000E+00 0.  1.
          1   -1    0    0  502    0  0.00000000000E+00 -0.00000000000E+00 -0.21769501464E+04  0.21769501464E+04  0.00000000000E+00 0. -1.
          6    1    1    2  502    0 -0.24948983639E+02  0.28495791885E+02 -0.40258370879E+03  0.43981485255E+03  0.17300000000E+03 0.  1.
         -6    1    1    2    0  501  0.24948983639E+02 -0.28495791885E+02 -0.17512850468E+04  0.17602166847E+04  0.17300000000E+03 0. -1.
<mgrwt>
<rscale>  2 0.17709732E+03</rscale>
<asrwt>0</asrwt>
<pdfrwt beam="2">  1        1 0.33491528E+00 0.17709732E+03</pdfrwt>
<pdfrwt beam="1">  1       -1 0.35509845E-02 0.17709732E+03</pdfrwt>
<totfact> 0.76982180E+02</totfact>
</mgrwt>
</event>
<event>
 4    1  0.8130725E-001  0.1899906E+03  0.7546771E-02  0.1158470E+00
          1   -1    0    0  502    0  0.00000000000E+00  0.00000000000E+00  0.24713492871E+02  0.24713492871E+02  0.00000000000E+00 0.  1.
         -1   -1    0    0    0  501 -0.00000000000E+00 -0.00000000000E+00 -0.17548704878E+04  0.17548704878E+04  0.00000000000E+00 0. -1.
          6    1    1    2  502    0  0.77882986932E+02  0.10082239091E+02 -0.50070834897E+03  0.53554202629E+03  0.17300000000E+03 0.  1.
         -6    1    1    2    0  501 -0.77882986932E+02 -0.10082239091E+02 -0.12294486460E+04  0.12440419544E+04  0.17300000000E+03 0. -1.
<mgrwt>
<rscale>  2 0.18999056E+03</rscale>
<asrwt>0</asrwt>
<pdfrwt beam="1">  1        1 0.38020756E-02 0.18999056E+03</pdfrwt>
<pdfrwt beam="2">  1       -1 0.26998009E+00 0.18999056E+03</pdfrwt>
<totfact> 0.14636136E+02</totfact>
</mgrwt>
</event>
<event>
 4    1  0.8130725E-001  0.3161693E+03  0.7546771E-02  0.1077426E+00
          2   -1    0    0  502    0  0.00000000000E+00  0.00000000000E+00  0.15501361959E+03  0.15501361959E+03  0.00000000000E+00 0. -1.
         -2   -1    0    0    0  501 -0.00000000000E+00 -0.00000000000E+00 -0.65196145175E+03  0.65196145175E+03  0.00000000000E+00 0.  1.
          6    1    1    2  502    0 -0.26226306306E+03  0.35385549932E+02 -0.20638172122E+03  0.37756650573E+03  0.17300000000E+03 0.  1.
         -6    1    1    2    0  501  0.26226306306E+03 -0.35385549932E+02 -0.29056611094E+03  0.42940856561E+03  0.17300000000E+03 0. -1.
<mgrwt>
<rscale>  2 0.31616934E+03</rscale>
<asrwt>0</asrwt>
<pdfrwt beam="1">  1        2 0.23848250E-01 0.31616934E+03</pdfrwt>
<pdfrwt beam="2">  1       -2 0.10030176E+00 0.31616934E+03</pdfrwt>
<totfact> 0.19387413E+02</totfact>
</mgrwt>
</event>
<event>
 4    1  0.8130725E-001  0.1781420E+03  0.7546771E-02  0.1169613E+00
          1   -1    0    0  502    0  0.00000000000E+00  0.00000000000E+00  0.15926031859E+03  0.15926031859E+03  0.00000000000E+00 0.  1.
         -1   -1    0    0    0  501 -0.00000000000E+00 -0.00000000000E+00 -0.20001661588E+03  0.20001661588E+03  0.00000000000E+00 0. -1.
          6    1    1    2  502    0 -0.27643481919E+02  0.32271158234E+02 -0.31409293275E+02  0.18088983789E+03  0.17300000000E+03 0.  1.
         -6    1    1    2    0  501  0.27643481919E+02 -0.32271158234E+02 -0.93470040143E+01  0.17838709659E+03  0.17300000000E+03 0.  1.
<mgrwt>
<rscale>  2 0.17814205E+03</rscale>
<asrwt>0</asrwt>
<pdfrwt beam="1">  1        1 0.24501587E-01 0.17814205E+03</pdfrwt>
<pdfrwt beam="2">  1       -1 0.30771787E-01 0.17814205E+03</pdfrwt>
<totfact> 0.18927062E+03</totfact>
</mgrwt>
</event>
<event>
 4    1  0.8130725E-001  0.1760467E+03  0.7546771E-02  0.1171685E+00
         -1   -1    0    0    0  501 -0.00000000000E+00  0.00000000000E+00  0.47326842215E+03  0.47326842215E+03  0.00000000000E+00 0. -1.
          1   -1    0    0  502    0  0.00000000000E+00 -0.00000000000E+00 -0.72364703788E+02  0.72364703788E+02  0.00000000000E+00 0.  1.
          6    1    1    2  502    0  0.56573994369E+01 -0.32115906195E+02  0.28456461520E+03  0.33461837640E+03  0.17300000000E+03 0.  1.
         -6    1    1    2    0  501 -0.56573994369E+01  0.32115906195E+02  0.11633910316E+03  0.21101474954E+03  0.17300000000E+03 0.  1.
<mgrwt>
<rscale>  2 0.17604669E+03</rscale>
<asrwt>0</asrwt>
<pdfrwt beam="2">  1        1 0.11133032E-01 0.17604669E+03</pdfrwt>
<pdfrwt beam="1">  1       -1 0.72810524E-01 0.17604669E+03</pdfrwt>
<totfact> 0.10887686E+03</totfact>
</mgrwt>
</event>
<event>
 4    1  0.8130725E-001  0.1746063E+03  0.7546771E-02  0.1173128E+00
          2   -1    0    0  502    0  0.00000000000E+00  0.00000000000E+00  0.54162789137E+02  0.54162789137E+02  0.00000000000E+00 0. -1.
         -2   -1    0    0    0  501 -0.00000000000E+00 -0.00000000000E+00 -0.60942369487E+03  0.60942369487E+03  0.00000000000E+00 0.  1.
          6    1    1    2  502    0  0.14850299106E+02  0.18380131896E+02 -0.18594082356E+03  0.25507126553E+03  0.17300000000E+03 0. -1.
         -6    1    1    2    0  501 -0.14850299106E+02 -0.18380131896E+02 -0.36932008218E+03  0.40851521848E+03  0.17300000000E+03 0.  1.
<mgrwt>
<rscale>  2 0.17460630E+03</rscale>
<asrwt>0</asrwt>
<pdfrwt beam="1">  1        2 0.83327374E-02 0.17460630E+03</pdfrwt>
<pdfrwt beam="2">  1       -2 0.93757485E-01 0.17460630E+03</pdfrwt>
<totfact> 0.79284530E+02</totfact>
</mgrwt>
</event>
<event>
 4    1  0.8130725E-001  0.2313263E+03  0.7546771E-02  0.1125710E+00
          2   -1    0    0  502    0  0.00000000000E+00  0.00000000000E+00  0.68650735170E+03  0.68650735170E+03  0.00000000000E+00 0. -1.
         -2   -1    0    0    0  501 -0.00000000000E+00 -0.00000000000E+00 -0.79364121450E+02  0.79364121450E+02  0.00000000000E+00 0.  1.
          6    1    1    2  502    0 -0.47498970409E+02 -0.14603670058E+03  0.35472391280E+03  0.42348662838E+03  0.17300000000E+03 0.  1.
         -6    1    1    2    0  501  0.47498970409E+02  0.14603670058E+03  0.25241931745E+03  0.34238484477E+03  0.17300000000E+03 0. -1.
<mgrwt>
<rscale>  2 0.23132633E+03</rscale>
<asrwt>0</asrwt>
<pdfrwt beam="1">  1        2 0.10561651E+00 0.23132633E+03</pdfrwt>
<pdfrwt beam="2">  1       -2 0.12209865E-01 0.23132633E+03</pdfrwt>
<totfact> 0.20565929E+03</totfact>
</mgrwt>
</event>
<event>
 4    1  0.8130725E-001  0.1827144E+03  0.7546771E-02  0.1165202E+00
          2   -1    0    0  502    0  0.00000000000E+00  0.00000000000E+00  0.65917595794E+03  0.65917595794E+03  0.00000000000E+00 0. -1.
         -2   -1    0    0    0  501 -0.00000000000E+00 -0.00000000000E+00 -0.52500319454E+02  0.52500319454E+02  0.00000000000E+00 0.  1.
          6    1    1    2  502    0  0.14458697640E+02 -0.56978018014E+02  0.23646070991E+03  0.29882807064E+03  0.17300000000E+03 0.  1.
         -6    1    1    2    0  501 -0.14458697640E+02  0.56978018014E+02  0.37021492858E+03  0.41284820675E+03  0.17300000000E+03 0.  1.
<mgrwt>
<rscale>  2 0.18271439E+03</rscale>
<asrwt>0</asrwt>
<pdfrwt beam="1">  1        2 0.10141168E+00 0.18271439E+03</pdfrwt>
<pdfrwt beam="2">  1       -2 0.80769727E-02 0.18271439E+03</pdfrwt>
<totfact> 0.41322584E+03</totfact>
</mgrwt>
</event>
<event>
 4    1  0.8130725E-001  0.2027352E+03  0.7546771E-02  0.1147452E+00
          2   -1    0    0  502    0  0.00000000000E+00  0.00000000000E+00  0.35740960079E+03  0.35740960079E+03  0.00000000000E+00 0. -1.
         -2   -1    0    0    0  501 -0.00000000000E+00 -0.00000000000E+00 -0.12074611890E+03  0.12074611890E+03  0.00000000000E+00 0.  1.
          6    1    1    2  502    0  0.83814006129E+02 -0.64403209890E+02  0.17049292986E+03  0.26489507395E+03  0.17300000000E+03 0. -1.
         -6    1    1    2    0  501 -0.83814006129E+02  0.64403209890E+02  0.66170552028E+02  0.21326064574E+03  0.17300000000E+03 0.  1.
<mgrwt>
<rscale>  2 0.20273520E+03</rscale>
<asrwt>0</asrwt>
<pdfrwt beam="1">  1        2 0.54986092E-01 0.20273520E+03</pdfrwt>
<pdfrwt beam="2">  1       -2 0.18576326E-01 0.20273520E+03</pdfrwt>
<totfact> 0.21333465E+03</totfact>
</mgrwt>
</event>
<event>
 4    1  0.8130725E-001  0.1744322E+03  0.7546771E-02  0.1173303E+00
          2   -1    0    0  502    0  0.00000000000E+00  0.00000000000E+00  0.26900045566E+04  0.26900045566E+04  0.00000000000E+00 0.  1.
         -2   -1    0    0    0  501 -0.00000000000E+00 -0.00000000000E+00 -0.26071706368E+02  0.26071706368E+02  0.00000000000E+00 0. -1.
          6    1    1    2  502    0 -0.18284798546E+02 -0.12777561105E+02  0.23538020374E+04  0.23602564757E+04  0.17300000000E+03 0.  1.
         -6    1    1    2    0  501  0.18284798546E+02  0.12777561105E+02  0.31013081281E+03  0.35581978722E+03  0.17300000000E+03 0. -1.
<mgrwt>
<rscale>  2 0.17443222E+03</rscale>
<asrwt>0</asrwt>
<pdfrwt beam="1">  1        2 0.41384664E+00 0.17443222E+03</pdfrwt>
<pdfrwt beam="2">  1       -2 0.40110339E-02 0.17443222E+03</pdfrwt>
<totfact> 0.87886292E+02</totfact>
</mgrwt>
</event>
<event>
 4    1  0.8130725E-001  0.2068073E+03  0.7546771E-02  0.1144119E+00
          1   -1    0    0  502    0  0.00000000000E+00  0.00000000000E+00  0.16786382524E+04  0.16786382524E+04  0.00000000000E+00 0.  1.
         -1   -1    0    0    0  501 -0.00000000000E+00 -0.00000000000E+00 -0.25550746593E+02  0.25550746593E+02  0.00000000000E+00 0. -1.
          6    1    1    2  502    0 -0.11138013927E+03  0.20850017248E+02  0.78124750414E+03  0.80815649560E+03  0.17300000000E+03 0. -1.
         -6    1    1    2    0  501  0.11138013927E+03 -0.20850017248E+02  0.87184000162E+03  0.89603250335E+03  0.17300000000E+03 0. -1.
<mgrwt>
<rscale>  2 0.20680730E+03</rscale>
<asrwt>0</asrwt>
<pdfrwt beam="1">  1        1 0.25825195E+00 0.20680730E+03</pdfrwt>
<pdfrwt beam="2">  1       -1 0.39308854E-02 0.20680730E+03</pdfrwt>
<totfact> 0.13823106E+03</totfact>
</mgrwt>
</event>
<event>
 4    1  0.8130725E-001  0.1761872E+03  0.7546771E-02  0.1171545E+00
          2   -1    0    0  502    0  0.00000000000E+00  0.00000000000E+00  0.17434502353E+04  0.17434502353E+04  0.00000000000E+00 0. -1.
         -2   -1    0    0    0  501 -0.00000000000E+00 -0.00000000000E+00 -0.29519043047E+02  0.29519043047E+02  0.00000000000E+00 0.  1.
          6    1    1    2  502    0 -0.28487798019E+02  0.17360436373E+02  0.29852687059E+03  0.34664135912E+03  0.17300000000E+03 0.  1.
         -6    1    1    2    0  501  0.28487798019E+02 -0.17360436373E+02  0.14154043217E+04  0.14263279193E+04  0.17300000000E+03 0. -1.
<mgrwt>
<rscale>  2 0.17618723E+03</rscale>
<asrwt>0</asrwt>
<pdfrwt beam="1">  1        2 0.26822303E+00 0.17618723E+03</pdfrwt>
<pdfrwt beam="2">  1       -2 0.45413926E-02 0.17618723E+03</pdfrwt>
<totfact> 0.23036619E+03</totfact>
</mgrwt>
</event>
<event>
 4    1  0.8130725E-001  0.1878493E+03  0.7546771E-02  0.1160416E+00
          1   -1    0    0  502    0  0.00000000000E+00  0.00000000000E+00  0.49144994039E+02  0.49144994039E+02  0.00000000000E+00 0. -1.
         -1   -1    0    0    0  501 -0.00000000000E+00 -0.00000000000E+00 -0.72064830690E+03  0.72064830690E+03  0.00000000000E+00 0.  1.
          6    1    1    2  502    0  0.73152438638E+02  0.26592629104E+01 -0.35897255457E+03  0.40515262049E+03  0.17300000000E+03 0.  1.
         -6    1    1    2    0  501 -0.73152438638E+02 -0.26592629104E+01 -0.31253075829E+03  0.36464068045E+03  0.17300000000E+03 0. -1.
<mgrwt>
<rscale>  2 0.18784928E+03</rscale>
<asrwt>0</asrwt>
<pdfrwt beam="1">  1        1 0.75607683E-02 0.18784928E+03</pdfrwt>
<pdfrwt beam="2">  1       -1 0.11086897E+00 0.18784928E+03</pdfrwt>
<totfact> 0.74484500E+02</totfact>
</mgrwt>
</event>
<event>
 4    1  0.8130725E-001  0.2244961E+03  0.7546771E-02  0.1130575E+00
          1   -1    0    0  502    0  0.00000000000E+00  0.00000000000E+00  0.50803785764E+03  0.50803785764E+03  0.00000000000E+00 0. -1.
         -1   -1    0    0    0  501 -0.00000000000E+00 -0.00000000000E+00 -0.12578780271E+03  0.12578780271E+03  0.00000000000E+00 0.  1.
          6    1    1    2  502    0 -0.74263592038E+02  0.12228822911E+03  0.33681964494E+03  0.40477890916E+03  0.17300000000E+03 0. -1.
         -6    1    1    2    0  501  0.74263592038E+02 -0.12228822911E+03  0.45430409998E+02  0.22904675120E+03  0.17300000000E+03 0.  1.
<mgrwt>
<rscale>  2 0.22449608E+03</rscale>
<asrwt>0</asrwt>
<pdfrwt beam="1">  1        1 0.78159669E-01 0.22449608E+03</pdfrwt>
<pdfrwt beam="2">  1       -1 0.19351970E-01 0.22449608E+03</pdfrwt>
<totfact> 0.94228891E+02</totfact>
</mgrwt>
</event>
<event>
 4    1  0.8130725E-001  0.1785376E+03  0.7546771E-02  0.1169226E+00
         -1   -1    0    0    0  501 -0.00000000000E+00  0.00000000000E+00  0.34408234132E+02  0.34408234132E+02  0.00000000000E+00 0. -1.
          1   -1    0    0  502    0  0.00000000000E+00 -0.00000000000E+00 -0.14298231143E+04  0.14298231143E+04  0.00000000000E+00 0.  1.
          6    1    1    2  502    0 -0.12292558772E+02  0.42373930657E+02 -0.11321243956E+04  0.11461157463E+04  0.17300000000E+03 0.  1.
         -6    1    1    2    0  501  0.12292558772E+02 -0.42373930657E+02 -0.26329048457E+03  0.31811560205E+03  0.17300000000E+03 0. -1.
<mgrwt>
<rscale>  2 0.17853755E+03</rscale>
<asrwt>0</asrwt>
<pdfrwt beam="2">  1        1 0.21997276E+00 0.17853755E+03</pdfrwt>
<pdfrwt beam="1">  1       -1 0.52935750E-02 0.17853755E+03</pdfrwt>
<totfact> 0.12925443E+03</totfact>
</mgrwt>
</event>
<event>
 4    1  0.8130725E-001  0.1811445E+03  0.7546771E-02  0.1166700E+00
         -1   -1    0    0    0  501 -0.00000000000E+00  0.00000000000E+00  0.36431495939E+02  0.36431495939E+02  0.00000000000E+00 0. -1.
          1   -1    0    0  502    0  0.00000000000E+00 -0.00000000000E+00 -0.10980669765E+04  0.10980669765E+04  0.00000000000E+00 0.  1.
          6    1    1    2  502    0 -0.53251909559E+02 -0.69686039931E+01 -0.29031917805E+03  0.34219665758E+03  0.17300000000E+03 0. -1.
         -6    1    1    2    0  501  0.53251909559E+02  0.69686039931E+01 -0.77131630249E+03  0.79230181484E+03  0.17300000000E+03 0.  1.
<mgrwt>
<rscale>  2 0.18114449E+03</rscale>
<asrwt>0</asrwt>
<pdfrwt beam="2">  1        1 0.16893336E+00 0.18114449E+03</pdfrwt>
<pdfrwt beam="1">  1       -1 0.56048462E-02 0.18114449E+03</pdfrwt>
<totfact> 0.19990053E+03</totfact>
</mgrwt>
</event>
<event>
 4    1  0.8130725E-001  0.2487084E+03  0.7546771E-02  0.1114124E+00
         -1   -1    0    0    0  501 -0.00000000000E+00  0.00000000000E+00  0.72481239590E+02  0.72481239590E+02  0.00000000000E+00 0.  1.
          1   -1    0    0  502    0  0.00000000000E+00 -0.00000000000E+00 -0.14337561404E+04  0.14337561404E+04  0.00000000000E+00 0. -1.
          6    1    1    2  502    0 -0.16343700473E+03 -0.72216459840E+02 -0.11597870190E+04  0.11861542063E+04  0.17300000000E+03 0. -1.
         -6    1    1    2    0  501  0.16343700473E+03  0.72216459840E+02 -0.20148788180E+03  0.32008317372E+03  0.17300000000E+03 0.  1.
<mgrwt>
<rscale>  2 0.24870841E+03</rscale>
<asrwt>0</asrwt>
<pdfrwt beam="2">  1        1 0.22057785E+00 0.24870841E+03</pdfrwt>
<pdfrwt beam="1">  1       -1 0.11150961E-01 0.24870841E+03</pdfrwt>
<totfact> 0.40997415E+02</totfact>
</mgrwt>
</event>
<event>
 4    1  0.8130725E-001  0.2110998E+03  0.7546771E-02  0.1140698E+00
         -2   -1    0    0    0  501 -0.00000000000E+00  0.00000000000E+00  0.24704878306E+02  0.24704878306E+02  0.00000000000E+00 0.  1.
          2   -1    0    0  502    0  0.00000000000E+00 -0.00000000000E+00 -0.24982138716E+04  0.24982138716E+04  0.00000000000E+00 0. -1.
          6    1    1    2  502    0 -0.11150914880E+03  0.46902591626E+02 -0.57169342169E+03  0.60942309751E+03  0.17300000000E+03 0.  1.
         -6    1    1    2    0  501  0.11150914880E+03 -0.46902591626E+02 -0.19018155716E+04  0.19134956524E+04  0.17300000000E+03 0. -1.
<mgrwt>
<rscale>  2 0.21109984E+03</rscale>
<asrwt>0</asrwt>
<pdfrwt beam="2">  1        2 0.38434056E+00 0.21109984E+03</pdfrwt>
<pdfrwt beam="1">  1       -2 0.38007508E-02 0.21109984E+03</pdfrwt>
<totfact> 0.12041297E+03</totfact>
</mgrwt>
</event>
<event>
 4    1  0.8130725E-001  0.1834018E+03  0.7546771E-02  0.1164551E+00
         -2   -1    0    0    0  501 -0.00000000000E+00  0.00000000000E+00  0.37291929850E+02  0.37291929850E+02  0.00000000000E+00 0. -1.
          2   -1    0    0  502    0  0.00000000000E+00 -0.00000000000E+00 -0.90210889530E+03  0.90210889530E+03  0.00000000000E+00 0.  1.
          6    1    1    2  502    0  0.44271387791E+02  0.41800271307E+02 -0.42658955799E+03  0.46434348218E+03  0.17300000000E+03 0.  1.
         -6    1    1    2    0  501 -0.44271387791E+02 -0.41800271307E+02 -0.43822740746E+03  0.47505734296E+03  0.17300000000E+03 0.  1.
<mgrwt>
<rscale>  2 0.18340180E+03</rscale>
<asrwt>0</asrwt>
<pdfrwt beam="2">  1        2 0.13878599E+00 0.18340180E+03</pdfrwt>
<pdfrwt beam="1">  1       -2 0.57372197E-02 0.18340180E+03</pdfrwt>
<totfact> 0.47337112E+03</totfact>
</mgrwt>
</event>
<event>
 4    1  0.8130725E-001  0.2034615E+03  0.7546771E-02  0.1146851E+00
         -1   -1    0    0    0  501 -0.00000000000E+00  0.00000000000E+00  0.16355480857E+03  0.16355480857E+03  0.00000000000E+00 0. -1.
          1   -1    0    0  502    0  0.00000000000E+00 -0.00000000000E+00 -0.26250676387E+03  0.26250676387E+03  0.00000000000E+00 0.  1.
          6    1    1    2  502    0  0.97377119646E+02  0.44556449834E+02 -0.91605728356E+01  0.20366761340E+03  0.17300000000E+03 0. -1.
         -6    1    1    2    0  501 -0.97377119646E+02 -0.44556449834E+02 -0.89791382469E+02  0.22239395904E+03  0.17300000000E+03 0.  1.
<mgrwt>
<rscale>  2 0.20346150E+03</rscale>
<asrwt>0</asrwt>
<pdfrwt beam="2">  1        1 0.40385655E-01 0.20346150E+03</pdfrwt>
<pdfrwt beam="1">  1       -1 0.25162279E-01 0.20346150E+03</pdfrwt>
<totfact> 0.14213158E+03</totfact>
</mgrwt>
</event>
<event>
 4    1  0.8130725E-001  0.2873748E+03  0.7546771E-02  0.1091728E+00
          2   -1    0    0  502    0  0.00000000000E+00  0.00000000000E+00  0.74743753101E+03  0.74743753101E+03  0.00000000000E+00 0. -1.
         -2   -1    0    0    0  501 -0.00000000000E+00 -0.00000000000E+00 -0.48027260992E+03  0.48027260992E+03  0.00000000000E+00 0.  1.
          6    1    1    2  502    0 -0.21927725553E+03 -0.67622342379E+02 -0.40505337014E+03  0.49664124743E+03  0.17300000000E+03 0.  1.
         -6    1    1    2    0  501  0.21927725553E+03  0.67622342379E+02  0.67221829123E+03  0.73106889350E+03  0.17300000000E+03 0. -1.
<mgrwt>
<rscale>  2 0.28737484E+03</rscale>
<asrwt>0</asrwt>
<pdfrwt beam="1">  1        2 0.11499039E+00 0.28737484E+03</pdfrwt>
<pdfrwt beam="2">  1       -2 0.73888094E-01 0.28737484E+03</pdfrwt>
<totfact> 0.66298393E+01</totfact>
</mgrwt>
</event>
<event>
 4    1  0.8130725E-001  0.1975099E+03  0.7546771E-02  0.1151857E+00
          2   -1    0    0  502    0  0.00000000000E+00  0.00000000000E+00  0.16306190588E+04  0.16306190588E+04  0.00000000000E+00 0.  1.
         -2   -1    0    0    0  501 -0.00000000000E+00 -0.00000000000E+00 -0.25076956870E+02  0.25076956870E+02  0.00000000000E+00 0. -1.
          6    1    1    2  502    0 -0.41732282341E+02 -0.85671233401E+02  0.62522518145E+03  0.65568031169E+03  0.17300000000E+03 0.  1.
         -6    1    1    2    0  501  0.41732282341E+02  0.85671233401E+02  0.98031692052E+03  0.10000157040E+04  0.17300000000E+03 0. -1.
<mgrwt>
<rscale>  2 0.19750986E+03</rscale>
<asrwt>0</asrwt>
<pdfrwt beam="1">  1        2 0.25086439E+00 0.19750986E+03</pdfrwt>
<pdfrwt beam="2">  1       -2 0.38579946E-02 0.19750986E+03</pdfrwt>
<totfact> 0.33683737E+03</totfact>
</mgrwt>
</event>
<event>
 4    1  0.8130725E-001  0.1824600E+03  0.7546771E-02  0.1165443E+00
          1   -1    0    0  502    0  0.00000000000E+00  0.00000000000E+00  0.18009686551E+02  0.18009686551E+02  0.00000000000E+00 0. -1.
         -1   -1    0    0    0  501 -0.00000000000E+00 -0.00000000000E+00 -0.27830076373E+04  0.27830076373E+04  0.00000000000E+00 0.  1.
          6    1    1    2  502    0  0.46928858054E+02  0.34063515922E+02 -0.57095783459E+03  0.59940344486E+03  0.17300000000E+03 0.  1.
         -6    1    1    2    0  501 -0.46928858054E+02 -0.34063515922E+02 -0.21940401161E+04  0.22016138790E+04  0.17300000000E+03 0.  1.
<mgrwt>
<rscale>  2 0.18245997E+03</rscale>
<asrwt>0</asrwt>
<pdfrwt beam="1">  1        1 0.27707227E-02 0.18245997E+03</pdfrwt>
<pdfrwt beam="2">  1       -1 0.42815476E+00 0.18245997E+03</pdfrwt>
<totfact> 0.22148295E+01</totfact>
</mgrwt>
</event>
<event>
 4    1  0.8130725E-001  0.2051972E+03  0.7546771E-02  0.1145427E+00
         -2   -1    0    0    0  501 -0.00000000000E+00  0.00000000000E+00  0.25712346450E+02  0.25712346450E+02  0.00000000000E+00 0.  1.
          2   -1    0    0  502    0  0.00000000000E+00 -0.00000000000E+00 -0.17707267993E+04  0.17707267993E+04  0.00000000000E+00 0. -1.
          6    1    1    2  502    0  0.98716026676E+02  0.49315511312E+02 -0.11188170083E+04  0.11374785148E+04  0.17300000000E+03 0. -1.
         -6    1    1    2    0  501 -0.98716026676E+02 -0.49315511312E+02 -0.62619744459E+03  0.65896063099E+03  0.17300000000E+03 0.  1.
<mgrwt>
<rscale>  2 0.20519716E+03</rscale>
<asrwt>0</asrwt>
<pdfrwt beam="2">  1        2 0.27241958E+00 0.20519716E+03</pdfrwt>
<pdfrwt beam="1">  1       -2 0.39557445E-02 0.20519716E+03</pdfrwt>
<totfact> 0.27424631E+03</totfact>
</mgrwt>
</event>
<event>
 4    1  0.8130725E-001  0.2011725E+03  0.7546771E-02  0.1148754E+00
          1   -1    0    0  502    0  0.00000000000E+00  0.00000000000E+00  0.90837537001E+03  0.90837537001E+03  0.00000000000E+00 0.  1.
         -1   -1    0    0    0  501 -0.00000000000E+00 -0.00000000000E+00 -0.15137271963E+03  0.15137271963E+03  0.00000000000E+00 0. -1.
          6    1    1    2  502    0  0.52999370496E+01 -0.10253432078E+03 -0.66617141268E+02  0.21191559589E+03  0.17300000000E+03 0. -1.
         -6    1    1    2    0  501 -0.52999370496E+01  0.10253432078E+03  0.82361979165E+03  0.84783249376E+03  0.17300000000E+03 0.  1.
<mgrwt>
<rscale>  2 0.20117250E+03</rscale>
<asrwt>0</asrwt>
<pdfrwt beam="1">  1        1 0.13975005E+00 0.20117250E+03</pdfrwt>
<pdfrwt beam="2">  1       -1 0.23288111E-01 0.20117250E+03</pdfrwt>
<totfact> 0.30019875E+02</totfact>
</mgrwt>
</event>
<event>
 4    1  0.8130725E-001  0.2634117E+03  0.7546771E-02  0.1105111E+00
         -2   -1    0    0    0  501 -0.00000000000E+00  0.00000000000E+00  0.16608538196E+03  0.16608538196E+03  0.00000000000E+00 0.  1.
          2   -1    0    0  502    0  0.00000000000E+00 -0.00000000000E+00 -0.43559226084E+03  0.43559226084E+03  0.00000000000E+00 0. -1.
          6    1    1    2  502    0 -0.18322638240E+03  0.76712547665E+02 -0.19560310104E+03  0.32809494863E+03  0.17300000000E+03 0.  1.
         -6    1    1    2    0  501  0.18322638240E+03 -0.76712547665E+02 -0.73903777831E+02  0.27358269418E+03  0.17300000000E+03 0. -1.
<mgrwt>
<rscale>  2 0.26341170E+03</rscale>
<asrwt>0</asrwt>
<pdfrwt beam="2">  1        2 0.67014193E-01 0.26341170E+03</pdfrwt>
<pdfrwt beam="1">  1       -2 0.25551598E-01 0.26341170E+03</pdfrwt>
<totfact> 0.99475842E+02</totfact>
</mgrwt>
</event>
<event>
 4    1  0.8130725E-001  0.1764629E+03  0.7546771E-02  0.1171271E+00
         -3   -1    0    0    0  501 -0.00000000000E+00  0.00000000000E+00  0.24959906149E+02  0.24959906149E+02  0.00000000000E+00 0.  1.
          3   -1    0    0  502    0  0.00000000000E+00 -0.00000000000E+00 -0.12626816843E+04  0.12626816843E+04  0.00000000000E+00 0. -1.
          6    1    1    2  502    0  0.30045930416E+01 -0.34657123099E+02 -0.54842010125E+03  0.57611088448E+03  0.17300000000E+03 0.  1.
         -6    1    1    2    0  501 -0.30045930416E+01  0.34657123099E+02 -0.68930167693E+03  0.71153070600E+03  0.17300000000E+03 0. -1.
<mgrwt>
<rscale>  2 0.17646287E+03</rscale>
<asrwt>0</asrwt>
<pdfrwt beam="2">  1        3 0.19425873E+00 0.17646287E+03</pdfrwt>
<pdfrwt beam="1">  1       -3 0.38399853E-02 0.17646287E+03</pdfrwt>
<totfact> 0.14612768E+02</totfact>
</mgrwt>
</event>
<event>
 4    1  0.8130725E-001  0.1872890E+03  0.7546771E-02  0.1160929E+00
          2   -1    0    0  502    0  0.00000000000E+00  0.00000000000E+00  0.10087131863E+04  0.10087131863E+04  0.00000000000E+00 0. -1.
         -2   -1    0    0    0  501 -0.00000000000E+00 -0.00000000000E+00 -0.85109059643E+02  0.85109059643E+02  0.00000000000E+00 0.  1.
          6    1    1    2  502    0  0.87878229841E+01 -0.71210522984E+02  0.88239639737E+03  0.90205352752E+03  0.17300000000E+03 0. -1.
         -6    1    1    2    0  501 -0.87878229841E+01  0.71210522984E+02  0.41207729297E+02  0.19176871844E+03  0.17300000000E+03 0.  1.
<mgrwt>
<rscale>  2 0.18728899E+03</rscale>
<asrwt>0</asrwt>
<pdfrwt beam="1">  1        2 0.15518664E+00 0.18728899E+03</pdfrwt>
<pdfrwt beam="2">  1       -2 0.13093702E-01 0.18728899E+03</pdfrwt>
<totfact> 0.11155018E+03</totfact>
</mgrwt>
</event>
<event>
 4    1  0.8130725E-001  0.1798249E+03  0.7546771E-02  0.1167973E+00
         -1   -1    0    0    0  501 -0.00000000000E+00  0.00000000000E+00  0.37853299414E+02  0.37853299414E+02  0.00000000000E+00 0.  1.
          1   -1    0    0  502    0  0.00000000000E+00 -0.00000000000E+00 -0.85540193904E+03  0.85540193904E+03  0.00000000000E+00 0. -1.
          6    1    1    2  502    0 -0.23749938471E+02  0.42940931958E+02 -0.42501271757E+03  0.46148975429E+03  0.17300000000E+03 0. -1.
         -6    1    1    2    0  501  0.23749938471E+02 -0.42940931958E+02 -0.39253592205E+03  0.43176548417E+03  0.17300000000E+03 0. -1.
<mgrwt>
<rscale>  2 0.17982487E+03</rscale>
<asrwt>0</asrwt>
<pdfrwt beam="2">  1        1 0.13160029E+00 0.17982487E+03</pdfrwt>
<pdfrwt beam="1">  1       -1 0.58235849E-02 0.17982487E+03</pdfrwt>
<totfact> 0.28697928E+03</totfact>
</mgrwt>
</event>
<event>
 4    1  0.8130725E-001  0.1907457E+03  0.7546771E-02  0.1157790E+00
          2   -1    0    0  502    0  0.00000000000E+00  0.00000000000E+00  0.18383581230E+04  0.18383581230E+04  0.00000000000E+00 0. -1.
         -2   -1    0    0    0  501 -0.00000000000E+00 -0.00000000000E+00 -0.20635253904E+02  0.20635253904E+02  0.00000000000E+00 0.  1.
          6    1    1    2  502    0  0.52652101974E+02  0.60685007975E+02  0.10968121321E+04  0.11132747941E+04  0.17300000000E+03 0. -1.
         -6    1    1    2    0  501 -0.52652101974E+02 -0.60685007975E+02  0.72091073695E+03  0.74571858276E+03  0.17300000000E+03 0.  1.
<mgrwt>
<rscale>  2 0.19074568E+03</rscale>
<asrwt>0</asrwt>
<pdfrwt beam="1">  1        2 0.28282420E+00 0.19074568E+03</pdfrwt>
<pdfrwt beam="2">  1       -2 0.31746559E-02 0.19074568E+03</pdfrwt>
<totfact> 0.35124147E+03</totfact>
</mgrwt>
</event>
<event>
 4    1  0.8130725E-001  0.2056132E+03  0.7546771E-02  0.1145088E+00
          2   -1    0    0  502    0  0.00000000000E+00  0.00000000000E+00  0.61052711673E+03  0.61052711673E+03  0.00000000000E+00 0.  1.
         -2   -1    0    0    0  501 -0.00000000000E+00 -0.00000000000E+00 -0.73822558902E+02  0.73822558902E+02  0.00000000000E+00 0. -1.
          6    1    1    2  502    0  0.80310711122E+02  0.76798171559E+02  0.18315870709E+03  0.27536136523E+03  0.17300000000E+03 0.  1.
         -6    1    1    2    0  501 -0.80310711122E+02 -0.76798171559E+02  0.35354585074E+03  0.40898831041E+03  0.17300000000E+03 0.  1.
<mgrwt>
<rscale>  2 0.20561315E+03</rscale>
<asrwt>0</asrwt>
<pdfrwt beam="1">  1        2 0.93927245E-01 0.20561315E+03</pdfrwt>
<pdfrwt beam="2">  1       -2 0.11357317E-01 0.20561315E+03</pdfrwt>
<totfact> 0.26482425E+03</totfact>
</mgrwt>
</event>
<event>
 4    1  0.8130725E-001  0.2218928E+03  0.7546771E-02  0.1132480E+00
          3   -1    0    0  502    0  0.00000000000E+00  0.00000000000E+00  0.38277818379E+03  0.38277818379E+03  0.00000000000E+00 0.  1.
         -3   -1    0    0    0  501 -0.00000000000E+00 -0.00000000000E+00 -0.13695234657E+03  0.13695234657E+03  0.00000000000E+00 0. -1.
          6    1    1    2  502    0 -0.57410912880E+02  0.12653620934E+03  0.58849654472E+02  0.22956416755E+03  0.17300000000E+03 0. -1.
         -6    1    1    2    0  501  0.57410912880E+02 -0.12653620934E+03  0.18697618275E+03  0.29016636281E+03  0.17300000000E+03 0.  1.
<mgrwt>
<rscale>  2 0.22189282E+03</rscale>
<asrwt>0</asrwt>
<pdfrwt beam="1">  1        3 0.58888951E-01 0.22189282E+03</pdfrwt>
<pdfrwt beam="2">  1       -3 0.21069592E-01 0.22189282E+03</pdfrwt>
<totfact> 0.14442332E+02</totfact>
</mgrwt>
</event>
<event>
 4    1  0.8130725E-001  0.1970839E+03  0.7546771E-02  0.1152223E+00
          1   -1    0    0  502    0  0.00000000000E+00  0.00000000000E+00  0.12431094498E+04  0.12431094498E+04  0.00000000000E+00 0.  1.
         -1   -1    0    0    0  501 -0.00000000000E+00 -0.00000000000E+00 -0.43274020934E+02  0.43274020934E+02  0.00000000000E+00 0. -1.
          6    1    1    2  502    0 -0.83832224297E+02  0.43419309164E+02  0.26081938134E+03  0.32690798082E+03  0.17300000000E+03 0. -1.
         -6    1    1    2    0  501  0.83832224297E+02 -0.43419309164E+02  0.93901604749E+03  0.95947548988E+03  0.17300000000E+03 0.  1.
<mgrwt>
<rscale>  2 0.19708394E+03</rscale>
<asrwt>0</asrwt>
<pdfrwt beam="1">  1        1 0.19124758E+00 0.19708394E+03</pdfrwt>
<pdfrwt beam="2">  1       -1 0.66575426E-02 0.19708394E+03</pdfrwt>
<totfact> 0.12223833E+03</totfact>
</mgrwt>
</event>
<event>
 4    1  0.8130725E-001  0.2027746E+03  0.7546771E-02  0.1147419E+00
          2   -1    0    0  502    0  0.00000000000E+00  0.00000000000E+00  0.13959746640E+04  0.13959746640E+04  0.00000000000E+00 0. -1.
         -2   -1    0    0    0  501 -0.00000000000E+00 -0.00000000000E+00 -0.32289180451E+02  0.32289180451E+02  0.00000000000E+00 0.  1.
          6    1    1    2  502    0 -0.63976326959E+02  0.84235295317E+02  0.47024458189E+03  0.51210108591E+03  0.17300000000E+03 0.  1.
         -6    1    1    2    0  501  0.63976326959E+02 -0.84235295317E+02  0.89344090167E+03  0.91616275856E+03  0.17300000000E+03 0. -1.
<mgrwt>
<rscale>  2 0.20277464E+03</rscale>
<asrwt>0</asrwt>
<pdfrwt beam="1">  1        2 0.21476529E+00 0.20277464E+03</pdfrwt>
<pdfrwt beam="2">  1       -2 0.49675673E-02 0.20277464E+03</pdfrwt>
<totfact> 0.30645448E+03</totfact>
</mgrwt>
</event>
<event>
 4    1  0.8130725E-001  0.1803177E+03  0.7546771E-02  0.1167496E+00
          1   -1    0    0  502    0  0.00000000000E+00  0.00000000000E+00  0.17241591504E+04  0.17241591504E+04  0.00000000000E+00 0. -1.
         -1   -1    0    0    0  501 -0.00000000000E+00 -0.00000000000E+00 -0.19202034542E+02  0.19202034542E+02  0.00000000000E+00 0.  1.
          6    1    1    2  502    0  0.50615334253E+02  0.48528241479E+01  0.96912899963E+03  0.98576137066E+03  0.17300000000E+03 0.  1.
         -6    1    1    2    0  501 -0.50615334253E+02 -0.48528241479E+01  0.73582811619E+03  0.75759981424E+03  0.17300000000E+03 0.  1.
<mgrwt>
<rscale>  2 0.18031767E+03</rscale>
<asrwt>0</asrwt>
<pdfrwt beam="1">  1        1 0.26525513E+00 0.18031767E+03</pdfrwt>
<pdfrwt beam="2">  1       -1 0.29541605E-02 0.18031767E+03</pdfrwt>
<totfact> 0.19699929E+03</totfact>
</mgrwt>
</event>
<event>
 4    1  0.8130725E-001  0.2386886E+03  0.7546771E-02  0.1120670E+00
         -2   -1    0    0    0  501 -0.00000000000E+00  0.00000000000E+00  0.29674990376E+03  0.29674990376E+03  0.00000000000E+00 0.  1.
          2   -1    0    0  502    0  0.00000000000E+00 -0.00000000000E+00 -0.19821424697E+03  0.19821424697E+03  0.00000000000E+00 0. -1.
          6    1    1    2  502    0 -0.15923326511E+03  0.41085449549E+02  0.93131996190E+02  0.25621439381E+03  0.17300000000E+03 0.  1.
         -6    1    1    2    0  501  0.15923326511E+03 -0.41085449549E+02  0.54036606014E+01  0.23874975692E+03  0.17300000000E+03 0.  1.
<mgrwt>
<rscale>  2 0.23868860E+03</rscale>
<asrwt>0</asrwt>
<pdfrwt beam="2">  1        2 0.30494499E-01 0.23868860E+03</pdfrwt>
<pdfrwt beam="1">  1       -2 0.45653831E-01 0.23868860E+03</pdfrwt>
<totfact> 0.79298511E+02</totfact>
</mgrwt>
</event>
<event>
 4    1  0.8130725E-001  0.2441300E+03  0.7546771E-02  0.1117072E+00
         -2   -1    0    0    0  501 -0.00000000000E+00  0.00000000000E+00  0.80860545884E+02  0.80860545884E+02  0.00000000000E+00 0. -1.
          2   -1    0    0  502    0  0.00000000000E+00 -0.00000000000E+00 -0.11870771892E+04  0.11870771892E+04  0.00000000000E+00 0.  1.
          6    1    1    2  502    0 -0.72047460158E+02 -0.15645957482E+03 -0.16277030783E+03  0.29341712319E+03  0.17300000000E+03 0. -1.
         -6    1    1    2    0  501  0.72047460158E+02  0.15645957482E+03 -0.94344633552E+03  0.97452061193E+03  0.17300000000E+03 0.  1.
<mgrwt>
<rscale>  2 0.24412996E+03</rscale>
<asrwt>0</asrwt>
<pdfrwt beam="2">  1        2 0.18262723E+00 0.24412996E+03</pdfrwt>
<pdfrwt beam="1">  1       -2 0.12440086E-01 0.24412996E+03</pdfrwt>
<totfact> 0.95097867E+02</totfact>
</mgrwt>
</event>
<event>
 4    1  0.8130725E-001  0.2202072E+03  0.7546771E-02  0.1133729E+00
         -2   -1    0    0    0  501 -0.00000000000E+00  0.00000000000E+00  0.64497289010E+02  0.64497289010E+02  0.00000000000E+00 0.  1.
          2   -1    0    0  502    0  0.00000000000E+00 -0.00000000000E+00 -0.78910336962E+03  0.78910336962E+03  0.00000000000E+00 0. -1.
          6    1    1    2  502    0 -0.30997677237E+02 -0.13267003834E+03 -0.26954763764E+03  0.34806195429E+03  0.17300000000E+03 0.  1.
         -6    1    1    2    0  501  0.30997677237E+02  0.13267003834E+03 -0.45505844297E+03  0.50553870434E+03  0.17300000000E+03 0. -1.
<mgrwt>
<rscale>  2 0.22020716E+03</rscale>
<asrwt>0</asrwt>
<pdfrwt beam="2">  1        2 0.12140051E+00 0.22020716E+03</pdfrwt>
<pdfrwt beam="1">  1       -2 0.99226605E-02 0.22020716E+03</pdfrwt>
<totfact> 0.24135134E+03</totfact>
</mgrwt>
</event>
<event>
 4    1  0.8130725E-001  0.1916167E+03  0.7546771E-02  0.1157011E+00
          4   -1    0    0  502    0  0.00000000000E+00  0.00000000000E+00  0.15216610866E+03  0.15216610866E+03  0.00000000000E+00 0.  1.
         -4   -1    0    0    0  501 -0.00000000000E+00 -0.00000000000E+00 -0.24131184930E+03  0.24131184930E+03  0.00000000000E+00 0. -1.
          6    1    1    2  502    0 -0.82355192768E+02  0.23665315436E+01 -0.42947302904E+02  0.19637069301E+03  0.17300000000E+03 0. -1.
         -6    1    1    2    0  501  0.82355192768E+02 -0.23665315436E+01 -0.46198437730E+02  0.19710726495E+03  0.17300000000E+03 0. -1.
<mgrwt>
<rscale>  2 0.19161675E+03</rscale>
<asrwt>0</asrwt>
<pdfrwt beam="1">  1        4 0.23410171E-01 0.19161675E+03</pdfrwt>
<pdfrwt beam="2">  1       -4 0.37124900E-01 0.19161675E+03</pdfrwt>
<totfact> 0.21060288E+02</totfact>
</mgrwt>
</event>
<event>
 4    1  0.8130725E-001  0.2260654E+03  0.7546771E-02  0.1129440E+00
         -2   -1    0    0    0  501 -0.00000000000E+00  0.00000000000E+00  0.39209960260E+02  0.39209960260E+02  0.00000000000E+00 0.  1.
          2   -1    0    0  502    0  0.00000000000E+00 -0.00000000000E+00 -0.13702248943E+04  0.13702248943E+04  0.00000000000E+00 0. -1.
          6    1    1    2  502    0  0.40046578090E+02  0.13990293753E+03 -0.82115648432E+03  0.85170624753E+03  0.17300000000E+03 0. -1.
         -6    1    1    2    0  501 -0.40046578090E+02 -0.13990293753E+03 -0.50985844973E+03  0.55772860704E+03  0.17300000000E+03 0.  1.
<mgrwt>
<rscale>  2 0.22606539E+03</rscale>
<asrwt>0</asrwt>
<pdfrwt beam="2">  1        2 0.21080383E+00 0.22606539E+03</pdfrwt>
<pdfrwt beam="1">  1       -2 0.60323016E-02 0.22606539E+03</pdfrwt>
<totfact> 0.23545556E+03</totfact>
</mgrwt>
</event>
<event>
 4    1  0.8130725E-001  0.2229697E+03  0.7546771E-02  0.1131688E+00
         -2   -1    0    0    0  501 -0.00000000000E+00  0.00000000000E+00  0.42958033902E+02  0.42958033902E+02  0.00000000000E+00 0.  1.
          2   -1    0    0  502    0  0.00000000000E+00 -0.00000000000E+00 -0.18964854837E+04  0.18964854837E+04  0.00000000000E+00 0. -1.
          6    1    1    2  502    0 -0.10332094474E+03 -0.95452861982E+02 -0.32135569282E+03  0.39113290297E+03  0.17300000000E+03 0.  1.
         -6    1    1    2    0  501  0.10332094474E+03  0.95452861982E+02 -0.15321717570E+04  0.15483106147E+04  0.17300000000E+03 0. -1.
<mgrwt>
<rscale>  2 0.22296965E+03</rscale>
<asrwt>0</asrwt>
<pdfrwt beam="2">  1        2 0.29176692E+00 0.22296965E+03</pdfrwt>
<pdfrwt beam="1">  1       -2 0.66089300E-02 0.22296965E+03</pdfrwt>
<totfact> 0.10795112E+03</totfact>
</mgrwt>
</event>
<event>
 4    1  0.8130725E-001  0.2075226E+03  0.7546771E-02  0.1143543E+00
          1   -1    0    0  502    0  0.00000000000E+00  0.00000000000E+00  0.35539596864E+03  0.35539596864E+03  0.00000000000E+00 0. -1.
         -1   -1    0    0    0  501 -0.00000000000E+00 -0.00000000000E+00 -0.14132204250E+03  0.14132204250E+03  0.00000000000E+00 0.  1.
          6    1    1    2  502    0  0.36645228010E+01 -0.11455662628E+03  0.20080701295E+03  0.28877171919E+03  0.17300000000E+03 0.  1.
         -6    1    1    2    0  501 -0.36645228010E+01  0.11455662628E+03  0.13266913186E+02  0.20794629196E+03  0.17300000000E+03 0.  1.
<mgrwt>
<rscale>  2 0.20752265E+03</rscale>
<asrwt>0</asrwt>
<pdfrwt beam="1">  1        1 0.54676302E-01 0.20752265E+03</pdfrwt>
<pdfrwt beam="2">  1       -1 0.21741853E-01 0.20752265E+03</pdfrwt>
<totfact> 0.12363669E+03</totfact>
</mgrwt>
</event>
<event>
 4    1  0.8130725E-001  0.2577421E+03  0.7546771E-02  0.1108507E+00
         -2   -1    0    0    0  501 -0.00000000000E+00  0.00000000000E+00  0.82739078898E+02  0.82739078898E+02  0.00000000000E+00 0. -1.
          2   -1    0    0  502    0  0.00000000000E+00 -0.00000000000E+00 -0.83800890977E+03  0.83800890977E+03  0.00000000000E+00 0.  1.
          6    1    1    2  502    0  0.17482243229E+03 -0.77065626422E+02 -0.28340017326E+03  0.38307525607E+03  0.17300000000E+03 0. -1.
         -6    1    1    2    0  501 -0.17482243229E+03  0.77065626422E+02 -0.47186965761E+03  0.53767273260E+03  0.17300000000E+03 0. -1.
<mgrwt>
<rscale>  2 0.25774211E+03</rscale>
<asrwt>0</asrwt>
<pdfrwt beam="2">  1        2 0.12892444E+00 0.25774211E+03</pdfrwt>
<pdfrwt beam="1">  1       -2 0.12729089E-01 0.25774211E+03</pdfrwt>
<totfact> 0.14996094E+03</totfact>
</mgrwt>
</event>
<event>
 4    1  0.8130725E-001  0.2121356E+03  0.7546771E-02  0.1139886E+00
         -1   -1    0    0    0  501 -0.00000000000E+00  0.00000000000E+00  0.21916167696E+02  0.21916167696E+02  0.00000000000E+00 0.  1.
          1   -1    0    0  502    0  0.00000000000E+00 -0.00000000000E+00 -0.27002767644E+04  0.27002767644E+04  0.00000000000E+00 0. -1.
          6    1    1    2  502    0 -0.33629555816E+01 -0.12272412731E+03 -0.20053930946E+04  0.20165820055E+04  0.17300000000E+03 0.  1.
         -6    1    1    2    0  501  0.33629555816E+01  0.12272412731E+03 -0.67296750209E+03  0.70561092662E+03  0.17300000000E+03 0.  1.
<mgrwt>
<rscale>  2 0.21213562E+03</rscale>
<asrwt>0</asrwt>
<pdfrwt beam="2">  1        1 0.41542709E+00 0.21213562E+03</pdfrwt>
<pdfrwt beam="1">  1       -1 0.33717189E-02 0.21213562E+03</pdfrwt>
<totfact> 0.37374545E+02</totfact>
</mgrwt>
</event>
<event>
 4    1  0.8130725E-001  0.2071148E+03  0.7546771E-02  0.1143871E+00
         -2   -1    0    0    0  501 -0.00000000000E+00  0.00000000000E+00  0.41519478438E+02  0.41519478438E+02  0.00000000000E+00 0.  1.
          2   -1    0    0  502    0  0.00000000000E+00 -0.00000000000E+00 -0.10531545686E+04  0.10531545686E+04  0.00000000000E+00 0. -1.
          6    1    1    2  502    0  0.89325086953E+02 -0.70629658294E+02 -0.43041292452E+03  0.47765238970E+03  0.17300000000E+03 0.  1.
         -6    1    1    2    0  501 -0.89325086953E+02  0.70629658294E+02 -0.58122216561E+03  0.61702165730E+03  0.17300000000E+03 0. -1.
<mgrwt>
<rscale>  2 0.20711475E+03</rscale>
<asrwt>0</asrwt>
<pdfrwt beam="2">  1        2 0.16202377E+00 0.20711475E+03</pdfrwt>
<pdfrwt beam="1">  1       -2 0.63876123E-02 0.20711475E+03</pdfrwt>
<totfact> 0.32538740E+03</totfact>
</mgrwt>
</event>
<event>
 4    1  0.8130725E-001  0.3287737E+03  0.7546771E-02  0.1071681E+00
          2   -1    0    0  502    0  0.00000000000E+00  0.00000000000E+00  0.39549410940E+03  0.39549410940E+03  0.00000000000E+00 0. -1.
         -2   -1    0    0    0  501 -0.00000000000E+00 -0.00000000000E+00 -0.28636906893E+03  0.28636906893E+03  0.00000000000E+00 0.  1.
          6    1    1    2  502    0 -0.13167198978E+03  0.24662854935E+03 -0.18244729128E+02  0.32927955356E+03  0.17300000000E+03 0. -1.
         -6    1    1    2    0  501  0.13167198978E+03 -0.24662854935E+03  0.12736976960E+03  0.35258362477E+03  0.17300000000E+03 0.  1.
<mgrwt>
<rscale>  2 0.32877371E+03</rscale>
<asrwt>0</asrwt>
<pdfrwt beam="1">  1        2 0.60845248E-01 0.32877371E+03</pdfrwt>
<pdfrwt beam="2">  1       -2 0.44056780E-01 0.32877371E+03</pdfrwt>
<totfact> 0.40075566E+02</totfact>
</mgrwt>
</event>
<event>
 4    1  0.8130725E-001  0.2262570E+03  0.7546771E-02  0.1129302E+00
         -2   -1    0    0    0  501 -0.00000000000E+00  0.00000000000E+00  0.17201600715E+03  0.17201600715E+03  0.00000000000E+00 0.  1.
          2   -1    0    0  502    0  0.00000000000E+00 -0.00000000000E+00 -0.37121238379E+03  0.37121238379E+03  0.00000000000E+00 0. -1.
          6    1    1    2  502    0  0.19628510616E+02  0.14449208470E+03  0.21353496494E+02  0.22726243153E+03  0.17300000000E+03 0.  1.
         -6    1    1    2    0  501 -0.19628510616E+02 -0.14449208470E+03 -0.22054987314E+03  0.31596595942E+03  0.17300000000E+03 0. -1.
<mgrwt>
<rscale>  2 0.22625702E+03</rscale>
<asrwt>0</asrwt>
<pdfrwt beam="2">  1        2 0.57109597E-01 0.22625702E+03</pdfrwt>
<pdfrwt beam="1">  1       -2 0.26464001E-01 0.22625702E+03</pdfrwt>
<totfact> 0.11111358E+03</totfact>
</mgrwt>
</event>
<event>
 4    1  0.8130725E-001  0.1977510E+03  0.7546771E-02  0.1151651E+00
          2   -1    0    0  502    0  0.00000000000E+00  0.00000000000E+00  0.42629446964E+03  0.42629446964E+03  0.00000000000E+00 0. -1.
         -2   -1    0    0    0  501 -0.00000000000E+00 -0.00000000000E+00 -0.10643320085E+03  0.10643320085E+03  0.00000000000E+00 0.  1.
          6    1    1    2  502    0  0.21953806916E+02 -0.93244169749E+02  0.25892085546E+03  0.32579971489E+03  0.17300000000E+03 0. -1.
         -6    1    1    2    0  501 -0.21953806916E+02  0.93244169749E+02  0.60940413330E+02  0.20692795560E+03  0.17300000000E+03 0.  1.
<mgrwt>
<rscale>  2 0.19775097E+03</rscale>
<asrwt>0</asrwt>
<pdfrwt beam="1">  1        2 0.65583764E-01 0.19775097E+03</pdfrwt>
<pdfrwt beam="2">  1       -2 0.16374339E-01 0.19775097E+03</pdfrwt>
<totfact> 0.21769095E+03</totfact>
</mgrwt>
</event>
<event>
 4    1  0.8130725E-001  0.2371810E+03  0.7546771E-02  0.1121685E+00
         -2   -1    0    0    0  501 -0.00000000000E+00  0.00000000000E+00  0.55994551341E+02  0.55994551341E+02  0.00000000000E+00 0.  1.
          2   -1    0    0  502    0  0.00000000000E+00 -0.00000000000E+00 -0.10059339446E+04  0.10059339446E+04  0.00000000000E+00 0. -1.
          6    1    1    2  502    0 -0.13250532352E+03 -0.93638594023E+02 -0.45598987955E+03  0.51398600886E+03  0.17300000000E+03 0.  1.
         -6    1    1    2    0  501  0.13250532352E+03  0.93638594023E+02 -0.49394951367E+03  0.54794248704E+03  0.17300000000E+03 0. -1.
<mgrwt>
<rscale>  2 0.23718104E+03</rscale>
<asrwt>0</asrwt>
<pdfrwt beam="2">  1        2 0.15475906E+00 0.23718104E+03</pdfrwt>
<pdfrwt beam="1">  1       -2 0.86145469E-02 0.23718104E+03</pdfrwt>
<totfact> 0.21861463E+03</totfact>
</mgrwt>
</event>
<event>
 4    1  0.8130725E-001  0.1885659E+03  0.7546771E-02  0.1159761E+00
          2   -1    0    0  502    0  0.00000000000E+00  0.00000000000E+00  0.11841720646E+04  0.11841720646E+04  0.00000000000E+00 0. -1.
         -2   -1    0    0    0  501 -0.00000000000E+00 -0.00000000000E+00 -0.47070294677E+02  0.47070294677E+02  0.00000000000E+00 0.  1.
          6    1    1    2  502    0 -0.68485716309E+02  0.30623337434E+02  0.19811126074E+03  0.27350530848E+03  0.17300000000E+03 0.  1.
         -6    1    1    2    0  501  0.68485716309E+02 -0.30623337434E+02  0.93899050917E+03  0.95773705079E+03  0.17300000000E+03 0. -1.
<mgrwt>
<rscale>  2 0.18856586E+03</rscale>
<asrwt>0</asrwt>
<pdfrwt beam="1">  1        2 0.18218030E+00 0.18856586E+03</pdfrwt>
<pdfrwt beam="2">  1       -2 0.72415847E-02 0.18856586E+03</pdfrwt>
<totfact> 0.22495663E+03</totfact>
</mgrwt>
</event>
<event>
 4    1  0.8130725E-001  0.1824266E+03  0.7546771E-02  0.1165475E+00
          1   -1    0    0  502    0  0.00000000000E+00  0.00000000000E+00  0.15322712891E+04  0.15322712891E+04  0.00000000000E+00 0. -1.
         -1   -1    0    0    0  501 -0.00000000000E+00 -0.00000000000E+00 -0.28212395604E+02  0.28212395604E+02  0.00000000000E+00 0.  1.
          6    1    1    2  502    0  0.49879158111E+02 -0.29369017937E+02  0.11263499954E+04  0.11410275114E+04  0.17300000000E+03 0. -1.
         -6    1    1    2    0  501 -0.49879158111E+02  0.29369017937E+02  0.37770889816E+03  0.41945617337E+03  0.17300000000E+03 0.  1.
<mgrwt>
<rscale>  2 0.18242661E+03</rscale>
<asrwt>0</asrwt>
<pdfrwt beam="1">  1        1 0.23573398E+00 0.18242661E+03</pdfrwt>
<pdfrwt beam="2">  1       -1 0.43403698E-02 0.18242661E+03</pdfrwt>
<totfact> 0.14873669E+03</totfact>
</mgrwt>
</event>
<event>
 4    1  0.8130725E-001  0.1869568E+03  0.7546771E-02  0.1161235E+00
         -2   -1    0    0    0  501 -0.00000000000E+00  0.00000000000E+00  0.15204676631E+02  0.15204676631E+02  0.00000000000E+00 0.  1.
          2   -1    0    0  502    0  0.00000000000E+00 -0.00000000000E+00 -0.26516109535E+04  0.26516109535E+04  0.00000000000E+00 0. -1.
          6    1    1    2  502    0  0.50603158442E+01  0.70698332638E+02 -0.83183519849E+03  0.85258586575E+03  0.17300000000E+03 0. -1.
         -6    1    1    2    0  501 -0.50603158442E+01 -0.70698332638E+02 -0.18045710784E+04  0.18142297644E+04  0.17300000000E+03 0. -1.
<mgrwt>
<rscale>  2 0.18695684E+03</rscale>
<asrwt>0</asrwt>
<pdfrwt beam="2">  1        2 0.40794032E+00 0.18695684E+03</pdfrwt>
<pdfrwt beam="1">  1       -2 0.23391800E-02 0.18695684E+03</pdfrwt>
<totfact> 0.20467345E+03</totfact>
</mgrwt>
</event>
<event>
 4    1  0.8130725E-001  0.1733251E+03  0.7546771E-02  0.1174424E+00
          2   -1    0    0  502    0  0.00000000000E+00  0.00000000000E+00  0.48267722974E+03  0.48267722974E+03  0.00000000000E+00 0. -1.
         -2   -1    0    0    0  501 -0.00000000000E+00 -0.00000000000E+00 -0.67405357351E+02  0.67405357351E+02  0.00000000000E+00 0.  1.
          6    1    1    2  502    0 -0.10610750113E+02 -0.50197434256E-01  0.28377750196E+03  0.33252257240E+03  0.17300000000E+03 0. -1.
         -6    1    1    2    0  501  0.10610750113E+02  0.50197434256E-01  0.13149437043E+03  0.21756001469E+03  0.17300000000E+03 0.  1.
<mgrwt>
<rscale>  2 0.17332510E+03</rscale>
<asrwt>0</asrwt>
<pdfrwt beam="1">  1        2 0.74258033E-01 0.17332510E+03</pdfrwt>
<pdfrwt beam="2">  1       -2 0.10370055E-01 0.17332510E+03</pdfrwt>
<totfact> 0.39687818E+03</totfact>
</mgrwt>
</event>
<event>
 4    1  0.8130725E-001  0.2087400E+03  0.7546771E-02  0.1142568E+00
          1   -1    0    0  502    0  0.00000000000E+00  0.00000000000E+00  0.20829505111E+03  0.20829505111E+03  0.00000000000E+00 0.  1.
         -1   -1    0    0    0  501 -0.00000000000E+00 -0.00000000000E+00 -0.21708477725E+03  0.21708477725E+03  0.00000000000E+00 0. -1.
          6    1    1    2  502    0  0.76230010527E+02 -0.88500704086E+02  0.36176043201E+02  0.21185158775E+03  0.17300000000E+03 0.  1.
         -6    1    1    2    0  501 -0.76230010527E+02  0.88500704086E+02 -0.44965769342E+02  0.21352824062E+03  0.17300000000E+03 0. -1.
<mgrwt>
<rscale>  2 0.20874000E+03</rscale>
<asrwt>0</asrwt>
<pdfrwt beam="1">  1        1 0.32045392E-01 0.20874000E+03</pdfrwt>
<pdfrwt beam="2">  1       -1 0.33397658E-01 0.20874000E+03</pdfrwt>
<totfact> 0.11775641E+03</totfact>
</mgrwt>
</event>
<event>
 4    1  0.8130725E-001  0.2050602E+03  0.7546771E-02  0.1145539E+00
          2   -1    0    0  502    0  0.00000000000E+00  0.00000000000E+00  0.10658720634E+04  0.10658720634E+04  0.00000000000E+00 0.  1.
         -2   -1    0    0    0  501 -0.00000000000E+00 -0.00000000000E+00 -0.42089042651E+02  0.42089042651E+02  0.00000000000E+00 0. -1.
          6    1    1    2  502    0 -0.94845097921E+02 -0.55902545145E+02  0.65058412777E+03  0.68213590615E+03  0.17300000000E+03 0. -1.
         -6    1    1    2    0  501  0.94845097921E+02  0.55902545145E+02  0.37319889301E+03  0.42582519993E+03  0.17300000000E+03 0. -1.
<mgrwt>
<rscale>  2 0.20506020E+03</rscale>
<asrwt>0</asrwt>
<pdfrwt beam="1">  1        2 0.16398030E+00 0.20506020E+03</pdfrwt>
<pdfrwt beam="2">  1       -2 0.64752381E-02 0.20506020E+03</pdfrwt>
<totfact> 0.31310667E+03</totfact>
</mgrwt>
</event>
<event>
 4    1  0.8130725E-001  0.4285508E+03  0.7546771E-02  0.1034319E+00
          1   -1    0    0  502    0  0.00000000000E+00  0.00000000000E+00  0.45736317948E+03  0.45736317948E+03  0.00000000000E+00 0. -1.
         -1   -1    0    0    0  501 -0.00000000000E+00 -0.00000000000E+00 -0.50995489864E+03  0.50995489864E+03  0.00000000000E+00 0.  1.
          6    1    1    2  502    0  0.86226260013E+02  0.38248108372E+03 -0.24928875916E+03  0.49578284840E+03  0.17300000000E+03 0.  1.
         -6    1    1    2    0  501 -0.86226260013E+02 -0.38248108372E+03  0.19669704001E+03  0.47153522972E+03  0.17300000000E+03 0. -1.
<mgrwt>
<rscale>  2 0.42855075E+03</rscale>
<asrwt>0</asrwt>
<pdfrwt beam="1">  1        1 0.70363566E-01 0.42855075E+03</pdfrwt>
<pdfrwt beam="2">  1       -1 0.78454600E-01 0.42855075E+03</pdfrwt>
<totfact> 0.85417243E+01</totfact>
</mgrwt>
</event>
<event>
 4    1  0.8130725E-001  0.2313922E+03  0.7546771E-02  0.1125664E+00
          2   -1    0    0  502    0  0.00000000000E+00  0.00000000000E+00  0.15480813035E+04  0.15480813035E+04  0.00000000000E+00 0. -1.
         -2   -1    0    0    0  501 -0.00000000000E+00 -0.00000000000E+00 -0.40624693148E+02  0.40624693148E+02  0.00000000000E+00 0.  1.
          6    1    1    2  502    0  0.46561459730E+02  0.14644243798E+03  0.10599812561E+04  0.10849436024E+04  0.17300000000E+03 0. -1.
         -6    1    1    2    0  501 -0.46561459730E+02 -0.14644243798E+03  0.44747535434E+03  0.50376239430E+03  0.17300000000E+03 0.  1.
<mgrwt>
<rscale>  2 0.23139222E+03</rscale>
<asrwt>0</asrwt>
<pdfrwt beam="1">  1        2 0.23816631E+00 0.23139222E+03</pdfrwt>
<pdfrwt beam="2">  1       -2 0.62499540E-02 0.23139222E+03</pdfrwt>
<totfact> 0.17901465E+03</totfact>
</mgrwt>
</event>
<event>
 4    1  0.8130725E-001  0.2182037E+03  0.7546771E-02  0.1135229E+00
         -1   -1    0    0    0  501 -0.00000000000E+00  0.00000000000E+00  0.30569546849E+02  0.30569546849E+02  0.00000000000E+00 0.  1.
          1   -1    0    0  502    0  0.00000000000E+00 -0.00000000000E+00 -0.15887083435E+04  0.15887083435E+04  0.00000000000E+00 0. -1.
          6    1    1    2  502    0  0.13297846852E+03 -0.75716786399E+00 -0.66563946044E+03  0.70049178275E+03  0.17300000000E+03 0. -1.
         -6    1    1    2    0  501 -0.13297846852E+03  0.75716786399E+00 -0.89249933617E+03  0.91878610756E+03  0.17300000000E+03 0. -1.
<mgrwt>
<rscale>  2 0.21820368E+03</rscale>
<asrwt>0</asrwt>
<pdfrwt beam="2">  1        1 0.24441673E+00 0.21820368E+03</pdfrwt>
<pdfrwt beam="1">  1       -1 0.47030061E-02 0.21820368E+03</pdfrwt>
<totfact> 0.12104384E+03</totfact>
</mgrwt>
</event>
<event>
 4    1  0.8130725E-001  0.2114008E+03  0.7546771E-02  0.1140462E+00
          1   -1    0    0  502    0  0.00000000000E+00  0.00000000000E+00  0.10537812749E+04  0.10537812749E+04  0.00000000000E+00 0. -1.
         -1   -1    0    0    0  501 -0.00000000000E+00 -0.00000000000E+00 -0.42856212825E+02  0.42856212825E+02  0.00000000000E+00 0.  1.
          6    1    1    2  502    0  0.10456684850E+03  0.61863242674E+02  0.56144649508E+03  0.59992704009E+03  0.17300000000E+03 0.  1.
         -6    1    1    2    0  501 -0.10456684850E+03 -0.61863242674E+02  0.44947856704E+03  0.49671044768E+03  0.17300000000E+03 0. -1.
<mgrwt>
<rscale>  2 0.21140077E+03</rscale>
<asrwt>0</asrwt>
<pdfrwt beam="1">  1        1 0.16212018E+00 0.21140077E+03</pdfrwt>
<pdfrwt beam="2">  1       -1 0.65932643E-02 0.21140077E+03</pdfrwt>
<totfact> 0.16869038E+03</totfact>
</mgrwt>
</event>
<event>
 4    1  0.8130725E-001  0.1912007E+03  0.7546771E-02  0.1157383E+00
          1   -1    0    0  502    0  0.00000000000E+00  0.00000000000E+00  0.18367767616E+03  0.18367767616E+03  0.00000000000E+00 0.  1.
         -1   -1    0    0    0  501 -0.00000000000E+00 -0.00000000000E+00 -0.19941928272E+03  0.19941928272E+03  0.00000000000E+00 0. -1.
          6    1    1    2  502    0  0.34532377029E+02  0.73730649381E+02 -0.16314563591E+02  0.19189543691E+03  0.17300000000E+03 0. -1.
         -6    1    1    2    0  501 -0.34532377029E+02 -0.73730649381E+02  0.57295703431E+00  0.19120152196E+03  0.17300000000E+03 0. -1.
<mgrwt>
<rscale>  2 0.19120066E+03</rscale>
<asrwt>0</asrwt>
<pdfrwt beam="1">  1        1 0.28258104E-01 0.19120066E+03</pdfrwt>
<pdfrwt beam="2">  1       -1 0.30679890E-01 0.19120066E+03</pdfrwt>
<totfact> 0.15920596E+03</totfact>
</mgrwt>
</event>
<event>
 4    1  0.8130725E-001  0.1997152E+03  0.7546771E-02  0.1149980E+00
         -2   -1    0    0    0  501 -0.00000000000E+00  0.00000000000E+00  0.32073554428E+02  0.32073554428E+02  0.00000000000E+00 0.  1.
          2   -1    0    0  502    0  0.00000000000E+00 -0.00000000000E+00 -0.15527676494E+04  0.15527676494E+04  0.00000000000E+00 0. -1.
          6    1    1    2  502    0  0.11810345394E+02 -0.99084122845E+02 -0.40674804497E+03  0.45313366653E+03  0.17300000000E+03 0.  1.
         -6    1    1    2    0  501 -0.11810345394E+02  0.99084122845E+02 -0.11139460500E+04  0.11317075373E+04  0.17300000000E+03 0. -1.
<mgrwt>
<rscale>  2 0.19971517E+03</rscale>
<asrwt>0</asrwt>
<pdfrwt beam="2">  1        2 0.23888723E+00 0.19971517E+03</pdfrwt>
<pdfrwt beam="1">  1       -2 0.49343952E-02 0.19971517E+03</pdfrwt>
<totfact> 0.25547424E+03</totfact>
</mgrwt>
</event>
<event>
 4    1  0.8130725E-001  0.2032642E+03  0.7546771E-02  0.1147014E+00
         -1   -1    0    0    0  501 -0.00000000000E+00  0.00000000000E+00  0.67527437001E+02  0.67527437001E+02  0.00000000000E+00 0. -1.
          1   -1    0    0  502    0  0.00000000000E+00 -0.00000000000E+00 -0.65070267872E+03  0.65070267872E+03  0.00000000000E+00 0.  1.
          6    1    1    2  502    0 -0.10066397269E+03  0.35413456884E+02 -0.37934401884E+03  0.43036987924E+03  0.17300000000E+03 0.  1.
         -6    1    1    2    0  501  0.10066397269E+03 -0.35413456884E+02 -0.20383122288E+03  0.28786023648E+03  0.17300000000E+03 0. -1.
<mgrwt>
<rscale>  2 0.20326423E+03</rscale>
<asrwt>0</asrwt>
<pdfrwt beam="2">  1        1 0.10010810E+00 0.20326423E+03</pdfrwt>
<pdfrwt beam="1">  1       -1 0.10388837E-01 0.20326423E+03</pdfrwt>
<totfact> 0.17917668E+03</totfact>
</mgrwt>
</event>
<event>
 4    1  0.8130725E-001  0.2439494E+03  0.7546771E-02  0.1117189E+00
         -2   -1    0    0    0  501 -0.00000000000E+00  0.00000000000E+00  0.13145830622E+03  0.13145830622E+03  0.00000000000E+00 0. -1.
          2   -1    0    0  502    0  0.00000000000E+00 -0.00000000000E+00 -0.47745374132E+03  0.47745374132E+03  0.00000000000E+00 0.  1.
          6    1    1    2  502    0  0.65126482519E+02  0.15918805498E+03 -0.10367568088E+03  0.26506592082E+03  0.17300000000E+03 0. -1.
         -6    1    1    2    0  501 -0.65126482519E+02 -0.15918805498E+03 -0.24231975422E+03  0.34384612672E+03  0.17300000000E+03 0.  1.
<mgrwt>
<rscale>  2 0.24394937E+03</rscale>
<asrwt>0</asrwt>
<pdfrwt beam="2">  1        2 0.73454423E-01 0.24394937E+03</pdfrwt>
<pdfrwt beam="1">  1       -2 0.20224354E-01 0.24394937E+03</pdfrwt>
<totfact> 0.13505402E+03</totfact>
</mgrwt>
</event>
<event>
 4    1  0.8130725E-001  0.2088388E+03  0.7546771E-02  0.1142489E+00
          2   -1    0    0  502    0  0.00000000000E+00  0.00000000000E+00  0.32765079027E+03  0.32765079027E+03  0.00000000000E+00 0. -1.
         -2   -1    0    0    0  501 -0.00000000000E+00 -0.00000000000E+00 -0.13981453955E+03  0.13981453955E+03  0.00000000000E+00 0.  1.
          6    1    1    2  502    0  0.10075118850E+01 -0.11697711986E+03  0.42735648396E+02  0.21316659517E+03  0.17300000000E+03 0. -1.
         -6    1    1    2    0  501 -0.10075118850E+01  0.11697711986E+03  0.14510060233E+03  0.25429873466E+03  0.17300000000E+03 0. -1.
<mgrwt>
<rscale>  2 0.20883884E+03</rscale>
<asrwt>0</asrwt>
<pdfrwt beam="1">  1        2 0.50407814E-01 0.20883884E+03</pdfrwt>
<pdfrwt beam="2">  1       -2 0.21509929E-01 0.20883884E+03</pdfrwt>
<totfact> 0.18251136E+03</totfact>
</mgrwt>
</event>
<event>
 4    1  0.8130725E-001  0.2037672E+03  0.7546771E-02  0.1146599E+00
         -1   -1    0    0    0  501 -0.00000000000E+00  0.00000000000E+00  0.10585353809E+03  0.10585353809E+03  0.00000000000E+00 0.  1.
          1   -1    0    0  502    0  0.00000000000E+00 -0.00000000000E+00 -0.40980619134E+03  0.40980619134E+03  0.00000000000E+00 0. -1.
          6    1    1    2  502    0 -0.14904741930E+01 -0.10765615292E+03 -0.20534138135E+03  0.28928558842E+03  0.17300000000E+03 0.  1.
         -6    1    1    2    0  501  0.14904741930E+01  0.10765615292E+03 -0.98611271905E+02  0.22637414102E+03  0.17300000000E+03 0. -1.
<mgrwt>
<rscale>  2 0.20376719E+03</rscale>
<asrwt>0</asrwt>
<pdfrwt beam="2">  1        1 0.63047105E-01 0.20376719E+03</pdfrwt>
<pdfrwt beam="1">  1       -1 0.16285160E-01 0.20376719E+03</pdfrwt>
<totfact> 0.16434692E+03</totfact>
</mgrwt>
</event>
<event>
 4    1  0.8130725E-001  0.1854360E+03  0.7546771E-02  0.1162643E+00
          2   -1    0    0  502    0  0.00000000000E+00  0.00000000000E+00  0.13747490189E+04  0.13747490189E+04  0.00000000000E+00 0.  1.
         -2   -1    0    0    0  501 -0.00000000000E+00 -0.00000000000E+00 -0.25022525675E+02  0.25022525675E+02  0.00000000000E+00 0. -1.
          6    1    1    2  502    0 -0.17687367184E+02 -0.64379017086E+02  0.66115751208E+03  0.68667004928E+03  0.17300000000E+03 0.  1.
         -6    1    1    2    0  501  0.17687367184E+02  0.64379017086E+02  0.68856898117E+03  0.71310149532E+03  0.17300000000E+03 0. -1.
<mgrwt>
<rscale>  2 0.18543597E+03</rscale>
<asrwt>0</asrwt>
<pdfrwt beam="1">  1        2 0.21149979E+00 0.18543597E+03</pdfrwt>
<pdfrwt beam="2">  1       -2 0.38496204E-02 0.18543597E+03</pdfrwt>
<totfact> 0.46119080E+03</totfact>
</mgrwt>
</event>
<event>
 4    1  0.8130725E-001  0.1772889E+03  0.7546771E-02  0.1170453E+00
         -2   -1    0    0    0  501 -0.00000000000E+00  0.00000000000E+00  0.54774414200E+02  0.54774414200E+02  0.00000000000E+00 0.  1.
          2   -1    0    0  502    0  0.00000000000E+00 -0.00000000000E+00 -0.74533124727E+03  0.74533124727E+03  0.00000000000E+00 0. -1.
          6    1    1    2  502    0  0.38754277186E+02 -0.66847283857E+00 -0.53717759577E+03  0.56567756740E+03  0.17300000000E+03 0. -1.
         -6    1    1    2    0  501 -0.38754277186E+02  0.66847283857E+00 -0.15337923730E+03  0.23442809407E+03  0.17300000000E+03 0.  1.
<mgrwt>
<rscale>  2 0.17728886E+03</rscale>
<asrwt>0</asrwt>
<pdfrwt beam="2">  1        2 0.11466634E+00 0.17728886E+03</pdfrwt>
<pdfrwt beam="1">  1       -2 0.84268336E-02 0.17728886E+03</pdfrwt>
<totfact> 0.33338277E+03</totfact>
</mgrwt>
</event>
<event>
 4    1  0.8130725E-001  0.1746271E+03  0.7546771E-02  0.1173107E+00
          1   -1    0    0  502    0  0.00000000000E+00  0.00000000000E+00  0.10286829095E+04  0.10286829095E+04  0.00000000000E+00 0.  1.
         -1   -1    0    0    0  501 -0.00000000000E+00 -0.00000000000E+00 -0.40382786826E+02  0.40382786826E+02  0.00000000000E+00 0. -1.
          6    1    1    2  502    0  0.18494912341E+02 -0.14951870015E+02  0.76979314729E+03  0.78935170223E+03  0.17300000000E+03 0.  1.
         -6    1    1    2    0  501 -0.18494912341E+02  0.14951870015E+02  0.21850697537E+03  0.27971399408E+03  0.17300000000E+03 0. -1.
<mgrwt>
<rscale>  2 0.17462709E+03</rscale>
<asrwt>0</asrwt>
<pdfrwt beam="1">  1        1 0.15825889E+00 0.17462709E+03</pdfrwt>
<pdfrwt beam="2">  1       -1 0.62127372E-02 0.17462709E+03</pdfrwt>
<totfact> 0.19216445E+03</totfact>
</mgrwt>
</event>
<event>
 4    1  0.8130725E-001  0.1890871E+03  0.7546771E-02  0.1159287E+00
         -2   -1    0    0    0  501 -0.00000000000E+00  0.00000000000E+00  0.44099015861E+03  0.44099015861E+03  0.00000000000E+00 0.  1.
          2   -1    0    0  502    0  0.00000000000E+00 -0.00000000000E+00 -0.10860169132E+03  0.10860169132E+03  0.00000000000E+00 0. -1.
          6    1    1    2  502    0 -0.71658994261E+02 -0.26266637490E+02  0.30453717462E+03  0.35846455672E+03  0.17300000000E+03 0.  1.
         -6    1    1    2    0  501  0.71658994261E+02  0.26266637490E+02  0.27851292678E+02  0.19112729320E+03  0.17300000000E+03 0. -1.
<mgrwt>
<rscale>  2 0.18908714E+03</rscale>
<asrwt>0</asrwt>
<pdfrwt beam="2">  1        2 0.16707953E-01 0.18908714E+03</pdfrwt>
<pdfrwt beam="1">  1       -2 0.67844639E-01 0.18908714E+03</pdfrwt>
<totfact> 0.69523643E+02</totfact>
</mgrwt>
</event>
<event>
 4    1  0.8130725E-001  0.1730873E+03  0.7546771E-02  0.1174666E+00
          3   -1    0    0  502    0  0.00000000000E+00  0.00000000000E+00  0.30994185440E+03  0.30994185440E+03  0.00000000000E+00 0.  1.
         -3   -1    0    0    0  501 -0.00000000000E+00 -0.00000000000E+00 -0.13064238561E+03  0.13064238561E+03  0.00000000000E+00 0. -1.
          6    1    1    2  502    0  0.50272170532E+01  0.22232081743E+01  0.20200126133E+03  0.26601452055E+03  0.17300000000E+03 0.  1.
         -6    1    1    2    0  501 -0.50272170532E+01 -0.22232081743E+01 -0.22701792533E+02  0.17456971945E+03  0.17300000000E+03 0. -1.
<mgrwt>
<rscale>  2 0.17308731E+03</rscale>
<asrwt>0</asrwt>
<pdfrwt beam="1">  1        3 0.47683362E-01 0.17308731E+03</pdfrwt>
<pdfrwt beam="2">  1       -3 0.20098829E-01 0.17308731E+03</pdfrwt>
<totfact> 0.23501359E+02</totfact>
</mgrwt>
</event>
<event>
 4    1  0.8130725E-001  0.1886993E+03  0.7546771E-02  0.1159640E+00
         -1   -1    0    0    0  501 -0.00000000000E+00  0.00000000000E+00  0.15843456326E+03  0.15843456326E+03  0.00000000000E+00 0.  1.
          1   -1    0    0  502    0  0.00000000000E+00 -0.00000000000E+00 -0.36912334409E+03  0.36912334409E+03  0.00000000000E+00 0. -1.
          6    1    1    2  502    0 -0.53376124072E+02  0.53192306318E+02 -0.27031435476E+03  0.32966237647E+03  0.17300000000E+03 0. -1.
         -6    1    1    2    0  501  0.53376124072E+02 -0.53192306318E+02  0.59625573939E+02  0.19789553087E+03  0.17300000000E+03 0.  1.
<mgrwt>
<rscale>  2 0.18869932E+03</rscale>
<asrwt>0</asrwt>
<pdfrwt beam="2">  1        1 0.56788207E-01 0.18869932E+03</pdfrwt>
<pdfrwt beam="1">  1       -1 0.24374548E-01 0.18869932E+03</pdfrwt>
<totfact> 0.97559143E+02</totfact>
</mgrwt>
</event>
<event>
 4    1  0.8130725E-001  0.3359314E+03  0.7546771E-02  0.1068542E+00
         -2   -1    0    0    0  501 -0.00000000000E+00  0.00000000000E+00  0.10265724868E+03  0.10265724868E+03  0.00000000000E+00 0.  1.
          2   -1    0    0  502    0  0.00000000000E+00 -0.00000000000E+00 -0.15174376657E+04  0.15174376657E+04  0.00000000000E+00 0. -1.
          6    1    1    2  502    0  0.18659340572E+03 -0.21932576930E+03 -0.28216318477E+03  0.43870941975E+03  0.17300000000E+03 0.  1.
         -6    1    1    2    0  501 -0.18659340572E+03  0.21932576930E+03 -0.11326172322E+04  0.11813854946E+04  0.17300000000E+03 0. -1.
<mgrwt>
<rscale>  2 0.33593138E+03</rscale>
<asrwt>0</asrwt>
<pdfrwt beam="2">  1        2 0.23345194E+00 0.33593138E+03</pdfrwt>
<pdfrwt beam="1">  1       -2 0.15793423E-01 0.33593138E+03</pdfrwt>
<totfact> 0.41778139E+02</totfact>
</mgrwt>
</event>
<event>
 4    1  0.8130725E-001  0.1849843E+03  0.7546771E-02  0.1163065E+00
         -1   -1    0    0    0  501 -0.00000000000E+00  0.00000000000E+00  0.79216913443E+02  0.79216913443E+02  0.00000000000E+00 0.  1.
          1   -1    0    0  502    0  0.00000000000E+00 -0.00000000000E+00 -0.45573452627E+03  0.45573452627E+03  0.00000000000E+00 0. -1.
          6    1    1    2  502    0 -0.64709409950E+02 -0.10143097028E+02 -0.12717738686E+03  0.22448447136E+03  0.17300000000E+03 0.  1.
         -6    1    1    2    0  501  0.64709409950E+02  0.10143097028E+02 -0.24934022597E+03  0.31046696835E+03  0.17300000000E+03 0. -1.
<mgrwt>
<rscale>  2 0.18498430E+03</rscale>
<asrwt>0</asrwt>
<pdfrwt beam="2">  1        1 0.70113002E-01 0.18498430E+03</pdfrwt>
<pdfrwt beam="1">  1       -1 0.12187218E-01 0.18498430E+03</pdfrwt>
<totfact> 0.22567406E+03</totfact>
</mgrwt>
</event>
<event>
 4    1  0.8130725E-001  0.1811086E+03  0.7546771E-02  0.1166734E+00
         -3   -1    0    0    0  501 -0.00000000000E+00  0.00000000000E+00  0.26403138497E+03  0.26403138497E+03  0.00000000000E+00 0. -1.
          3   -1    0    0  502    0  0.00000000000E+00 -0.00000000000E+00 -0.14221758521E+03  0.14221758521E+03  0.00000000000E+00 0.  1.
          6    1    1    2  502    0  0.50378709207E+02 -0.18256948645E+02 -0.11334349302E+02  0.18146293834E+03  0.17300000000E+03 0.  1.
         -6    1    1    2    0  501 -0.50378709207E+02  0.18256948645E+02  0.13314814906E+03  0.22478603184E+03  0.17300000000E+03 0. -1.
<mgrwt>
<rscale>  2 0.18110862E+03</rscale>
<asrwt>0</asrwt>
<pdfrwt beam="2">  1        3 0.21879629E-01 0.18110862E+03</pdfrwt>
<pdfrwt beam="1">  1       -3 0.40620213E-01 0.18110862E+03</pdfrwt>
<totfact> 0.27823844E+02</totfact>
</mgrwt>
</event>
<event>
 4    1  0.8130725E-001  0.2124009E+03  0.7546771E-02  0.1139679E+00
         -2   -1    0    0    0  501 -0.00000000000E+00  0.00000000000E+00  0.34480300828E+02  0.34480300828E+02  0.00000000000E+00 0.  1.
          2   -1    0    0  502    0  0.00000000000E+00 -0.00000000000E+00 -0.14064540065E+04  0.14064540065E+04  0.00000000000E+00 0. -1.
          6    1    1    2  502    0  0.23586196811E+01 -0.12320542822E+03 -0.49575786256E+03  0.53934219093E+03  0.17300000000E+03 0.  1.
         -6    1    1    2    0  501 -0.23586196811E+01  0.12320542822E+03 -0.87621584309E+03  0.90159211637E+03  0.17300000000E+03 0. -1.
<mgrwt>
<rscale>  2 0.21240090E+03</rscale>
<asrwt>0</asrwt>
<pdfrwt beam="2">  1        2 0.21637749E+00 0.21240090E+03</pdfrwt>
<pdfrwt beam="1">  1       -2 0.53046628E-02 0.21240090E+03</pdfrwt>
<totfact> 0.27387616E+03</totfact>
</mgrwt>
</event>
<event>
 4    1  0.8130725E-001  0.1764226E+03  0.7546771E-02  0.1171311E+00
          2   -1    0    0  502    0  0.00000000000E+00  0.00000000000E+00  0.10612752639E+03  0.10612752639E+03  0.00000000000E+00 0.  1.
         -2   -1    0    0    0  501 -0.00000000000E+00 -0.00000000000E+00 -0.35519634293E+03  0.35519634293E+03  0.00000000000E+00 0. -1.
          6    1    1    2  502    0  0.29651307918E+02 -0.17796811753E+02 -0.22083954168E+03  0.28265708861E+03  0.17300000000E+03 0. -1.
         -6    1    1    2    0  501 -0.29651307918E+02  0.17796811753E+02 -0.28229274859E+02  0.17866678071E+03  0.17300000000E+03 0. -1.
<mgrwt>
<rscale>  2 0.17642258E+03</rscale>
<asrwt>0</asrwt>
<pdfrwt beam="1">  1        2 0.16327312E-01 0.17642258E+03</pdfrwt>
<pdfrwt beam="2">  1       -2 0.54645591E-01 0.17642258E+03</pdfrwt>
<totfact> 0.11160786E+03</totfact>
</mgrwt>
</event>
<event>
 4    1  0.8130725E-001  0.1879140E+03  0.7546771E-02  0.1160356E+00
         -1   -1    0    0    0  501 -0.00000000000E+00  0.00000000000E+00  0.25459657933E+03  0.25459657933E+03  0.00000000000E+00 0. -1.
          1   -1    0    0  502    0  0.00000000000E+00 -0.00000000000E+00 -0.17840082511E+03  0.17840082511E+03  0.00000000000E+00 0.  1.
          6    1    1    2  502    0  0.51990106133E+02  0.51765775303E+02  0.14023309410E+03  0.23447171964E+03  0.17300000000E+03 0. -1.
         -6    1    1    2    0  501 -0.51990106133E+02 -0.51765775303E+02 -0.64037339880E+02  0.19852568481E+03  0.17300000000E+03 0.  1.
<mgrwt>
<rscale>  2 0.18791399E+03</rscale>
<asrwt>0</asrwt>
<pdfrwt beam="2">  1        1 0.27446281E-01 0.18791399E+03</pdfrwt>
<pdfrwt beam="1">  1       -1 0.39168704E-01 0.18791399E+03</pdfrwt>
<totfact> 0.10824136E+03</totfact>
</mgrwt>
</event>
<event>
 4    1  0.8130725E-001  0.1754626E+03  0.7546771E-02  0.1172268E+00
          3   -1    0    0  502    0  0.00000000000E+00  0.00000000000E+00  0.12690254697E+04  0.12690254697E+04  0.00000000000E+00 0.  1.
         -3   -1    0    0    0  501 -0.00000000000E+00 -0.00000000000E+00 -0.24313294872E+02  0.24313294872E+02  0.00000000000E+00 0. -1.
          6    1    1    2  502    0 -0.12962693934E+01  0.29264876046E+02  0.65250783981E+03  0.67568749752E+03  0.17300000000E+03 0.  1.
         -6    1    1    2    0  501  0.12962693934E+01 -0.29264876046E+02  0.59220433505E+03  0.61765126709E+03  0.17300000000E+03 0. -1.
<mgrwt>
<rscale>  2 0.17546257E+03</rscale>
<asrwt>0</asrwt>
<pdfrwt beam="1">  1        3 0.19523464E+00 0.17546257E+03</pdfrwt>
<pdfrwt beam="2">  1       -3 0.37405079E-02 0.17546257E+03</pdfrwt>
<totfact> 0.15011501E+02</totfact>
</mgrwt>
</event>
<event>
 4    1  0.8130725E-001  0.1913218E+03  0.7546771E-02  0.1157275E+00
         -1   -1    0    0    0  501 -0.00000000000E+00  0.00000000000E+00  0.17184788023E+02  0.17184788023E+02  0.00000000000E+00 0.  1.
          1   -1    0    0  502    0  0.00000000000E+00 -0.00000000000E+00 -0.21653755780E+04  0.21653755780E+04  0.00000000000E+00 0. -1.
          6    1    1    2  502    0  0.63556445050E+02  0.51338040871E+02 -0.93466027112E+03  0.95404079502E+03  0.17300000000E+03 0.  1.
         -6    1    1    2    0  501 -0.63556445050E+02 -0.51338040871E+02 -0.12135305189E+04  0.12285195710E+04  0.17300000000E+03 0. -1.
<mgrwt>
<rscale>  2 0.19132176E+03</rscale>
<asrwt>0</asrwt>
<pdfrwt beam="2">  1        1 0.33313470E+00 0.19132176E+03</pdfrwt>
<pdfrwt beam="1">  1       -1 0.26438136E-02 0.19132176E+03</pdfrwt>
<totfact> 0.12053935E+03</totfact>
</mgrwt>
</event>
<event>
 4    1  0.8130725E-001  0.2590681E+03  0.7546771E-02  0.1107704E+00
          2   -1    0    0  502    0  0.00000000000E+00  0.00000000000E+00  0.52945551965E+03  0.52945551965E+03  0.00000000000E+00 0. -1.
         -2   -1    0    0    0  501 -0.00000000000E+00 -0.00000000000E+00 -0.17452870382E+03  0.17452870382E+03  0.00000000000E+00 0.  1.
          6    1    1    2  502    0  0.17059189748E+03  0.89920450779E+02  0.36160409155E+03  0.44483008215E+03  0.17300000000E+03 0. -1.
         -6    1    1    2    0  501 -0.17059189748E+03 -0.89920450779E+02 -0.66772757324E+01  0.25915414132E+03  0.17300000000E+03 0.  1.
<mgrwt>
<rscale>  2 0.25906810E+03</rscale>
<asrwt>0</asrwt>
<pdfrwt beam="1">  1        2 0.81454695E-01 0.25906810E+03</pdfrwt>
<pdfrwt beam="2">  1       -2 0.26850570E-01 0.25906810E+03</pdfrwt>
<totfact> 0.73214986E+02</totfact>
</mgrwt>
</event>
<event>
 4    1  0.8130725E-001  0.3366942E+03  0.7546771E-02  0.1068213E+00
          2   -1    0    0  502    0  0.00000000000E+00  0.00000000000E+00  0.36673285178E+03  0.36673285178E+03  0.00000000000E+00 0.  1.
         -2   -1    0    0    0  501 -0.00000000000E+00 -0.00000000000E+00 -0.42965518250E+03  0.42965518250E+03  0.00000000000E+00 0. -1.
          6    1    1    2  502    0 -0.63435885788E+02  0.28179763024E+03  0.17944958029E+03  0.38153003536E+03  0.17300000000E+03 0.  1.
         -6    1    1    2    0  501  0.63435885788E+02 -0.28179763024E+03 -0.24237191101E+03  0.41485799891E+03  0.17300000000E+03 0. -1.
<mgrwt>
<rscale>  2 0.33669425E+03</rscale>
<asrwt>0</asrwt>
<pdfrwt beam="1">  1        2 0.56420439E-01 0.33669425E+03</pdfrwt>
<pdfrwt beam="2">  1       -2 0.66100797E-01 0.33669425E+03</pdfrwt>
<totfact> 0.19005682E+02</totfact>
</mgrwt>
</event>
<event>
 4    1  0.8130725E-001  0.2044945E+03  0.7546771E-02  0.1146001E+00
         -3   -1    0    0    0  501 -0.00000000000E+00  0.00000000000E+00  0.80719665049E+02  0.80719665049E+02  0.00000000000E+00 0. -1.
          3   -1    0    0  502    0  0.00000000000E+00 -0.00000000000E+00 -0.71395780996E+03  0.71395780996E+03  0.00000000000E+00 0.  1.
          6    1    1    2  502    0 -0.10517401833E+03 -0.28764831190E+02 -0.52474897473E+03  0.56318689271E+03  0.17300000000E+03 0.  1.
         -6    1    1    2    0  501  0.10517401833E+03  0.28764831190E+02 -0.10848917018E+03  0.23149058229E+03  0.17300000000E+03 0. -1.
<mgrwt>
<rscale>  2 0.20449447E+03</rscale>
<asrwt>0</asrwt>
<pdfrwt beam="2">  1        3 0.10983967E+00 0.20449447E+03</pdfrwt>
<pdfrwt beam="1">  1       -3 0.12418410E-01 0.20449447E+03</pdfrwt>
<totfact> 0.91570134E+01</totfact>
</mgrwt>
</event>
<event>
 4    1  0.8130725E-001  0.1954165E+03  0.7546771E-02  0.1153665E+00
         -1   -1    0    0    0  501 -0.00000000000E+00  0.00000000000E+00  0.88811668665E+02  0.88811668665E+02  0.00000000000E+00 0. -1.
          1   -1    0    0  502    0  0.00000000000E+00 -0.00000000000E+00 -0.47529458873E+03  0.47529458873E+03  0.00000000000E+00 0.  1.
          6    1    1    2  502    0  0.50275737171E+02  0.75703190080E+02 -0.10615554378E+03  0.22238844892E+03  0.17300000000E+03 0.  1.
         -6    1    1    2    0  501 -0.50275737171E+02 -0.75703190080E+02 -0.28032737628E+03  0.34171780848E+03  0.17300000000E+03 0.  1.
<mgrwt>
<rscale>  2 0.19541654E+03</rscale>
<asrwt>0</asrwt>
<pdfrwt beam="2">  1        1 0.73122243E-01 0.19541654E+03</pdfrwt>
<pdfrwt beam="1">  1       -1 0.13663334E-01 0.19541654E+03</pdfrwt>
<totfact> 0.17892539E+03</totfact>
</mgrwt>
</event>
<event>
 4    1  0.8130725E-001  0.1943707E+03  0.7546771E-02  0.1154577E+00
         -2   -1    0    0    0  501 -0.00000000000E+00  0.00000000000E+00  0.47651704278E+03  0.47651704278E+03  0.00000000000E+00 0.  1.
          2   -1    0    0  502    0  0.00000000000E+00 -0.00000000000E+00 -0.80087699309E+02  0.80087699309E+02  0.00000000000E+00 0. -1.
          6    1    1    2  502    0  0.85461829013E+02 -0.23393262577E+02  0.22610148255E+03  0.29816413158E+03  0.17300000000E+03 0.  1.
         -6    1    1    2    0  501 -0.85461829013E+02  0.23393262577E+02  0.17032786092E+03  0.25844061051E+03  0.17300000000E+03 0. -1.
<mgrwt>
<rscale>  2 0.19437070E+03</rscale>
<asrwt>0</asrwt>
<pdfrwt beam="2">  1        2 0.12321185E-01 0.19437070E+03</pdfrwt>
<pdfrwt beam="1">  1       -2 0.73310313E-01 0.19437070E+03</pdfrwt>
<totfact> 0.84642124E+02</totfact>
</mgrwt>
</event>
<event>
 4    1  0.8130725E-001  0.1843641E+03  0.7546771E-02  0.1163645E+00
         -3   -1    0    0    0  501 -0.00000000000E+00  0.00000000000E+00  0.67356786158E+03  0.67356786158E+03  0.00000000000E+00 0.  1.
          3   -1    0    0  502    0  0.00000000000E+00 -0.00000000000E+00 -0.51081611609E+02  0.51081611609E+02  0.00000000000E+00 0. -1.
          6    1    1    2  502    0  0.22296297102E+02  0.59699200093E+02  0.35112222975E+03  0.39658156738E+03  0.17300000000E+03 0. -1.
         -6    1    1    2    0  501 -0.22296297102E+02 -0.59699200093E+02  0.27136402022E+03  0.32806790582E+03  0.17300000000E+03 0. -1.
<mgrwt>
<rscale>  2 0.18436409E+03</rscale>
<asrwt>0</asrwt>
<pdfrwt beam="2">  1        3 0.78587100E-02 0.18436409E+03</pdfrwt>
<pdfrwt beam="1">  1       -3 0.10362582E+00 0.18436409E+03</pdfrwt>
<totfact> 0.22171582E+02</totfact>
</mgrwt>
</event>
<event>
 4    1  0.8130725E-001  0.1734885E+03  0.7546771E-02  0.1174258E+00
          2   -1    0    0  502    0  0.00000000000E+00  0.00000000000E+00  0.10337526385E+04  0.10337526385E+04  0.00000000000E+00 0.  1.
         -2   -1    0    0    0  501 -0.00000000000E+00 -0.00000000000E+00 -0.30012460469E+02  0.30012460469E+02  0.00000000000E+00 0. -1.
          6    1    1    2  502    0 -0.99956795202E+01  0.83267781704E+01  0.59381887434E+03  0.61864295386E+03  0.17300000000E+03 0.  1.
         -6    1    1    2    0  501  0.99956795202E+01 -0.83267781704E+01  0.40992130371E+03  0.44512214512E+03  0.17300000000E+03 0. -1.
<mgrwt>
<rscale>  2 0.17348847E+03</rscale>
<asrwt>0</asrwt>
<pdfrwt beam="1">  1        2 0.15903884E+00 0.17348847E+03</pdfrwt>
<pdfrwt beam="2">  1       -2 0.46173024E-02 0.17348847E+03</pdfrwt>
<totfact> 0.54479450E+03</totfact>
</mgrwt>
</event>
<event>
 4    1  0.8130725E-001  0.2015113E+03  0.7546771E-02  0.1148470E+00
         -1   -1    0    0    0  501 -0.00000000000E+00  0.00000000000E+00  0.13775872098E+03  0.13775872098E+03  0.00000000000E+00 0.  1.
          1   -1    0    0  502    0  0.00000000000E+00 -0.00000000000E+00 -0.33728977767E+03  0.33728977767E+03  0.00000000000E+00 0. -1.
          6    1    1    2  502    0 -0.10236045542E+03  0.14147373066E+02 -0.15429336623E+02  0.20210115147E+03  0.17300000000E+03 0.  1.
         -6    1    1    2    0  501  0.10236045542E+03 -0.14147373066E+02 -0.18410172007E+03  0.27294734718E+03  0.17300000000E+03 0. -1.
<mgrwt>
<rscale>  2 0.20151132E+03</rscale>
<asrwt>0</asrwt>
<pdfrwt beam="2">  1        1 0.51890734E-01 0.20151132E+03</pdfrwt>
<pdfrwt beam="1">  1       -1 0.21193650E-01 0.20151132E+03</pdfrwt>
<totfact> 0.13763956E+03</totfact>
</mgrwt>
</event>
<event>
 4    1  0.8130725E-001  0.2247143E+03  0.7546771E-02  0.1130416E+00
          1   -1    0    0  502    0  0.00000000000E+00  0.00000000000E+00  0.14207168108E+04  0.14207168108E+04  0.00000000000E+00 0. -1.
         -1   -1    0    0    0  501 -0.00000000000E+00 -0.00000000000E+00 -0.40096085275E+02  0.40096085275E+02  0.00000000000E+00 0.  1.
          6    1    1    2  502    0 -0.57414609446E+02 -0.13141940216E+03  0.44417847688E+03  0.49778611468E+03  0.17300000000E+03 0.  1.
         -6    1    1    2    0  501  0.57414609446E+02  0.13141940216E+03  0.93644224862E+03  0.96302678137E+03  0.17300000000E+03 0. -1.
<mgrwt>
<rscale>  2 0.22471426E+03</rscale>
<asrwt>0</asrwt>
<pdfrwt beam="1">  1        1 0.21857178E+00 0.22471426E+03</pdfrwt>
<pdfrwt beam="2">  1       -1 0.61686296E-02 0.22471426E+03</pdfrwt>
<totfact> 0.10391201E+03</totfact>
</mgrwt>
</event>
<event>
 4    1  0.8130725E-001  0.1802920E+03  0.7546771E-02  0.1167521E+00
          2   -1    0    0  502    0  0.00000000000E+00  0.00000000000E+00  0.49620016330E+03  0.49620016330E+03  0.00000000000E+00 0.  1.
         -2   -1    0    0    0  501 -0.00000000000E+00 -0.00000000000E+00 -0.10832955943E+03  0.10832955943E+03  0.00000000000E+00 0. -1.
          6    1    1    2  502    0  0.50041997902E+02  0.84853391598E+01  0.38397492690E+03  0.42419564710E+03  0.17300000000E+03 0.  1.
         -6    1    1    2    0  501 -0.50041997902E+02 -0.84853391598E+01  0.38956769685E+01  0.18033407563E+03  0.17300000000E+03 0. -1.
<mgrwt>
<rscale>  2 0.18029199E+03</rscale>
<asrwt>0</asrwt>
<pdfrwt beam="1">  1        2 0.76338486E-01 0.18029199E+03</pdfrwt>
<pdfrwt beam="2">  1       -2 0.16666086E-01 0.18029199E+03</pdfrwt>
<totfact> 0.17850585E+03</totfact>
</mgrwt>
</event>
<event>
 4    1  0.8130725E-001  0.2659229E+03  0.7546771E-02  0.1103636E+00
          1   -1    0    0  502    0  0.00000000000E+00  0.00000000000E+00  0.15993204214E+03  0.15993204214E+03  0.00000000000E+00 0. -1.
         -1   -1    0    0    0  501 -0.00000000000E+00 -0.00000000000E+00 -0.10834020882E+04  0.10834020882E+04  0.00000000000E+00 0.  1.
          6    1    1    2  502    0  0.65652079034E+02  0.19098631409E+03 -0.94000737108E+03  0.97689755110E+03  0.17300000000E+03 0.  1.
         -6    1    1    2    0  501 -0.65652079034E+02 -0.19098631409E+03  0.16537324996E+02  0.26643657926E+03  0.17300000000E+03 0. -1.
<mgrwt>
<rscale>  2 0.26592286E+03</rscale>
<asrwt>0</asrwt>
<pdfrwt beam="1">  1        1 0.24604930E-01 0.26592286E+03</pdfrwt>
<pdfrwt beam="2">  1       -1 0.16667724E+00 0.26592286E+03</pdfrwt>
<totfact> 0.55975420E+01</totfact>
</mgrwt>
</event>
<event>
 4    1  0.8130725E-001  0.2158110E+03  0.7546771E-02  0.1137045E+00
          1   -1    0    0  502    0  0.00000000000E+00  0.00000000000E+00  0.12783978999E+04  0.12783978999E+04  0.00000000000E+00 0.  1.
         -1   -1    0    0    0  501 -0.00000000000E+00 -0.00000000000E+00 -0.36888247848E+02  0.36888247848E+02  0.00000000000E+00 0. -1.
          6    1    1    2  502    0  0.20284929775E+02 -0.12741238418E+03  0.54760379458E+03  0.58859520034E+03  0.17300000000E+03 0. -1.
         -6    1    1    2    0  501 -0.20284929775E+02  0.12741238418E+03  0.69390585748E+03  0.72669094742E+03  0.17300000000E+03 0.  1.
<mgrwt>
<rscale>  2 0.21581101E+03</rscale>
<asrwt>0</asrwt>
<pdfrwt beam="1">  1        1 0.19667657E+00 0.21581101E+03</pdfrwt>
<pdfrwt beam="2">  1       -1 0.56751160E-02 0.21581101E+03</pdfrwt>
<totfact> 0.14700394E+03</totfact>
</mgrwt>
</event>
<event>
 4    1  0.8130725E-001  0.1956611E+03  0.7546771E-02  0.1153452E+00
         -1   -1    0    0    0  501 -0.00000000000E+00  0.00000000000E+00  0.76104035200E+02  0.76104035200E+02  0.00000000000E+00 0. -1.
          1   -1    0    0  502    0  0.00000000000E+00 -0.00000000000E+00 -0.50915995076E+03  0.50915995076E+03  0.00000000000E+00 0.  1.
          6    1    1    2  502    0  0.40418002481E+02  0.81979556908E+02 -0.24861432028E+03  0.31637373930E+03  0.17300000000E+03 0. -1.
         -6    1    1    2    0  501 -0.40418002481E+02 -0.81979556908E+02 -0.18444159529E+03  0.26889024666E+03  0.17300000000E+03 0.  1.
<mgrwt>
<rscale>  2 0.19566109E+03</rscale>
<asrwt>0</asrwt>
<pdfrwt beam="2">  1        1 0.78332304E-01 0.19566109E+03</pdfrwt>
<pdfrwt beam="1">  1       -1 0.11708313E-01 0.19566109E+03</pdfrwt>
<totfact> 0.20801778E+03</totfact>
</mgrwt>
</event>
<event>
 4    1  0.8130725E-001  0.1819014E+03  0.7546771E-02  0.1165975E+00
         -2   -1    0    0    0  501 -0.00000000000E+00  0.00000000000E+00  0.82955766506E+02  0.82955766506E+02  0.00000000000E+00 0.  1.
          2   -1    0    0  502    0  0.00000000000E+00 -0.00000000000E+00 -0.46141539609E+03  0.46141539609E+03  0.00000000000E+00 0. -1.
          6    1    1    2  502    0 -0.21696899889E+02 -0.51849536658E+02 -0.28944534364E+03  0.34185777287E+03  0.17300000000E+03 0. -1.
         -6    1    1    2    0  501  0.21696899889E+02  0.51849536658E+02 -0.89014285945E+02  0.20251338973E+03  0.17300000000E+03 0.  1.
<mgrwt>
<rscale>  2 0.18190143E+03</rscale>
<asrwt>0</asrwt>
<pdfrwt beam="2">  1        2 0.70986986E-01 0.18190143E+03</pdfrwt>
<pdfrwt beam="1">  1       -2 0.12762425E-01 0.18190143E+03</pdfrwt>
<totfact> 0.29967835E+03</totfact>
</mgrwt>
</event>
<event>
 4    1  0.8130725E-001  0.2382958E+03  0.7546771E-02  0.1120933E+00
         -1   -1    0    0    0  501 -0.00000000000E+00  0.00000000000E+00  0.33868624950E+02  0.33868624950E+02  0.00000000000E+00 0.  1.
          1   -1    0    0  502    0  0.00000000000E+00 -0.00000000000E+00 -0.16789714403E+04  0.16789714403E+04  0.00000000000E+00 0. -1.
          6    1    1    2  502    0 -0.67088060058E+02  0.14951618300E+03 -0.79051777326E+03  0.82565322420E+03  0.17300000000E+03 0.  1.
         -6    1    1    2    0  501  0.67088060058E+02 -0.14951618300E+03 -0.85458504210E+03  0.88718684107E+03  0.17300000000E+03 0.  1.
<mgrwt>
<rscale>  2 0.23829582E+03</rscale>
<asrwt>0</asrwt>
<pdfrwt beam="2">  1        1 0.25830332E+00 0.23829582E+03</pdfrwt>
<pdfrwt beam="1">  1       -1 0.52105573E-02 0.23829582E+03</pdfrwt>
<totfact> 0.90512165E+02</totfact>
</mgrwt>
</event>
<event>
 4    1  0.8130725E-001  0.1852777E+03  0.7546771E-02  0.1162791E+00
         -2   -1    0    0    0  501 -0.00000000000E+00  0.00000000000E+00  0.11372865598E+02  0.11372865598E+02  0.00000000000E+00 0. -1.
          2   -1    0    0  502    0  0.00000000000E+00 -0.00000000000E+00 -0.35506196173E+04  0.35506196173E+04  0.00000000000E+00 0.  1.
          6    1    1    2  502    0 -0.51063337036E+02 -0.42324650496E+02 -0.10800873188E+04  0.10958633385E+04  0.17300000000E+03 0. -1.
         -6    1    1    2    0  501  0.51063337036E+02  0.42324650496E+02 -0.24591594329E+04  0.24661291444E+04  0.17300000000E+03 0.  1.
<mgrwt>
<rscale>  2 0.18527774E+03</rscale>
<asrwt>0</asrwt>
<pdfrwt beam="2">  1        2 0.54624989E+00 0.18527774E+03</pdfrwt>
<pdfrwt beam="1">  1       -2 0.17496693E-02 0.18527774E+03</pdfrwt>
<totfact> 0.90376419E+02</totfact>
</mgrwt>
</event>
<event>
 4    1  0.8130725E-001  0.2101018E+03  0.7546771E-02  0.1141485E+00
         -2   -1    0    0    0  501 -0.00000000000E+00  0.00000000000E+00  0.17623675807E+03  0.17623675807E+03  0.00000000000E+00 0. -1.
          2   -1    0    0  502    0  0.00000000000E+00 -0.00000000000E+00 -0.51273299669E+03  0.51273299669E+03  0.00000000000E+00 0.  1.
          6    1    1    2  502    0  0.31697882477E+02  0.11493039093E+03 -0.41461913232E+03  0.46481369966E+03  0.17300000000E+03 0.  1.
         -6    1    1    2    0  501 -0.31697882477E+02 -0.11493039093E+03  0.78122893694E+02  0.22415605509E+03  0.17300000000E+03 0. -1.
<mgrwt>
<rscale>  2 0.21010176E+03</rscale>
<asrwt>0</asrwt>
<pdfrwt beam="2">  1        2 0.78881999E-01 0.21010176E+03</pdfrwt>
<pdfrwt beam="1">  1       -2 0.27113348E-01 0.21010176E+03</pdfrwt>
<totfact> 0.74610470E+02</totfact>
</mgrwt>
</event>
<event>
 4    1  0.8130725E-001  0.1989619E+03  0.7546771E-02  0.1150618E+00
         -2   -1    0    0    0  501 -0.00000000000E+00  0.00000000000E+00  0.10657786844E+03  0.10657786844E+03  0.00000000000E+00 0.  1.
          2   -1    0    0  502    0  0.00000000000E+00 -0.00000000000E+00 -0.37216219798E+03  0.37216219798E+03  0.00000000000E+00 0. -1.
          6    1    1    2  502    0 -0.78076939981E+02 -0.59672544634E+02 -0.14343649980E+03  0.24527505094E+03  0.17300000000E+03 0. -1.
         -6    1    1    2    0  501  0.78076939981E+02  0.59672544634E+02 -0.12214782974E+03  0.23346501547E+03  0.17300000000E+03 0.  1.
<mgrwt>
<rscale>  2 0.19896186E+03</rscale>
<asrwt>0</asrwt>
<pdfrwt beam="2">  1        2 0.57255723E-01 0.19896186E+03</pdfrwt>
<pdfrwt beam="1">  1       -2 0.16396595E-01 0.19896186E+03</pdfrwt>
<totfact> 0.25164930E+03</totfact>
</mgrwt>
</event>
<event>
 4    1  0.8130725E-001  0.2089754E+03  0.7546771E-02  0.1142380E+00
          2   -1    0    0  502    0  0.00000000000E+00  0.00000000000E+00  0.10950997120E+03  0.10950997120E+03  0.00000000000E+00 0. -1.
         -2   -1    0    0    0  501 -0.00000000000E+00 -0.00000000000E+00 -0.61610382727E+03  0.61610382727E+03  0.00000000000E+00 0.  1.
          6    1    1    2  502    0  0.79251684113E+02 -0.86376332801E+02 -0.37820686712E+02  0.21237020659E+03  0.17300000000E+03 0. -1.
         -6    1    1    2    0  501 -0.79251684113E+02  0.86376332801E+02 -0.46877316936E+03  0.51324359189E+03  0.17300000000E+03 0.  1.
<mgrwt>
<rscale>  2 0.20897536E+03</rscale>
<asrwt>0</asrwt>
<pdfrwt beam="1">  1        2 0.16847688E-01 0.20897536E+03</pdfrwt>
<pdfrwt beam="2">  1       -2 0.94785203E-01 0.20897536E+03</pdfrwt>
<totfact> 0.32995924E+02</totfact>
</mgrwt>
</event>
<event>
 4    1  0.8130725E-001  0.1975860E+03  0.7546771E-02  0.1151792E+00
         -2   -1    0    0    0  501 -0.00000000000E+00  0.00000000000E+00  0.15032410011E+03  0.15032410011E+03  0.00000000000E+00 0.  1.
          2   -1    0    0  502    0  0.00000000000E+00 -0.00000000000E+00 -0.43764397927E+03  0.43764397927E+03  0.00000000000E+00 0. -1.
          6    1    1    2  502    0  0.69272959851E+02 -0.65669583323E+02  0.43794724448E+02  0.20238136038E+03  0.17300000000E+03 0.  1.
         -6    1    1    2    0  501 -0.69272959851E+02  0.65669583323E+02 -0.33111460361E+03  0.38558671899E+03  0.17300000000E+03 0. -1.
<mgrwt>
<rscale>  2 0.19758602E+03</rscale>
<asrwt>0</asrwt>
<pdfrwt beam="2">  1        2 0.67329841E-01 0.19758602E+03</pdfrwt>
<pdfrwt beam="1">  1       -2 0.23126785E-01 0.19758602E+03</pdfrwt>
<totfact> 0.11758325E+03</totfact>
</mgrwt>
</event>
<event>
 4    1  0.8130725E-001  0.1950090E+03  0.7546771E-02  0.1154020E+00
         -2   -1    0    0    0  501 -0.00000000000E+00  0.00000000000E+00  0.24587632840E+02  0.24587632840E+02  0.00000000000E+00 0.  1.
          2   -1    0    0  502    0  0.00000000000E+00 -0.00000000000E+00 -0.15774647994E+04  0.15774647994E+04  0.00000000000E+00 0. -1.
          6    1    1    2  502    0  0.33285478228E+02 -0.83615603300E+02 -0.88839216962E+03  0.90954336852E+03  0.17300000000E+03 0. -1.
         -6    1    1    2    0  501 -0.33285478228E+02  0.83615603300E+02 -0.66448499692E+03  0.69250906370E+03  0.17300000000E+03 0. -1.
<mgrwt>
<rscale>  2 0.19500895E+03</rscale>
<asrwt>0</asrwt>
<pdfrwt beam="2">  1        2 0.24268691E+00 0.19500895E+03</pdfrwt>
<pdfrwt beam="1">  1       -2 0.37827125E-02 0.19500895E+03</pdfrwt>
<totfact> 0.36984912E+03</totfact>
</mgrwt>
</event>
<event>
 4    1  0.8130725E-001  0.1765693E+03  0.7546771E-02  0.1171165E+00
          2   -1    0    0  502    0  0.00000000000E+00  0.00000000000E+00  0.17757632690E+03  0.17757632690E+03  0.00000000000E+00 0.  1.
         -2   -1    0    0    0  501 -0.00000000000E+00 -0.00000000000E+00 -0.25480249943E+03  0.25480249943E+03  0.00000000000E+00 0. -1.
          6    1    1    2  502    0 -0.23181914063E+02 -0.26651568206E+02  0.81943223526E+02  0.19465713218E+03  0.17300000000E+03 0.  1.
         -6    1    1    2    0  501  0.23181914063E+02  0.26651568206E+02 -0.15916939606E+03  0.23772169415E+03  0.17300000000E+03 0. -1.
<mgrwt>
<rscale>  2 0.17656927E+03</rscale>
<asrwt>0</asrwt>
<pdfrwt beam="1">  1        2 0.27319435E-01 0.17656927E+03</pdfrwt>
<pdfrwt beam="2">  1       -2 0.39200385E-01 0.17656927E+03</pdfrwt>
<totfact> 0.11935545E+03</totfact>
</mgrwt>
</event>
<event>
 4    1  0.8130725E-001  0.1749336E+03  0.7546771E-02  0.1172798E+00
         -1   -1    0    0    0  501 -0.00000000000E+00  0.00000000000E+00  0.65513961965E+02  0.65513961965E+02  0.00000000000E+00 0.  1.
          1   -1    0    0  502    0  0.00000000000E+00 -0.00000000000E+00 -0.47577544491E+03  0.47577544491E+03  0.00000000000E+00 0. -1.
          6    1    1    2  502    0 -0.12005732793E+02  0.22991891704E+02 -0.24167091638E+03  0.29833973341E+03  0.17300000000E+03 0. -1.
         -6    1    1    2    0  501  0.12005732793E+02 -0.22991891704E+02 -0.16859056656E+03  0.24294967347E+03  0.17300000000E+03 0.  1.
<mgrwt>
<rscale>  2 0.17493360E+03</rscale>
<asrwt>0</asrwt>
<pdfrwt beam="2">  1        1 0.73196224E-01 0.17493360E+03</pdfrwt>
<pdfrwt beam="1">  1       -1 0.10079071E-01 0.17493360E+03</pdfrwt>
<totfact> 0.28574447E+03</totfact>
</mgrwt>
</event>
<event>
 4    1  0.8130725E-001  0.3262151E+03  0.7546771E-02  0.1072824E+00
         -1   -1    0    0    0  501 -0.00000000000E+00  0.00000000000E+00  0.32465902319E+03  0.32465902319E+03  0.00000000000E+00 0.  1.
          1   -1    0    0  502    0  0.00000000000E+00 -0.00000000000E+00 -0.34081854818E+03  0.34081854818E+03  0.00000000000E+00 0. -1.
          6    1    1    2  502    0  0.25979174361E+03  0.94844964810E+02 -0.73164301922E+02  0.33431920745E+03  0.17300000000E+03 0.  1.
         -6    1    1    2    0  501 -0.25979174361E+03 -0.94844964810E+02  0.57004776927E+02  0.33115836391E+03  0.17300000000E+03 0.  1.
<mgrwt>
<rscale>  2 0.32621514E+03</rscale>
<asrwt>0</asrwt>
<pdfrwt beam="2">  1        1 0.52433623E-01 0.32621514E+03</pdfrwt>
<pdfrwt beam="1">  1       -1 0.49947542E-01 0.32621514E+03</pdfrwt>
<totfact> 0.30751586E+02</totfact>
</mgrwt>
</event>
<event>
 4    1  0.8130725E-001  0.1802351E+03  0.7546771E-02  0.1167576E+00
          2   -1    0    0  502    0  0.00000000000E+00  0.00000000000E+00  0.11925585776E+04  0.11925585776E+04  0.00000000000E+00 0. -1.
         -2   -1    0    0    0  501 -0.00000000000E+00 -0.00000000000E+00 -0.29092742414E+02  0.29092742414E+02  0.00000000000E+00 0.  1.
          6    1    1    2  502    0 -0.38486496169E+02  0.32779105613E+02  0.73590045889E+03  0.75765042437E+03  0.17300000000E+03 0. -1.
         -6    1    1    2    0  501  0.38486496169E+02 -0.32779105613E+02  0.42756537631E+03  0.46400089565E+03  0.17300000000E+03 0.  1.
<mgrwt>
<rscale>  2 0.18023507E+03</rscale>
<asrwt>0</asrwt>
<pdfrwt beam="1">  1        2 0.18347051E+00 0.18023507E+03</pdfrwt>
<pdfrwt beam="2">  1       -2 0.44758074E-02 0.18023507E+03</pdfrwt>
<totfact> 0.46286815E+03</totfact>
</mgrwt>
</event>
<event>
 4    1  0.8130725E-001  0.1763160E+03  0.7546771E-02  0.1171417E+00
         -4   -1    0    0    0  501 -0.00000000000E+00  0.00000000000E+00  0.36133301063E+03  0.36133301063E+03  0.00000000000E+00 0.  1.
          4   -1    0    0  502    0  0.00000000000E+00 -0.00000000000E+00 -0.12309637607E+03  0.12309637607E+03  0.00000000000E+00 0. -1.
          6    1    1    2  502    0  0.12955670358E+01 -0.34009800174E+02 -0.13785562043E+02  0.17685413968E+03  0.17300000000E+03 0. -1.
         -6    1    1    2    0  501 -0.12955670358E+01  0.34009800174E+02  0.25202219660E+03  0.30757524702E+03  0.17300000000E+03 0.  1.
<mgrwt>
<rscale>  2 0.17631604E+03</rscale>
<asrwt>0</asrwt>
<pdfrwt beam="2">  1        4 0.18937904E-01 0.17631604E+03</pdfrwt>
<pdfrwt beam="1">  1       -4 0.55589693E-01 0.17631604E+03</pdfrwt>
<totfact> 0.13534313E+02</totfact>
</mgrwt>
</event>
<event>
 4    1  0.8130725E-001  0.2928521E+03  0.7546771E-02  0.1088869E+00
         -1   -1    0    0    0  501 -0.00000000000E+00  0.00000000000E+00  0.16053106164E+03  0.16053106164E+03  0.00000000000E+00 0.  1.
          1   -1    0    0  502    0  0.00000000000E+00 -0.00000000000E+00 -0.76543539684E+03  0.76543539684E+03  0.00000000000E+00 0. -1.
          6    1    1    2  502    0  0.11741585575E+03  0.20505332522E+03 -0.55690026354E+03  0.62920604963E+03  0.17300000000E+03 0. -1.
         -6    1    1    2    0  501 -0.11741585575E+03 -0.20505332522E+03 -0.48004071661E+02  0.29676040885E+03  0.17300000000E+03 0.  1.
<mgrwt>
<rscale>  2 0.29285209E+03</rscale>
<asrwt>0</asrwt>
<pdfrwt beam="2">  1        1 0.11775929E+00 0.29285209E+03</pdfrwt>
<pdfrwt beam="1">  1       -1 0.24697087E-01 0.29285209E+03</pdfrwt>
<totfact> 0.35225374E+02</totfact>
</mgrwt>
</event>
<event>
 4    1  0.8130725E-001  0.1849665E+03  0.7546771E-02  0.1163081E+00
         -2   -1    0    0    0  501 -0.00000000000E+00  0.00000000000E+00  0.28570659334E+02  0.28570659334E+02  0.00000000000E+00 0.  1.
          2   -1    0    0  502    0  0.00000000000E+00 -0.00000000000E+00 -0.12697265412E+04  0.12697265412E+04  0.00000000000E+00 0. -1.
          6    1    1    2  502    0 -0.15888883202E+02 -0.63491250505E+02 -0.77543048570E+03  0.79718569585E+03  0.17300000000E+03 0. -1.
         -6    1    1    2    0  501  0.15888883202E+02  0.63491250505E+02 -0.46572539614E+03  0.50111150466E+03  0.17300000000E+03 0.  1.
<mgrwt>
<rscale>  2 0.18496647E+03</rscale>
<asrwt>0</asrwt>
<pdfrwt beam="2">  1        2 0.19534253E+00 0.18496647E+03</pdfrwt>
<pdfrwt beam="1">  1       -2 0.43954864E-02 0.18496647E+03</pdfrwt>
<totfact> 0.43117641E+03</totfact>
</mgrwt>
</event>
<event>
 4    1  0.8130725E-001  0.2383555E+03  0.7546771E-02  0.1120893E+00
         -2   -1    0    0    0  501 -0.00000000000E+00  0.00000000000E+00  0.25725469874E+03  0.25725469874E+03  0.00000000000E+00 0. -1.
          2   -1    0    0  502    0  0.00000000000E+00 -0.00000000000E+00 -0.22160558279E+03  0.22160558279E+03  0.00000000000E+00 0.  1.
          6    1    1    2  502    0 -0.11311285429E+02  0.16357382322E+03  0.31854079300E+02  0.24047457909E+03  0.17300000000E+03 0. -1.
         -6    1    1    2    0  501  0.11311285429E+02 -0.16357382322E+03  0.37950366551E+01  0.23838570243E+03  0.17300000000E+03 0.  1.
<mgrwt>
<rscale>  2 0.23835549E+03</rscale>
<asrwt>0</asrwt>
<pdfrwt beam="2">  1        2 0.34093166E-01 0.23835549E+03</pdfrwt>
<pdfrwt beam="1">  1       -2 0.39577646E-01 0.23835549E+03</pdfrwt>
<totfact> 0.92524745E+02</totfact>
</mgrwt>
</event>
<event>
 4    1  0.8130725E-001  0.1961313E+03  0.7546771E-02  0.1153045E+00
          1   -1    0    0  502    0  0.00000000000E+00  0.00000000000E+00  0.16467698786E+04  0.16467698786E+04  0.00000000000E+00 0. -1.
         -1   -1    0    0    0  501 -0.00000000000E+00 -0.00000000000E+00 -0.23709764053E+02  0.23709764053E+02  0.00000000000E+00 0.  1.
          6    1    1    2  502    0 -0.70067588075E+02 -0.60241317041E+02  0.70999059353E+03  0.73658273539E+03  0.17300000000E+03 0.  1.
         -6    1    1    2    0  501  0.70067588075E+02  0.60241317041E+02  0.91306952100E+03  0.93389690724E+03  0.17300000000E+03 0. -1.
<mgrwt>
<rscale>  2 0.19613129E+03</rscale>
<asrwt>0</asrwt>
<pdfrwt beam="1">  1        1 0.25334912E+00 0.19613129E+03</pdfrwt>
<pdfrwt beam="2">  1       -1 0.36476573E-02 0.19613129E+03</pdfrwt>
<totfact> 0.16200598E+03</totfact>
</mgrwt>
</event>
<event>
 4    1  0.8130725E-001  0.1908052E+03  0.7546771E-02  0.1157737E+00
         -2   -1    0    0    0  501 -0.00000000000E+00  0.00000000000E+00  0.88103983023E+02  0.88103983023E+02  0.00000000000E+00 0.  1.
          2   -1    0    0  502    0  0.00000000000E+00 -0.00000000000E+00 -0.12000384685E+04  0.12000384685E+04  0.00000000000E+00 0. -1.
          6    1    1    2  502    0  0.61352583690E+02 -0.52091291486E+02 -0.34445281425E+02  0.19388945197E+03  0.17300000000E+03 0.  1.
         -6    1    1    2    0  501 -0.61352583690E+02  0.52091291486E+02 -0.10774892041E+04  0.10942529996E+04  0.17300000000E+03 0. -1.
<mgrwt>
<rscale>  2 0.19080525E+03</rscale>
<asrwt>0</asrwt>
<pdfrwt beam="2">  1        2 0.18462129E+00 0.19080525E+03</pdfrwt>
<pdfrwt beam="1">  1       -2 0.13554460E-01 0.19080525E+03</pdfrwt>
<totfact> 0.81634348E+02</totfact>
</mgrwt>
</event>
<event>
 4    1  0.8130725E-001  0.2188063E+03  0.7546771E-02  0.1134776E+00
         -1   -1    0    0    0  501 -0.00000000000E+00  0.00000000000E+00  0.13092955766E+03  0.13092955766E+03  0.00000000000E+00 0. -1.
          1   -1    0    0  502    0  0.00000000000E+00 -0.00000000000E+00 -0.74878733445E+03  0.74878733445E+03  0.00000000000E+00 0.  1.
          6    1    1    2  502    0  0.13251607858E+03  0.19664728625E+02  0.57032264881E+01  0.21888065110E+03  0.17300000000E+03 0. -1.
         -6    1    1    2    0  501 -0.13251607858E+03 -0.19664728625E+02 -0.62356100327E+03  0.66083624101E+03  0.17300000000E+03 0.  1.
<mgrwt>
<rscale>  2 0.21880634E+03</rscale>
<asrwt>0</asrwt>
<pdfrwt beam="2">  1        1 0.11519805E+00 0.21880634E+03</pdfrwt>
<pdfrwt beam="1">  1       -1 0.20143009E-01 0.21880634E+03</pdfrwt>
<totfact> 0.51279462E+02</totfact>
</mgrwt>
</event>
<event>
 4    1  0.8130725E-001  0.3191780E+03  0.7546771E-02  0.1076028E+00
          2   -1    0    0  502    0  0.00000000000E+00  0.00000000000E+00  0.24003971664E+03  0.24003971664E+03  0.00000000000E+00 0. -1.
         -2   -1    0    0    0  501 -0.00000000000E+00 -0.00000000000E+00 -0.55366211633E+03  0.55366211633E+03  0.00000000000E+00 0.  1.
          6    1    1    2  502    0 -0.26647224660E+03  0.30629154546E+02  0.34935714478E+02  0.32108426848E+03  0.17300000000E+03 0. -1.
         -6    1    1    2    0  501  0.26647224660E+03 -0.30629154546E+02 -0.34855811417E+03  0.47261756450E+03  0.17300000000E+03 0.  1.
<mgrwt>
<rscale>  2 0.31917801E+03</rscale>
<asrwt>0</asrwt>
<pdfrwt beam="1">  1        2 0.36929188E-01 0.31917801E+03</pdfrwt>
<pdfrwt beam="2">  1       -2 0.85178786E-01 0.31917801E+03</pdfrwt>
<totfact> 0.17336793E+02</totfact>
</mgrwt>
</event>
<event>
 4    1  0.8130725E-001  0.2138710E+03  0.7546771E-02  0.1138537E+00
         -2   -1    0    0    0  501 -0.00000000000E+00  0.00000000000E+00  0.25847876811E+02  0.25847876811E+02  0.00000000000E+00 0. -1.
          2   -1    0    0  502    0  0.00000000000E+00 -0.00000000000E+00 -0.17704678421E+04  0.17704678421E+04  0.00000000000E+00 0.  1.
          6    1    1    2  502    0 -0.10765009753E+03 -0.64986499618E+02 -0.89202338488E+03  0.91730393425E+03  0.17300000000E+03 0.  1.
         -6    1    1    2    0  501  0.10765009753E+03  0.64986499618E+02 -0.85259658037E+03  0.87901178461E+03  0.17300000000E+03 0. -1.
<mgrwt>
<rscale>  2 0.21387096E+03</rscale>
<asrwt>0</asrwt>
<pdfrwt beam="2">  1        2 0.27237971E+00 0.21387096E+03</pdfrwt>
<pdfrwt beam="1">  1       -2 0.39765959E-02 0.21387096E+03</pdfrwt>
<totfact> 0.27214569E+03</totfact>
</mgrwt>
</event>
<event>
 4    1  0.8130725E-001  0.2100443E+03  0.7546771E-02  0.1141531E+00
          1   -1    0    0  502    0  0.00000000000E+00  0.00000000000E+00  0.47512027997E+03  0.47512027997E+03  0.00000000000E+00 0.  1.
         -1   -1    0    0    0  501 -0.00000000000E+00 -0.00000000000E+00 -0.10590748853E+03  0.10590748853E+03  0.00000000000E+00 0. -1.
          6    1    1    2  502    0 -0.11107431392E+03  0.43036014967E+02  0.28658390646E+03  0.35531526457E+03  0.17300000000E+03 0.  1.
         -6    1    1    2    0  501  0.11107431392E+03 -0.43036014967E+02  0.82628884988E+02  0.22571250393E+03  0.17300000000E+03 0. -1.
<mgrwt>
<rscale>  2 0.21004429E+03</rscale>
<asrwt>0</asrwt>
<pdfrwt beam="1">  1        1 0.73095426E-01 0.21004429E+03</pdfrwt>
<pdfrwt beam="2">  1       -1 0.16293460E-01 0.21004429E+03</pdfrwt>
<totfact> 0.13565195E+03</totfact>
</mgrwt>
</event>
<event>
 4    1  0.8130725E-001  0.1807910E+03  0.7546771E-02  0.1167040E+00
         -2   -1    0    0    0  501 -0.00000000000E+00  0.00000000000E+00  0.61357737052E+02  0.61357737052E+02  0.00000000000E+00 0. -1.
          2   -1    0    0  502    0  0.00000000000E+00 -0.00000000000E+00 -0.54398533859E+03  0.54398533859E+03  0.00000000000E+00 0.  1.
          6    1    1    2  502    0 -0.46982684418E+02 -0.23430647688E+02 -0.28490546951E+03  0.33742628001E+03  0.17300000000E+03 0.  1.
         -6    1    1    2    0  501  0.46982684418E+02  0.23430647688E+02 -0.19772213203E+03  0.26791679563E+03  0.17300000000E+03 0.  1.
<mgrwt>
<rscale>  2 0.18079095E+03</rscale>
<asrwt>0</asrwt>
<pdfrwt beam="2">  1        2 0.83690052E-01 0.18079095E+03</pdfrwt>
<pdfrwt beam="1">  1       -2 0.94396519E-02 0.18079095E+03</pdfrwt>
<totfact> 0.40370320E+03</totfact>
</mgrwt>
</event>
<event>
 4    1  0.8130725E-001  0.2315383E+03  0.7546771E-02  0.1125562E+00
         -2   -1    0    0    0  501 -0.00000000000E+00  0.00000000000E+00  0.44080497281E+02  0.44080497281E+02  0.00000000000E+00 0. -1.
          2   -1    0    0  502    0  0.00000000000E+00 -0.00000000000E+00 -0.13886257485E+04  0.13886257485E+04  0.00000000000E+00 0.  1.
          6    1    1    2  502    0 -0.15383800889E+03 -0.38549833299E+01 -0.41983399998E+03  0.47944820514E+03  0.17300000000E+03 0.  1.
         -6    1    1    2    0  501  0.15383800889E+03  0.38549833299E+01 -0.92471125128E+03  0.95325804068E+03  0.17300000000E+03 0. -1.
<mgrwt>
<rscale>  2 0.23153832E+03</rscale>
<asrwt>0</asrwt>
<pdfrwt beam="2">  1        2 0.21363471E+00 0.23153832E+03</pdfrwt>
<pdfrwt beam="1">  1       -2 0.67816158E-02 0.23153832E+03</pdfrwt>
<totfact> 0.19211134E+03</totfact>
</mgrwt>
</event>
<event>
 4    1  0.8130725E-001  0.2677775E+03  0.7546771E-02  0.1102558E+00
          1   -1    0    0  502    0  0.00000000000E+00  0.00000000000E+00  0.54262106344E+03  0.54262106344E+03  0.00000000000E+00 0.  1.
         -1   -1    0    0    0  501 -0.00000000000E+00 -0.00000000000E+00 -0.14021723455E+03  0.14021723455E+03  0.00000000000E+00 0. -1.
          6    1    1    2  502    0 -0.15672515974E+03  0.13119833678E+03  0.11928413500E+03  0.29314413542E+03  0.17300000000E+03 0. -1.
         -6    1    1    2    0  501  0.15672515974E+03 -0.13119833678E+03  0.28311969389E+03  0.38969416257E+03  0.17300000000E+03 0. -1.
<mgrwt>
<rscale>  2 0.26777748E+03</rscale>
<asrwt>0</asrwt>
<pdfrwt beam="1">  1        1 0.83480162E-01 0.26777748E+03</pdfrwt>
<pdfrwt beam="2">  1       -1 0.21571883E-01 0.26777748E+03</pdfrwt>
<totfact> 0.72215347E+02</totfact>
</mgrwt>
</event>
<event>
 4    1  0.8130725E-001  0.3161354E+03  0.7546771E-02  0.1077442E+00
         -1   -1    0    0    0  501 -0.00000000000E+00  0.00000000000E+00  0.11713310662E+03  0.11713310662E+03  0.00000000000E+00 0.  1.
          1   -1    0    0  502    0  0.00000000000E+00 -0.00000000000E+00 -0.13672587811E+04  0.13672587811E+04  0.00000000000E+00 0. -1.
          6    1    1    2  502    0 -0.25702561309E+03  0.62852182081E+02 -0.10801416730E+04  0.11254543954E+04  0.17300000000E+03 0. -1.
         -6    1    1    2    0  501  0.25702561309E+03 -0.62852182081E+02 -0.16998400149E+03  0.35893749225E+03  0.17300000000E+03 0.  1.
<mgrwt>
<rscale>  2 0.31613535E+03</rscale>
<asrwt>0</asrwt>
<pdfrwt beam="2">  1        1 0.21034750E+00 0.31613535E+03</pdfrwt>
<pdfrwt beam="1">  1       -1 0.18020478E-01 0.31613535E+03</pdfrwt>
<totfact> 0.20978152E+02</totfact>
</mgrwt>
</event>
<event>
 4    1  0.8130725E-001  0.1785092E+03  0.7546771E-02  0.1169254E+00
         -2   -1    0    0    0  501 -0.00000000000E+00  0.00000000000E+00  0.24113778342E+03  0.24113778342E+03  0.00000000000E+00 0.  1.
          2   -1    0    0  502    0  0.00000000000E+00 -0.00000000000E+00 -0.13214657414E+03  0.13214657414E+03  0.00000000000E+00 0. -1.
          6    1    1    2  502    0 -0.24960947947E+02 -0.36241826579E+02  0.54615077928E+02  0.18667706247E+03  0.17300000000E+03 0.  1.
         -6    1    1    2    0  501  0.24960947947E+02  0.36241826579E+02  0.54376131353E+02  0.18660729508E+03  0.17300000000E+03 0. -1.
<mgrwt>
<rscale>  2 0.17850916E+03</rscale>
<asrwt>0</asrwt>
<pdfrwt beam="2">  1        2 0.20330242E-01 0.17850916E+03</pdfrwt>
<pdfrwt beam="1">  1       -2 0.37098120E-01 0.17850916E+03</pdfrwt>
<totfact> 0.18438238E+03</totfact>
</mgrwt>
</event>
<event>
 4    1  0.8130725E-001  0.1918205E+03  0.7546771E-02  0.1156830E+00
          4   -1    0    0  502    0  0.00000000000E+00  0.00000000000E+00  0.33749786192E+02  0.33749786192E+02  0.00000000000E+00 0. -1.
         -4   -1    0    0    0  501 -0.00000000000E+00 -0.00000000000E+00 -0.13770178973E+04  0.13770178973E+04  0.00000000000E+00 0.  1.
          6    1    1    2  502    0 -0.38580921785E+02  0.73332252413E+02 -0.99354399671E+03  0.10118916840E+04  0.17300000000E+03 0.  1.
         -6    1    1    2    0  501  0.38580921785E+02 -0.73332252413E+02 -0.34972411438E+03  0.39887599947E+03  0.17300000000E+03 0. -1.
<mgrwt>
<rscale>  2 0.19182051E+03</rscale>
<asrwt>0</asrwt>
<pdfrwt beam="1">  1        4 0.51922748E-02 0.19182051E+03</pdfrwt>
<pdfrwt beam="2">  1       -4 0.21184891E+00 0.19182051E+03</pdfrwt>
<totfact> 0.48753604E+01</totfact>
</mgrwt>
</event>
<event>
 4    1  0.8130725E-001  0.2091462E+03  0.7546771E-02  0.1142244E+00
          1   -1    0    0  502    0  0.00000000000E+00  0.00000000000E+00  0.16933477733E+03  0.16933477733E+03  0.00000000000E+00 0. -1.
         -1   -1    0    0    0  501 -0.00000000000E+00 -0.00000000000E+00 -0.27614630241E+03  0.27614630241E+03  0.00000000000E+00 0.  1.
          6    1    1    2  502    0 -0.68773009426E+02 -0.95306849230E+02  0.31910203258E+01  0.20917051644E+03  0.17300000000E+03 0. -1.
         -6    1    1    2    0  501  0.68773009426E+02  0.95306849230E+02 -0.11000254540E+03  0.23631056331E+03  0.17300000000E+03 0.  1.
<mgrwt>
<rscale>  2 0.20914617E+03</rscale>
<asrwt>0</asrwt>
<pdfrwt beam="1">  1        1 0.26051504E-01 0.20914617E+03</pdfrwt>
<pdfrwt beam="2">  1       -1 0.42484046E-01 0.20914617E+03</pdfrwt>
<totfact> 0.10025395E+03</totfact>
</mgrwt>
</event>
<event>
 4    1  0.8130725E-001  0.1740124E+03  0.7546771E-02  0.1173727E+00
         -2   -1    0    0    0  501 -0.00000000000E+00  0.00000000000E+00  0.16026050939E+02  0.16026050939E+02  0.00000000000E+00 0. -1.
          2   -1    0    0  502    0  0.00000000000E+00 -0.00000000000E+00 -0.20357337524E+04  0.20357337524E+04  0.00000000000E+00 0.  1.
          6    1    1    2  502    0  0.16635446890E+02 -0.86357891774E+01 -0.12848610035E+04  0.12965909583E+04  0.17300000000E+03 0.  1.
         -6    1    1    2    0  501 -0.16635446890E+02  0.86357891774E+01 -0.73484669802E+03  0.75516884505E+03  0.17300000000E+03 0. -1.
<mgrwt>
<rscale>  2 0.17401240E+03</rscale>
<asrwt>0</asrwt>
<pdfrwt beam="2">  1        2 0.31318965E+00 0.17401240E+03</pdfrwt>
<pdfrwt beam="1">  1       -2 0.24655476E-02 0.17401240E+03</pdfrwt>
<totfact> 0.40315189E+03</totfact>
</mgrwt>
</event>
<event>
 4    1  0.8130725E-001  0.1792621E+03  0.7546771E-02  0.1168519E+00
          1   -1    0    0  502    0  0.00000000000E+00  0.00000000000E+00  0.52724948285E+03  0.52724948285E+03  0.00000000000E+00 0.  1.
         -1   -1    0    0    0  501 -0.00000000000E+00 -0.00000000000E+00 -0.19823082228E+03  0.19823082228E+03  0.00000000000E+00 0. -1.
          6    1    1    2  502    0  0.39914564469E+02  0.24753694311E+02  0.46637782593E+03  0.49964306696E+03  0.17300000000E+03 0.  1.
         -6    1    1    2    0  501 -0.39914564469E+02 -0.24753694311E+02 -0.13735916536E+03  0.22583723817E+03  0.17300000000E+03 0. -1.
<mgrwt>
<rscale>  2 0.17926215E+03</rscale>
<asrwt>0</asrwt>
<pdfrwt beam="1">  1        1 0.81115304E-01 0.17926215E+03</pdfrwt>
<pdfrwt beam="2">  1       -1 0.30497050E-01 0.17926215E+03</pdfrwt>
<totfact> 0.42305117E+02</totfact>
</mgrwt>
</event>
<event>
 4    1  0.8130725E-001  0.2000552E+03  0.7546771E-02  0.1149692E+00
          1   -1    0    0  502    0  0.00000000000E+00  0.00000000000E+00  0.75792207356E+03  0.75792207356E+03  0.00000000000E+00 0.  1.
         -1   -1    0    0    0  501 -0.00000000000E+00 -0.00000000000E+00 -0.56804917035E+02  0.56804917035E+02  0.00000000000E+00 0. -1.
          6    1    1    2  502    0  0.52902865585E+02  0.85407146248E+02  0.24246166467E+03  0.31434018619E+03  0.17300000000E+03 0. -1.
         -6    1    1    2    0  501 -0.52902865585E+02 -0.85407146248E+02  0.45865549186E+03  0.50038680441E+03  0.17300000000E+03 0.  1.
<mgrwt>
<rscale>  2 0.20005523E+03</rscale>
<asrwt>0</asrwt>
<pdfrwt beam="1">  1        1 0.11660339E+00 0.20005523E+03</pdfrwt>
<pdfrwt beam="2">  1       -1 0.87392185E-02 0.20005523E+03</pdfrwt>
<totfact> 0.18723205E+03</totfact>
</mgrwt>
</event>
<event>
 4    1  0.8130725E-001  0.2780079E+03  0.7546771E-02  0.1096782E+00
         -2   -1    0    0    0  501 -0.00000000000E+00  0.00000000000E+00  0.66525752217E+02  0.66525752217E+02  0.00000000000E+00 0. -1.
          2   -1    0    0  502    0  0.00000000000E+00 -0.00000000000E+00 -0.11983475033E+04  0.11983475033E+04  0.00000000000E+00 0.  1.
          6    1    1    2  502    0 -0.16486757473E+03  0.14204959449E+03 -0.45543615310E+03  0.53358269654E+03  0.17300000000E+03 0. -1.
         -6    1    1    2    0  501  0.16486757473E+03 -0.14204959449E+03 -0.67638559797E+03  0.73129055897E+03  0.17300000000E+03 0.  1.
<mgrwt>
<rscale>  2 0.27800792E+03</rscale>
<asrwt>0</asrwt>
<pdfrwt beam="2">  1        2 0.18436115E+00 0.27800792E+03</pdfrwt>
<pdfrwt beam="1">  1       -2 0.10234731E-01 0.27800792E+03</pdfrwt>
<totfact> 0.12812800E+03</totfact>
</mgrwt>
</event>
<event>
 4    1  0.8130725E-001  0.2128506E+03  0.7546771E-02  0.1139328E+00
          1   -1    0    0  502    0  0.00000000000E+00  0.00000000000E+00  0.81827189784E+02  0.81827189784E+02  0.00000000000E+00 0. -1.
         -1   -1    0    0    0  501 -0.00000000000E+00 -0.00000000000E+00 -0.58657964233E+03  0.58657964233E+03  0.00000000000E+00 0.  1.
          6    1    1    2  502    0 -0.11559995982E+03 -0.44867002261E+02 -0.17321768007E+03  0.27442624381E+03  0.17300000000E+03 0. -1.
         -6    1    1    2    0  501  0.11559995982E+03  0.44867002261E+02 -0.33153477248E+03  0.39398058831E+03  0.17300000000E+03 0.  1.
<mgrwt>
<rscale>  2 0.21285065E+03</rscale>
<asrwt>0</asrwt>
<pdfrwt beam="1">  1        1 0.12588799E-01 0.21285065E+03</pdfrwt>
<pdfrwt beam="2">  1       -1 0.90243021E-01 0.21285065E+03</pdfrwt>
<totfact> 0.59435349E+02</totfact>
</mgrwt>
</event>
<event>
 4    1  0.8130725E-001  0.2480579E+03  0.7546771E-02  0.1114538E+00
          4   -1    0    0  502    0  0.00000000000E+00  0.00000000000E+00  0.52181295713E+03  0.52181295713E+03  0.00000000000E+00 0.  1.
         -4   -1    0    0    0  501 -0.00000000000E+00 -0.00000000000E+00 -0.17364896338E+03  0.17364896338E+03  0.00000000000E+00 0. -1.
          6    1    1    2  502    0  0.41921746375E+02 -0.17276071956E+03  0.37107186888E+03  0.44634855317E+03  0.17300000000E+03 0.  1.
         -6    1    1    2    0  501 -0.41921746375E+02  0.17276071956E+03 -0.22907875125E+02  0.24911336734E+03  0.17300000000E+03 0. -1.
<mgrwt>
<rscale>  2 0.24805785E+03</rscale>
<asrwt>0</asrwt>
<pdfrwt beam="1">  1        4 0.80278916E-01 0.24805785E+03</pdfrwt>
<pdfrwt beam="2">  1       -4 0.26715225E-01 0.24805785E+03</pdfrwt>
<totfact> 0.33907812E+01</totfact>
</mgrwt>
</event>
<event>
 4    1  0.8130725E-001  0.2451356E+03  0.7546771E-02  0.1116418E+00
         -1   -1    0    0    0  501 -0.00000000000E+00  0.00000000000E+00  0.84320167588E+02  0.84320167588E+02  0.00000000000E+00 0.  1.
          1   -1    0    0  502    0  0.00000000000E+00 -0.00000000000E+00 -0.86659515074E+03  0.86659515074E+03  0.00000000000E+00 0. -1.
          6    1    1    2  502    0  0.16338525711E+03 -0.58887213795E+02 -0.59152718106E+03  0.64030918479E+03  0.17300000000E+03 0. -1.
         -6    1    1    2    0  501 -0.16338525711E+03  0.58887213795E+02 -0.19074780209E+03  0.31060613354E+03  0.17300000000E+03 0.  1.
<mgrwt>
<rscale>  2 0.24513557E+03</rscale>
<asrwt>0</asrwt>
<pdfrwt beam="2">  1        1 0.13332233E+00 0.24513557E+03</pdfrwt>
<pdfrwt beam="1">  1       -1 0.12972333E-01 0.24513557E+03</pdfrwt>
<totfact> 0.82549774E+02</totfact>
</mgrwt>
</event>
<event>
 4    1  0.8130725E-001  0.1740974E+03  0.7546771E-02  0.1173641E+00
         -2   -1    0    0    0  501 -0.00000000000E+00  0.00000000000E+00  0.62549161681E+03  0.62549161681E+03  0.00000000000E+00 0.  1.
          2   -1    0    0  502    0  0.00000000000E+00 -0.00000000000E+00 -0.52290118129E+02  0.52290118129E+02  0.00000000000E+00 0. -1.
          6    1    1    2  502    0 -0.18491103676E+02  0.62426310179E+01  0.19485500426E+03  0.26130128978E+03  0.17300000000E+03 0. -1.
         -6    1    1    2    0  501  0.18491103676E+02 -0.62426310179E+01  0.37834649443E+03  0.41648044516E+03  0.17300000000E+03 0.  1.
<mgrwt>
<rscale>  2 0.17409736E+03</rscale>
<asrwt>0</asrwt>
<pdfrwt beam="2">  1        2 0.80446340E-02 0.17409736E+03</pdfrwt>
<pdfrwt beam="1">  1       -2 0.96229474E-01 0.17409736E+03</pdfrwt>
<totfact> 0.78094440E+02</totfact>
</mgrwt>
</event>
<event>
 4    1  0.8130725E-001  0.1941340E+03  0.7546771E-02  0.1154785E+00
         -1   -1    0    0    0  501 -0.00000000000E+00  0.00000000000E+00  0.28293200903E+03  0.28293200903E+03  0.00000000000E+00 0. -1.
          1   -1    0    0  502    0  0.00000000000E+00 -0.00000000000E+00 -0.16032358227E+03  0.16032358227E+03  0.00000000000E+00 0.  1.
          6    1    1    2  502    0  0.15568691365E+02  0.86698426745E+02 -0.29846021909E+02  0.19641483237E+03  0.17300000000E+03 0.  1.
         -6    1    1    2    0  501 -0.15568691365E+02 -0.86698426745E+02  0.15245444866E+03  0.24684075893E+03  0.17300000000E+03 0. -1.
<mgrwt>
<rscale>  2 0.19413398E+03</rscale>
<asrwt>0</asrwt>
<pdfrwt beam="2">  1        1 0.24665166E-01 0.19413398E+03</pdfrwt>
<pdfrwt beam="1">  1       -1 0.43528001E-01 0.19413398E+03</pdfrwt>
<totfact> 0.10277170E+03</totfact>
</mgrwt>
</event>
<event>
 4    1  0.8130725E-001  0.2159493E+03  0.7546771E-02  0.1136940E+00
         -2   -1    0    0    0  501 -0.00000000000E+00  0.00000000000E+00  0.77457085146E+02  0.77457085146E+02  0.00000000000E+00 0.  1.
          2   -1    0    0  502    0  0.00000000000E+00 -0.00000000000E+00 -0.67338780553E+03  0.67338780553E+03  0.00000000000E+00 0. -1.
          6    1    1    2  502    0  0.12777949147E+03 -0.19429415089E+02 -0.42014693680E+03  0.47239554307E+03  0.17300000000E+03 0. -1.
         -6    1    1    2    0  501 -0.12777949147E+03  0.19429415089E+02 -0.17578378358E+03  0.27844934761E+03  0.17300000000E+03 0.  1.
<mgrwt>
<rscale>  2 0.21594930E+03</rscale>
<asrwt>0</asrwt>
<pdfrwt beam="2">  1        2 0.10359812E+00 0.21594930E+03</pdfrwt>
<pdfrwt beam="1">  1       -2 0.11916475E-01 0.21594930E+03</pdfrwt>
<totfact> 0.21864291E+03</totfact>
</mgrwt>
</event>
<event>
 4    1  0.8130725E-001  0.1899253E+03  0.7546771E-02  0.1158529E+00
          2   -1    0    0  502    0  0.00000000000E+00  0.00000000000E+00  0.21304209785E+03  0.21304209785E+03  0.00000000000E+00 0.  1.
         -2   -1    0    0    0  501 -0.00000000000E+00 -0.00000000000E+00 -0.26491473868E+03  0.26491473868E+03  0.00000000000E+00 0. -1.
          6    1    1    2  502    0  0.61956760710E+02  0.47999948678E+02  0.11762239929E+03  0.22339799481E+03  0.17300000000E+03 0.  1.
         -6    1    1    2    0  501 -0.61956760710E+02 -0.47999948678E+02 -0.16949504012E+03  0.25455884172E+03  0.17300000000E+03 0.  1.
<mgrwt>
<rscale>  2 0.18992534E+03</rscale>
<asrwt>0</asrwt>
<pdfrwt beam="1">  1        2 0.32775707E-01 0.18992534E+03</pdfrwt>
<pdfrwt beam="2">  1       -2 0.40756114E-01 0.18992534E+03</pdfrwt>
<totfact> 0.90978844E+02</totfact>
</mgrwt>
</event>
<event>
 4    1  0.8130725E-001  0.2416759E+03  0.7546771E-02  0.1118681E+00
         -1   -1    0    0    0  501 -0.00000000000E+00  0.00000000000E+00  0.41421885085E+03  0.41421885085E+03  0.00000000000E+00 0.  1.
          1   -1    0    0  502    0  0.00000000000E+00 -0.00000000000E+00 -0.19679643481E+03  0.19679643481E+03  0.00000000000E+00 0. -1.
          6    1    1    2  502    0 -0.11876135822E+03  0.11989152604E+03 -0.53953870226E+02  0.24762523768E+03  0.17300000000E+03 0. -1.
         -6    1    1    2    0  501  0.11876135822E+03 -0.11989152604E+03  0.27137628627E+03  0.36339004798E+03  0.17300000000E+03 0.  1.
<mgrwt>
<rscale>  2 0.24167589E+03</rscale>
<asrwt>0</asrwt>
<pdfrwt beam="2">  1        1 0.30276375E-01 0.24167589E+03</pdfrwt>
<pdfrwt beam="1">  1       -1 0.63725977E-01 0.24167589E+03</pdfrwt>
<totfact> 0.38913806E+02</totfact>
</mgrwt>
</event>
<event>
 4    1  0.8130725E-001  0.2062838E+03  0.7546771E-02  0.1144543E+00
          2   -1    0    0  502    0  0.00000000000E+00  0.00000000000E+00  0.15118348664E+04  0.15118348664E+04  0.00000000000E+00 0.  1.
         -2   -1    0    0    0  501 -0.00000000000E+00 -0.00000000000E+00 -0.36639945016E+02  0.36639945016E+02  0.00000000000E+00 0. -1.
          6    1    1    2  502    0  0.22763342447E+02  0.11002645610E+03  0.36483130754E+03  0.41911200622E+03  0.17300000000E+03 0.  1.
         -6    1    1    2    0  501 -0.22763342447E+02 -0.11002645610E+03  0.11103636139E+04  0.11293628052E+04  0.17300000000E+03 0.  1.
<mgrwt>
<rscale>  2 0.20628376E+03</rscale>
<asrwt>0</asrwt>
<pdfrwt beam="1">  1        2 0.23258993E+00 0.20628376E+03</pdfrwt>
<pdfrwt beam="2">  1       -2 0.56369158E-02 0.20628376E+03</pdfrwt>
<totfact> 0.21931573E+03</totfact>
</mgrwt>
</event>
<event>
 4    1  0.8130725E-001  0.2449558E+03  0.7546771E-02  0.1116535E+00
          2   -1    0    0  502    0  0.00000000000E+00  0.00000000000E+00  0.11643794291E+04  0.11643794291E+04  0.00000000000E+00 0. -1.
         -2   -1    0    0    0  501 -0.00000000000E+00 -0.00000000000E+00 -0.55460781701E+02  0.55460781701E+02  0.00000000000E+00 0.  1.
          6    1    1    2  502    0 -0.14095158685E+03 -0.10102978272E+03  0.39213558658E+03  0.46235666438E+03  0.17300000000E+03 0.  1.
         -6    1    1    2    0  501  0.14095158685E+03  0.10102978272E+03  0.71678306086E+03  0.75748354647E+03  0.17300000000E+03 0. -1.
<mgrwt>
<rscale>  2 0.24495585E+03</rscale>
<asrwt>0</asrwt>
<pdfrwt beam="1">  1        2 0.17913528E+00 0.24495585E+03</pdfrwt>
<pdfrwt beam="2">  1       -2 0.85324288E-02 0.24495585E+03</pdfrwt>
<totfact> 0.17893480E+03</totfact>
</mgrwt>
</event>
<event>
 4    1  0.8130725E-001  0.3727471E+03  0.7546771E-02  0.1053647E+00
          1   -1    0    0  502    0  0.00000000000E+00  0.00000000000E+00  0.15908590041E+04  0.15908590041E+04  0.00000000000E+00 0.  1.
         -1   -1    0    0    0  501 -0.00000000000E+00 -0.00000000000E+00 -0.98132155375E+02  0.98132155375E+02  0.00000000000E+00 0. -1.
          6    1    1    2  502    0 -0.31614660530E+03 -0.95198496106E+02  0.10264623937E+04  0.10920464621E+04  0.17300000000E+03 0.  1.
         -6    1    1    2    0  501  0.31614660530E+03  0.95198496106E+02  0.46626445501E+03  0.59694469737E+03  0.17300000000E+03 0. -1.
<mgrwt>
<rscale>  2 0.37274714E+03</rscale>
<asrwt>0</asrwt>
<pdfrwt beam="1">  1        1 0.24474752E+00 0.37274714E+03</pdfrwt>
<pdfrwt beam="2">  1       -1 0.15097256E-01 0.37274714E+03</pdfrwt>
<totfact> 0.19579279E+02</totfact>
</mgrwt>
</event>
<event>
 4    1  0.8130725E-001  0.2138151E+03  0.7546771E-02  0.1138580E+00
          2   -1    0    0  502    0  0.00000000000E+00  0.00000000000E+00  0.84096466260E+03  0.84096466260E+03  0.00000000000E+00 0.  1.
         -2   -1    0    0    0  501 -0.00000000000E+00 -0.00000000000E+00 -0.42291475351E+03  0.42291475351E+03  0.00000000000E+00 0. -1.
          6    1    1    2  502    0  0.51272055539E+01  0.12554523232E+03  0.79895266460E+03  0.82706846988E+03  0.17300000000E+03 0.  1.
         -6    1    1    2    0  501 -0.51272055539E+01 -0.12554523232E+03 -0.38090275551E+03  0.43681094623E+03  0.17300000000E+03 0. -1.
<mgrwt>
<rscale>  2 0.21381509E+03</rscale>
<asrwt>0</asrwt>
<pdfrwt beam="1">  1        2 0.12937918E+00 0.21381509E+03</pdfrwt>
<pdfrwt beam="2">  1       -2 0.65063808E-01 0.21381509E+03</pdfrwt>
<totfact> 0.76117183E+01</totfact>
</mgrwt>
</event>
<event>
 4    1  0.8130725E-001  0.1932394E+03  0.7546771E-02  0.1155572E+00
          2   -1    0    0  502    0  0.00000000000E+00  0.00000000000E+00  0.21701290742E+04  0.21701290742E+04  0.00000000000E+00 0.  1.
         -2   -1    0    0    0  501 -0.00000000000E+00 -0.00000000000E+00 -0.19611503078E+02  0.19611503078E+02  0.00000000000E+00 0. -1.
          6    1    1    2  502    0 -0.23643929340E+02 -0.82785348013E+02  0.14586289461E+04  0.14713734576E+04  0.17300000000E+03 0.  1.
         -6    1    1    2    0  501  0.23643929340E+02  0.82785348013E+02  0.69188862498E+03  0.71836711967E+03  0.17300000000E+03 0. -1.
<mgrwt>
<rscale>  2 0.19323936E+03</rscale>
<asrwt>0</asrwt>
<pdfrwt beam="1">  1        2 0.33386582E+00 0.19323936E+03</pdfrwt>
<pdfrwt beam="2">  1       -2 0.30171560E-02 0.19323936E+03</pdfrwt>
<totfact> 0.25458944E+03</totfact>
</mgrwt>
</event>
<event>
 4    1  0.8130725E-001  0.2047346E+03  0.7546771E-02  0.1145805E+00
         -1   -1    0    0    0  501 -0.00000000000E+00  0.00000000000E+00  0.20798253090E+02  0.20798253090E+02  0.00000000000E+00 0. -1.
          1   -1    0    0  502    0  0.00000000000E+00 -0.00000000000E+00 -0.24411282849E+04  0.24411282849E+04  0.00000000000E+00 0.  1.
          6    1    1    2  502    0 -0.27640157706E+01  0.10945145817E+03 -0.69608676099E+03  0.72557083755E+03  0.17300000000E+03 0.  1.
         -6    1    1    2    0  501  0.27640157706E+01 -0.10945145817E+03 -0.17242432708E+04  0.17363557004E+04  0.17300000000E+03 0.  1.
<mgrwt>
<rscale>  2 0.20473461E+03</rscale>
<asrwt>0</asrwt>
<pdfrwt beam="2">  1        1 0.37555804E+00 0.20473461E+03</pdfrwt>
<pdfrwt beam="1">  1       -1 0.31997326E-02 0.20473461E+03</pdfrwt>
<totfact> 0.60122418E+02</totfact>
</mgrwt>
</event>
<event>
 4    1  0.8130725E-001  0.2213253E+03  0.7546771E-02  0.1132899E+00
          2   -1    0    0  502    0  0.00000000000E+00  0.00000000000E+00  0.23509744564E+04  0.23509744564E+04  0.00000000000E+00 0. -1.
         -2   -1    0    0    0  501 -0.00000000000E+00 -0.00000000000E+00 -0.24441186227E+02  0.24441186227E+02  0.00000000000E+00 0.  1.
          6    1    1    2  502    0  0.43160603326E+02 -0.13112219076E+03  0.16194225185E+04  0.16344767236E+04  0.17300000000E+03 0.  1.
         -6    1    1    2    0  501 -0.43160603326E+02  0.13112219076E+03  0.70711075170E+03  0.74093891905E+03  0.17300000000E+03 0. -1.
<mgrwt>
<rscale>  2 0.22132525E+03</rscale>
<asrwt>0</asrwt>
<pdfrwt beam="1">  1        2 0.36168820E+00 0.22132525E+03</pdfrwt>
<pdfrwt beam="2">  1       -2 0.37601843E-02 0.22132525E+03</pdfrwt>
<totfact> 0.14666880E+03</totfact>
</mgrwt>
</event>
<event>
 4    1  0.8130725E-001  0.2697743E+03  0.7546771E-02  0.1101409E+00
          2   -1    0    0  502    0  0.00000000000E+00  0.00000000000E+00  0.22570870111E+04  0.22570870111E+04  0.00000000000E+00 0.  1.
         -2   -1    0    0    0  501 -0.00000000000E+00 -0.00000000000E+00 -0.34133171484E+02  0.34133171484E+02  0.00000000000E+00 0. -1.
          6    1    1    2  502    0 -0.20692308587E+03  0.56593875073E+01  0.13809712557E+04  0.14070749096E+04  0.17300000000E+03 0. -1.
         -6    1    1    2    0  501  0.20692308587E+03 -0.56593875073E+01  0.84198258391E+03  0.88414527299E+03  0.17300000000E+03 0.  1.
<mgrwt>
<rscale>  2 0.26977434E+03</rscale>
<asrwt>0</asrwt>
<pdfrwt beam="1">  1        2 0.34724404E+00 0.26977434E+03</pdfrwt>
<pdfrwt beam="2">  1       -2 0.52512589E-02 0.26977434E+03</pdfrwt>
<totfact> 0.98625778E+02</totfact>
</mgrwt>
</event>
<event>
 4    1  0.8130725E-001  0.1786940E+03  0.7546771E-02  0.1169073E+00
         -1   -1    0    0    0  501 -0.00000000000E+00  0.00000000000E+00  0.16444444822E+03  0.16444444822E+03  0.00000000000E+00 0. -1.
          1   -1    0    0  502    0  0.00000000000E+00 -0.00000000000E+00 -0.19441033712E+03  0.19441033712E+03  0.00000000000E+00 0.  1.
          6    1    1    2  502    0  0.22511756716E+02 -0.38674992792E+02 -0.21182489620E+02  0.17994508086E+03  0.17300000000E+03 0.  1.
         -6    1    1    2    0  501 -0.22511756716E+02  0.38674992792E+02 -0.87833992805E+01  0.17890970449E+03  0.17300000000E+03 0.  1.
<mgrwt>
<rscale>  2 0.17869397E+03</rscale>
<asrwt>0</asrwt>
<pdfrwt beam="2">  1        1 0.29909282E-01 0.17869397E+03</pdfrwt>
<pdfrwt beam="1">  1       -1 0.25299146E-01 0.17869397E+03</pdfrwt>
<totfact> 0.20442573E+03</totfact>
</mgrwt>
</event>
<event>
 4    1  0.8130725E-001  0.1955347E+03  0.7546771E-02  0.1153562E+00
         -3   -1    0    0    0  501 -0.00000000000E+00  0.00000000000E+00  0.78112683981E+03  0.78112683981E+03  0.00000000000E+00 0.  1.
          3   -1    0    0  502    0  0.00000000000E+00 -0.00000000000E+00 -0.10567876207E+03  0.10567876207E+03  0.00000000000E+00 0. -1.
          6    1    1    2  502    0  0.48886964016E+02  0.76908187381E+02  0.66260013913E+03  0.69084929537E+03  0.17300000000E+03 0.  1.
         -6    1    1    2    0  501 -0.48886964016E+02 -0.76908187381E+02  0.12847938609E+02  0.19595630652E+03  0.17300000000E+03 0. -1.
<mgrwt>
<rscale>  2 0.19553466E+03</rscale>
<asrwt>0</asrwt>
<pdfrwt beam="2">  1        3 0.16258272E-01 0.19553466E+03</pdfrwt>
<pdfrwt beam="1">  1       -3 0.12017336E+00 0.19553466E+03</pdfrwt>
<totfact> 0.46393882E+01</totfact>
</mgrwt>
</event>
<event>
 4    1  0.8130725E-001  0.2718054E+03  0.7546771E-02  0.1100251E+00
         -2   -1    0    0    0  501 -0.00000000000E+00  0.00000000000E+00  0.33107198328E+02  0.33107198328E+02  0.00000000000E+00 0. -1.
          2   -1    0    0  502    0  0.00000000000E+00 -0.00000000000E+00 -0.23728871971E+04  0.23728871971E+04  0.00000000000E+00 0.  1.
          6    1    1    2  502    0 -0.14593488195E+03  0.15050648041E+03 -0.87622285778E+03  0.91741195049E+03  0.17300000000E+03 0.  1.
         -6    1    1    2    0  501  0.14593488195E+03 -0.15050648041E+03 -0.14635571410E+04  0.14885824449E+04  0.17300000000E+03 0. -1.
<mgrwt>
<rscale>  2 0.27180543E+03</rscale>
<asrwt>0</asrwt>
<pdfrwt beam="2">  1        2 0.36505966E+00 0.27180543E+03</pdfrwt>
<pdfrwt beam="1">  1       -2 0.50934139E-02 0.27180543E+03</pdfrwt>
<totfact> 0.89514687E+02</totfact>
</mgrwt>
</event>
<event>
 4    1  0.8130725E-001  0.1966512E+03  0.7546771E-02  0.1152596E+00
          3   -1    0    0  502    0  0.00000000000E+00  0.00000000000E+00  0.16422506881E+04  0.16422506881E+04  0.00000000000E+00 0.  1.
         -3   -1    0    0    0  501 -0.00000000000E+00 -0.00000000000E+00 -0.23560990783E+02  0.23560990783E+02  0.00000000000E+00 0. -1.
          6    1    1    2  502    0  0.10780123695E+02 -0.92878786272E+02  0.82892046331E+03  0.85192770498E+03  0.17300000000E+03 0. -1.
         -6    1    1    2    0  501 -0.10780123695E+02  0.92878786272E+02  0.78976923403E+03  0.81388397393E+03  0.17300000000E+03 0.  1.
<mgrwt>
<rscale>  2 0.19665116E+03</rscale>
<asrwt>0</asrwt>
<pdfrwt beam="1">  1        3 0.25265386E+00 0.19665116E+03</pdfrwt>
<pdfrwt beam="2">  1       -3 0.36247691E-02 0.19665116E+03</pdfrwt>
<totfact> 0.74735506E+01</totfact>
</mgrwt>
</event>
<event>
 4    1  0.8130725E-001  0.2127167E+03  0.7546771E-02  0.1139433E+00
         -2   -1    0    0    0  501 -0.00000000000E+00  0.00000000000E+00  0.31282442698E+02  0.31282442698E+02  0.00000000000E+00 0. -1.
          2   -1    0    0  502    0  0.00000000000E+00 -0.00000000000E+00 -0.15215608783E+04  0.15215608783E+04  0.00000000000E+00 0.  1.
          6    1    1    2  502    0 -0.39436467190E+02 -0.11732068720E+03 -0.57262908001E+03  0.61086204814E+03  0.17300000000E+03 0. -1.
         -6    1    1    2    0  501  0.39436467190E+02  0.11732068720E+03 -0.91764935558E+03  0.94198127284E+03  0.17300000000E+03 0.  1.
<mgrwt>
<rscale>  2 0.21271666E+03</rscale>
<asrwt>0</asrwt>
<pdfrwt beam="2">  1        2 0.23408627E+00 0.21271666E+03</pdfrwt>
<pdfrwt beam="1">  1       -2 0.48126839E-02 0.21271666E+03</pdfrwt>
<totfact> 0.27562232E+03</totfact>
</mgrwt>
</event>
<event>
 4    1  0.8130725E-001  0.2193000E+03  0.7546771E-02  0.1134406E+00
          1   -1    0    0  502    0  0.00000000000E+00  0.00000000000E+00  0.61355321144E+03  0.61355321144E+03  0.00000000000E+00 0.  1.
         -1   -1    0    0    0  501 -0.00000000000E+00 -0.00000000000E+00 -0.93958706184E+02  0.93958706184E+02  0.00000000000E+00 0. -1.
          6    1    1    2  502    0  0.91318115621E+02 -0.99118607631E+02  0.40382661928E+03  0.45953066825E+03  0.17300000000E+03 0.  1.
         -6    1    1    2    0  501 -0.91318115621E+02  0.99118607631E+02  0.11576788597E+03  0.24798124938E+03  0.17300000000E+03 0. -1.
<mgrwt>
<rscale>  2 0.21930002E+03</rscale>
<asrwt>0</asrwt>
<pdfrwt beam="1">  1        1 0.94392799E-01 0.21930002E+03</pdfrwt>
<pdfrwt beam="2">  1       -1 0.14455186E-01 0.21930002E+03</pdfrwt>
<totfact> 0.11624015E+03</totfact>
</mgrwt>
</event>
<event>
 4    1  0.8130725E-001  0.5943228E+03  0.7546771E-02  0.9917255E-01
         -2   -1    0    0    0  501 -0.00000000000E+00  0.00000000000E+00  0.13079677776E+03  0.13079677776E+03  0.00000000000E+00 0.  1.
          2   -1    0    0  502    0  0.00000000000E+00 -0.00000000000E+00 -0.27007995729E+04  0.27007995729E+04  0.00000000000E+00 0. -1.
          6    1    1    2  502    0  0.26916029946E+03 -0.50084266368E+03 -0.12706611590E+04  0.14027827421E+04  0.17300000000E+03 0. -1.
         -6    1    1    2    0  501 -0.26916029946E+03  0.50084266368E+03 -0.12993416361E+04  0.14288136085E+04  0.17300000000E+03 0.  1.
<mgrwt>
<rscale>  2 0.59432284E+03</rscale>
<asrwt>0</asrwt>
<pdfrwt beam="2">  1        2 0.41550763E+00 0.59432284E+03</pdfrwt>
<pdfrwt beam="1">  1       -2 0.20122581E-01 0.59432284E+03</pdfrwt>
<totfact> 0.59947308E+01</totfact>
</mgrwt>
</event>
<event>
 4    1  0.8130725E-001  0.2257095E+03  0.7546771E-02  0.1129697E+00
         -2   -1    0    0    0  501 -0.00000000000E+00  0.00000000000E+00  0.18837415830E+03  0.18837415830E+03  0.00000000000E+00 0. -1.
          2   -1    0    0  502    0  0.00000000000E+00 -0.00000000000E+00 -0.28358090158E+03  0.28358090158E+03  0.00000000000E+00 0.  1.
          6    1    1    2  502    0  0.12090790751E+03 -0.79981460065E+02  0.31857008632E+01  0.22573193116E+03  0.17300000000E+03 0. -1.
         -6    1    1    2    0  501 -0.12090790751E+03  0.79981460065E+02 -0.98392444145E+02  0.24622312872E+03  0.17300000000E+03 0.  1.
<mgrwt>
<rscale>  2 0.22570945E+03</rscale>
<asrwt>0</asrwt>
<pdfrwt beam="2">  1        2 0.43627831E-01 0.22570945E+03</pdfrwt>
<pdfrwt beam="1">  1       -2 0.28980640E-01 0.22570945E+03</pdfrwt>
<totfact> 0.12621564E+03</totfact>
</mgrwt>
</event>
<event>
 4    1  0.8130725E-001  0.2029869E+03  0.7546771E-02  0.1147243E+00
         -1   -1    0    0    0  501 -0.00000000000E+00  0.00000000000E+00  0.45346801116E+02  0.45346801116E+02  0.00000000000E+00 0. -1.
          1   -1    0    0  502    0  0.00000000000E+00 -0.00000000000E+00 -0.92184834713E+03  0.92184834713E+03  0.00000000000E+00 0.  1.
          6    1    1    2  502    0  0.53805623876E+02 -0.91540323144E+02 -0.38035243113E+03  0.43112834260E+03  0.17300000000E+03 0. -1.
         -6    1    1    2    0  501 -0.53805623876E+02  0.91540323144E+02 -0.49614911488E+03  0.53606680565E+03  0.17300000000E+03 0. -1.
<mgrwt>
<rscale>  2 0.20298689E+03</rscale>
<asrwt>0</asrwt>
<pdfrwt beam="2">  1        1 0.14182283E+00 0.20298689E+03</pdfrwt>
<pdfrwt beam="1">  1       -1 0.69764305E-02 0.20298689E+03</pdfrwt>
<totfact> 0.19433770E+03</totfact>
</mgrwt>
</event>
<event>
 4    1  0.8130725E-001  0.2357835E+03  0.7546771E-02  0.1122634E+00
          2   -1    0    0  502    0  0.00000000000E+00  0.00000000000E+00  0.22230092362E+04  0.22230092362E+04  0.00000000000E+00 0. -1.
         -2   -1    0    0    0  501 -0.00000000000E+00 -0.00000000000E+00 -0.26057105944E+02  0.26057105944E+02  0.00000000000E+00 0.  1.
          6    1    1    2  502    0 -0.64722779433E+01  0.16007182094E+03  0.87287639404E+03  0.90416097987E+03  0.17300000000E+03 0. -1.
         -6    1    1    2    0  501  0.64722779433E+01 -0.16007182094E+03  0.13240757362E+04  0.13449053623E+04  0.17300000000E+03 0. -1.
<mgrwt>
<rscale>  2 0.23578354E+03</rscale>
<asrwt>0</asrwt>
<pdfrwt beam="1">  1        2 0.34200127E+00 0.23578354E+03</pdfrwt>
<pdfrwt beam="2">  1       -2 0.40087873E-02 0.23578354E+03</pdfrwt>
<totfact> 0.15557428E+03</totfact>
</mgrwt>
</event>
<event>
 4    1  0.8130725E-001  0.2026856E+03  0.7546771E-02  0.1147493E+00
         -1   -1    0    0    0  501 -0.00000000000E+00  0.00000000000E+00  0.26292987556E+02  0.26292987556E+02  0.00000000000E+00 0.  1.
          1   -1    0    0  502    0  0.00000000000E+00 -0.00000000000E+00 -0.15639373760E+04  0.15639373760E+04  0.00000000000E+00 0. -1.
          6    1    1    2  502    0  0.80187841875E+02 -0.68719343630E+02 -0.74428900363E+03  0.77139325839E+03  0.17300000000E+03 0.  1.
         -6    1    1    2    0  501 -0.80187841875E+02  0.68719343630E+02 -0.79335538478E+03  0.81883710512E+03  0.17300000000E+03 0.  1.
<mgrwt>
<rscale>  2 0.20268556E+03</rscale>
<asrwt>0</asrwt>
<pdfrwt beam="2">  1        1 0.24060584E+00 0.20268556E+03</pdfrwt>
<pdfrwt beam="1">  1       -1 0.40450735E-02 0.20268556E+03</pdfrwt>
<totfact> 0.15734739E+03</totfact>
</mgrwt>
</event>
<event>
 4    1  0.8130725E-001  0.1957560E+03  0.7546771E-02  0.1153370E+00
          2   -1    0    0  502    0  0.00000000000E+00  0.00000000000E+00  0.49817179667E+03  0.49817179667E+03  0.00000000000E+00 0.  1.
         -2   -1    0    0    0  501 -0.00000000000E+00 -0.00000000000E+00 -0.78366440655E+02  0.78366440655E+02  0.00000000000E+00 0. -1.
          6    1    1    2  502    0 -0.57464281558E+02  0.71339213312E+02  0.24903773684E+03  0.31676524649E+03  0.17300000000E+03 0.  1.
         -6    1    1    2    0  501  0.57464281558E+02 -0.71339213312E+02  0.17076761917E+03  0.25977299084E+03  0.17300000000E+03 0. -1.
<mgrwt>
<rscale>  2 0.19575604E+03</rscale>
<asrwt>0</asrwt>
<pdfrwt beam="1">  1        2 0.76641813E-01 0.19575604E+03</pdfrwt>
<pdfrwt beam="2">  1       -2 0.12056376E-01 0.19575604E+03</pdfrwt>
<totfact> 0.30260840E+03</totfact>
</mgrwt>
</event>
<event>
 4    1  0.8130725E-001  0.2646213E+03  0.7546771E-02  0.1104398E+00
         -1   -1    0    0    0  501 -0.00000000000E+00  0.00000000000E+00  0.97530235264E+03  0.97530235264E+03  0.00000000000E+00 0.  1.
          1   -1    0    0  502    0  0.00000000000E+00 -0.00000000000E+00 -0.72201781816E+02  0.72201781816E+02  0.00000000000E+00 0. -1.
          6    1    1    2  502    0  0.11476017214E+03 -0.16408995071E+03  0.49073508951E+03  0.55753505460E+03  0.17300000000E+03 0. -1.
         -6    1    1    2    0  501 -0.11476017214E+03  0.16408995071E+03  0.41236548132E+03  0.48996907986E+03  0.17300000000E+03 0.  1.
<mgrwt>
<rscale>  2 0.26462126E+03</rscale>
<asrwt>0</asrwt>
<pdfrwt beam="2">  1        1 0.11107967E-01 0.26462126E+03</pdfrwt>
<pdfrwt beam="1">  1       -1 0.15004651E+00 0.26462126E+03</pdfrwt>
<totfact> 0.21079302E+02</totfact>
</mgrwt>
</event>
<event>
 4    1  0.8130725E-001  0.1782461E+03  0.7546771E-02  0.1169511E+00
         -3   -1    0    0    0  501 -0.00000000000E+00  0.00000000000E+00  0.15981461757E+03  0.15981461757E+03  0.00000000000E+00 0. -1.
          3   -1    0    0  502    0  0.00000000000E+00 -0.00000000000E+00 -0.22885740104E+03  0.22885740104E+03  0.00000000000E+00 0.  1.
          6    1    1    2  502    0  0.19069166209E+02  0.38458208929E+02  0.35902976730E+02  0.18182599009E+03  0.17300000000E+03 0. -1.
         -6    1    1    2    0  501 -0.19069166209E+02 -0.38458208929E+02 -0.10494576020E+03  0.20684602853E+03  0.17300000000E+03 0. -1.
<mgrwt>
<rscale>  2 0.17824609E+03</rscale>
<asrwt>0</asrwt>
<pdfrwt beam="2">  1        3 0.35208831E-01 0.17824609E+03</pdfrwt>
<pdfrwt beam="1">  1       -3 0.24586864E-01 0.17824609E+03</pdfrwt>
<totfact> 0.29631052E+02</totfact>
</mgrwt>
</event>
<event>
 4    1  0.8130725E-001  0.2282823E+03  0.7546771E-02  0.1127855E+00
          2   -1    0    0  502    0  0.00000000000E+00  0.00000000000E+00  0.22985680973E+04  0.22985680973E+04  0.00000000000E+00 0. -1.
         -2   -1    0    0    0  501 -0.00000000000E+00 -0.00000000000E+00 -0.22674227653E+02  0.22674227653E+02  0.00000000000E+00 0.  1.
          6    1    1    2  502    0 -0.37976393426E+02  0.14401948834E+03  0.11260928367E+04  0.11489986494E+04  0.17300000000E+03 0. -1.
         -6    1    1    2    0  501  0.37976393426E+02 -0.14401948834E+03  0.11498010329E+04  0.11722436755E+04  0.17300000000E+03 0.  1.
<mgrwt>
<rscale>  2 0.22828232E+03</rscale>
<asrwt>0</asrwt>
<pdfrwt beam="1">  1        2 0.35362568E+00 0.22828232E+03</pdfrwt>
<pdfrwt beam="2">  1       -2 0.34883445E-02 0.22828232E+03</pdfrwt>
<totfact> 0.17489737E+03</totfact>
</mgrwt>
</event>
<event>
 4    1  0.8130725E-001  0.1924854E+03  0.7546771E-02  0.1156239E+00
          2   -1    0    0  502    0  0.00000000000E+00  0.00000000000E+00  0.49742552716E+02  0.49742552716E+02  0.00000000000E+00 0.  1.
         -2   -1    0    0    0  501 -0.00000000000E+00 -0.00000000000E+00 -0.76511162789E+03  0.76511162789E+03  0.00000000000E+00 0. -1.
          6    1    1    2  502    0  0.37290372153E+02 -0.75703845822E+02 -0.29137967063E+03  0.34921734863E+03  0.17300000000E+03 0.  1.
         -6    1    1    2    0  501 -0.37290372153E+02  0.75703845822E+02 -0.42398940454E+03  0.46563683197E+03  0.17300000000E+03 0. -1.
<mgrwt>
<rscale>  2 0.19248544E+03</rscale>
<asrwt>0</asrwt>
<pdfrwt beam="1">  1        2 0.76527010E-02 0.19248544E+03</pdfrwt>
<pdfrwt beam="2">  1       -2 0.11770947E+00 0.19248544E+03</pdfrwt>
<totfact> 0.51993776E+02</totfact>
</mgrwt>
</event>
<event>
 4    1  0.8130725E-001  0.1737498E+03  0.7546771E-02  0.1173993E+00
         -1   -1    0    0    0  501 -0.00000000000E+00  0.00000000000E+00  0.45460463793E+02  0.45460463793E+02  0.00000000000E+00 0. -1.
          1   -1    0    0  502    0  0.00000000000E+00 -0.00000000000E+00 -0.66407463794E+03  0.66407463794E+03  0.00000000000E+00 0.  1.
          6    1    1    2  502    0  0.68437289132E+01 -0.14600287696E+02 -0.30855407865E+03  0.35411103411E+03  0.17300000000E+03 0. -1.
         -6    1    1    2    0  501 -0.68437289132E+01  0.14600287696E+02 -0.31006009549E+03  0.35542406762E+03  0.17300000000E+03 0. -1.
<mgrwt>
<rscale>  2 0.17374983E+03</rscale>
<asrwt>0</asrwt>
<pdfrwt beam="2">  1        1 0.10216533E+00 0.17374983E+03</pdfrwt>
<pdfrwt beam="1">  1       -1 0.69939171E-02 0.17374983E+03</pdfrwt>
<totfact> 0.31724944E+03</totfact>
</mgrwt>
</event>
<event>
 4    1  0.8130725E-001  0.2518185E+03  0.7546771E-02  0.1112161E+00
         -2   -1    0    0    0  501 -0.00000000000E+00  0.00000000000E+00  0.74799481339E+03  0.74799481339E+03  0.00000000000E+00 0.  1.
          2   -1    0    0  502    0  0.00000000000E+00 -0.00000000000E+00 -0.13078689318E+03  0.13078689318E+03  0.00000000000E+00 0. -1.
          6    1    1    2  502    0 -0.14648143385E+03  0.10966659065E+03  0.56921672180E+03  0.62243091821E+03  0.17300000000E+03 0.  1.
         -6    1    1    2    0  501  0.14648143385E+03 -0.10966659065E+03  0.47991198404E+02  0.25635078836E+03  0.17300000000E+03 0. -1.
<mgrwt>
<rscale>  2 0.25181853E+03</rscale>
<asrwt>0</asrwt>
<pdfrwt beam="2">  1        2 0.20121061E-01 0.25181853E+03</pdfrwt>
<pdfrwt beam="1">  1       -2 0.11507612E+00 0.25181853E+03</pdfrwt>
<totfact> 0.17029591E+02</totfact>
</mgrwt>
</event>
<event>
 4    1  0.8130725E-001  0.7289453E+03  0.7546771E-02  0.9668973E-01
         -2   -1    0    0    0  501 -0.00000000000E+00  0.00000000000E+00  0.44638373580E+03  0.44638373580E+03  0.00000000000E+00 0.  1.
          2   -1    0    0  502    0  0.00000000000E+00 -0.00000000000E+00 -0.13344037566E+04  0.13344037566E+04  0.00000000000E+00 0. -1.
          6    1    1    2  502    0  0.54012366520E+03  0.45792868291E+03 -0.15147860861E+03  0.74451797910E+03  0.17300000000E+03 0. -1.
         -6    1    1    2    0  501 -0.54012366520E+03 -0.45792868291E+03 -0.73654141223E+03  0.10362695133E+04  0.17300000000E+03 0.  1.
<mgrwt>
<rscale>  2 0.72894530E+03</rscale>
<asrwt>0</asrwt>
<pdfrwt beam="2">  1        2 0.20529289E+00 0.72894530E+03</pdfrwt>
<pdfrwt beam="1">  1       -2 0.68674421E-01 0.72894530E+03</pdfrwt>
<totfact> 0.31297240E+01</totfact>
</mgrwt>
</event>
<event>
 4    1  0.8130725E-001  0.2002819E+03  0.7546771E-02  0.1149501E+00
          1   -1    0    0  502    0  0.00000000000E+00  0.00000000000E+00  0.17535964829E+03  0.17535964829E+03  0.00000000000E+00 0.  1.
         -1   -1    0    0    0  501 -0.00000000000E+00 -0.00000000000E+00 -0.30389810065E+03  0.30389810065E+03  0.00000000000E+00 0. -1.
          6    1    1    2  502    0 -0.67762356759E+02 -0.74780263927E+02 -0.18343337244E+03  0.27158907745E+03  0.17300000000E+03 0.  1.
         -6    1    1    2    0  501  0.67762356759E+02  0.74780263927E+02  0.54894920089E+02  0.20766867149E+03  0.17300000000E+03 0.  1.
<mgrwt>
<rscale>  2 0.20028186E+03</rscale>
<asrwt>0</asrwt>
<pdfrwt beam="1">  1        1 0.26978407E-01 0.20028186E+03</pdfrwt>
<pdfrwt beam="2">  1       -1 0.46753554E-01 0.20028186E+03</pdfrwt>
<totfact> 0.80654703E+02</totfact>
</mgrwt>
</event>
<event>
 4    1  0.8130725E-001  0.2114183E+03  0.7546771E-02  0.1140448E+00
         -1   -1    0    0    0  501 -0.00000000000E+00  0.00000000000E+00  0.37494722879E+02  0.37494722879E+02  0.00000000000E+00 0. -1.
          1   -1    0    0  502    0  0.00000000000E+00 -0.00000000000E+00 -0.11938185565E+04  0.11938185565E+04  0.00000000000E+00 0.  1.
          6    1    1    2  502    0  0.58701456849E+02  0.10640880484E+03 -0.60147800878E+03  0.63755273494E+03  0.17300000000E+03 0.  1.
         -6    1    1    2    0  501 -0.58701456849E+02 -0.10640880484E+03 -0.55484582480E+03  0.59376054440E+03  0.17300000000E+03 0. -1.
<mgrwt>
<rscale>  2 0.21141829E+03</rscale>
<asrwt>0</asrwt>
<pdfrwt beam="2">  1        1 0.18366442E+00 0.21141829E+03</pdfrwt>
<pdfrwt beam="1">  1       -1 0.57684180E-02 0.21141829E+03</pdfrwt>
<totfact> 0.16405818E+03</totfact>
</mgrwt>
</event>
<event>
 4    1  0.8130725E-001  0.2318561E+03  0.7546771E-02  0.1125340E+00
         -1   -1    0    0    0  501 -0.00000000000E+00  0.00000000000E+00  0.39371098006E+03  0.39371098006E+03  0.00000000000E+00 0.  1.
          1   -1    0    0  502    0  0.00000000000E+00 -0.00000000000E+00 -0.14762392299E+03  0.14762392299E+03  0.00000000000E+00 0. -1.
          6    1    1    2  502    0  0.13841683708E+03  0.68330367043E+02  0.19720977023E+03  0.30438290576E+03  0.17300000000E+03 0.  1.
         -6    1    1    2    0  501 -0.13841683708E+03 -0.68330367043E+02  0.48877286845E+02  0.23695199728E+03  0.17300000000E+03 0. -1.
<mgrwt>
<rscale>  2 0.23185612E+03</rscale>
<asrwt>0</asrwt>
<pdfrwt beam="2">  1        1 0.22711373E-01 0.23185612E+03</pdfrwt>
<pdfrwt beam="1">  1       -1 0.60570919E-01 0.23185612E+03</pdfrwt>
<totfact> 0.61914139E+02</totfact>
</mgrwt>
</event>
<event>
 4    1  0.8130725E-001  0.2153696E+03  0.7546771E-02  0.1137383E+00
          2   -1    0    0  502    0  0.00000000000E+00  0.00000000000E+00  0.11407753205E+04  0.11407753205E+04  0.00000000000E+00 0. -1.
         -2   -1    0    0    0  501 -0.00000000000E+00 -0.00000000000E+00 -0.40671798618E+02  0.40671798618E+02  0.00000000000E+00 0.  1.
          6    1    1    2  502    0 -0.17916002657E+02  0.12701998486E+03  0.54004113147E+03  0.58140217008E+03  0.17300000000E+03 0. -1.
         -6    1    1    2    0  501  0.17916002657E+02 -0.12701998486E+03  0.56006239042E+03  0.60004494904E+03  0.17300000000E+03 0.  1.
<mgrwt>
<rscale>  2 0.21536959E+03</rscale>
<asrwt>0</asrwt>
<pdfrwt beam="1">  1        2 0.17550387E+00 0.21536959E+03</pdfrwt>
<pdfrwt beam="2">  1       -2 0.62572007E-02 0.21536959E+03</pdfrwt>
<totfact> 0.29870835E+03</totfact>
</mgrwt>
</event>
<event>
 4    1  0.8130725E-001  0.1965781E+03  0.7546771E-02  0.1152659E+00
         -2   -1    0    0    0  501 -0.00000000000E+00  0.00000000000E+00  0.51160097294E+03  0.51160097294E+03  0.00000000000E+00 0. -1.
          2   -1    0    0  502    0  0.00000000000E+00 -0.00000000000E+00 -0.11697501610E+03  0.11697501610E+03  0.00000000000E+00 0.  1.
          6    1    1    2  502    0  0.84943776990E+02  0.38710278752E+02  0.10244814443E+02  0.19684483014E+03  0.17300000000E+03 0.  1.
         -6    1    1    2    0  501 -0.84943776990E+02 -0.38710278752E+02  0.38438114240E+03  0.43173115889E+03  0.17300000000E+03 0. -1.
<mgrwt>
<rscale>  2 0.19657805E+03</rscale>
<asrwt>0</asrwt>
<pdfrwt beam="2">  1        2 0.17996157E-01 0.19657805E+03</pdfrwt>
<pdfrwt beam="1">  1       -2 0.78707840E-01 0.19657805E+03</pdfrwt>
<totfact> 0.46318322E+02</totfact>
</mgrwt>
</event>
<event>
 4    1  0.8130725E-001  0.2443460E+03  0.7546771E-02  0.1116931E+00
         -2   -1    0    0    0  501 -0.00000000000E+00  0.00000000000E+00  0.45858131984E+02  0.45858131984E+02  0.00000000000E+00 0.  1.
          2   -1    0    0  502    0  0.00000000000E+00 -0.00000000000E+00 -0.13168238765E+04  0.13168238765E+04  0.00000000000E+00 0. -1.
          6    1    1    2  502    0 -0.39296881689E+02 -0.16802303825E+03 -0.56307004290E+03  0.61380197092E+03  0.17300000000E+03 0.  1.
         -6    1    1    2    0  501  0.39296881689E+02  0.16802303825E+03 -0.70789570156E+03  0.74888003751E+03  0.17300000000E+03 0. -1.
<mgrwt>
<rscale>  2 0.24434604E+03</rscale>
<asrwt>0</asrwt>
<pdfrwt beam="2">  1        2 0.20258828E+00 0.24434604E+03</pdfrwt>
<pdfrwt beam="1">  1       -2 0.70550975E-02 0.24434604E+03</pdfrwt>
<totfact> 0.19774433E+03</totfact>
</mgrwt>
</event>
<event>
 4    1  0.8130725E-001  0.1923563E+03  0.7546771E-02  0.1156353E+00
         -4   -1    0    0    0  501 -0.00000000000E+00  0.00000000000E+00  0.58567016827E+02  0.58567016827E+02  0.00000000000E+00 0. -1.
          4   -1    0    0  502    0  0.00000000000E+00 -0.00000000000E+00 -0.71536038511E+03  0.71536038511E+03  0.00000000000E+00 0.  1.
          6    1    1    2  502    0 -0.55780218256E+02  0.62932685676E+02 -0.19612015872E+03  0.27470724842E+03  0.17300000000E+03 0. -1.
         -6    1    1    2    0  501  0.55780218256E+02 -0.62932685676E+02 -0.46067320956E+03  0.49922015352E+03  0.17300000000E+03 0. -1.
<mgrwt>
<rscale>  2 0.19235632E+03</rscale>
<asrwt>0</asrwt>
<pdfrwt beam="2">  1        4 0.11005544E+00 0.19235632E+03</pdfrwt>
<pdfrwt beam="1">  1       -4 0.90103105E-02 0.19235632E+03</pdfrwt>
<totfact> 0.10918235E+02</totfact>
</mgrwt>
</event>
<event>
 4    1  0.8130725E-001  0.1883951E+03  0.7546771E-02  0.1159917E+00
         -2   -1    0    0    0  501 -0.00000000000E+00  0.00000000000E+00  0.69020640183E+02  0.69020640183E+02  0.00000000000E+00 0. -1.
          2   -1    0    0  502    0  0.00000000000E+00 -0.00000000000E+00 -0.57793382087E+03  0.57793382087E+03  0.00000000000E+00 0.  1.
          6    1    1    2  502    0 -0.68595430802E+02 -0.29298259045E+02 -0.14706366276E+03  0.23899883266E+03  0.17300000000E+03 0. -1.
         -6    1    1    2    0  501  0.68595430802E+02  0.29298259045E+02 -0.36184951793E+03  0.40795562840E+03  0.17300000000E+03 0.  1.
<mgrwt>
<rscale>  2 0.18839512E+03</rscale>
<asrwt>0</asrwt>
<pdfrwt beam="2">  1        2 0.88912896E-01 0.18839512E+03</pdfrwt>
<pdfrwt beam="1">  1       -2 0.10618560E-01 0.18839512E+03</pdfrwt>
<totfact> 0.31332122E+03</totfact>
</mgrwt>
</event>
<event>
 4    1  0.8130725E-001  0.1730915E+03  0.7546771E-02  0.1174662E+00
          1   -1    0    0  502    0  0.00000000000E+00  0.00000000000E+00  0.14372121930E+03  0.14372121930E+03  0.00000000000E+00 0. -1.
         -1   -1    0    0    0  501 -0.00000000000E+00 -0.00000000000E+00 -0.29972143553E+03  0.29972143553E+03  0.00000000000E+00 0.  1.
          6    1    1    2  502    0  0.54575071918E+01  0.13775949265E+01 -0.20034419894E+03  0.26476117578E+03  0.17300000000E+03 0.  1.
         -6    1    1    2    0  501 -0.54575071918E+01 -0.13775949265E+01  0.44343982710E+02  0.17868147905E+03  0.17300000000E+03 0. -1.
<mgrwt>
<rscale>  2 0.17309154E+03</rscale>
<asrwt>0</asrwt>
<pdfrwt beam="1">  1        1 0.22110957E-01 0.17309154E+03</pdfrwt>
<pdfrwt beam="2">  1       -1 0.46110990E-01 0.17309154E+03</pdfrwt>
<totfact> 0.10622312E+03</totfact>
</mgrwt>
</event>
<event>
 4    1  0.8130725E-001  0.3148680E+03  0.7546771E-02  0.1078036E+00
         -2   -1    0    0    0  501 -0.00000000000E+00  0.00000000000E+00  0.10640756029E+03  0.10640756029E+03  0.00000000000E+00 0.  1.
          2   -1    0    0  502    0  0.00000000000E+00 -0.00000000000E+00 -0.93959873967E+03  0.93959873967E+03  0.00000000000E+00 0. -1.
          6    1    1    2  502    0  0.18831075465E+03  0.18371692710E+03 -0.46449320586E+03  0.56115576083E+03  0.17300000000E+03 0. -1.
         -6    1    1    2    0  501 -0.18831075465E+03 -0.18371692710E+03 -0.36869797352E+03  0.48485053913E+03  0.17300000000E+03 0.  1.
<mgrwt>
<rscale>  2 0.31486799E+03</rscale>
<asrwt>0</asrwt>
<pdfrwt beam="2">  1        2 0.14455366E+00 0.31486799E+03</pdfrwt>
<pdfrwt beam="1">  1       -2 0.16370393E-01 0.31486799E+03</pdfrwt>
<totfact> 0.84777156E+02</totfact>
</mgrwt>
</event>
<event>
 4    1  0.8130725E-001  0.1891806E+03  0.7546771E-02  0.1159202E+00
          2   -1    0    0  502    0  0.00000000000E+00  0.00000000000E+00  0.26001136090E+03  0.26001136090E+03  0.00000000000E+00 0. -1.
         -2   -1    0    0    0  501 -0.00000000000E+00 -0.00000000000E+00 -0.13835833551E+03  0.13835833551E+03  0.00000000000E+00 0.  1.
          6    1    1    2  502    0  0.24455789650E+02 -0.72541219660E+02  0.46526332425E+02  0.19481789909E+03  0.17300000000E+03 0.  1.
         -6    1    1    2    0  501 -0.24455789650E+02  0.72541219660E+02  0.75126692960E+02  0.20355179732E+03  0.17300000000E+03 0. -1.
<mgrwt>
<rscale>  2 0.18918064E+03</rscale>
<asrwt>0</asrwt>
<pdfrwt beam="1">  1        2 0.40001748E-01 0.18918064E+03</pdfrwt>
<pdfrwt beam="2">  1       -2 0.21285898E-01 0.18918064E+03</pdfrwt>
<totfact> 0.23745201E+03</totfact>
</mgrwt>
</event>
<event>
 4    1  0.8130725E-001  0.1814049E+03  0.7546771E-02  0.1166450E+00
         -2   -1    0    0    0  501 -0.00000000000E+00  0.00000000000E+00  0.14230961780E+03  0.14230961780E+03  0.00000000000E+00 0.  1.
          2   -1    0    0  502    0  0.00000000000E+00 -0.00000000000E+00 -0.26758778466E+03  0.26758778466E+03  0.00000000000E+00 0. -1.
          6    1    1    2  502    0  0.91670408361E-01 -0.54577633963E+02 -0.13817419607E+03  0.22803472322E+03  0.17300000000E+03 0. -1.
         -6    1    1    2    0  501 -0.91670408361E-01  0.54577633963E+02  0.12896029204E+02  0.18186267924E+03  0.17300000000E+03 0.  1.
<mgrwt>
<rscale>  2 0.18140487E+03</rscale>
<asrwt>0</asrwt>
<pdfrwt beam="2">  1        2 0.41167351E-01 0.18140487E+03</pdfrwt>
<pdfrwt beam="1">  1       -2 0.21893788E-01 0.18140487E+03</pdfrwt>
<totfact> 0.21902849E+03</totfact>
</mgrwt>
</event>
<event>
 4    1  0.8130725E-001  0.1969769E+03  0.7546771E-02  0.1152315E+00
         -1   -1    0    0    0  501 -0.00000000000E+00  0.00000000000E+00  0.56864507010E+02  0.56864507010E+02  0.00000000000E+00 0. -1.
          1   -1    0    0  502    0  0.00000000000E+00 -0.00000000000E+00 -0.91450844738E+03  0.91450844738E+03  0.00000000000E+00 0.  1.
          6    1    1    2  502    0  0.89104791363E+02 -0.30516164114E+02 -0.67354827384E+03  0.70176005679E+03  0.17300000000E+03 0.  1.
         -6    1    1    2    0  501 -0.89104791363E+02  0.30516164114E+02 -0.18409566653E+03  0.26961289760E+03  0.17300000000E+03 0. -1.
<mgrwt>
<rscale>  2 0.19697690E+03</rscale>
<asrwt>0</asrwt>
<pdfrwt beam="2">  1        1 0.14069361E+00 0.19697690E+03</pdfrwt>
<pdfrwt beam="1">  1       -1 0.87483855E-02 0.19697690E+03</pdfrwt>
<totfact> 0.13950256E+03</totfact>
</mgrwt>
</event>
<event>
 4    1  0.8130725E-001  0.2282943E+03  0.7546771E-02  0.1127846E+00
          2   -1    0    0  502    0  0.00000000000E+00  0.00000000000E+00  0.19406559963E+04  0.19406559963E+04  0.00000000000E+00 0.  1.
         -2   -1    0    0    0  501 -0.00000000000E+00 -0.00000000000E+00 -0.26864886689E+02  0.26864886689E+02  0.00000000000E+00 0. -1.
          6    1    1    2  502    0  0.80806069028E+02 -0.12513861501E+03  0.97476903215E+03  0.10011458234E+04  0.17300000000E+03 0. -1.
         -6    1    1    2    0  501 -0.80806069028E+02  0.12513861501E+03  0.93902207750E+03  0.96637505958E+03  0.17300000000E+03 0. -1.
<mgrwt>
<rscale>  2 0.22829431E+03</rscale>
<asrwt>0</asrwt>
<pdfrwt beam="1">  1        2 0.29856235E+00 0.22829431E+03</pdfrwt>
<pdfrwt beam="2">  1       -2 0.41330610E-02 0.22829431E+03</pdfrwt>
<totfact> 0.20923423E+03</totfact>
</mgrwt>
</event>
<event>
 4    1  0.8130725E-001  0.1763392E+03  0.7546771E-02  0.1171394E+00
         -1   -1    0    0    0  501 -0.00000000000E+00  0.00000000000E+00  0.12617599874E+03  0.12617599874E+03  0.00000000000E+00 0.  1.
          1   -1    0    0  502    0  0.00000000000E+00 -0.00000000000E+00 -0.27340388935E+03  0.27340388935E+03  0.00000000000E+00 0. -1.
          6    1    1    2  502    0  0.21027424417E+02  0.26914275105E+02 -0.13634993300E+03  0.22290543962E+03  0.17300000000E+03 0. -1.
         -6    1    1    2    0  501 -0.21027424417E+02 -0.26914275105E+02 -0.10877957619E+02  0.17667444848E+03  0.17300000000E+03 0.  1.
<mgrwt>
<rscale>  2 0.17633925E+03</rscale>
<asrwt>0</asrwt>
<pdfrwt beam="2">  1        1 0.42062137E-01 0.17633925E+03</pdfrwt>
<pdfrwt beam="1">  1       -1 0.19411692E-01 0.17633925E+03</pdfrwt>
<totfact> 0.20574095E+03</totfact>
</mgrwt>
</event>
<event>
 4    1  0.8130725E-001  0.1910407E+03  0.7546771E-02  0.1157526E+00
          1   -1    0    0  502    0  0.00000000000E+00  0.00000000000E+00  0.90056272413E+03  0.90056272413E+03  0.00000000000E+00 0.  1.
         -1   -1    0    0    0  501 -0.00000000000E+00 -0.00000000000E+00 -0.40660284832E+02  0.40660284832E+02  0.00000000000E+00 0. -1.
          6    1    1    2  502    0 -0.55212136108E+02 -0.59322493534E+02  0.40294327167E+03  0.44593701169E+03  0.17300000000E+03 0.  1.
         -6    1    1    2    0  501  0.55212136108E+02  0.59322493534E+02  0.45695916763E+03  0.49528599728E+03  0.17300000000E+03 0.  1.
<mgrwt>
<rscale>  2 0.19104067E+03</rscale>
<asrwt>0</asrwt>
<pdfrwt beam="1">  1        1 0.13854810E+00 0.19104067E+03</pdfrwt>
<pdfrwt beam="2">  1       -1 0.62554291E-02 0.19104067E+03</pdfrwt>
<totfact> 0.23779166E+03</totfact>
</mgrwt>
</event>
<event>
 4    1  0.8130725E-001  0.2046496E+03  0.7546771E-02  0.1145874E+00
          2   -1    0    0  502    0  0.00000000000E+00  0.00000000000E+00  0.12908809704E+04  0.12908809704E+04  0.00000000000E+00 0.  1.
         -2   -1    0    0    0  501 -0.00000000000E+00 -0.00000000000E+00 -0.34344769882E+02  0.34344769882E+02  0.00000000000E+00 0. -1.
          6    1    1    2  502    0  0.95219692736E+02 -0.53718273026E+02  0.47238988134E+03  0.51481418272E+03  0.17300000000E+03 0.  1.
         -6    1    1    2    0  501 -0.95219692736E+02  0.53718273026E+02  0.78414631915E+03  0.81041155753E+03  0.17300000000E+03 0.  1.
<mgrwt>
<rscale>  2 0.20464956E+03</rscale>
<asrwt>0</asrwt>
<pdfrwt beam="1">  1        2 0.19859703E+00 0.20464956E+03</pdfrwt>
<pdfrwt beam="2">  1       -2 0.52838118E-02 0.20464956E+03</pdfrwt>
<totfact> 0.31832434E+03</totfact>
</mgrwt>
</event>
<event>
 4    1  0.8130725E-001  0.2002378E+03  0.7546771E-02  0.1149539E+00
         -2   -1    0    0    0  501 -0.00000000000E+00  0.00000000000E+00  0.26275501887E+02  0.26275501887E+02  0.00000000000E+00 0. -1.
          2   -1    0    0  502    0  0.00000000000E+00 -0.00000000000E+00 -0.15618709621E+04  0.15618709621E+04  0.00000000000E+00 0.  1.
          6    1    1    2  502    0 -0.10022356924E+03 -0.11018552854E+02 -0.88821694790E+03  0.91050783570E+03  0.17300000000E+03 0.  1.
         -6    1    1    2    0  501  0.10022356924E+03  0.11018552854E+02 -0.64737851230E+03  0.67763862827E+03  0.17300000000E+03 0. -1.
<mgrwt>
<rscale>  2 0.20023779E+03</rscale>
<asrwt>0</asrwt>
<pdfrwt beam="2">  1        2 0.24028784E+00 0.20023779E+03</pdfrwt>
<pdfrwt beam="1">  1       -2 0.40423849E-02 0.20023779E+03</pdfrwt>
<totfact> 0.34128513E+03</totfact>
</mgrwt>
</event>
<event>
 4    1  0.8130725E-001  0.1814600E+03  0.7546771E-02  0.1166398E+00
          1   -1    0    0  502    0  0.00000000000E+00  0.00000000000E+00  0.22011683057E+04  0.22011683057E+04  0.00000000000E+00 0.  1.
         -1   -1    0    0    0  501 -0.00000000000E+00 -0.00000000000E+00 -0.25555592326E+02  0.25555592326E+02  0.00000000000E+00 0. -1.
          6    1    1    2  502    0 -0.43117828892E+02  0.33757658867E+02  0.37088367204E+03  0.41289517421E+03  0.17300000000E+03 0. -1.
         -6    1    1    2    0  501  0.43117828892E+02 -0.33757658867E+02  0.18047290413E+04  0.18138287238E+04  0.17300000000E+03 0.  1.
<mgrwt>
<rscale>  2 0.18145999E+03</rscale>
<asrwt>0</asrwt>
<pdfrwt beam="1">  1        1 0.33864113E+00 0.18145999E+03</pdfrwt>
<pdfrwt beam="2">  1       -1 0.39316313E-02 0.18145999E+03</pdfrwt>
<totfact> 0.63851845E+02</totfact>
</mgrwt>
</event>
<event>
 4    1  0.8130725E-001  0.1800814E+03  0.7546771E-02  0.1167724E+00
         -1   -1    0    0    0  501 -0.00000000000E+00  0.00000000000E+00  0.39286898946E+02  0.39286898946E+02  0.00000000000E+00 0. -1.
          1   -1    0    0  502    0  0.00000000000E+00 -0.00000000000E+00 -0.10488050837E+04  0.10488050837E+04  0.00000000000E+00 0.  1.
          6    1    1    2  502    0 -0.44749520931E+02 -0.22311465972E+02 -0.25369340018E+03  0.31111037018E+03  0.17300000000E+03 0. -1.
         -6    1    1    2    0  501  0.44749520931E+02  0.22311465972E+02 -0.75582478461E+03  0.77698161250E+03  0.17300000000E+03 0. -1.
<mgrwt>
<rscale>  2 0.18008143E+03</rscale>
<asrwt>0</asrwt>
<pdfrwt beam="2">  1        1 0.16135462E+00 0.18008143E+03</pdfrwt>
<pdfrwt beam="1">  1       -1 0.60441387E-02 0.18008143E+03</pdfrwt>
<totfact> 0.19368664E+03</totfact>
</mgrwt>
</event>
<event>
 4    1  0.8130725E-001  0.1945801E+03  0.7546771E-02  0.1154394E+00
         -2   -1    0    0    0  501 -0.00000000000E+00  0.00000000000E+00  0.19808985966E+02  0.19808985966E+02  0.00000000000E+00 0.  1.
          2   -1    0    0  502    0  0.00000000000E+00 -0.00000000000E+00 -0.26144155904E+04  0.26144155904E+04  0.00000000000E+00 0. -1.
          6    1    1    2  502    0 -0.28778653185E+02 -0.84286378491E+02 -0.19803355679E+04  0.19898719471E+04  0.17300000000E+03 0. -1.
         -6    1    1    2    0  501  0.28778653185E+02  0.84286378491E+02 -0.61427103651E+03  0.64435262921E+03  0.17300000000E+03 0.  1.
<mgrwt>
<rscale>  2 0.19458007E+03</rscale>
<asrwt>0</asrwt>
<pdfrwt beam="2">  1        2 0.40221773E+00 0.19458007E+03</pdfrwt>
<pdfrwt beam="1">  1       -2 0.30475367E-02 0.19458007E+03</pdfrwt>
<totfact> 0.14501515E+03</totfact>
</mgrwt>
</event>
<event>
 4    1  0.8130725E-001  0.1842399E+03  0.7546771E-02  0.1163762E+00
          2   -1    0    0  502    0  0.00000000000E+00  0.00000000000E+00  0.14170959009E+04  0.14170959009E+04  0.00000000000E+00 0. -1.
         -2   -1    0    0    0  501 -0.00000000000E+00 -0.00000000000E+00 -0.55094380882E+02  0.55094380882E+02  0.00000000000E+00 0.  1.
          6    1    1    2  502    0 -0.61773718331E+02 -0.14118728424E+02  0.12344096322E+04  0.12480831186E+04  0.17300000000E+03 0. -1.
         -6    1    1    2    0  501  0.61773718331E+02  0.14118728424E+02  0.12759188781E+03  0.22410716321E+03  0.17300000000E+03 0.  1.
<mgrwt>
<rscale>  2 0.18423987E+03</rscale>
<asrwt>0</asrwt>
<pdfrwt beam="1">  1        2 0.21801473E+00 0.18423987E+03</pdfrwt>
<pdfrwt beam="2">  1       -2 0.84760597E-02 0.18423987E+03</pdfrwt>
<totfact> 0.13132776E+03</totfact>
</mgrwt>
</event>
<event>
 4    1  0.8130725E-001  0.2128706E+03  0.7546771E-02  0.1139313E+00
         -2   -1    0    0    0  501 -0.00000000000E+00  0.00000000000E+00  0.86327613577E+02  0.86327613577E+02  0.00000000000E+00 0. -1.
          2   -1    0    0  502    0  0.00000000000E+00 -0.00000000000E+00 -0.53229843098E+03  0.53229843098E+03  0.00000000000E+00 0.  1.
          6    1    1    2  502    0 -0.10502242375E+03 -0.65993698342E+02 -0.25943694385E+03  0.33559112853E+03  0.17300000000E+03 0.  1.
         -6    1    1    2    0  501  0.10502242375E+03  0.65993698342E+02 -0.18653387355E+03  0.28303491603E+03  0.17300000000E+03 0. -1.
<mgrwt>
<rscale>  2 0.21287057E+03</rscale>
<asrwt>0</asrwt>
<pdfrwt beam="2">  1        2 0.81892067E-01 0.21287057E+03</pdfrwt>
<pdfrwt beam="1">  1       -2 0.13281171E-01 0.21287057E+03</pdfrwt>
<totfact> 0.24076642E+03</totfact>
</mgrwt>
</event>
<event>
 4    1  0.8130725E-001  0.3076462E+03  0.7546771E-02  0.1081480E+00
         -1   -1    0    0    0  501 -0.00000000000E+00  0.00000000000E+00  0.22346307973E+03  0.22346307973E+03  0.00000000000E+00 0. -1.
          1   -1    0    0  502    0  0.00000000000E+00 -0.00000000000E+00 -0.43234897740E+03  0.43234897740E+03  0.00000000000E+00 0.  1.
          6    1    1    2  502    0 -0.12221254516E+03 -0.22311713680E+03 -0.15124098349E+03  0.34281189888E+03  0.17300000000E+03 0.  1.
         -6    1    1    2    0  501  0.12221254516E+03  0.22311713680E+03 -0.57644914177E+02  0.31300015824E+03  0.17300000000E+03 0. -1.
<mgrwt>
<rscale>  2 0.30764617E+03</rscale>
<asrwt>0</asrwt>
<pdfrwt beam="2">  1        1 0.66515226E-01 0.30764617E+03</pdfrwt>
<pdfrwt beam="1">  1       -1 0.34378936E-01 0.30764617E+03</pdfrwt>
<totfact> 0.44361017E+02</totfact>
</mgrwt>
</event>
<event>
 4    1  0.8130725E-001  0.3834785E+03  0.7546771E-02  0.1049656E+00
         -2   -1    0    0    0  501 -0.00000000000E+00  0.00000000000E+00  0.68452735733E+02  0.68452735733E+02  0.00000000000E+00 0.  1.
          2   -1    0    0  502    0  0.00000000000E+00 -0.00000000000E+00 -0.22218066405E+04  0.22218066405E+04  0.00000000000E+00 0. -1.
          6    1    1    2  502    0  0.14119292228E+03  0.31175519491E+03 -0.12849915012E+04  0.13409917603E+04  0.17300000000E+03 0.  1.
         -6    1    1    2    0  501 -0.14119292228E+03 -0.31175519491E+03 -0.86836240358E+03  0.94926761601E+03  0.17300000000E+03 0. -1.
<mgrwt>
<rscale>  2 0.38347848E+03</rscale>
<asrwt>0</asrwt>
<pdfrwt beam="2">  1        2 0.34181632E+00 0.38347848E+03</pdfrwt>
<pdfrwt beam="1">  1       -2 0.10531193E-01 0.38347848E+03</pdfrwt>
<totfact> 0.33978383E+02</totfact>
</mgrwt>
</event>
<event>
 4    1  0.8130725E-001  0.1742825E+03  0.7546771E-02  0.1173454E+00
         -2   -1    0    0    0  501 -0.00000000000E+00  0.00000000000E+00  0.84639401654E+02  0.84639401654E+02  0.00000000000E+00 0. -1.
          2   -1    0    0  502    0  0.00000000000E+00 -0.00000000000E+00 -0.35969581554E+03  0.35969581554E+03  0.00000000000E+00 0.  1.
          6    1    1    2  502    0 -0.20160681977E+02 -0.62409384549E+01 -0.14818405513E+03  0.22876388834E+03  0.17300000000E+03 0. -1.
         -6    1    1    2    0  501  0.20160681977E+02  0.62409384549E+01 -0.12687235875E+03  0.21557132886E+03  0.17300000000E+03 0.  1.
<mgrwt>
<rscale>  2 0.17428254E+03</rscale>
<asrwt>0</asrwt>
<pdfrwt beam="2">  1        2 0.55337817E-01 0.17428254E+03</pdfrwt>
<pdfrwt beam="1">  1       -2 0.13021447E-01 0.17428254E+03</pdfrwt>
<totfact> 0.37915781E+03</totfact>
</mgrwt>
</event>
<event>
 4    1  0.8130725E-001  0.1764619E+03  0.7546771E-02  0.1171272E+00
         -2   -1    0    0    0  501 -0.00000000000E+00  0.00000000000E+00  0.74593145080E+02  0.74593145080E+02  0.00000000000E+00 0. -1.
          2   -1    0    0  502    0  0.00000000000E+00 -0.00000000000E+00 -0.50981939904E+03  0.50981939904E+03  0.00000000000E+00 0.  1.
          6    1    1    2  502    0  0.58517152190E+01 -0.34286583339E+02 -0.93233731633E+02  0.19957790730E+03  0.17300000000E+03 0. -1.
         -6    1    1    2    0  501 -0.58517152190E+01  0.34286583339E+02 -0.34199252233E+03  0.38483463682E+03  0.17300000000E+03 0.  1.
<mgrwt>
<rscale>  2 0.17646193E+03</rscale>
<asrwt>0</asrwt>
<pdfrwt beam="2">  1        2 0.78433753E-01 0.17646193E+03</pdfrwt>
<pdfrwt beam="1">  1       -2 0.11475869E-01 0.17646193E+03</pdfrwt>
<totfact> 0.31810780E+03</totfact>
</mgrwt>
</event>
<event>
 4    1  0.8130725E-001  0.2185141E+03  0.7546771E-02  0.1134996E+00
          1   -1    0    0  502    0  0.00000000000E+00  0.00000000000E+00  0.54195015078E+03  0.54195015078E+03  0.00000000000E+00 0.  1.
         -1   -1    0    0    0  501 -0.00000000000E+00 -0.00000000000E+00 -0.91185864469E+02  0.91185864469E+02  0.00000000000E+00 0. -1.
          6    1    1    2  502    0 -0.70095065646E+02 -0.11360505170E+03  0.16719171818E+03  0.27513904963E+03  0.17300000000E+03 0.  1.
         -6    1    1    2    0  501  0.70095065646E+02  0.11360505170E+03  0.28357256813E+03  0.35799696563E+03  0.17300000000E+03 0. -1.
<mgrwt>
<rscale>  2 0.21851413E+03</rscale>
<asrwt>0</asrwt>
<pdfrwt beam="1">  1        1 0.83376945E-01 0.21851413E+03</pdfrwt>
<pdfrwt beam="2">  1       -1 0.14028595E-01 0.21851413E+03</pdfrwt>
<totfact> 0.14445979E+03</totfact>
</mgrwt>
</event>
<event>
 4    1  0.8130725E-001  0.2749363E+03  0.7546771E-02  0.1098487E+00
          2   -1    0    0  502    0  0.00000000000E+00  0.00000000000E+00  0.83776969098E+03  0.83776969098E+03  0.00000000000E+00 0. -1.
         -2   -1    0    0    0  501 -0.00000000000E+00 -0.00000000000E+00 -0.28097021984E+03  0.28097021984E+03  0.00000000000E+00 0.  1.
          6    1    1    2  502    0  0.13534308184E+03  0.16535793516E+03 -0.18248550126E+03  0.32998629470E+03  0.17300000000E+03 0.  1.
         -6    1    1    2    0  501 -0.13534308184E+03 -0.16535793516E+03  0.73928497240E+03  0.78875361611E+03  0.17300000000E+03 0. -1.
<mgrwt>
<rscale>  2 0.27493635E+03</rscale>
<asrwt>0</asrwt>
<pdfrwt beam="1">  1        2 0.12888764E+00 0.27493635E+03</pdfrwt>
<pdfrwt beam="2">  1       -2 0.43226188E-01 0.27493635E+03</pdfrwt>
<totfact> 0.17301064E+02</totfact>
</mgrwt>
</event>
<event>
 4    1  0.8130725E-001  0.2429279E+03  0.7546771E-02  0.1117858E+00
         -3   -1    0    0    0  501 -0.00000000000E+00  0.00000000000E+00  0.49009391056E+03  0.49009391056E+03  0.00000000000E+00 0. -1.
          3   -1    0    0  502    0  0.00000000000E+00 -0.00000000000E+00 -0.12396018201E+03  0.12396018201E+03  0.00000000000E+00 0.  1.
          6    1    1    2  502    0  0.12572677486E+02 -0.17007901330E+03  0.23499995548E+03  0.33799248817E+03  0.17300000000E+03 0. -1.
         -6    1    1    2    0  501 -0.12572677486E+02  0.17007901330E+03  0.13113377307E+03  0.27606160440E+03  0.17300000000E+03 0.  1.
<mgrwt>
<rscale>  2 0.24292786E+03</rscale>
<asrwt>0</asrwt>
<pdfrwt beam="2">  1        3 0.19070797E-01 0.24292786E+03</pdfrwt>
<pdfrwt beam="1">  1       -3 0.75399062E-01 0.24292786E+03</pdfrwt>
<totfact> 0.10282125E+02</totfact>
</mgrwt>
</event>
<event>
 4    1  0.8130725E-001  0.1922436E+03  0.7546771E-02  0.1156453E+00
          1   -1    0    0  502    0  0.00000000000E+00  0.00000000000E+00  0.13249832347E+04  0.13249832347E+04  0.00000000000E+00 0. -1.
         -1   -1    0    0    0  501 -0.00000000000E+00 -0.00000000000E+00 -0.37341873604E+02  0.37341873604E+02  0.00000000000E+00 0.  1.
          6    1    1    2  502    0  0.79295928011E+02 -0.27216531982E+02  0.30117462007E+03  0.35730062355E+03  0.17300000000E+03 0.  1.
         -6    1    1    2    0  501 -0.79295928011E+02  0.27216531982E+02  0.98646674107E+03  0.10050244848E+04  0.17300000000E+03 0. -1.
<mgrwt>
<rscale>  2 0.19224355E+03</rscale>
<asrwt>0</asrwt>
<pdfrwt beam="1">  1        1 0.20384354E+00 0.19224355E+03</pdfrwt>
<pdfrwt beam="2">  1       -1 0.57449046E-02 0.19224355E+03</pdfrwt>
<totfact> 0.13427120E+03</totfact>
</mgrwt>
</event>
<event>
 4    1  0.8130725E-001  0.2315947E+03  0.7546771E-02  0.1125522E+00
         -3   -1    0    0    0  501 -0.00000000000E+00  0.00000000000E+00  0.64190831555E+03  0.64190831555E+03  0.00000000000E+00 0. -1.
          3   -1    0    0  502    0  0.00000000000E+00 -0.00000000000E+00 -0.84253810905E+02  0.84253810905E+02  0.00000000000E+00 0.  1.
          6    1    1    2  502    0  0.14493050578E+02 -0.15328743619E+03  0.24581373747E+03  0.33772841180E+03  0.17300000000E+03 0.  1.
         -6    1    1    2    0  501 -0.14493050578E+02  0.15328743619E+03  0.31184076718E+03  0.38843371466E+03  0.17300000000E+03 0. -1.
<mgrwt>
<rscale>  2 0.23159466E+03</rscale>
<asrwt>0</asrwt>
<pdfrwt beam="2">  1        3 0.12962125E-01 0.23159466E+03</pdfrwt>
<pdfrwt beam="1">  1       -3 0.98755122E-01 0.23159466E+03</pdfrwt>
<totfact> 0.10983125E+02</totfact>
</mgrwt>
</event>
<event>
 4    1  0.8130725E-001  0.1773818E+03  0.7546771E-02  0.1170361E+00
         -2   -1    0    0    0  501 -0.00000000000E+00  0.00000000000E+00  0.33578657880E+03  0.33578657880E+03  0.00000000000E+00 0.  1.
          2   -1    0    0  502    0  0.00000000000E+00 -0.00000000000E+00 -0.95295107785E+02  0.95295107785E+02  0.00000000000E+00 0. -1.
          6    1    1    2  502    0  0.33668676537E+02  0.20043012758E+02  0.92388180609E+02  0.19999969514E+03  0.17300000000E+03 0. -1.
         -6    1    1    2    0  501 -0.33668676537E+02 -0.20043012758E+02  0.14810329040E+03  0.23108199144E+03  0.17300000000E+03 0.  1.
<mgrwt>
<rscale>  2 0.17738180E+03</rscale>
<asrwt>0</asrwt>
<pdfrwt beam="2">  1        2 0.14660786E-01 0.17738180E+03</pdfrwt>
<pdfrwt beam="1">  1       -2 0.51659473E-01 0.17738180E+03</pdfrwt>
<totfact> 0.14185072E+03</totfact>
</mgrwt>
</event>
<event>
 4    1  0.8130725E-001  0.2332037E+03  0.7546771E-02  0.1124405E+00
          2   -1    0    0  502    0  0.00000000000E+00  0.00000000000E+00  0.12816836798E+04  0.12816836798E+04  0.00000000000E+00 0.  1.
         -2   -1    0    0    0  501 -0.00000000000E+00 -0.00000000000E+00 -0.47223033988E+02  0.47223033988E+02  0.00000000000E+00 0. -1.
          6    1    1    2  502    0  0.10243704064E+03 -0.11815921689E+03  0.82888030643E+03  0.86106126972E+03  0.17300000000E+03 0. -1.
         -6    1    1    2    0  501 -0.10243704064E+03  0.11815921689E+03  0.40558033934E+03  0.46784544402E+03  0.17300000000E+03 0. -1.
<mgrwt>
<rscale>  2 0.23320366E+03</rscale>
<asrwt>0</asrwt>
<pdfrwt beam="1">  1        2 0.19718208E+00 0.23320366E+03</pdfrwt>
<pdfrwt beam="2">  1       -2 0.72650831E-02 0.23320366E+03</pdfrwt>
<totfact> 0.19758825E+03</totfact>
</mgrwt>
</event>
<event>
 4    1  0.8130725E-001  0.1925987E+03  0.7546771E-02  0.1156138E+00
          1   -1    0    0  502    0  0.00000000000E+00  0.00000000000E+00  0.53104905119E+02  0.53104905119E+02  0.00000000000E+00 0.  1.
         -1   -1    0    0    0  501 -0.00000000000E+00 -0.00000000000E+00 -0.70077844130E+03  0.70077844130E+03  0.00000000000E+00 0. -1.
          6    1    1    2  502    0 -0.30683514035E+02 -0.78890868862E+02 -0.34528817494E+03  0.39537092834E+03  0.17300000000E+03 0.  1.
         -6    1    1    2    0  501  0.30683514035E+02  0.78890868862E+02 -0.30238536124E+03  0.35851241808E+03  0.17300000000E+03 0.  1.
<mgrwt>
<rscale>  2 0.19259867E+03</rscale>
<asrwt>0</asrwt>
<pdfrwt beam="1">  1        1 0.81699848E-02 0.19259867E+03</pdfrwt>
<pdfrwt beam="2">  1       -1 0.10781208E+00 0.19259867E+03</pdfrwt>
<totfact> 0.71515072E+02</totfact>
</mgrwt>
</event>
<event>
 4    1  0.8130725E-001  0.1883540E+03  0.7546771E-02  0.1159954E+00
         -1   -1    0    0    0  501 -0.00000000000E+00  0.00000000000E+00  0.21854774637E+03  0.21854774637E+03  0.00000000000E+00 0.  1.
          1   -1    0    0  502    0  0.00000000000E+00 -0.00000000000E+00 -0.16266534814E+03  0.16266534814E+03  0.00000000000E+00 0. -1.
          6    1    1    2  502    0 -0.74088318660E+02  0.76900468767E+01  0.36574336188E+02  0.19187208721E+03  0.17300000000E+03 0. -1.
         -6    1    1    2    0  501  0.74088318660E+02 -0.76900468767E+01  0.19308062041E+02  0.18934100729E+03  0.17300000000E+03 0. -1.
<mgrwt>
<rscale>  2 0.18835396E+03</rscale>
<asrwt>0</asrwt>
<pdfrwt beam="2">  1        1 0.25025438E-01 0.18835396E+03</pdfrwt>
<pdfrwt beam="1">  1       -1 0.33622730E-01 0.18835396E+03</pdfrwt>
<totfact> 0.15864877E+03</totfact>
</mgrwt>
</event>
<event>
 4    1  0.8130725E-001  0.1826878E+03  0.7546771E-02  0.1165227E+00
         -1   -1    0    0    0  501 -0.00000000000E+00  0.00000000000E+00  0.49345025180E+02  0.49345025180E+02  0.00000000000E+00 0. -1.
          1   -1    0    0  502    0  0.00000000000E+00 -0.00000000000E+00 -0.71444015431E+03  0.71444015431E+03  0.00000000000E+00 0.  1.
          6    1    1    2  502    0 -0.58144330226E+02 -0.80675232809E+01 -0.42071848047E+03  0.45867078376E+03  0.17300000000E+03 0.  1.
         -6    1    1    2    0  501  0.58144330226E+02  0.80675232809E+01 -0.24437664866E+03  0.30511439573E+03  0.17300000000E+03 0. -1.
<mgrwt>
<rscale>  2 0.18268784E+03</rscale>
<asrwt>0</asrwt>
<pdfrwt beam="2">  1        1 0.10991387E+00 0.18268784E+03</pdfrwt>
<pdfrwt beam="1">  1       -1 0.75915423E-02 0.18268784E+03</pdfrwt>
<totfact> 0.25267571E+03</totfact>
</mgrwt>
</event>
<event>
 4    1  0.8130725E-001  0.2967698E+03  0.7546771E-02  0.1086867E+00
         -2   -1    0    0    0  501 -0.00000000000E+00  0.00000000000E+00  0.74554522801E+02  0.74554522801E+02  0.00000000000E+00 0. -1.
          2   -1    0    0  502    0  0.00000000000E+00 -0.00000000000E+00 -0.14957768997E+04  0.14957768997E+04  0.00000000000E+00 0.  1.
          6    1    1    2  502    0 -0.23962355559E+03  0.26904233780E+02 -0.35060268072E+03  0.45934140453E+03  0.17300000000E+03 0. -1.
         -6    1    1    2    0  501  0.23962355559E+03 -0.26904233780E+02 -0.10706196962E+04  0.11109900180E+04  0.17300000000E+03 0.  1.
<mgrwt>
<rscale>  2 0.29676975E+03</rscale>
<asrwt>0</asrwt>
<pdfrwt beam="2">  1        2 0.23011952E+00 0.29676975E+03</pdfrwt>
<pdfrwt beam="1">  1       -2 0.11469927E-01 0.29676975E+03</pdfrwt>
<totfact> 0.72979517E+02</totfact>
</mgrwt>
</event>
<event>
 4    1  0.8130725E-001  0.1975410E+03  0.7546771E-02  0.1151830E+00
         -2   -1    0    0    0  501 -0.00000000000E+00  0.00000000000E+00  0.20293200907E+02  0.20293200907E+02  0.00000000000E+00 0.  1.
          2   -1    0    0  502    0  0.00000000000E+00 -0.00000000000E+00 -0.19232275659E+04  0.19232275659E+04  0.00000000000E+00 0. -1.
          6    1    1    2  502    0  0.58066005475E+02  0.75642508557E+02 -0.93942510888E+03  0.95996978352E+03  0.17300000000E+03 0.  1.
         -6    1    1    2    0  501 -0.58066005475E+02 -0.75642508557E+02 -0.96350925614E+03  0.98355098330E+03  0.17300000000E+03 0. -1.
<mgrwt>
<rscale>  2 0.19754101E+03</rscale>
<asrwt>0</asrwt>
<pdfrwt beam="2">  1        2 0.29588110E+00 0.19754101E+03</pdfrwt>
<pdfrwt beam="1">  1       -2 0.31220316E-02 0.19754101E+03</pdfrwt>
<totfact> 0.32539069E+03</totfact>
</mgrwt>
</event>
<event>
 4    1  0.8130725E-001  0.2823254E+03  0.7546771E-02  0.1094426E+00
          2   -1    0    0  502    0  0.00000000000E+00  0.00000000000E+00  0.29654626607E+03  0.29654626607E+03  0.00000000000E+00 0. -1.
         -2   -1    0    0    0  501 -0.00000000000E+00 -0.00000000000E+00 -0.27586822100E+03  0.27586822100E+03  0.00000000000E+00 0.  1.
          6    1    1    2  502    0 -0.20779678653E+03  0.81234908763E+02  0.56195538642E+02  0.28786377587E+03  0.17300000000E+03 0. -1.
         -6    1    1    2    0  501  0.20779678653E+03 -0.81234908763E+02 -0.35517493580E+02  0.28455071120E+03  0.17300000000E+03 0.  1.
<mgrwt>
<rscale>  2 0.28232537E+03</rscale>
<asrwt>0</asrwt>
<pdfrwt beam="1">  1        2 0.45622502E-01 0.28232537E+03</pdfrwt>
<pdfrwt beam="2">  1       -2 0.42441265E-01 0.28232537E+03</pdfrwt>
<totfact> 0.59036175E+02</totfact>
</mgrwt>
</event>
<event>
 4    1  0.8130725E-001  0.3053432E+03  0.7546771E-02  0.1082600E+00
         -2   -1    0    0    0  501 -0.00000000000E+00  0.00000000000E+00  0.54998240372E+03  0.54998240372E+03  0.00000000000E+00 0. -1.
          2   -1    0    0  502    0  0.00000000000E+00 -0.00000000000E+00 -0.20657923567E+03  0.20657923567E+03  0.00000000000E+00 0.  1.
          6    1    1    2  502    0  0.24235910417E+03 -0.67583590105E+02  0.33191676424E+03  0.45100245610E+03  0.17300000000E+03 0. -1.
         -6    1    1    2    0  501 -0.24235910417E+03  0.67583590105E+02  0.11486403819E+02  0.30555918330E+03  0.17300000000E+03 0.  1.
<mgrwt>
<rscale>  2 0.30534321E+03</rscale>
<asrwt>0</asrwt>
<pdfrwt beam="2">  1        2 0.31781421E-01 0.30534321E+03</pdfrwt>
<pdfrwt beam="1">  1       -2 0.84612677E-01 0.30534321E+03</pdfrwt>
<totfact> 0.20767823E+02</totfact>
</mgrwt>
</event>
<event>
 4    1  0.8130725E-001  0.1833194E+03  0.7546771E-02  0.1164629E+00
         -2   -1    0    0    0  501 -0.00000000000E+00  0.00000000000E+00  0.16669114453E+02  0.16669114453E+02  0.00000000000E+00 0. -1.
          2   -1    0    0  502    0  0.00000000000E+00 -0.00000000000E+00 -0.20210167001E+04  0.20210167001E+04  0.00000000000E+00 0.  1.
          6    1    1    2  502    0  0.60409796090E+02 -0.52603710755E+01 -0.95174158041E+03  0.96923580766E+03  0.17300000000E+03 0.  1.
         -6    1    1    2    0  501 -0.60409796090E+02  0.52603710755E+01 -0.10526060052E+04  0.10684500069E+04  0.17300000000E+03 0. -1.
<mgrwt>
<rscale>  2 0.18331943E+03</rscale>
<asrwt>0</asrwt>
<pdfrwt beam="2">  1        2 0.31092569E+00 0.18331943E+03</pdfrwt>
<pdfrwt beam="1">  1       -2 0.25644788E-02 0.18331943E+03</pdfrwt>
<totfact> 0.38728005E+03</totfact>
</mgrwt>
</event>
<event>
 4    1  0.8130725E-001  0.2141432E+03  0.7546771E-02  0.1138326E+00
          2   -1    0    0  502    0  0.00000000000E+00  0.00000000000E+00  0.13024545002E+04  0.13024545002E+04  0.00000000000E+00 0. -1.
         -2   -1    0    0    0  501 -0.00000000000E+00 -0.00000000000E+00 -0.35208653905E+02  0.35208653905E+02  0.00000000000E+00 0.  1.
          6    1    1    2  502    0  0.79369785060E+02 -0.98126112514E+02  0.63171545066E+03  0.66702451779E+03  0.17300000000E+03 0. -1.
         -6    1    1    2    0  501 -0.79369785060E+02  0.98126112514E+02  0.63553039567E+03  0.67063863635E+03  0.17300000000E+03 0.  1.
<mgrwt>
<rscale>  2 0.21414317E+03</rscale>
<asrwt>0</asrwt>
<pdfrwt beam="1">  1        2 0.20037758E+00 0.21414317E+03</pdfrwt>
<pdfrwt beam="2">  1       -2 0.54167170E-02 0.21414317E+03</pdfrwt>
<totfact> 0.30220162E+03</totfact>
</mgrwt>
</event>
<event>
 4    1  0.8130725E-001  0.3534916E+03  0.7546771E-02  0.1061191E+00
          2   -1    0    0  502    0  0.00000000000E+00  0.00000000000E+00  0.48150622960E+03  0.48150622960E+03  0.00000000000E+00 0. -1.
         -2   -1    0    0    0  501 -0.00000000000E+00 -0.00000000000E+00 -0.27153149465E+03  0.27153149465E+03  0.00000000000E+00 0.  1.
          6    1    1    2  502    0 -0.20163929720E+03 -0.23317147193E+03  0.18420668762E+03  0.39860813496E+03  0.17300000000E+03 0. -1.
         -6    1    1    2    0  501  0.20163929720E+03  0.23317147193E+03  0.25768047328E+02  0.35442958928E+03  0.17300000000E+03 0.  1.
<mgrwt>
<rscale>  2 0.35349164E+03</rscale>
<asrwt>0</asrwt>
<pdfrwt beam="1">  1        2 0.74077882E-01 0.35349164E+03</pdfrwt>
<pdfrwt beam="2">  1       -2 0.41774076E-01 0.35349164E+03</pdfrwt>
<totfact> 0.35682869E+02</totfact>
</mgrwt>
</event>
<event>
 4    1  0.8130725E-001  0.3329386E+03  0.7546771E-02  0.1069844E+00
         -2   -1    0    0    0  501 -0.00000000000E+00  0.00000000000E+00  0.73437563546E+02  0.73437563546E+02  0.00000000000E+00 0.  1.
          2   -1    0    0  502    0  0.00000000000E+00 -0.00000000000E+00 -0.15562210288E+04  0.15562210288E+04  0.00000000000E+00 0. -1.
          6    1    1    2  502    0  0.28340276755E+03  0.24535219902E+02 -0.60008591129E+03  0.68625884810E+03  0.17300000000E+03 0.  1.
         -6    1    1    2    0  501 -0.28340276755E+03 -0.24535219902E+02 -0.88269755399E+03  0.94339974427E+03  0.17300000000E+03 0.  1.
<mgrwt>
<rscale>  2 0.33293859E+03</rscale>
<asrwt>0</asrwt>
<pdfrwt beam="2">  1        2 0.23941861E+00 0.33293859E+03</pdfrwt>
<pdfrwt beam="1">  1       -2 0.11298087E-01 0.33293859E+03</pdfrwt>
<totfact> 0.69145506E+02</totfact>
</mgrwt>
</event>
<event>
 4    1  0.8130725E-001  0.1947311E+03  0.7546771E-02  0.1154262E+00
          1   -1    0    0  502    0  0.00000000000E+00  0.00000000000E+00  0.80249982600E+03  0.80249982600E+03  0.00000000000E+00 0.  1.
         -1   -1    0    0    0  501 -0.00000000000E+00 -0.00000000000E+00 -0.77429838895E+02  0.77429838895E+02  0.00000000000E+00 0. -1.
          6    1    1    2  502    0 -0.49329928308E+02 -0.74550410893E+02  0.87869870997E+02  0.21363829203E+03  0.17300000000E+03 0. -1.
         -6    1    1    2    0  501  0.49329928308E+02  0.74550410893E+02  0.63720011610E+03  0.66629137287E+03  0.17300000000E+03 0.  1.
<mgrwt>
<rscale>  2 0.19473111E+03</rscale>
<asrwt>0</asrwt>
<pdfrwt beam="1">  1        1 0.12346151E+00 0.19473111E+03</pdfrwt>
<pdfrwt beam="2">  1       -1 0.11912283E-01 0.19473111E+03</pdfrwt>
<totfact> 0.10648634E+03</totfact>
</mgrwt>
</event>
<event>
 4    1  0.8130725E-001  0.1781783E+03  0.7546771E-02  0.1169578E+00
          2   -1    0    0  502    0  0.00000000000E+00  0.00000000000E+00  0.11773373886E+04  0.11773373886E+04  0.00000000000E+00 0.  1.
         -2   -1    0    0    0  501 -0.00000000000E+00 -0.00000000000E+00 -0.42113968267E+02  0.42113968267E+02  0.00000000000E+00 0. -1.
          6    1    1    2  502    0  0.34116338294E+02 -0.25584826547E+02  0.20192804407E+03  0.26929991250E+03  0.17300000000E+03 0. -1.
         -6    1    1    2    0  501 -0.34116338294E+02  0.25584826547E+02  0.93329537628E+03  0.95015144439E+03  0.17300000000E+03 0.  1.
<mgrwt>
<rscale>  2 0.17817830E+03</rscale>
<asrwt>0</asrwt>
<pdfrwt beam="1">  1        2 0.18112880E+00 0.17817830E+03</pdfrwt>
<pdfrwt beam="2">  1       -2 0.64790730E-02 0.17817830E+03</pdfrwt>
<totfact> 0.26920998E+03</totfact>
</mgrwt>
</event>
<event>
 4    1  0.8130725E-001  0.2269891E+03  0.7546771E-02  0.1128777E+00
         -2   -1    0    0    0  501 -0.00000000000E+00  0.00000000000E+00  0.19675997773E+02  0.19675997773E+02  0.00000000000E+00 0.  1.
          2   -1    0    0  502    0  0.00000000000E+00 -0.00000000000E+00 -0.26298827987E+04  0.26298827987E+04  0.00000000000E+00 0. -1.
          6    1    1    2  502    0  0.73079170288E+02 -0.12749310231E+03 -0.12184260872E+04  0.12393894409E+04  0.17300000000E+03 0. -1.
         -6    1    1    2    0  501 -0.73079170288E+02  0.12749310231E+03 -0.13917807137E+04  0.14101693556E+04  0.17300000000E+03 0. -1.
<mgrwt>
<rscale>  2 0.22698911E+03</rscale>
<asrwt>0</asrwt>
<pdfrwt beam="2">  1        2 0.40459751E+00 0.22698911E+03</pdfrwt>
<pdfrwt beam="1">  1       -2 0.30270754E-02 0.22698911E+03</pdfrwt>
<totfact> 0.14287844E+03</totfact>
</mgrwt>
</event>
<event>
 4    1  0.8130725E-001  0.3184062E+03  0.7546771E-02  0.1076385E+00
          1   -1    0    0  502    0  0.00000000000E+00  0.00000000000E+00  0.39103534763E+03  0.39103534763E+03  0.00000000000E+00 0. -1.
         -1   -1    0    0    0  501 -0.00000000000E+00 -0.00000000000E+00 -0.29313838046E+03  0.29313838046E+03  0.00000000000E+00 0.  1.
          6    1    1    2  502    0 -0.17837447751E+03 -0.19908798536E+03  0.16523191468E+03  0.35872561348E+03  0.17300000000E+03 0. -1.
         -6    1    1    2    0  501  0.17837447751E+03  0.19908798536E+03 -0.67334947513E+02  0.32544811460E+03  0.17300000000E+03 0.  1.
<mgrwt>
<rscale>  2 0.31840616E+03</rscale>
<asrwt>0</asrwt>
<pdfrwt beam="1">  1        1 0.60159284E-01 0.31840616E+03</pdfrwt>
<pdfrwt beam="2">  1       -1 0.45098212E-01 0.31840616E+03</pdfrwt>
<totfact> 0.31129569E+02</totfact>
</mgrwt>
</event>
<event>
 4    1  0.8130725E-001  0.2586769E+03  0.7546771E-02  0.1107941E+00
         -2   -1    0    0    0  501 -0.00000000000E+00  0.00000000000E+00  0.59074422155E+02  0.59074422155E+02  0.00000000000E+00 0.  1.
          2   -1    0    0  502    0  0.00000000000E+00 -0.00000000000E+00 -0.12186085436E+04  0.12186085436E+04  0.00000000000E+00 0. -1.
          6    1    1    2  502    0 -0.19318368238E+02  0.19134143358E+03 -0.41014866595E+03  0.48490790026E+03  0.17300000000E+03 0.  1.
         -6    1    1    2    0  501  0.19318368238E+02 -0.19134143358E+03 -0.74938545552E+03  0.79277506551E+03  0.17300000000E+03 0. -1.
<mgrwt>
<rscale>  2 0.25867691E+03</rscale>
<asrwt>0</asrwt>
<pdfrwt beam="2">  1        2 0.18747823E+00 0.25867691E+03</pdfrwt>
<pdfrwt beam="1">  1       -2 0.90883732E-02 0.25867691E+03</pdfrwt>
<totfact> 0.15082353E+03</totfact>
</mgrwt>
</event>
<event>
 4    1  0.8130725E-001  0.1761331E+03  0.7546771E-02  0.1171599E+00
          1   -1    0    0  502    0  0.00000000000E+00  0.00000000000E+00  0.63507716016E+03  0.63507716016E+03  0.00000000000E+00 0. -1.
         -1   -1    0    0    0  501 -0.00000000000E+00 -0.00000000000E+00 -0.49102586213E+02  0.49102586213E+02  0.00000000000E+00 0.  1.
          6    1    1    2  502    0  0.22147394553E+00 -0.33073132534E+02  0.26840315004E+03  0.32103447182E+03  0.17300000000E+03 0.  1.
         -6    1    1    2    0  501 -0.22147394553E+00  0.33073132534E+02  0.31757142391E+03  0.36314527455E+03  0.17300000000E+03 0.  1.
<mgrwt>
<rscale>  2 0.17613313E+03</rscale>
<asrwt>0</asrwt>
<pdfrwt beam="1">  1        1 0.97704172E-01 0.17613313E+03</pdfrwt>
<pdfrwt beam="2">  1       -1 0.75542445E-02 0.17613313E+03</pdfrwt>
<totfact> 0.30079946E+03</totfact>
</mgrwt>
</event>
<event>
 4    1  0.8130725E-001  0.1862986E+03  0.7546771E-02  0.1161843E+00
         -2   -1    0    0    0  501 -0.00000000000E+00  0.00000000000E+00  0.17365768313E+02  0.17365768313E+02  0.00000000000E+00 0.  1.
          2   -1    0    0  502    0  0.00000000000E+00 -0.00000000000E+00 -0.20410107828E+04  0.20410107828E+04  0.00000000000E+00 0. -1.
          6    1    1    2  502    0  0.67026703437E+02  0.16899628798E+02 -0.11601851336E+04  0.11750475397E+04  0.17300000000E+03 0.  1.
         -6    1    1    2    0  501 -0.67026703437E+02 -0.16899628798E+02 -0.86345988089E+03  0.88332901137E+03  0.17300000000E+03 0. -1.
<mgrwt>
<rscale>  2 0.18629862E+03</rscale>
<asrwt>0</asrwt>
<pdfrwt beam="2">  1        2 0.31400161E+00 0.18629862E+03</pdfrwt>
<pdfrwt beam="1">  1       -2 0.26716571E-02 0.18629862E+03</pdfrwt>
<totfact> 0.35598657E+03</totfact>
</mgrwt>
</event>
<event>
 4    1  0.8130725E-001  0.1868733E+03  0.7546771E-02  0.1161312E+00
         -1   -1    0    0    0  501 -0.00000000000E+00  0.00000000000E+00  0.56509375163E+03  0.56509375163E+03  0.00000000000E+00 0. -1.
          1   -1    0    0  502    0  0.00000000000E+00 -0.00000000000E+00 -0.66362074818E+02  0.66362074818E+02  0.00000000000E+00 0.  1.
          6    1    1    2  502    0 -0.30881953419E+02  0.63552529816E+02  0.16656530561E+03  0.25033102110E+03  0.17300000000E+03 0.  1.
         -6    1    1    2    0  501  0.30881953419E+02 -0.63552529816E+02  0.33216637120E+03  0.38112480535E+03  0.17300000000E+03 0. -1.
<mgrwt>
<rscale>  2 0.18687327E+03</rscale>
<asrwt>0</asrwt>
<pdfrwt beam="2">  1        1 0.10209550E-01 0.18687327E+03</pdfrwt>
<pdfrwt beam="1">  1       -1 0.86937497E-01 0.18687327E+03</pdfrwt>
<totfact> 0.84920925E+02</totfact>
</mgrwt>
</event>
<event>
 4    1  0.8130725E-001  0.3898525E+03  0.7546771E-02  0.1047351E+00
          2   -1    0    0  502    0  0.00000000000E+00  0.00000000000E+00  0.80022260792E+03  0.80022260792E+03  0.00000000000E+00 0. -1.
         -2   -1    0    0    0  501 -0.00000000000E+00 -0.00000000000E+00 -0.19191402722E+03  0.19191402722E+03  0.00000000000E+00 0.  1.
          6    1    1    2  502    0  0.51621141435E+02  0.34553036406E+03  0.35461349302E+03  0.52700636065E+03  0.17300000000E+03 0.  1.
         -6    1    1    2    0  501 -0.51621141435E+02 -0.34553036406E+03  0.25369508768E+03  0.46513027449E+03  0.17300000000E+03 0.  1.
<mgrwt>
<rscale>  2 0.38985250E+03</rscale>
<asrwt>0</asrwt>
<pdfrwt beam="1">  1        2 0.12311117E+00 0.38985250E+03</pdfrwt>
<pdfrwt beam="2">  1       -2 0.29525236E-01 0.38985250E+03</pdfrwt>
<totfact> 0.37263012E+02</totfact>
</mgrwt>
</event>
<event>
 4    1  0.8130725E-001  0.1802437E+03  0.7546771E-02  0.1167567E+00
         -1   -1    0    0    0  501 -0.00000000000E+00  0.00000000000E+00  0.35706374447E+02  0.35706374447E+02  0.00000000000E+00 0.  1.
          1   -1    0    0  502    0  0.00000000000E+00 -0.00000000000E+00 -0.91806829259E+03  0.91806829259E+03  0.00000000000E+00 0. -1.
          6    1    1    2  502    0  0.47587370896E+02 -0.17153668308E+02 -0.39608875291E+03  0.43517135290E+03  0.17300000000E+03 0. -1.
         -6    1    1    2    0  501 -0.47587370896E+02  0.17153668308E+02 -0.48627316523E+03  0.51860331413E+03  0.17300000000E+03 0. -1.
<mgrwt>
<rscale>  2 0.18024374E+03</rscale>
<asrwt>0</asrwt>
<pdfrwt beam="2">  1        1 0.14124124E+00 0.18024374E+03</pdfrwt>
<pdfrwt beam="1">  1       -1 0.54932897E-02 0.18024374E+03</pdfrwt>
<totfact> 0.27975621E+03</totfact>
</mgrwt>
</event>
<event>
 4    1  0.8130725E-001  0.1888227E+03  0.7546771E-02  0.1159527E+00
          1   -1    0    0  502    0  0.00000000000E+00  0.00000000000E+00  0.29089181115E+02  0.29089181115E+02  0.00000000000E+00 0.  1.
         -1   -1    0    0    0  501 -0.00000000000E+00 -0.00000000000E+00 -0.12891479663E+04  0.12891479663E+04  0.00000000000E+00 0. -1.
          6    1    1    2  502    0  0.64788709474E+02 -0.39082619189E+02 -0.77627721220E+03  0.79891197149E+03  0.17300000000E+03 0.  1.
         -6    1    1    2    0  501 -0.64788709474E+02  0.39082619189E+02 -0.48378157299E+03  0.51932517594E+03  0.17300000000E+03 0. -1.
<mgrwt>
<rscale>  2 0.18882274E+03</rscale>
<asrwt>0</asrwt>
<pdfrwt beam="1">  1        1 0.44752587E-02 0.18882274E+03</pdfrwt>
<pdfrwt beam="2">  1       -1 0.19833045E+00 0.18882274E+03</pdfrwt>
<totfact> 0.33338878E+02</totfact>
</mgrwt>
</event>
<event>
 4    1  0.8130725E-001  0.2026465E+03  0.7546771E-02  0.1147525E+00
          2   -1    0    0  502    0  0.00000000000E+00  0.00000000000E+00  0.52870049809E+03  0.52870049809E+03  0.00000000000E+00 0. -1.
         -2   -1    0    0    0  501 -0.00000000000E+00 -0.00000000000E+00 -0.78750896744E+02  0.78750896744E+02  0.00000000000E+00 0.  1.
          6    1    1    2  502    0  0.10346007730E+03  0.20799747263E+02  0.26051292055E+03  0.33004938851E+03  0.17300000000E+03 0. -1.
         -6    1    1    2    0  501 -0.10346007730E+03 -0.20799747263E+02  0.18943668079E+03  0.27740200632E+03  0.17300000000E+03 0.  1.
<mgrwt>
<rscale>  2 0.20264653E+03</rscale>
<asrwt>0</asrwt>
<pdfrwt beam="1">  1        2 0.81338536E-01 0.20264653E+03</pdfrwt>
<pdfrwt beam="2">  1       -2 0.12115523E-01 0.20264653E+03</pdfrwt>
<totfact> 0.28119897E+03</totfact>
</mgrwt>
</event>
<event>
 4    1  0.8130725E-001  0.1993725E+03  0.7546771E-02  0.1150270E+00
         -2   -1    0    0    0  501 -0.00000000000E+00  0.00000000000E+00  0.61511184176E+02  0.61511184176E+02  0.00000000000E+00 0.  1.
          2   -1    0    0  502    0  0.00000000000E+00 -0.00000000000E+00 -0.70888180250E+03  0.70888180250E+03  0.00000000000E+00 0. -1.
          6    1    1    2  502    0  0.65487146810E+02 -0.74376208472E+02 -0.20915571196E+03  0.28895587661E+03  0.17300000000E+03 0. -1.
         -6    1    1    2    0  501 -0.65487146810E+02  0.74376208472E+02 -0.43821490637E+03  0.48143711006E+03  0.17300000000E+03 0.  1.
<mgrwt>
<rscale>  2 0.19937248E+03</rscale>
<asrwt>0</asrwt>
<pdfrwt beam="2">  1        2 0.10905874E+00 0.19937248E+03</pdfrwt>
<pdfrwt beam="1">  1       -2 0.94632591E-02 0.19937248E+03</pdfrwt>
<totfact> 0.29636892E+03</totfact>
</mgrwt>
</event>
<event>
 4    1  0.8130725E-001  0.2268935E+03  0.7546771E-02  0.1128846E+00
          1   -1    0    0  502    0  0.00000000000E+00  0.00000000000E+00  0.41819706862E+03  0.41819706862E+03  0.00000000000E+00 0.  1.
         -1   -1    0    0    0  501 -0.00000000000E+00 -0.00000000000E+00 -0.14446592770E+03  0.14446592770E+03  0.00000000000E+00 0. -1.
          6    1    1    2  502    0 -0.86092954807E+02  0.11891033804E+03  0.28676898995E+02  0.22869855683E+03  0.17300000000E+03 0. -1.
         -6    1    1    2    0  501  0.86092954807E+02 -0.11891033804E+03  0.24505424193E+03  0.33396443949E+03  0.17300000000E+03 0.  1.
<mgrwt>
<rscale>  2 0.22689351E+03</rscale>
<asrwt>0</asrwt>
<pdfrwt beam="1">  1        1 0.64338010E-01 0.22689351E+03</pdfrwt>
<pdfrwt beam="2">  1       -1 0.22225528E-01 0.22689351E+03</pdfrwt>
<totfact> 0.96981677E+02</totfact>
</mgrwt>
</event>
<event>
 4    1  0.8130725E-001  0.1925417E+03  0.7546771E-02  0.1156189E+00
         -2   -1    0    0    0  501 -0.00000000000E+00  0.00000000000E+00  0.43409232696E+02  0.43409232696E+02  0.00000000000E+00 0.  1.
          2   -1    0    0  502    0  0.00000000000E+00 -0.00000000000E+00 -0.11955471148E+04  0.11955471148E+04  0.00000000000E+00 0. -1.
          6    1    1    2  502    0  0.83532493876E+02  0.12870252802E+02 -0.24497157617E+03  0.31158208240E+03  0.17300000000E+03 0.  1.
         -6    1    1    2    0  501 -0.83532493876E+02 -0.12870252802E+02 -0.90716630590E+03  0.92737426506E+03  0.17300000000E+03 0. -1.
<mgrwt>
<rscale>  2 0.19254174E+03</rscale>
<asrwt>0</asrwt>
<pdfrwt beam="2">  1        2 0.18393033E+00 0.19254174E+03</pdfrwt>
<pdfrwt beam="1">  1       -2 0.66783433E-02 0.19254174E+03</pdfrwt>
<totfact> 0.25119860E+03</totfact>
</mgrwt>
</event>
<event>
 4    1  0.8130725E-001  0.1825752E+03  0.7546771E-02  0.1165334E+00
         -1   -1    0    0    0  501 -0.00000000000E+00  0.00000000000E+00  0.22367176209E+03  0.22367176209E+03  0.00000000000E+00 0.  1.
          1   -1    0    0  502    0  0.00000000000E+00 -0.00000000000E+00 -0.21782406776E+03  0.21782406776E+03  0.00000000000E+00 0. -1.
          6    1    1    2  502    0  0.16146593896E+02  0.56071302237E+02 -0.12113295270E+03  0.21910475955E+03  0.17300000000E+03 0. -1.
         -6    1    1    2    0  501 -0.16146593896E+02 -0.56071302237E+02  0.12698064702E+03  0.22239107030E+03  0.17300000000E+03 0.  1.
<mgrwt>
<rscale>  2 0.18257520E+03</rscale>
<asrwt>0</asrwt>
<pdfrwt beam="2">  1        1 0.33511395E-01 0.18257520E+03</pdfrwt>
<pdfrwt beam="1">  1       -1 0.34411041E-01 0.18257520E+03</pdfrwt>
<totfact> 0.10551729E+03</totfact>
</mgrwt>
</event>
<event>
 4    1  0.8130725E-001  0.2012611E+03  0.7546771E-02  0.1148679E+00
          2   -1    0    0  502    0  0.00000000000E+00  0.00000000000E+00  0.10460587023E+04  0.10460587023E+04  0.00000000000E+00 0.  1.
         -2   -1    0    0    0  501 -0.00000000000E+00 -0.00000000000E+00 -0.15451158599E+03  0.15451158599E+03  0.00000000000E+00 0. -1.
          6    1    1    2  502    0 -0.72564520270E+02  0.72879492882E+02 -0.73876336805E+02  0.21439156519E+03  0.17300000000E+03 0. -1.
         -6    1    1    2    0  501  0.72564520270E+02 -0.72879492882E+02  0.96542345315E+03  0.98617872314E+03  0.17300000000E+03 0.  1.
<mgrwt>
<rscale>  2 0.20126110E+03</rscale>
<asrwt>0</asrwt>
<pdfrwt beam="1">  1        2 0.16093210E+00 0.20126110E+03</pdfrwt>
<pdfrwt beam="2">  1       -2 0.23771014E-01 0.20126110E+03</pdfrwt>
<totfact> 0.38840678E+02</totfact>
</mgrwt>
</event>
<event>
 4    1  0.8130725E-001  0.2077379E+03  0.7546771E-02  0.1143370E+00
         -2   -1    0    0    0  501 -0.00000000000E+00  0.00000000000E+00  0.44242092436E+03  0.44242092436E+03  0.00000000000E+00 0. -1.
          2   -1    0    0  502    0  0.00000000000E+00 -0.00000000000E+00 -0.16528623225E+03  0.16528623225E+03  0.00000000000E+00 0.  1.
          6    1    1    2  502    0  0.42832194843E+02 -0.10673070489E+03  0.33309401314E+03  0.39256421369E+03  0.17300000000E+03 0. -1.
         -6    1    1    2    0  501 -0.42832194843E+02  0.10673070489E+03 -0.55959321032E+02  0.21514294293E+03  0.17300000000E+03 0.  1.
<mgrwt>
<rscale>  2 0.20773791E+03</rscale>
<asrwt>0</asrwt>
<pdfrwt beam="2">  1        2 0.25428651E-01 0.20773791E+03</pdfrwt>
<pdfrwt beam="1">  1       -2 0.68064757E-01 0.20773791E+03</pdfrwt>
<totfact> 0.42838713E+02</totfact>
</mgrwt>
</event>
<event>
 4    1  0.8130725E-001  0.1798217E+03  0.7546771E-02  0.1167976E+00
         -1   -1    0    0    0  501 -0.00000000000E+00  0.00000000000E+00  0.27775429424E+03  0.27775429424E+03  0.00000000000E+00 0. -1.
          1   -1    0    0  502    0  0.00000000000E+00 -0.00000000000E+00 -0.13329201145E+03  0.13329201145E+03  0.00000000000E+00 0.  1.
          6    1    1    2  502    0  0.11672480428E+02  0.47650699385E+02  0.14535463017E+03  0.23122241341E+03  0.17300000000E+03 0. -1.
         -6    1    1    2    0  501 -0.11672480428E+02 -0.47650699385E+02 -0.89234737703E+00  0.17982389228E+03  0.17300000000E+03 0.  1.
<mgrwt>
<rscale>  2 0.17982168E+03</rscale>
<asrwt>0</asrwt>
<pdfrwt beam="2">  1        1 0.20506463E-01 0.17982168E+03</pdfrwt>
<pdfrwt beam="1">  1       -1 0.42731430E-01 0.17982168E+03</pdfrwt>
<totfact> 0.13418593E+03</totfact>
</mgrwt>
</event>
<event>
 4    1  0.8130725E-001  0.2131243E+03  0.7546771E-02  0.1139115E+00
         -2   -1    0    0    0  501 -0.00000000000E+00  0.00000000000E+00  0.10608087871E+03  0.10608087871E+03  0.00000000000E+00 0. -1.
          2   -1    0    0  502    0  0.00000000000E+00 -0.00000000000E+00 -0.58799494256E+03  0.58799494256E+03  0.00000000000E+00 0.  1.
          6    1    1    2  502    0 -0.36577325477E+02  0.11897514672E+03 -0.42188065901E+03  0.47265767393E+03  0.17300000000E+03 0.  1.
         -6    1    1    2    0  501  0.36577325477E+02 -0.11897514672E+03 -0.60033404838E+02  0.22141814734E+03  0.17300000000E+03 0. -1.
<mgrwt>
<rscale>  2 0.21312434E+03</rscale>
<asrwt>0</asrwt>
<pdfrwt beam="2">  1        2 0.90460758E-01 0.21312434E+03</pdfrwt>
<pdfrwt beam="1">  1       -2 0.16320136E-01 0.21312434E+03</pdfrwt>
<totfact> 0.15307684E+03</totfact>
</mgrwt>
</event>
<event>
 4    1  0.8130725E-001  0.2174879E+03  0.7546771E-02  0.1135770E+00
         -1   -1    0    0    0  501 -0.00000000000E+00  0.00000000000E+00  0.24540864271E+02  0.24540864271E+02  0.00000000000E+00 0. -1.
          1   -1    0    0  502    0  0.00000000000E+00 -0.00000000000E+00 -0.21125147060E+04  0.21125147060E+04  0.00000000000E+00 0.  1.
          6    1    1    2  502    0 -0.76784689958E+02 -0.10712653662E+03 -0.72771375156E+03  0.75951845776E+03  0.17300000000E+03 0.  1.
         -6    1    1    2    0  501  0.76784689958E+02  0.10712653662E+03 -0.13602600902E+04  0.13775371126E+04  0.17300000000E+03 0.  1.
<mgrwt>
<rscale>  2 0.21748789E+03</rscale>
<asrwt>0</asrwt>
<pdfrwt beam="2">  1        1 0.32500233E+00 0.21748789E+03</pdfrwt>
<pdfrwt beam="1">  1       -1 0.37755168E-02 0.21748789E+03</pdfrwt>
<totfact> 0.76905588E+02</totfact>
</mgrwt>
</event>
<event>
 4    1  0.8130725E-001  0.1897745E+03  0.7546771E-02  0.1158665E+00
         -2   -1    0    0    0  501 -0.00000000000E+00  0.00000000000E+00  0.11876220492E+03  0.11876220492E+03  0.00000000000E+00 0. -1.
          2   -1    0    0  502    0  0.00000000000E+00 -0.00000000000E+00 -0.34682943860E+03  0.34682943860E+03  0.00000000000E+00 0.  1.
          6    1    1    2  502    0  0.11828678659E+02  0.77106593086E+02 -0.31511498444E+02  0.19237286417E+03  0.17300000000E+03 0. -1.
         -6    1    1    2    0  501 -0.11828678659E+02 -0.77106593086E+02 -0.19655573524E+03  0.27321877935E+03  0.17300000000E+03 0.  1.
<mgrwt>
<rscale>  2 0.18977446E+03</rscale>
<asrwt>0</asrwt>
<pdfrwt beam="2">  1        2 0.53358375E-01 0.18977446E+03</pdfrwt>
<pdfrwt beam="1">  1       -2 0.18271108E-01 0.18977446E+03</pdfrwt>
<totfact> 0.22614870E+03</totfact>
</mgrwt>
</event>
<event>
 4    1  0.8130725E-001  0.1773366E+03  0.7546771E-02  0.1170406E+00
         -2   -1    0    0    0  501 -0.00000000000E+00  0.00000000000E+00  0.40744923753E+02  0.40744923753E+02  0.00000000000E+00 0. -1.
          2   -1    0    0  502    0  0.00000000000E+00 -0.00000000000E+00 -0.77317051744E+03  0.77317051744E+03  0.00000000000E+00 0.  1.
          6    1    1    2  502    0 -0.31383155239E+02 -0.23116478750E+02 -0.34928610119E+03  0.39172573889E+03  0.17300000000E+03 0. -1.
         -6    1    1    2    0  501  0.31383155239E+02  0.23116478750E+02 -0.38313949250E+03  0.42218970231E+03  0.17300000000E+03 0.  1.
<mgrwt>
<rscale>  2 0.17733661E+03</rscale>
<asrwt>0</asrwt>
<pdfrwt beam="2">  1        2 0.11894930E+00 0.17733661E+03</pdfrwt>
<pdfrwt beam="1">  1       -2 0.62684502E-02 0.17733661E+03</pdfrwt>
<totfact> 0.50325505E+03</totfact>
</mgrwt>
</event>
<event>
 4    1  0.8130725E-001  0.1917434E+03  0.7546771E-02  0.1156898E+00
          2   -1    0    0  502    0  0.00000000000E+00  0.00000000000E+00  0.10414549310E+04  0.10414549310E+04  0.00000000000E+00 0.  1.
         -2   -1    0    0    0  501 -0.00000000000E+00 -0.00000000000E+00 -0.36027618358E+02  0.36027618358E+02  0.00000000000E+00 0. -1.
          6    1    1    2  502    0 -0.64851707705E+02 -0.51291188843E+02  0.57916608654E+03  0.61008104859E+03  0.17300000000E+03 0.  1.
         -6    1    1    2    0  501  0.64851707705E+02  0.51291188843E+02  0.42626122608E+03  0.46740150075E+03  0.17300000000E+03 0.  1.
<mgrwt>
<rscale>  2 0.19174340E+03</rscale>
<asrwt>0</asrwt>
<pdfrwt beam="1">  1        2 0.16022381E+00 0.19174340E+03</pdfrwt>
<pdfrwt beam="2">  1       -2 0.55427113E-02 0.19174340E+03</pdfrwt>
<totfact> 0.41010048E+03</totfact>
</mgrwt>
</event>
<event>
 4    1  0.8130725E-001  0.1990739E+03  0.7546771E-02  0.1150523E+00
          2   -1    0    0  502    0  0.00000000000E+00  0.00000000000E+00  0.38809729256E+03  0.38809729256E+03  0.00000000000E+00 0.  1.
         -2   -1    0    0    0  501 -0.00000000000E+00 -0.00000000000E+00 -0.10230734743E+03  0.10230734743E+03  0.00000000000E+00 0. -1.
          6    1    1    2  502    0 -0.90702742895E+02  0.38398091141E+02  0.15353792294E+03  0.25140464346E+03  0.17300000000E+03 0. -1.
         -6    1    1    2    0  501  0.90702742895E+02 -0.38398091141E+02  0.13225202219E+03  0.23899999654E+03  0.17300000000E+03 0.  1.
<mgrwt>
<rscale>  2 0.19907386E+03</rscale>
<asrwt>0</asrwt>
<pdfrwt beam="1">  1        2 0.59707275E-01 0.19907386E+03</pdfrwt>
<pdfrwt beam="2">  1       -2 0.15739592E-01 0.19907386E+03</pdfrwt>
<totfact> 0.25742767E+03</totfact>
</mgrwt>
</event>
<event>
 4    1  0.8130725E-001  0.2661566E+03  0.7546771E-02  0.1103500E+00
         -1   -1    0    0    0  501 -0.00000000000E+00  0.00000000000E+00  0.27000915189E+03  0.27000915189E+03  0.00000000000E+00 0.  1.
          1   -1    0    0  502    0  0.00000000000E+00 -0.00000000000E+00 -0.46241211842E+03  0.46241211842E+03  0.00000000000E+00 0. -1.
          6    1    1    2  502    0  0.84994134715E+02  0.18353832413E+03 -0.33707500306E+03  0.42948676004E+03  0.17300000000E+03 0. -1.
         -6    1    1    2    0  501 -0.84994134715E+02 -0.18353832413E+03  0.14467203653E+03  0.30293451027E+03  0.17300000000E+03 0.  1.
<mgrwt>
<rscale>  2 0.26615657E+03</rscale>
<asrwt>0</asrwt>
<pdfrwt beam="2">  1        1 0.71140326E-01 0.26615657E+03</pdfrwt>
<pdfrwt beam="1">  1       -1 0.41539869E-01 0.26615657E+03</pdfrwt>
<totfact> 0.29155714E+02</totfact>
</mgrwt>
</event>
<event>
 4    1  0.8130725E-001  0.2717596E+03  0.7546771E-02  0.1100277E+00
         -2   -1    0    0    0  501 -0.00000000000E+00  0.00000000000E+00  0.31773425358E+02  0.31773425358E+02  0.00000000000E+00 0.  1.
          2   -1    0    0  502    0  0.00000000000E+00 -0.00000000000E+00 -0.23321137298E+04  0.23321137298E+04  0.00000000000E+00 0. -1.
          6    1    1    2  502    0  0.53299743398E+02 -0.20269049024E+03 -0.10820762823E+04  0.11156802312E+04  0.17300000000E+03 0. -1.
         -6    1    1    2    0  501 -0.53299743398E+02  0.20269049024E+03 -0.12182640222E+04  0.12482069240E+04  0.17300000000E+03 0. -1.
<mgrwt>
<rscale>  2 0.27175963E+03</rscale>
<asrwt>0</asrwt>
<pdfrwt beam="2">  1        2 0.35878675E+00 0.27175963E+03</pdfrwt>
<pdfrwt beam="1">  1       -2 0.48882190E-02 0.27175963E+03</pdfrwt>
<totfact> 0.10026329E+03</totfact>
</mgrwt>
</event>
<event>
 4    1  0.8130725E-001  0.3143732E+03  0.7546771E-02  0.1078268E+00
          1   -1    0    0  502    0  0.00000000000E+00  0.00000000000E+00  0.25963859514E+04  0.25963859514E+04  0.00000000000E+00 0.  1.
         -1   -1    0    0    0  501 -0.00000000000E+00 -0.00000000000E+00 -0.79774571661E+02  0.79774571661E+02  0.00000000000E+00 0. -1.
          6    1    1    2  502    0 -0.26143960609E+03 -0.23470434825E+02  0.29076419865E+03  0.42822231161E+03  0.17300000000E+03 0. -1.
         -6    1    1    2    0  501  0.26143960609E+03  0.23470434825E+02  0.22258471811E+04  0.22479382115E+04  0.17300000000E+03 0.  1.
<mgrwt>
<rscale>  2 0.31437323E+03</rscale>
<asrwt>0</asrwt>
<pdfrwt beam="1">  1        1 0.39944393E+00 0.31437323E+03</pdfrwt>
<pdfrwt beam="2">  1       -1 0.12273013E-01 0.31437323E+03</pdfrwt>
<totfact> 0.59833396E+01</totfact>
</mgrwt>
</event>
<event>
 4    1  0.8130725E-001  0.1977368E+03  0.7546771E-02  0.1151663E+00
         -1   -1    0    0    0  501 -0.00000000000E+00  0.00000000000E+00  0.52773948411E+03  0.52773948411E+03  0.00000000000E+00 0. -1.
          1   -1    0    0  502    0  0.00000000000E+00 -0.00000000000E+00 -0.28064593284E+03  0.28064593284E+03  0.00000000000E+00 0.  1.
          6    1    1    2  502    0  0.65895312246E+02  0.69488485501E+02 -0.22321297765E+03  0.29820106503E+03  0.17300000000E+03 0.  1.
         -6    1    1    2    0  501 -0.65895312246E+02 -0.69488485501E+02  0.47030652892E+03  0.51018435192E+03  0.17300000000E+03 0. -1.
<mgrwt>
<rscale>  2 0.19773680E+03</rscale>
<asrwt>0</asrwt>
<pdfrwt beam="2">  1        1 0.43176297E-01 0.19773680E+03</pdfrwt>
<pdfrwt beam="1">  1       -1 0.81190690E-01 0.19773680E+03</pdfrwt>
<totfact> 0.15376191E+02</totfact>
</mgrwt>
</event>
<event>
 4    1  0.8130725E-001  0.1969035E+03  0.7546771E-02  0.1152378E+00
         -2   -1    0    0    0  501 -0.00000000000E+00  0.00000000000E+00  0.10976532193E+03  0.10976532193E+03  0.00000000000E+00 0. -1.
          2   -1    0    0  502    0  0.00000000000E+00 -0.00000000000E+00 -0.49844587236E+03  0.49844587236E+03  0.00000000000E+00 0.  1.
          6    1    1    2  502    0  0.88947992578E+02  0.30499589475E+02 -0.35849069385E+03  0.40900678224E+03  0.17300000000E+03 0.  1.
         -6    1    1    2    0  501 -0.88947992578E+02 -0.30499589475E+02 -0.30189856586E+02  0.19920441206E+03  0.17300000000E+03 0. -1.
<mgrwt>
<rscale>  2 0.19690345E+03</rscale>
<asrwt>0</asrwt>
<pdfrwt beam="2">  1        2 0.76683981E-01 0.19690345E+03</pdfrwt>
<pdfrwt beam="1">  1       -2 0.16886973E-01 0.19690345E+03</pdfrwt>
<totfact> 0.17408828E+03</totfact>
</mgrwt>
</event>
<event>
 4    1  0.8130725E-001  0.1744739E+03  0.7546771E-02  0.1173261E+00
          1   -1    0    0  502    0  0.00000000000E+00  0.00000000000E+00  0.23344508218E+04  0.23344508218E+04  0.00000000000E+00 0.  1.
         -1   -1    0    0    0  501 -0.00000000000E+00 -0.00000000000E+00 -0.13040044303E+02  0.13040044303E+02  0.00000000000E+00 0. -1.
          6    1    1    2  502    0 -0.10451161715E+02  0.20072309493E+02  0.11575661653E+04  0.11706410856E+04  0.17300000000E+03 0. -1.
         -6    1    1    2    0  501  0.10451161715E+02 -0.20072309493E+02  0.11638446122E+04  0.11768497805E+04  0.17300000000E+03 0.  1.
<mgrwt>
<rscale>  2 0.17447385E+03</rscale>
<asrwt>0</asrwt>
<pdfrwt beam="1">  1        1 0.35914595E+00 0.17447385E+03</pdfrwt>
<pdfrwt beam="2">  1       -1 0.20061625E-02 0.17447385E+03</pdfrwt>
<totfact> 0.14032632E+03</totfact>
</mgrwt>
</event>
<event>
 4    1  0.8130725E-001  0.1754582E+03  0.7546771E-02  0.1172272E+00
          1   -1    0    0  502    0  0.00000000000E+00  0.00000000000E+00  0.12527947794E+03  0.12527947794E+03  0.00000000000E+00 0.  1.
         -1   -1    0    0    0  501 -0.00000000000E+00 -0.00000000000E+00 -0.33820467874E+03  0.33820467874E+03  0.00000000000E+00 0. -1.
          6    1    1    2  502    0  0.21177213222E+02 -0.20201749183E+02  0.14712714422E+02  0.17607398728E+03  0.17300000000E+03 0.  1.
         -6    1    1    2    0  501 -0.21177213222E+02  0.20201749183E+02 -0.22763791523E+03  0.28741016941E+03  0.17300000000E+03 0. -1.
<mgrwt>
<rscale>  2 0.17545821E+03</rscale>
<asrwt>0</asrwt>
<pdfrwt beam="1">  1        1 0.19273766E-01 0.17545821E+03</pdfrwt>
<pdfrwt beam="2">  1       -1 0.52031489E-01 0.17545821E+03</pdfrwt>
<totfact> 0.10152216E+03</totfact>
</mgrwt>
</event>
<event>
 4    1  0.8130725E-001  0.4869635E+03  0.7546771E-02  0.1017239E+00
         -2   -1    0    0    0  501 -0.00000000000E+00  0.00000000000E+00  0.54240310568E+02  0.54240310568E+02  0.00000000000E+00 0. -1.
          2   -1    0    0  502    0  0.00000000000E+00 -0.00000000000E+00 -0.44028453133E+04  0.44028453133E+04  0.00000000000E+00 0.  1.
          6    1    1    2  502    0  0.40594174445E+03 -0.20595082826E+03 -0.23611219048E+04  0.24108152341E+04  0.17300000000E+03 0. -1.
         -6    1    1    2    0  501 -0.40594174445E+03  0.20595082826E+03 -0.19874830979E+04  0.20462703897E+04  0.17300000000E+03 0.  1.
<mgrwt>
<rscale>  2 0.48696349E+03</rscale>
<asrwt>0</asrwt>
<pdfrwt beam="2">  1        2 0.67736080E+00 0.48696349E+03</pdfrwt>
<pdfrwt beam="1">  1       -2 0.83446633E-02 0.48696349E+03</pdfrwt>
<totfact> 0.16847591E+01</totfact>
</mgrwt>
</event>
<event>
 4    1  0.8130725E-001  0.1795838E+03  0.7546771E-02  0.1168206E+00
         -2   -1    0    0    0  501 -0.00000000000E+00  0.00000000000E+00  0.15942588531E+02  0.15942588531E+02  0.00000000000E+00 0. -1.
          2   -1    0    0  502    0  0.00000000000E+00 -0.00000000000E+00 -0.20425508868E+04  0.20425508868E+04  0.00000000000E+00 0.  1.
          6    1    1    2  502    0 -0.12536643948E+02 -0.46520673059E+02 -0.91236259744E+03  0.92986872712E+03  0.17300000000E+03 0. -1.
         -6    1    1    2    0  501  0.12536643948E+02  0.46520673059E+02 -0.11142457008E+04  0.11286247482E+04  0.17300000000E+03 0. -1.
<mgrwt>
<rscale>  2 0.17958380E+03</rscale>
<asrwt>0</asrwt>
<pdfrwt beam="2">  1        2 0.31423884E+00 0.17958380E+03</pdfrwt>
<pdfrwt beam="1">  1       -2 0.24527040E-02 0.17958380E+03</pdfrwt>
<totfact> 0.40300731E+03</totfact>
</mgrwt>
</event>
<event>
 4    1  0.8130725E-001  0.2329854E+03  0.7546771E-02  0.1124556E+00
         -2   -1    0    0    0  501 -0.00000000000E+00  0.00000000000E+00  0.33526274566E+02  0.33526274566E+02  0.00000000000E+00 0.  1.
          2   -1    0    0  502    0  0.00000000000E+00 -0.00000000000E+00 -0.21967859581E+04  0.21967859581E+04  0.00000000000E+00 0. -1.
          6    1    1    2  502    0 -0.15383541856E+03 -0.26226771513E+02 -0.50976937184E+03  0.56048817295E+03  0.17300000000E+03 0.  1.
         -6    1    1    2    0  501  0.15383541856E+03  0.26226771513E+02 -0.16534903117E+04  0.16698240597E+04  0.17300000000E+03 0. -1.
<mgrwt>
<rscale>  2 0.23298536E+03</rscale>
<asrwt>0</asrwt>
<pdfrwt beam="2">  1        2 0.33796725E+00 0.23298536E+03</pdfrwt>
<pdfrwt beam="1">  1       -2 0.51578857E-02 0.23298536E+03</pdfrwt>
<totfact> 0.10969876E+03</totfact>
</mgrwt>
</event>
<event>
 4    1  0.8130725E-001  0.2607540E+03  0.7546771E-02  0.1106691E+00
         -2   -1    0    0    0  501 -0.00000000000E+00  0.00000000000E+00  0.10846113873E+03  0.10846113873E+03  0.00000000000E+00 0.  1.
          2   -1    0    0  502    0  0.00000000000E+00 -0.00000000000E+00 -0.68277372703E+03  0.68277372703E+03  0.00000000000E+00 0. -1.
          6    1    1    2  502    0  0.17240734109E+03  0.91319949941E+02 -0.17396828172E+03  0.31346066350E+03  0.17300000000E+03 0. -1.
         -6    1    1    2    0  501 -0.17240734109E+03 -0.91319949941E+02 -0.40034430658E+03  0.47777420225E+03  0.17300000000E+03 0.  1.
<mgrwt>
<rscale>  2 0.26075395E+03</rscale>
<asrwt>0</asrwt>
<pdfrwt beam="2">  1        2 0.10504211E+00 0.26075395E+03</pdfrwt>
<pdfrwt beam="1">  1       -2 0.16686330E-01 0.26075395E+03</pdfrwt>
<totfact> 0.12388969E+03</totfact>
</mgrwt>
</event>
<event>
 4    1  0.8130725E-001  0.1758051E+03  0.7546771E-02  0.1171926E+00
         -1   -1    0    0    0  501 -0.00000000000E+00  0.00000000000E+00  0.20216341169E+02  0.20216341169E+02  0.00000000000E+00 0.  1.
          1   -1    0    0  502    0  0.00000000000E+00 -0.00000000000E+00 -0.16717364791E+04  0.16717364791E+04  0.00000000000E+00 0. -1.
          6    1    1    2  502    0  0.10900708101E+02 -0.29319169507E+02 -0.10730995915E+04  0.10874052476E+04  0.17300000000E+03 0. -1.
         -6    1    1    2    0  501 -0.10900708101E+02  0.29319169507E+02 -0.57842054644E+03  0.60454757272E+03  0.17300000000E+03 0. -1.
<mgrwt>
<rscale>  2 0.17580512E+03</rscale>
<asrwt>0</asrwt>
<pdfrwt beam="2">  1        1 0.25719020E+00 0.17580512E+03</pdfrwt>
<pdfrwt beam="1">  1       -1 0.31102066E-02 0.17580512E+03</pdfrwt>
<totfact> 0.19745600E+03</totfact>
</mgrwt>
</event>
<event>
 4    1  0.8130725E-001  0.1868696E+03  0.7546771E-02  0.1161315E+00
         -2   -1    0    0    0  501 -0.00000000000E+00  0.00000000000E+00  0.19318429952E+03  0.19318429952E+03  0.00000000000E+00 0. -1.
          2   -1    0    0  502    0  0.00000000000E+00 -0.00000000000E+00 -0.18080605649E+03  0.18080605649E+03  0.00000000000E+00 0.  1.
          6    1    1    2  502    0 -0.11005736651E+00  0.70648645002E+02  0.91315189582E+01  0.18709256477E+03  0.17300000000E+03 0.  1.
         -6    1    1    2    0  501  0.11005736651E+00 -0.70648645002E+02  0.32467240692E+01  0.18689779124E+03  0.17300000000E+03 0. -1.
<mgrwt>
<rscale>  2 0.18686959E+03</rscale>
<asrwt>0</asrwt>
<pdfrwt beam="2">  1        2 0.27816317E-01 0.18686959E+03</pdfrwt>
<pdfrwt beam="1">  1       -2 0.29720661E-01 0.18686959E+03</pdfrwt>
<totfact> 0.19561251E+03</totfact>
</mgrwt>
</event>
<event>
 4    1  0.8130725E-001  0.2566178E+03  0.7546771E-02  0.1109193E+00
          3   -1    0    0  502    0  0.00000000000E+00  0.00000000000E+00  0.29291661158E+03  0.29291661158E+03  0.00000000000E+00 0.  1.
         -3   -1    0    0    0  501 -0.00000000000E+00 -0.00000000000E+00 -0.24100219857E+03  0.24100219857E+03  0.00000000000E+00 0. -1.
          6    1    1    2  502    0  0.23486594897E+02 -0.18807467377E+03  0.95138801484E+02  0.27368612424E+03  0.17300000000E+03 0.  1.
         -6    1    1    2    0  501 -0.23486594897E+02  0.18807467377E+03 -0.43224388477E+02  0.26023268590E+03  0.17300000000E+03 0. -1.
<mgrwt>
<rscale>  2 0.25661782E+03</rscale>
<asrwt>0</asrwt>
<pdfrwt beam="1">  1        3 0.45064094E-01 0.25661782E+03</pdfrwt>
<pdfrwt beam="2">  1       -3 0.37077261E-01 0.25661782E+03</pdfrwt>
<totfact> 0.88133074E+01</totfact>
</mgrwt>
</event>
<event>
 4    1  0.8130725E-001  0.2001545E+03  0.7546771E-02  0.1149609E+00
          2   -1    0    0  502    0  0.00000000000E+00  0.00000000000E+00  0.19792433935E+03  0.19792433935E+03  0.00000000000E+00 0. -1.
         -2   -1    0    0    0  501 -0.00000000000E+00 -0.00000000000E+00 -0.22810791877E+03  0.22810791877E+03  0.00000000000E+00 0.  1.
          6    1    1    2  502    0  0.98552034741E+02 -0.20501556142E+02  0.56406119161E+02  0.20795063750E+03  0.17300000000E+03 0. -1.
         -6    1    1    2    0  501 -0.98552034741E+02  0.20501556142E+02 -0.86589698582E+02  0.21808162063E+03  0.17300000000E+03 0.  1.
<mgrwt>
<rscale>  2 0.20015448E+03</rscale>
<asrwt>0</asrwt>
<pdfrwt beam="1">  1        2 0.30449898E-01 0.20015448E+03</pdfrwt>
<pdfrwt beam="2">  1       -2 0.35093526E-01 0.20015448E+03</pdfrwt>
<totfact> 0.13086200E+03</totfact>
</mgrwt>
</event>
<event>
 4    1  0.8130725E-001  0.1916538E+03  0.7546771E-02  0.1156978E+00
         -2   -1    0    0    0  501 -0.00000000000E+00  0.00000000000E+00  0.60820922847E+02  0.60820922847E+02  0.00000000000E+00 0. -1.
          2   -1    0    0  502    0  0.00000000000E+00 -0.00000000000E+00 -0.85611111686E+03  0.85611111686E+03  0.00000000000E+00 0.  1.
          6    1    1    2  502    0  0.23238918215E+02  0.79133572527E+02 -0.64647591955E+03  0.67428650007E+03  0.17300000000E+03 0.  1.
         -6    1    1    2    0  501 -0.23238918215E+02 -0.79133572527E+02 -0.14881427446E+03  0.24264553963E+03  0.17300000000E+03 0. -1.
<mgrwt>
<rscale>  2 0.19165378E+03</rscale>
<asrwt>0</asrwt>
<pdfrwt beam="2">  1        2 0.13170940E+00 0.19165378E+03</pdfrwt>
<pdfrwt beam="1">  1       -2 0.93570651E-02 0.19165378E+03</pdfrwt>
<totfact> 0.23804195E+03</totfact>
</mgrwt>
</event>
<event>
 4    1  0.8130725E-001  0.1877623E+03  0.7546771E-02  0.1160495E+00
         -2   -1    0    0    0  501 -0.00000000000E+00  0.00000000000E+00  0.34258023800E+02  0.34258023800E+02  0.00000000000E+00 0.  1.
          2   -1    0    0  502    0  0.00000000000E+00 -0.00000000000E+00 -0.20771492172E+04  0.20771492172E+04  0.00000000000E+00 0. -1.
          6    1    1    2  502    0  0.43841386166E+02  0.58340507893E+02 -0.27155049721E+03  0.33014293047E+03  0.17300000000E+03 0.  1.
         -6    1    1    2    0  501 -0.43841386166E+02 -0.58340507893E+02 -0.17713406962E+04  0.17812643105E+04  0.17300000000E+03 0. -1.
<mgrwt>
<rscale>  2 0.18776230E+03</rscale>
<asrwt>0</asrwt>
<pdfrwt beam="2">  1        2 0.31956154E+00 0.18776230E+03</pdfrwt>
<pdfrwt beam="1">  1       -2 0.52704632E-02 0.18776230E+03</pdfrwt>
<totfact> 0.12346236E+03</totfact>
</mgrwt>
</event>
<event>
 4    1  0.8130725E-001  0.2288200E+03  0.7546771E-02  0.1127473E+00
          1   -1    0    0  502    0  0.00000000000E+00  0.00000000000E+00  0.81389123360E+03  0.81389123360E+03  0.00000000000E+00 0. -1.
         -1   -1    0    0    0  501 -0.00000000000E+00 -0.00000000000E+00 -0.66681752873E+02  0.66681752873E+02  0.00000000000E+00 0.  1.
          6    1    1    2  502    0  0.58350876730E+02 -0.13793023119E+03  0.45626939372E+03  0.51043151660E+03  0.17300000000E+03 0. -1.
         -6    1    1    2    0  501 -0.58350876730E+02  0.13793023119E+03  0.29094008700E+03  0.37014146987E+03  0.17300000000E+03 0.  1.
<mgrwt>
<rscale>  2 0.22881996E+03</rscale>
<asrwt>0</asrwt>
<pdfrwt beam="1">  1        1 0.12521403E+00 0.22881996E+03</pdfrwt>
<pdfrwt beam="2">  1       -1 0.10258732E-01 0.22881996E+03</pdfrwt>
<totfact> 0.13142795E+03</totfact>
</mgrwt>
</event>
<event>
 4    1  0.8130725E-001  0.1818022E+03  0.7546771E-02  0.1166070E+00
          2   -1    0    0  502    0  0.00000000000E+00  0.00000000000E+00  0.74285491124E+03  0.74285491124E+03  0.00000000000E+00 0. -1.
         -2   -1    0    0    0  501 -0.00000000000E+00 -0.00000000000E+00 -0.50369945272E+02  0.50369945272E+02  0.00000000000E+00 0.  1.
          6    1    1    2  502    0  0.40278769997E+02 -0.38738427272E+02  0.21077146930E+03  0.27834629031E+03  0.17300000000E+03 0.  1.
         -6    1    1    2    0  501 -0.40278769997E+02  0.38738427272E+02  0.48171349667E+03  0.51487856620E+03  0.17300000000E+03 0. -1.
<mgrwt>
<rscale>  2 0.18180221E+03</rscale>
<asrwt>0</asrwt>
<pdfrwt beam="1">  1        2 0.11428536E+00 0.18180221E+03</pdfrwt>
<pdfrwt beam="2">  1       -2 0.77492229E-02 0.18180221E+03</pdfrwt>
<totfact> 0.38167796E+03</totfact>
</mgrwt>
</event>
<event>
 4    1  0.8130725E-001  0.1880417E+03  0.7546771E-02  0.1160240E+00
          2   -1    0    0  502    0  0.00000000000E+00  0.00000000000E+00  0.12056330863E+04  0.12056330863E+04  0.00000000000E+00 0. -1.
         -2   -1    0    0    0  501 -0.00000000000E+00 -0.00000000000E+00 -0.29997812341E+02  0.29997812341E+02  0.00000000000E+00 0.  1.
          6    1    1    2  502    0  0.72350331536E+02 -0.14003963628E+02  0.49554874267E+03  0.53002663879E+03  0.17300000000E+03 0.  1.
         -6    1    1    2    0  501 -0.72350331536E+02  0.14003963628E+02  0.68008653125E+03  0.70560425981E+03  0.17300000000E+03 0. -1.
<mgrwt>
<rscale>  2 0.18804170E+03</rscale>
<asrwt>0</asrwt>
<pdfrwt beam="1">  1        2 0.18548198E+00 0.18804170E+03</pdfrwt>
<pdfrwt beam="2">  1       -2 0.46150490E-02 0.18804170E+03</pdfrwt>
<totfact> 0.43504639E+03</totfact>
</mgrwt>
</event>
<event>
 4    1  0.8130725E-001  0.2037514E+03  0.7546771E-02  0.1146612E+00
          1   -1    0    0  502    0  0.00000000000E+00  0.00000000000E+00  0.37215085608E+03  0.37215085608E+03  0.00000000000E+00 0.  1.
         -1   -1    0    0    0  501 -0.00000000000E+00 -0.00000000000E+00 -0.14495539903E+03  0.14495539903E+03  0.00000000000E+00 0. -1.
          6    1    1    2  502    0 -0.88775908919E+02 -0.60864449145E+02  0.23771142288E+03  0.31308363698E+03  0.17300000000E+03 0.  1.
         -6    1    1    2    0  501  0.88775908919E+02  0.60864449145E+02 -0.10515965835E+02  0.20402261814E+03  0.17300000000E+03 0. -1.
<mgrwt>
<rscale>  2 0.20375142E+03</rscale>
<asrwt>0</asrwt>
<pdfrwt beam="1">  1        1 0.57253977E-01 0.20375142E+03</pdfrwt>
<pdfrwt beam="2">  1       -1 0.22300831E-01 0.20375142E+03</pdfrwt>
<totfact> 0.11184967E+03</totfact>
</mgrwt>
</event>
<event>
 4    1  0.8130725E-001  0.1837411E+03  0.7546771E-02  0.1164231E+00
          1   -1    0    0  502    0  0.00000000000E+00  0.00000000000E+00  0.21743474041E+03  0.21743474041E+03  0.00000000000E+00 0.  1.
         -1   -1    0    0    0  501 -0.00000000000E+00 -0.00000000000E+00 -0.17934450020E+03  0.17934450020E+03  0.00000000000E+00 0. -1.
          6    1    1    2  502    0  0.61838579924E+02  0.27900892786E+01  0.91733652194E+02  0.20536761553E+03  0.17300000000E+03 0.  1.
         -6    1    1    2    0  501 -0.61838579924E+02 -0.27900892786E+01 -0.53643411990E+02  0.19141162508E+03  0.17300000000E+03 0. -1.
<mgrwt>
<rscale>  2 0.18374111E+03</rscale>
<asrwt>0</asrwt>
<pdfrwt beam="1">  1        1 0.33451499E-01 0.18374111E+03</pdfrwt>
<pdfrwt beam="2">  1       -1 0.27591462E-01 0.18374111E+03</pdfrwt>
<totfact> 0.15391963E+03</totfact>
</mgrwt>
</event>
<event>
 4    1  0.8130725E-001  0.1898029E+03  0.7546771E-02  0.1158639E+00
         -2   -1    0    0    0  501 -0.00000000000E+00  0.00000000000E+00  0.34057747086E+02  0.34057747086E+02  0.00000000000E+00 0. -1.
          2   -1    0    0  502    0  0.00000000000E+00 -0.00000000000E+00 -0.18078720582E+04  0.18078720582E+04  0.00000000000E+00 0.  1.
          6    1    1    2  502    0 -0.60937352075E+02 -0.48813659992E+02 -0.14801336067E+04  0.14922535401E+04  0.17300000000E+03 0.  1.
         -6    1    1    2    0  501  0.60937352075E+02  0.48813659992E+02 -0.29368070437E+03  0.34967626514E+03  0.17300000000E+03 0.  1.
<mgrwt>
<rscale>  2 0.18980288E+03</rscale>
<asrwt>0</asrwt>
<pdfrwt beam="2">  1        2 0.27813419E+00 0.18980288E+03</pdfrwt>
<pdfrwt beam="1">  1       -2 0.52396529E-02 0.18980288E+03</pdfrwt>
<totfact> 0.17177345E+03</totfact>
</mgrwt>
</event>
<event>
 4    1  0.8130725E-001  0.2309442E+03  0.7546771E-02  0.1125977E+00
         -1   -1    0    0    0  501 -0.00000000000E+00  0.00000000000E+00  0.16003257467E+04  0.16003257467E+04  0.00000000000E+00 0.  1.
          1   -1    0    0  502    0  0.00000000000E+00 -0.00000000000E+00 -0.51220636449E+02  0.51220636449E+02  0.00000000000E+00 0. -1.
          6    1    1    2  502    0 -0.87411027723E+02 -0.12556083426E+03  0.12626188788E+04  0.12835659873E+04  0.17300000000E+03 0.  1.
         -6    1    1    2    0  501  0.87411027723E+02  0.12556083426E+03  0.28648623152E+03  0.36798039584E+03  0.17300000000E+03 0. -1.
<mgrwt>
<rscale>  2 0.23094417E+03</rscale>
<asrwt>0</asrwt>
<pdfrwt beam="2">  1        1 0.78800991E-02 0.23094417E+03</pdfrwt>
<pdfrwt beam="1">  1       -1 0.24620392E+00 0.23094417E+03</pdfrwt>
<totfact> 0.74995788E+01</totfact>
</mgrwt>
</event>
<event>
 4    1  0.8130725E-001  0.3138533E+03  0.7546771E-02  0.1078513E+00
         -2   -1    0    0    0  501 -0.00000000000E+00  0.00000000000E+00  0.84369022089E+03  0.84369022089E+03  0.00000000000E+00 0. -1.
          2   -1    0    0  502    0  0.00000000000E+00 -0.00000000000E+00 -0.36933045905E+03  0.36933045905E+03  0.00000000000E+00 0.  1.
          6    1    1    2  502    0 -0.25539934771E+03  0.57845419650E+02  0.73874505714E+03  0.80265072033E+03  0.17300000000E+03 0. -1.
         -6    1    1    2    0  501  0.25539934771E+03 -0.57845419650E+02 -0.26438529530E+03  0.41036995962E+03  0.17300000000E+03 0.  1.
<mgrwt>
<rscale>  2 0.31385334E+03</rscale>
<asrwt>0</asrwt>
<pdfrwt beam="2">  1        2 0.56820071E-01 0.31385334E+03</pdfrwt>
<pdfrwt beam="1">  1       -2 0.12979850E+00 0.31385334E+03</pdfrwt>
<totfact> 0.40041858E+01</totfact>
</mgrwt>
</event>
<event>
 4    1  0.8130725E-001  0.1732798E+03  0.7546771E-02  0.1174470E+00
          2   -1    0    0  502    0  0.00000000000E+00  0.00000000000E+00  0.58027772187E+02  0.58027772187E+02  0.00000000000E+00 0.  1.
         -2   -1    0    0    0  501 -0.00000000000E+00 -0.00000000000E+00 -0.54831214183E+03  0.54831214183E+03  0.00000000000E+00 0. -1.
          6    1    1    2  502    0  0.84852329235E+01 -0.49897479703E+01 -0.17320476703E+03  0.24500160833E+03  0.17300000000E+03 0.  1.
         -6    1    1    2    0  501 -0.84852329235E+01  0.49897479703E+01 -0.31707960262E+03  0.36133830569E+03  0.17300000000E+03 0. -1.
<mgrwt>
<rscale>  2 0.17327982E+03</rscale>
<asrwt>0</asrwt>
<pdfrwt beam="1">  1        2 0.89273496E-02 0.17327982E+03</pdfrwt>
<pdfrwt beam="2">  1       -2 0.84355714E-01 0.17327982E+03</pdfrwt>
<totfact> 0.92191596E+02</totfact>
</mgrwt>
</event>
<event>
 4    1  0.8130725E-001  0.1889379E+03  0.7546771E-02  0.1159423E+00
          2   -1    0    0  502    0  0.00000000000E+00  0.00000000000E+00  0.11553193701E+04  0.11553193701E+04  0.00000000000E+00 0.  1.
         -2   -1    0    0    0  501 -0.00000000000E+00 -0.00000000000E+00 -0.31055700194E+02  0.31055700194E+02  0.00000000000E+00 0. -1.
          6    1    1    2  502    0  0.29081450808E+02  0.70162648995E+02  0.51991590706E+03  0.55318177709E+03  0.17300000000E+03 0.  1.
         -6    1    1    2    0  501 -0.29081450808E+02 -0.70162648995E+02  0.60434776284E+03  0.63319329320E+03  0.17300000000E+03 0.  1.
<mgrwt>
<rscale>  2 0.18893789E+03</rscale>
<asrwt>0</asrwt>
<pdfrwt beam="1">  1        2 0.17774141E+00 0.18893789E+03</pdfrwt>
<pdfrwt beam="2">  1       -2 0.47778009E-02 0.18893789E+03</pdfrwt>
<totfact> 0.44085151E+03</totfact>
</mgrwt>
</event>
<event>
 4    1  0.8130725E-001  0.2143631E+03  0.7546771E-02  0.1138157E+00
         -2   -1    0    0    0  501 -0.00000000000E+00  0.00000000000E+00  0.16894259640E+02  0.16894259640E+02  0.00000000000E+00 0.  1.
          2   -1    0    0  502    0  0.00000000000E+00 -0.00000000000E+00 -0.27753476985E+04  0.27753476985E+04  0.00000000000E+00 0. -1.
          6    1    1    2  502    0 -0.12417585945E+03  0.24553912383E+02 -0.15764739298E+04  0.15909813293E+04  0.17300000000E+03 0. -1.
         -6    1    1    2    0  501  0.12417585945E+03 -0.24553912383E+02 -0.11819795090E+04  0.12012606289E+04  0.17300000000E+03 0. -1.
<mgrwt>
<rscale>  2 0.21436310E+03</rscale>
<asrwt>0</asrwt>
<pdfrwt beam="2">  1        2 0.42697646E+00 0.21436310E+03</pdfrwt>
<pdfrwt beam="1">  1       -2 0.25991175E-02 0.21436310E+03</pdfrwt>
<totfact> 0.14883136E+03</totfact>
</mgrwt>
</event>
<event>
 4    1  0.8130725E-001  0.2063219E+03  0.7546771E-02  0.1144512E+00
          1   -1    0    0  502    0  0.00000000000E+00  0.00000000000E+00  0.11378168823E+04  0.11378168823E+04  0.00000000000E+00 0. -1.
         -1   -1    0    0    0  501 -0.00000000000E+00 -0.00000000000E+00 -0.37548351448E+02  0.37548351448E+02  0.00000000000E+00 0.  1.
          6    1    1    2  502    0 -0.10031131041E+03 -0.50767785936E+02  0.58546596546E+03  0.62075689589E+03  0.17300000000E+03 0.  1.
         -6    1    1    2    0  501  0.10031131041E+03  0.50767785936E+02  0.51480256536E+03  0.55460833783E+03  0.17300000000E+03 0.  1.
<mgrwt>
<rscale>  2 0.20632190E+03</rscale>
<asrwt>0</asrwt>
<pdfrwt beam="1">  1        1 0.17504872E+00 0.20632190E+03</pdfrwt>
<pdfrwt beam="2">  1       -1 0.57766703E-02 0.20632190E+03</pdfrwt>
<totfact> 0.17919532E+03</totfact>
</mgrwt>
</event>
<event>
 4    1  0.8130725E-001  0.1755368E+03  0.7546771E-02  0.1172194E+00
          2   -1    0    0  502    0  0.00000000000E+00  0.00000000000E+00  0.10064249156E+04  0.10064249156E+04  0.00000000000E+00 0. -1.
         -2   -1    0    0    0  501 -0.00000000000E+00 -0.00000000000E+00 -0.31250624439E+02  0.31250624439E+02  0.00000000000E+00 0.  1.
          6    1    1    2  502    0 -0.14664993574E+02  0.25867361315E+02  0.41367797482E+03  0.44938029471E+03  0.17300000000E+03 0.  1.
         -6    1    1    2    0  501  0.14664993574E+02 -0.25867361315E+02  0.56149631635E+03  0.58829524534E+03  0.17300000000E+03 0. -1.
<mgrwt>
<rscale>  2 0.17553684E+03</rscale>
<asrwt>0</asrwt>
<pdfrwt beam="1">  1        2 0.15483458E+00 0.17553684E+03</pdfrwt>
<pdfrwt beam="2">  1       -2 0.48077891E-02 0.17553684E+03</pdfrwt>
<totfact> 0.53248291E+03</totfact>
</mgrwt>
</event>
<event>
 4    1  0.8130725E-001  0.1967922E+03  0.7546771E-02  0.1152474E+00
          1   -1    0    0  502    0  0.00000000000E+00  0.00000000000E+00  0.92535657894E+03  0.92535657894E+03  0.00000000000E+00 0. -1.
         -1   -1    0    0    0  501 -0.00000000000E+00 -0.00000000000E+00 -0.88990108873E+02  0.88990108873E+02  0.00000000000E+00 0.  1.
          6    1    1    2  502    0 -0.92173869651E+02 -0.17382634147E+02  0.49056215167E+02  0.20281442371E+03  0.17300000000E+03 0.  1.
         -6    1    1    2    0  501  0.92173869651E+02  0.17382634147E+02  0.78731025490E+03  0.81153226411E+03  0.17300000000E+03 0. -1.
<mgrwt>
<rscale>  2 0.19679222E+03</rscale>
<asrwt>0</asrwt>
<pdfrwt beam="1">  1        1 0.14236254E+00 0.19679222E+03</pdfrwt>
<pdfrwt beam="2">  1       -1 0.13690787E-01 0.19679222E+03</pdfrwt>
<totfact> 0.68382534E+02</totfact>
</mgrwt>
</event>
<event>
 4    1  0.8130725E-001  0.1920391E+03  0.7546771E-02  0.1156635E+00
         -2   -1    0    0    0  501 -0.00000000000E+00  0.00000000000E+00  0.16026984704E+03  0.16026984704E+03  0.00000000000E+00 0.  1.
          2   -1    0    0  502    0  0.00000000000E+00 -0.00000000000E+00 -0.34741456448E+03  0.34741456448E+03  0.00000000000E+00 0. -1.
          6    1    1    2  502    0  0.38291592976E+02  0.74052506212E+02 -0.24107679126E+03  0.30821589682E+03  0.17300000000E+03 0. -1.
         -6    1    1    2    0  501 -0.38291592976E+02 -0.74052506212E+02  0.53932073815E+02  0.19946851470E+03  0.17300000000E+03 0.  1.
<mgrwt>
<rscale>  2 0.19203911E+03</rscale>
<asrwt>0</asrwt>
<pdfrwt beam="2">  1        2 0.53448394E-01 0.19203911E+03</pdfrwt>
<pdfrwt beam="1">  1       -2 0.24656900E-01 0.19203911E+03</pdfrwt>
<totfact> 0.13488088E+03</totfact>
</mgrwt>
</event>
<event>
 4    1  0.8130725E-001  0.1736998E+03  0.7546771E-02  0.1174044E+00
          3   -1    0    0  502    0  0.00000000000E+00  0.00000000000E+00  0.16256699791E+03  0.16256699791E+03  0.00000000000E+00 0.  1.
         -3   -1    0    0    0  501 -0.00000000000E+00 -0.00000000000E+00 -0.22388919506E+03  0.22388919506E+03  0.00000000000E+00 0. -1.
          6    1    1    2  502    0  0.14567017851E+02  0.55155973407E+01  0.49252420527E+02  0.18054755814E+03  0.17300000000E+03 0.  1.
         -6    1    1    2    0  501 -0.14567017851E+02 -0.55155973407E+01 -0.11057461768E+03  0.20590863483E+03  0.17300000000E+03 0. -1.
<mgrwt>
<rscale>  2 0.17369980E+03</rscale>
<asrwt>0</asrwt>
<pdfrwt beam="1">  1        3 0.25010308E-01 0.17369980E+03</pdfrwt>
<pdfrwt beam="2">  1       -3 0.34444491E-01 0.17369980E+03</pdfrwt>
<totfact> 0.29853709E+02</totfact>
</mgrwt>
</event>
<event>
 4    1  0.8130725E-001  0.2543695E+03  0.7546771E-02  0.1110574E+00
         -1   -1    0    0    0  501 -0.00000000000E+00  0.00000000000E+00  0.25027555535E+03  0.25027555535E+03  0.00000000000E+00 0. -1.
          1   -1    0    0  502    0  0.00000000000E+00 -0.00000000000E+00 -0.29295395058E+03  0.29295395058E+03  0.00000000000E+00 0.  1.
          6    1    1    2  502    0  0.18646284601E+03 -0.25415418033E+01  0.71767555338E+02  0.26429989477E+03  0.17300000000E+03 0. -1.
         -6    1    1    2    0  501 -0.18646284601E+03  0.25415418033E+01 -0.11444595057E+03  0.27892961115E+03  0.17300000000E+03 0.  1.
<mgrwt>
<rscale>  2 0.25436952E+03</rscale>
<asrwt>0</asrwt>
<pdfrwt beam="2">  1        1 0.45069839E-01 0.25436952E+03</pdfrwt>
<pdfrwt beam="1">  1       -1 0.38503932E-01 0.25436952E+03</pdfrwt>
<totfact> 0.59921887E+02</totfact>
</mgrwt>
</event>
<event>
 4    1  0.8130725E-001  0.3390013E+03  0.7546771E-02  0.1067222E+00
         -2   -1    0    0    0  501 -0.00000000000E+00  0.00000000000E+00  0.18569229249E+03  0.18569229249E+03  0.00000000000E+00 0.  1.
          2   -1    0    0  502    0  0.00000000000E+00 -0.00000000000E+00 -0.10823669008E+04  0.10823669008E+04  0.00000000000E+00 0. -1.
          6    1    1    2  502    0  0.24324000564E+03  0.16070846421E+03 -0.33441221141E+02  0.34064677612E+03  0.17300000000E+03 0.  1.
         -6    1    1    2    0  501 -0.24324000564E+03 -0.16070846421E+03 -0.86323338719E+03  0.92741241720E+03  0.17300000000E+03 0. -1.
<mgrwt>
<rscale>  2 0.33900134E+03</rscale>
<asrwt>0</asrwt>
<pdfrwt beam="2">  1        2 0.16651798E+00 0.33900134E+03</pdfrwt>
<pdfrwt beam="1">  1       -2 0.28568046E-01 0.33900134E+03</pdfrwt>
<totfact> 0.26160380E+02</totfact>
</mgrwt>
</event>
<event>
 4    1  0.8130725E-001  0.2869463E+03  0.7546771E-02  0.1091954E+00
         -1   -1    0    0    0  501 -0.00000000000E+00  0.00000000000E+00  0.27048491020E+03  0.27048491020E+03  0.00000000000E+00 0. -1.
          1   -1    0    0  502    0  0.00000000000E+00 -0.00000000000E+00 -0.44946712357E+03  0.44946712357E+03  0.00000000000E+00 0.  1.
          6    1    1    2  502    0  0.67602345871E+02 -0.21872156688E+03  0.11500956757E+03  0.30913654203E+03  0.17300000000E+03 0. -1.
         -6    1    1    2    0  501 -0.67602345871E+02  0.21872156688E+03 -0.29399178094E+03  0.41081549173E+03  0.17300000000E+03 0.  1.
<mgrwt>
<rscale>  2 0.28694634E+03</rscale>
<asrwt>0</asrwt>
<pdfrwt beam="2">  1        1 0.69148787E-01 0.28694634E+03</pdfrwt>
<pdfrwt beam="1">  1       -1 0.41613064E-01 0.28694634E+03</pdfrwt>
<totfact> 0.30114055E+02</totfact>
</mgrwt>
</event>
<event>
 4    1  0.8130725E-001  0.2345491E+03  0.7546771E-02  0.1123478E+00
         -2   -1    0    0    0  501 -0.00000000000E+00  0.00000000000E+00  0.25737331955E+03  0.25737331955E+03  0.00000000000E+00 0.  1.
          2   -1    0    0  502    0  0.00000000000E+00 -0.00000000000E+00 -0.21518099907E+03  0.21518099907E+03  0.00000000000E+00 0. -1.
          6    1    1    2  502    0  0.60553948061E+02 -0.14634721166E+03  0.40371087009E+02  0.23799813372E+03  0.17300000000E+03 0.  1.
         -6    1    1    2    0  501 -0.60553948061E+02  0.14634721166E+03  0.18212334736E+01  0.23455618491E+03  0.17300000000E+03 0. -1.
<mgrwt>
<rscale>  2 0.23454911E+03</rscale>
<asrwt>0</asrwt>
<pdfrwt beam="2">  1        2 0.33104769E-01 0.23454911E+03</pdfrwt>
<pdfrwt beam="1">  1       -2 0.39595895E-01 0.23454911E+03</pdfrwt>
<totfact> 0.95438459E+02</totfact>
</mgrwt>
</event>
<event>
 4    1  0.8130725E-001  0.2534888E+03  0.7546771E-02  0.1111120E+00
          1   -1    0    0  502    0  0.00000000000E+00  0.00000000000E+00  0.18261844948E+04  0.18261844948E+04  0.00000000000E+00 0.  1.
         -1   -1    0    0    0  501 -0.00000000000E+00 -0.00000000000E+00 -0.35231484636E+02  0.35231484636E+02  0.00000000000E+00 0. -1.
          6    1    1    2  502    0 -0.18520792433E+03 -0.50578237902E+01  0.86212192771E+03  0.89861603316E+03  0.17300000000E+03 0.  1.
         -6    1    1    2    0  501  0.18520792433E+03  0.50578237902E+01  0.92883108247E+03  0.96279994629E+03  0.17300000000E+03 0. -1.
<mgrwt>
<rscale>  2 0.25348877E+03</rscale>
<asrwt>0</asrwt>
<pdfrwt beam="1">  1        1 0.28095139E+00 0.25348877E+03</pdfrwt>
<pdfrwt beam="2">  1       -1 0.54202298E-02 0.25348877E+03</pdfrwt>
<totfact> 0.68320234E+02</totfact>
</mgrwt>
</event>
<event>
 4    1  0.8130725E-001  0.2281931E+03  0.7546771E-02  0.1127918E+00
          2   -1    0    0  502    0  0.00000000000E+00  0.00000000000E+00  0.90575367905E+03  0.90575367905E+03  0.00000000000E+00 0. -1.
         -2   -1    0    0    0  501 -0.00000000000E+00 -0.00000000000E+00 -0.11389696746E+03  0.11389696746E+03  0.00000000000E+00 0.  1.
          6    1    1    2  502    0 -0.14813922055E+03  0.14066792907E+02  0.75471008632E+03  0.78845381458E+03  0.17300000000E+03 0. -1.
         -6    1    1    2    0  501  0.14813922055E+03 -0.14066792907E+02  0.37146625265E+02  0.23119683194E+03  0.17300000000E+03 0.  1.
<mgrwt>
<rscale>  2 0.22819313E+03</rscale>
<asrwt>0</asrwt>
<pdfrwt beam="1">  1        2 0.13934672E+00 0.22819313E+03</pdfrwt>
<pdfrwt beam="2">  1       -2 0.17522611E-01 0.22819313E+03</pdfrwt>
<totfact> 0.79778202E+02</totfact>
</mgrwt>
</event>
<event>
 4    1  0.8130725E-001  0.1764071E+03  0.7546771E-02  0.1171326E+00
          2   -1    0    0  502    0  0.00000000000E+00  0.00000000000E+00  0.17900574852E+04  0.17900574852E+04  0.00000000000E+00 0. -1.
         -2   -1    0    0    0  501 -0.00000000000E+00 -0.00000000000E+00 -0.18308065564E+02  0.18308065564E+02  0.00000000000E+00 0.  1.
          6    1    1    2  502    0 -0.19936356239E+02  0.28160209941E+02  0.68280627822E+03  0.70522611218E+03  0.17300000000E+03 0.  1.
         -6    1    1    2    0  501  0.19936356239E+02 -0.28160209941E+02  0.10889431414E+04  0.11031394386E+04  0.17300000000E+03 0. -1.
<mgrwt>
<rscale>  2 0.17640707E+03</rscale>
<asrwt>0</asrwt>
<pdfrwt beam="1">  1        2 0.27539332E+00 0.17640707E+03</pdfrwt>
<pdfrwt beam="2">  1       -2 0.28166269E-02 0.17640707E+03</pdfrwt>
<totfact> 0.44391816E+03</totfact>
</mgrwt>
</event>
<event>
 4    1  0.8130725E-001  0.2136377E+03  0.7546771E-02  0.1138717E+00
          4   -1    0    0  502    0  0.00000000000E+00  0.00000000000E+00  0.63813811444E+03  0.63813811444E+03  0.00000000000E+00 0.  1.
         -4   -1    0    0    0  501 -0.00000000000E+00 -0.00000000000E+00 -0.81003968805E+02  0.81003968805E+02  0.00000000000E+00 0. -1.
          6    1    1    2  502    0 -0.12345460050E+03 -0.21702727155E+02  0.15554697606E+03  0.26426484539E+03  0.17300000000E+03 0. -1.
         -6    1    1    2    0  501  0.12345460050E+03  0.21702727155E+02  0.40158716957E+03  0.45487723785E+03  0.17300000000E+03 0.  1.
<mgrwt>
<rscale>  2 0.21363765E+03</rscale>
<asrwt>0</asrwt>
<pdfrwt beam="1">  1        4 0.98175091E-01 0.21363765E+03</pdfrwt>
<pdfrwt beam="2">  1       -4 0.12462149E-01 0.21363765E+03</pdfrwt>
<totfact> 0.83268327E+01</totfact>
</mgrwt>
</event>
