<event>
 4    1  0.4621995E+000  0.2667187E+03  0.7546771E-02  0.1103172E+00
         21   -1    0    0  503  502  0.00000000000E+00  0.00000000000E+00  0.18606876881E+03  0.18606876881E+03  0.00000000000E+00 0. -1.
         21   -1    0    0  501  503 -0.00000000000E+00 -0.00000000000E+00 -0.47967416388E+03  0.47967416388E+03  0.00000000000E+00 0. -1.
          6    1    1    2  501    0 -0.16389342526E+03 -0.11978659520E+03 -0.29676007122E+03  0.39900554270E+03  0.17300000000E+03 0. -1.
         -6    1    1    2    0  502  0.16389342526E+03  0.11978659520E+03  0.31546761493E+01  0.26673738999E+03  0.17300000000E+03 0. -1.
<mgrwt>
<rscale>  2 0.26671873E+03</rscale>
<asrwt>0</asrwt>
<pdfrwt beam="1">  1       21 0.28625964E-01 0.26671873E+03</pdfrwt>
<pdfrwt beam="2">  1       21 0.73796026E-01 0.26671873E+03</pdfrwt>
<totfact> 0.18487409E+04</totfact>
</mgrwt>
</event>
<event>
 4    1  0.4621995E+000  0.1812746E+03  0.7546771E-02  0.1166575E+00
         21   -1    0    0  503  502  0.00000000000E+00  0.00000000000E+00  0.68245202436E+02  0.68245202436E+02  0.00000000000E+00 0.  1.
         21   -1    0    0  501  503 -0.00000000000E+00 -0.00000000000E+00 -0.78412126883E+03  0.78412126883E+03  0.00000000000E+00 0.  1.
          6    1    1    2  501    0  0.19624712881E+01  0.54107624051E+02 -0.62269661095E+03  0.64854572357E+03  0.17300000000E+03 0.  1.
         -6    1    1    2    0  502 -0.19624712881E+01 -0.54107624051E+02 -0.93179455442E+02  0.20382074769E+03  0.17300000000E+03 0.  1.
<mgrwt>
<rscale>  2 0.18127462E+03</rscale>
<asrwt>0</asrwt>
<pdfrwt beam="1">  1       21 0.10499262E-01 0.18127462E+03</pdfrwt>
<pdfrwt beam="2">  1       21 0.12063404E+00 0.18127462E+03</pdfrwt>
<totfact> 0.39046267E+04</totfact>
</mgrwt>
</event>
<event>
 4    1  0.4621995E+000  0.2344245E+03  0.7546771E-02  0.1123564E+00
         21   -1    0    0  501  502  0.00000000000E+00  0.00000000000E+00  0.62334600249E+03  0.62334600249E+03  0.00000000000E+00 0. -1.
         21   -1    0    0  502  503 -0.00000000000E+00 -0.00000000000E+00 -0.94308870126E+02  0.94308870126E+02  0.00000000000E+00 0.  1.
          6    1    1    2  501    0  0.10861549176E+03  0.11501529638E+03  0.35613421127E+03  0.42636418692E+03  0.17300000000E+03 0. -1.
         -6    1    1    2    0  503 -0.10861549176E+03 -0.11501529638E+03  0.17290292109E+03  0.29129068570E+03  0.17300000000E+03 0.  1.
<mgrwt>
<rscale>  2 0.23442449E+03</rscale>
<asrwt>0</asrwt>
<pdfrwt beam="1">  1       21 0.95899383E-01 0.23442449E+03</pdfrwt>
<pdfrwt beam="2">  1       21 0.14509057E-01 0.23442449E+03</pdfrwt>
<totfact> 0.36960611E+04</totfact>
</mgrwt>
</event>
<event>
 4    1  0.4621995E+000  0.1777485E+03  0.7546771E-02  0.1170000E+00
         21   -1    0    0  501  502  0.00000000000E+00  0.00000000000E+00  0.30610528984E+03  0.30610528984E+03  0.00000000000E+00 0. -1.
         21   -1    0    0  502  503 -0.00000000000E+00 -0.00000000000E+00 -0.10789836749E+03  0.10789836749E+03  0.00000000000E+00 0. -1.
          6    1    1    2  501    0 -0.34232266425E+02 -0.22218681252E+02  0.55974697164E+02  0.18635365460E+03  0.17300000000E+03 0. -1.
         -6    1    1    2    0  503  0.34232266425E+02  0.22218681252E+02  0.14223222519E+03  0.22765000273E+03  0.17300000000E+03 0. -1.
<mgrwt>
<rscale>  2 0.17774847E+03</rscale>
<asrwt>0</asrwt>
<pdfrwt beam="1">  1       21 0.47093121E-01 0.17774847E+03</pdfrwt>
<pdfrwt beam="2">  1       21 0.16599749E-01 0.17774847E+03</pdfrwt>
<totfact> 0.14133998E+05</totfact>
</mgrwt>
</event>
<event>
 4    1  0.4621995E+000  0.2554428E+03  0.7546771E-02  0.1109913E+00
         21   -1    0    0  503  502  0.00000000000E+00  0.00000000000E+00  0.15637598501E+03  0.15637598501E+03  0.00000000000E+00 0.  1.
         21   -1    0    0  501  503 -0.00000000000E+00 -0.00000000000E+00 -0.64640599023E+03  0.64640599023E+03  0.00000000000E+00 0. -1.
          6    1    1    2  501    0  0.15948600811E+03 -0.99429614265E+02 -0.48399492591E+03  0.54726787160E+03  0.17300000000E+03 0. -1.
         -6    1    1    2    0  502 -0.15948600811E+03  0.99429614265E+02 -0.60350793175E+01  0.25551410364E+03  0.17300000000E+03 0.  1.
<mgrwt>
<rscale>  2 0.25544282E+03</rscale>
<asrwt>0</asrwt>
<pdfrwt beam="1">  1       21 0.24057844E-01 0.25544282E+03</pdfrwt>
<pdfrwt beam="2">  1       21 0.99447075E-01 0.25544282E+03</pdfrwt>
<totfact> 0.13053420E+04</totfact>
</mgrwt>
</event>
<event>
 4    1  0.4621995E+000  0.1754285E+03  0.7546771E-02  0.1172302E+00
         21   -1    0    0  501  502  0.00000000000E+00  0.00000000000E+00  0.10718437577E+03  0.10718437577E+03  0.00000000000E+00 0. -1.
         21   -1    0    0  502  503 -0.00000000000E+00 -0.00000000000E+00 -0.29537391541E+03  0.29537391541E+03  0.00000000000E+00 0. -1.
          6    1    1    2  501    0 -0.22030725878E+02  0.18994480984E+02 -0.12773454276E+03  0.21700519949E+03  0.17300000000E+03 0.  1.
         -6    1    1    2    0  503  0.22030725878E+02 -0.18994480984E+02 -0.60454996884E+02  0.18555309170E+03  0.17300000000E+03 0.  1.
<mgrwt>
<rscale>  2 0.17542846E+03</rscale>
<asrwt>0</asrwt>
<pdfrwt beam="1">  1       21 0.16489904E-01 0.17542846E+03</pdfrwt>
<pdfrwt beam="2">  1       21 0.45442141E-01 0.17542846E+03</pdfrwt>
<totfact> 0.15408799E+05</totfact>
</mgrwt>
</event>
<event>
 4    1  0.4621995E+000  0.1751917E+03  0.7546771E-02  0.1172539E+00
         21   -1    0    0  501  502  0.00000000000E+00  0.00000000000E+00  0.53356358298E+03  0.53356358298E+03  0.00000000000E+00 0. -1.
         21   -1    0    0  502  503 -0.00000000000E+00 -0.00000000000E+00 -0.61926738872E+02  0.61926738872E+02  0.00000000000E+00 0. -1.
          6    1    1    2  501    0 -0.27623989529E+02 -0.20913610356E+00  0.31521850496E+03  0.36063116116E+03  0.17300000000E+03 0. -1.
         -6    1    1    2    0  503  0.27623989529E+02  0.20913610356E+00  0.15641833915E+03  0.23485916068E+03  0.17300000000E+03 0. -1.
<mgrwt>
<rscale>  2 0.17519169E+03</rscale>
<asrwt>0</asrwt>
<pdfrwt beam="1">  1       21 0.82086702E-01 0.17519169E+03</pdfrwt>
<pdfrwt beam="2">  1       21 0.95271910E-02 0.17519169E+03</pdfrwt>
<totfact> 0.11543223E+05</totfact>
</mgrwt>
</event>
<event>
 4    1  0.4621995E+000  0.1808863E+03  0.7546771E-02  0.1166948E+00
         21   -1    0    0  503  502  0.00000000000E+00  0.00000000000E+00  0.10859349401E+04  0.10859349401E+04  0.00000000000E+00 0. -1.
         21   -1    0    0  501  503 -0.00000000000E+00 -0.00000000000E+00 -0.34063164781E+02  0.34063164781E+02  0.00000000000E+00 0. -1.
          6    1    1    2  501    0 -0.51938419530E+02 -0.96574335828E+01  0.33566031613E+03  0.38129740790E+03  0.17300000000E+03 0. -1.
         -6    1    1    2    0  502  0.51938419530E+02  0.96574335828E+01  0.71621145920E+03  0.73870069700E+03  0.17300000000E+03 0. -1.
<mgrwt>
<rscale>  2 0.18088633E+03</rscale>
<asrwt>0</asrwt>
<pdfrwt beam="1">  1       21 0.16706689E+00 0.18088633E+03</pdfrwt>
<pdfrwt beam="2">  1       21 0.52404877E-02 0.18088633E+03</pdfrwt>
<totfact> 0.55968784E+04</totfact>
</mgrwt>
</event>
<event>
 4    1  0.4621995E+000  0.3219183E+03  0.7546771E-02  0.1074770E+00
         21   -1    0    0  501  502  0.00000000000E+00  0.00000000000E+00  0.22843805663E+03  0.22843805663E+03  0.00000000000E+00 0. -1.
         21   -1    0    0  502  503 -0.00000000000E+00 -0.00000000000E+00 -0.48176157609E+03  0.48176157609E+03  0.00000000000E+00 0.  1.
          6    1    1    2  501    0  0.95875405672E+02 -0.25398881066E+03 -0.40886791366E+02  0.32450445153E+03  0.17300000000E+03 0. -1.
         -6    1    1    2    0  503 -0.95875405672E+02  0.25398881066E+03 -0.21243672809E+03  0.38569518119E+03  0.17300000000E+03 0.  1.
<mgrwt>
<rscale>  2 0.32191833E+03</rscale>
<asrwt>0</asrwt>
<pdfrwt beam="1">  1       21 0.35144317E-01 0.32191833E+03</pdfrwt>
<pdfrwt beam="2">  1       21 0.74117165E-01 0.32191833E+03</pdfrwt>
<totfact> 0.11904248E+04</totfact>
</mgrwt>
</event>
<event>
 4    1  0.4621995E+000  0.2316966E+03  0.7546771E-02  0.1125451E+00
         21   -1    0    0  503  502  0.00000000000E+00  0.00000000000E+00  0.45870234904E+03  0.45870234904E+03  0.00000000000E+00 0.  1.
         21   -1    0    0  501  503 -0.00000000000E+00 -0.00000000000E+00 -0.43751632831E+03  0.43751632831E+03  0.00000000000E+00 0. -1.
          6    1    1    2  501    0  0.11611488298E+03  0.10134920177E+03 -0.37292835364E+03  0.43904314560E+03  0.17300000000E+03 0. -1.
         -6    1    1    2    0  502 -0.11611488298E+03 -0.10134920177E+03  0.39411437437E+03  0.45717553175E+03  0.17300000000E+03 0.  1.
<mgrwt>
<rscale>  2 0.23169663E+03</rscale>
<asrwt>0</asrwt>
<pdfrwt beam="1">  1       21 0.70569592E-01 0.23169663E+03</pdfrwt>
<pdfrwt beam="2">  1       21 0.67310204E-01 0.23169663E+03</pdfrwt>
<totfact> 0.35660776E+03</totfact>
</mgrwt>
</event>
<event>
 4    1  0.4621995E+000  0.2097754E+03  0.7546771E-02  0.1141744E+00
         21   -1    0    0  501  502  0.00000000000E+00  0.00000000000E+00  0.23758392537E+04  0.23758392537E+04  0.00000000000E+00 0.  1.
         21   -1    0    0  502  503 -0.00000000000E+00 -0.00000000000E+00 -0.21360785945E+02  0.21360785945E+02  0.00000000000E+00 0.  1.
          6    1    1    2  501    0 -0.11511897410E+03  0.28711132038E+02  0.16141761145E+04  0.16277500533E+04  0.17300000000E+03 0.  1.
         -6    1    1    2    0  503  0.11511897410E+03 -0.28711132038E+02  0.74030235329E+03  0.76944998641E+03  0.17300000000E+03 0.  1.
<mgrwt>
<rscale>  2 0.20977537E+03</rscale>
<asrwt>0</asrwt>
<pdfrwt beam="1">  1       21 0.36551352E+00 0.20977537E+03</pdfrwt>
<pdfrwt beam="2">  1       21 0.32862766E-02 0.20977537E+03</pdfrwt>
<totfact> 0.75357259E+03</totfact>
</mgrwt>
</event>
<event>
 4    1  0.4621995E+000  0.2524116E+03  0.7546771E-02  0.1111790E+00
         21   -1    0    0  501  502  0.00000000000E+00  0.00000000000E+00  0.11620054510E+03  0.11620054510E+03  0.00000000000E+00 0. -1.
         21   -1    0    0  502  503 -0.00000000000E+00 -0.00000000000E+00 -0.62764494511E+03  0.62764494511E+03  0.00000000000E+00 0.  1.
          6    1    1    2  501    0 -0.92693325899E+02  0.15871529360E+03 -0.12347614863E+03  0.28099458423E+03  0.17300000000E+03 0. -1.
         -6    1    1    2    0  503  0.92693325899E+02 -0.15871529360E+03 -0.38796825138E+03  0.46285090598E+03  0.17300000000E+03 0.  1.
<mgrwt>
<rscale>  2 0.25241156E+03</rscale>
<asrwt>0</asrwt>
<pdfrwt beam="1">  1       21 0.17877007E-01 0.25241156E+03</pdfrwt>
<pdfrwt beam="2">  1       21 0.96560761E-01 0.25241156E+03</pdfrwt>
<totfact> 0.24551257E+04</totfact>
</mgrwt>
</event>
<event>
 4    1  0.4621995E+000  0.1779149E+03  0.7546771E-02  0.1169836E+00
         21   -1    0    0  503  502  0.00000000000E+00  0.00000000000E+00  0.26524760346E+03  0.26524760346E+03  0.00000000000E+00 0.  1.
         21   -1    0    0  501  503 -0.00000000000E+00 -0.00000000000E+00 -0.19009273150E+03  0.19009273150E+03  0.00000000000E+00 0.  1.
          6    1    1    2  501    0 -0.12626774185E+02 -0.39563739286E+02 -0.10132365895E+03  0.20474425207E+03  0.17300000000E+03 0.  1.
         -6    1    1    2    0  502  0.12626774185E+02  0.39563739286E+02  0.17647853091E+03  0.25059608290E+03  0.17300000000E+03 0.  1.
<mgrwt>
<rscale>  2 0.17791494E+03</rscale>
<asrwt>0</asrwt>
<pdfrwt beam="1">  1       21 0.40807323E-01 0.17791494E+03</pdfrwt>
<pdfrwt beam="2">  1       21 0.29245036E-01 0.17791494E+03</pdfrwt>
<totfact> 0.65196388E+04</totfact>
</mgrwt>
</event>
<event>
 4    1  0.4621995E+000  0.1816286E+03  0.7546771E-02  0.1166236E+00
         21   -1    0    0  503  502  0.00000000000E+00  0.00000000000E+00  0.24579662886E+03  0.24579662886E+03  0.00000000000E+00 0.  1.
         21   -1    0    0  501  503 -0.00000000000E+00 -0.00000000000E+00 -0.40537615414E+03  0.40537615414E+03  0.00000000000E+00 0.  1.
          6    1    1    2  501    0 -0.37956877480E+02 -0.40239543949E+02 -0.34607862175E+03  0.39084441646E+03  0.17300000000E+03 0.  1.
         -6    1    1    2    0  502  0.37956877480E+02  0.40239543949E+02  0.18649909647E+03  0.26032836654E+03  0.17300000000E+03 0.  1.
<mgrwt>
<rscale>  2 0.18162859E+03</rscale>
<asrwt>0</asrwt>
<pdfrwt beam="1">  1       21 0.37814866E-01 0.18162859E+03</pdfrwt>
<pdfrwt beam="2">  1       21 0.62365562E-01 0.18162859E+03</pdfrwt>
<totfact> 0.16190355E+04</totfact>
</mgrwt>
</event>
<event>
 4    1  0.4621995E+000  0.1858875E+03  0.7546771E-02  0.1162224E+00
         21   -1    0    0  503  502  0.00000000000E+00  0.00000000000E+00  0.66979392331E+03  0.66979392331E+03  0.00000000000E+00 0. -1.
         21   -1    0    0  501  503 -0.00000000000E+00 -0.00000000000E+00 -0.85108731921E+02  0.85108731921E+02  0.00000000000E+00 0. -1.
          6    1    1    2  501    0 -0.57841439803E+02 -0.35770679085E+02  0.55465824994E+02  0.19398616286E+03  0.17300000000E+03 0. -1.
         -6    1    1    2    0  502  0.57841439803E+02  0.35770679085E+02  0.52921936639E+03  0.56091649237E+03  0.17300000000E+03 0. -1.
<mgrwt>
<rscale>  2 0.18588753E+03</rscale>
<asrwt>0</asrwt>
<pdfrwt beam="1">  1       21 0.10304522E+00 0.18588753E+03</pdfrwt>
<pdfrwt beam="2">  1       21 0.13093652E-01 0.18588753E+03</pdfrwt>
<totfact> 0.38488081E+04</totfact>
</mgrwt>
</event>
<event>
 4    1  0.4621995E+000  0.1848603E+03  0.7546771E-02  0.1163180E+00
         21   -1    0    0  503  502  0.00000000000E+00  0.00000000000E+00  0.66326592280E+03  0.66326592280E+03  0.00000000000E+00 0. -1.
         21   -1    0    0  501  503 -0.00000000000E+00 -0.00000000000E+00 -0.68666287852E+02  0.68666287852E+02  0.00000000000E+00 0. -1.
          6    1    1    2  501    0  0.26516189990E+02 -0.59508043839E+02  0.11443982097E+03  0.21741616370E+03  0.17300000000E+03 0. -1.
         -6    1    1    2    0  502 -0.26516189990E+02  0.59508043839E+02  0.48015981398E+03  0.51451604695E+03  0.17300000000E+03 0. -1.
<mgrwt>
<rscale>  2 0.18486026E+03</rscale>
<asrwt>0</asrwt>
<pdfrwt beam="1">  1       21 0.10204091E+00 0.18486026E+03</pdfrwt>
<pdfrwt beam="2">  1       21 0.10564045E-01 0.18486026E+03</pdfrwt>
<totfact> 0.57826390E+04</totfact>
</mgrwt>
</event>
<event>
 4    1  0.4621995E+000  0.1873797E+03  0.7546771E-02  0.1160846E+00
         21   -1    0    0  501  502  0.00000000000E+00  0.00000000000E+00  0.97645184015E+02  0.97645184015E+02  0.00000000000E+00 0.  1.
         21   -1    0    0  502  503 -0.00000000000E+00 -0.00000000000E+00 -0.55482016259E+03  0.55482016259E+03  0.00000000000E+00 0.  1.
          6    1    1    2  501    0  0.54190179930E+02 -0.47387680699E+02 -0.35062561996E+02  0.19063197826E+03  0.17300000000E+03 0.  1.
         -6    1    1    2    0  503 -0.54190179930E+02  0.47387680699E+02 -0.42211241658E+03  0.46183336834E+03  0.17300000000E+03 0.  1.
<mgrwt>
<rscale>  2 0.18737974E+03</rscale>
<asrwt>0</asrwt>
<pdfrwt beam="1">  1       21 0.15022336E-01 0.18737974E+03</pdfrwt>
<pdfrwt beam="2">  1       21 0.85356947E-01 0.18737974E+03</pdfrwt>
<totfact> 0.46552015E+04</totfact>
</mgrwt>
</event>
<event>
 4    1  0.4621995E+000  0.1869975E+03  0.7546771E-02  0.1161198E+00
         21   -1    0    0  501  502  0.00000000000E+00  0.00000000000E+00  0.27694714833E+04  0.27694714833E+04  0.00000000000E+00 0.  1.
         21   -1    0    0  502  503 -0.00000000000E+00 -0.00000000000E+00 -0.18295514949E+02  0.18295514949E+02  0.00000000000E+00 0.  1.
          6    1    1    2  501    0 -0.64508905696E+02 -0.29625149332E+02  0.21515088118E+04  0.21596199238E+04  0.17300000000E+03 0.  1.
         -6    1    1    2    0  503  0.64508905696E+02  0.29625149332E+02  0.59966715659E+03  0.62814707440E+03  0.17300000000E+03 0.  1.
<mgrwt>
<rscale>  2 0.18699746E+03</rscale>
<asrwt>0</asrwt>
<pdfrwt beam="1">  1       21 0.42607220E+00 0.18699746E+03</pdfrwt>
<pdfrwt beam="2">  1       21 0.28146968E-02 0.18699746E+03</pdfrwt>
<totfact> 0.42254414E+03</totfact>
</mgrwt>
</event>
<event>
 4    1  0.4621995E+000  0.1815690E+03  0.7546771E-02  0.1166293E+00
         21   -1    0    0  501  502  0.00000000000E+00  0.00000000000E+00  0.91884169424E+02  0.91884169424E+02  0.00000000000E+00 0. -1.
         21   -1    0    0  502  503 -0.00000000000E+00 -0.00000000000E+00 -0.70960047502E+03  0.70960047502E+03  0.00000000000E+00 0. -1.
          6    1    1    2  501    0  0.49298888238E+02  0.24656377654E+02 -0.27089149079E+02  0.18357870067E+03  0.17300000000E+03 0. -1.
         -6    1    1    2    0  503 -0.49298888238E+02 -0.24656377654E+02 -0.59062715652E+03  0.61790594378E+03  0.17300000000E+03 0. -1.
<mgrwt>
<rscale>  2 0.18156904E+03</rscale>
<asrwt>0</asrwt>
<pdfrwt beam="1">  1       21 0.14136027E-01 0.18156904E+03</pdfrwt>
<pdfrwt beam="2">  1       21 0.10916930E+00 0.18156904E+03</pdfrwt>
<totfact> 0.29249603E+04</totfact>
</mgrwt>
</event>
<event>
 4    1  0.4621995E+000  0.2040661E+03  0.7546771E-02  0.1146353E+00
         21   -1    0    0  503  502  0.00000000000E+00  0.00000000000E+00  0.90829830696E+02  0.90829830696E+02  0.00000000000E+00 0. -1.
         21   -1    0    0  501  503 -0.00000000000E+00 -0.00000000000E+00 -0.87113995427E+03  0.87113995427E+03  0.00000000000E+00 0. -1.
          6    1    1    2  501    0  0.10150897036E+03 -0.37548827853E+02 -0.72120045140E+03  0.74951522775E+03  0.17300000000E+03 0. -1.
         -6    1    1    2    0  502 -0.10150897036E+03  0.37548827853E+02 -0.59109672174E+02  0.21245455721E+03  0.17300000000E+03 0. -1.
<mgrwt>
<rscale>  2 0.20406613E+03</rscale>
<asrwt>0</asrwt>
<pdfrwt beam="1">  1       21 0.13973820E-01 0.20406613E+03</pdfrwt>
<pdfrwt beam="2">  1       21 0.13402153E+00 0.20406613E+03</pdfrwt>
<totfact> 0.17718246E+04</totfact>
</mgrwt>
</event>
<event>
 4    1  0.4621995E+000  0.2840504E+03  0.7546771E-02  0.1093497E+00
         21   -1    0    0  501  502  0.00000000000E+00  0.00000000000E+00  0.26779859753E+03  0.26779859753E+03  0.00000000000E+00 0.  1.
         21   -1    0    0  502  503 -0.00000000000E+00 -0.00000000000E+00 -0.35857931463E+03  0.35857931463E+03  0.00000000000E+00 0.  1.
          6    1    1    2  501    0 -0.15732484139E+03  0.16125922005E+03  0.79795786120E+02  0.29504577484E+03  0.17300000000E+03 0.  1.
         -6    1    1    2    0  503  0.15732484139E+03 -0.16125922005E+03 -0.17057650322E+03  0.33133213732E+03  0.17300000000E+03 0.  1.
<mgrwt>
<rscale>  2 0.28405042E+03</rscale>
<asrwt>0</asrwt>
<pdfrwt beam="1">  1       21 0.41199784E-01 0.28405042E+03</pdfrwt>
<pdfrwt beam="2">  1       21 0.55166048E-01 0.28405042E+03</pdfrwt>
<totfact> 0.16758117E+04</totfact>
</mgrwt>
</event>
<event>
 4    1  0.4621995E+000  0.1750193E+03  0.7546771E-02  0.1172712E+00
         21   -1    0    0  501  502  0.00000000000E+00  0.00000000000E+00  0.67280689992E+03  0.67280689992E+03  0.00000000000E+00 0. -1.
         21   -1    0    0  502  503 -0.00000000000E+00 -0.00000000000E+00 -0.98110715898E+02  0.98110715898E+02  0.00000000000E+00 0. -1.
          6    1    1    2  501    0 -0.26300893298E+02  0.33207973274E+01  0.56953701130E+03  0.59582226538E+03  0.17300000000E+03 0.  1.
         -6    1    1    2    0  503  0.26300893298E+02 -0.33207973274E+01  0.51591727281E+01  0.17509535044E+03  0.17300000000E+03 0.  1.
<mgrwt>
<rscale>  2 0.17501933E+03</rscale>
<asrwt>0</asrwt>
<pdfrwt beam="1">  1       21 0.10350875E+00 0.17501933E+03</pdfrwt>
<pdfrwt beam="2">  1       21 0.15093957E-01 0.17501933E+03</pdfrwt>
<totfact> 0.29625220E+04</totfact>
</mgrwt>
</event>
<event>
 4    1  0.4621995E+000  0.2358977E+03  0.7546771E-02  0.1122556E+00
         21   -1    0    0  503  502  0.00000000000E+00  0.00000000000E+00  0.37216367091E+03  0.37216367091E+03  0.00000000000E+00 0. -1.
         21   -1    0    0  501  503 -0.00000000000E+00 -0.00000000000E+00 -0.15607022397E+03  0.15607022397E+03  0.00000000000E+00 0.  1.
          6    1    1    2  501    0 -0.14813150986E+03 -0.61447419095E+02  0.53958543952E+02  0.24199019400E+03  0.17300000000E+03 0.  1.
         -6    1    1    2    0  502  0.14813150986E+03  0.61447419095E+02  0.16213490299E+03  0.28624370088E+03  0.17300000000E+03 0. -1.
<mgrwt>
<rscale>  2 0.23589771E+03</rscale>
<asrwt>0</asrwt>
<pdfrwt beam="1">  1       21 0.57255949E-01 0.23589771E+03</pdfrwt>
<pdfrwt beam="2">  1       21 0.24010804E-01 0.23589771E+03</pdfrwt>
<totfact> 0.45907822E+04</totfact>
</mgrwt>
</event>
<event>
 4    1  0.4621995E+000  0.2627326E+03  0.7546771E-02  0.1105512E+00
         21   -1    0    0  501  502  0.00000000000E+00  0.00000000000E+00  0.38084665664E+03  0.38084665664E+03  0.00000000000E+00 0. -1.
         21   -1    0    0  502  503 -0.00000000000E+00 -0.00000000000E+00 -0.18170401813E+03  0.18170401813E+03  0.00000000000E+00 0. -1.
          6    1    1    2  501    0  0.66933237359E+01 -0.19762241170E+03  0.11363289883E+03  0.28625312904E+03  0.17300000000E+03 0. -1.
         -6    1    1    2    0  503 -0.66933237359E+01  0.19762241170E+03  0.85509739685E+02  0.27629754572E+03  0.17300000000E+03 0. -1.
<mgrwt>
<rscale>  2 0.26273260E+03</rscale>
<asrwt>0</asrwt>
<pdfrwt beam="1">  1       21 0.58591793E-01 0.26273260E+03</pdfrwt>
<pdfrwt beam="2">  1       21 0.27954464E-01 0.26273260E+03</pdfrwt>
<totfact> 0.32218178E+04</totfact>
</mgrwt>
</event>
<event>
 4    1  0.4621995E+000  0.3267875E+03  0.7546771E-02  0.1072567E+00
         21   -1    0    0  501  502  0.00000000000E+00  0.00000000000E+00  0.36107046725E+03  0.36107046725E+03  0.00000000000E+00 0. -1.
         21   -1    0    0  502  503 -0.00000000000E+00 -0.00000000000E+00 -0.40366213975E+03  0.40366213975E+03  0.00000000000E+00 0. -1.
          6    1    1    2  501    0  0.12119858336E+02  0.27697326359E+03  0.17639489611E+03  0.37135594661E+03  0.17300000000E+03 0. -1.
         -6    1    1    2    0  503 -0.12119858336E+02 -0.27697326359E+03 -0.21898656861E+03  0.39337666039E+03  0.17300000000E+03 0. -1.
<mgrwt>
<rscale>  2 0.32678751E+03</rscale>
<asrwt>0</asrwt>
<pdfrwt beam="1">  1       21 0.55549303E-01 0.32678751E+03</pdfrwt>
<pdfrwt beam="2">  1       21 0.62101868E-01 0.32678751E+03</pdfrwt>
<totfact> 0.68058657E+03</totfact>
</mgrwt>
</event>
<event>
 4    1  0.4621995E+000  0.2112953E+03  0.7546771E-02  0.1140544E+00
         21   -1    0    0  501  502  0.00000000000E+00  0.00000000000E+00  0.47912699573E+02  0.47912699573E+02  0.00000000000E+00 0.  1.
         21   -1    0    0  502  503 -0.00000000000E+00 -0.00000000000E+00 -0.10594055321E+04  0.10594055321E+04  0.00000000000E+00 0. -1.
          6    1    1    2  501    0  0.10613683553E+03 -0.58751065694E+02 -0.31360429965E+03  0.37814464472E+03  0.17300000000E+03 0.  1.
         -6    1    1    2    0  503 -0.10613683553E+03  0.58751065694E+02 -0.69788853284E+03  0.72917358691E+03  0.17300000000E+03 0.  1.
<mgrwt>
<rscale>  2 0.21129533E+03</rscale>
<asrwt>0</asrwt>
<pdfrwt beam="1">  1       21 0.73711839E-02 0.21129533E+03</pdfrwt>
<pdfrwt beam="2">  1       21 0.16298548E+00 0.21129533E+03</pdfrwt>
<totfact> 0.32734191E+04</totfact>
</mgrwt>
</event>
<event>
 4    1  0.4621995E+000  0.2067840E+03  0.7546771E-02  0.1144138E+00
         21   -1    0    0  503  502  0.00000000000E+00  0.00000000000E+00  0.55135475953E+03  0.55135475953E+03  0.00000000000E+00 0. -1.
         21   -1    0    0  501  503 -0.00000000000E+00 -0.00000000000E+00 -0.78604696636E+02  0.78604696636E+02  0.00000000000E+00 0. -1.
          6    1    1    2  501    0  0.86337376334E+02 -0.73324586252E+02  0.27279550348E+03  0.34231129724E+03  0.17300000000E+03 0. -1.
         -6    1    1    2    0  502 -0.86337376334E+02  0.73324586252E+02  0.19995455941E+03  0.28764815892E+03  0.17300000000E+03 0. -1.
<mgrwt>
<rscale>  2 0.20678404E+03</rscale>
<asrwt>0</asrwt>
<pdfrwt beam="1">  1       21 0.84823807E-01 0.20678404E+03</pdfrwt>
<pdfrwt beam="2">  1       21 0.12093031E-01 0.20678404E+03</pdfrwt>
<totfact> 0.69226957E+04</totfact>
</mgrwt>
</event>
<event>
 4    1  0.4621995E+000  0.2217927E+03  0.7546771E-02  0.1132554E+00
         21   -1    0    0  503  502  0.00000000000E+00  0.00000000000E+00  0.17145979569E+03  0.17145979569E+03  0.00000000000E+00 0. -1.
         21   -1    0    0  501  503 -0.00000000000E+00 -0.00000000000E+00 -0.29239807965E+03  0.29239807965E+03  0.00000000000E+00 0. -1.
          6    1    1    2  501    0  0.10602242329E+03  0.89566987265E+02 -0.92269410826E+02  0.24021999006E+03  0.17300000000E+03 0. -1.
         -6    1    1    2    0  502 -0.10602242329E+03 -0.89566987265E+02 -0.28668873134E+02  0.22363788529E+03  0.17300000000E+03 0. -1.
<mgrwt>
<rscale>  2 0.22179269E+03</rscale>
<asrwt>0</asrwt>
<pdfrwt beam="1">  1       21 0.26378430E-01 0.22179269E+03</pdfrwt>
<pdfrwt beam="2">  1       21 0.44984319E-01 0.22179269E+03</pdfrwt>
<totfact> 0.63981152E+04</totfact>
</mgrwt>
</event>
<event>
 4    1  0.4621995E+000  0.2205430E+03  0.7546771E-02  0.1133479E+00
         21   -1    0    0  501  502  0.00000000000E+00  0.00000000000E+00  0.55528067824E+03  0.55528067824E+03  0.00000000000E+00 0. -1.
         21   -1    0    0  502  503 -0.00000000000E+00 -0.00000000000E+00 -0.88323765270E+02  0.88323765270E+02  0.00000000000E+00 0.  1.
          6    1    1    2  501    0 -0.13646222486E+03 -0.93956618889E+01  0.20422599268E+03  0.30057856438E+03  0.17300000000E+03 0. -1.
         -6    1    1    2    0  503  0.13646222486E+03  0.93956618889E+01  0.26273092029E+03  0.34302587913E+03  0.17300000000E+03 0.  1.
<mgrwt>
<rscale>  2 0.22054301E+03</rscale>
<asrwt>0</asrwt>
<pdfrwt beam="1">  1       21 0.85427794E-01 0.22054301E+03</pdfrwt>
<pdfrwt beam="2">  1       21 0.13588272E-01 0.22054301E+03</pdfrwt>
<totfact> 0.54857501E+04</totfact>
</mgrwt>
</event>
<event>
 4    1  0.4621995E+000  0.2650403E+03  0.7546771E-02  0.1104152E+00
         21   -1    0    0  503  502  0.00000000000E+00  0.00000000000E+00  0.39472752481E+03  0.39472752481E+03  0.00000000000E+00 0. -1.
         21   -1    0    0  501  503 -0.00000000000E+00 -0.00000000000E+00 -0.18142995006E+03  0.18142995006E+03  0.00000000000E+00 0.  1.
          6    1    1    2  501    0 -0.19833262919E+03  0.31329120260E+02  0.66818119379E+02  0.27333314225E+03  0.17300000000E+03 0. -1.
         -6    1    1    2    0  502  0.19833262919E+03 -0.31329120260E+02  0.14647945537E+03  0.30282433261E+03  0.17300000000E+03 0.  1.
<mgrwt>
<rscale>  2 0.26504027E+03</rscale>
<asrwt>0</asrwt>
<pdfrwt beam="1">  1       21 0.60727311E-01 0.26504027E+03</pdfrwt>
<pdfrwt beam="2">  1       21 0.27912300E-01 0.26504027E+03</pdfrwt>
<totfact> 0.29877288E+04</totfact>
</mgrwt>
</event>
<event>
 4    1  0.4621995E+000  0.2007383E+03  0.7546771E-02  0.1149118E+00
         21   -1    0    0  501  502  0.00000000000E+00  0.00000000000E+00  0.54152691368E+03  0.54152691368E+03  0.00000000000E+00 0. -1.
         21   -1    0    0  502  503 -0.00000000000E+00 -0.00000000000E+00 -0.16849665405E+03  0.16849665405E+03  0.00000000000E+00 0.  1.
          6    1    1    2  501    0  0.65952457483E+02  0.77570262048E+02  0.45179695580E+03  0.49438483136E+03  0.17300000000E+03 0. -1.
         -6    1    1    2    0  503 -0.65952457483E+02 -0.77570262048E+02 -0.78766696171E+02  0.21563873638E+03  0.17300000000E+03 0.  1.
<mgrwt>
<rscale>  2 0.20073832E+03</rscale>
<asrwt>0</asrwt>
<pdfrwt beam="1">  1       21 0.83311832E-01 0.20073832E+03</pdfrwt>
<pdfrwt beam="2">  1       21 0.25922562E-01 0.20073832E+03</pdfrwt>
<totfact> 0.17638201E+04</totfact>
</mgrwt>
</event>
<event>
 4    1  0.4621995E+000  0.2183468E+03  0.7546771E-02  0.1135122E+00
         21   -1    0    0  503  502  0.00000000000E+00  0.00000000000E+00  0.78382419592E+02  0.78382419592E+02  0.00000000000E+00 0.  1.
         21   -1    0    0  501  503 -0.00000000000E+00 -0.00000000000E+00 -0.89065130170E+03  0.89065130170E+03  0.00000000000E+00 0. -1.
          6    1    1    2  501    0  0.58749557348E+02  0.11956085578E+03 -0.67896701259E+03  0.71321210934E+03  0.17300000000E+03 0. -1.
         -6    1    1    2    0  502 -0.58749557348E+02 -0.11956085578E+03 -0.13330186951E+03  0.25582161195E+03  0.17300000000E+03 0.  1.
<mgrwt>
<rscale>  2 0.21834676E+03</rscale>
<asrwt>0</asrwt>
<pdfrwt beam="1">  1       21 0.12058834E-01 0.21834676E+03</pdfrwt>
<pdfrwt beam="2">  1       21 0.13702327E+00 0.21834676E+03</pdfrwt>
<totfact> 0.21647467E+04</totfact>
</mgrwt>
</event>
<event>
 4    1  0.4621995E+000  0.1810438E+03  0.7546771E-02  0.1166797E+00
         21   -1    0    0  501  502  0.00000000000E+00  0.00000000000E+00  0.25602792452E+04  0.25602792452E+04  0.00000000000E+00 0.  1.
         21   -1    0    0  502  503 -0.00000000000E+00 -0.00000000000E+00 -0.12833937763E+02  0.12833937763E+02  0.00000000000E+00 0.  1.
          6    1    1    2  501    0 -0.25281793050E+02 -0.46996612483E+02  0.12096035892E+04  0.12230771414E+04  0.17300000000E+03 0.  1.
         -6    1    1    2    0  503  0.25281793050E+02  0.46996612483E+02  0.13378417182E+04  0.13500360416E+04  0.17300000000E+03 0.  1.
<mgrwt>
<rscale>  2 0.18104378E+03</rscale>
<asrwt>0</asrwt>
<pdfrwt beam="1">  1       21 0.39388871E+00 0.18104378E+03</pdfrwt>
<pdfrwt beam="2">  1       21 0.19744540E-02 0.18104378E+03</pdfrwt>
<totfact> 0.12131216E+04</totfact>
</mgrwt>
</event>
<event>
 4    1  0.4621995E+000  0.2480257E+03  0.7546771E-02  0.1114559E+00
         21   -1    0    0  501  502  0.00000000000E+00  0.00000000000E+00  0.26310199397E+03  0.26310199397E+03  0.00000000000E+00 0.  1.
         21   -1    0    0  502  503 -0.00000000000E+00 -0.00000000000E+00 -0.23542935349E+03  0.23542935349E+03  0.00000000000E+00 0. -1.
          6    1    1    2  501    0  0.14907495646E+03 -0.96769891563E+02 -0.68153596564E+01  0.24811933356E+03  0.17300000000E+03 0. -1.
         -6    1    1    2    0  503 -0.14907495646E+03  0.96769891563E+02  0.34488000136E+02  0.25041201391E+03  0.17300000000E+03 0.  1.
<mgrwt>
<rscale>  2 0.24802571E+03</rscale>
<asrwt>0</asrwt>
<pdfrwt beam="1">  1       21 0.40477229E-01 0.24802571E+03</pdfrwt>
<pdfrwt beam="2">  1       21 0.36219901E-01 0.24802571E+03</pdfrwt>
<totfact> 0.42132255E+04</totfact>
</mgrwt>
</event>
<event>
 4    1  0.4621995E+000  0.1872311E+03  0.7546771E-02  0.1160983E+00
         21   -1    0    0  501  502  0.00000000000E+00  0.00000000000E+00  0.11854539944E+03  0.11854539944E+03  0.00000000000E+00 0. -1.
         21   -1    0    0  502  503 -0.00000000000E+00 -0.00000000000E+00 -0.44415682530E+03  0.44415682530E+03  0.00000000000E+00 0. -1.
          6    1    1    2  501    0  0.42883936999E+02 -0.57336441222E+02 -0.15330368455E+00  0.18723120212E+03  0.17300000000E+03 0. -1.
         -6    1    1    2    0  503 -0.42883936999E+02  0.57336441222E+02 -0.32545812217E+03  0.37547102263E+03  0.17300000000E+03 0. -1.
<mgrwt>
<rscale>  2 0.18723114E+03</rscale>
<asrwt>0</asrwt>
<pdfrwt beam="1">  1       21 0.18237754E-01 0.18723114E+03</pdfrwt>
<pdfrwt beam="2">  1       21 0.68331817E-01 0.18723114E+03</pdfrwt>
<totfact> 0.53676796E+04</totfact>
</mgrwt>
</event>
<event>
 4    1  0.4621995E+000  0.2355640E+03  0.7546771E-02  0.1122784E+00
         21   -1    0    0  503  502  0.00000000000E+00  0.00000000000E+00  0.11165372306E+04  0.11165372306E+04  0.00000000000E+00 0.  1.
         21   -1    0    0  501  503 -0.00000000000E+00 -0.00000000000E+00 -0.12872939837E+03  0.12872939837E+03  0.00000000000E+00 0.  1.
          6    1    1    2  501    0 -0.69813054048E+02  0.14383168630E+03  0.60481145844E+01  0.23564166904E+03  0.17300000000E+03 0.  1.
         -6    1    1    2    0  502  0.69813054048E+02 -0.14383168630E+03  0.98175971762E+03  0.10096249599E+04  0.17300000000E+03 0.  1.
<mgrwt>
<rscale>  2 0.23556404E+03</rscale>
<asrwt>0</asrwt>
<pdfrwt beam="1">  1       21 0.17177495E+00 0.23556404E+03</pdfrwt>
<pdfrwt beam="2">  1       21 0.19804524E-01 0.23556404E+03</pdfrwt>
<totfact> 0.47064617E+03</totfact>
</mgrwt>
</event>
<event>
 4    1  0.4621995E+000  0.2141467E+03  0.7546771E-02  0.1138324E+00
         21   -1    0    0  501  502  0.00000000000E+00  0.00000000000E+00  0.12892899928E+03  0.12892899928E+03  0.00000000000E+00 0. -1.
         21   -1    0    0  502  503 -0.00000000000E+00 -0.00000000000E+00 -0.44663380188E+03  0.44663380188E+03  0.00000000000E+00 0.  1.
          6    1    1    2  501    0 -0.12422533052E+03  0.22313034063E+02 -0.28993243182E+02  0.21610046826E+03  0.17300000000E+03 0. -1.
         -6    1    1    2    0  503  0.12422533052E+03 -0.22313034063E+02 -0.28871155942E+03  0.35946233290E+03  0.17300000000E+03 0.  1.
<mgrwt>
<rscale>  2 0.21414669E+03</rscale>
<asrwt>0</asrwt>
<pdfrwt beam="1">  1       21 0.19835231E-01 0.21414669E+03</pdfrwt>
<pdfrwt beam="2">  1       21 0.68712891E-01 0.21414669E+03</pdfrwt>
<totfact> 0.44765488E+04</totfact>
</mgrwt>
</event>
<event>
 4    1  0.4621995E+000  0.2042197E+03  0.7546771E-02  0.1146227E+00
         21   -1    0    0  503  502  0.00000000000E+00  0.00000000000E+00  0.12496423296E+03  0.12496423296E+03  0.00000000000E+00 0.  1.
         21   -1    0    0  501  503 -0.00000000000E+00 -0.00000000000E+00 -0.48208010830E+03  0.48208010830E+03  0.00000000000E+00 0.  1.
          6    1    1    2  501    0  0.25853581094E+02  0.10539582080E+03 -0.34692559206E+03  0.40257055670E+03  0.17300000000E+03 0.  1.
         -6    1    1    2    0  502 -0.25853581094E+02 -0.10539582080E+03 -0.10190283279E+02  0.20447378456E+03  0.17300000000E+03 0.  1.
<mgrwt>
<rscale>  2 0.20421970E+03</rscale>
<asrwt>0</asrwt>
<pdfrwt beam="1">  1       21 0.19225267E-01 0.20421970E+03</pdfrwt>
<pdfrwt beam="2">  1       21 0.74166169E-01 0.20421970E+03</pdfrwt>
<totfact> 0.40259368E+04</totfact>
</mgrwt>
</event>
<event>
 4    1  0.4621995E+000  0.1819286E+03  0.7546771E-02  0.1165949E+00
         21   -1    0    0  503  502  0.00000000000E+00  0.00000000000E+00  0.82246833125E+03  0.82246833125E+03  0.00000000000E+00 0. -1.
         21   -1    0    0  501  503 -0.00000000000E+00 -0.00000000000E+00 -0.16078105132E+03  0.16078105132E+03  0.00000000000E+00 0. -1.
          6    1    1    2  501    0 -0.55505983715E+02 -0.93866549840E+01 -0.94832771947E+02  0.20516159035E+03  0.17300000000E+03 0. -1.
         -6    1    1    2    0  502  0.55505983715E+02  0.93866549840E+01  0.75652005187E+03  0.77808779222E+03  0.17300000000E+03 0. -1.
<mgrwt>
<rscale>  2 0.18192862E+03</rscale>
<asrwt>0</asrwt>
<pdfrwt beam="1">  1       21 0.12653359E+00 0.18192862E+03</pdfrwt>
<pdfrwt beam="2">  1       21 0.24735547E-01 0.18192862E+03</pdfrwt>
<totfact> 0.72114639E+03</totfact>
</mgrwt>
</event>
<event>
 4    1  0.4621995E+000  0.1828947E+03  0.7546771E-02  0.1165031E+00
         21   -1    0    0  503  502  0.00000000000E+00  0.00000000000E+00  0.37482493666E+02  0.37482493666E+02  0.00000000000E+00 0.  1.
         21   -1    0    0  501  503 -0.00000000000E+00 -0.00000000000E+00 -0.10547386778E+04  0.10547386778E+04  0.00000000000E+00 0. -1.
          6    1    1    2  501    0  0.23028747699E+02 -0.54691371660E+02 -0.29439814142E+03  0.34658438371E+03  0.17300000000E+03 0.  1.
         -6    1    1    2    0  502 -0.23028747699E+02  0.54691371660E+02 -0.72285804276E+03  0.74563678781E+03  0.17300000000E+03 0. -1.
<mgrwt>
<rscale>  2 0.18289469E+03</rscale>
<asrwt>0</asrwt>
<pdfrwt beam="1">  1       21 0.57665382E-02 0.18289469E+03</pdfrwt>
<pdfrwt beam="2">  1       21 0.16226747E+00 0.18289469E+03</pdfrwt>
<totfact> 0.51419428E+04</totfact>
</mgrwt>
</event>
<event>
 4    1  0.4621995E+000  0.1831897E+03  0.7546771E-02  0.1164751E+00
         21   -1    0    0  501  502  0.00000000000E+00  0.00000000000E+00  0.59282940512E+02  0.59282940512E+02  0.00000000000E+00 0.  1.
         21   -1    0    0  502  503 -0.00000000000E+00 -0.00000000000E+00 -0.65912043785E+03  0.65912043785E+03  0.00000000000E+00 0.  1.
          6    1    1    2  501    0  0.14412395115E+02 -0.58495721659E+02 -0.16495771274E+03  0.24651473298E+03  0.17300000000E+03 0. -1.
         -6    1    1    2    0  503 -0.14412395115E+02  0.58495721659E+02 -0.43487978459E+03  0.47188864537E+03  0.17300000000E+03 0. -1.
<mgrwt>
<rscale>  2 0.18318970E+03</rscale>
<asrwt>0</asrwt>
<pdfrwt beam="1">  1       21 0.91204525E-02 0.18318970E+03</pdfrwt>
<pdfrwt beam="2">  1       21 0.10140314E+00 0.18318970E+03</pdfrwt>
<totfact> 0.76107495E+04</totfact>
</mgrwt>
</event>
<event>
 4    1  0.4621995E+000  0.2433045E+03  0.7546771E-02  0.1117611E+00
         21   -1    0    0  501  502  0.00000000000E+00  0.00000000000E+00  0.58069141960E+03  0.58069141960E+03  0.00000000000E+00 0. -1.
         21   -1    0    0  502  503 -0.00000000000E+00 -0.00000000000E+00 -0.12640223660E+03  0.12640223660E+03  0.00000000000E+00 0. -1.
          6    1    1    2  501    0 -0.16632494904E+03  0.40050973703E+02  0.38266824897E+03  0.45346671095E+03  0.17300000000E+03 0. -1.
         -6    1    1    2    0  503  0.16632494904E+03 -0.40050973703E+02  0.71620934034E+02  0.25362694526E+03  0.17300000000E+03 0. -1.
<mgrwt>
<rscale>  2 0.24330448E+03</rscale>
<asrwt>0</asrwt>
<pdfrwt beam="1">  1       21 0.89337140E-01 0.24330448E+03</pdfrwt>
<pdfrwt beam="2">  1       21 0.19446498E-01 0.24330448E+03</pdfrwt>
<totfact> 0.25293251E+04</totfact>
</mgrwt>
</event>
<event>
 4    1  0.4621995E+000  0.1882194E+03  0.7546771E-02  0.1160077E+00
         21   -1    0    0  501  502  0.00000000000E+00  0.00000000000E+00  0.31710384310E+03  0.31710384310E+03  0.00000000000E+00 0.  1.
         21   -1    0    0  502  503 -0.00000000000E+00 -0.00000000000E+00 -0.22084160267E+03  0.22084160267E+03  0.00000000000E+00 0.  1.
          6    1    1    2  501    0  0.74028218749E+02  0.41663002623E+01  0.23720219080E+03  0.30280590244E+03  0.17300000000E+03 0.  1.
         -6    1    1    2    0  503 -0.74028218749E+02 -0.41663002623E+01 -0.14093995037E+03  0.23513954333E+03  0.17300000000E+03 0.  1.
<mgrwt>
<rscale>  2 0.18821938E+03</rscale>
<asrwt>0</asrwt>
<pdfrwt beam="1">  1       21 0.48785206E-01 0.18821938E+03</pdfrwt>
<pdfrwt beam="2">  1       21 0.33975631E-01 0.18821938E+03</pdfrwt>
<totfact> 0.33551650E+04</totfact>
</mgrwt>
</event>
<event>
 4    1  0.4621995E+000  0.2361365E+03  0.7546771E-02  0.1122394E+00
         21   -1    0    0  503  502  0.00000000000E+00  0.00000000000E+00  0.52909198690E+03  0.52909198690E+03  0.00000000000E+00 0. -1.
         21   -1    0    0  501  503 -0.00000000000E+00 -0.00000000000E+00 -0.10942215407E+03  0.10942215407E+03  0.00000000000E+00 0.  1.
          6    1    1    2  501    0 -0.96736851380E+01 -0.16043030085E+03  0.14854179987E+03  0.27897155397E+03  0.17300000000E+03 0. -1.
         -6    1    1    2    0  502  0.96736851380E+01  0.16043030085E+03  0.27112803296E+03  0.35954258701E+03  0.17300000000E+03 0.  1.
<mgrwt>
<rscale>  2 0.23613653E+03</rscale>
<asrwt>0</asrwt>
<pdfrwt beam="1">  1       21 0.81398766E-01 0.23613653E+03</pdfrwt>
<pdfrwt beam="2">  1       21 0.16834178E-01 0.23613653E+03</pdfrwt>
<totfact> 0.41118321E+04</totfact>
</mgrwt>
</event>
<event>
 4    1  0.4621995E+000  0.2025222E+03  0.7546771E-02  0.1147628E+00
         21   -1    0    0  501  502  0.00000000000E+00  0.00000000000E+00  0.19952056289E+03  0.19952056289E+03  0.00000000000E+00 0.  1.
         21   -1    0    0  502  503 -0.00000000000E+00 -0.00000000000E+00 -0.23358336137E+03  0.23358336137E+03  0.00000000000E+00 0. -1.
          6    1    1    2  501    0  0.65743299678E+02 -0.82243934851E+02  0.57963442259E+02  0.21065376073E+03  0.17300000000E+03 0.  1.
         -6    1    1    2    0  503 -0.65743299678E+02  0.82243934851E+02 -0.92026240739E+02  0.22245016354E+03  0.17300000000E+03 0. -1.
<mgrwt>
<rscale>  2 0.20252221E+03</rscale>
<asrwt>0</asrwt>
<pdfrwt beam="1">  1       21 0.30695471E-01 0.20252221E+03</pdfrwt>
<pdfrwt beam="2">  1       21 0.35935902E-01 0.20252221E+03</pdfrwt>
<totfact> 0.75764117E+04</totfact>
</mgrwt>
</event>
<event>
 4    1  0.4621995E+000  0.2105804E+03  0.7546771E-02  0.1141107E+00
         21   -1    0    0  501  502  0.00000000000E+00  0.00000000000E+00  0.44264283925E+02  0.44264283925E+02  0.00000000000E+00 0. -1.
         21   -1    0    0  502  503 -0.00000000000E+00 -0.00000000000E+00 -0.13702441440E+04  0.13702441440E+04  0.00000000000E+00 0. -1.
          6    1    1    2  501    0  0.55189618284E+02  0.10662657350E+03 -0.29624825988E+03  0.36346547515E+03  0.17300000000E+03 0. -1.
         -6    1    1    2    0  503 -0.55189618284E+02 -0.10662657350E+03 -0.10297316002E+04  0.10510429528E+04  0.17300000000E+03 0. -1.
<mgrwt>
<rscale>  2 0.21058044E+03</rscale>
<asrwt>0</asrwt>
<pdfrwt beam="1">  1       21 0.68098903E-02 0.21058044E+03</pdfrwt>
<pdfrwt beam="2">  1       21 0.21080678E+00 0.21058044E+03</pdfrwt>
<totfact> 0.17941961E+04</totfact>
</mgrwt>
</event>
<event>
 4    1  0.4621995E+000  0.1924650E+03  0.7546771E-02  0.1156257E+00
         21   -1    0    0  501  502  0.00000000000E+00  0.00000000000E+00  0.36301902756E+03  0.36301902756E+03  0.00000000000E+00 0.  1.
         21   -1    0    0  502  503 -0.00000000000E+00 -0.00000000000E+00 -0.48718393176E+03  0.48718393176E+03  0.00000000000E+00 0.  1.
          6    1    1    2  501    0 -0.50693502801E+02  0.67408723974E+02  0.31588742862E+03  0.36990219634E+03  0.17300000000E+03 0.  1.
         -6    1    1    2    0  503  0.50693502801E+02 -0.67408723974E+02 -0.44005233283E+03  0.48030076298E+03  0.17300000000E+03 0.  1.
<mgrwt>
<rscale>  2 0.19246498E+03</rscale>
<asrwt>0</asrwt>
<pdfrwt beam="1">  1       21 0.55849081E-01 0.19246498E+03</pdfrwt>
<pdfrwt beam="2">  1       21 0.74951374E-01 0.19246498E+03</pdfrwt>
<totfact> 0.48088693E+03</totfact>
</mgrwt>
</event>
<event>
 4    1  0.4621995E+000  0.1839884E+03  0.7546771E-02  0.1163998E+00
         21   -1    0    0  501  502  0.00000000000E+00  0.00000000000E+00  0.17593922789E+03  0.17593922789E+03  0.00000000000E+00 0. -1.
         21   -1    0    0  502  503 -0.00000000000E+00 -0.00000000000E+00 -0.19607862746E+03  0.19607862746E+03  0.00000000000E+00 0.  1.
          6    1    1    2  501    0 -0.45121091863E+00 -0.62630165612E+02  0.15387723251E+02  0.18463077550E+03  0.17300000000E+03 0. -1.
         -6    1    1    2    0  503  0.45121091863E+00  0.62630165612E+02 -0.35527122825E+02  0.18738707984E+03  0.17300000000E+03 0. -1.
<mgrwt>
<rscale>  2 0.18398843E+03</rscale>
<asrwt>0</asrwt>
<pdfrwt beam="1">  1       21 0.27067574E-01 0.18398843E+03</pdfrwt>
<pdfrwt beam="2">  1       21 0.30165943E-01 0.18398843E+03</pdfrwt>
<totfact> 0.13751140E+05</totfact>
</mgrwt>
</event>
<event>
 4    1  0.4621995E+000  0.2230870E+03  0.7546771E-02  0.1131602E+00
         21   -1    0    0  501  502  0.00000000000E+00  0.00000000000E+00  0.98895465461E+02  0.98895465461E+02  0.00000000000E+00 0.  1.
         21   -1    0    0  502  503 -0.00000000000E+00 -0.00000000000E+00 -0.62876307241E+03  0.62876307241E+03  0.00000000000E+00 0.  1.
          6    1    1    2  501    0  0.12812931056E+03  0.58495217858E+02 -0.10237072849E+03  0.24545381804E+03  0.17300000000E+03 0.  1.
         -6    1    1    2    0  503 -0.12812931056E+03 -0.58495217858E+02 -0.42749687846E+03  0.48220471983E+03  0.17300000000E+03 0.  1.
<mgrwt>
<rscale>  2 0.22308700E+03</rscale>
<asrwt>0</asrwt>
<pdfrwt beam="1">  1       21 0.15214687E-01 0.22308700E+03</pdfrwt>
<pdfrwt beam="2">  1       21 0.96732779E-01 0.22308700E+03</pdfrwt>
<totfact> 0.33388786E+04</totfact>
</mgrwt>
</event>
<event>
 4    1  0.4621995E+000  0.2407999E+03  0.7546771E-02  0.1119261E+00
         21   -1    0    0  503  502  0.00000000000E+00  0.00000000000E+00  0.15529588698E+03  0.15529588698E+03  0.00000000000E+00 0.  1.
         21   -1    0    0  501  503 -0.00000000000E+00 -0.00000000000E+00 -0.55893201122E+03  0.55893201122E+03  0.00000000000E+00 0.  1.
          6    1    1    2  501    0  0.16743007530E+03 -0.47693983395E+01 -0.40757697476E+03  0.47339578328E+03  0.17300000000E+03 0.  1.
         -6    1    1    2    0  502 -0.16743007530E+03  0.47693983395E+01  0.39408505197E+01  0.24083211492E+03  0.17300000000E+03 0.  1.
<mgrwt>
<rscale>  2 0.24079987E+03</rscale>
<asrwt>0</asrwt>
<pdfrwt beam="1">  1       21 0.23891675E-01 0.24079987E+03</pdfrwt>
<pdfrwt beam="2">  1       21 0.85989538E-01 0.24079987E+03</pdfrwt>
<totfact> 0.18743928E+04</totfact>
</mgrwt>
</event>
<event>
 4    1  0.4621995E+000  0.2059697E+03  0.7546771E-02  0.1144798E+00
         21   -1    0    0  503  502  0.00000000000E+00  0.00000000000E+00  0.50988430136E+03  0.50988430136E+03  0.00000000000E+00 0. -1.
         21   -1    0    0  501  503 -0.00000000000E+00 -0.00000000000E+00 -0.97268511594E+02  0.97268511594E+02  0.00000000000E+00 0. -1.
          6    1    1    2  501    0  0.52911197613E+02  0.98462782816E+02  0.90863878495E+02  0.22512165344E+03  0.17300000000E+03 0. -1.
         -6    1    1    2    0  502 -0.52911197613E+02 -0.98462782816E+02  0.32175191127E+03  0.38203115951E+03  0.17300000000E+03 0. -1.
<mgrwt>
<rscale>  2 0.20596969E+03</rscale>
<asrwt>0</asrwt>
<pdfrwt beam="1">  1       21 0.78443737E-01 0.20596969E+03</pdfrwt>
<pdfrwt beam="2">  1       21 0.14964387E-01 0.20596969E+03</pdfrwt>
<totfact> 0.56278777E+04</totfact>
</mgrwt>
</event>
<event>
 4    1  0.4621995E+000  0.2363277E+03  0.7546771E-02  0.1122264E+00
         21   -1    0    0  501  502  0.00000000000E+00  0.00000000000E+00  0.11621525031E+04  0.11621525031E+04  0.00000000000E+00 0.  1.
         21   -1    0    0  502  503 -0.00000000000E+00 -0.00000000000E+00 -0.57383856953E+02  0.57383856953E+02  0.00000000000E+00 0. -1.
          6    1    1    2  501    0 -0.11307574701E+03 -0.11461098998E+03  0.79820176220E+03  0.83245231501E+03  0.17300000000E+03 0.  1.
         -6    1    1    2    0  503  0.11307574701E+03  0.11461098998E+03  0.30656688392E+03  0.38708404502E+03  0.17300000000E+03 0. -1.
<mgrwt>
<rscale>  2 0.23632775E+03</rscale>
<asrwt>0</asrwt>
<pdfrwt beam="1">  1       21 0.17879268E+00 0.23632775E+03</pdfrwt>
<pdfrwt beam="2">  1       21 0.88282866E-02 0.23632775E+03</pdfrwt>
<totfact> 0.18185967E+04</totfact>
</mgrwt>
</event>
<event>
 4    1  0.4621995E+000  0.2481549E+03  0.7546771E-02  0.1114476E+00
         21   -1    0    0  501  502  0.00000000000E+00  0.00000000000E+00  0.43256753162E+03  0.43256753162E+03  0.00000000000E+00 0.  1.
         21   -1    0    0  502  503 -0.00000000000E+00 -0.00000000000E+00 -0.18130962689E+03  0.18130962689E+03  0.00000000000E+00 0.  1.
          6    1    1    2  501    0 -0.20414796740E+02 -0.17673453986E+03  0.26788988064E+03  0.36516550995E+03  0.17300000000E+03 0.  1.
         -6    1    1    2    0  503  0.20414796740E+02  0.17673453986E+03 -0.16631975915E+02  0.24871164856E+03  0.17300000000E+03 0.  1.
<mgrwt>
<rscale>  2 0.24815491E+03</rscale>
<asrwt>0</asrwt>
<pdfrwt beam="1">  1       21 0.66548851E-01 0.24815491E+03</pdfrwt>
<pdfrwt beam="2">  1       21 0.27893789E-01 0.24815491E+03</pdfrwt>
<totfact> 0.24677896E+04</totfact>
</mgrwt>
</event>
<event>
 4    1  0.4621995E+000  0.2922035E+03  0.7546771E-02  0.1089204E+00
         21   -1    0    0  501  502  0.00000000000E+00  0.00000000000E+00  0.13786779097E+04  0.13786779097E+04  0.00000000000E+00 0.  1.
         21   -1    0    0  502  503 -0.00000000000E+00 -0.00000000000E+00 -0.78044457609E+02  0.78044457609E+02  0.00000000000E+00 0. -1.
          6    1    1    2  501    0  0.20094059058E+03 -0.12278746954E+03  0.98127276202E+03  0.10238550274E+04  0.17300000000E+03 0.  1.
         -6    1    1    2    0  503 -0.20094059058E+03  0.12278746954E+03  0.31936069011E+03  0.43286733996E+03  0.17300000000E+03 0. -1.
<mgrwt>
<rscale>  2 0.29220350E+03</rscale>
<asrwt>0</asrwt>
<pdfrwt beam="1">  1       21 0.21210428E+00 0.29220350E+03</pdfrwt>
<pdfrwt beam="2">  1       21 0.12006841E-01 0.29220350E+03</pdfrwt>
<totfact> 0.61193347E+03</totfact>
</mgrwt>
</event>
<event>
 4    1  0.4621995E+000  0.1775395E+03  0.7546771E-02  0.1170206E+00
         21   -1    0    0  503  502  0.00000000000E+00  0.00000000000E+00  0.25288217949E+03  0.25288217949E+03  0.00000000000E+00 0.  1.
         21   -1    0    0  501  503 -0.00000000000E+00 -0.00000000000E+00 -0.26946732934E+03  0.26946732934E+03  0.00000000000E+00 0.  1.
          6    1    1    2  501    0 -0.32989619776E+02 -0.22426932390E+02 -0.19976100949E+03  0.26725407990E+03  0.17300000000E+03 0.  1.
         -6    1    1    2    0  502  0.32989619776E+02  0.22426932390E+02  0.18317585964E+03  0.25509542893E+03  0.17300000000E+03 0.  1.
<mgrwt>
<rscale>  2 0.17753952E+03</rscale>
<asrwt>0</asrwt>
<pdfrwt beam="1">  1       21 0.38904951E-01 0.17753952E+03</pdfrwt>
<pdfrwt beam="2">  1       21 0.41456512E-01 0.17753952E+03</pdfrwt>
<totfact> 0.35969920E+04</totfact>
</mgrwt>
</event>
<event>
 4    1  0.4621995E+000  0.2029604E+03  0.7546771E-02  0.1147265E+00
         21   -1    0    0  503  502  0.00000000000E+00  0.00000000000E+00  0.44730600912E+03  0.44730600912E+03  0.00000000000E+00 0.  1.
         21   -1    0    0  501  503 -0.00000000000E+00 -0.00000000000E+00 -0.12528826535E+03  0.12528826535E+03  0.00000000000E+00 0.  1.
          6    1    1    2  501    0 -0.36006959872E+02 -0.99837032620E+02  0.13637935629E+02  0.20341811013E+03  0.17300000000E+03 0.  1.
         -6    1    1    2    0  502  0.36006959872E+02  0.99837032620E+02  0.30837980815E+03  0.36917616434E+03  0.17300000000E+03 0.  1.
<mgrwt>
<rscale>  2 0.20296043E+03</rscale>
<asrwt>0</asrwt>
<pdfrwt beam="1">  1       21 0.68816308E-01 0.20296043E+03</pdfrwt>
<pdfrwt beam="2">  1       21 0.19275118E-01 0.20296043E+03</pdfrwt>
<totfact> 0.47326805E+04</totfact>
</mgrwt>
</event>
<event>
 4    1  0.4621995E+000  0.1918809E+03  0.7546771E-02  0.1156776E+00
         21   -1    0    0  501  502  0.00000000000E+00  0.00000000000E+00  0.29773140151E+03  0.29773140151E+03  0.00000000000E+00 0.  1.
         21   -1    0    0  502  503 -0.00000000000E+00 -0.00000000000E+00 -0.12371170425E+03  0.12371170425E+03  0.00000000000E+00 0.  1.
          6    1    1    2  501    0  0.55061661418E+02  0.62108659420E+02  0.82816378323E+02  0.20899001089E+03  0.17300000000E+03 0.  1.
         -6    1    1    2    0  503 -0.55061661418E+02 -0.62108659420E+02  0.91203318939E+02  0.21245309487E+03  0.17300000000E+03 0.  1.
<mgrwt>
<rscale>  2 0.19188088E+03</rscale>
<asrwt>0</asrwt>
<pdfrwt beam="1">  1       21 0.45804831E-01 0.19188088E+03</pdfrwt>
<pdfrwt beam="2">  1       21 0.19032570E-01 0.19188088E+03</pdfrwt>
<totfact> 0.11571480E+05</totfact>
</mgrwt>
</event>
<event>
 4    1  0.4621995E+000  0.2027002E+03  0.7546771E-02  0.1147481E+00
         21   -1    0    0  503  502  0.00000000000E+00  0.00000000000E+00  0.90999612597E+02  0.90999612597E+02  0.00000000000E+00 0.  1.
         21   -1    0    0  501  503 -0.00000000000E+00 -0.00000000000E+00 -0.64258111126E+03  0.64258111126E+03  0.00000000000E+00 0.  1.
          6    1    1    2  501    0 -0.14139873942E+02  0.10468246609E+03 -0.47579994253E+03  0.51717786114E+03  0.17300000000E+03 0.  1.
         -6    1    1    2    0  502  0.14139873942E+02 -0.10468246609E+03 -0.75781556136E+02  0.21640286272E+03  0.17300000000E+03 0.  1.
<mgrwt>
<rscale>  2 0.20270016E+03</rscale>
<asrwt>0</asrwt>
<pdfrwt beam="1">  1       21 0.13999940E-01 0.20270016E+03</pdfrwt>
<pdfrwt beam="2">  1       21 0.98858636E-01 0.20270016E+03</pdfrwt>
<totfact> 0.37302984E+04</totfact>
</mgrwt>
</event>
<event>
 4    1  0.4621995E+000  0.2255329E+03  0.7546771E-02  0.1129824E+00
         21   -1    0    0  503  502  0.00000000000E+00  0.00000000000E+00  0.11645388957E+04  0.11645388957E+04  0.00000000000E+00 0.  1.
         21   -1    0    0  501  503 -0.00000000000E+00 -0.00000000000E+00 -0.10746138756E+03  0.10746138756E+03  0.00000000000E+00 0.  1.
          6    1    1    2  501    0  0.10336593879E+03 -0.10124997646E+03  0.38552640729E+02  0.22880424197E+03  0.17300000000E+03 0.  1.
         -6    1    1    2    0  502 -0.10336593879E+03  0.10124997646E+03  0.10185248674E+04  0.10431960413E+04  0.17300000000E+03 0.  1.
<mgrwt>
<rscale>  2 0.22553287E+03</rscale>
<asrwt>0</asrwt>
<pdfrwt beam="1">  1       21 0.17915982E+00 0.22553287E+03</pdfrwt>
<pdfrwt beam="2">  1       21 0.16532522E-01 0.22553287E+03</pdfrwt>
<totfact> 0.58924819E+03</totfact>
</mgrwt>
</event>
<event>
 4    1  0.4621995E+000  0.3310570E+03  0.7546771E-02  0.1070670E+00
         21   -1    0    0  503  502  0.00000000000E+00  0.00000000000E+00  0.10748805349E+04  0.10748805349E+04  0.00000000000E+00 0.  1.
         21   -1    0    0  501  503 -0.00000000000E+00 -0.00000000000E+00 -0.19001015124E+03  0.19001015124E+03  0.00000000000E+00 0. -1.
          6    1    1    2  501    0  0.10342877784E+03  0.26262563711E+03  0.11917839407E+02  0.33127144798E+03  0.17300000000E+03 0. -1.
         -6    1    1    2    0  502 -0.10342877784E+03 -0.26262563711E+03  0.87295254425E+03  0.93361923816E+03  0.17300000000E+03 0.  1.
<mgrwt>
<rscale>  2 0.33105700E+03</rscale>
<asrwt>0</asrwt>
<pdfrwt beam="1">  1       21 0.16536623E+00 0.33105700E+03</pdfrwt>
<pdfrwt beam="2">  1       21 0.29232331E-01 0.33105700E+03</pdfrwt>
<totfact> 0.23316283E+03</totfact>
</mgrwt>
</event>
<event>
 4    1  0.4621995E+000  0.2128665E+03  0.7546771E-02  0.1139316E+00
         21   -1    0    0  501  502  0.00000000000E+00  0.00000000000E+00  0.15918090371E+03  0.15918090371E+03  0.00000000000E+00 0. -1.
         21   -1    0    0  502  503 -0.00000000000E+00 -0.00000000000E+00 -0.43683556666E+03  0.43683556666E+03  0.00000000000E+00 0.  1.
          6    1    1    2  501    0 -0.11352963927E+03  0.49941615618E+02  0.37063965911E+02  0.21606915914E+03  0.17300000000E+03 0.  1.
         -6    1    1    2    0  503  0.11352963927E+03 -0.49941615618E+02 -0.31471862886E+03  0.37994731123E+03  0.17300000000E+03 0. -1.
<mgrwt>
<rscale>  2 0.21286649E+03</rscale>
<asrwt>0</asrwt>
<pdfrwt beam="1">  1       21 0.24489371E-01 0.21286649E+03</pdfrwt>
<pdfrwt beam="2">  1       21 0.67205470E-01 0.21286649E+03</pdfrwt>
<totfact> 0.31578710E+04</totfact>
</mgrwt>
</event>
<event>
 4    1  0.4621995E+000  0.2212562E+03  0.7546771E-02  0.1132950E+00
         21   -1    0    0  503  502  0.00000000000E+00  0.00000000000E+00  0.24599874210E+03  0.24599874210E+03  0.00000000000E+00 0. -1.
         21   -1    0    0  501  503 -0.00000000000E+00 -0.00000000000E+00 -0.23287052812E+03  0.23287052812E+03  0.00000000000E+00 0. -1.
          6    1    1    2  501    0 -0.20488943143E+02 -0.13640201607E+03  0.97875753435E+02  0.24193794636E+03  0.17300000000E+03 0. -1.
         -6    1    1    2    0  502  0.20488943143E+02  0.13640201607E+03 -0.84747539449E+02  0.23693132385E+03  0.17300000000E+03 0. -1.
<mgrwt>
<rscale>  2 0.22125620E+03</rscale>
<asrwt>0</asrwt>
<pdfrwt beam="1">  1       21 0.37845960E-01 0.22125620E+03</pdfrwt>
<pdfrwt beam="2">  1       21 0.35826235E-01 0.22125620E+03</pdfrwt>
<totfact> 0.49906688E+04</totfact>
</mgrwt>
</event>
<event>
 4    1  0.4621995E+000  0.1928243E+03  0.7546771E-02  0.1155938E+00
         21   -1    0    0  503  502  0.00000000000E+00  0.00000000000E+00  0.68433976432E+02  0.68433976432E+02  0.00000000000E+00 0. -1.
         21   -1    0    0  501  503 -0.00000000000E+00 -0.00000000000E+00 -0.65241519077E+03  0.65241519077E+03  0.00000000000E+00 0. -1.
          6    1    1    2  501    0 -0.48607800000E+02  0.69925010841E+02 -0.43937943406E+03  0.47982862820E+03  0.17300000000E+03 0. -1.
         -6    1    1    2    0  502  0.48607800000E+02 -0.69925010841E+02 -0.14460178027E+03  0.24102053900E+03  0.17300000000E+03 0. -1.
<mgrwt>
<rscale>  2 0.19282434E+03</rscale>
<asrwt>0</asrwt>
<pdfrwt beam="1">  1       21 0.10528304E-01 0.19282434E+03</pdfrwt>
<pdfrwt beam="2">  1       21 0.10037157E+00 0.19282434E+03</pdfrwt>
<totfact> 0.60281148E+04</totfact>
</mgrwt>
</event>
<event>
 4    1  0.4621995E+000  0.2773084E+03  0.7546771E-02  0.1097168E+00
         21   -1    0    0  503  502  0.00000000000E+00  0.00000000000E+00  0.10900303903E+03  0.10900303903E+03  0.00000000000E+00 0. -1.
         21   -1    0    0  501  503 -0.00000000000E+00 -0.00000000000E+00 -0.12423587479E+04  0.12423587479E+04  0.00000000000E+00 0. -1.
          6    1    1    2  501    0 -0.20060700112E+03 -0.82022898964E+02 -0.10108532763E+04  0.10482004918E+04  0.17300000000E+03 0. -1.
         -6    1    1    2    0  502  0.20060700112E+03  0.82022898964E+02 -0.12250243253E+03  0.30316129507E+03  0.17300000000E+03 0. -1.
<mgrwt>
<rscale>  2 0.27730836E+03</rscale>
<asrwt>0</asrwt>
<pdfrwt beam="1">  1       21 0.16769698E-01 0.27730836E+03</pdfrwt>
<pdfrwt beam="2">  1       21 0.19113212E+00 0.27730836E+03</pdfrwt>
<totfact> 0.45921113E+03</totfact>
</mgrwt>
</event>
<event>
 4    1  0.4621995E+000  0.1836843E+03  0.7546771E-02  0.1164284E+00
         21   -1    0    0  501  502  0.00000000000E+00  0.00000000000E+00  0.20679877177E+02  0.20679877177E+02  0.00000000000E+00 0. -1.
         21   -1    0    0  502  503 -0.00000000000E+00 -0.00000000000E+00 -0.18430856087E+04  0.18430856087E+04  0.00000000000E+00 0.  1.
          6    1    1    2  501    0 -0.43346109602E+02  0.43954849994E+02 -0.59548648766E+03  0.62317258527E+03  0.17300000000E+03 0. -1.
         -6    1    1    2    0  503  0.43346109602E+02 -0.43954849994E+02 -0.12269192439E+04  0.12405929006E+04  0.17300000000E+03 0.  1.
<mgrwt>
<rscale>  2 0.18368428E+03</rscale>
<asrwt>0</asrwt>
<pdfrwt beam="1">  1       21 0.31815197E-02 0.18368428E+03</pdfrwt>
<pdfrwt beam="2">  1       21 0.28355162E+00 0.18368428E+03</pdfrwt>
<totfact> 0.24579108E+04</totfact>
</mgrwt>
</event>
<event>
 4    1  0.4621995E+000  0.2131961E+03  0.7546771E-02  0.1139060E+00
         21   -1    0    0  501  502  0.00000000000E+00  0.00000000000E+00  0.84827728515E+03  0.84827728515E+03  0.00000000000E+00 0.  1.
         21   -1    0    0  502  503 -0.00000000000E+00 -0.00000000000E+00 -0.79573296737E+02  0.79573296737E+02  0.00000000000E+00 0. -1.
          6    1    1    2  501    0 -0.11991870628E+03 -0.33809360066E+02  0.64949282872E+03  0.68358869468E+03  0.17300000000E+03 0.  1.
         -6    1    1    2    0  503  0.11991870628E+03  0.33809360066E+02  0.11921115970E+03  0.24426188720E+03  0.17300000000E+03 0. -1.
<mgrwt>
<rscale>  2 0.21319608E+03</rscale>
<asrwt>0</asrwt>
<pdfrwt beam="1">  1       21 0.13050419E+00 0.21319608E+03</pdfrwt>
<pdfrwt beam="2">  1       21 0.12242046E-01 0.21319608E+03</pdfrwt>
<totfact> 0.23931124E+04</totfact>
</mgrwt>
</event>
<event>
 4    1  0.4621995E+000  0.1778680E+03  0.7546771E-02  0.1169882E+00
         21   -1    0    0  503  502  0.00000000000E+00  0.00000000000E+00  0.15732058458E+03  0.15732058458E+03  0.00000000000E+00 0. -1.
         21   -1    0    0  501  503 -0.00000000000E+00 -0.00000000000E+00 -0.31282328339E+03  0.31282328339E+03  0.00000000000E+00 0. -1.
          6    1    1    2  501    0  0.41238540112E+02 -0.27233002912E+01 -0.21823467219E+03  0.28153757423E+03  0.17300000000E+03 0. -1.
         -6    1    1    2    0  502 -0.41238540112E+02  0.27233002912E+01  0.62731973384E+02  0.18860629374E+03  0.17300000000E+03 0. -1.
<mgrwt>
<rscale>  2 0.17786802E+03</rscale>
<asrwt>0</asrwt>
<pdfrwt beam="1">  1       21 0.24203167E-01 0.17786802E+03</pdfrwt>
<pdfrwt beam="2">  1       21 0.48126659E-01 0.17786802E+03</pdfrwt>
<totfact> 0.66891829E+04</totfact>
</mgrwt>
</event>
<event>
 4    1  0.4621995E+000  0.1926642E+03  0.7546771E-02  0.1156080E+00
         21   -1    0    0  501  502  0.00000000000E+00  0.00000000000E+00  0.18366035264E+04  0.18366035264E+04  0.00000000000E+00 0. -1.
         21   -1    0    0  502  503 -0.00000000000E+00 -0.00000000000E+00 -0.30943267760E+02  0.30943267760E+02  0.00000000000E+00 0. -1.
          6    1    1    2  501    0  0.83862307924E+02 -0.12554528106E+02  0.14527572793E+04  0.14654771289E+04  0.17300000000E+03 0. -1.
         -6    1    1    2    0  503 -0.83862307924E+02  0.12554528106E+02  0.35290297932E+03  0.40206966520E+03  0.17300000000E+03 0. -1.
<mgrwt>
<rscale>  2 0.19266422E+03</rscale>
<asrwt>0</asrwt>
<pdfrwt beam="1">  1       21 0.28255430E+00 0.19266422E+03</pdfrwt>
<pdfrwt beam="2">  1       21 0.47605042E-02 0.19266422E+03</pdfrwt>
<totfact> 0.12573974E+04</totfact>
</mgrwt>
</event>
<event>
 4    1  0.4621995E+000  0.2702104E+03  0.7546771E-02  0.1101159E+00
         21   -1    0    0  501  502  0.00000000000E+00  0.00000000000E+00  0.52881075354E+03  0.52881075354E+03  0.00000000000E+00 0. -1.
         21   -1    0    0  502  503 -0.00000000000E+00 -0.00000000000E+00 -0.13937306068E+03  0.13937306068E+03  0.00000000000E+00 0. -1.
          6    1    1    2  501    0 -0.13119341681E+03  0.16085065482E+03  0.22700556806E+03  0.35290958290E+03  0.17300000000E+03 0. -1.
         -6    1    1    2    0  503  0.13119341681E+03 -0.16085065482E+03  0.16243212480E+03  0.31527423133E+03  0.17300000000E+03 0. -1.
<mgrwt>
<rscale>  2 0.27021037E+03</rscale>
<asrwt>0</asrwt>
<pdfrwt beam="1">  1       21 0.81355499E-01 0.27021037E+03</pdfrwt>
<pdfrwt beam="2">  1       21 0.21442010E-01 0.27021037E+03</pdfrwt>
<totfact> 0.25794964E+04</totfact>
</mgrwt>
</event>
<event>
 4    1  0.4621995E+000  0.1884468E+03  0.7546771E-02  0.1159870E+00
         21   -1    0    0  501  502  0.00000000000E+00  0.00000000000E+00  0.18390635203E+03  0.18390635203E+03  0.00000000000E+00 0. -1.
         21   -1    0    0  502  503 -0.00000000000E+00 -0.00000000000E+00 -0.19722646822E+03  0.19722646822E+03  0.00000000000E+00 0. -1.
          6    1    1    2  501    0 -0.36307063309E+02 -0.65306980043E+02  0.20906660767E+02  0.18960298772E+03  0.17300000000E+03 0. -1.
         -6    1    1    2    0  503  0.36307063309E+02  0.65306980043E+02 -0.34226776954E+02  0.19152983253E+03  0.17300000000E+03 0. -1.
<mgrwt>
<rscale>  2 0.18844682E+03</rscale>
<asrwt>0</asrwt>
<pdfrwt beam="1">  1       21 0.28293285E-01 0.18844682E+03</pdfrwt>
<pdfrwt beam="2">  1       21 0.30342533E-01 0.18844682E+03</pdfrwt>
<totfact> 0.12463447E+05</totfact>
</mgrwt>
</event>
<event>
 4    1  0.4621995E+000  0.2211651E+03  0.7546771E-02  0.1133017E+00
         21   -1    0    0  503  502  0.00000000000E+00  0.00000000000E+00  0.56648425868E+02  0.56648425868E+02  0.00000000000E+00 0. -1.
         21   -1    0    0  501  503 -0.00000000000E+00 -0.00000000000E+00 -0.14682110521E+04  0.14682110521E+04  0.00000000000E+00 0.  1.
          6    1    1    2  501    0 -0.11820565293E+03 -0.70798522432E+02 -0.11950998117E+04  0.12153919397E+04  0.17300000000E+03 0.  1.
         -6    1    1    2    0  502  0.11820565293E+03  0.70798522432E+02 -0.21646281450E+03  0.30946753824E+03  0.17300000000E+03 0. -1.
<mgrwt>
<rscale>  2 0.22116511E+03</rscale>
<asrwt>0</asrwt>
<pdfrwt beam="1">  1       21 0.87151434E-02 0.22116511E+03</pdfrwt>
<pdfrwt beam="2">  1       21 0.22587860E+00 0.22116511E+03</pdfrwt>
<totfact> 0.93387807E+03</totfact>
</mgrwt>
</event>
<event>
 4    1  0.4621995E+000  0.1869176E+03  0.7546771E-02  0.1161271E+00
         21   -1    0    0  501  502  0.00000000000E+00  0.00000000000E+00  0.31905170655E+03  0.31905170655E+03  0.00000000000E+00 0. -1.
         21   -1    0    0  502  503 -0.00000000000E+00 -0.00000000000E+00 -0.12979122182E+03  0.12979122182E+03  0.00000000000E+00 0. -1.
          6    1    1    2  501    0 -0.45723003108E+02 -0.54024007690E+02  0.59089390963E+01  0.18701096754E+03  0.17300000000E+03 0. -1.
         -6    1    1    2    0  503  0.45723003108E+02  0.54024007690E+02  0.18335154564E+03  0.26183196082E+03  0.17300000000E+03 0. -1.
<mgrwt>
<rscale>  2 0.18691759E+03</rscale>
<asrwt>0</asrwt>
<pdfrwt beam="1">  1       21 0.49084878E-01 0.18691759E+03</pdfrwt>
<pdfrwt beam="2">  1       21 0.19967880E-01 0.18691759E+03</pdfrwt>
<totfact> 0.91884789E+04</totfact>
</mgrwt>
</event>
<event>
 4    1  0.4621995E+000  0.2394721E+03  0.7546771E-02  0.1120145E+00
         21   -1    0    0  503  502  0.00000000000E+00  0.00000000000E+00  0.16545412680E+03  0.16545412680E+03  0.00000000000E+00 0.  1.
         21   -1    0    0  501  503 -0.00000000000E+00 -0.00000000000E+00 -0.36137517311E+03  0.36137517311E+03  0.00000000000E+00 0.  1.
          6    1    1    2  501    0 -0.16555172339E+03  0.32390343293E+01 -0.15121864265E+03  0.28322066017E+03  0.17300000000E+03 0.  1.
         -6    1    1    2    0  502  0.16555172339E+03 -0.32390343293E+01 -0.44702403659E+02  0.24360863974E+03  0.17300000000E+03 0.  1.
<mgrwt>
<rscale>  2 0.23947205E+03</rscale>
<asrwt>0</asrwt>
<pdfrwt beam="1">  1       21 0.25454481E-01 0.23947205E+03</pdfrwt>
<pdfrwt beam="2">  1       21 0.55596180E-01 0.23947205E+03</pdfrwt>
<totfact> 0.43642545E+04</totfact>
</mgrwt>
</event>
<event>
 4    1  0.4621995E+000  0.2063715E+03  0.7546771E-02  0.1144472E+00
         21   -1    0    0  503  502  0.00000000000E+00  0.00000000000E+00  0.50454051536E+03  0.50454051536E+03  0.00000000000E+00 0. -1.
         21   -1    0    0  501  503 -0.00000000000E+00 -0.00000000000E+00 -0.92876885259E+02  0.92876885259E+02  0.00000000000E+00 0. -1.
          6    1    1    2  501    0 -0.10733229828E+03 -0.33763758802E+02  0.11565234980E+03  0.23656855175E+03  0.17300000000E+03 0. -1.
         -6    1    1    2    0  502  0.10733229828E+03  0.33763758802E+02  0.29601128030E+03  0.36084884886E+03  0.17300000000E+03 0. -1.
<mgrwt>
<rscale>  2 0.20637154E+03</rscale>
<asrwt>0</asrwt>
<pdfrwt beam="1">  1       21 0.77621616E-01 0.20637154E+03</pdfrwt>
<pdfrwt beam="2">  1       21 0.14288752E-01 0.20637154E+03</pdfrwt>
<totfact> 0.62674826E+04</totfact>
</mgrwt>
</event>
<event>
 4    1  0.4621995E+000  0.1943513E+03  0.7546771E-02  0.1154594E+00
         21   -1    0    0  503  502  0.00000000000E+00  0.00000000000E+00  0.82893439827E+03  0.82893439827E+03  0.00000000000E+00 0. -1.
         21   -1    0    0  501  503 -0.00000000000E+00 -0.00000000000E+00 -0.67730797432E+02  0.67730797432E+02  0.00000000000E+00 0. -1.
          6    1    1    2  501    0 -0.66444232741E+02  0.58554043309E+02  0.12413859048E+03  0.23061396683E+03  0.17300000000E+03 0. -1.
         -6    1    1    2    0  502  0.66444232741E+02 -0.58554043309E+02  0.63706501036E+03  0.66605122887E+03  0.17300000000E+03 0. -1.
<mgrwt>
<rscale>  2 0.19435126E+03</rscale>
<asrwt>0</asrwt>
<pdfrwt beam="1">  1       21 0.12752836E+00 0.19435126E+03</pdfrwt>
<pdfrwt beam="2">  1       21 0.10420123E-01 0.19435126E+03</pdfrwt>
<totfact> 0.34194855E+04</totfact>
</mgrwt>
</event>
<event>
 4    1  0.4621995E+000  0.2153350E+03  0.7546771E-02  0.1137410E+00
         21   -1    0    0  503  502  0.00000000000E+00  0.00000000000E+00  0.70622504415E+03  0.70622504415E+03  0.00000000000E+00 0.  1.
         21   -1    0    0  501  503 -0.00000000000E+00 -0.00000000000E+00 -0.91570780740E+02  0.91570780740E+02  0.00000000000E+00 0. -1.
          6    1    1    2  501    0  0.10371383322E+03  0.75389796710E+02  0.95128775411E+02  0.23541169164E+03  0.17300000000E+03 0. -1.
         -6    1    1    2    0  502 -0.10371383322E+03 -0.75389796710E+02  0.51952548800E+03  0.56238413325E+03  0.17300000000E+03 0.  1.
<mgrwt>
<rscale>  2 0.21533504E+03</rscale>
<asrwt>0</asrwt>
<pdfrwt beam="1">  1       21 0.10865000E+00 0.21533504E+03</pdfrwt>
<pdfrwt beam="2">  1       21 0.14087813E-01 0.21533504E+03</pdfrwt>
<totfact> 0.29201854E+04</totfact>
</mgrwt>
</event>
<event>
 4    1  0.4621995E+000  0.1955827E+03  0.7546771E-02  0.1153520E+00
         21   -1    0    0  501  502  0.00000000000E+00  0.00000000000E+00  0.19716482944E+03  0.19716482944E+03  0.00000000000E+00 0.  1.
         21   -1    0    0  502  503 -0.00000000000E+00 -0.00000000000E+00 -0.23974976083E+03  0.23974976083E+03  0.00000000000E+00 0.  1.
          6    1    1    2  501    0  0.89083819945E+02  0.19688793933E+02  0.74123117055E+02  0.20915738587E+03  0.17300000000E+03 0.  1.
         -6    1    1    2    0  503 -0.89083819945E+02 -0.19688793933E+02 -0.11670804845E+03  0.22775720440E+03  0.17300000000E+03 0.  1.
<mgrwt>
<rscale>  2 0.19558266E+03</rscale>
<asrwt>0</asrwt>
<pdfrwt beam="1">  1       21 0.30333051E-01 0.19558266E+03</pdfrwt>
<pdfrwt beam="2">  1       21 0.36884578E-01 0.19558266E+03</pdfrwt>
<totfact> 0.73840447E+04</totfact>
</mgrwt>
</event>
<event>
 4    1  0.4621995E+000  0.2168887E+03  0.7546771E-02  0.1136224E+00
         21   -1    0    0  501  502  0.00000000000E+00  0.00000000000E+00  0.38485072448E+03  0.38485072448E+03  0.00000000000E+00 0. -1.
         21   -1    0    0  502  503 -0.00000000000E+00 -0.00000000000E+00 -0.12272405594E+03  0.12272405594E+03  0.00000000000E+00 0. -1.
          6    1    1    2  501    0 -0.32790312146E+02 -0.12663528101E+03  0.11497756733E+03  0.24548022315E+03  0.17300000000E+03 0. -1.
         -6    1    1    2    0  503  0.32790312146E+02  0.12663528101E+03  0.14714910121E+03  0.26209455728E+03  0.17300000000E+03 0. -1.
<mgrwt>
<rscale>  2 0.21688868E+03</rscale>
<asrwt>0</asrwt>
<pdfrwt beam="1">  1       21 0.59207803E-01 0.21688868E+03</pdfrwt>
<pdfrwt beam="2">  1       21 0.18880624E-01 0.21688868E+03</pdfrwt>
<totfact> 0.67779103E+04</totfact>
</mgrwt>
</event>
<event>
 4    1  0.4621995E+000  0.1913109E+03  0.7546771E-02  0.1157284E+00
         21   -1    0    0  501  502  0.00000000000E+00  0.00000000000E+00  0.87301889207E+03  0.87301889207E+03  0.00000000000E+00 0.  1.
         21   -1    0    0  502  503 -0.00000000000E+00 -0.00000000000E+00 -0.72041102224E+02  0.72041102224E+02  0.00000000000E+00 0.  1.
          6    1    1    2  501    0 -0.80563216951E+02  0.13431800193E+02  0.70601670445E+03  0.73147756776E+03  0.17300000000E+03 0.  1.
         -6    1    1    2    0  503  0.80563216951E+02 -0.13431800193E+02  0.94961085396E+02  0.21358242653E+03  0.17300000000E+03 0.  1.
<mgrwt>
<rscale>  2 0.19131086E+03</rscale>
<asrwt>0</asrwt>
<pdfrwt beam="1">  1       21 0.13431059E+00 0.19131086E+03</pdfrwt>
<pdfrwt beam="2">  1       21 0.11083247E-01 0.19131086E+03</pdfrwt>
<totfact> 0.26934746E+04</totfact>
</mgrwt>
</event>
<event>
 4    1  0.4621995E+000  0.2405546E+03  0.7546771E-02  0.1119424E+00
         21   -1    0    0  501  502  0.00000000000E+00  0.00000000000E+00  0.43593324761E+02  0.43593324761E+02  0.00000000000E+00 0.  1.
         21   -1    0    0  502  503 -0.00000000000E+00 -0.00000000000E+00 -0.18242902530E+04  0.18242902530E+04  0.00000000000E+00 0. -1.
          6    1    1    2  501    0  0.16204545397E+03  0.40972725856E+02 -0.40293679875E+03  0.46928089371E+03  0.17300000000E+03 0.  1.
         -6    1    1    2    0  503 -0.16204545397E+03 -0.40972725856E+02 -0.13777601295E+04  0.13986026841E+04  0.17300000000E+03 0. -1.
<mgrwt>
<rscale>  2 0.24055455E+03</rscale>
<asrwt>0</asrwt>
<pdfrwt beam="1">  1       21 0.67066652E-02 0.24055455E+03</pdfrwt>
<pdfrwt beam="2">  1       21 0.28066005E+00 0.24055455E+03</pdfrwt>
<totfact> 0.68566677E+03</totfact>
</mgrwt>
</event>
<event>
 4    1  0.4621995E+000  0.2654993E+03  0.7546771E-02  0.1103883E+00
         21   -1    0    0  503  502  0.00000000000E+00  0.00000000000E+00  0.91216406959E+03  0.91216406959E+03  0.00000000000E+00 0. -1.
         21   -1    0    0  501  503 -0.00000000000E+00 -0.00000000000E+00 -0.18032982367E+03  0.18032982367E+03  0.00000000000E+00 0. -1.
          6    1    1    2  501    0 -0.13603356028E+03  0.14851182876E+03 -0.47019905746E+02  0.26963079264E+03  0.17300000000E+03 0. -1.
         -6    1    1    2    0  502  0.13603356028E+03 -0.14851182876E+03  0.77885415166E+03  0.82286310062E+03  0.17300000000E+03 0. -1.
<mgrwt>
<rscale>  2 0.26549933E+03</rscale>
<asrwt>0</asrwt>
<pdfrwt beam="1">  1       21 0.14033293E+00 0.26549933E+03</pdfrwt>
<pdfrwt beam="2">  1       21 0.27743050E-01 0.26549933E+03</pdfrwt>
<totfact> 0.41793270E+03</totfact>
</mgrwt>
</event>
<event>
 4    1  0.4621995E+000  0.1871603E+03  0.7546771E-02  0.1161048E+00
         21   -1    0    0  501  502  0.00000000000E+00  0.00000000000E+00  0.17694374114E+03  0.17694374114E+03  0.00000000000E+00 0. -1.
         21   -1    0    0  502  503 -0.00000000000E+00 -0.00000000000E+00 -0.23544094651E+03  0.23544094651E+03  0.00000000000E+00 0. -1.
          6    1    1    2  501    0 -0.13654211166E+02  0.70096606907E+02  0.53013136202E+02  0.19452342890E+03  0.17300000000E+03 0. -1.
         -6    1    1    2    0  503  0.13654211166E+02 -0.70096606907E+02 -0.11151034158E+03  0.21786125874E+03  0.17300000000E+03 0. -1.
<mgrwt>
<rscale>  2 0.18716028E+03</rscale>
<asrwt>0</asrwt>
<pdfrwt beam="1">  1       21 0.27222114E-01 0.18716028E+03</pdfrwt>
<pdfrwt beam="2">  1       21 0.36221684E-01 0.18716028E+03</pdfrwt>
<totfact> 0.94757403E+04</totfact>
</mgrwt>
</event>
<event>
 4    1  0.4621995E+000  0.1929270E+03  0.7546771E-02  0.1155848E+00
         21   -1    0    0  503  502  0.00000000000E+00  0.00000000000E+00  0.43691959639E+02  0.43691959639E+02  0.00000000000E+00 0. -1.
         21   -1    0    0  501  503 -0.00000000000E+00 -0.00000000000E+00 -0.85492576172E+03  0.85492576172E+03  0.00000000000E+00 0.  1.
          6    1    1    2  501    0  0.31268379279E+02  0.79461348062E+02 -0.43238352719E+03  0.47347263064E+03  0.17300000000E+03 0.  1.
         -6    1    1    2    0  502 -0.31268379279E+02 -0.79461348062E+02 -0.37885027489E+03  0.42514509072E+03  0.17300000000E+03 0. -1.
<mgrwt>
<rscale>  2 0.19292697E+03</rscale>
<asrwt>0</asrwt>
<pdfrwt beam="1">  1       21 0.67218401E-02 0.19292697E+03</pdfrwt>
<pdfrwt beam="2">  1       21 0.13152704E+00 0.19292697E+03</pdfrwt>
<totfact> 0.68078485E+04</totfact>
</mgrwt>
</event>
<event>
 4    1  0.4621995E+000  0.2157314E+03  0.7546771E-02  0.1137106E+00
         21   -1    0    0  503  502  0.00000000000E+00  0.00000000000E+00  0.44793052950E+03  0.44793052950E+03  0.00000000000E+00 0.  1.
         21   -1    0    0  501  503 -0.00000000000E+00 -0.00000000000E+00 -0.12200013572E+03  0.12200013572E+03  0.00000000000E+00 0. -1.
          6    1    1    2  501    0  0.29491546656E+02  0.12546420250E+03  0.53203240453E+02  0.22219496445E+03  0.17300000000E+03 0. -1.
         -6    1    1    2    0  502 -0.29491546656E+02 -0.12546420250E+03  0.27272715333E+03  0.34773570078E+03  0.17300000000E+03 0.  1.
<mgrwt>
<rscale>  2 0.21573135E+03</rscale>
<asrwt>0</asrwt>
<pdfrwt beam="1">  1       21 0.68912388E-01 0.21573135E+03</pdfrwt>
<pdfrwt beam="2">  1       21 0.18769252E-01 0.21573135E+03</pdfrwt>
<totfact> 0.49274477E+04</totfact>
</mgrwt>
</event>
<event>
 4    1  0.4621995E+000  0.3115469E+03  0.7546771E-02  0.1079607E+00
         21   -1    0    0  501  502  0.00000000000E+00  0.00000000000E+00  0.18064025258E+03  0.18064025258E+03  0.00000000000E+00 0.  1.
         21   -1    0    0  502  503 -0.00000000000E+00 -0.00000000000E+00 -0.69242379086E+03  0.69242379086E+03  0.00000000000E+00 0. -1.
          6    1    1    2  501    0  0.71290014692E+02  0.24909875231E+03 -0.49285921991E+02  0.31542123692E+03  0.17300000000E+03 0.  1.
         -6    1    1    2    0  503 -0.71290014692E+02 -0.24909875231E+03 -0.46249761628E+03  0.55764280652E+03  0.17300000000E+03 0. -1.
<mgrwt>
<rscale>  2 0.31154687E+03</rscale>
<asrwt>0</asrwt>
<pdfrwt beam="1">  1       21 0.27790808E-01 0.31154687E+03</pdfrwt>
<pdfrwt beam="2">  1       21 0.10652674E+00 0.31154687E+03</pdfrwt>
<totfact> 0.81354331E+03</totfact>
</mgrwt>
</event>
<event>
 4    1  0.4621995E+000  0.1907996E+03  0.7546771E-02  0.1157742E+00
         21   -1    0    0  503  502  0.00000000000E+00  0.00000000000E+00  0.15774574140E+04  0.15774574140E+04  0.00000000000E+00 0. -1.
         21   -1    0    0  501  503 -0.00000000000E+00 -0.00000000000E+00 -0.18464571785E+03  0.18464571785E+03  0.00000000000E+00 0. -1.
          6    1    1    2  501    0 -0.65257792286E+02 -0.47084162074E+02 -0.12774945497E+03  0.22961798932E+03  0.17300000000E+03 0. -1.
         -6    1    1    2    0  502  0.65257792286E+02  0.47084162074E+02  0.15205611511E+04  0.15324851425E+04  0.17300000000E+03 0. -1.
<mgrwt>
<rscale>  2 0.19079963E+03</rscale>
<asrwt>0</asrwt>
<pdfrwt beam="1">  1       21 0.24268575E+00 0.19079963E+03</pdfrwt>
<pdfrwt beam="2">  1       21 0.28407034E-01 0.19079963E+03</pdfrwt>
<totfact> 0.87216416E+02</totfact>
</mgrwt>
</event>
<event>
 4    1  0.4621995E+000  0.1737634E+03  0.7546771E-02  0.1173979E+00
         21   -1    0    0  503  502  0.00000000000E+00  0.00000000000E+00  0.72131898358E+02  0.72131898358E+02  0.00000000000E+00 0. -1.
         21   -1    0    0  501  503 -0.00000000000E+00 -0.00000000000E+00 -0.41890772329E+03  0.41890772329E+03  0.00000000000E+00 0. -1.
          6    1    1    2  501    0 -0.16138986109E+02  0.20584082552E+01 -0.18014769339E+03  0.25029361828E+03  0.17300000000E+03 0.  1.
         -6    1    1    2    0  502  0.16138986109E+02 -0.20584082552E+01 -0.16662813154E+03  0.24074600337E+03  0.17300000000E+03 0.  1.
<mgrwt>
<rscale>  2 0.17376336E+03</rscale>
<asrwt>0</asrwt>
<pdfrwt beam="1">  1       21 0.11097215E-01 0.17376336E+03</pdfrwt>
<pdfrwt beam="2">  1       21 0.64447342E-01 0.17376336E+03</pdfrwt>
<totfact> 0.15075800E+05</totfact>
</mgrwt>
</event>
<event>
 4    1  0.4621995E+000  0.2511344E+03  0.7546771E-02  0.1112590E+00
         21   -1    0    0  501  502  0.00000000000E+00  0.00000000000E+00  0.13464555830E+03  0.13464555830E+03  0.00000000000E+00 0. -1.
         21   -1    0    0  502  503 -0.00000000000E+00 -0.00000000000E+00 -0.67166532355E+03  0.67166532355E+03  0.00000000000E+00 0. -1.
          6    1    1    2  501    0 -0.88091638278E+02  0.15930895236E+03 -0.46729184534E+02  0.25544489763E+03  0.17300000000E+03 0. -1.
         -6    1    1    2    0  503  0.88091638278E+02 -0.15930895236E+03 -0.49029058071E+03  0.55086598422E+03  0.17300000000E+03 0. -1.
<mgrwt>
<rscale>  2 0.25113438E+03</rscale>
<asrwt>0</asrwt>
<pdfrwt beam="1">  1       21 0.20714701E-01 0.25113438E+03</pdfrwt>
<pdfrwt beam="2">  1       21 0.10333313E+00 0.25113438E+03</pdfrwt>
<totfact> 0.15854207E+04</totfact>
</mgrwt>
</event>
<event>
 4    1  0.4621995E+000  0.2684679E+03  0.7546771E-02  0.1102160E+00
         21   -1    0    0  501  502  0.00000000000E+00  0.00000000000E+00  0.20140354789E+03  0.20140354789E+03  0.00000000000E+00 0.  1.
         21   -1    0    0  502  503 -0.00000000000E+00 -0.00000000000E+00 -0.55419409598E+03  0.55419409598E+03  0.00000000000E+00 0.  1.
          6    1    1    2  501    0 -0.20407889024E+03 -0.22312145698E+02 -0.40126106344E+03  0.48278925663E+03  0.17300000000E+03 0.  1.
         -6    1    1    2    0  503  0.20407889024E+03  0.22312145698E+02  0.48470515346E+02  0.27280838723E+03  0.17300000000E+03 0.  1.
<mgrwt>
<rscale>  2 0.26846792E+03</rscale>
<asrwt>0</asrwt>
<pdfrwt beam="1">  1       21 0.30985161E-01 0.26846792E+03</pdfrwt>
<pdfrwt beam="2">  1       21 0.85260631E-01 0.26846792E+03</pdfrwt>
<totfact> 0.11381755E+04</totfact>
</mgrwt>
</event>
<event>
 4    1  0.4621995E+000  0.1904754E+03  0.7546771E-02  0.1158033E+00
         21   -1    0    0  503  502  0.00000000000E+00  0.00000000000E+00  0.82704299391E+02  0.82704299391E+02  0.00000000000E+00 0. -1.
         21   -1    0    0  501  503 -0.00000000000E+00 -0.00000000000E+00 -0.83710277968E+03  0.83710277968E+03  0.00000000000E+00 0. -1.
          6    1    1    2  501    0 -0.70845533170E+02 -0.36507130401E+02 -0.69448350209E+03  0.72013067898E+03  0.17300000000E+03 0. -1.
         -6    1    1    2    0  502  0.70845533170E+02  0.36507130401E+02 -0.59914978205E+02  0.19967640009E+03  0.17300000000E+03 0. -1.
<mgrwt>
<rscale>  2 0.19047535E+03</rscale>
<asrwt>0</asrwt>
<pdfrwt beam="1">  1       21 0.12723739E-01 0.19047535E+03</pdfrwt>
<pdfrwt beam="2">  1       21 0.12878503E+00 0.19047535E+03</pdfrwt>
<totfact> 0.23416398E+04</totfact>
</mgrwt>
</event>
<event>
 4    1  0.4621995E+000  0.2686402E+03  0.7546771E-02  0.1102060E+00
         21   -1    0    0  501  502  0.00000000000E+00  0.00000000000E+00  0.10012946225E+03  0.10012946225E+03  0.00000000000E+00 0. -1.
         21   -1    0    0  502  503 -0.00000000000E+00 -0.00000000000E+00 -0.10562419511E+04  0.10562419511E+04  0.00000000000E+00 0. -1.
          6    1    1    2  501    0 -0.16731606279E+03  0.11934772596E+03 -0.80391668848E+03  0.84761405520E+03  0.17300000000E+03 0. -1.
         -6    1    1    2    0  503  0.16731606279E+03 -0.11934772596E+03 -0.15219580038E+03  0.30875735815E+03  0.17300000000E+03 0. -1.
<mgrwt>
<rscale>  2 0.26864018E+03</rscale>
<asrwt>0</asrwt>
<pdfrwt beam="1">  1       21 0.15404533E-01 0.26864018E+03</pdfrwt>
<pdfrwt beam="2">  1       21 0.16249876E+00 0.26864018E+03</pdfrwt>
<totfact> 0.85605267E+03</totfact>
</mgrwt>
</event>
<event>
 4    1  0.4621995E+000  0.1817922E+03  0.7546771E-02  0.1166080E+00
         21   -1    0    0  501  502  0.00000000000E+00  0.00000000000E+00  0.32738305482E+03  0.32738305482E+03  0.00000000000E+00 0.  1.
         21   -1    0    0  502  503 -0.00000000000E+00 -0.00000000000E+00 -0.51970406847E+03  0.51970406847E+03  0.00000000000E+00 0.  1.
          6    1    1    2  501    0  0.22276745015E+01 -0.55807069302E+02  0.28402977844E+03  0.33722589841E+03  0.17300000000E+03 0.  1.
         -6    1    1    2    0  503 -0.22276745015E+01  0.55807069302E+02 -0.47635079208E+03  0.50986122488E+03  0.17300000000E+03 0.  1.
<mgrwt>
<rscale>  2 0.18179217E+03</rscale>
<asrwt>0</asrwt>
<pdfrwt beam="1">  1       21 0.50366624E-01 0.18179217E+03</pdfrwt>
<pdfrwt beam="2">  1       21 0.79954472E-01 0.18179217E+03</pdfrwt>
<totfact> 0.52124021E+03</totfact>
</mgrwt>
</event>
<event>
 4    1  0.4621995E+000  0.2108117E+03  0.7546771E-02  0.1140925E+00
         21   -1    0    0  503  502  0.00000000000E+00  0.00000000000E+00  0.22789354232E+03  0.22789354232E+03  0.00000000000E+00 0.  1.
         21   -1    0    0  501  503 -0.00000000000E+00 -0.00000000000E+00 -0.49826894773E+03  0.49826894773E+03  0.00000000000E+00 0.  1.
          6    1    1    2  501    0 -0.31284381777E+02  0.11633512137E+03 -0.41844333159E+03  0.46854711051E+03  0.17300000000E+03 0.  1.
         -6    1    1    2    0  502  0.31284381777E+02 -0.11633512137E+03  0.14806792619E+03  0.25761537954E+03  0.17300000000E+03 0.  1.
<mgrwt>
<rscale>  2 0.21081170E+03</rscale>
<asrwt>0</asrwt>
<pdfrwt beam="1">  1       21 0.35060546E-01 0.21081170E+03</pdfrwt>
<pdfrwt beam="2">  1       21 0.76656760E-01 0.21081170E+03</pdfrwt>
<totfact> 0.11731711E+04</totfact>
</mgrwt>
</event>
<event>
 4    1  0.4621995E+000  0.1956817E+03  0.7546771E-02  0.1153434E+00
         21   -1    0    0  503  502  0.00000000000E+00  0.00000000000E+00  0.37865419017E+02  0.37865419017E+02  0.00000000000E+00 0. -1.
         21   -1    0    0  501  503 -0.00000000000E+00 -0.00000000000E+00 -0.11488275577E+04  0.11488275577E+04  0.00000000000E+00 0.  1.
          6    1    1    2  501    0  0.81000367517E+02 -0.42441155986E+02 -0.76081402485E+03  0.78557577080E+03  0.17300000000E+03 0.  1.
         -6    1    1    2    0  502 -0.81000367517E+02  0.42441155986E+02 -0.35014811380E+03  0.40111720589E+03  0.17300000000E+03 0.  1.
<mgrwt>
<rscale>  2 0.19568166E+03</rscale>
<asrwt>0</asrwt>
<pdfrwt beam="1">  1       21 0.58254488E-02 0.19568166E+03</pdfrwt>
<pdfrwt beam="2">  1       21 0.17674271E+00 0.19568166E+03</pdfrwt>
<totfact> 0.39647929E+04</totfact>
</mgrwt>
</event>
<event>
 4    1  0.4621995E+000  0.1799015E+03  0.7546771E-02  0.1167898E+00
         21   -1    0    0  503  502  0.00000000000E+00  0.00000000000E+00  0.21915011208E+03  0.21915011208E+03  0.00000000000E+00 0. -1.
         21   -1    0    0  501  503 -0.00000000000E+00 -0.00000000000E+00 -0.47809845194E+03  0.47809845194E+03  0.00000000000E+00 0. -1.
          6    1    1    2  501    0 -0.27253430288E+02  0.41143739698E+02 -0.41929507346E+03  0.45625970172E+03  0.17300000000E+03 0. -1.
         -6    1    1    2    0  502  0.27253430288E+02 -0.41143739698E+02  0.16034673361E+03  0.24098886231E+03  0.17300000000E+03 0. -1.
<mgrwt>
<rscale>  2 0.17990152E+03</rscale>
<asrwt>0</asrwt>
<pdfrwt beam="1">  1       21 0.33715402E-01 0.17990152E+03</pdfrwt>
<pdfrwt beam="2">  1       21 0.73553607E-01 0.17990152E+03</pdfrwt>
<totfact> 0.14187993E+04</totfact>
</mgrwt>
</event>
<event>
 4    1  0.4621995E+000  0.2595766E+03  0.7546771E-02  0.1107398E+00
         21   -1    0    0  503  502  0.00000000000E+00  0.00000000000E+00  0.48776033386E+03  0.48776033386E+03  0.00000000000E+00 0. -1.
         21   -1    0    0  501  503 -0.00000000000E+00 -0.00000000000E+00 -0.14365989166E+03  0.14365989166E+03  0.00000000000E+00 0.  1.
          6    1    1    2  501    0  0.11980787473E+03 -0.15197730714E+03  0.11017451562E+03  0.28199016406E+03  0.17300000000E+03 0.  1.
         -6    1    1    2    0  502 -0.11980787473E+03  0.15197730714E+03  0.23392592658E+03  0.34943006147E+03  0.17300000000E+03 0. -1.
<mgrwt>
<rscale>  2 0.25957663E+03</rscale>
<asrwt>0</asrwt>
<pdfrwt beam="1">  1       21 0.75040050E-01 0.25957663E+03</pdfrwt>
<pdfrwt beam="2">  1       21 0.22101522E-01 0.25957663E+03</pdfrwt>
<totfact> 0.29390560E+04</totfact>
</mgrwt>
</event>
<event>
 4    1  0.4621995E+000  0.1858222E+03  0.7546771E-02  0.1162284E+00
         21   -1    0    0  503  502  0.00000000000E+00  0.00000000000E+00  0.19792320355E+03  0.19792320355E+03  0.00000000000E+00 0.  1.
         21   -1    0    0  501  503 -0.00000000000E+00 -0.00000000000E+00 -0.25380286391E+03  0.25380286391E+03  0.00000000000E+00 0.  1.
          6    1    1    2  501    0 -0.62095731161E+02  0.27294619060E+02 -0.15422377857E+03  0.24148467847E+03  0.17300000000E+03 0.  1.
         -6    1    1    2    0  502  0.62095731161E+02 -0.27294619060E+02  0.98344118217E+02  0.21024138899E+03  0.17300000000E+03 0.  1.
<mgrwt>
<rscale>  2 0.18582216E+03</rscale>
<asrwt>0</asrwt>
<pdfrwt beam="1">  1       21 0.30449724E-01 0.18582216E+03</pdfrwt>
<pdfrwt beam="2">  1       21 0.39046594E-01 0.18582216E+03</pdfrwt>
<totfact> 0.65652776E+04</totfact>
</mgrwt>
</event>
<event>
 4    1  0.4621995E+000  0.1776923E+03  0.7546771E-02  0.1170055E+00
         21   -1    0    0  503  502  0.00000000000E+00  0.00000000000E+00  0.20399765409E+03  0.20399765409E+03  0.00000000000E+00 0. -1.
         21   -1    0    0  501  503 -0.00000000000E+00 -0.00000000000E+00 -0.24077364741E+03  0.24077364741E+03  0.00000000000E+00 0. -1.
          6    1    1    2  501    0 -0.40465512790E+02  0.28479178326E+01 -0.15129192079E+03  0.23337483510E+03  0.17300000000E+03 0. -1.
         -6    1    1    2    0  502  0.40465512790E+02 -0.28479178326E+01  0.11451592747E+03  0.21139646640E+03  0.17300000000E+03 0. -1.
<mgrwt>
<rscale>  2 0.17769234E+03</rscale>
<asrwt>0</asrwt>
<pdfrwt beam="1">  1       21 0.31384254E-01 0.17769234E+03</pdfrwt>
<pdfrwt beam="2">  1       21 0.37042100E-01 0.17769234E+03</pdfrwt>
<totfact> 0.69021727E+04</totfact>
</mgrwt>
</event>
<event>
 4    1  0.4621995E+000  0.2093078E+03  0.7546771E-02  0.1142115E+00
         21   -1    0    0  503  502  0.00000000000E+00  0.00000000000E+00  0.29442905234E+03  0.29442905234E+03  0.00000000000E+00 0. -1.
         21   -1    0    0  501  503 -0.00000000000E+00 -0.00000000000E+00 -0.22700684470E+03  0.22700684470E+03  0.00000000000E+00 0. -1.
          6    1    1    2  501    0 -0.97831697521E+02  0.65648327258E+02 -0.11932224666E+03  0.24093057602E+03  0.17300000000E+03 0. -1.
         -6    1    1    2    0  502  0.97831697521E+02 -0.65648327258E+02  0.18674445430E+03  0.28050532103E+03  0.17300000000E+03 0. -1.
<mgrwt>
<rscale>  2 0.20930777E+03</rscale>
<asrwt>0</asrwt>
<pdfrwt beam="1">  1       21 0.45296778E-01 0.20930777E+03</pdfrwt>
<pdfrwt beam="2">  1       21 0.34924130E-01 0.20930777E+03</pdfrwt>
<totfact> 0.36629485E+04</totfact>
</mgrwt>
</event>
<event>
 4    1  0.4621995E+000  0.2233992E+03  0.7546771E-02  0.1131374E+00
         21   -1    0    0  501  502  0.00000000000E+00  0.00000000000E+00  0.79063873796E+03  0.79063873796E+03  0.00000000000E+00 0.  1.
         21   -1    0    0  502  503 -0.00000000000E+00 -0.00000000000E+00 -0.64064648777E+02  0.64064648777E+02  0.00000000000E+00 0.  1.
          6    1    1    2  501    0 -0.12994150644E+03 -0.55618261090E+02  0.41510843164E+03  0.47140449306E+03  0.17300000000E+03 0.  1.
         -6    1    1    2    0  503  0.12994150644E+03  0.55618261090E+02  0.31146565754E+03  0.38329889367E+03  0.17300000000E+03 0.  1.
<mgrwt>
<rscale>  2 0.22339916E+03</rscale>
<asrwt>0</asrwt>
<pdfrwt beam="1">  1       21 0.12163672E+00 0.22339916E+03</pdfrwt>
<pdfrwt beam="2">  1       21 0.98561004E-02 0.22339916E+03</pdfrwt>
<totfact> 0.41816359E+04</totfact>
</mgrwt>
</event>
<event>
 4    1  0.4621995E+000  0.1768541E+03  0.7546771E-02  0.1170883E+00
         21   -1    0    0  501  502  0.00000000000E+00  0.00000000000E+00  0.27248469013E+04  0.27248469013E+04  0.00000000000E+00 0.  1.
         21   -1    0    0  502  503 -0.00000000000E+00 -0.00000000000E+00 -0.26897203986E+02  0.26897203986E+02  0.00000000000E+00 0.  1.
          6    1    1    2  501    0 -0.33658973155E+02  0.14678113398E+02  0.23906859390E+04  0.23972185199E+04  0.17300000000E+03 0.  1.
         -6    1    1    2    0  503  0.33658973155E+02 -0.14678113398E+02  0.30726375838E+03  0.35452558540E+03  0.17300000000E+03 0.  1.
<mgrwt>
<rscale>  2 0.17685410E+03</rscale>
<asrwt>0</asrwt>
<pdfrwt beam="1">  1       21 0.41920700E+00 0.17685410E+03</pdfrwt>
<pdfrwt beam="2">  1       21 0.41380335E-02 0.17685410E+03</pdfrwt>
<totfact> 0.25017392E+03</totfact>
</mgrwt>
</event>
<event>
 4    1  0.4621995E+000  0.1922211E+03  0.7546771E-02  0.1156473E+00
         21   -1    0    0  501  502  0.00000000000E+00  0.00000000000E+00  0.76862933594E+02  0.76862933594E+02  0.00000000000E+00 0. -1.
         21   -1    0    0  502  503 -0.00000000000E+00 -0.00000000000E+00 -0.63633587555E+03  0.63633587555E+03  0.00000000000E+00 0.  1.
          6    1    1    2  501    0  0.74264573306E+02  0.38791010549E+02 -0.10338670383E+03  0.21826080701E+03  0.17300000000E+03 0. -1.
         -6    1    1    2    0  503 -0.74264573306E+02 -0.38791010549E+02 -0.45608623813E+03  0.49493800214E+03  0.17300000000E+03 0. -1.
<mgrwt>
<rscale>  2 0.19222115E+03</rscale>
<asrwt>0</asrwt>
<pdfrwt beam="1">  1       21 0.11825067E-01 0.19222115E+03</pdfrwt>
<pdfrwt beam="2">  1       21 0.97897828E-01 0.19222115E+03</pdfrwt>
<totfact> 0.52017026E+04</totfact>
</mgrwt>
</event>
<event>
 4    1  0.4621995E+000  0.2968541E+03  0.7546771E-02  0.1086824E+00
         21   -1    0    0  501  502  0.00000000000E+00  0.00000000000E+00  0.26788843842E+04  0.26788843842E+04  0.00000000000E+00 0.  1.
         21   -1    0    0  502  503 -0.00000000000E+00 -0.00000000000E+00 -0.33035759054E+02  0.33035759054E+02  0.00000000000E+00 0. -1.
          6    1    1    2  501    0  0.21571339062E+03  0.10798659530E+03  0.14113792731E+04  0.14422599711E+04  0.17300000000E+03 0.  1.
         -6    1    1    2    0  503 -0.21571339062E+03 -0.10798659530E+03  0.12344693521E+04  0.12696601722E+04  0.17300000000E+03 0. -1.
<mgrwt>
<rscale>  2 0.29685413E+03</rscale>
<asrwt>0</asrwt>
<pdfrwt beam="1">  1       21 0.41213589E+00 0.29685413E+03</pdfrwt>
<pdfrwt beam="2">  1       21 0.50824266E-02 0.29685413E+03</pdfrwt>
<totfact> 0.16913587E+03</totfact>
</mgrwt>
</event>
<event>
 4    1  0.4621995E+000  0.2352189E+03  0.7546771E-02  0.1123019E+00
         21   -1    0    0  501  502  0.00000000000E+00  0.00000000000E+00  0.16650498747E+02  0.16650498747E+02  0.00000000000E+00 0.  1.
         21   -1    0    0  502  503 -0.00000000000E+00 -0.00000000000E+00 -0.35180963662E+04  0.35180963662E+04  0.00000000000E+00 0. -1.
          6    1    1    2  501    0 -0.98501191129E+02 -0.12528543810E+03 -0.21670277469E+04  0.21797562206E+04  0.17300000000E+03 0. -1.
         -6    1    1    2    0  503  0.98501191129E+02  0.12528543810E+03 -0.13344181206E+04  0.13549906443E+04  0.17300000000E+03 0.  1.
<mgrwt>
<rscale>  2 0.23521889E+03</rscale>
<asrwt>0</asrwt>
<pdfrwt beam="1">  1       21 0.25616168E-02 0.23521889E+03</pdfrwt>
<pdfrwt beam="2">  1       21 0.54124525E+00 0.23521889E+03</pdfrwt>
<totfact> 0.73608382E+02</totfact>
</mgrwt>
</event>
<event>
 4    1  0.4621995E+000  0.2058554E+03  0.7546771E-02  0.1144891E+00
         21   -1    0    0  503  502  0.00000000000E+00  0.00000000000E+00  0.12516857102E+03  0.12516857102E+03  0.00000000000E+00 0.  1.
         21   -1    0    0  501  503 -0.00000000000E+00 -0.00000000000E+00 -0.34196349669E+03  0.34196349669E+03  0.00000000000E+00 0. -1.
          6    1    1    2  501    0  0.73191116411E+02 -0.84205256064E+02 -0.13171547492E+03  0.24438787000E+03  0.17300000000E+03 0. -1.
         -6    1    1    2    0  502 -0.73191116411E+02  0.84205256064E+02 -0.85079450752E+02  0.22274419770E+03  0.17300000000E+03 0.  1.
<mgrwt>
<rscale>  2 0.20585545E+03</rscale>
<asrwt>0</asrwt>
<pdfrwt beam="1">  1       21 0.19256703E-01 0.20585545E+03</pdfrwt>
<pdfrwt beam="2">  1       21 0.52609769E-01 0.20585545E+03</pdfrwt>
<totfact> 0.84381564E+04</totfact>
</mgrwt>
</event>
<event>
 4    1  0.4621995E+000  0.2232030E+03  0.7546771E-02  0.1131517E+00
         21   -1    0    0  503  502  0.00000000000E+00  0.00000000000E+00  0.80039720243E+02  0.80039720243E+02  0.00000000000E+00 0. -1.
         21   -1    0    0  501  503 -0.00000000000E+00 -0.00000000000E+00 -0.87393341175E+03  0.87393341175E+03  0.00000000000E+00 0. -1.
          6    1    1    2  501    0  0.44086310133E+02  0.13396638815E+03 -0.65282535738E+03  0.68992792604E+03  0.17300000000E+03 0. -1.
         -6    1    1    2    0  502 -0.44086310133E+02 -0.13396638815E+03 -0.14106833413E+03  0.26404520596E+03  0.17300000000E+03 0. -1.
<mgrwt>
<rscale>  2 0.22320304E+03</rscale>
<asrwt>0</asrwt>
<pdfrwt beam="1">  1       21 0.12313803E-01 0.22320304E+03</pdfrwt>
<pdfrwt beam="2">  1       21 0.13445129E+00 0.22320304E+03</pdfrwt>
<totfact> 0.21823016E+04</totfact>
</mgrwt>
</event>
<event>
 4    1  0.4621995E+000  0.2583958E+03  0.7546771E-02  0.1108111E+00
         21   -1    0    0  503  502  0.00000000000E+00  0.00000000000E+00  0.61785188848E+02  0.61785188848E+02  0.00000000000E+00 0. -1.
         21   -1    0    0  501  503 -0.00000000000E+00 -0.00000000000E+00 -0.16122865620E+04  0.16122865620E+04  0.00000000000E+00 0.  1.
          6    1    1    2  501    0 -0.18728594737E+03  0.41992331470E+02 -0.12559006756E+04  0.12822070382E+04  0.17300000000E+03 0.  1.
         -6    1    1    2    0  502  0.18728594737E+03 -0.41992331470E+02 -0.29460069761E+03  0.39186471264E+03  0.17300000000E+03 0. -1.
<mgrwt>
<rscale>  2 0.25839579E+03</rscale>
<asrwt>0</asrwt>
<pdfrwt beam="1">  1       21 0.95054115E-02 0.25839579E+03</pdfrwt>
<pdfrwt beam="2">  1       21 0.24804414E+00 0.25839579E+03</pdfrwt>
<totfact> 0.57159082E+03</totfact>
</mgrwt>
</event>
<event>
 4    1  0.4621995E+000  0.2009144E+03  0.7546771E-02  0.1148970E+00
         21   -1    0    0  501  502  0.00000000000E+00  0.00000000000E+00  0.22897797980E+03  0.22897797980E+03  0.00000000000E+00 0. -1.
         21   -1    0    0  502  503 -0.00000000000E+00 -0.00000000000E+00 -0.10576545368E+04  0.10576545368E+04  0.00000000000E+00 0.  1.
          6    1    1    2  501    0  0.99506498457E+02  0.23152808679E+02  0.17292158805E+03  0.26508200882E+03  0.17300000000E+03 0. -1.
         -6    1    1    2    0  503 -0.99506498457E+02 -0.23152808679E+02 -0.10015981451E+04  0.10215505078E+04  0.17300000000E+03 0.  1.
<mgrwt>
<rscale>  2 0.20091440E+03</rscale>
<asrwt>0</asrwt>
<pdfrwt beam="1">  1       21 0.35227381E-01 0.20091440E+03</pdfrwt>
<pdfrwt beam="2">  1       21 0.16271608E+00 0.20091440E+03</pdfrwt>
<totfact> 0.18533003E+03</totfact>
</mgrwt>
</event>
<event>
 4    1  0.4621995E+000  0.2034908E+03  0.7546771E-02  0.1146827E+00
         21   -1    0    0  503  502  0.00000000000E+00  0.00000000000E+00  0.25903575822E+02  0.25903575822E+02  0.00000000000E+00 0.  1.
         21   -1    0    0  501  503 -0.00000000000E+00 -0.00000000000E+00 -0.25582556309E+04  0.25582556309E+04  0.00000000000E+00 0.  1.
          6    1    1    2  501    0  0.37794041269E+02  0.10025529957E+03 -0.20575526829E+04  0.20675907616E+04  0.17300000000E+03 0.  1.
         -6    1    1    2    0  502 -0.37794041269E+02 -0.10025529957E+03 -0.47479937216E+03  0.51656844508E+03  0.17300000000E+03 0.  1.
<mgrwt>
<rscale>  2 0.20349082E+03</rscale>
<asrwt>0</asrwt>
<pdfrwt beam="1">  1       21 0.39851654E-02 0.20349082E+03</pdfrwt>
<pdfrwt beam="2">  1       21 0.39357780E+00 0.20349082E+03</pdfrwt>
<totfact> 0.37105453E+03</totfact>
</mgrwt>
</event>
<event>
 4    1  0.4621995E+000  0.1958020E+03  0.7546771E-02  0.1153330E+00
         21   -1    0    0  501  502  0.00000000000E+00  0.00000000000E+00  0.13002937713E+03  0.13002937713E+03  0.00000000000E+00 0.  1.
         21   -1    0    0  502  503 -0.00000000000E+00 -0.00000000000E+00 -0.31310522894E+03  0.31310522894E+03  0.00000000000E+00 0.  1.
          6    1    1    2  501    0 -0.99564398600E+01 -0.91160756576E+02 -0.38029455797E+02  0.19946090780E+03  0.17300000000E+03 0.  1.
         -6    1    1    2    0  503  0.99564398600E+01  0.91160756576E+02 -0.14504639601E+03  0.24367369827E+03  0.17300000000E+03 0.  1.
<mgrwt>
<rscale>  2 0.19580198E+03</rscale>
<asrwt>0</asrwt>
<pdfrwt beam="1">  1       21 0.20004520E-01 0.19580198E+03</pdfrwt>
<pdfrwt beam="2">  1       21 0.48170035E-01 0.19580198E+03</pdfrwt>
<totfact> 0.94887675E+04</totfact>
</mgrwt>
</event>
<event>
 4    1  0.4621995E+000  0.2324837E+03  0.7546771E-02  0.1124904E+00
         21   -1    0    0  501  502  0.00000000000E+00  0.00000000000E+00  0.53085311960E+03  0.53085311960E+03  0.00000000000E+00 0.  1.
         21   -1    0    0  502  503 -0.00000000000E+00 -0.00000000000E+00 -0.27706450144E+03  0.27706450144E+03  0.00000000000E+00 0. -1.
          6    1    1    2  501    0  0.14291645418E+03 -0.60782919044E+02  0.44816813910E+03  0.50487954705E+03  0.17300000000E+03 0.  1.
         -6    1    1    2    0  503 -0.14291645418E+03  0.60782919044E+02 -0.19437952094E+03  0.30303807399E+03  0.17300000000E+03 0. -1.
<mgrwt>
<rscale>  2 0.23248371E+03</rscale>
<asrwt>0</asrwt>
<pdfrwt beam="1">  1       21 0.81669711E-01 0.23248371E+03</pdfrwt>
<pdfrwt beam="2">  1       21 0.42625308E-01 0.23248371E+03</pdfrwt>
<totfact> 0.67579194E+03</totfact>
</mgrwt>
</event>
<event>
 4    1  0.4621995E+000  0.1830812E+03  0.7546771E-02  0.1164854E+00
         21   -1    0    0  503  502  0.00000000000E+00  0.00000000000E+00  0.82731277706E+02  0.82731277706E+02  0.00000000000E+00 0. -1.
         21   -1    0    0  501  503 -0.00000000000E+00 -0.00000000000E+00 -0.51470589456E+03  0.51470589456E+03  0.00000000000E+00 0. -1.
          6    1    1    2  501    0  0.59371272520E+02 -0.80479711936E+01 -0.35380252704E+03  0.39836534235E+03  0.17300000000E+03 0. -1.
         -6    1    1    2    0  502 -0.59371272520E+02  0.80479711936E+01 -0.78172089807E+02  0.19907182991E+03  0.17300000000E+03 0. -1.
<mgrwt>
<rscale>  2 0.18308118E+03</rscale>
<asrwt>0</asrwt>
<pdfrwt beam="1">  1       21 0.12727889E-01 0.18308118E+03</pdfrwt>
<pdfrwt beam="2">  1       21 0.79185522E-01 0.18308118E+03</pdfrwt>
<totfact> 0.74625263E+04</totfact>
</mgrwt>
</event>
<event>
 4    1  0.4621995E+000  0.2021479E+03  0.7546771E-02  0.1147939E+00
         21   -1    0    0  503  502  0.00000000000E+00  0.00000000000E+00  0.23223440244E+03  0.23223440244E+03  0.00000000000E+00 0. -1.
         21   -1    0    0  501  503 -0.00000000000E+00 -0.00000000000E+00 -0.19161274267E+03  0.19161274267E+03  0.00000000000E+00 0. -1.
          6    1    1    2  501    0 -0.86654519581E+02 -0.58529953094E+02 -0.40261530604E+02  0.20611829618E+03  0.17300000000E+03 0.  1.
         -6    1    1    2    0  502  0.86654519581E+02  0.58529953094E+02  0.80883190375E+02  0.21772884893E+03  0.17300000000E+03 0.  1.
<mgrwt>
<rscale>  2 0.20214787E+03</rscale>
<asrwt>0</asrwt>
<pdfrwt beam="1">  1       21 0.35728370E-01 0.20214787E+03</pdfrwt>
<pdfrwt beam="2">  1       21 0.29478884E-01 0.20214787E+03</pdfrwt>
<totfact> 0.82952307E+04</totfact>
</mgrwt>
</event>
<event>
 4    1  0.4621995E+000  0.1743784E+03  0.7546771E-02  0.1173357E+00
         21   -1    0    0  501  502  0.00000000000E+00  0.00000000000E+00  0.12342990105E+03  0.12342990105E+03  0.00000000000E+00 0. -1.
         21   -1    0    0  502  503 -0.00000000000E+00 -0.00000000000E+00 -0.55964030395E+03  0.55964030395E+03  0.00000000000E+00 0. -1.
          6    1    1    2  501    0  0.19702888002E+02  0.95201403328E+01  0.37429206036E+02  0.17835016774E+03  0.17300000000E+03 0. -1.
         -6    1    1    2    0  503 -0.19702888002E+02 -0.95201403328E+01 -0.47363960893E+03  0.50472003726E+03  0.17300000000E+03 0. -1.
<mgrwt>
<rscale>  2 0.17437843E+03</rscale>
<asrwt>0</asrwt>
<pdfrwt beam="1">  1       21 0.18989216E-01 0.17437843E+03</pdfrwt>
<pdfrwt beam="2">  1       21 0.86098506E-01 0.17437843E+03</pdfrwt>
<totfact> 0.29888424E+04</totfact>
</mgrwt>
</event>
<event>
 4    1  0.4621995E+000  0.2867665E+03  0.7546771E-02  0.1092050E+00
         21   -1    0    0  501  502  0.00000000000E+00  0.00000000000E+00  0.22157237261E+03  0.22157237261E+03  0.00000000000E+00 0.  1.
         21   -1    0    0  502  503 -0.00000000000E+00 -0.00000000000E+00 -0.37475116992E+03  0.37475116992E+03  0.00000000000E+00 0.  1.
          6    1    1    2  501    0 -0.10980915567E+03  0.20061899790E+03 -0.47332753642E+02  0.29064655951E+03  0.17300000000E+03 0.  1.
         -6    1    1    2    0  503  0.10980915567E+03 -0.20061899790E+03 -0.10584604367E+03  0.30567698302E+03  0.17300000000E+03 0.  1.
<mgrwt>
<rscale>  2 0.28676651E+03</rscale>
<asrwt>0</asrwt>
<pdfrwt beam="1">  1       21 0.34088058E-01 0.28676651E+03</pdfrwt>
<pdfrwt beam="2">  1       21 0.57654025E-01 0.28676651E+03</pdfrwt>
<totfact> 0.22335324E+04</totfact>
</mgrwt>
</event>
<event>
 4    1  0.4621995E+000  0.2689218E+03  0.7546771E-02  0.1101898E+00
         21   -1    0    0  503  502  0.00000000000E+00  0.00000000000E+00  0.46346844412E+02  0.46346844412E+02  0.00000000000E+00 0. -1.
         21   -1    0    0  501  503 -0.00000000000E+00 -0.00000000000E+00 -0.15943829482E+04  0.15943829482E+04  0.00000000000E+00 0. -1.
          6    1    1    2  501    0 -0.15837803918E+03 -0.13155351929E+03 -0.89381219858E+03  0.93339122455E+03  0.17300000000E+03 0. -1.
         -6    1    1    2    0  502  0.15837803918E+03  0.13155351929E+03 -0.65422390526E+03  0.70733856811E+03  0.17300000000E+03 0. -1.
<mgrwt>
<rscale>  2 0.26892179E+03</rscale>
<asrwt>0</asrwt>
<pdfrwt beam="1">  1       21 0.71302830E-02 0.26892179E+03</pdfrwt>
<pdfrwt beam="2">  1       21 0.24528971E+00 0.26892179E+03</pdfrwt>
<totfact> 0.97632021E+03</totfact>
</mgrwt>
</event>
<event>
 4    1  0.4621995E+000  0.2173524E+03  0.7546771E-02  0.1135872E+00
         21   -1    0    0  501  502  0.00000000000E+00  0.00000000000E+00  0.22141753525E+04  0.22141753525E+04  0.00000000000E+00 0.  1.
         21   -1    0    0  502  503 -0.00000000000E+00 -0.00000000000E+00 -0.32740789146E+02  0.32740789146E+02  0.00000000000E+00 0. -1.
          6    1    1    2  501    0 -0.95222998852E+02  0.90805603728E+02  0.17537763417E+04  0.17671936888E+04  0.17300000000E+03 0.  1.
         -6    1    1    2    0  503  0.95222998852E+02 -0.90805603728E+02  0.42765822168E+03  0.47972245283E+03  0.17300000000E+03 0. -1.
<mgrwt>
<rscale>  2 0.21735243E+03</rscale>
<asrwt>0</asrwt>
<pdfrwt beam="1">  1       21 0.34064224E+00 0.21735243E+03</pdfrwt>
<pdfrwt beam="2">  1       21 0.50370462E-02 0.21735243E+03</pdfrwt>
<totfact> 0.51208540E+03</totfact>
</mgrwt>
</event>
<event>
 4    1  0.4621995E+000  0.2258017E+03  0.7546771E-02  0.1129630E+00
         21   -1    0    0  501  502  0.00000000000E+00  0.00000000000E+00  0.32803097576E+02  0.32803097576E+02  0.00000000000E+00 0.  1.
         21   -1    0    0  502  503 -0.00000000000E+00 -0.00000000000E+00 -0.19078049997E+04  0.19078049997E+04  0.00000000000E+00 0. -1.
          6    1    1    2  501    0  0.14421881381E+03 -0.16072884910E+02 -0.13551662033E+04  0.13738492794E+04  0.17300000000E+03 0. -1.
         -6    1    1    2    0  503 -0.14421881381E+03  0.16072884910E+02 -0.51983569878E+03  0.56675881785E+03  0.17300000000E+03 0.  1.
<mgrwt>
<rscale>  2 0.22580169E+03</rscale>
<asrwt>0</asrwt>
<pdfrwt beam="1">  1       21 0.50466298E-02 0.22580169E+03</pdfrwt>
<pdfrwt beam="2">  1       21 0.29350850E+00 0.22580169E+03</pdfrwt>
<totfact> 0.95288471E+03</totfact>
</mgrwt>
</event>
<event>
 4    1  0.4621995E+000  0.2246300E+03  0.7546771E-02  0.1130478E+00
         21   -1    0    0  503  502  0.00000000000E+00  0.00000000000E+00  0.17662264661E+04  0.17662264661E+04  0.00000000000E+00 0.  1.
         21   -1    0    0  501  503 -0.00000000000E+00 -0.00000000000E+00 -0.63445217412E+02  0.63445217412E+02  0.00000000000E+00 0.  1.
          6    1    1    2  501    0  0.11173603323E+03 -0.89692258609E+02  0.17310780468E+03  0.28359293788E+03  0.17300000000E+03 0.  1.
         -6    1    1    2    0  502 -0.11173603323E+03  0.89692258609E+02  0.15296734440E+04  0.15460787456E+04  0.17300000000E+03 0.  1.
<mgrwt>
<rscale>  2 0.22463001E+03</rscale>
<asrwt>0</asrwt>
<pdfrwt beam="1">  1       21 0.27172711E+00 0.22463001E+03</pdfrwt>
<pdfrwt beam="2">  1       21 0.97608040E-02 0.22463001E+03</pdfrwt>
<totfact> 0.40683967E+03</totfact>
</mgrwt>
</event>
<event>
 4    1  0.4621995E+000  0.2509269E+03  0.7546771E-02  0.1112720E+00
         21   -1    0    0  501  502  0.00000000000E+00  0.00000000000E+00  0.10894367432E+03  0.10894367432E+03  0.00000000000E+00 0. -1.
         21   -1    0    0  502  503 -0.00000000000E+00 -0.00000000000E+00 -0.64285151094E+03  0.64285151094E+03  0.00000000000E+00 0. -1.
          6    1    1    2  501    0  0.16497163154E+03 -0.76286626370E+02 -0.14751863457E+03  0.29107737137E+03  0.17300000000E+03 0. -1.
         -6    1    1    2    0  503 -0.16497163154E+03  0.76286626370E+02 -0.38638920205E+03  0.46071781389E+03  0.17300000000E+03 0. -1.
<mgrwt>
<rscale>  2 0.25092686E+03</rscale>
<asrwt>0</asrwt>
<pdfrwt beam="1">  1       21 0.16760566E-01 0.25092686E+03</pdfrwt>
<pdfrwt beam="2">  1       21 0.98900231E-01 0.25092686E+03</pdfrwt>
<totfact> 0.26158984E+04</totfact>
</mgrwt>
</event>
<event>
 4    1  0.4621995E+000  0.2365971E+03  0.7546771E-02  0.1122081E+00
         21   -1    0    0  501  502  0.00000000000E+00  0.00000000000E+00  0.77038798351E+02  0.77038798351E+02  0.00000000000E+00 0.  1.
         21   -1    0    0  502  503 -0.00000000000E+00 -0.00000000000E+00 -0.20521578991E+04  0.20521578991E+04  0.00000000000E+00 0. -1.
          6    1    1    2  501    0 -0.16049234965E+03 -0.17070322412E+02 -0.13194940354E+03  0.27090373807E+03  0.17300000000E+03 0.  1.
         -6    1    1    2    0  503  0.16049234965E+03  0.17070322412E+02 -0.18431696972E+04  0.18582929594E+04  0.17300000000E+03 0. -1.
<mgrwt>
<rscale>  2 0.23659711E+03</rscale>
<asrwt>0</asrwt>
<pdfrwt beam="1">  1       21 0.11852123E-01 0.23659711E+03</pdfrwt>
<pdfrwt beam="2">  1       21 0.31571658E+00 0.23659711E+03</pdfrwt>
<totfact> 0.15761153E+03</totfact>
</mgrwt>
</event>
<event>
 4    1  0.4621995E+000  0.1777207E+03  0.7546771E-02  0.1170027E+00
         21   -1    0    0  501  502  0.00000000000E+00  0.00000000000E+00  0.11652702156E+03  0.11652702156E+03  0.00000000000E+00 0.  1.
         21   -1    0    0  502  503 -0.00000000000E+00 -0.00000000000E+00 -0.38060822803E+03  0.38060822803E+03  0.00000000000E+00 0.  1.
          6    1    1    2  501    0 -0.33080503680E+02  0.23692317361E+02  0.13201489907E+01  0.17772559866E+03  0.17300000000E+03 0.  1.
         -6    1    1    2    0  503  0.33080503680E+02 -0.23692317361E+02 -0.26540135547E+03  0.31940965093E+03  0.17300000000E+03 0.  1.
<mgrwt>
<rscale>  2 0.17772070E+03</rscale>
<asrwt>0</asrwt>
<pdfrwt beam="1">  1       21 0.17927234E-01 0.17772070E+03</pdfrwt>
<pdfrwt beam="2">  1       21 0.58555111E-01 0.17772070E+03</pdfrwt>
<totfact> 0.77709521E+04</totfact>
</mgrwt>
</event>
<event>
 4    1  0.4621995E+000  0.2331509E+03  0.7546771E-02  0.1124441E+00
         21   -1    0    0  503  502  0.00000000000E+00  0.00000000000E+00  0.11644879988E+03  0.11644879988E+03  0.00000000000E+00 0. -1.
         21   -1    0    0  501  503 -0.00000000000E+00 -0.00000000000E+00 -0.47584199294E+03  0.47584199294E+03  0.00000000000E+00 0.  1.
          6    1    1    2  501    0 -0.25925998747E+01 -0.15628063146E+03 -0.13889403084E+03  0.27138700991E+03  0.17300000000E+03 0. -1.
         -6    1    1    2    0  502  0.25925998747E+01  0.15628063146E+03 -0.22049916222E+03  0.32090378291E+03  0.17300000000E+03 0.  1.
<mgrwt>
<rscale>  2 0.23315093E+03</rscale>
<asrwt>0</asrwt>
<pdfrwt beam="1">  1       21 0.17915200E-01 0.23315093E+03</pdfrwt>
<pdfrwt beam="2">  1       21 0.73206461E-01 0.23315093E+03</pdfrwt>
<totfact> 0.46615191E+04</totfact>
</mgrwt>
</event>
<event>
 4    1  0.4621995E+000  0.2137511E+03  0.7546771E-02  0.1138629E+00
         21   -1    0    0  501  502  0.00000000000E+00  0.00000000000E+00  0.11768776188E+04  0.11768776188E+04  0.00000000000E+00 0. -1.
         21   -1    0    0  502  503 -0.00000000000E+00 -0.00000000000E+00 -0.49677819350E+02  0.49677819350E+02  0.00000000000E+00 0. -1.
          6    1    1    2  501    0 -0.12358534368E+03  0.22072860504E+02  0.85027735364E+03  0.87673321282E+03  0.17300000000E+03 0. -1.
         -6    1    1    2    0  503  0.12358534368E+03 -0.22072860504E+02  0.27692244580E+03  0.34982222533E+03  0.17300000000E+03 0. -1.
<mgrwt>
<rscale>  2 0.21375114E+03</rscale>
<asrwt>0</asrwt>
<pdfrwt beam="1">  1       21 0.18105807E+00 0.21375114E+03</pdfrwt>
<pdfrwt beam="2">  1       21 0.76427423E-02 0.21375114E+03</pdfrwt>
<totfact> 0.22914892E+04</totfact>
</mgrwt>
</event>
<event>
 4    1  0.4621995E+000  0.1754202E+03  0.7546771E-02  0.1172310E+00
         21   -1    0    0  501  502  0.00000000000E+00  0.00000000000E+00  0.43514110593E+02  0.43514110593E+02  0.00000000000E+00 0. -1.
         21   -1    0    0  502  503 -0.00000000000E+00 -0.00000000000E+00 -0.70823200963E+03  0.70823200963E+03  0.00000000000E+00 0. -1.
          6    1    1    2  501    0 -0.28401034926E+02  0.60533996471E+01 -0.34685276680E+03  0.38868895569E+03  0.17300000000E+03 0. -1.
         -6    1    1    2    0  503  0.28401034926E+02 -0.60533996471E+01 -0.31786513223E+03  0.36305716453E+03  0.17300000000E+03 0. -1.
<mgrwt>
<rscale>  2 0.17542025E+03</rscale>
<asrwt>0</asrwt>
<pdfrwt beam="1">  1       21 0.66944786E-02 0.17542025E+03</pdfrwt>
<pdfrwt beam="2">  1       21 0.10895877E+00 0.17542025E+03</pdfrwt>
<totfact> 0.10995872E+05</totfact>
</mgrwt>
</event>
<event>
 4    1  0.4621995E+000  0.1869235E+03  0.7546771E-02  0.1161266E+00
         21   -1    0    0  501  502  0.00000000000E+00  0.00000000000E+00  0.15244246629E+03  0.15244246629E+03  0.00000000000E+00 0. -1.
         21   -1    0    0  502  503 -0.00000000000E+00 -0.00000000000E+00 -0.50119840126E+03  0.50119840126E+03  0.00000000000E+00 0. -1.
          6    1    1    2  501    0 -0.95949195270E+01  0.70138033075E+02  0.66382087745E+02  0.19836075151E+03  0.17300000000E+03 0. -1.
         -6    1    1    2    0  503  0.95949195270E+01 -0.70138033075E+02 -0.41513802271E+03  0.45528011604E+03  0.17300000000E+03 0. -1.
<mgrwt>
<rscale>  2 0.18692353E+03</rscale>
<asrwt>0</asrwt>
<pdfrwt beam="1">  1       21 0.23452687E-01 0.18692353E+03</pdfrwt>
<pdfrwt beam="2">  1       21 0.77107448E-01 0.18692353E+03</pdfrwt>
<totfact> 0.25642816E+04</totfact>
</mgrwt>
</event>
<event>
 4    1  0.4621995E+000  0.1794899E+03  0.7546771E-02  0.1168298E+00
         21   -1    0    0  501  502  0.00000000000E+00  0.00000000000E+00  0.27365191471E+03  0.27365191471E+03  0.00000000000E+00 0. -1.
         21   -1    0    0  502  503 -0.00000000000E+00 -0.00000000000E+00 -0.19219535418E+03  0.19219535418E+03  0.00000000000E+00 0. -1.
          6    1    1    2  501    0  0.39515712251E+02 -0.26946579114E+02  0.18571353305E+03  0.25827529111E+03  0.17300000000E+03 0. -1.
         -6    1    1    2    0  503 -0.39515712251E+02  0.26946579114E+02 -0.10425697251E+03  0.20757197778E+03  0.17300000000E+03 0. -1.
<mgrwt>
<rscale>  2 0.17948986E+03</rscale>
<asrwt>0</asrwt>
<pdfrwt beam="1">  1       21 0.42100295E-01 0.17948986E+03</pdfrwt>
<pdfrwt beam="2">  1       21 0.29568516E-01 0.17948986E+03</pdfrwt>
<totfact> 0.59867249E+04</totfact>
</mgrwt>
</event>
<event>
 4    1  0.4621995E+000  0.2146650E+03  0.7546771E-02  0.1137924E+00
         21   -1    0    0  503  502  0.00000000000E+00  0.00000000000E+00  0.13779559569E+04  0.13779559569E+04  0.00000000000E+00 0.  1.
         21   -1    0    0  501  503 -0.00000000000E+00 -0.00000000000E+00 -0.45501569484E+02  0.45501569484E+02  0.00000000000E+00 0. -1.
          6    1    1    2  501    0  0.68908652659E+02 -0.10678787881E+03  0.29981120742E+03  0.36873813684E+03  0.17300000000E+03 0. -1.
         -6    1    1    2    0  502 -0.68908652659E+02  0.10678787881E+03  0.10326431800E+04  0.10547193896E+04  0.17300000000E+03 0.  1.
<mgrwt>
<rscale>  2 0.21466498E+03</rscale>
<asrwt>0</asrwt>
<pdfrwt beam="1">  1       21 0.21199319E+00 0.21466498E+03</pdfrwt>
<pdfrwt beam="2">  1       21 0.70002425E-02 0.21466498E+03</pdfrwt>
<totfact> 0.16763729E+04</totfact>
</mgrwt>
</event>
<event>
 4    1  0.4621995E+000  0.1836158E+03  0.7546771E-02  0.1164349E+00
         21   -1    0    0  501  502  0.00000000000E+00  0.00000000000E+00  0.19220573530E+03  0.19220573530E+03  0.00000000000E+00 0.  1.
         21   -1    0    0  502  503 -0.00000000000E+00 -0.00000000000E+00 -0.17797025447E+03  0.17797025447E+03  0.00000000000E+00 0. -1.
          6    1    1    2  501    0  0.12841836971E+02  0.60173473616E+02  0.29318479366E+02  0.18594174608E+03  0.17300000000E+03 0.  1.
         -6    1    1    2    0  503 -0.12841836971E+02 -0.60173473616E+02 -0.15082998534E+02  0.18423424369E+03  0.17300000000E+03 0.  1.
<mgrwt>
<rscale>  2 0.18361579E+03</rscale>
<asrwt>0</asrwt>
<pdfrwt beam="1">  1       21 0.29570113E-01 0.18361579E+03</pdfrwt>
<pdfrwt beam="2">  1       21 0.27380039E-01 0.18361579E+03</pdfrwt>
<totfact> 0.13984708E+05</totfact>
</mgrwt>
</event>
<event>
 4    1  0.4621995E+000  0.2206480E+03  0.7546771E-02  0.1133401E+00
         21   -1    0    0  501  502  0.00000000000E+00  0.00000000000E+00  0.17044485756E+03  0.17044485756E+03  0.00000000000E+00 0. -1.
         21   -1    0    0  502  503 -0.00000000000E+00 -0.00000000000E+00 -0.47185660367E+03  0.47185660367E+03  0.00000000000E+00 0.  1.
          6    1    1    2  501    0  0.28611048699E+02  0.13393255182E+03  0.51045027117E+02  0.22647541884E+03  0.17300000000E+03 0. -1.
         -6    1    1    2    0  503 -0.28611048699E+02 -0.13393255182E+03 -0.35245677322E+03  0.41582604240E+03  0.17300000000E+03 0.  1.
<mgrwt>
<rscale>  2 0.22064796E+03</rscale>
<asrwt>0</asrwt>
<pdfrwt beam="1">  1       21 0.26222286E-01 0.22064796E+03</pdfrwt>
<pdfrwt beam="2">  1       21 0.72593322E-01 0.22064796E+03</pdfrwt>
<totfact> 0.23261176E+04</totfact>
</mgrwt>
</event>
<event>
 4    1  0.4621995E+000  0.3424651E+03  0.7546771E-02  0.1065751E+00
         21   -1    0    0  503  502  0.00000000000E+00  0.00000000000E+00  0.80157308717E+03  0.80157308717E+03  0.00000000000E+00 0. -1.
         21   -1    0    0  501  503 -0.00000000000E+00 -0.00000000000E+00 -0.17508188883E+03  0.17508188883E+03  0.00000000000E+00 0.  1.
          6    1    1    2  501    0 -0.26670766106E+02 -0.29435017361E+03  0.11530483854E+03  0.36135517190E+03  0.17300000000E+03 0.  1.
         -6    1    1    2    0  502  0.26670766106E+02  0.29435017361E+03  0.51118635980E+03  0.61529980409E+03  0.17300000000E+03 0. -1.
<mgrwt>
<rscale>  2 0.34246511E+03</rscale>
<asrwt>0</asrwt>
<pdfrwt beam="1">  1       21 0.12331893E+00 0.34246511E+03</pdfrwt>
<pdfrwt beam="2">  1       21 0.26935676E-01 0.34246511E+03</pdfrwt>
<totfact> 0.59265059E+03</totfact>
</mgrwt>
</event>
<event>
 4    1  0.4621995E+000  0.1768976E+03  0.7546771E-02  0.1170840E+00
         21   -1    0    0  501  502  0.00000000000E+00  0.00000000000E+00  0.10510265135E+04  0.10510265135E+04  0.00000000000E+00 0.  1.
         21   -1    0    0  502  503 -0.00000000000E+00 -0.00000000000E+00 -0.32926534288E+02  0.32926534288E+02  0.00000000000E+00 0.  1.
          6    1    1    2  501    0  0.18814971559E+02 -0.31776822661E+02  0.34133582882E+03  0.38445145031E+03  0.17300000000E+03 0.  1.
         -6    1    1    2    0  503 -0.18814971559E+02  0.31776822661E+02  0.67676415044E+03  0.69950159752E+03  0.17300000000E+03 0.  1.
<mgrwt>
<rscale>  2 0.17689762E+03</rscale>
<asrwt>0</asrwt>
<pdfrwt beam="1">  1       21 0.16169636E+00 0.17689762E+03</pdfrwt>
<pdfrwt beam="2">  1       21 0.50656215E-02 0.17689762E+03</pdfrwt>
<totfact> 0.64925873E+04</totfact>
</mgrwt>
</event>
<event>
 4    1  0.4621995E+000  0.1782394E+03  0.7546771E-02  0.1169518E+00
         21   -1    0    0  501  502  0.00000000000E+00  0.00000000000E+00  0.17792363478E+03  0.17792363478E+03  0.00000000000E+00 0.  1.
         21   -1    0    0  502  503 -0.00000000000E+00 -0.00000000000E+00 -0.47889130958E+03  0.47889130958E+03  0.00000000000E+00 0.  1.
          6    1    1    2  501    0  0.28704745443E+02  0.31879983157E+02  0.10959073821E+03  0.20923533554E+03  0.17300000000E+03 0.  1.
         -6    1    1    2    0  503 -0.28704745443E+02 -0.31879983157E+02 -0.41055841301E+03  0.44757960882E+03  0.17300000000E+03 0.  1.
<mgrwt>
<rscale>  2 0.17823943E+03</rscale>
<asrwt>0</asrwt>
<pdfrwt beam="1">  1       21 0.27372867E-01 0.17823943E+03</pdfrwt>
<pdfrwt beam="2">  1       21 0.73675586E-01 0.17823943E+03</pdfrwt>
<totfact> 0.21238899E+04</totfact>
</mgrwt>
</event>
<event>
 4    1  0.4621995E+000  0.2276663E+03  0.7546771E-02  0.1128293E+00
         21   -1    0    0  501  502  0.00000000000E+00  0.00000000000E+00  0.76072451584E+03  0.76072451584E+03  0.00000000000E+00 0.  1.
         21   -1    0    0  502  503 -0.00000000000E+00 -0.00000000000E+00 -0.13653324424E+04  0.13653324424E+04  0.00000000000E+00 0. -1.
          6    1    1    2  501    0 -0.14500214777E+03  0.29619668706E+02  0.73386061199E+03  0.76836407091E+03  0.17300000000E+03 0.  1.
         -6    1    1    2    0  503  0.14500214777E+03 -0.29619668706E+02 -0.13384685386E+04  0.13576928874E+04  0.17300000000E+03 0. -1.
<mgrwt>
<rscale>  2 0.22766631E+03</rscale>
<asrwt>0</asrwt>
<pdfrwt beam="1">  1       21 0.11703454E+00 0.22766631E+03</pdfrwt>
<pdfrwt beam="2">  1       21 0.21005114E+00 0.22766631E+03</pdfrwt>
<totfact> 0.61953729E+01</totfact>
</mgrwt>
</event>
<event>
 4    1  0.4621995E+000  0.2299071E+03  0.7546771E-02  0.1126705E+00
         21   -1    0    0  501  502  0.00000000000E+00  0.00000000000E+00  0.23788316809E+03  0.23788316809E+03  0.00000000000E+00 0. -1.
         21   -1    0    0  502  503 -0.00000000000E+00 -0.00000000000E+00 -0.24777918442E+03  0.24777918442E+03  0.00000000000E+00 0.  1.
          6    1    1    2  501    0 -0.47784983408E+02  0.14368318981E+03  0.73076099080E+02  0.24124133130E+03  0.17300000000E+03 0. -1.
         -6    1    1    2    0  503  0.47784983408E+02 -0.14368318981E+03 -0.82972115411E+02  0.24442102121E+03  0.17300000000E+03 0.  1.
<mgrwt>
<rscale>  2 0.22990708E+03</rscale>
<asrwt>0</asrwt>
<pdfrwt beam="1">  1       21 0.36597410E-01 0.22990708E+03</pdfrwt>
<pdfrwt beam="2">  1       21 0.38119875E-01 0.22990708E+03</pdfrwt>
<totfact> 0.46956211E+04</totfact>
</mgrwt>
</event>
<event>
 4    1  0.4621995E+000  0.1806453E+03  0.7546771E-02  0.1167180E+00
         21   -1    0    0  501  502  0.00000000000E+00  0.00000000000E+00  0.78201808316E+02  0.78201808316E+02  0.00000000000E+00 0.  1.
         21   -1    0    0  502  503 -0.00000000000E+00 -0.00000000000E+00 -0.50839073024E+03  0.50839073024E+03  0.00000000000E+00 0.  1.
          6    1    1    2  501    0  0.45628083486E+02 -0.24935620566E+02 -0.90937098251E+02  0.20224307903E+03  0.17300000000E+03 0.  1.
         -6    1    1    2    0  503 -0.45628083486E+02  0.24935620566E+02 -0.33925182367E+03  0.38434945953E+03  0.17300000000E+03 0.  1.
<mgrwt>
<rscale>  2 0.18064525E+03</rscale>
<asrwt>0</asrwt>
<pdfrwt beam="1">  1       21 0.12031047E-01 0.18064525E+03</pdfrwt>
<pdfrwt beam="2">  1       21 0.78213960E-01 0.18064525E+03</pdfrwt>
<totfact> 0.84953779E+04</totfact>
</mgrwt>
</event>
<event>
 4    1  0.4621995E+000  0.1981066E+03  0.7546771E-02  0.1151346E+00
         21   -1    0    0  501  502  0.00000000000E+00  0.00000000000E+00  0.12361464009E+03  0.12361464009E+03  0.00000000000E+00 0.  1.
         21   -1    0    0  502  503 -0.00000000000E+00 -0.00000000000E+00 -0.51237423720E+03  0.51237423720E+03  0.00000000000E+00 0. -1.
          6    1    1    2  501    0 -0.89378960963E+02 -0.36450301734E+02  0.17375179204E+01  0.19811421486E+03  0.17300000000E+03 0.  1.
         -6    1    1    2    0  503  0.89378960963E+02  0.36450301734E+02 -0.39049711503E+03  0.43787466244E+03  0.17300000000E+03 0. -1.
<mgrwt>
<rscale>  2 0.19810660E+03</rscale>
<asrwt>0</asrwt>
<pdfrwt beam="1">  1       21 0.19017637E-01 0.19810660E+03</pdfrwt>
<pdfrwt beam="2">  1       21 0.78826804E-01 0.19810660E+03</pdfrwt>
<totfact> 0.35948269E+04</totfact>
</mgrwt>
</event>
<event>
 4    1  0.4621995E+000  0.1778735E+03  0.7546771E-02  0.1169877E+00
         21   -1    0    0  501  502  0.00000000000E+00  0.00000000000E+00  0.20980816188E+03  0.20980816188E+03  0.00000000000E+00 0. -1.
         21   -1    0    0  502  503 -0.00000000000E+00 -0.00000000000E+00 -0.35847531486E+03  0.35847531486E+03  0.00000000000E+00 0. -1.
          6    1    1    2  501    0 -0.35057247452E+02  0.21931116103E+02  0.14193741680E+03  0.22756364987E+03  0.17300000000E+03 0. -1.
         -6    1    1    2    0  503  0.35057247452E+02 -0.21931116103E+02 -0.29060456978E+03  0.34071982688E+03  0.17300000000E+03 0. -1.
<mgrwt>
<rscale>  2 0.17787351E+03</rscale>
<asrwt>0</asrwt>
<pdfrwt beam="1">  1       21 0.32278179E-01 0.17787351E+03</pdfrwt>
<pdfrwt beam="2">  1       21 0.55150048E-01 0.17787351E+03</pdfrwt>
<totfact> 0.28870039E+04</totfact>
</mgrwt>
</event>
<event>
 4    1  0.4621995E+000  0.2019807E+03  0.7546771E-02  0.1148079E+00
         21   -1    0    0  501  502  0.00000000000E+00  0.00000000000E+00  0.14577929400E+04  0.14577929400E+04  0.00000000000E+00 0. -1.
         21   -1    0    0  502  503 -0.00000000000E+00 -0.00000000000E+00 -0.52769747827E+02  0.52769747827E+02  0.00000000000E+00 0. -1.
          6    1    1    2  501    0  0.95403384077E+02 -0.42016547163E+02  0.12201295582E+04  0.12367345450E+04  0.17300000000E+03 0. -1.
         -6    1    1    2    0  503 -0.95403384077E+02  0.42016547163E+02  0.18489363393E+03  0.27382814281E+03  0.17300000000E+03 0. -1.
<mgrwt>
<rscale>  2 0.20198068E+03</rscale>
<asrwt>0</asrwt>
<pdfrwt beam="1">  1       21 0.22427581E+00 0.20198068E+03</pdfrwt>
<pdfrwt beam="2">  1       21 0.81184239E-02 0.20198068E+03</pdfrwt>
<totfact> 0.10989667E+04</totfact>
</mgrwt>
</event>
<event>
 4    1  0.4621995E+000  0.3319767E+03  0.7546771E-02  0.1070266E+00
         21   -1    0    0  503  502  0.00000000000E+00  0.00000000000E+00  0.76534415100E+03  0.76534415100E+03  0.00000000000E+00 0.  1.
         21   -1    0    0  501  503 -0.00000000000E+00 -0.00000000000E+00 -0.22682407818E+03  0.22682407818E+03  0.00000000000E+00 0. -1.
          6    1    1    2  501    0  0.25275979139E+03  0.12803142851E+03 -0.30512933457E+02  0.33337606083E+03  0.17300000000E+03 0. -1.
         -6    1    1    2    0  502 -0.25275979139E+03 -0.12803142851E+03  0.56903300628E+03  0.65879216834E+03  0.17300000000E+03 0.  1.
<mgrwt>
<rscale>  2 0.33197674E+03</rscale>
<asrwt>0</asrwt>
<pdfrwt beam="1">  1       21 0.11774525E+00 0.33197674E+03</pdfrwt>
<pdfrwt beam="2">  1       21 0.34896013E-01 0.33197674E+03</pdfrwt>
<totfact> 0.40088679E+03</totfact>
</mgrwt>
</event>
<event>
 4    1  0.4621995E+000  0.1922874E+03  0.7546771E-02  0.1156414E+00
         21   -1    0    0  503  502  0.00000000000E+00  0.00000000000E+00  0.25175549530E+03  0.25175549530E+03  0.00000000000E+00 0.  1.
         21   -1    0    0  501  503 -0.00000000000E+00 -0.00000000000E+00 -0.15150393885E+03  0.15150393885E+03  0.00000000000E+00 0. -1.
          6    1    1    2  501    0 -0.19735200185E+02  0.81584081533E+02  0.14849467610E+02  0.19285991593E+03  0.17300000000E+03 0. -1.
         -6    1    1    2    0  502  0.19735200185E+02 -0.81584081533E+02  0.85402088836E+02  0.21039951821E+03  0.17300000000E+03 0.  1.
<mgrwt>
<rscale>  2 0.19228739E+03</rscale>
<asrwt>0</asrwt>
<pdfrwt beam="1">  1       21 0.38731615E-01 0.19228739E+03</pdfrwt>
<pdfrwt beam="2">  1       21 0.23308298E-01 0.19228739E+03</pdfrwt>
<totfact> 0.11126131E+05</totfact>
</mgrwt>
</event>
<event>
 4    1  0.4621995E+000  0.2297976E+03  0.7546771E-02  0.1126782E+00
         21   -1    0    0  501  502  0.00000000000E+00  0.00000000000E+00  0.90554724980E+02  0.90554724980E+02  0.00000000000E+00 0. -1.
         21   -1    0    0  502  503 -0.00000000000E+00 -0.00000000000E+00 -0.83560328417E+03  0.83560328417E+03  0.00000000000E+00 0. -1.
          6    1    1    2  501    0  0.14168293059E+03 -0.52951663349E+02 -0.11799012275E+03  0.25831879633E+03  0.17300000000E+03 0. -1.
         -6    1    1    2    0  503 -0.14168293059E+03  0.52951663349E+02 -0.62705843644E+03  0.66783921282E+03  0.17300000000E+03 0. -1.
<mgrwt>
<rscale>  2 0.22979759E+03</rscale>
<asrwt>0</asrwt>
<pdfrwt beam="1">  1       21 0.13931496E-01 0.22979759E+03</pdfrwt>
<pdfrwt beam="2">  1       21 0.12855436E+00 0.22979759E+03</pdfrwt>
<totfact> 0.19492899E+04</totfact>
</mgrwt>
</event>
<event>
 4    1  0.4621995E+000  0.2689116E+03  0.7546771E-02  0.1101904E+00
         21   -1    0    0  503  502  0.00000000000E+00  0.00000000000E+00  0.41919939081E+02  0.41919939081E+02  0.00000000000E+00 0.  1.
         21   -1    0    0  501  503 -0.00000000000E+00 -0.00000000000E+00 -0.23643020781E+04  0.23643020781E+04  0.00000000000E+00 0. -1.
          6    1    1    2  501    0 -0.19973848848E+03 -0.49889675604E+02 -0.17867881721E+04  0.18069104614E+04  0.17300000000E+03 0. -1.
         -6    1    1    2    0  502  0.19973848848E+03  0.49889675604E+02 -0.53559396695E+03  0.59931155583E+03  0.17300000000E+03 0.  1.
<mgrwt>
<rscale>  2 0.26891159E+03</rscale>
<asrwt>0</asrwt>
<pdfrwt beam="1">  1       21 0.64492195E-02 0.26891159E+03</pdfrwt>
<pdfrwt beam="2">  1       21 0.36373889E+00 0.26891159E+03</pdfrwt>
<totfact> 0.23096421E+03</totfact>
</mgrwt>
</event>
<event>
 4    1  0.4621995E+000  0.3347102E+03  0.7546771E-02  0.1069072E+00
         21   -1    0    0  503  502  0.00000000000E+00  0.00000000000E+00  0.48813074431E+03  0.48813074431E+03  0.00000000000E+00 0. -1.
         21   -1    0    0  501  503 -0.00000000000E+00 -0.00000000000E+00 -0.23625892616E+03  0.23625892616E+03  0.00000000000E+00 0.  1.
          6    1    1    2  501    0 -0.28002231399E+03  0.60740471351E+02  0.64719965031E+02  0.34090992222E+03  0.17300000000E+03 0. -1.
         -6    1    1    2    0  502  0.28002231399E+03 -0.60740471351E+02  0.18715185311E+03  0.38347974825E+03  0.17300000000E+03 0. -1.
<mgrwt>
<rscale>  2 0.33471017E+03</rscale>
<asrwt>0</asrwt>
<pdfrwt beam="1">  1       21 0.75097037E-01 0.33471017E+03</pdfrwt>
<pdfrwt beam="2">  1       21 0.36347527E-01 0.33471017E+03</pdfrwt>
<totfact> 0.10741897E+04</totfact>
</mgrwt>
</event>
<event>
 4    1  0.4621995E+000  0.1984270E+03  0.7546771E-02  0.1151073E+00
         21   -1    0    0  503  502  0.00000000000E+00  0.00000000000E+00  0.28065584183E+03  0.28065584183E+03  0.00000000000E+00 0. -1.
         21   -1    0    0  501  503 -0.00000000000E+00 -0.00000000000E+00 -0.20491695211E+03  0.20491695211E+03  0.00000000000E+00 0.  1.
          6    1    1    2  501    0  0.84790512102E+02  0.47485181967E+02 -0.98476259727E+02  0.22151940587E+03  0.17300000000E+03 0.  1.
         -6    1    1    2    0  502 -0.84790512102E+02 -0.47485181967E+02  0.17421514946E+03  0.26405338807E+03  0.17300000000E+03 0. -1.
<mgrwt>
<rscale>  2 0.19842700E+03</rscale>
<asrwt>0</asrwt>
<pdfrwt beam="1">  1       21 0.43177822E-01 0.19842700E+03</pdfrwt>
<pdfrwt beam="2">  1       21 0.31525685E-01 0.19842700E+03</pdfrwt>
<totfact> 0.49737909E+04</totfact>
</mgrwt>
</event>
<event>
 4    1  0.4621995E+000  0.1876228E+03  0.7546771E-02  0.1160623E+00
         21   -1    0    0  501  502  0.00000000000E+00  0.00000000000E+00  0.53215587135E+03  0.53215587135E+03  0.00000000000E+00 0. -1.
         21   -1    0    0  502  503 -0.00000000000E+00 -0.00000000000E+00 -0.12493013304E+03  0.12493013304E+03  0.00000000000E+00 0. -1.
          6    1    1    2  501    0  0.21747295066E+02 -0.69284809754E+02  0.42897055974E+03  0.46820729472E+03  0.17300000000E+03 0. -1.
         -6    1    1    2    0  503 -0.21747295066E+02  0.69284809754E+02 -0.21744821436E+02  0.18887870966E+03  0.17300000000E+03 0. -1.
<mgrwt>
<rscale>  2 0.18762284E+03</rscale>
<asrwt>0</asrwt>
<pdfrwt beam="1">  1       21 0.81870133E-01 0.18762284E+03</pdfrwt>
<pdfrwt beam="2">  1       21 0.19220021E-01 0.18762284E+03</pdfrwt>
<totfact> 0.32535874E+04</totfact>
</mgrwt>
</event>
<event>
 4    1  0.4621995E+000  0.1865170E+03  0.7546771E-02  0.1161641E+00
         21   -1    0    0  503  502  0.00000000000E+00  0.00000000000E+00  0.23168445355E+03  0.23168445355E+03  0.00000000000E+00 0. -1.
         21   -1    0    0  501  503 -0.00000000000E+00 -0.00000000000E+00 -0.16279104913E+03  0.16279104913E+03  0.00000000000E+00 0.  1.
          6    1    1    2  501    0  0.48216903031E+02  0.50345893372E+02 -0.20504913299E+02  0.18764069438E+03  0.17300000000E+03 0. -1.
         -6    1    1    2    0  502 -0.48216903031E+02 -0.50345893372E+02  0.89398317715E+02  0.20683480831E+03  0.17300000000E+03 0. -1.
<mgrwt>
<rscale>  2 0.18651697E+03</rscale>
<asrwt>0</asrwt>
<pdfrwt beam="1">  1       21 0.35643762E-01 0.18651697E+03</pdfrwt>
<pdfrwt beam="2">  1       21 0.25044777E-01 0.18651697E+03</pdfrwt>
<totfact> 0.11481456E+05</totfact>
</mgrwt>
</event>
<event>
 4    1  0.4621995E+000  0.1795424E+03  0.7546771E-02  0.1168247E+00
         21   -1    0    0  503  502  0.00000000000E+00  0.00000000000E+00  0.13746706482E+03  0.13746706482E+03  0.00000000000E+00 0.  1.
         21   -1    0    0  501  503 -0.00000000000E+00 -0.00000000000E+00 -0.34606704344E+03  0.34606704344E+03  0.00000000000E+00 0.  1.
          6    1    1    2  501    0  0.10626525553E+02 -0.46835371122E+02 -0.24157540588E+03  0.30098862397E+03  0.17300000000E+03 0. -1.
         -6    1    1    2    0  502 -0.10626525553E+02  0.46835371122E+02  0.32975427254E+02  0.18254548429E+03  0.17300000000E+03 0. -1.
<mgrwt>
<rscale>  2 0.17954240E+03</rscale>
<asrwt>0</asrwt>
<pdfrwt beam="1">  1       21 0.21148779E-01 0.17954240E+03</pdfrwt>
<pdfrwt beam="2">  1       21 0.53241083E-01 0.17954240E+03</pdfrwt>
<totfact> 0.69844653E+04</totfact>
</mgrwt>
</event>
<event>
 4    1  0.4621995E+000  0.1769233E+03  0.7546771E-02  0.1170814E+00
         21   -1    0    0  503  502  0.00000000000E+00  0.00000000000E+00  0.23355000324E+04  0.23355000324E+04  0.00000000000E+00 0. -1.
         21   -1    0    0  501  503 -0.00000000000E+00 -0.00000000000E+00 -0.20596497921E+02  0.20596497921E+02  0.00000000000E+00 0. -1.
          6    1    1    2  501    0  0.36775763523E+02  0.45160460245E+01  0.46123013837E+03  0.49399908096E+03  0.17300000000E+03 0. -1.
         -6    1    1    2    0  502 -0.36775763523E+02 -0.45160460245E+01  0.18536733961E+04  0.18620974493E+04  0.17300000000E+03 0. -1.
<mgrwt>
<rscale>  2 0.17692329E+03</rscale>
<asrwt>0</asrwt>
<pdfrwt beam="1">  1       21 0.35930749E+00 0.17692329E+03</pdfrwt>
<pdfrwt beam="2">  1       21 0.31686938E-02 0.17692329E+03</pdfrwt>
<totfact> 0.90815621E+03</totfact>
</mgrwt>
</event>
<event>
 4    1  0.4621995E+000  0.3756018E+03  0.7546771E-02  0.1052571E+00
         21   -1    0    0  501  502  0.00000000000E+00  0.00000000000E+00  0.12622147909E+04  0.12622147909E+04  0.00000000000E+00 0.  1.
         21   -1    0    0  502  503 -0.00000000000E+00 -0.00000000000E+00 -0.13660267352E+03  0.13660267352E+03  0.00000000000E+00 0.  1.
          6    1    1    2  501    0  0.16099022406E+02  0.33299933682E+03  0.86101467614E+03  0.93937373253E+03  0.17300000000E+03 0.  1.
         -6    1    1    2    0  503 -0.16099022406E+02 -0.33299933682E+03  0.26459744122E+03  0.45944373186E+03  0.17300000000E+03 0.  1.
<mgrwt>
<rscale>  2 0.37560183E+03</rscale>
<asrwt>0</asrwt>
<pdfrwt beam="1">  1       21 0.19418688E+00 0.37560183E+03</pdfrwt>
<pdfrwt beam="2">  1       21 0.21015797E-01 0.37560183E+03</pdfrwt>
<totfact> 0.27119415E+03</totfact>
</mgrwt>
</event>
<event>
 4    1  0.4621995E+000  0.1820835E+03  0.7546771E-02  0.1165802E+00
         21   -1    0    0  503  502  0.00000000000E+00  0.00000000000E+00  0.14586263111E+03  0.14586263111E+03  0.00000000000E+00 0. -1.
         21   -1    0    0  501  503 -0.00000000000E+00 -0.00000000000E+00 -0.37044456733E+03  0.37044456733E+03  0.00000000000E+00 0. -1.
          6    1    1    2  501    0 -0.52434686973E+02 -0.21817472442E+02 -0.27276540152E+03  0.32795634278E+03  0.17300000000E+03 0. -1.
         -6    1    1    2    0  502  0.52434686973E+02  0.21817472442E+02  0.48183465299E+02  0.18835085567E+03  0.17300000000E+03 0. -1.
<mgrwt>
<rscale>  2 0.18208349E+03</rscale>
<asrwt>0</asrwt>
<pdfrwt beam="1">  1       21 0.22440405E-01 0.18208349E+03</pdfrwt>
<pdfrwt beam="2">  1       21 0.56991471E-01 0.18208349E+03</pdfrwt>
<totfact> 0.54047129E+04</totfact>
</mgrwt>
</event>
<event>
 4    1  0.4621995E+000  0.2511153E+03  0.7546771E-02  0.1112602E+00
         21   -1    0    0  503  502  0.00000000000E+00  0.00000000000E+00  0.38229274814E+03  0.38229274814E+03  0.00000000000E+00 0.  1.
         21   -1    0    0  501  503 -0.00000000000E+00 -0.00000000000E+00 -0.20055864175E+03  0.20055864175E+03  0.00000000000E+00 0. -1.
          6    1    1    2  501    0 -0.21101561652E+02 -0.18078891472E+03 -0.31930394672E+02  0.25313723095E+03  0.17300000000E+03 0. -1.
         -6    1    1    2    0  502  0.21101561652E+02  0.18078891472E+03  0.21366450106E+03  0.32971415894E+03  0.17300000000E+03 0.  1.
<mgrwt>
<rscale>  2 0.25111533E+03</rscale>
<asrwt>0</asrwt>
<pdfrwt beam="1">  1       21 0.58814269E-01 0.25111533E+03</pdfrwt>
<pdfrwt beam="2">  1       21 0.30855176E-01 0.25111533E+03</pdfrwt>
<totfact> 0.26472880E+04</totfact>
</mgrwt>
</event>
<event>
 4    1  0.4621995E+000  0.1851063E+03  0.7546771E-02  0.1162951E+00
         21   -1    0    0  503  502  0.00000000000E+00  0.00000000000E+00  0.56767590019E+02  0.56767590019E+02  0.00000000000E+00 0.  1.
         21   -1    0    0  501  503 -0.00000000000E+00 -0.00000000000E+00 -0.10991131130E+04  0.10991131130E+04  0.00000000000E+00 0.  1.
          6    1    1    2  501    0 -0.25362160088E+02 -0.60762785618E+02 -0.90922816743E+03  0.92787941875E+03  0.17300000000E+03 0.  1.
         -6    1    1    2    0  502  0.25362160088E+02  0.60762785618E+02 -0.13311735554E+03  0.22800128426E+03  0.17300000000E+03 0.  1.
<mgrwt>
<rscale>  2 0.18510634E+03</rscale>
<asrwt>0</asrwt>
<pdfrwt beam="1">  1       21 0.87334758E-02 0.18510634E+03</pdfrwt>
<pdfrwt beam="2">  1       21 0.16909432E+00 0.18510634E+03</pdfrwt>
<totfact> 0.22412218E+04</totfact>
</mgrwt>
</event>
<event>
 4    1  0.4621995E+000  0.1830346E+03  0.7546771E-02  0.1164898E+00
         21   -1    0    0  503  502  0.00000000000E+00  0.00000000000E+00  0.45525097251E+02  0.45525097251E+02  0.00000000000E+00 0.  1.
         21   -1    0    0  501  503 -0.00000000000E+00 -0.00000000000E+00 -0.73767881098E+03  0.73767881098E+03  0.00000000000E+00 0.  1.
          6    1    1    2  501    0 -0.32997376111E+02  0.49837990087E+02 -0.36533838864E+03  0.40862426543E+03  0.17300000000E+03 0.  1.
         -6    1    1    2    0  502  0.32997376111E+02 -0.49837990087E+02 -0.32681532509E+03  0.37457964280E+03  0.17300000000E+03 0.  1.
<mgrwt>
<rscale>  2 0.18303457E+03</rscale>
<asrwt>0</asrwt>
<pdfrwt beam="1">  1       21 0.70038611E-02 0.18303457E+03</pdfrwt>
<pdfrwt beam="2">  1       21 0.11348905E+00 0.18303457E+03</pdfrwt>
<totfact> 0.91879924E+04</totfact>
</mgrwt>
</event>
<event>
 4    1  0.4621995E+000  0.1980990E+03  0.7546771E-02  0.1151353E+00
         21   -1    0    0  503  502  0.00000000000E+00  0.00000000000E+00  0.10653989694E+03  0.10653989694E+03  0.00000000000E+00 0. -1.
         21   -1    0    0  501  503 -0.00000000000E+00 -0.00000000000E+00 -0.60459033638E+03  0.60459033638E+03  0.00000000000E+00 0. -1.
          6    1    1    2  501    0  0.62889836166E+02  0.73205887441E+02 -0.47129065799E+03  0.51123196081E+03  0.17300000000E+03 0. -1.
         -6    1    1    2    0  502 -0.62889836166E+02 -0.73205887441E+02 -0.26759781444E+02  0.19989827251E+03  0.17300000000E+03 0. -1.
<mgrwt>
<rscale>  2 0.19809905E+03</rscale>
<asrwt>0</asrwt>
<pdfrwt beam="1">  1       21 0.16390753E-01 0.19809905E+03</pdfrwt>
<pdfrwt beam="2">  1       21 0.93013898E-01 0.19809905E+03</pdfrwt>
<totfact> 0.32367795E+04</totfact>
</mgrwt>
</event>
<event>
 4    1  0.4621995E+000  0.1836094E+03  0.7546771E-02  0.1164355E+00
         21   -1    0    0  501  502  0.00000000000E+00  0.00000000000E+00  0.87597814033E+02  0.87597814033E+02  0.00000000000E+00 0.  1.
         21   -1    0    0  502  503 -0.00000000000E+00 -0.00000000000E+00 -0.38673929582E+03  0.38673929582E+03  0.00000000000E+00 0.  1.
          6    1    1    2  501    0  0.23431199316E+02  0.56871772926E+02 -0.16612734451E+03  0.24761000434E+03  0.17300000000E+03 0.  1.
         -6    1    1    2    0  503 -0.23431199316E+02 -0.56871772926E+02 -0.13301413728E+03  0.22672710551E+03  0.17300000000E+03 0.  1.
<mgrwt>
<rscale>  2 0.18360942E+03</rscale>
<asrwt>0</asrwt>
<pdfrwt beam="1">  1       21 0.13476587E-01 0.18360942E+03</pdfrwt>
<pdfrwt beam="2">  1       21 0.59498352E-01 0.18360942E+03</pdfrwt>
<totfact> 0.12607735E+05</totfact>
</mgrwt>
</event>
<event>
 4    1  0.4621995E+000  0.2353369E+03  0.7546771E-02  0.1122939E+00
         21   -1    0    0  503  502  0.00000000000E+00  0.00000000000E+00  0.57949333255E+02  0.57949333255E+02  0.00000000000E+00 0.  1.
         21   -1    0    0  501  503 -0.00000000000E+00 -0.00000000000E+00 -0.96239592090E+03  0.96239592090E+03  0.00000000000E+00 0. -1.
          6    1    1    2  501    0  0.11874028255E+03  0.10656077579E+03 -0.49470776870E+03  0.54783138834E+03  0.17300000000E+03 0. -1.
         -6    1    1    2    0  502 -0.11874028255E+03 -0.10656077579E+03 -0.40973881894E+03  0.47251386581E+03  0.17300000000E+03 0.  1.
<mgrwt>
<rscale>  2 0.23533689E+03</rscale>
<asrwt>0</asrwt>
<pdfrwt beam="1">  1       21 0.89152822E-02 0.23533689E+03</pdfrwt>
<pdfrwt beam="2">  1       21 0.14806091E+00 0.23533689E+03</pdfrwt>
<totfact> 0.29958163E+04</totfact>
</mgrwt>
</event>
<event>
 4    1  0.4621995E+000  0.1765459E+03  0.7546771E-02  0.1171188E+00
         21   -1    0    0  501  502  0.00000000000E+00  0.00000000000E+00  0.21997908344E+03  0.21997908344E+03  0.00000000000E+00 0.  1.
         21   -1    0    0  502  503 -0.00000000000E+00 -0.00000000000E+00 -0.33229636928E+03  0.33229636928E+03  0.00000000000E+00 0.  1.
          6    1    1    2  501    0  0.29932631129E+02 -0.18533835216E+02  0.15297965624E+03  0.23360488154E+03  0.17300000000E+03 0.  1.
         -6    1    1    2    0  503 -0.29932631129E+02  0.18533835216E+02 -0.26529694208E+03  0.31867057117E+03  0.17300000000E+03 0.  1.
<mgrwt>
<rscale>  2 0.17654593E+03</rscale>
<asrwt>0</asrwt>
<pdfrwt beam="1">  1       21 0.33842936E-01 0.17654593E+03</pdfrwt>
<pdfrwt beam="2">  1       21 0.51122518E-01 0.17654593E+03</pdfrwt>
<totfact> 0.30865886E+04</totfact>
</mgrwt>
</event>
<event>
 4    1  0.4621995E+000  0.2419571E+03  0.7546771E-02  0.1118496E+00
         21   -1    0    0  503  502  0.00000000000E+00  0.00000000000E+00  0.43521827301E+03  0.43521827301E+03  0.00000000000E+00 0.  1.
         21   -1    0    0  501  503 -0.00000000000E+00 -0.00000000000E+00 -0.16467893174E+03  0.16467893174E+03  0.00000000000E+00 0. -1.
          6    1    1    2  501    0 -0.40452802361E+02  0.16424926437E+03  0.26364277546E+03  0.35784181298E+03  0.17300000000E+03 0. -1.
         -6    1    1    2    0  502  0.40452802361E+02 -0.16424926437E+03  0.68965658128E+01  0.24205539177E+03  0.17300000000E+03 0. -1.
<mgrwt>
<rscale>  2 0.24195712E+03</rscale>
<asrwt>0</asrwt>
<pdfrwt beam="1">  1       21 0.66956657E-01 0.24195712E+03</pdfrwt>
<pdfrwt beam="2">  1       21 0.25335220E-01 0.24195712E+03</pdfrwt>
<totfact> 0.29409209E+04</totfact>
</mgrwt>
</event>
<event>
 4    1  0.4621995E+000  0.2285740E+03  0.7546771E-02  0.1127648E+00
         21   -1    0    0  503  502  0.00000000000E+00  0.00000000000E+00  0.54560163861E+02  0.54560163861E+02  0.00000000000E+00 0. -1.
         21   -1    0    0  501  503 -0.00000000000E+00 -0.00000000000E+00 -0.99068126677E+03  0.99068126677E+03  0.00000000000E+00 0. -1.
          6    1    1    2  501    0  0.13609892861E+03 -0.61596621064E+02 -0.56358202672E+03  0.60817001154E+03  0.17300000000E+03 0. -1.
         -6    1    1    2    0  502 -0.13609892861E+03  0.61596621064E+02 -0.37253907618E+03  0.43707141908E+03  0.17300000000E+03 0. -1.
<mgrwt>
<rscale>  2 0.22857398E+03</rscale>
<asrwt>0</asrwt>
<pdfrwt beam="1">  1       21 0.83938725E-02 0.22857398E+03</pdfrwt>
<pdfrwt beam="2">  1       21 0.15241248E+00 0.22857398E+03</pdfrwt>
<totfact> 0.30954507E+04</totfact>
</mgrwt>
</event>
<event>
 4    1  0.4621995E+000  0.2083497E+03  0.7546771E-02  0.1142880E+00
         21   -1    0    0  501  502  0.00000000000E+00  0.00000000000E+00  0.15966843516E+03  0.15966843516E+03  0.00000000000E+00 0. -1.
         21   -1    0    0  502  503 -0.00000000000E+00 -0.00000000000E+00 -0.27250492114E+03  0.27250492114E+03  0.00000000000E+00 0. -1.
          6    1    1    2  501    0  0.11245423821E+03  0.28890303501E+02 -0.66820414786E+02  0.21880258947E+03  0.17300000000E+03 0. -1.
         -6    1    1    2    0  503 -0.11245423821E+03 -0.28890303501E+02 -0.46016071189E+02  0.21337076682E+03  0.17300000000E+03 0. -1.
<mgrwt>
<rscale>  2 0.20834972E+03</rscale>
<asrwt>0</asrwt>
<pdfrwt beam="1">  1       21 0.24564375E-01 0.20834972E+03</pdfrwt>
<pdfrwt beam="2">  1       21 0.41923834E-01 0.20834972E+03</pdfrwt>
<totfact> 0.85214333E+04</totfact>
</mgrwt>
</event>
<event>
 4    1  0.4621995E+000  0.2129516E+03  0.7546771E-02  0.1139250E+00
         21   -1    0    0  503  502  0.00000000000E+00  0.00000000000E+00  0.98307299387E+02  0.98307299387E+02  0.00000000000E+00 0.  1.
         21   -1    0    0  501  503 -0.00000000000E+00 -0.00000000000E+00 -0.70757844626E+03  0.70757844626E+03  0.00000000000E+00 0. -1.
          6    1    1    2  501    0 -0.55841729113E+02  0.11091024631E+03 -0.54236138626E+03  0.58266993637E+03  0.17300000000E+03 0. -1.
         -6    1    1    2    0  502  0.55841729113E+02 -0.11091024631E+03 -0.66909760618E+02  0.22321580928E+03  0.17300000000E+03 0.  1.
<mgrwt>
<rscale>  2 0.21295159E+03</rscale>
<asrwt>0</asrwt>
<pdfrwt beam="1">  1       21 0.15124200E-01 0.21295159E+03</pdfrwt>
<pdfrwt beam="2">  1       21 0.10885822E+00 0.21295159E+03</pdfrwt>
<totfact> 0.25575218E+04</totfact>
</mgrwt>
</event>
<event>
 4    1  0.4621995E+000  0.2215457E+03  0.7546771E-02  0.1132736E+00
         21   -1    0    0  503  502  0.00000000000E+00  0.00000000000E+00  0.25792352692E+03  0.25792352692E+03  0.00000000000E+00 0.  1.
         21   -1    0    0  501  503 -0.00000000000E+00 -0.00000000000E+00 -0.41775517423E+03  0.41775517423E+03  0.00000000000E+00 0.  1.
          6    1    1    2  501    0 -0.83649774539E+02  0.11025530178E+03 -0.32920214543E+03  0.39680797485E+03  0.17300000000E+03 0.  1.
         -6    1    1    2    0  502  0.83649774539E+02 -0.11025530178E+03  0.16937049812E+03  0.27887072629E+03  0.17300000000E+03 0.  1.
<mgrwt>
<rscale>  2 0.22154574E+03</rscale>
<asrwt>0</asrwt>
<pdfrwt beam="1">  1       21 0.39680543E-01 0.22154574E+03</pdfrwt>
<pdfrwt beam="2">  1       21 0.64270027E-01 0.22154574E+03</pdfrwt>
<totfact> 0.13427716E+04</totfact>
</mgrwt>
</event>
<event>
 4    1  0.4621995E+000  0.2698294E+03  0.7546771E-02  0.1101377E+00
         21   -1    0    0  501  502  0.00000000000E+00  0.00000000000E+00  0.11047982600E+04  0.11047982600E+04  0.00000000000E+00 0.  1.
         21   -1    0    0  502  503 -0.00000000000E+00 -0.00000000000E+00 -0.11841341577E+03  0.11841341577E+03  0.00000000000E+00 0. -1.
          6    1    1    2  501    0 -0.11743744709E+03  0.17055017594E+03  0.90047881144E+03  0.94003723668E+03  0.17300000000E+03 0.  1.
         -6    1    1    2    0  503  0.11743744709E+03 -0.17055017594E+03  0.85906032820E+02  0.28317443911E+03  0.17300000000E+03 0. -1.
<mgrwt>
<rscale>  2 0.26982942E+03</rscale>
<asrwt>0</asrwt>
<pdfrwt beam="1">  1       21 0.16996896E+00 0.26982942E+03</pdfrwt>
<pdfrwt beam="2">  1       21 0.18217449E-01 0.26982942E+03</pdfrwt>
<totfact> 0.55367201E+03</totfact>
</mgrwt>
</event>
<event>
 4    1  0.4621995E+000  0.2391461E+03  0.7546771E-02  0.1120363E+00
         21   -1    0    0  501  502  0.00000000000E+00  0.00000000000E+00  0.89253182226E+02  0.89253182226E+02  0.00000000000E+00 0.  1.
         21   -1    0    0  502  503 -0.00000000000E+00 -0.00000000000E+00 -0.66575091833E+03  0.66575091833E+03  0.00000000000E+00 0.  1.
          6    1    1    2  501    0 -0.16360763652E+03  0.22234613226E+02 -0.21512480650E+03  0.32166678275E+03  0.17300000000E+03 0.  1.
         -6    1    1    2    0  503  0.16360763652E+03 -0.22234613226E+02 -0.36137292961E+03  0.43333731781E+03  0.17300000000E+03 0.  1.
<mgrwt>
<rscale>  2 0.23914606E+03</rscale>
<asrwt>0</asrwt>
<pdfrwt beam="1">  1       21 0.13731258E-01 0.23914606E+03</pdfrwt>
<pdfrwt beam="2">  1       21 0.10242322E+00 0.23914606E+03</pdfrwt>
<totfact> 0.34857091E+04</totfact>
</mgrwt>
</event>
<event>
 4    1  0.4621995E+000  0.1735742E+03  0.7546771E-02  0.1174171E+00
         21   -1    0    0  503  502  0.00000000000E+00  0.00000000000E+00  0.21264159907E+03  0.21264159907E+03  0.00000000000E+00 0.  1.
         21   -1    0    0  501  503 -0.00000000000E+00 -0.00000000000E+00 -0.16382566955E+03  0.16382566955E+03  0.00000000000E+00 0.  1.
          6    1    1    2  501    0 -0.95605729055E+01  0.10373440706E+02  0.93608076978E+02  0.19720670603E+03  0.17300000000E+03 0.  1.
         -6    1    1    2    0  502  0.95605729055E+01 -0.10373440706E+02 -0.44792147454E+02  0.17926056259E+03  0.17300000000E+03 0.  1.
<mgrwt>
<rscale>  2 0.17357423E+03</rscale>
<asrwt>0</asrwt>
<pdfrwt beam="1">  1       21 0.32714092E-01 0.17357423E+03</pdfrwt>
<pdfrwt beam="2">  1       21 0.25203949E-01 0.17357423E+03</pdfrwt>
<totfact> 0.13499470E+05</totfact>
</mgrwt>
</event>
<event>
 4    1  0.4621995E+000  0.2061750E+03  0.7546771E-02  0.1144631E+00
         21   -1    0    0  503  502  0.00000000000E+00  0.00000000000E+00  0.13956828722E+03  0.13956828722E+03  0.00000000000E+00 0. -1.
         21   -1    0    0  501  503 -0.00000000000E+00 -0.00000000000E+00 -0.31576357087E+03  0.31576357087E+03  0.00000000000E+00 0. -1.
          6    1    1    2  501    0 -0.10139089683E+03 -0.47947981428E+02 -0.13096510791E+03  0.24425393011E+03  0.17300000000E+03 0. -1.
         -6    1    1    2    0  502  0.10139089683E+03  0.47947981428E+02 -0.45230175743E+02  0.21107792798E+03  0.17300000000E+03 0. -1.
<mgrwt>
<rscale>  2 0.20617498E+03</rscale>
<asrwt>0</asrwt>
<pdfrwt beam="1">  1       21 0.21472044E-01 0.20617498E+03</pdfrwt>
<pdfrwt beam="2">  1       21 0.48579011E-01 0.20617498E+03</pdfrwt>
<totfact> 0.81282609E+04</totfact>
</mgrwt>
</event>
<event>
 4    1  0.4621995E+000  0.1820852E+03  0.7546771E-02  0.1165800E+00
         21   -1    0    0  501  502  0.00000000000E+00  0.00000000000E+00  0.95786529572E+02  0.95786529572E+02  0.00000000000E+00 0. -1.
         21   -1    0    0  502  503 -0.00000000000E+00 -0.00000000000E+00 -0.35588551426E+03  0.35588551426E+03  0.00000000000E+00 0. -1.
          6    1    1    2  501    0 -0.45647720538E+02  0.33798153991E+02 -0.16743138694E+03  0.24736268703E+03  0.17300000000E+03 0. -1.
         -6    1    1    2    0  503  0.45647720538E+02 -0.33798153991E+02 -0.92667597748E+02  0.20430935680E+03  0.17300000000E+03 0. -1.
<mgrwt>
<rscale>  2 0.18208523E+03</rscale>
<asrwt>0</asrwt>
<pdfrwt beam="1">  1       21 0.14736389E-01 0.18208523E+03</pdfrwt>
<pdfrwt beam="2">  1       21 0.54751619E-01 0.18208523E+03</pdfrwt>
<totfact> 0.12805662E+05</totfact>
</mgrwt>
</event>
<event>
 4    1  0.4621995E+000  0.1997484E+03  0.7546771E-02  0.1149951E+00
         21   -1    0    0  501  502  0.00000000000E+00  0.00000000000E+00  0.40116619332E+03  0.40116619332E+03  0.00000000000E+00 0.  1.
         21   -1    0    0  502  503 -0.00000000000E+00 -0.00000000000E+00 -0.22373187332E+03  0.22373187332E+03  0.00000000000E+00 0.  1.
          6    1    1    2  501    0 -0.19565060337E+02 -0.97916530615E+02  0.32158208507E+03  0.37856898446E+03  0.17300000000E+03 0.  1.
         -6    1    1    2    0  503  0.19565060337E+02  0.97916530615E+02 -0.14414776508E+03  0.24632908218E+03  0.17300000000E+03 0.  1.
<mgrwt>
<rscale>  2 0.19974844E+03</rscale>
<asrwt>0</asrwt>
<pdfrwt beam="1">  1       21 0.61717876E-01 0.19974844E+03</pdfrwt>
<pdfrwt beam="2">  1       21 0.34420288E-01 0.19974844E+03</pdfrwt>
<totfact> 0.19750224E+04</totfact>
</mgrwt>
</event>
<event>
 4    1  0.4621995E+000  0.1964775E+03  0.7546771E-02  0.1152745E+00
         21   -1    0    0  503  502  0.00000000000E+00  0.00000000000E+00  0.10737610634E+03  0.10737610634E+03  0.00000000000E+00 0. -1.
         21   -1    0    0  501  503 -0.00000000000E+00 -0.00000000000E+00 -0.80734656460E+03  0.80734656460E+03  0.00000000000E+00 0. -1.
          6    1    1    2  501    0  0.38634998583E+02  0.84745285657E+02 -0.69061791556E+03  0.71802265413E+03  0.17300000000E+03 0. -1.
         -6    1    1    2    0  502 -0.38634998583E+02 -0.84745285657E+02 -0.93525427054E+01  0.19670001681E+03  0.17300000000E+03 0. -1.
<mgrwt>
<rscale>  2 0.19647755E+03</rscale>
<asrwt>0</asrwt>
<pdfrwt beam="1">  1       21 0.16519401E-01 0.19647755E+03</pdfrwt>
<pdfrwt beam="2">  1       21 0.12420716E+00 0.19647755E+03</pdfrwt>
<totfact> 0.15897946E+04</totfact>
</mgrwt>
</event>
<event>
 4    1  0.4621995E+000  0.2031716E+03  0.7546771E-02  0.1147090E+00
         21   -1    0    0  501  502  0.00000000000E+00  0.00000000000E+00  0.20009253350E+04  0.20009253350E+04  0.00000000000E+00 0.  1.
         21   -1    0    0  502  503 -0.00000000000E+00 -0.00000000000E+00 -0.23508468869E+02  0.23508468869E+02  0.00000000000E+00 0.  1.
          6    1    1    2  501    0  0.23428652338E+02 -0.10392678864E+03  0.63450101039E+03  0.66623585264E+03  0.17300000000E+03 0.  1.
         -6    1    1    2    0  503 -0.23428652338E+02  0.10392678864E+03  0.13429158557E+04  0.13581979512E+04  0.17300000000E+03 0.  1.
<mgrwt>
<rscale>  2 0.20317155E+03</rscale>
<asrwt>0</asrwt>
<pdfrwt beam="1">  1       21 0.30783453E+00 0.20317155E+03</pdfrwt>
<pdfrwt beam="2">  1       21 0.36166891E-02 0.20317155E+03</pdfrwt>
<totfact> 0.14114207E+04</totfact>
</mgrwt>
</event>
<event>
 4    1  0.4621995E+000  0.1814827E+03  0.7546771E-02  0.1166376E+00
         21   -1    0    0  503  502  0.00000000000E+00  0.00000000000E+00  0.57897392190E+02  0.57897392190E+02  0.00000000000E+00 0. -1.
         21   -1    0    0  501  503 -0.00000000000E+00 -0.00000000000E+00 -0.77273944754E+03  0.77273944754E+03  0.00000000000E+00 0. -1.
          6    1    1    2  501    0  0.19527743244E+02 -0.51240845370E+02 -0.14409533615E+03  0.23173135931E+03  0.17300000000E+03 0. -1.
         -6    1    1    2    0  502 -0.19527743244E+02  0.51240845370E+02 -0.57074671921E+03  0.59890548042E+03  0.17300000000E+03 0. -1.
<mgrwt>
<rscale>  2 0.18148266E+03</rscale>
<asrwt>0</asrwt>
<pdfrwt beam="1">  1       21 0.89072908E-02 0.18148266E+03</pdfrwt>
<pdfrwt beam="2">  1       21 0.11888300E+00 0.18148266E+03</pdfrwt>
<totfact> 0.54068508E+04</totfact>
</mgrwt>
</event>
<event>
 4    1  0.4621995E+000  0.2193065E+03  0.7546771E-02  0.1134401E+00
         21   -1    0    0  501  502  0.00000000000E+00  0.00000000000E+00  0.17311872072E+04  0.17311872072E+04  0.00000000000E+00 0.  1.
         21   -1    0    0  502  503 -0.00000000000E+00 -0.00000000000E+00 -0.11781022680E+03  0.11781022680E+03  0.00000000000E+00 0. -1.
          6    1    1    2  501    0  0.11488932209E+03 -0.70475294207E+02  0.16148625169E+04  0.16296859427E+04  0.17300000000E+03 0.  1.
         -6    1    1    2    0  503 -0.11488932209E+03  0.70475294207E+02 -0.14855364224E+01  0.21931149136E+03  0.17300000000E+03 0. -1.
<mgrwt>
<rscale>  2 0.21930646E+03</rscale>
<asrwt>0</asrwt>
<pdfrwt beam="1">  1       21 0.26633648E+00 0.21930646E+03</pdfrwt>
<pdfrwt beam="2">  1       21 0.18124652E-01 0.21930646E+03</pdfrwt>
<totfact> 0.14345362E+03</totfact>
</mgrwt>
</event>
<event>
 4    1  0.4621995E+000  0.1913325E+03  0.7546771E-02  0.1157265E+00
         21   -1    0    0  501  502  0.00000000000E+00  0.00000000000E+00  0.97029257472E+03  0.97029257472E+03  0.00000000000E+00 0.  1.
         21   -1    0    0  502  503 -0.00000000000E+00 -0.00000000000E+00 -0.84895544428E+02  0.84895544428E+02  0.00000000000E+00 0.  1.
          6    1    1    2  501    0  0.70268188381E+02 -0.41731206288E+02  0.83595396218E+03  0.85757048618E+03  0.17300000000E+03 0.  1.
         -6    1    1    2    0  503 -0.70268188381E+02  0.41731206288E+02  0.49443068112E+02  0.19761763297E+03  0.17300000000E+03 0.  1.
<mgrwt>
<rscale>  2 0.19133246E+03</rscale>
<asrwt>0</asrwt>
<pdfrwt beam="1">  1       21 0.14927577E+00 0.19133246E+03</pdfrwt>
<pdfrwt beam="2">  1       21 0.13060854E-01 0.19133246E+03</pdfrwt>
<totfact> 0.15273836E+04</totfact>
</mgrwt>
</event>
<event>
 4    1  0.4621995E+000  0.3144257E+03  0.7546771E-02  0.1078244E+00
         21   -1    0    0  503  502  0.00000000000E+00  0.00000000000E+00  0.30188631402E+03  0.30188631402E+03  0.00000000000E+00 0.  1.
         21   -1    0    0  501  503 -0.00000000000E+00 -0.00000000000E+00 -0.32749674605E+03  0.32749674605E+03  0.00000000000E+00 0. -1.
          6    1    1    2  501    0  0.25241471440E+03 -0.72258693181E+02 -0.10992988469E+02  0.31461778809E+03  0.17300000000E+03 0.  1.
         -6    1    1    2    0  502 -0.25241471440E+03  0.72258693181E+02 -0.14617443562E+02  0.31476527198E+03  0.17300000000E+03 0. -1.
<mgrwt>
<rscale>  2 0.31442568E+03</rscale>
<asrwt>0</asrwt>
<pdfrwt beam="1">  1       21 0.46444049E-01 0.31442568E+03</pdfrwt>
<pdfrwt beam="2">  1       21 0.50384115E-01 0.31442568E+03</pdfrwt>
<totfact> 0.15662081E+04</totfact>
</mgrwt>
</event>
<event>
 4    1  0.4621995E+000  0.1935566E+03  0.7546771E-02  0.1155292E+00
         21   -1    0    0  501  502  0.00000000000E+00  0.00000000000E+00  0.22995468203E+03  0.22995468203E+03  0.00000000000E+00 0.  1.
         21   -1    0    0  502  503 -0.00000000000E+00 -0.00000000000E+00 -0.25360544832E+03  0.25360544832E+03  0.00000000000E+00 0.  1.
          6    1    1    2  501    0  0.16337903988E+02  0.85253927634E+02  0.13275540959E+03  0.23470866635E+03  0.17300000000E+03 0.  1.
         -6    1    1    2    0  503 -0.16337903988E+02 -0.85253927634E+02 -0.15640617588E+03  0.24885146400E+03  0.17300000000E+03 0.  1.
<mgrwt>
<rscale>  2 0.19355660E+03</rscale>
<asrwt>0</asrwt>
<pdfrwt beam="1">  1       21 0.35377644E-01 0.19355660E+03</pdfrwt>
<pdfrwt beam="2">  1       21 0.39016223E-01 0.19355660E+03</pdfrwt>
<totfact> 0.48773309E+04</totfact>
</mgrwt>
</event>
<event>
 4    1  0.4621995E+000  0.2157129E+03  0.7546771E-02  0.1137120E+00
         21   -1    0    0  501  502  0.00000000000E+00  0.00000000000E+00  0.26006704400E+03  0.26006704400E+03  0.00000000000E+00 0. -1.
         21   -1    0    0  502  503 -0.00000000000E+00 -0.00000000000E+00 -0.21191983123E+03  0.21191983123E+03  0.00000000000E+00 0.  1.
          6    1    1    2  501    0  0.11940807570E+03  0.48422997367E+02  0.11719462688E+03  0.24549267970E+03  0.17300000000E+03 0. -1.
         -6    1    1    2    0  503 -0.11940807570E+03 -0.48422997367E+02 -0.69047414106E+02  0.22649419553E+03  0.17300000000E+03 0.  1.
<mgrwt>
<rscale>  2 0.21571295E+03</rscale>
<asrwt>0</asrwt>
<pdfrwt beam="1">  1       21 0.40010315E-01 0.21571295E+03</pdfrwt>
<pdfrwt beam="2">  1       21 0.32603051E-01 0.21571295E+03</pdfrwt>
<totfact> 0.53922085E+04</totfact>
</mgrwt>
</event>
<event>
 4    1  0.4621995E+000  0.2248067E+03  0.7546771E-02  0.1130349E+00
         21   -1    0    0  501  502  0.00000000000E+00  0.00000000000E+00  0.10017293929E+04  0.10017293929E+04  0.00000000000E+00 0.  1.
         21   -1    0    0  502  503 -0.00000000000E+00 -0.00000000000E+00 -0.10036398686E+03  0.10036398686E+03  0.00000000000E+00 0.  1.
          6    1    1    2  501    0  0.13793433788E+03  0.39788800544E+02  0.83928662372E+03  0.86887287158E+03  0.17300000000E+03 0.  1.
         -6    1    1    2    0  503 -0.13793433788E+03 -0.39788800544E+02  0.62078782314E+02  0.23322050816E+03  0.17300000000E+03 0.  1.
<mgrwt>
<rscale>  2 0.22480665E+03</rscale>
<asrwt>0</asrwt>
<pdfrwt beam="1">  1       21 0.15411221E+00 0.22480665E+03</pdfrwt>
<pdfrwt beam="2">  1       21 0.15440614E-01 0.22480665E+03</pdfrwt>
<totfact> 0.10115927E+04</totfact>
</mgrwt>
</event>
<event>
 4    1  0.4621995E+000  0.1921517E+03  0.7546771E-02  0.1156535E+00
         21   -1    0    0  501  502  0.00000000000E+00  0.00000000000E+00  0.44648207584E+03  0.44648207584E+03  0.00000000000E+00 0. -1.
         21   -1    0    0  502  503 -0.00000000000E+00 -0.00000000000E+00 -0.14472374248E+03  0.14472374248E+03  0.00000000000E+00 0.  1.
          6    1    1    2  501    0  0.63959694232E+02  0.53874218157E+02  0.34440184273E+03  0.39437913629E+03  0.17300000000E+03 0. -1.
         -6    1    1    2    0  503 -0.63959694232E+02 -0.53874218157E+02 -0.42643509358E+02  0.19682668203E+03  0.17300000000E+03 0.  1.
<mgrwt>
<rscale>  2 0.19215169E+03</rscale>
<asrwt>0</asrwt>
<pdfrwt beam="1">  1       21 0.68689550E-01 0.19215169E+03</pdfrwt>
<pdfrwt beam="2">  1       21 0.22265191E-01 0.19215169E+03</pdfrwt>
<totfact> 0.36464441E+04</totfact>
</mgrwt>
</event>
<event>
 4    1  0.4621995E+000  0.2171665E+03  0.7546771E-02  0.1136013E+00
         21   -1    0    0  501  502  0.00000000000E+00  0.00000000000E+00  0.25366901842E+03  0.25366901842E+03  0.00000000000E+00 0. -1.
         21   -1    0    0  502  503 -0.00000000000E+00 -0.00000000000E+00 -0.21892327176E+03  0.21892327176E+03  0.00000000000E+00 0.  1.
          6    1    1    2  501    0 -0.83811213051E+01  0.13100401709E+03  0.10912394996E+03  0.24304183209E+03  0.17300000000E+03 0. -1.
         -6    1    1    2    0  503  0.83811213051E+01 -0.13100401709E+03 -0.74378203299E+02  0.22955045810E+03  0.17300000000E+03 0.  1.
<mgrwt>
<rscale>  2 0.21716652E+03</rscale>
<asrwt>0</asrwt>
<pdfrwt beam="1">  1       21 0.39026003E-01 0.21716652E+03</pdfrwt>
<pdfrwt beam="2">  1       21 0.33680504E-01 0.21716652E+03</pdfrwt>
<totfact> 0.53142558E+04</totfact>
</mgrwt>
</event>
<event>
 4    1  0.4621995E+000  0.1839852E+03  0.7546771E-02  0.1164001E+00
         21   -1    0    0  503  502  0.00000000000E+00  0.00000000000E+00  0.33320130961E+02  0.33320130961E+02  0.00000000000E+00 0.  1.
         21   -1    0    0  501  503 -0.00000000000E+00 -0.00000000000E+00 -0.17426437357E+04  0.17426437357E+04  0.00000000000E+00 0.  1.
          6    1    1    2  501    0 -0.15809309981E+02 -0.60593792994E+02 -0.14280977371E+04  0.14399005830E+04  0.17300000000E+03 0.  1.
         -6    1    1    2    0  502  0.15809309981E+02  0.60593792994E+02 -0.28122586757E+03  0.33606328366E+03  0.17300000000E+03 0.  1.
<mgrwt>
<rscale>  2 0.18398517E+03</rscale>
<asrwt>0</asrwt>
<pdfrwt beam="1">  1       21 0.51261730E-02 0.18398517E+03</pdfrwt>
<pdfrwt beam="2">  1       21 0.26809909E+00 0.18398517E+03</pdfrwt>
<totfact> 0.13559593E+04</totfact>
</mgrwt>
</event>
<event>
 4    1  0.4621995E+000  0.2186546E+03  0.7546771E-02  0.1134890E+00
         21   -1    0    0  501  502  0.00000000000E+00  0.00000000000E+00  0.39135027522E+03  0.39135027522E+03  0.00000000000E+00 0.  1.
         21   -1    0    0  502  503 -0.00000000000E+00 -0.00000000000E+00 -0.12471262354E+03  0.12471262354E+03  0.00000000000E+00 0.  1.
          6    1    1    2  501    0 -0.13332581824E+03  0.10249941135E+02  0.17018854873E+03  0.27708117443E+03  0.17300000000E+03 0.  1.
         -6    1    1    2    0  503  0.13332581824E+03 -0.10249941135E+02  0.96449102955E+02  0.23898172433E+03  0.17300000000E+03 0.  1.
<mgrwt>
<rscale>  2 0.21865460E+03</rscale>
<asrwt>0</asrwt>
<pdfrwt beam="1">  1       21 0.60207734E-01 0.21865460E+03</pdfrwt>
<pdfrwt beam="2">  1       21 0.19186558E-01 0.21865460E+03</pdfrwt>
<totfact> 0.63401187E+04</totfact>
</mgrwt>
</event>
<event>
 4    1  0.4621995E+000  0.1955073E+03  0.7546771E-02  0.1153586E+00
         21   -1    0    0  503  502  0.00000000000E+00  0.00000000000E+00  0.14294974866E+02  0.14294974866E+02  0.00000000000E+00 0.  1.
         21   -1    0    0  501  503 -0.00000000000E+00 -0.00000000000E+00 -0.27017206941E+04  0.27017206941E+04  0.00000000000E+00 0.  1.
          6    1    1    2  501    0  0.38721729995E+01 -0.90989585910E+02 -0.14815588736E+04  0.14944028220E+04  0.17300000000E+03 0.  1.
         -6    1    1    2    0  502 -0.38721729995E+01  0.90989585910E+02 -0.12058668456E+04  0.12216128470E+04  0.17300000000E+03 0.  1.
<mgrwt>
<rscale>  2 0.19550728E+03</rscale>
<asrwt>0</asrwt>
<pdfrwt beam="1">  1       21 0.21992286E-02 0.19550728E+03</pdfrwt>
<pdfrwt beam="2">  1       21 0.41564901E+00 0.19550728E+03</pdfrwt>
<totfact> 0.72966226E+03</totfact>
</mgrwt>
</event>
<event>
 4    1  0.4621995E+000  0.1741247E+03  0.7546771E-02  0.1173613E+00
         21   -1    0    0  501  502  0.00000000000E+00  0.00000000000E+00  0.24384316403E+03  0.24384316403E+03  0.00000000000E+00 0.  1.
         21   -1    0    0  502  503 -0.00000000000E+00 -0.00000000000E+00 -0.17500171725E+03  0.17500171725E+03  0.00000000000E+00 0.  1.
          6    1    1    2  501    0  0.19042883880E+02  0.52694942597E+01  0.14709974564E+03  0.22794239220E+03  0.17300000000E+03 0.  1.
         -6    1    1    2    0  503 -0.19042883880E+02 -0.52694942597E+01 -0.78258298852E+02  0.19090248908E+03  0.17300000000E+03 0.  1.
<mgrwt>
<rscale>  2 0.17412467E+03</rscale>
<asrwt>0</asrwt>
<pdfrwt beam="1">  1       21 0.37514333E-01 0.17412467E+03</pdfrwt>
<pdfrwt beam="2">  1       21 0.26923341E-01 0.17412467E+03</pdfrwt>
<totfact> 0.90713920E+04</totfact>
</mgrwt>
</event>
<event>
 4    1  0.4621995E+000  0.2505888E+03  0.7546771E-02  0.1112933E+00
         21   -1    0    0  503  502  0.00000000000E+00  0.00000000000E+00  0.10613917054E+03  0.10613917054E+03  0.00000000000E+00 0. -1.
         21   -1    0    0  501  503 -0.00000000000E+00 -0.00000000000E+00 -0.63404555610E+03  0.63404555610E+03  0.00000000000E+00 0. -1.
          6    1    1    2  501    0 -0.17880880989E+03  0.29885942473E+02 -0.16822723646E+03  0.30181975273E+03  0.17300000000E+03 0. -1.
         -6    1    1    2    0  502  0.17880880989E+03 -0.29885942473E+02 -0.35967914910E+03  0.43836497390E+03  0.17300000000E+03 0. -1.
<mgrwt>
<rscale>  2 0.25058883E+03</rscale>
<asrwt>0</asrwt>
<pdfrwt beam="1">  1       21 0.16329103E-01 0.25058883E+03</pdfrwt>
<pdfrwt beam="2">  1       21 0.97545472E-01 0.25058883E+03</pdfrwt>
<totfact> 0.28368939E+04</totfact>
</mgrwt>
</event>
<event>
 4    1  0.4621995E+000  0.1755778E+03  0.7546771E-02  0.1172153E+00
         21   -1    0    0  501  502  0.00000000000E+00  0.00000000000E+00  0.54138228857E+03  0.54138228857E+03  0.00000000000E+00 0.  1.
         21   -1    0    0  502  503 -0.00000000000E+00 -0.00000000000E+00 -0.76218211918E+02  0.76218211918E+02  0.00000000000E+00 0.  1.
          6    1    1    2  501    0 -0.25904005330E+01  0.29864015245E+02  0.38787629014E+03  0.42576470736E+03  0.17300000000E+03 0.  1.
         -6    1    1    2    0  503  0.25904005330E+01 -0.29864015245E+02  0.77287786515E+02  0.19183579313E+03  0.17300000000E+03 0.  1.
<mgrwt>
<rscale>  2 0.17557782E+03</rscale>
<asrwt>0</asrwt>
<pdfrwt beam="1">  1       21 0.83289580E-01 0.17557782E+03</pdfrwt>
<pdfrwt beam="2">  1       21 0.11725879E-01 0.17557782E+03</pdfrwt>
<totfact> 0.77332494E+04</totfact>
</mgrwt>
</event>
<event>
 4    1  0.4621995E+000  0.3505269E+03  0.7546771E-02  0.1062399E+00
         21   -1    0    0  501  502  0.00000000000E+00  0.00000000000E+00  0.38719023274E+03  0.38719023274E+03  0.00000000000E+00 0.  1.
         21   -1    0    0  502  503 -0.00000000000E+00 -0.00000000000E+00 -0.96540568156E+03  0.96540568156E+03  0.00000000000E+00 0. -1.
          6    1    1    2  501    0  0.29419554508E+03  0.79931920428E+02  0.26500003965E+03  0.43942479637E+03  0.17300000000E+03 0.  1.
         -6    1    1    2    0  503 -0.29419554508E+03 -0.79931920428E+02 -0.84321548847E+03  0.91317111794E+03  0.17300000000E+03 0. -1.
<mgrwt>
<rscale>  2 0.35052693E+03</rscale>
<asrwt>0</asrwt>
<pdfrwt beam="1">  1       21 0.59567729E-01 0.35052693E+03</pdfrwt>
<pdfrwt beam="2">  1       21 0.14852395E+00 0.35052693E+03</pdfrwt>
<totfact> 0.71208447E+02</totfact>
</mgrwt>
</event>
<event>
 4    1  0.4621995E+000  0.2771623E+03  0.7546771E-02  0.1097249E+00
         21   -1    0    0  501  502  0.00000000000E+00  0.00000000000E+00  0.65692934015E+03  0.65692934015E+03  0.00000000000E+00 0.  1.
         21   -1    0    0  502  503 -0.00000000000E+00 -0.00000000000E+00 -0.14507806738E+03  0.14507806738E+03  0.00000000000E+00 0.  1.
          6    1    1    2  501    0 -0.52701522814E+02  0.21002967942E+03  0.43253870285E+03  0.51372039692E+03  0.17300000000E+03 0.  1.
         -6    1    1    2    0  503  0.52701522814E+02 -0.21002967942E+03  0.79312569912E+02  0.28828701062E+03  0.17300000000E+03 0.  1.
<mgrwt>
<rscale>  2 0.27716226E+03</rscale>
<asrwt>0</asrwt>
<pdfrwt beam="1">  1       21 0.10106605E+00 0.27716226E+03</pdfrwt>
<pdfrwt beam="2">  1       21 0.22319703E-01 0.27716226E+03</pdfrwt>
<totfact> 0.14333330E+04</totfact>
</mgrwt>
</event>
<event>
 4    1  0.4621995E+000  0.1905181E+03  0.7546771E-02  0.1157995E+00
         21   -1    0    0  503  502  0.00000000000E+00  0.00000000000E+00  0.58307567092E+02  0.58307567092E+02  0.00000000000E+00 0. -1.
         21   -1    0    0  501  503 -0.00000000000E+00 -0.00000000000E+00 -0.64157179840E+03  0.64157179840E+03  0.00000000000E+00 0. -1.
          6    1    1    2  501    0 -0.69636406807E+02 -0.38973380269E+02 -0.35194790534E+03  0.40020554918E+03  0.17300000000E+03 0. -1.
         -6    1    1    2    0  502  0.69636406807E+02  0.38973380269E+02 -0.23131632597E+03  0.29967381631E+03  0.17300000000E+03 0. -1.
<mgrwt>
<rscale>  2 0.19051812E+03</rscale>
<asrwt>0</asrwt>
<pdfrwt beam="1">  1       21 0.89703945E-02 0.19051812E+03</pdfrwt>
<pdfrwt beam="2">  1       21 0.98703358E-01 0.19051812E+03</pdfrwt>
<totfact> 0.83265998E+04</totfact>
</mgrwt>
</event>
<event>
 4    1  0.4621995E+000  0.2181616E+03  0.7546771E-02  0.1135261E+00
         21   -1    0    0  503  502  0.00000000000E+00  0.00000000000E+00  0.42521705199E+03  0.42521705199E+03  0.00000000000E+00 0.  1.
         21   -1    0    0  501  503 -0.00000000000E+00 -0.00000000000E+00 -0.26298280677E+03  0.26298280677E+03  0.00000000000E+00 0.  1.
          6    1    1    2  501    0 -0.13277883589E+03  0.59380805519E+01 -0.17966962819E+03  0.28262281464E+03  0.17300000000E+03 0.  1.
         -6    1    1    2    0  502  0.13277883589E+03 -0.59380805519E+01  0.34190387341E+03  0.40557704412E+03  0.17300000000E+03 0.  1.
<mgrwt>
<rscale>  2 0.21816159E+03</rscale>
<asrwt>0</asrwt>
<pdfrwt beam="1">  1       21 0.65418008E-01 0.21816159E+03</pdfrwt>
<pdfrwt beam="2">  1       21 0.40458893E-01 0.21816159E+03</pdfrwt>
<totfact> 0.12445028E+04</totfact>
</mgrwt>
</event>
<event>
 4    1  0.4621995E+000  0.2158738E+03  0.7546771E-02  0.1136997E+00
         21   -1    0    0  501  502  0.00000000000E+00  0.00000000000E+00  0.19879132174E+04  0.19879132174E+04  0.00000000000E+00 0.  1.
         21   -1    0    0  502  503 -0.00000000000E+00 -0.00000000000E+00 -0.32461595184E+02  0.32461595184E+02  0.00000000000E+00 0.  1.
          6    1    1    2  501    0  0.12902938172E+03 -0.48892311784E+01  0.15102024530E+04  0.15255533209E+04  0.17300000000E+03 0.  1.
         -6    1    1    2    0  503 -0.12902938172E+03  0.48892311784E+01  0.44524916927E+03  0.49482149172E+03  0.17300000000E+03 0.  1.
<mgrwt>
<rscale>  2 0.21587377E+03</rscale>
<asrwt>0</asrwt>
<pdfrwt beam="1">  1       21 0.30583271E+00 0.21587377E+03</pdfrwt>
<pdfrwt beam="2">  1       21 0.49940931E-02 0.21587377E+03</pdfrwt>
<totfact> 0.83084976E+03</totfact>
</mgrwt>
</event>
<event>
 4    1  0.4621995E+000  0.1832720E+03  0.7546771E-02  0.1164673E+00
         21   -1    0    0  501  502  0.00000000000E+00  0.00000000000E+00  0.26845780633E+03  0.26845780633E+03  0.00000000000E+00 0. -1.
         21   -1    0    0  502  503 -0.00000000000E+00 -0.00000000000E+00 -0.24036436564E+03  0.24036436564E+03  0.00000000000E+00 0.  1.
          6    1    1    2  501    0 -0.52284850723E+02 -0.30428988689E+02  0.19021046706E+03  0.26413756027E+03  0.17300000000E+03 0. -1.
         -6    1    1    2    0  503  0.52284850723E+02  0.30428988689E+02 -0.16211702636E+03  0.24468461170E+03  0.17300000000E+03 0.  1.
<mgrwt>
<rscale>  2 0.18327201E+03</rscale>
<asrwt>0</asrwt>
<pdfrwt beam="1">  1       21 0.41301201E-01 0.18327201E+03</pdfrwt>
<pdfrwt beam="2">  1       21 0.36979133E-01 0.18327201E+03</pdfrwt>
<totfact> 0.40002516E+04</totfact>
</mgrwt>
</event>
<event>
 4    1  0.4621995E+000  0.2217776E+03  0.7546771E-02  0.1132565E+00
         21   -1    0    0  501  502  0.00000000000E+00  0.00000000000E+00  0.18008036526E+03  0.18008036526E+03  0.00000000000E+00 0. -1.
         21   -1    0    0  502  503 -0.00000000000E+00 -0.00000000000E+00 -0.32306075840E+03  0.32306075840E+03  0.00000000000E+00 0.  1.
          6    1    1    2  501    0  0.42562214099E+02 -0.13207856541E+03 -0.17039178385E+03  0.27967597235E+03  0.17300000000E+03 0.  1.
         -6    1    1    2    0  503 -0.42562214099E+02  0.13207856541E+03  0.27411390705E+02  0.22346515131E+03  0.17300000000E+03 0.  1.
<mgrwt>
<rscale>  2 0.22177757E+03</rscale>
<asrwt>0</asrwt>
<pdfrwt beam="1">  1       21 0.27704672E-01 0.22177757E+03</pdfrwt>
<pdfrwt beam="2">  1       21 0.49701655E-01 0.22177757E+03</pdfrwt>
<totfact> 0.47315603E+04</totfact>
</mgrwt>
</event>
<event>
 4    1  0.4621995E+000  0.2195953E+03  0.7546771E-02  0.1134185E+00
         21   -1    0    0  501  502  0.00000000000E+00  0.00000000000E+00  0.38161955290E+03  0.38161955290E+03  0.00000000000E+00 0. -1.
         21   -1    0    0  502  503 -0.00000000000E+00 -0.00000000000E+00 -0.13361578211E+03  0.13361578211E+03  0.00000000000E+00 0. -1.
          6    1    1    2  501    0 -0.13104028754E+03 -0.33489681804E+02  0.18402747118E+03  0.28651042895E+03  0.17300000000E+03 0. -1.
         -6    1    1    2    0  503  0.13104028754E+03  0.33489681804E+02  0.63976299611E+02  0.22872490607E+03  0.17300000000E+03 0. -1.
<mgrwt>
<rscale>  2 0.21959535E+03</rscale>
<asrwt>0</asrwt>
<pdfrwt beam="1">  1       21 0.58710700E-01 0.21959535E+03</pdfrwt>
<pdfrwt beam="2">  1       21 0.20556274E-01 0.21959535E+03</pdfrwt>
<totfact> 0.58798999E+04</totfact>
</mgrwt>
</event>
<event>
 4    1  0.4621995E+000  0.1792979E+03  0.7546771E-02  0.1168484E+00
         21   -1    0    0  503  502  0.00000000000E+00  0.00000000000E+00  0.14245644125E+04  0.14245644125E+04  0.00000000000E+00 0. -1.
         21   -1    0    0  501  503 -0.00000000000E+00 -0.00000000000E+00 -0.27821880899E+02  0.27821880899E+02  0.00000000000E+00 0. -1.
          6    1    1    2  501    0 -0.28702707232E+02  0.37348210683E+02  0.38276017330E+03  0.42267373293E+03  0.17300000000E+03 0.  1.
         -6    1    1    2    0  502  0.28702707232E+02 -0.37348210683E+02  0.10139823583E+04  0.10297125605E+04  0.17300000000E+03 0.  1.
<mgrwt>
<rscale>  2 0.17929789E+03</rscale>
<asrwt>0</asrwt>
<pdfrwt beam="1">  1       21 0.21916370E+00 0.17929789E+03</pdfrwt>
<pdfrwt beam="2">  1       21 0.42802905E-02 0.17929789E+03</pdfrwt>
<totfact> 0.35956784E+04</totfact>
</mgrwt>
</event>
<event>
 4    1  0.4621995E+000  0.1970847E+03  0.7546771E-02  0.1152222E+00
         21   -1    0    0  501  502  0.00000000000E+00  0.00000000000E+00  0.18383258684E+03  0.18383258684E+03  0.00000000000E+00 0. -1.
         21   -1    0    0  502  503 -0.00000000000E+00 -0.00000000000E+00 -0.35833239482E+03  0.35833239482E+03  0.00000000000E+00 0. -1.
          6    1    1    2  501    0 -0.64247715604E+02 -0.69178072298E+02  0.86400821957E+02  0.21519172076E+03  0.17300000000E+03 0. -1.
         -6    1    1    2    0  503  0.64247715604E+02  0.69178072298E+02 -0.26090062993E+03  0.32697326090E+03  0.17300000000E+03 0. -1.
<mgrwt>
<rscale>  2 0.19708469E+03</rscale>
<asrwt>0</asrwt>
<pdfrwt beam="1">  1       21 0.28281936E-01 0.19708469E+03</pdfrwt>
<pdfrwt beam="2">  1       21 0.55128061E-01 0.19708469E+03</pdfrwt>
<totfact> 0.37004145E+04</totfact>
</mgrwt>
</event>
<event>
 4    1  0.4621995E+000  0.2108014E+03  0.7546771E-02  0.1140933E+00
         21   -1    0    0  501  502  0.00000000000E+00  0.00000000000E+00  0.98781116741E+02  0.98781116741E+02  0.00000000000E+00 0. -1.
         21   -1    0    0  502  503 -0.00000000000E+00 -0.00000000000E+00 -0.72231605552E+03  0.72231605552E+03  0.00000000000E+00 0. -1.
          6    1    1    2  501    0 -0.57260454343E+02  0.10596916051E+03 -0.59621056390E+02  0.21907052056E+03  0.17300000000E+03 0. -1.
         -6    1    1    2    0  503  0.57260454343E+02 -0.10596916051E+03 -0.56391388239E+03  0.60202665170E+03  0.17300000000E+03 0. -1.
<mgrwt>
<rscale>  2 0.21080138E+03</rscale>
<asrwt>0</asrwt>
<pdfrwt beam="1">  1       21 0.15197095E-01 0.21080138E+03</pdfrwt>
<pdfrwt beam="2">  1       21 0.11112555E+00 0.21080138E+03</pdfrwt>
<totfact> 0.24144143E+04</totfact>
</mgrwt>
</event>
<event>
 4    1  0.4621995E+000  0.1883733E+03  0.7546771E-02  0.1159937E+00
         21   -1    0    0  501  502  0.00000000000E+00  0.00000000000E+00  0.10511501269E+04  0.10511501269E+04  0.00000000000E+00 0. -1.
         21   -1    0    0  502  503 -0.00000000000E+00 -0.00000000000E+00 -0.36274444196E+02  0.36274444196E+02  0.00000000000E+00 0. -1.
          6    1    1    2  501    0 -0.54299571019E+02 -0.51059169885E+02  0.65065083511E+03  0.67737064556E+03  0.17300000000E+03 0. -1.
         -6    1    1    2    0  503  0.54299571019E+02  0.51059169885E+02  0.36422484762E+03  0.41005392556E+03  0.17300000000E+03 0. -1.
<mgrwt>
<rscale>  2 0.18837325E+03</rscale>
<asrwt>0</asrwt>
<pdfrwt beam="1">  1       21 0.16171538E+00 0.18837325E+03</pdfrwt>
<pdfrwt beam="2">  1       21 0.55806845E-02 0.18837325E+03</pdfrwt>
<totfact> 0.54704451E+04</totfact>
</mgrwt>
</event>
<event>
 4    1  0.4621995E+000  0.2022482E+03  0.7546771E-02  0.1147856E+00
         21   -1    0    0  503  502  0.00000000000E+00  0.00000000000E+00  0.28514401908E+03  0.28514401908E+03  0.00000000000E+00 0.  1.
         21   -1    0    0  501  503 -0.00000000000E+00 -0.00000000000E+00 -0.16716021061E+03  0.16716021061E+03  0.00000000000E+00 0.  1.
          6    1    1    2  501    0 -0.75179906351E+02  0.72961021364E+02  0.14416225441E+03  0.24836884779E+03  0.17300000000E+03 0.  1.
         -6    1    1    2    0  502  0.75179906351E+02 -0.72961021364E+02 -0.26178445943E+02  0.20393538190E+03  0.17300000000E+03 0.  1.
<mgrwt>
<rscale>  2 0.20224819E+03</rscale>
<asrwt>0</asrwt>
<pdfrwt beam="1">  1       21 0.43868311E-01 0.20224819E+03</pdfrwt>
<pdfrwt beam="2">  1       21 0.25716956E-01 0.20224819E+03</pdfrwt>
<totfact> 0.71337660E+04</totfact>
</mgrwt>
</event>
<event>
 4    1  0.4621995E+000  0.2105159E+03  0.7546771E-02  0.1141158E+00
         21   -1    0    0  503  502  0.00000000000E+00  0.00000000000E+00  0.22119858232E+03  0.22119858232E+03  0.00000000000E+00 0.  1.
         21   -1    0    0  501  503 -0.00000000000E+00 -0.00000000000E+00 -0.36711881467E+03  0.36711881467E+03  0.00000000000E+00 0. -1.
          6    1    1    2  501    0 -0.10838977102E+03  0.51377015624E+02 -0.27122095874E+03  0.34333329092E+03  0.17300000000E+03 0. -1.
         -6    1    1    2    0  502  0.10838977102E+03 -0.51377015624E+02  0.12530072638E+03  0.24498410607E+03  0.17300000000E+03 0.  1.
<mgrwt>
<rscale>  2 0.21051589E+03</rscale>
<asrwt>0</asrwt>
<pdfrwt beam="1">  1       21 0.34030552E-01 0.21051589E+03</pdfrwt>
<pdfrwt beam="2">  1       21 0.56479817E-01 0.21051589E+03</pdfrwt>
<totfact> 0.24281627E+04</totfact>
</mgrwt>
</event>
<event>
 4    1  0.4621995E+000  0.2255239E+03  0.7546771E-02  0.1129830E+00
         21   -1    0    0  503  502  0.00000000000E+00  0.00000000000E+00  0.88737363883E+03  0.88737363883E+03  0.00000000000E+00 0.  1.
         21   -1    0    0  501  503 -0.00000000000E+00 -0.00000000000E+00 -0.59736199807E+02  0.59736199807E+02  0.00000000000E+00 0.  1.
          6    1    1    2  501    0 -0.14377340691E+03 -0.16163041373E+02  0.31850752678E+03  0.39026667941E+03  0.17300000000E+03 0.  1.
         -6    1    1    2    0  502  0.14377340691E+03  0.16163041373E+02  0.50912991224E+03  0.55684315923E+03  0.17300000000E+03 0.  1.
<mgrwt>
<rscale>  2 0.22552392E+03</rscale>
<asrwt>0</asrwt>
<pdfrwt beam="1">  1       21 0.13651901E+00 0.22552392E+03</pdfrwt>
<pdfrwt beam="2">  1       21 0.91901852E-02 0.22552392E+03</pdfrwt>
<totfact> 0.35287140E+04</totfact>
</mgrwt>
</event>
<event>
 4    1  0.4621995E+000  0.2294713E+03  0.7546771E-02  0.1127012E+00
         21   -1    0    0  503  502  0.00000000000E+00  0.00000000000E+00  0.33576367586E+03  0.33576367586E+03  0.00000000000E+00 0.  1.
         21   -1    0    0  501  503 -0.00000000000E+00 -0.00000000000E+00 -0.75311498079E+03  0.75311498079E+03  0.00000000000E+00 0.  1.
          6    1    1    2  501    0 -0.14577988903E+03 -0.38422483862E+02 -0.69312301879E+03  0.73012093690E+03  0.17300000000E+03 0.  1.
         -6    1    1    2    0  502  0.14577988903E+03  0.38422483862E+02  0.27577171387E+03  0.35875771975E+03  0.17300000000E+03 0.  1.
<mgrwt>
<rscale>  2 0.22947127E+03</rscale>
<asrwt>0</asrwt>
<pdfrwt beam="1">  1       21 0.51655950E-01 0.22947127E+03</pdfrwt>
<pdfrwt beam="2">  1       21 0.11586384E+00 0.22947127E+03</pdfrwt>
<totfact> 0.19846271E+03</totfact>
</mgrwt>
</event>
<event>
 4    1  0.4621995E+000  0.3043648E+03  0.7546771E-02  0.1083079E+00
         21   -1    0    0  501  502  0.00000000000E+00  0.00000000000E+00  0.23387739822E+03  0.23387739822E+03  0.00000000000E+00 0. -1.
         21   -1    0    0  502  503 -0.00000000000E+00 -0.00000000000E+00 -0.39897755465E+03  0.39897755465E+03  0.00000000000E+00 0. -1.
          6    1    1    2  501    0  0.12078888130E+03  0.21936033845E+03 -0.55658879503E+02  0.30941205988E+03  0.17300000000E+03 0. -1.
         -6    1    1    2    0  503 -0.12078888130E+03 -0.21936033845E+03 -0.10944127693E+03  0.32344289299E+03  0.17300000000E+03 0. -1.
<mgrwt>
<rscale>  2 0.30436477E+03</rscale>
<asrwt>0</asrwt>
<pdfrwt beam="1">  1       21 0.35981138E-01 0.30436477E+03</pdfrwt>
<pdfrwt beam="2">  1       21 0.61381162E-01 0.30436477E+03</pdfrwt>
<totfact> 0.17372767E+04</totfact>
</mgrwt>
</event>
<event>
 4    1  0.4621995E+000  0.1979809E+03  0.7546771E-02  0.1151454E+00
         21   -1    0    0  503  502  0.00000000000E+00  0.00000000000E+00  0.13220644220E+03  0.13220644220E+03  0.00000000000E+00 0.  1.
         21   -1    0    0  501  503 -0.00000000000E+00 -0.00000000000E+00 -0.30346559879E+03  0.30346559879E+03  0.00000000000E+00 0. -1.
          6    1    1    2  501    0 -0.12024799604E+02 -0.95513492165E+02 -0.52576615177E+02  0.20484316795E+03  0.17300000000E+03 0.  1.
         -6    1    1    2    0  502  0.12024799604E+02  0.95513492165E+02 -0.11868254141E+03  0.23082887304E+03  0.17300000000E+03 0. -1.
<mgrwt>
<rscale>  2 0.19798087E+03</rscale>
<asrwt>0</asrwt>
<pdfrwt beam="1">  1       21 0.20339453E-01 0.19798087E+03</pdfrwt>
<pdfrwt beam="2">  1       21 0.46687014E-01 0.19798087E+03</pdfrwt>
<totfact> 0.98048215E+04</totfact>
</mgrwt>
</event>
<event>
 4    1  0.4621995E+000  0.1811690E+03  0.7546771E-02  0.1166676E+00
         21   -1    0    0  501  502  0.00000000000E+00  0.00000000000E+00  0.50819993023E+03  0.50819993023E+03  0.00000000000E+00 0. -1.
         21   -1    0    0  502  503 -0.00000000000E+00 -0.00000000000E+00 -0.99450879206E+02  0.99450879206E+02  0.00000000000E+00 0. -1.
          6    1    1    2  501    0  0.19231214880E+02  0.50233058060E+02  0.38426939092E+03  0.42483545585E+03  0.17300000000E+03 0. -1.
         -6    1    1    2    0  503 -0.19231214880E+02 -0.50233058060E+02  0.24479660101E+02  0.18281535359E+03  0.17300000000E+03 0. -1.
<mgrwt>
<rscale>  2 0.18116898E+03</rscale>
<asrwt>0</asrwt>
<pdfrwt beam="1">  1       21 0.78184603E-01 0.18116898E+03</pdfrwt>
<pdfrwt beam="2">  1       21 0.15300136E-01 0.18116898E+03</pdfrwt>
<totfact> 0.55100647E+04</totfact>
</mgrwt>
</event>
<event>
 4    1  0.4621995E+000  0.2043100E+03  0.7546771E-02  0.1146153E+00
         21   -1    0    0  501  502  0.00000000000E+00  0.00000000000E+00  0.43224233689E+02  0.43224233689E+02  0.00000000000E+00 0.  1.
         21   -1    0    0  502  503 -0.00000000000E+00 -0.00000000000E+00 -0.10090421247E+04  0.10090421247E+04  0.00000000000E+00 0.  1.
          6    1    1    2  501    0 -0.60505445951E+02 -0.90292016375E+02 -0.37389298434E+03  0.42607337508E+03  0.17300000000E+03 0.  1.
         -6    1    1    2    0  503  0.60505445951E+02  0.90292016375E+02 -0.59192490664E+03  0.62619298328E+03  0.17300000000E+03 0.  1.
<mgrwt>
<rscale>  2 0.20430995E+03</rscale>
<asrwt>0</asrwt>
<pdfrwt beam="1">  1       21 0.66498829E-02 0.20430995E+03</pdfrwt>
<pdfrwt beam="2">  1       21 0.15523723E+00 0.20430995E+03</pdfrwt>
<totfact> 0.44802282E+04</totfact>
</mgrwt>
</event>
<event>
 4    1  0.4621995E+000  0.1900482E+03  0.7546771E-02  0.1158418E+00
         21   -1    0    0  503  502  0.00000000000E+00  0.00000000000E+00  0.87528539872E+02  0.87528539872E+02  0.00000000000E+00 0. -1.
         21   -1    0    0  501  503 -0.00000000000E+00 -0.00000000000E+00 -0.43026461458E+03  0.43026461458E+03  0.00000000000E+00 0. -1.
          6    1    1    2  501    0 -0.70202762851E+02 -0.35508900443E+02 -0.11897866007E+03  0.22421915947E+03  0.17300000000E+03 0. -1.
         -6    1    1    2    0  502  0.70202762851E+02  0.35508900443E+02 -0.22375741463E+03  0.29357399497E+03  0.17300000000E+03 0. -1.
<mgrwt>
<rscale>  2 0.19004818E+03</rscale>
<asrwt>0</asrwt>
<pdfrwt beam="1">  1       21 0.13465929E-01 0.19004818E+03</pdfrwt>
<pdfrwt beam="2">  1       21 0.66194556E-01 0.19004818E+03</pdfrwt>
<totfact> 0.10002660E+05</totfact>
</mgrwt>
</event>
<event>
 4    1  0.4621995E+000  0.2140795E+03  0.7546771E-02  0.1138376E+00
         21   -1    0    0  501  502  0.00000000000E+00  0.00000000000E+00  0.41482916820E+03  0.41482916820E+03  0.00000000000E+00 0.  1.
         21   -1    0    0  502  503 -0.00000000000E+00 -0.00000000000E+00 -0.12387092778E+03  0.12387092778E+03  0.00000000000E+00 0.  1.
          6    1    1    2  501    0  0.11926021752E+03 -0.40963883159E+02  0.23404142826E+03  0.31718358934E+03  0.17300000000E+03 0.  1.
         -6    1    1    2    0  503 -0.11926021752E+03  0.40963883159E+02  0.56916812163E+02  0.22151650664E+03  0.17300000000E+03 0.  1.
<mgrwt>
<rscale>  2 0.21407952E+03</rscale>
<asrwt>0</asrwt>
<pdfrwt beam="1">  1       21 0.63819871E-01 0.21407952E+03</pdfrwt>
<pdfrwt beam="2">  1       21 0.19057066E-01 0.21407952E+03</pdfrwt>
<totfact> 0.56710475E+04</totfact>
</mgrwt>
</event>
<event>
 4    1  0.4621995E+000  0.1744178E+03  0.7546771E-02  0.1173318E+00
         21   -1    0    0  501  502  0.00000000000E+00  0.00000000000E+00  0.14229933439E+04  0.14229933439E+04  0.00000000000E+00 0. -1.
         21   -1    0    0  502  503 -0.00000000000E+00 -0.00000000000E+00 -0.11134824824E+03  0.11134824824E+03  0.00000000000E+00 0. -1.
          6    1    1    2  501    0  0.23966748961E+01 -0.22064344889E+02  0.13454244064E+04  0.13566828710E+04  0.17300000000E+03 0. -1.
         -6    1    1    2    0  503 -0.23966748961E+01  0.22064344889E+02 -0.33779310657E+02  0.17765872113E+03  0.17300000000E+03 0. -1.
<mgrwt>
<rscale>  2 0.17441783E+03</rscale>
<asrwt>0</asrwt>
<pdfrwt beam="1">  1       21 0.21892204E+00 0.17441783E+03</pdfrwt>
<pdfrwt beam="2">  1       21 0.17130501E-01 0.17441783E+03</pdfrwt>
<totfact> 0.32035626E+03</totfact>
</mgrwt>
</event>
<event>
 4    1  0.4621995E+000  0.2041113E+03  0.7546771E-02  0.1146316E+00
         21   -1    0    0  503  502  0.00000000000E+00  0.00000000000E+00  0.64101343810E+03  0.64101343810E+03  0.00000000000E+00 0. -1.
         21   -1    0    0  501  503 -0.00000000000E+00 -0.00000000000E+00 -0.15831270441E+03  0.15831270441E+03  0.00000000000E+00 0. -1.
          6    1    1    2  501    0 -0.81932540522E+02  0.70848417038E+02 -0.65497156498E+02  0.21436258279E+03  0.17300000000E+03 0. -1.
         -6    1    1    2    0  502  0.81932540522E+02 -0.70848417038E+02  0.54819789018E+03  0.58496355971E+03  0.17300000000E+03 0. -1.
<mgrwt>
<rscale>  2 0.20411134E+03</rscale>
<asrwt>0</asrwt>
<pdfrwt beam="1">  1       21 0.98617451E-01 0.20411134E+03</pdfrwt>
<pdfrwt beam="2">  1       21 0.24355801E-01 0.20411134E+03</pdfrwt>
<totfact> 0.13404021E+04</totfact>
</mgrwt>
</event>
<event>
 4    1  0.4621995E+000  0.1852911E+03  0.7546771E-02  0.1162778E+00
         21   -1    0    0  501  502  0.00000000000E+00  0.00000000000E+00  0.13520658711E+03  0.13520658711E+03  0.00000000000E+00 0. -1.
         21   -1    0    0  502  503 -0.00000000000E+00 -0.00000000000E+00 -0.27811828541E+03  0.27811828541E+03  0.00000000000E+00 0. -1.
          6    1    1    2  501    0 -0.53703009560E+02  0.38984233049E+02 -0.10507176151E+02  0.18558875077E+03  0.17300000000E+03 0. -1.
         -6    1    1    2    0  503  0.53703009560E+02 -0.38984233049E+02 -0.13240452216E+03  0.22773612175E+03  0.17300000000E+03 0. -1.
<mgrwt>
<rscale>  2 0.18529108E+03</rscale>
<asrwt>0</asrwt>
<pdfrwt beam="1">  1       21 0.20801014E-01 0.18529108E+03</pdfrwt>
<pdfrwt beam="2">  1       21 0.42787428E-01 0.18529108E+03</pdfrwt>
<totfact> 0.11297711E+05</totfact>
</mgrwt>
</event>
<event>
 4    1  0.4621995E+000  0.1988750E+03  0.7546771E-02  0.1150692E+00
         21   -1    0    0  503  502  0.00000000000E+00  0.00000000000E+00  0.20578064655E+03  0.20578064655E+03  0.00000000000E+00 0.  1.
         21   -1    0    0  501  503 -0.00000000000E+00 -0.00000000000E+00 -0.28723208582E+03  0.28723208582E+03  0.00000000000E+00 0.  1.
          6    1    1    2  501    0 -0.34412819577E+01 -0.98032741924E+02 -0.18251530889E+03  0.26993165596E+03  0.17300000000E+03 0.  1.
         -6    1    1    2    0  502  0.34412819577E+01  0.98032741924E+02  0.10106386961E+03  0.22308107641E+03  0.17300000000E+03 0.  1.
<mgrwt>
<rscale>  2 0.19887499E+03</rscale>
<asrwt>0</asrwt>
<pdfrwt beam="1">  1       21 0.31658561E-01 0.19887499E+03</pdfrwt>
<pdfrwt beam="2">  1       21 0.44189552E-01 0.19887499E+03</pdfrwt>
<totfact> 0.47034817E+04</totfact>
</mgrwt>
</event>
<event>
 4    1  0.4621995E+000  0.2014466E+03  0.7546771E-02  0.1148524E+00
         21   -1    0    0  501  502  0.00000000000E+00  0.00000000000E+00  0.56595661590E+02  0.56595661590E+02  0.00000000000E+00 0. -1.
         21   -1    0    0  502  503 -0.00000000000E+00 -0.00000000000E+00 -0.81596794744E+03  0.81596794744E+03  0.00000000000E+00 0. -1.
          6    1    1    2  501    0 -0.79722618678E+02 -0.65544298972E+02 -0.22776668502E+03  0.30406975164E+03  0.17300000000E+03 0. -1.
         -6    1    1    2    0  503  0.79722618678E+02  0.65544298972E+02 -0.53160560083E+03  0.56849385739E+03  0.17300000000E+03 0. -1.
<mgrwt>
<rscale>  2 0.20144665E+03</rscale>
<asrwt>0</asrwt>
<pdfrwt beam="1">  1       21 0.87070255E-02 0.20144665E+03</pdfrwt>
<pdfrwt beam="2">  1       21 0.12553352E+00 0.20144665E+03</pdfrwt>
<totfact> 0.48622811E+04</totfact>
</mgrwt>
</event>
<event>
 4    1  0.4621995E+000  0.2206917E+03  0.7546771E-02  0.1133368E+00
         21   -1    0    0  503  502  0.00000000000E+00  0.00000000000E+00  0.81153658846E+02  0.81153658846E+02  0.00000000000E+00 0. -1.
         21   -1    0    0  501  503 -0.00000000000E+00 -0.00000000000E+00 -0.90059364770E+03  0.90059364770E+03  0.00000000000E+00 0. -1.
          6    1    1    2  501    0  0.10988383011E+03 -0.81862021516E+02 -0.69323923447E+03  0.72752009106E+03  0.17300000000E+03 0. -1.
         -6    1    1    2    0  502 -0.10988383011E+03  0.81862021516E+02 -0.12620075438E+03  0.25422721548E+03  0.17300000000E+03 0. -1.
<mgrwt>
<rscale>  2 0.22069175E+03</rscale>
<asrwt>0</asrwt>
<pdfrwt beam="1">  1       21 0.12485179E-01 0.22069175E+03</pdfrwt>
<pdfrwt beam="2">  1       21 0.13855286E+00 0.22069175E+03</pdfrwt>
<totfact> 0.19733608E+04</totfact>
</mgrwt>
</event>
<event>
 4    1  0.4621995E+000  0.2858685E+03  0.7546771E-02  0.1092526E+00
         21   -1    0    0  503  502  0.00000000000E+00  0.00000000000E+00  0.21648507682E+03  0.21648507682E+03  0.00000000000E+00 0.  1.
         21   -1    0    0  501  503 -0.00000000000E+00 -0.00000000000E+00 -0.68473626276E+03  0.68473626276E+03  0.00000000000E+00 0. -1.
          6    1    1    2  501    0  0.72063579886E+02 -0.21586720877E+03 -0.53597030320E+03  0.60744133649E+03  0.17300000000E+03 0. -1.
         -6    1    1    2    0  502 -0.72063579886E+02  0.21586720877E+03  0.67719117259E+02  0.29378000308E+03  0.17300000000E+03 0.  1.
<mgrwt>
<rscale>  2 0.28586852E+03</rscale>
<asrwt>0</asrwt>
<pdfrwt beam="1">  1       21 0.33305396E-01 0.28586852E+03</pdfrwt>
<pdfrwt beam="2">  1       21 0.10534404E+00 0.28586852E+03</pdfrwt>
<totfact> 0.59242194E+03</totfact>
</mgrwt>
</event>
<event>
 4    1  0.4621995E+000  0.2341962E+03  0.7546771E-02  0.1123721E+00
         21   -1    0    0  501  502  0.00000000000E+00  0.00000000000E+00  0.25908363726E+03  0.25908363726E+03  0.00000000000E+00 0.  1.
         21   -1    0    0  502  503 -0.00000000000E+00 -0.00000000000E+00 -0.21492521157E+03  0.21492521157E+03  0.00000000000E+00 0. -1.
          6    1    1    2  501    0  0.78236313430E+02  0.13710565393E+03  0.51114380579E+02  0.23970932602E+03  0.17300000000E+03 0. -1.
         -6    1    1    2    0  503 -0.78236313430E+02 -0.13710565393E+03 -0.69559548940E+01  0.23429952281E+03  0.17300000000E+03 0.  1.
<mgrwt>
<rscale>  2 0.23419624E+03</rscale>
<asrwt>0</asrwt>
<pdfrwt beam="1">  1       21 0.39859021E-01 0.23419624E+03</pdfrwt>
<pdfrwt beam="2">  1       21 0.33065417E-01 0.23419624E+03</pdfrwt>
<totfact> 0.52426385E+04</totfact>
</mgrwt>
</event>
<event>
 4    1  0.4621995E+000  0.2275879E+03  0.7546771E-02  0.1128349E+00
         21   -1    0    0  501  502  0.00000000000E+00  0.00000000000E+00  0.13242997460E+04  0.13242997460E+04  0.00000000000E+00 0.  1.
         21   -1    0    0  502  503 -0.00000000000E+00 -0.00000000000E+00 -0.54357557400E+02  0.54357557400E+02  0.00000000000E+00 0. -1.
          6    1    1    2  501    0  0.72091432596E+02 -0.12911263344E+03  0.10000321360E+04  0.10256025155E+04  0.17300000000E+03 0.  1.
         -6    1    1    2    0  503 -0.72091432596E+02  0.12911263344E+03  0.26991005261E+03  0.35305478791E+03  0.17300000000E+03 0. -1.
<mgrwt>
<rscale>  2 0.22758789E+03</rscale>
<asrwt>0</asrwt>
<pdfrwt beam="1">  1       21 0.20373840E+00 0.22758789E+03</pdfrwt>
<pdfrwt beam="2">  1       21 0.83627022E-02 0.22758789E+03</pdfrwt>
<totfact> 0.13741598E+04</totfact>
</mgrwt>
</event>
<event>
 4    1  0.4621995E+000  0.1750929E+03  0.7546771E-02  0.1172638E+00
         21   -1    0    0  503  502  0.00000000000E+00  0.00000000000E+00  0.47425383792E+03  0.47425383792E+03  0.00000000000E+00 0. -1.
         21   -1    0    0  501  503 -0.00000000000E+00 -0.00000000000E+00 -0.78288856877E+02  0.78288856877E+02  0.00000000000E+00 0. -1.
          6    1    1    2  501    0 -0.26183301876E+02  0.65534970652E+01  0.82643686131E+02  0.19361687033E+03  0.17300000000E+03 0. -1.
         -6    1    1    2    0  502  0.26183301876E+02 -0.65534970652E+01  0.31332129491E+03  0.35892582446E+03  0.17300000000E+03 0. -1.
<mgrwt>
<rscale>  2 0.17509287E+03</rscale>
<asrwt>0</asrwt>
<pdfrwt beam="1">  1       21 0.72962127E-01 0.17509287E+03</pdfrwt>
<pdfrwt beam="2">  1       21 0.12044440E-01 0.17509287E+03</pdfrwt>
<totfact> 0.99233935E+04</totfact>
</mgrwt>
</event>
<event>
 4    1  0.4621995E+000  0.2186216E+03  0.7546771E-02  0.1134915E+00
         21   -1    0    0  503  502  0.00000000000E+00  0.00000000000E+00  0.31739502849E+03  0.31739502849E+03  0.00000000000E+00 0. -1.
         21   -1    0    0  501  503 -0.00000000000E+00 -0.00000000000E+00 -0.37258686021E+03  0.37258686021E+03  0.00000000000E+00 0.  1.
          6    1    1    2  501    0  0.13314283960E+03 -0.11805464114E+02 -0.29389571237E+03  0.36629233472E+03  0.17300000000E+03 0.  1.
         -6    1    1    2    0  502 -0.13314283960E+03  0.11805464114E+02  0.23870388065E+03  0.32368955398E+03  0.17300000000E+03 0. -1.
<mgrwt>
<rscale>  2 0.21862156E+03</rscale>
<asrwt>0</asrwt>
<pdfrwt beam="1">  1       21 0.48830004E-01 0.21862156E+03</pdfrwt>
<pdfrwt beam="2">  1       21 0.57321056E-01 0.21862156E+03</pdfrwt>
<totfact> 0.11244486E+04</totfact>
</mgrwt>
</event>
<event>
 4    1  0.4621995E+000  0.2940417E+03  0.7546771E-02  0.1088258E+00
         21   -1    0    0  503  502  0.00000000000E+00  0.00000000000E+00  0.11168745359E+04  0.11168745359E+04  0.00000000000E+00 0.  1.
         21   -1    0    0  501  503 -0.00000000000E+00 -0.00000000000E+00 -0.85677280154E+02  0.85677280154E+02  0.00000000000E+00 0. -1.
          6    1    1    2  501    0 -0.19082633396E+03  0.14183389300E+03  0.32885533006E+03  0.44114212114E+03  0.17300000000E+03 0. -1.
         -6    1    1    2    0  502  0.19082633396E+03 -0.14183389300E+03  0.70234192568E+03  0.76140969491E+03  0.17300000000E+03 0.  1.
<mgrwt>
<rscale>  2 0.29404174E+03</rscale>
<asrwt>0</asrwt>
<pdfrwt beam="1">  1       21 0.17182684E+00 0.29404174E+03</pdfrwt>
<pdfrwt beam="2">  1       21 0.13181121E-01 0.29404174E+03</pdfrwt>
<totfact> 0.96125527E+03</totfact>
</mgrwt>
</event>
<event>
 4    1  0.4621995E+000  0.3283240E+03  0.7546771E-02  0.1071881E+00
         21   -1    0    0  503  502  0.00000000000E+00  0.00000000000E+00  0.25715628870E+03  0.25715628870E+03  0.00000000000E+00 0. -1.
         21   -1    0    0  501  503 -0.00000000000E+00 -0.00000000000E+00 -0.62278683758E+03  0.62278683758E+03  0.00000000000E+00 0.  1.
          6    1    1    2  501    0  0.26590962316E+03  0.84615072543E+02 -0.43437628972E+03  0.54449921879E+03  0.17300000000E+03 0.  1.
         -6    1    1    2    0  502 -0.26590962316E+03 -0.84615072543E+02  0.68745740842E+02  0.33544390749E+03  0.17300000000E+03 0. -1.
<mgrwt>
<rscale>  2 0.32832398E+03</rscale>
<asrwt>0</asrwt>
<pdfrwt beam="1">  1       21 0.39562507E-01 0.32832398E+03</pdfrwt>
<pdfrwt beam="2">  1       21 0.95813358E-01 0.32832398E+03</pdfrwt>
<totfact> 0.51511853E+03</totfact>
</mgrwt>
</event>
<event>
 4    1  0.4621995E+000  0.2126345E+03  0.7546771E-02  0.1139497E+00
         21   -1    0    0  503  502  0.00000000000E+00  0.00000000000E+00  0.53573802766E+03  0.53573802766E+03  0.00000000000E+00 0. -1.
         21   -1    0    0  501  503 -0.00000000000E+00 -0.00000000000E+00 -0.96546291827E+02  0.96546291827E+02  0.00000000000E+00 0.  1.
          6    1    1    2  501    0 -0.21320808972E+02 -0.12177781308E+03  0.10743730056E+03  0.23823556872E+03  0.17300000000E+03 0. -1.
         -6    1    1    2    0  502  0.21320808972E+02  0.12177781308E+03  0.33175443528E+03  0.39404875077E+03  0.17300000000E+03 0.  1.
<mgrwt>
<rscale>  2 0.21263446E+03</rscale>
<asrwt>0</asrwt>
<pdfrwt beam="1">  1       21 0.82421233E-01 0.21263446E+03</pdfrwt>
<pdfrwt beam="2">  1       21 0.14853276E-01 0.21263446E+03</pdfrwt>
<totfact> 0.50835223E+04</totfact>
</mgrwt>
</event>
<event>
 4    1  0.4621995E+000  0.1802106E+03  0.7546771E-02  0.1167599E+00
         21   -1    0    0  501  502  0.00000000000E+00  0.00000000000E+00  0.95546916018E+02  0.95546916018E+02  0.00000000000E+00 0. -1.
         21   -1    0    0  502  503 -0.00000000000E+00 -0.00000000000E+00 -0.66400662435E+03  0.66400662435E+03  0.00000000000E+00 0. -1.
          6    1    1    2  501    0 -0.47194378439E+02  0.17876280621E+02 -0.18897730683E+02  0.18119877204E+03  0.17300000000E+03 0. -1.
         -6    1    1    2    0  503  0.47194378439E+02 -0.17876280621E+02 -0.54956197765E+03  0.57835476832E+03  0.17300000000E+03 0. -1.
<mgrwt>
<rscale>  2 0.18021063E+03</rscale>
<asrwt>0</asrwt>
<pdfrwt beam="1">  1       21 0.14699526E-01 0.18021063E+03</pdfrwt>
<pdfrwt beam="2">  1       21 0.10215486E+00 0.18021063E+03</pdfrwt>
<totfact> 0.31979351E+04</totfact>
</mgrwt>
</event>
<event>
 4    1  0.4621995E+000  0.2285489E+03  0.7546771E-02  0.1127665E+00
         21   -1    0    0  503  502  0.00000000000E+00  0.00000000000E+00  0.18370743433E+03  0.18370743433E+03  0.00000000000E+00 0. -1.
         21   -1    0    0  501  503 -0.00000000000E+00 -0.00000000000E+00 -0.39016274518E+03  0.39016274518E+03  0.00000000000E+00 0.  1.
          6    1    1    2  501    0 -0.11853538012E+03  0.90856754938E+02 -0.25266496834E+03  0.34069659887E+03  0.17300000000E+03 0.  1.
         -6    1    1    2    0  502  0.11853538012E+03 -0.90856754938E+02  0.46209657492E+02  0.23317358063E+03  0.17300000000E+03 0. -1.
<mgrwt>
<rscale>  2 0.22854887E+03</rscale>
<asrwt>0</asrwt>
<pdfrwt beam="1">  1       21 0.28262682E-01 0.22854887E+03</pdfrwt>
<pdfrwt beam="2">  1       21 0.60025037E-01 0.22854887E+03</pdfrwt>
<totfact> 0.30398460E+04</totfact>
</mgrwt>
</event>
<event>
 4    1  0.4621995E+000  0.2212184E+03  0.7546771E-02  0.1132978E+00
         21   -1    0    0  503  502  0.00000000000E+00  0.00000000000E+00  0.87521780467E+03  0.87521780467E+03  0.00000000000E+00 0. -1.
         21   -1    0    0  501  503 -0.00000000000E+00 -0.00000000000E+00 -0.19366571005E+03  0.19366571005E+03  0.00000000000E+00 0.  1.
          6    1    1    2  501    0  0.48835308831E+02  0.12893295878E+03 -0.10995898657E+03  0.24703962025E+03  0.17300000000E+03 0.  1.
         -6    1    1    2    0  502 -0.48835308831E+02 -0.12893295878E+03  0.79151108118E+03  0.82184389447E+03  0.17300000000E+03 0. -1.
<mgrwt>
<rscale>  2 0.22121843E+03</rscale>
<asrwt>0</asrwt>
<pdfrwt beam="1">  1       21 0.13464889E+00 0.22121843E+03</pdfrwt>
<pdfrwt beam="2">  1       21 0.29794725E-01 0.22121843E+03</pdfrwt>
<totfact> 0.41728422E+03</totfact>
</mgrwt>
</event>
<event>
 4    1  0.4621995E+000  0.1885259E+03  0.7546771E-02  0.1159798E+00
         21   -1    0    0  503  502  0.00000000000E+00  0.00000000000E+00  0.10431364904E+03  0.10431364904E+03  0.00000000000E+00 0.  1.
         21   -1    0    0  501  503 -0.00000000000E+00 -0.00000000000E+00 -0.35268684143E+03  0.35268684143E+03  0.00000000000E+00 0. -1.
          6    1    1    2  501    0  0.30322969162E+02  0.68509476718E+02 -0.82101110916E+02  0.20562738940E+03  0.17300000000E+03 0.  1.
         -6    1    1    2    0  502 -0.30322969162E+02 -0.68509476718E+02 -0.16627208148E+03  0.25137310106E+03  0.17300000000E+03 0. -1.
<mgrwt>
<rscale>  2 0.18852594E+03</rscale>
<asrwt>0</asrwt>
<pdfrwt beam="1">  1       21 0.16048254E-01 0.18852594E+03</pdfrwt>
<pdfrwt beam="2">  1       21 0.54259513E-01 0.18852594E+03</pdfrwt>
<totfact> 0.11147466E+05</totfact>
</mgrwt>
</event>
<event>
 4    1  0.4621995E+000  0.1952870E+03  0.7546771E-02  0.1153777E+00
         21   -1    0    0  503  502  0.00000000000E+00  0.00000000000E+00  0.61050117422E+03  0.61050117422E+03  0.00000000000E+00 0. -1.
         21   -1    0    0  501  503 -0.00000000000E+00 -0.00000000000E+00 -0.10444085883E+03  0.10444085883E+03  0.00000000000E+00 0. -1.
          6    1    1    2  501    0  0.13646018558E+02  0.89564575577E+02  0.26415570303E+02  0.19706549514E+03  0.17300000000E+03 0. -1.
         -6    1    1    2    0  502 -0.13646018558E+02 -0.89564575577E+02  0.47964474509E+03  0.51787653791E+03  0.17300000000E+03 0. -1.
<mgrwt>
<rscale>  2 0.19528704E+03</rscale>
<asrwt>0</asrwt>
<pdfrwt beam="1">  1       21 0.93923256E-01 0.19528704E+03</pdfrwt>
<pdfrwt beam="2">  1       21 0.16067825E-01 0.19528704E+03</pdfrwt>
<totfact> 0.32869309E+04</totfact>
</mgrwt>
</event>
<event>
 4    1  0.4621995E+000  0.1784166E+03  0.7546771E-02  0.1169344E+00
         21   -1    0    0  503  502  0.00000000000E+00  0.00000000000E+00  0.60647706691E+02  0.60647706691E+02  0.00000000000E+00 0.  1.
         21   -1    0    0  501  503 -0.00000000000E+00 -0.00000000000E+00 -0.58723469782E+03  0.58723469782E+03  0.00000000000E+00 0.  1.
          6    1    1    2  501    0 -0.93367493901E+01 -0.42618256113E+02 -0.15773070390E+03  0.23814169227E+03  0.17300000000E+03 0.  1.
         -6    1    1    2    0  502  0.93367493901E+01  0.42618256113E+02 -0.36885628723E+03  0.40974071224E+03  0.17300000000E+03 0.  1.
<mgrwt>
<rscale>  2 0.17841662E+03</rscale>
<asrwt>0</asrwt>
<pdfrwt beam="1">  1       21 0.93304168E-02 0.17841662E+03</pdfrwt>
<pdfrwt beam="2">  1       21 0.90343796E-01 0.17841662E+03</pdfrwt>
<totfact> 0.96036474E+04</totfact>
</mgrwt>
</event>
<event>
 4    1  0.4621995E+000  0.2011145E+03  0.7546771E-02  0.1148802E+00
         21   -1    0    0  501  502  0.00000000000E+00  0.00000000000E+00  0.26017967822E+03  0.26017967822E+03  0.00000000000E+00 0.  1.
         21   -1    0    0  502  503 -0.00000000000E+00 -0.00000000000E+00 -0.25358090940E+03  0.25358090940E+03  0.00000000000E+00 0.  1.
          6    1    1    2  501    0 -0.47380343669E+01 -0.10244805359E+03  0.16309224737E+03  0.25893268200E+03  0.17300000000E+03 0.  1.
         -6    1    1    2    0  503  0.47380343669E+01  0.10244805359E+03 -0.15649347855E+03  0.25482790562E+03  0.17300000000E+03 0.  1.
<mgrwt>
<rscale>  2 0.20111453E+03</rscale>
<asrwt>0</asrwt>
<pdfrwt beam="1">  1       21 0.40027643E-01 0.20111453E+03</pdfrwt>
<pdfrwt beam="2">  1       21 0.39012448E-01 0.20111453E+03</pdfrwt>
<totfact> 0.37937707E+04</totfact>
</mgrwt>
</event>
<event>
 4    1  0.4621995E+000  0.1959982E+03  0.7546771E-02  0.1153160E+00
         21   -1    0    0  503  502  0.00000000000E+00  0.00000000000E+00  0.21132166235E+02  0.21132166235E+02  0.00000000000E+00 0. -1.
         21   -1    0    0  501  503 -0.00000000000E+00 -0.00000000000E+00 -0.18192591531E+04  0.18192591531E+04  0.00000000000E+00 0. -1.
          6    1    1    2  501    0 -0.72669630691E+02 -0.56616554945E+02 -0.92458700168E+03  0.94513302407E+03  0.17300000000E+03 0. -1.
         -6    1    1    2    0  502  0.72669630691E+02  0.56616554945E+02 -0.87353998519E+03  0.89525829526E+03  0.17300000000E+03 0. -1.
<mgrwt>
<rscale>  2 0.19599824E+03</rscale>
<asrwt>0</asrwt>
<pdfrwt beam="1">  1       21 0.32511029E-02 0.19599824E+03</pdfrwt>
<pdfrwt beam="2">  1       21 0.27988599E+00 0.19599824E+03</pdfrwt>
<totfact> 0.24605463E+04</totfact>
</mgrwt>
</event>
<event>
 4    1  0.4621995E+000  0.3031907E+03  0.7546771E-02  0.1083656E+00
         21   -1    0    0  501  502  0.00000000000E+00  0.00000000000E+00  0.39817152421E+02  0.39817152421E+02  0.00000000000E+00 0.  1.
         21   -1    0    0  502  503 -0.00000000000E+00 -0.00000000000E+00 -0.27396751323E+04  0.27396751323E+04  0.00000000000E+00 0. -1.
          6    1    1    2  501    0  0.19229012707E+03  0.15817755048E+03 -0.79870564146E+03  0.85431570987E+03  0.17300000000E+03 0.  1.
         -6    1    1    2    0  503 -0.19229012707E+03 -0.15817755048E+03 -0.19011523385E+04  0.19251765749E+04  0.17300000000E+03 0.  1.
<mgrwt>
<rscale>  2 0.30319075E+03</rscale>
<asrwt>0</asrwt>
<pdfrwt beam="1">  1       21 0.61257153E-02 0.30319075E+03</pdfrwt>
<pdfrwt beam="2">  1       21 0.42148851E+00 0.30319075E+03</pdfrwt>
<totfact> 0.10611216E+03</totfact>
</mgrwt>
</event>
<event>
 4    1  0.4621995E+000  0.2082460E+03  0.7546771E-02  0.1142963E+00
         21   -1    0    0  501  502  0.00000000000E+00  0.00000000000E+00  0.81452697415E+02  0.81452697415E+02  0.00000000000E+00 0. -1.
         21   -1    0    0  502  503 -0.00000000000E+00 -0.00000000000E+00 -0.61870502417E+03  0.61870502417E+03  0.00000000000E+00 0. -1.
          6    1    1    2  501    0  0.56978224065E+02 -0.10094995409E+03 -0.13788529562E+03  0.24975741430E+03  0.17300000000E+03 0. -1.
         -6    1    1    2    0  503 -0.56978224065E+02  0.10094995409E+03 -0.39936703114E+03  0.45040030729E+03  0.17300000000E+03 0. -1.
<mgrwt>
<rscale>  2 0.20824604E+03</rscale>
<asrwt>0</asrwt>
<pdfrwt beam="1">  1       21 0.12531184E-01 0.20824604E+03</pdfrwt>
<pdfrwt beam="2">  1       21 0.95185389E-01 0.20824604E+03</pdfrwt>
<totfact> 0.49677237E+04</totfact>
</mgrwt>
</event>
<event>
 4    1  0.4621995E+000  0.1743130E+03  0.7546771E-02  0.1173423E+00
         21   -1    0    0  501  502  0.00000000000E+00  0.00000000000E+00  0.46528042069E+03  0.46528042069E+03  0.00000000000E+00 0. -1.
         21   -1    0    0  502  503 -0.00000000000E+00 -0.00000000000E+00 -0.81873348757E+02  0.81873348757E+02  0.00000000000E+00 0. -1.
          6    1    1    2  501    0 -0.18970921348E+02  0.98043510748E+01  0.31477320264E+03  0.35981549474E+03  0.17300000000E+03 0. -1.
         -6    1    1    2    0  503  0.18970921348E+02 -0.98043510748E+01  0.68633869300E+02  0.18733827471E+03  0.17300000000E+03 0. -1.
<mgrwt>
<rscale>  2 0.17431300E+03</rscale>
<asrwt>0</asrwt>
<pdfrwt beam="1">  1       21 0.71581602E-01 0.17431300E+03</pdfrwt>
<pdfrwt beam="2">  1       21 0.12595900E-01 0.17431300E+03</pdfrwt>
<totfact> 0.95582617E+04</totfact>
</mgrwt>
</event>
<event>
 4    1  0.4621995E+000  0.2070535E+03  0.7546771E-02  0.1143921E+00
         21   -1    0    0  501  502  0.00000000000E+00  0.00000000000E+00  0.28805707711E+03  0.28805707711E+03  0.00000000000E+00 0. -1.
         21   -1    0    0  502  503 -0.00000000000E+00 -0.00000000000E+00 -0.59884882310E+03  0.59884882310E+03  0.00000000000E+00 0.  1.
          6    1    1    2  501    0  0.37117763885E+02  0.10753803899E+03  0.22902319263E+03  0.30874387604E+03  0.17300000000E+03 0. -1.
         -6    1    1    2    0  503 -0.37117763885E+02 -0.10753803899E+03 -0.53981493863E+03  0.57816202417E+03  0.17300000000E+03 0.  1.
<mgrwt>
<rscale>  2 0.20705352E+03</rscale>
<asrwt>0</asrwt>
<pdfrwt beam="1">  1       21 0.44316474E-01 0.20705352E+03</pdfrwt>
<pdfrwt beam="2">  1       21 0.92130588E-01 0.20705352E+03</pdfrwt>
<totfact> 0.48110373E+03</totfact>
</mgrwt>
</event>
<event>
 4    1  0.4621995E+000  0.1965517E+03  0.7546771E-02  0.1152681E+00
         21   -1    0    0  503  502  0.00000000000E+00  0.00000000000E+00  0.20875599405E+02  0.20875599405E+02  0.00000000000E+00 0.  1.
         21   -1    0    0  501  503 -0.00000000000E+00 -0.00000000000E+00 -0.20978718841E+04  0.20978718841E+04  0.00000000000E+00 0. -1.
          6    1    1    2  501    0  0.90161492792E+02  0.23968107625E+02 -0.14021949507E+04  0.14159036849E+04  0.17300000000E+03 0. -1.
         -6    1    1    2    0  502 -0.90161492792E+02 -0.23968107625E+02 -0.67480133402E+03  0.70284379869E+03  0.17300000000E+03 0.  1.
<mgrwt>
<rscale>  2 0.19655169E+03</rscale>
<asrwt>0</asrwt>
<pdfrwt beam="1">  1       21 0.32116305E-02 0.19655169E+03</pdfrwt>
<pdfrwt beam="2">  1       21 0.32274954E+00 0.19655169E+03</pdfrwt>
<totfact> 0.14198451E+04</totfact>
</mgrwt>
</event>
<event>
 4    1  0.4621995E+000  0.1801642E+03  0.7546771E-02  0.1167644E+00
         21   -1    0    0  503  502  0.00000000000E+00  0.00000000000E+00  0.23933575236E+03  0.23933575236E+03  0.00000000000E+00 0. -1.
         21   -1    0    0  501  503 -0.00000000000E+00 -0.00000000000E+00 -0.80474526511E+03  0.80474526511E+03  0.00000000000E+00 0. -1.
          6    1    1    2  501    0  0.46942137591E+02 -0.18071594301E+02 -0.75872795424E+03  0.77982514409E+03  0.17300000000E+03 0. -1.
         -6    1    1    2    0  502 -0.46942137591E+02  0.18071594301E+02  0.19331844148E+03  0.26425587339E+03  0.17300000000E+03 0. -1.
<mgrwt>
<rscale>  2 0.18016422E+03</rscale>
<asrwt>0</asrwt>
<pdfrwt beam="1">  1       21 0.36820886E-01 0.18016422E+03</pdfrwt>
<pdfrwt beam="2">  1       21 0.12380696E+00 0.18016422E+03</pdfrwt>
<totfact> 0.35138325E+03</totfact>
</mgrwt>
</event>
<event>
 4    1  0.4621995E+000  0.2350135E+03  0.7546771E-02  0.1123160E+00
         21   -1    0    0  501  502  0.00000000000E+00  0.00000000000E+00  0.50169138886E+03  0.50169138886E+03  0.00000000000E+00 0.  1.
         21   -1    0    0  502  503 -0.00000000000E+00 -0.00000000000E+00 -0.15092804801E+03  0.15092804801E+03  0.00000000000E+00 0.  1.
          6    1    1    2  501    0 -0.21582424577E+02  0.15759612482E+03  0.34511850232E+03  0.41753816622E+03  0.17300000000E+03 0.  1.
         -6    1    1    2    0  503  0.21582424577E+02 -0.15759612482E+03  0.56448385305E+01  0.23508127065E+03  0.17300000000E+03 0.  1.
<mgrwt>
<rscale>  2 0.23501349E+03</rscale>
<asrwt>0</asrwt>
<pdfrwt beam="1">  1       21 0.77183290E-01 0.23501349E+03</pdfrwt>
<pdfrwt beam="2">  1       21 0.23219700E-01 0.23501349E+03</pdfrwt>
<totfact> 0.25398685E+04</totfact>
</mgrwt>
</event>
<event>
 4    1  0.4621995E+000  0.2052547E+03  0.7546771E-02  0.1145380E+00
         21   -1    0    0  503  502  0.00000000000E+00  0.00000000000E+00  0.99881382306E+02  0.99881382306E+02  0.00000000000E+00 0.  1.
         21   -1    0    0  501  503 -0.00000000000E+00 -0.00000000000E+00 -0.50469497341E+03  0.50469497341E+03  0.00000000000E+00 0.  1.
          6    1    1    2  501    0  0.99648525842E+02 -0.47651661845E+02 -0.32491996325E+03  0.38432081923E+03  0.17300000000E+03 0.  1.
         -6    1    1    2    0  502 -0.99648525842E+02  0.47651661845E+02 -0.79893627854E+02  0.22025553648E+03  0.17300000000E+03 0.  1.
<mgrwt>
<rscale>  2 0.20525474E+03</rscale>
<asrwt>0</asrwt>
<pdfrwt beam="1">  1       21 0.15366366E-01 0.20525474E+03</pdfrwt>
<pdfrwt beam="2">  1       21 0.77645381E-01 0.20525474E+03</pdfrwt>
<totfact> 0.54889723E+04</totfact>
</mgrwt>
</event>
<event>
 4    1  0.4621995E+000  0.1889055E+03  0.7546771E-02  0.1159452E+00
         21   -1    0    0  501  502  0.00000000000E+00  0.00000000000E+00  0.26057908973E+03  0.26057908973E+03  0.00000000000E+00 0. -1.
         21   -1    0    0  502  503 -0.00000000000E+00 -0.00000000000E+00 -0.22303846416E+03  0.22303846416E+03  0.00000000000E+00 0. -1.
          6    1    1    2  501    0  0.65081285052E+02 -0.38996389755E+02  0.16900301370E+03  0.25347053224E+03  0.17300000000E+03 0. -1.
         -6    1    1    2    0  503 -0.65081285052E+02  0.38996389755E+02 -0.13146238813E+03  0.23014702164E+03  0.17300000000E+03 0. -1.
<mgrwt>
<rscale>  2 0.18890551E+03</rscale>
<asrwt>0</asrwt>
<pdfrwt beam="1">  1       21 0.40089091E-01 0.18890551E+03</pdfrwt>
<pdfrwt beam="2">  1       21 0.34313610E-01 0.18890551E+03</pdfrwt>
<totfact> 0.49165609E+04</totfact>
</mgrwt>
</event>
<event>
 4    1  0.4621995E+000  0.3188012E+03  0.7546771E-02  0.1076202E+00
         21   -1    0    0  503  502  0.00000000000E+00  0.00000000000E+00  0.75389928518E+03  0.75389928518E+03  0.00000000000E+00 0. -1.
         21   -1    0    0  501  503 -0.00000000000E+00 -0.00000000000E+00 -0.13515582458E+03  0.13515582458E+03  0.00000000000E+00 0. -1.
          6    1    1    2  501    0 -0.21956180916E+03  0.15329004487E+03  0.28693178227E+03  0.42891033279E+03  0.17300000000E+03 0. -1.
         -6    1    1    2    0  502  0.21956180916E+03 -0.15329004487E+03  0.33181167834E+03  0.46014477698E+03  0.17300000000E+03 0. -1.
<mgrwt>
<rscale>  2 0.31880123E+03</rscale>
<asrwt>0</asrwt>
<pdfrwt beam="1">  1       21 0.11598450E+00 0.31880123E+03</pdfrwt>
<pdfrwt beam="2">  1       21 0.20793204E-01 0.31880123E+03</pdfrwt>
<totfact> 0.11492700E+04</totfact>
</mgrwt>
</event>
<event>
 4    1  0.4621995E+000  0.2768385E+03  0.7546771E-02  0.1097428E+00
         21   -1    0    0  501  502  0.00000000000E+00  0.00000000000E+00  0.33589112703E+03  0.33589112703E+03  0.00000000000E+00 0. -1.
         21   -1    0    0  502  503 -0.00000000000E+00 -0.00000000000E+00 -0.23485717436E+03  0.23485717436E+03  0.00000000000E+00 0. -1.
          6    1    1    2  501    0  0.31443598981E+02  0.21382675065E+03  0.98678656412E+02  0.29389973876E+03  0.17300000000E+03 0. -1.
         -6    1    1    2    0  503 -0.31443598981E+02 -0.21382675065E+03  0.23552962598E+01  0.27684856263E+03  0.17300000000E+03 0. -1.
<mgrwt>
<rscale>  2 0.27683854E+03</rscale>
<asrwt>0</asrwt>
<pdfrwt beam="1">  1       21 0.51675558E-01 0.27683854E+03</pdfrwt>
<pdfrwt beam="2">  1       21 0.36131873E-01 0.27683854E+03</pdfrwt>
<totfact> 0.25206937E+04</totfact>
</mgrwt>
</event>
<event>
 4    1  0.4621995E+000  0.1857414E+03  0.7546771E-02  0.1162359E+00
         21   -1    0    0  501  502  0.00000000000E+00  0.00000000000E+00  0.18001261217E+04  0.18001261217E+04  0.00000000000E+00 0.  1.
         21   -1    0    0  502  503 -0.00000000000E+00 -0.00000000000E+00 -0.21876830471E+02  0.21876830471E+02  0.00000000000E+00 0.  1.
          6    1    1    2  501    0 -0.66647434973E+02  0.11357235351E+02  0.12098535631E+04  0.12240283949E+04  0.17300000000E+03 0.  1.
         -6    1    1    2    0  503  0.66647434973E+02 -0.11357235351E+02  0.56839572809E+03  0.59797455723E+03  0.17300000000E+03 0.  1.
<mgrwt>
<rscale>  2 0.18574140E+03</rscale>
<asrwt>0</asrwt>
<pdfrwt beam="1">  1       21 0.27694236E+00 0.18574140E+03</pdfrwt>
<pdfrwt beam="2">  1       21 0.33656676E-02 0.18574140E+03</pdfrwt>
<totfact> 0.24386855E+04</totfact>
</mgrwt>
</event>
<event>
 4    1  0.4621995E+000  0.2327298E+03  0.7546771E-02  0.1124733E+00
         21   -1    0    0  503  502  0.00000000000E+00  0.00000000000E+00  0.68267816064E+03  0.68267816064E+03  0.00000000000E+00 0. -1.
         21   -1    0    0  501  503 -0.00000000000E+00 -0.00000000000E+00 -0.12655466883E+03  0.12655466883E+03  0.00000000000E+00 0. -1.
          6    1    1    2  501    0 -0.11895586299E+03 -0.10041744393E+03  0.30919822872E+02  0.23477477682E+03  0.17300000000E+03 0. -1.
         -6    1    1    2    0  502  0.11895586299E+03  0.10041744393E+03  0.52520366894E+03  0.57445805265E+03  0.17300000000E+03 0. -1.
<mgrwt>
<rscale>  2 0.23272980E+03</rscale>
<asrwt>0</asrwt>
<pdfrwt beam="1">  1       21 0.10502741E+00 0.23272980E+03</pdfrwt>
<pdfrwt beam="2">  1       21 0.19469949E-01 0.23272980E+03</pdfrwt>
<totfact> 0.17294598E+04</totfact>
</mgrwt>
</event>
<event>
 4    1  0.4621995E+000  0.1751840E+03  0.7546771E-02  0.1172547E+00
         21   -1    0    0  503  502  0.00000000000E+00  0.00000000000E+00  0.35442743683E+03  0.35442743683E+03  0.00000000000E+00 0. -1.
         21   -1    0    0  501  503 -0.00000000000E+00 -0.00000000000E+00 -0.15592383878E+03  0.15592383878E+03  0.00000000000E+00 0. -1.
          6    1    1    2  501    0 -0.18719068758E+02  0.20249617745E+02 -0.70908913253E+02  0.18899080542E+03  0.17300000000E+03 0. -1.
         -6    1    1    2    0  502  0.18719068758E+02 -0.20249617745E+02  0.26941251131E+03  0.32136047019E+03  0.17300000000E+03 0. -1.
<mgrwt>
<rscale>  2 0.17518405E+03</rscale>
<asrwt>0</asrwt>
<pdfrwt beam="1">  1       21 0.54527298E-01 0.17518405E+03</pdfrwt>
<pdfrwt beam="2">  1       21 0.23988283E-01 0.17518405E+03</pdfrwt>
<totfact> 0.52485115E+04</totfact>
</mgrwt>
</event>
<event>
 4    1  0.4621995E+000  0.2098411E+03  0.7546771E-02  0.1141692E+00
         21   -1    0    0  501  502  0.00000000000E+00  0.00000000000E+00  0.12109175874E+03  0.12109175874E+03  0.00000000000E+00 0.  1.
         21   -1    0    0  502  503 -0.00000000000E+00 -0.00000000000E+00 -0.38225774029E+03  0.38225774029E+03  0.00000000000E+00 0.  1.
          6    1    1    2  501    0 -0.64112812461E+02  0.99969234353E+02 -0.75034306619E+02  0.22285297330E+03  0.17300000000E+03 0. -1.
         -6    1    1    2    0  503  0.64112812461E+02 -0.99969234353E+02 -0.18613167493E+03  0.28049652574E+03  0.17300000000E+03 0. -1.
<mgrwt>
<rscale>  2 0.20984113E+03</rscale>
<asrwt>0</asrwt>
<pdfrwt beam="1">  1       21 0.18629501E-01 0.20984113E+03</pdfrwt>
<pdfrwt beam="2">  1       21 0.58808883E-01 0.20984113E+03</pdfrwt>
<totfact> 0.70718287E+04</totfact>
</mgrwt>
</event>
<event>
 4    1  0.4621995E+000  0.1793271E+03  0.7546771E-02  0.1168456E+00
         21   -1    0    0  503  502  0.00000000000E+00  0.00000000000E+00  0.12641210525E+03  0.12641210525E+03  0.00000000000E+00 0. -1.
         21   -1    0    0  501  503 -0.00000000000E+00 -0.00000000000E+00 -0.25689988806E+03  0.25689988806E+03  0.00000000000E+00 0. -1.
          6    1    1    2  501    0  0.29335231433E+02 -0.36995390902E+02 -0.84180569416E+02  0.19810245586E+03  0.17300000000E+03 0. -1.
         -6    1    1    2    0  502 -0.29335231433E+02  0.36995390902E+02 -0.46307213389E+02  0.18520953745E+03  0.17300000000E+03 0. -1.
<mgrwt>
<rscale>  2 0.17932712E+03</rscale>
<asrwt>0</asrwt>
<pdfrwt beam="1">  1       21 0.19448016E-01 0.17932712E+03</pdfrwt>
<pdfrwt beam="2">  1       21 0.39523060E-01 0.17932712E+03</pdfrwt>
<totfact> 0.15072953E+05</totfact>
</mgrwt>
</event>
<event>
 4    1  0.4621995E+000  0.2395295E+03  0.7546771E-02  0.1120107E+00
         21   -1    0    0  503  502  0.00000000000E+00  0.00000000000E+00  0.21090260489E+04  0.21090260489E+04  0.00000000000E+00 0.  1.
         21   -1    0    0  501  503 -0.00000000000E+00 -0.00000000000E+00 -0.36666644491E+02  0.36666644491E+02  0.00000000000E+00 0. -1.
          6    1    1    2  501    0 -0.14340418953E+03  0.82949410086E+02  0.49117077291E+03  0.54646417483E+03  0.17300000000E+03 0. -1.
         -6    1    1    2    0  502  0.14340418953E+03 -0.82949410086E+02  0.15811886315E+04  0.15992285186E+04  0.17300000000E+03 0.  1.
<mgrwt>
<rscale>  2 0.23952947E+03</rscale>
<asrwt>0</asrwt>
<pdfrwt beam="1">  1       21 0.32446545E+00 0.23952947E+03</pdfrwt>
<pdfrwt beam="2">  1       21 0.56410239E-02 0.23952947E+03</pdfrwt>
<totfact> 0.51320379E+03</totfact>
</mgrwt>
</event>
<event>
 4    1  0.4621995E+000  0.2190042E+03  0.7546771E-02  0.1134628E+00
         21   -1    0    0  501  502  0.00000000000E+00  0.00000000000E+00  0.15192999778E+04  0.15192999778E+04  0.00000000000E+00 0.  1.
         21   -1    0    0  502  503 -0.00000000000E+00 -0.00000000000E+00 -0.12375435490E+03  0.12375435490E+03  0.00000000000E+00 0. -1.
          6    1    1    2  501    0 -0.12662552284E+03  0.44719333433E+02  0.14068157818E+04  0.14237603330E+04  0.17300000000E+03 0.  1.
         -6    1    1    2    0  503  0.12662552284E+03 -0.44719333433E+02 -0.11270158932E+02  0.21929399969E+03  0.17300000000E+03 0. -1.
<mgrwt>
<rscale>  2 0.21900421E+03</rscale>
<asrwt>0</asrwt>
<pdfrwt beam="1">  1       21 0.23373844E+00 0.21900421E+03</pdfrwt>
<pdfrwt beam="2">  1       21 0.19039133E-01 0.21900421E+03</pdfrwt>
<totfact> 0.20433261E+03</totfact>
</mgrwt>
</event>
<event>
 4    1  0.4621995E+000  0.1966779E+03  0.7546771E-02  0.1152573E+00
         21   -1    0    0  503  502  0.00000000000E+00  0.00000000000E+00  0.77133154712E+03  0.77133154712E+03  0.00000000000E+00 0.  1.
         21   -1    0    0  501  503 -0.00000000000E+00 -0.00000000000E+00 -0.51333358859E+02  0.51333358859E+02  0.00000000000E+00 0.  1.
          6    1    1    2  501    0  0.92694769366E+02 -0.12683725638E+02  0.29754363853E+03  0.35667129684E+03  0.17300000000E+03 0.  1.
         -6    1    1    2    0  502 -0.92694769366E+02  0.12683725638E+02  0.42245454973E+03  0.46599360913E+03  0.17300000000E+03 0.  1.
<mgrwt>
<rscale>  2 0.19667790E+03</rscale>
<asrwt>0</asrwt>
<pdfrwt beam="1">  1       21 0.11866638E+00 0.19667790E+03</pdfrwt>
<pdfrwt beam="2">  1       21 0.78974404E-02 0.19667790E+03</pdfrwt>
<totfact> 0.66499242E+04</totfact>
</mgrwt>
</event>
<event>
 4    1  0.4621995E+000  0.2232483E+03  0.7546771E-02  0.1131484E+00
         21   -1    0    0  503  502  0.00000000000E+00  0.00000000000E+00  0.10994093584E+03  0.10994093584E+03  0.00000000000E+00 0. -1.
         21   -1    0    0  501  503 -0.00000000000E+00 -0.00000000000E+00 -0.54215843114E+03  0.54215843114E+03  0.00000000000E+00 0.  1.
          6    1    1    2  501    0  0.10483805427E+03  0.94444622608E+02 -0.34808337571E+03  0.41352368833E+03  0.17300000000E+03 0.  1.
         -6    1    1    2    0  502 -0.10483805427E+03 -0.94444622608E+02 -0.84134119583E+02  0.23857567865E+03  0.17300000000E+03 0. -1.
<mgrwt>
<rscale>  2 0.22324830E+03</rscale>
<asrwt>0</asrwt>
<pdfrwt beam="1">  1       21 0.16913990E-01 0.22324830E+03</pdfrwt>
<pdfrwt beam="2">  1       21 0.83408988E-01 0.22324830E+03</pdfrwt>
<totfact> 0.38782894E+04</totfact>
</mgrwt>
</event>
<event>
 4    1  0.4621995E+000  0.2176429E+03  0.7546771E-02  0.1135653E+00
         21   -1    0    0  501  502  0.00000000000E+00  0.00000000000E+00  0.14477314298E+03  0.14477314298E+03  0.00000000000E+00 0.  1.
         21   -1    0    0  502  503 -0.00000000000E+00 -0.00000000000E+00 -0.10111542800E+04  0.10111542800E+04  0.00000000000E+00 0.  1.
          6    1    1    2  501    0 -0.51211771240E+02  0.12172430618E+03  0.42153730863E+02  0.22168759382E+03  0.17300000000E+03 0.  1.
         -6    1    1    2    0  503  0.51211771240E+02 -0.12172430618E+03 -0.90853486793E+03  0.93423982921E+03  0.17300000000E+03 0.  1.
<mgrwt>
<rscale>  2 0.21764295E+03</rscale>
<asrwt>0</asrwt>
<pdfrwt beam="1">  1       21 0.22272792E-01 0.21764295E+03</pdfrwt>
<pdfrwt beam="2">  1       21 0.15556219E+00 0.21764295E+03</pdfrwt>
<totfact> 0.50152784E+03</totfact>
</mgrwt>
</event>
<event>
 4    1  0.4621995E+000  0.2307066E+03  0.7546771E-02  0.1126143E+00
         21   -1    0    0  503  502  0.00000000000E+00  0.00000000000E+00  0.37733625721E+02  0.37733625721E+02  0.00000000000E+00 0.  1.
         21   -1    0    0  501  503 -0.00000000000E+00 -0.00000000000E+00 -0.18726919587E+04  0.18726919587E+04  0.00000000000E+00 0.  1.
          6    1    1    2  501    0  0.15258256222E+03 -0.38864248056E+01 -0.13919941877E+04  0.14109831187E+04  0.17300000000E+03 0.  1.
         -6    1    1    2    0  502 -0.15258256222E+03  0.38864248056E+01 -0.44296414531E+03  0.49944246578E+03  0.17300000000E+03 0.  1.
<mgrwt>
<rscale>  2 0.23070662E+03</rscale>
<asrwt>0</asrwt>
<pdfrwt beam="1">  1       21 0.58051744E-02 0.23070662E+03</pdfrwt>
<pdfrwt beam="2">  1       21 0.28810639E+00 0.23070662E+03</pdfrwt>
<totfact> 0.80264013E+03</totfact>
</mgrwt>
</event>
<event>
 4    1  0.4621995E+000  0.2563029E+03  0.7546771E-02  0.1109385E+00
         21   -1    0    0  501  502  0.00000000000E+00  0.00000000000E+00  0.38317065517E+02  0.38317065517E+02  0.00000000000E+00 0.  1.
         21   -1    0    0  502  503 -0.00000000000E+00 -0.00000000000E+00 -0.20858388312E+04  0.20858388312E+04  0.00000000000E+00 0. -1.
          6    1    1    2  501    0  0.13459185800E+03  0.13284285268E+03 -0.57557998369E+03  0.63006627380E+03  0.17300000000E+03 0.  1.
         -6    1    1    2    0  503 -0.13459185800E+03 -0.13284285268E+03 -0.14719417820E+04  0.14940896229E+04  0.17300000000E+03 0. -1.
<mgrwt>
<rscale>  2 0.25630293E+03</rscale>
<asrwt>0</asrwt>
<pdfrwt beam="1">  1       21 0.58949332E-02 0.25630293E+03</pdfrwt>
<pdfrwt beam="2">  1       21 0.32089828E+00 0.25630293E+03</pdfrwt>
<totfact> 0.49162136E+03</totfact>
</mgrwt>
</event>
<event>
 4    1  0.4621995E+000  0.3352655E+03  0.7546771E-02  0.1068831E+00
         21   -1    0    0  501  502  0.00000000000E+00  0.00000000000E+00  0.58850767027E+02  0.58850767027E+02  0.00000000000E+00 0.  1.
         21   -1    0    0  502  503 -0.00000000000E+00 -0.00000000000E+00 -0.19992029321E+04  0.19992029321E+04  0.00000000000E+00 0. -1.
          6    1    1    2  501    0 -0.13071697517E+03  0.25570886265E+03 -0.11875819012E+04  0.12339990770E+04  0.17300000000E+03 0. -1.
         -6    1    1    2    0  503  0.13071697517E+03 -0.25570886265E+03 -0.75277026386E+03  0.82405462209E+03  0.17300000000E+03 0.  1.
<mgrwt>
<rscale>  2 0.33526549E+03</rscale>
<asrwt>0</asrwt>
<pdfrwt beam="1">  1       21 0.90539641E-02 0.33526549E+03</pdfrwt>
<pdfrwt beam="2">  1       21 0.30756968E+00 0.33526549E+03</pdfrwt>
<totfact> 0.26141938E+03</totfact>
</mgrwt>
</event>
<event>
 4    1  0.4621995E+000  0.1910610E+03  0.7546771E-02  0.1157508E+00
         21   -1    0    0  501  502  0.00000000000E+00  0.00000000000E+00  0.64972625635E+03  0.64972625635E+03  0.00000000000E+00 0. -1.
         21   -1    0    0  502  503 -0.00000000000E+00 -0.00000000000E+00 -0.15578817037E+03  0.15578817037E+03  0.00000000000E+00 0. -1.
          6    1    1    2  501    0 -0.79706806005E+02  0.14903888619E+02  0.56901257338E+03  0.60023296268E+03  0.17300000000E+03 0. -1.
         -6    1    1    2    0  503  0.79706806005E+02 -0.14903888619E+02 -0.75074487402E+02  0.20528146404E+03  0.17300000000E+03 0. -1.
<mgrwt>
<rscale>  2 0.19106099E+03</rscale>
<asrwt>0</asrwt>
<pdfrwt beam="1">  1       21 0.99957884E-01 0.19106099E+03</pdfrwt>
<pdfrwt beam="2">  1       21 0.23967411E-01 0.19106099E+03</pdfrwt>
<totfact> 0.13503710E+04</totfact>
</mgrwt>
</event>
<event>
 4    1  0.4621995E+000  0.1837777E+03  0.7546771E-02  0.1164196E+00
         21   -1    0    0  501  502  0.00000000000E+00  0.00000000000E+00  0.74818846528E+03  0.74818846528E+03  0.00000000000E+00 0.  1.
         21   -1    0    0  502  503 -0.00000000000E+00 -0.00000000000E+00 -0.82283513721E+02  0.82283513721E+02  0.00000000000E+00 0.  1.
          6    1    1    2  501    0 -0.94252660188E+01  0.61289636709E+02  0.61193181034E+03  0.63893254395E+03  0.17300000000E+03 0.  1.
         -6    1    1    2    0  503  0.94252660188E+01 -0.61289636709E+02  0.53973141217E+02  0.19153943505E+03  0.17300000000E+03 0.  1.
<mgrwt>
<rscale>  2 0.18377773E+03</rscale>
<asrwt>0</asrwt>
<pdfrwt beam="1">  1       21 0.11510591E+00 0.18377773E+03</pdfrwt>
<pdfrwt beam="2">  1       21 0.12659003E-01 0.18377773E+03</pdfrwt>
<totfact> 0.31347396E+04</totfact>
</mgrwt>
</event>
<event>
 4    1  0.4621995E+000  0.3154714E+03  0.7546771E-02  0.1077753E+00
         21   -1    0    0  501  502  0.00000000000E+00  0.00000000000E+00  0.90670585562E+03  0.90670585562E+03  0.00000000000E+00 0. -1.
         21   -1    0    0  502  503 -0.00000000000E+00 -0.00000000000E+00 -0.11892027166E+03  0.11892027166E+03  0.00000000000E+00 0.  1.
          6    1    1    2  501    0 -0.26100528990E+03 -0.38333042226E+02  0.53620072968E+03  0.62212008969E+03  0.17300000000E+03 0. -1.
         -6    1    1    2    0  503  0.26100528990E+03  0.38333042226E+02  0.25158485428E+03  0.40350603760E+03  0.17300000000E+03 0.  1.
<mgrwt>
<rscale>  2 0.31547137E+03</rscale>
<asrwt>0</asrwt>
<pdfrwt beam="1">  1       21 0.13949320E+00 0.31547137E+03</pdfrwt>
<pdfrwt beam="2">  1       21 0.18295427E-01 0.31547137E+03</pdfrwt>
<totfact> 0.91442331E+03</totfact>
</mgrwt>
</event>
<event>
 4    1  0.4621995E+000  0.1758978E+03  0.7546771E-02  0.1171833E+00
         21   -1    0    0  501  502  0.00000000000E+00  0.00000000000E+00  0.26119961584E+02  0.26119961584E+02  0.00000000000E+00 0. -1.
         21   -1    0    0  502  503 -0.00000000000E+00 -0.00000000000E+00 -0.13403851485E+04  0.13403851485E+04  0.00000000000E+00 0. -1.
          6    1    1    2  501    0 -0.85200135149E+01  0.30633800024E+02 -0.42415215933E+03  0.45917869571E+03  0.17300000000E+03 0.  1.
         -6    1    1    2    0  503  0.85200135149E+01 -0.30633800024E+02 -0.89011302760E+03  0.90732641439E+03  0.17300000000E+03 0.  1.
<mgrwt>
<rscale>  2 0.17589776E+03</rscale>
<asrwt>0</asrwt>
<pdfrwt beam="1">  1       21 0.40184554E-02 0.17589776E+03</pdfrwt>
<pdfrwt beam="2">  1       21 0.20621311E+00 0.17589776E+03</pdfrwt>
<totfact> 0.48213276E+04</totfact>
</mgrwt>
</event>
<event>
 4    1  0.4621995E+000  0.2152540E+03  0.7546771E-02  0.1137472E+00
         21   -1    0    0  501  502  0.00000000000E+00  0.00000000000E+00  0.37450746939E+03  0.37450746939E+03  0.00000000000E+00 0. -1.
         21   -1    0    0  502  503 -0.00000000000E+00 -0.00000000000E+00 -0.13047348417E+03  0.13047348417E+03  0.00000000000E+00 0. -1.
          6    1    1    2  501    0  0.12806098763E+03 -0.23846321809E+01  0.17945869505E+03  0.28024940009E+03  0.17300000000E+03 0. -1.
         -6    1    1    2    0  503 -0.12806098763E+03  0.23846321809E+01  0.64575290178E+02  0.22473155347E+03  0.17300000000E+03 0. -1.
<mgrwt>
<rscale>  2 0.21525404E+03</rscale>
<asrwt>0</asrwt>
<pdfrwt beam="1">  1       21 0.57616533E-01 0.21525404E+03</pdfrwt>
<pdfrwt beam="2">  1       21 0.20072844E-01 0.21525404E+03</pdfrwt>
<totfact> 0.64133442E+04</totfact>
</mgrwt>
</event>
<event>
 4    1  0.4621995E+000  0.2239551E+03  0.7546771E-02  0.1130968E+00
         21   -1    0    0  501  502  0.00000000000E+00  0.00000000000E+00  0.13185295560E+03  0.13185295560E+03  0.00000000000E+00 0.  1.
         21   -1    0    0  502  503 -0.00000000000E+00 -0.00000000000E+00 -0.38067862882E+03  0.38067862882E+03  0.00000000000E+00 0. -1.
          6    1    1    2  501    0 -0.46784340759E+02  0.13430597590E+03 -0.13143911017E+03  0.25967693272E+03  0.17300000000E+03 0.  1.
         -6    1    1    2    0  503  0.46784340759E+02 -0.13430597590E+03 -0.11738656304E+03  0.25285465170E+03  0.17300000000E+03 0.  1.
<mgrwt>
<rscale>  2 0.22395506E+03</rscale>
<asrwt>0</asrwt>
<pdfrwt beam="1">  1       21 0.20285070E-01 0.22395506E+03</pdfrwt>
<pdfrwt beam="2">  1       21 0.58565943E-01 0.22395506E+03</pdfrwt>
<totfact> 0.60491009E+04</totfact>
</mgrwt>
</event>
<event>
 4    1  0.4621995E+000  0.1732115E+03  0.7546771E-02  0.1174540E+00
         21   -1    0    0  501  502  0.00000000000E+00  0.00000000000E+00  0.30545006039E+02  0.30545006039E+02  0.00000000000E+00 0. -1.
         21   -1    0    0  502  503 -0.00000000000E+00 -0.00000000000E+00 -0.15734152511E+04  0.15734152511E+04  0.00000000000E+00 0. -1.
          6    1    1    2  501    0  0.17360618094E+01 -0.83782907981E+01 -0.27984418872E+03  0.32911241184E+03  0.17300000000E+03 0. -1.
         -6    1    1    2    0  503 -0.17360618094E+01  0.83782907981E+01 -0.12630260563E+04  0.12748478453E+04  0.17300000000E+03 0. -1.
<mgrwt>
<rscale>  2 0.17321146E+03</rscale>
<asrwt>0</asrwt>
<pdfrwt beam="1">  1       21 0.46992305E-02 0.17321146E+03</pdfrwt>
<pdfrwt beam="2">  1       21 0.24206395E+00 0.17321146E+03</pdfrwt>
<totfact> 0.22508199E+04</totfact>
</mgrwt>
</event>
<event>
 4    1  0.4621995E+000  0.2506070E+03  0.7546771E-02  0.1112922E+00
         21   -1    0    0  501  502  0.00000000000E+00  0.00000000000E+00  0.61201964887E+03  0.61201964887E+03  0.00000000000E+00 0.  1.
         21   -1    0    0  502  503 -0.00000000000E+00 -0.00000000000E+00 -0.13457564935E+03  0.13457564935E+03  0.00000000000E+00 0. -1.
          6    1    1    2  501    0  0.18101627529E+03  0.10390060463E+02  0.42063499456E+03  0.48963010929E+03  0.17300000000E+03 0.  1.
         -6    1    1    2    0  503 -0.18101627529E+03 -0.10390060463E+02  0.56809004956E+02  0.25696518892E+03  0.17300000000E+03 0. -1.
<mgrwt>
<rscale>  2 0.25060695E+03</rscale>
<asrwt>0</asrwt>
<pdfrwt beam="1">  1       21 0.94156867E-01 0.25060695E+03</pdfrwt>
<pdfrwt beam="2">  1       21 0.20703946E-01 0.25060695E+03</pdfrwt>
<totfact> 0.19811282E+04</totfact>
</mgrwt>
</event>
<event>
 4    1  0.4621995E+000  0.3091185E+03  0.7546771E-02  0.1080769E+00
         21   -1    0    0  501  502  0.00000000000E+00  0.00000000000E+00  0.97205983451E+03  0.97205983451E+03  0.00000000000E+00 0.  1.
         21   -1    0    0  502  503 -0.00000000000E+00 -0.00000000000E+00 -0.11337256431E+03  0.11337256431E+03  0.00000000000E+00 0.  1.
          6    1    1    2  501    0  0.25541498187E+03 -0.19708185952E+02  0.23146388723E+03  0.38617322104E+03  0.17300000000E+03 0.  1.
         -6    1    1    2    0  503 -0.25541498187E+03  0.19708185952E+02  0.62722338298E+03  0.69925917778E+03  0.17300000000E+03 0.  1.
<mgrwt>
<rscale>  2 0.30911847E+03</rscale>
<asrwt>0</asrwt>
<pdfrwt beam="1">  1       21 0.14954766E+00 0.30911847E+03</pdfrwt>
<pdfrwt beam="2">  1       21 0.17441934E-01 0.30911847E+03</pdfrwt>
<totfact> 0.83379458E+03</totfact>
</mgrwt>
</event>
<event>
 4    1  0.4621995E+000  0.1856576E+03  0.7546771E-02  0.1162437E+00
         21   -1    0    0  503  502  0.00000000000E+00  0.00000000000E+00  0.42759008647E+02  0.42759008647E+02  0.00000000000E+00 0. -1.
         21   -1    0    0  501  503 -0.00000000000E+00 -0.00000000000E+00 -0.93318620697E+03  0.93318620697E+03  0.00000000000E+00 0.  1.
          6    1    1    2  501    0 -0.66237040446E+02 -0.12345557169E+02 -0.62527957805E+03  0.65226015442E+03  0.17300000000E+03 0.  1.
         -6    1    1    2    0  502  0.66237040446E+02  0.12345557169E+02 -0.26514762027E+03  0.32368506120E+03  0.17300000000E+03 0. -1.
<mgrwt>
<rscale>  2 0.18565764E+03</rscale>
<asrwt>0</asrwt>
<pdfrwt beam="1">  1       21 0.65783096E-02 0.18565764E+03</pdfrwt>
<pdfrwt beam="2">  1       21 0.14356710E+00 0.18565764E+03</pdfrwt>
<totfact> 0.56652998E+04</totfact>
</mgrwt>
</event>
<event>
 4    1  0.4621995E+000  0.5338734E+03  0.7546771E-02  0.1005297E+00
         21   -1    0    0  503  502  0.00000000000E+00  0.00000000000E+00  0.10751129201E+04  0.10751129201E+04  0.00000000000E+00 0. -1.
         21   -1    0    0  501  503 -0.00000000000E+00 -0.00000000000E+00 -0.26900713646E+03  0.26900713646E+03  0.00000000000E+00 0. -1.
          6    1    1    2  501    0 -0.28149253042E+03 -0.41934919727E+03  0.32213903125E+03  0.62353375963E+03  0.17300000000E+03 0. -1.
         -6    1    1    2    0  502  0.28149253042E+03  0.41934919727E+03  0.48396675243E+03  0.72058629698E+03  0.17300000000E+03 0. -1.
<mgrwt>
<rscale>  2 0.53387339E+03</rscale>
<asrwt>0</asrwt>
<pdfrwt beam="1">  1       21 0.16540199E+00 0.53387339E+03</pdfrwt>
<pdfrwt beam="2">  1       21 0.41385714E-01 0.53387339E+03</pdfrwt>
<totfact> 0.10550460E+03</totfact>
</mgrwt>
</event>
<event>
 4    1  0.4621995E+000  0.1886409E+03  0.7546771E-02  0.1159693E+00
         21   -1    0    0  503  502  0.00000000000E+00  0.00000000000E+00  0.22734699019E+03  0.22734699019E+03  0.00000000000E+00 0.  1.
         21   -1    0    0  501  503 -0.00000000000E+00 -0.00000000000E+00 -0.19491910024E+03  0.19491910024E+03  0.00000000000E+00 0. -1.
          6    1    1    2  501    0 -0.50162009973E+02 -0.56037077916E+02 -0.77491300812E+02  0.20393695851E+03  0.17300000000E+03 0. -1.
         -6    1    1    2    0  502  0.50162009973E+02  0.56037077916E+02  0.10991919076E+03  0.21832913191E+03  0.17300000000E+03 0.  1.
<mgrwt>
<rscale>  2 0.18864088E+03</rscale>
<asrwt>0</asrwt>
<pdfrwt beam="1">  1       21 0.34976460E-01 0.18864088E+03</pdfrwt>
<pdfrwt beam="2">  1       21 0.29987554E-01 0.18864088E+03</pdfrwt>
<totfact> 0.84172958E+04</totfact>
</mgrwt>
</event>
<event>
 4    1  0.4621995E+000  0.1767433E+03  0.7546771E-02  0.1170993E+00
         21   -1    0    0  503  502  0.00000000000E+00  0.00000000000E+00  0.22834238356E+03  0.22834238356E+03  0.00000000000E+00 0.  1.
         21   -1    0    0  501  503 -0.00000000000E+00 -0.00000000000E+00 -0.13700876782E+03  0.13700876782E+03  0.00000000000E+00 0.  1.
          6    1    1    2  501    0 -0.13351674929E+02  0.33629008958E+02  0.52726995569E+02  0.18444054199E+03  0.17300000000E+03 0.  1.
         -6    1    1    2    0  502  0.13351674929E+02 -0.33629008958E+02  0.38606620171E+02  0.18091060938E+03  0.17300000000E+03 0.  1.
<mgrwt>
<rscale>  2 0.17674325E+03</rscale>
<asrwt>0</asrwt>
<pdfrwt beam="1">  1       21 0.35129597E-01 0.17674325E+03</pdfrwt>
<pdfrwt beam="2">  1       21 0.21078272E-01 0.17674325E+03</pdfrwt>
<totfact> 0.16424544E+05</totfact>
</mgrwt>
</event>
<event>
 4    1  0.4621995E+000  0.2504073E+03  0.7546771E-02  0.1113048E+00
         21   -1    0    0  503  502  0.00000000000E+00  0.00000000000E+00  0.13547193756E+03  0.13547193756E+03  0.00000000000E+00 0.  1.
         21   -1    0    0  501  503 -0.00000000000E+00 -0.00000000000E+00 -0.47405227316E+03  0.47405227316E+03  0.00000000000E+00 0.  1.
          6    1    1    2  501    0 -0.17850946117E+03  0.30152651634E+02 -0.21612960281E+03  0.33078061512E+03  0.17300000000E+03 0.  1.
         -6    1    1    2    0  502  0.17850946117E+03 -0.30152651634E+02 -0.12245073279E+03  0.27874359560E+03  0.17300000000E+03 0.  1.
<mgrwt>
<rscale>  2 0.25040729E+03</rscale>
<asrwt>0</asrwt>
<pdfrwt beam="1">  1       21 0.20841836E-01 0.25040729E+03</pdfrwt>
<pdfrwt beam="2">  1       21 0.72931120E-01 0.25040729E+03</pdfrwt>
<totfact> 0.35151812E+04</totfact>
</mgrwt>
</event>
<event>
 4    1  0.4621995E+000  0.2605171E+03  0.7546771E-02  0.1106833E+00
         21   -1    0    0  501  502  0.00000000000E+00  0.00000000000E+00  0.22406979264E+03  0.22406979264E+03  0.00000000000E+00 0.  1.
         21   -1    0    0  502  503 -0.00000000000E+00 -0.00000000000E+00 -0.30520464576E+03  0.30520464576E+03  0.00000000000E+00 0.  1.
          6    1    1    2  501    0 -0.92598833081E+02  0.17136402561E+03 -0.17536289324E+02  0.26110667285E+03  0.17300000000E+03 0.  1.
         -6    1    1    2    0  503  0.92598833081E+02 -0.17136402561E+03 -0.63598563801E+02  0.26816776555E+03  0.17300000000E+03 0.  1.
<mgrwt>
<rscale>  2 0.26051713E+03</rscale>
<asrwt>0</asrwt>
<pdfrwt beam="1">  1       21 0.34472276E-01 0.26051713E+03</pdfrwt>
<pdfrwt beam="2">  1       21 0.46954561E-01 0.26051713E+03</pdfrwt>
<totfact> 0.34090290E+04</totfact>
</mgrwt>
</event>
<event>
 4    1  0.4621995E+000  0.2298225E+03  0.7546771E-02  0.1126765E+00
         21   -1    0    0  503  502  0.00000000000E+00  0.00000000000E+00  0.91607664000E+03  0.91607664000E+03  0.00000000000E+00 0. -1.
         21   -1    0    0  501  503 -0.00000000000E+00 -0.00000000000E+00 -0.88047239822E+02  0.88047239822E+02  0.00000000000E+00 0. -1.
          6    1    1    2  501    0  0.76754944112E+02 -0.13037654575E+03  0.11905312548E+03  0.25882815112E+03  0.17300000000E+03 0. -1.
         -6    1    1    2    0  502 -0.76754944112E+02  0.13037654575E+03  0.70897627470E+03  0.74529572870E+03  0.17300000000E+03 0. -1.
<mgrwt>
<rscale>  2 0.22982246E+03</rscale>
<asrwt>0</asrwt>
<pdfrwt beam="1">  1       21 0.14093486E+00 0.22982246E+03</pdfrwt>
<pdfrwt beam="2">  1       21 0.13545730E-01 0.22982246E+03</pdfrwt>
<totfact> 0.16202946E+04</totfact>
</mgrwt>
</event>
<event>
 4    1  0.4621995E+000  0.1741334E+03  0.7546771E-02  0.1173605E+00
         21   -1    0    0  503  502  0.00000000000E+00  0.00000000000E+00  0.15835807199E+04  0.15835807199E+04  0.00000000000E+00 0. -1.
         21   -1    0    0  501  503 -0.00000000000E+00 -0.00000000000E+00 -0.19375209754E+02  0.19375209754E+02  0.00000000000E+00 0. -1.
          6    1    1    2  501    0  0.12335020339E+02  0.15533411928E+02  0.86889084800E+03  0.88616801192E+03  0.17300000000E+03 0. -1.
         -6    1    1    2    0  502 -0.12335020339E+02 -0.15533411928E+02  0.69531466211E+03  0.71678791769E+03  0.17300000000E+03 0. -1.
<mgrwt>
<rscale>  2 0.17413340E+03</rscale>
<asrwt>0</asrwt>
<pdfrwt beam="1">  1       21 0.24362770E+00 0.17413340E+03</pdfrwt>
<pdfrwt beam="2">  1       21 0.29808027E-02 0.17413340E+03</pdfrwt>
<totfact> 0.47045992E+04</totfact>
</mgrwt>
</event>
<event>
 4    1  0.4621995E+000  0.2186030E+03  0.7546771E-02  0.1134929E+00
         21   -1    0    0  503  502  0.00000000000E+00  0.00000000000E+00  0.78865138474E+02  0.78865138474E+02  0.00000000000E+00 0.  1.
         21   -1    0    0  501  503 -0.00000000000E+00 -0.00000000000E+00 -0.62042224613E+03  0.62042224613E+03  0.00000000000E+00 0. -1.
          6    1    1    2  501    0 -0.12579842544E+03  0.45089337347E+02 -0.32420391548E+03  0.39101850467E+03  0.17300000000E+03 0. -1.
         -6    1    1    2    0  502  0.12579842544E+03 -0.45089337347E+02 -0.21735319219E+03  0.30826887994E+03  0.17300000000E+03 0. -1.
<mgrwt>
<rscale>  2 0.21860305E+03</rscale>
<asrwt>0</asrwt>
<pdfrwt beam="1">  1       21 0.12133097E-01 0.21860305E+03</pdfrwt>
<pdfrwt beam="2">  1       21 0.95449582E-01 0.21860305E+03</pdfrwt>
<totfact> 0.52042371E+04</totfact>
</mgrwt>
</event>
<event>
 4    1  0.4621995E+000  0.1963434E+03  0.7546771E-02  0.1152861E+00
         21   -1    0    0  501  502  0.00000000000E+00  0.00000000000E+00  0.28212760888E+03  0.28212760888E+03  0.00000000000E+00 0.  1.
         21   -1    0    0  502  503 -0.00000000000E+00 -0.00000000000E+00 -0.20076957045E+03  0.20076957045E+03  0.00000000000E+00 0.  1.
          6    1    1    2  501    0 -0.68557082670E+02  0.62623003523E+02  0.17713586229E+03  0.26443870341E+03  0.17300000000E+03 0.  1.
         -6    1    1    2    0  503  0.68557082670E+02 -0.62623003523E+02 -0.95777823863E+02  0.21845847591E+03  0.17300000000E+03 0.  1.
<mgrwt>
<rscale>  2 0.19634336E+03</rscale>
<asrwt>0</asrwt>
<pdfrwt beam="1">  1       21 0.43404248E-01 0.19634336E+03</pdfrwt>
<pdfrwt beam="2">  1       21 0.30887626E-01 0.19634336E+03</pdfrwt>
<totfact> 0.51273197E+04</totfact>
</mgrwt>
</event>
<event>
 4    1  0.4621995E+000  0.2021465E+03  0.7546771E-02  0.1147941E+00
         21   -1    0    0  501  502  0.00000000000E+00  0.00000000000E+00  0.25650518611E+03  0.25650518611E+03  0.00000000000E+00 0. -1.
         21   -1    0    0  502  503 -0.00000000000E+00 -0.00000000000E+00 -0.16477513645E+03  0.16477513645E+03  0.00000000000E+00 0. -1.
          6    1    1    2  501    0  0.28637667447E+02  0.10056882983E+03  0.84235244678E+02  0.21899493596E+03  0.17300000000E+03 0.  1.
         -6    1    1    2    0  503 -0.28637667447E+02 -0.10056882983E+03  0.74948049791E+01  0.20228538660E+03  0.17300000000E+03 0.  1.
<mgrwt>
<rscale>  2 0.20214650E+03</rscale>
<asrwt>0</asrwt>
<pdfrwt beam="1">  1       21 0.39462337E-01 0.20214650E+03</pdfrwt>
<pdfrwt beam="2">  1       21 0.25350021E-01 0.20214650E+03</pdfrwt>
<totfact> 0.90947239E+04</totfact>
</mgrwt>
</event>
<event>
 4    1  0.4621995E+000  0.2116767E+03  0.7546771E-02  0.1140245E+00
         21   -1    0    0  501  502  0.00000000000E+00  0.00000000000E+00  0.18230402400E+03  0.18230402400E+03  0.00000000000E+00 0.  1.
         21   -1    0    0  502  503 -0.00000000000E+00 -0.00000000000E+00 -0.71898759447E+03  0.71898759447E+03  0.00000000000E+00 0.  1.
          6    1    1    2  501    0  0.94763984112E+02 -0.76797267836E+02  0.97252678191E+02  0.23294874210E+03  0.17300000000E+03 0.  1.
         -6    1    1    2    0  503 -0.94763984112E+02  0.76797267836E+02 -0.63393624866E+03  0.66834287637E+03  0.17300000000E+03 0.  1.
<mgrwt>
<rscale>  2 0.21167672E+03</rscale>
<asrwt>0</asrwt>
<pdfrwt beam="1">  1       21 0.28046774E-01 0.21167672E+03</pdfrwt>
<pdfrwt beam="2">  1       21 0.11061347E+00 0.21167672E+03</pdfrwt>
<totfact> 0.77170487E+03</totfact>
</mgrwt>
</event>
<event>
 4    1  0.4621995E+000  0.2023098E+03  0.7546771E-02  0.1147805E+00
         21   -1    0    0  503  502  0.00000000000E+00  0.00000000000E+00  0.26676926715E+03  0.26676926715E+03  0.00000000000E+00 0.  1.
         21   -1    0    0  501  503 -0.00000000000E+00 -0.00000000000E+00 -0.16489402424E+03  0.16489402424E+03  0.00000000000E+00 0.  1.
          6    1    1    2  501    0 -0.63249891074E+02  0.83664368975E+02 -0.59819557298E+01  0.20239826865E+03  0.17300000000E+03 0.  1.
         -6    1    1    2    0  502  0.63249891074E+02 -0.83664368975E+02  0.10785719863E+03  0.22926502275E+03  0.17300000000E+03 0.  1.
<mgrwt>
<rscale>  2 0.20230985E+03</rscale>
<asrwt>0</asrwt>
<pdfrwt beam="1">  1       21 0.41041426E-01 0.20230985E+03</pdfrwt>
<pdfrwt beam="2">  1       21 0.25368311E-01 0.20230985E+03</pdfrwt>
<totfact> 0.83880171E+04</totfact>
</mgrwt>
</event>
<event>
 4    1  0.4621995E+000  0.1998968E+03  0.7546771E-02  0.1149826E+00
         21   -1    0    0  501  502  0.00000000000E+00  0.00000000000E+00  0.35910175797E+03  0.35910175797E+03  0.00000000000E+00 0.  1.
         21   -1    0    0  502  503 -0.00000000000E+00 -0.00000000000E+00 -0.11312232863E+03  0.11312232863E+03  0.00000000000E+00 0. -1.
          6    1    1    2  501    0 -0.42413101465E+02  0.90724040244E+02  0.92809483505E+02  0.22039129493E+03  0.17300000000E+03 0. -1.
         -6    1    1    2    0  503  0.42413101465E+02 -0.90724040244E+02  0.15316994583E+03  0.25183279167E+03  0.17300000000E+03 0.  1.
<mgrwt>
<rscale>  2 0.19989678E+03</rscale>
<asrwt>0</asrwt>
<pdfrwt beam="1">  1       21 0.55246424E-01 0.19989678E+03</pdfrwt>
<pdfrwt beam="2">  1       21 0.17403435E-01 0.19989678E+03</pdfrwt>
<totfact> 0.92039662E+04</totfact>
</mgrwt>
</event>
<event>
 4    1  0.4621995E+000  0.1972542E+03  0.7546771E-02  0.1152077E+00
         21   -1    0    0  503  502  0.00000000000E+00  0.00000000000E+00  0.20613139073E+03  0.20613139073E+03  0.00000000000E+00 0.  1.
         21   -1    0    0  501  503 -0.00000000000E+00 -0.00000000000E+00 -0.19959389770E+03  0.19959389770E+03  0.00000000000E+00 0.  1.
          6    1    1    2  501    0  0.70059186257E+02  0.63811605670E+02  0.50533290504E+02  0.20362422264E+03  0.17300000000E+03 0.  1.
         -6    1    1    2    0  502 -0.70059186257E+02 -0.63811605670E+02 -0.43995797466E+02  0.20210106579E+03  0.17300000000E+03 0.  1.
<mgrwt>
<rscale>  2 0.19725418E+03</rscale>
<asrwt>0</asrwt>
<pdfrwt beam="1">  1       21 0.31712522E-01 0.19725418E+03</pdfrwt>
<pdfrwt beam="2">  1       21 0.30706754E-01 0.19725418E+03</pdfrwt>
<totfact> 0.97169068E+04</totfact>
</mgrwt>
</event>
<event>
 4    1  0.4621995E+000  0.3433259E+03  0.7546771E-02  0.1065388E+00
         21   -1    0    0  503  502  0.00000000000E+00  0.00000000000E+00  0.66476995358E+03  0.66476995358E+03  0.00000000000E+00 0.  1.
         21   -1    0    0  501  503 -0.00000000000E+00 -0.00000000000E+00 -0.20066128422E+03  0.20066128422E+03  0.00000000000E+00 0.  1.
          6    1    1    2  501    0 -0.29541882971E+03 -0.25911670873E+02  0.84451928046E+02  0.35356021805E+03  0.17300000000E+03 0.  1.
         -6    1    1    2    0  502  0.29541882971E+03  0.25911670873E+02  0.37965674131E+03  0.51187101975E+03  0.17300000000E+03 0.  1.
<mgrwt>
<rscale>  2 0.34332594E+03</rscale>
<asrwt>0</asrwt>
<pdfrwt beam="1">  1       21 0.10227230E+00 0.34332594E+03</pdfrwt>
<pdfrwt beam="2">  1       21 0.30870967E-01 0.34332594E+03</pdfrwt>
<totfact> 0.72034298E+03</totfact>
</mgrwt>
</event>
<event>
 4    1  0.4621995E+000  0.1751433E+03  0.7546771E-02  0.1172588E+00
         21   -1    0    0  503  502  0.00000000000E+00  0.00000000000E+00  0.50448116090E+03  0.50448116090E+03  0.00000000000E+00 0.  1.
         21   -1    0    0  501  503 -0.00000000000E+00 -0.00000000000E+00 -0.62502418809E+02  0.62502418809E+02  0.00000000000E+00 0.  1.
          6    1    1    2  501    0  0.24253731153E+02 -0.12567464767E+02  0.17427678465E+03  0.24707808951E+03  0.17300000000E+03 0. -1.
         -6    1    1    2    0  502 -0.24253731153E+02  0.12567464767E+02  0.26770195744E+03  0.31990549020E+03  0.17300000000E+03 0. -1.
<mgrwt>
<rscale>  2 0.17514333E+03</rscale>
<asrwt>0</asrwt>
<pdfrwt beam="1">  1       21 0.77612484E-01 0.17514333E+03</pdfrwt>
<pdfrwt beam="2">  1       21 0.96157571E-02 0.17514333E+03</pdfrwt>
<totfact> 0.12885947E+05</totfact>
</mgrwt>
</event>
<event>
 4    1  0.4621995E+000  0.1940830E+03  0.7546771E-02  0.1154829E+00
         21   -1    0    0  503  502  0.00000000000E+00  0.00000000000E+00  0.51482722966E+02  0.51482722966E+02  0.00000000000E+00 0. -1.
         21   -1    0    0  501  503 -0.00000000000E+00 -0.00000000000E+00 -0.11076062417E+04  0.11076062417E+04  0.00000000000E+00 0. -1.
          6    1    1    2  501    0  0.62529055223E+02  0.61881413059E+02 -0.86570114725E+03  0.88719032252E+03  0.17300000000E+03 0. -1.
         -6    1    1    2    0  502 -0.62529055223E+02 -0.61881413059E+02 -0.19042237144E+03  0.27189864209E+03  0.17300000000E+03 0. -1.
<mgrwt>
<rscale>  2 0.19408295E+03</rscale>
<asrwt>0</asrwt>
<pdfrwt beam="1">  1       21 0.79204189E-02 0.19408295E+03</pdfrwt>
<pdfrwt beam="2">  1       21 0.17040096E+00 0.19408295E+03</pdfrwt>
<totfact> 0.25862817E+04</totfact>
</mgrwt>
</event>
<event>
 4    1  0.4621995E+000  0.1916679E+03  0.7546771E-02  0.1156966E+00
         21   -1    0    0  501  502  0.00000000000E+00  0.00000000000E+00  0.13168651227E+03  0.13168651227E+03  0.00000000000E+00 0.  1.
         21   -1    0    0  502  503 -0.00000000000E+00 -0.00000000000E+00 -0.29771533877E+03  0.29771533877E+03  0.00000000000E+00 0.  1.
          6    1    1    2  501    0 -0.53832779269E+02  0.62526972779E+02 -0.29140366907E+02  0.19387045013E+03  0.17300000000E+03 0.  1.
         -6    1    1    2    0  503  0.53832779269E+02 -0.62526972779E+02 -0.13688845960E+03  0.23553140092E+03  0.17300000000E+03 0.  1.
<mgrwt>
<rscale>  2 0.19166792E+03</rscale>
<asrwt>0</asrwt>
<pdfrwt beam="1">  1       21 0.20259463E-01 0.19166792E+03</pdfrwt>
<pdfrwt beam="2">  1       21 0.45802360E-01 0.19166792E+03</pdfrwt>
<totfact> 0.10301117E+05</totfact>
</mgrwt>
</event>
<event>
 4    1  0.4621995E+000  0.1968885E+03  0.7546771E-02  0.1152391E+00
         21   -1    0    0  501  502  0.00000000000E+00  0.00000000000E+00  0.47269731506E+03  0.47269731506E+03  0.00000000000E+00 0.  1.
         21   -1    0    0  502  503 -0.00000000000E+00 -0.00000000000E+00 -0.11916867870E+03  0.11916867870E+03  0.00000000000E+00 0.  1.
          6    1    1    2  501    0  0.14319947952E+02  0.92903209236E+02  0.34201864569E+03  0.39464138302E+03  0.17300000000E+03 0.  1.
         -6    1    1    2    0  503 -0.14319947952E+02 -0.92903209236E+02  0.11509990664E+02  0.19722461074E+03  0.17300000000E+03 0.  1.
<mgrwt>
<rscale>  2 0.19688846E+03</rscale>
<asrwt>0</asrwt>
<pdfrwt beam="1">  1       21 0.72722663E-01 0.19688846E+03</pdfrwt>
<pdfrwt beam="2">  1       21 0.18333643E-01 0.19688846E+03</pdfrwt>
<totfact> 0.46114683E+04</totfact>
</mgrwt>
</event>
<event>
 4    1  0.4621995E+000  0.2036767E+03  0.7546771E-02  0.1146674E+00
         21   -1    0    0  501  502  0.00000000000E+00  0.00000000000E+00  0.23799869906E+02  0.23799869906E+02  0.00000000000E+00 0. -1.
         21   -1    0    0  502  503 -0.00000000000E+00 -0.00000000000E+00 -0.17445209298E+04  0.17445209298E+04  0.00000000000E+00 0. -1.
          6    1    1    2  501    0  0.97427684879E+02 -0.45420555705E+02 -0.83461993972E+03  0.85911269601E+03  0.17300000000E+03 0. -1.
         -6    1    1    2    0  503 -0.97427684879E+02  0.45420555705E+02 -0.88610112020E+03  0.90920810372E+03  0.17300000000E+03 0. -1.
<mgrwt>
<rscale>  2 0.20367666E+03</rscale>
<asrwt>0</asrwt>
<pdfrwt beam="1">  1       21 0.36615183E-02 0.20367666E+03</pdfrwt>
<pdfrwt beam="2">  1       21 0.26838785E+00 0.20367666E+03</pdfrwt>
<totfact> 0.23367789E+04</totfact>
</mgrwt>
</event>
<event>
 4    1  0.4621995E+000  0.1909919E+03  0.7546771E-02  0.1157570E+00
         21   -1    0    0  503  502  0.00000000000E+00  0.00000000000E+00  0.14788294614E+03  0.14788294614E+03  0.00000000000E+00 0.  1.
         21   -1    0    0  501  503 -0.00000000000E+00 -0.00000000000E+00 -0.35292072888E+03  0.35292072888E+03  0.00000000000E+00 0. -1.
          6    1    1    2  501    0  0.20239318497E+02 -0.78353608461E+02 -0.23991359046E+03  0.30665363011E+03  0.17300000000E+03 0. -1.
         -6    1    1    2    0  502 -0.20239318497E+02  0.78353608461E+02  0.34875807721E+02  0.19415004490E+03  0.17300000000E+03 0.  1.
<mgrwt>
<rscale>  2 0.19099193E+03</rscale>
<asrwt>0</asrwt>
<pdfrwt beam="1">  1       21 0.22751223E-01 0.19099193E+03</pdfrwt>
<pdfrwt beam="2">  1       21 0.54295496E-01 0.19099193E+03</pdfrwt>
<totfact> 0.58118162E+04</totfact>
</mgrwt>
</event>
<event>
 4    1  0.4621995E+000  0.2211196E+03  0.7546771E-02  0.1133051E+00
         21   -1    0    0  501  502  0.00000000000E+00  0.00000000000E+00  0.61967125337E+02  0.61967125337E+02  0.00000000000E+00 0. -1.
         21   -1    0    0  502  503 -0.00000000000E+00 -0.00000000000E+00 -0.79264729593E+03  0.79264729593E+03  0.00000000000E+00 0.  1.
          6    1    1    2  501    0  0.69203688000E+02  0.11906191422E+03 -0.39420845988E+03  0.45198915882E+03  0.17300000000E+03 0. -1.
         -6    1    1    2    0  503 -0.69203688000E+02 -0.11906191422E+03 -0.33647171071E+03  0.40262526244E+03  0.17300000000E+03 0.  1.
<mgrwt>
<rscale>  2 0.22111963E+03</rscale>
<asrwt>0</asrwt>
<pdfrwt beam="1">  1       21 0.95334041E-02 0.22111963E+03</pdfrwt>
<pdfrwt beam="2">  1       21 0.12194573E+00 0.22111963E+03</pdfrwt>
<totfact> 0.44122456E+04</totfact>
</mgrwt>
</event>
<event>
 4    1  0.4621995E+000  0.1978535E+03  0.7546771E-02  0.1151563E+00
         21   -1    0    0  503  502  0.00000000000E+00  0.00000000000E+00  0.60710322731E+03  0.60710322731E+03  0.00000000000E+00 0. -1.
         21   -1    0    0  501  503 -0.00000000000E+00 -0.00000000000E+00 -0.12709923131E+03  0.12709923131E+03  0.00000000000E+00 0.  1.
          6    1    1    2  501    0  0.95231411049E+02 -0.12164604450E+02 -0.17670661003E+02  0.19864101166E+03  0.17300000000E+03 0.  1.
         -6    1    1    2    0  502 -0.95231411049E+02  0.12164604450E+02  0.49767465700E+03  0.53556144696E+03  0.17300000000E+03 0. -1.
<mgrwt>
<rscale>  2 0.19785348E+03</rscale>
<asrwt>0</asrwt>
<pdfrwt beam="1">  1       21 0.93400495E-01 0.19785348E+03</pdfrwt>
<pdfrwt beam="2">  1       21 0.19553728E-01 0.19785348E+03</pdfrwt>
<totfact> 0.23133103E+04</totfact>
</mgrwt>
</event>
<event>
 4    1  0.4621995E+000  0.2044574E+03  0.7546771E-02  0.1146032E+00
         21   -1    0    0  503  502  0.00000000000E+00  0.00000000000E+00  0.22771328494E+03  0.22771328494E+03  0.00000000000E+00 0.  1.
         21   -1    0    0  501  503 -0.00000000000E+00 -0.00000000000E+00 -0.18641362044E+03  0.18641362044E+03  0.00000000000E+00 0. -1.
          6    1    1    2  501    0  0.98226368991E+02 -0.47174058059E+02 -0.48949586230E+01  0.20451594544E+03  0.17300000000E+03 0.  1.
         -6    1    1    2    0  502 -0.98226368991E+02  0.47174058059E+02  0.46194623124E+02  0.20961095993E+03  0.17300000000E+03 0.  1.
<mgrwt>
<rscale>  2 0.20445736E+03</rscale>
<asrwt>0</asrwt>
<pdfrwt beam="1">  1       21 0.35032813E-01 0.20445736E+03</pdfrwt>
<pdfrwt beam="2">  1       21 0.28679018E-01 0.20445736E+03</pdfrwt>
<totfact> 0.90914510E+04</totfact>
</mgrwt>
</event>
<event>
 4    1  0.4621995E+000  0.2037307E+03  0.7546771E-02  0.1146629E+00
         21   -1    0    0  503  502  0.00000000000E+00  0.00000000000E+00  0.74509631346E+03  0.74509631346E+03  0.00000000000E+00 0.  1.
         21   -1    0    0  501  503 -0.00000000000E+00 -0.00000000000E+00 -0.58185832732E+02  0.58185832732E+02  0.00000000000E+00 0.  1.
          6    1    1    2  501    0  0.10675327908E+03 -0.13450564847E+02  0.42637516426E+03  0.47254836894E+03  0.17300000000E+03 0.  1.
         -6    1    1    2    0  502 -0.10675327908E+03  0.13450564847E+02  0.26053531647E+03  0.33073377725E+03  0.17300000000E+03 0.  1.
<mgrwt>
<rscale>  2 0.20373066E+03</rscale>
<asrwt>0</asrwt>
<pdfrwt beam="1">  1       21 0.11463020E+00 0.20373066E+03</pdfrwt>
<pdfrwt beam="2">  1       21 0.89516671E-02 0.20373066E+03</pdfrwt>
<totfact> 0.57939007E+04</totfact>
</mgrwt>
</event>
<event>
 4    1  0.4621995E+000  0.2021250E+03  0.7546771E-02  0.1147958E+00
         21   -1    0    0  501  502  0.00000000000E+00  0.00000000000E+00  0.77684910120E+03  0.77684910120E+03  0.00000000000E+00 0. -1.
         21   -1    0    0  502  503 -0.00000000000E+00 -0.00000000000E+00 -0.79344752120E+02  0.79344752120E+02  0.00000000000E+00 0.  1.
          6    1    1    2  501    0  0.29331536227E+02 -0.10032529021E+03  0.59734201847E+03  0.63061239276E+03  0.17300000000E+03 0. -1.
         -6    1    1    2    0  503 -0.29331536227E+02  0.10032529021E+03  0.10016233061E+03  0.22558146055E+03  0.17300000000E+03 0.  1.
<mgrwt>
<rscale>  2 0.20212497E+03</rscale>
<asrwt>0</asrwt>
<pdfrwt beam="1">  1       21 0.11951524E+00 0.20212497E+03</pdfrwt>
<pdfrwt beam="2">  1       21 0.12206886E-01 0.20212497E+03</pdfrwt>
<totfact> 0.30189961E+04</totfact>
</mgrwt>
</event>
<event>
 4    1  0.4621995E+000  0.2528480E+03  0.7546771E-02  0.1111518E+00
         21   -1    0    0  503  502  0.00000000000E+00  0.00000000000E+00  0.22537682919E+04  0.22537682919E+04  0.00000000000E+00 0.  1.
         21   -1    0    0  501  503 -0.00000000000E+00 -0.00000000000E+00 -0.70754137982E+02  0.70754137982E+02  0.00000000000E+00 0. -1.
          6    1    1    2  501    0 -0.15471375658E+03  0.10033324702E+03  0.19191402280E+03  0.31743203852E+03  0.17300000000E+03 0. -1.
         -6    1    1    2    0  502  0.15471375658E+03 -0.10033324702E+03  0.19911001312E+04  0.20070903914E+04  0.17300000000E+03 0.  1.
<mgrwt>
<rscale>  2 0.25284799E+03</rscale>
<asrwt>0</asrwt>
<pdfrwt beam="1">  1       21 0.34673353E+00 0.25284799E+03</pdfrwt>
<pdfrwt beam="2">  1       21 0.10885254E-01 0.25284799E+03</pdfrwt>
<totfact> 0.11839638E+03</totfact>
</mgrwt>
</event>
<event>
 4    1  0.4621995E+000  0.1968926E+03  0.7546771E-02  0.1152388E+00
         21   -1    0    0  503  502  0.00000000000E+00  0.00000000000E+00  0.62798850634E+03  0.62798850634E+03  0.00000000000E+00 0.  1.
         21   -1    0    0  501  503 -0.00000000000E+00 -0.00000000000E+00 -0.23934646685E+03  0.23934646685E+03  0.00000000000E+00 0.  1.
          6    1    1    2  501    0  0.14234898110E+02 -0.92924968219E+02 -0.17925854642E+03  0.26627111842E+03  0.17300000000E+03 0.  1.
         -6    1    1    2    0  502 -0.14234898110E+02  0.92924968219E+02  0.56790058590E+03  0.60106385477E+03  0.17300000000E+03 0.  1.
<mgrwt>
<rscale>  2 0.19689256E+03</rscale>
<asrwt>0</asrwt>
<pdfrwt beam="1">  1       21 0.96613616E-01 0.19689256E+03</pdfrwt>
<pdfrwt beam="2">  1       21 0.36822534E-01 0.19689256E+03</pdfrwt>
<totfact> 0.63134260E+03</totfact>
</mgrwt>
</event>
<event>
 4    1  0.4621995E+000  0.1765753E+03  0.7546771E-02  0.1171159E+00
         21   -1    0    0  501  502  0.00000000000E+00  0.00000000000E+00  0.59826879279E+02  0.59826879279E+02  0.00000000000E+00 0.  1.
         21   -1    0    0  502  503 -0.00000000000E+00 -0.00000000000E+00 -0.62698777341E+03  0.62698777341E+03  0.00000000000E+00 0.  1.
          6    1    1    2  501    0 -0.22139644171E+02  0.27562284476E+02 -0.14248983076E+03  0.22689688239E+03  0.17300000000E+03 0.  1.
         -6    1    1    2    0  503  0.22139644171E+02 -0.27562284476E+02 -0.42467106337E+03  0.45991777029E+03  0.17300000000E+03 0.  1.
<mgrwt>
<rscale>  2 0.17657532E+03</rscale>
<asrwt>0</asrwt>
<pdfrwt beam="1">  1       21 0.92041351E-02 0.17657532E+03</pdfrwt>
<pdfrwt beam="2">  1       21 0.96459659E-01 0.17657532E+03</pdfrwt>
<totfact> 0.84523234E+04</totfact>
</mgrwt>
</event>
<event>
 4    1  0.4621995E+000  0.2305273E+03  0.7546771E-02  0.1126269E+00
         21   -1    0    0  501  502  0.00000000000E+00  0.00000000000E+00  0.62867197322E+03  0.62867197322E+03  0.00000000000E+00 0. -1.
         21   -1    0    0  502  503 -0.00000000000E+00 -0.00000000000E+00 -0.84881672478E+02  0.84881672478E+02  0.00000000000E+00 0.  1.
          6    1    1    2  501    0  0.15207558039E+03 -0.93188028346E+01  0.29479836510E+03  0.37423107608E+03  0.17300000000E+03 0. -1.
         -6    1    1    2    0  503 -0.15207558039E+03  0.93188028346E+01  0.24899193564E+03  0.33932256962E+03  0.17300000000E+03 0. -1.
<mgrwt>
<rscale>  2 0.23052727E+03</rscale>
<asrwt>0</asrwt>
<pdfrwt beam="1">  1       21 0.96718763E-01 0.23052727E+03</pdfrwt>
<pdfrwt beam="2">  1       21 0.13058719E-01 0.23052727E+03</pdfrwt>
<totfact> 0.43942974E+04</totfact>
</mgrwt>
</event>
<event>
 4    1  0.4621995E+000  0.2064333E+03  0.7546771E-02  0.1144422E+00
         21   -1    0    0  501  502  0.00000000000E+00  0.00000000000E+00  0.97561887810E+02  0.97561887810E+02  0.00000000000E+00 0.  1.
         21   -1    0    0  502  503 -0.00000000000E+00 -0.00000000000E+00 -0.48781359192E+03  0.48781359192E+03  0.00000000000E+00 0. -1.
          6    1    1    2  501    0  0.23731330582E+02  0.11010229536E+03 -0.10047262694E+03  0.22958536595E+03  0.17300000000E+03 0. -1.
         -6    1    1    2    0  503 -0.23731330582E+02 -0.11010229536E+03 -0.28977907717E+03  0.35579011378E+03  0.17300000000E+03 0. -1.
<mgrwt>
<rscale>  2 0.20643326E+03</rscale>
<asrwt>0</asrwt>
<pdfrwt beam="1">  1       21 0.15009521E-01 0.20643326E+03</pdfrwt>
<pdfrwt beam="2">  1       21 0.75048246E-01 0.20643326E+03</pdfrwt>
<totfact> 0.61806598E+04</totfact>
</mgrwt>
</event>
<event>
 4    1  0.4621995E+000  0.2084129E+03  0.7546771E-02  0.1142829E+00
         21   -1    0    0  503  502  0.00000000000E+00  0.00000000000E+00  0.22071116915E+03  0.22071116915E+03  0.00000000000E+00 0. -1.
         21   -1    0    0  501  503 -0.00000000000E+00 -0.00000000000E+00 -0.21685118806E+03  0.21685118806E+03  0.00000000000E+00 0. -1.
          6    1    1    2  501    0  0.11399640430E+03  0.22621890773E+02  0.68457379913E+02  0.21936805373E+03  0.17300000000E+03 0. -1.
         -6    1    1    2    0  502 -0.11399640430E+03 -0.22621890773E+02 -0.64597398823E+02  0.21819430348E+03  0.17300000000E+03 0. -1.
<mgrwt>
<rscale>  2 0.20841288E+03</rscale>
<asrwt>0</asrwt>
<pdfrwt beam="1">  1       21 0.33955565E-01 0.20841288E+03</pdfrwt>
<pdfrwt beam="2">  1       21 0.33361721E-01 0.20841288E+03</pdfrwt>
<totfact> 0.71802685E+04</totfact>
</mgrwt>
</event>
<event>
 4    1  0.4621995E+000  0.3509532E+03  0.7546771E-02  0.1062224E+00
         21   -1    0    0  501  502  0.00000000000E+00  0.00000000000E+00  0.11577980609E+04  0.11577980609E+04  0.00000000000E+00 0.  1.
         21   -1    0    0  502  503 -0.00000000000E+00 -0.00000000000E+00 -0.15900228331E+03  0.15900228331E+03  0.00000000000E+00 0. -1.
          6    1    1    2  501    0 -0.16590612419E+03  0.25634804318E+03  0.87816074605E+03  0.94569258070E+03  0.17300000000E+03 0.  1.
         -6    1    1    2    0  503  0.16590612419E+03 -0.25634804318E+03  0.12063503152E+03  0.37110776348E+03  0.17300000000E+03 0. -1.
<mgrwt>
<rscale>  2 0.35095322E+03</rscale>
<asrwt>0</asrwt>
<pdfrwt beam="1">  1       21 0.17812277E+00 0.35095322E+03</pdfrwt>
<pdfrwt beam="2">  1       21 0.24461891E-01 0.35095322E+03</pdfrwt>
<totfact> 0.26451370E+03</totfact>
</mgrwt>
</event>
<event>
 4    1  0.4621995E+000  0.2011446E+03  0.7546771E-02  0.1148777E+00
         21   -1    0    0  501  502  0.00000000000E+00  0.00000000000E+00  0.62713716861E+02  0.62713716861E+02  0.00000000000E+00 0.  1.
         21   -1    0    0  502  503 -0.00000000000E+00 -0.00000000000E+00 -0.65788565244E+03  0.65788565244E+03  0.00000000000E+00 0.  1.
          6    1    1    2  501    0 -0.10490575894E+02 -0.10207896342E+03 -0.24743735366E+03  0.31887993186E+03  0.17300000000E+03 0.  1.
         -6    1    1    2    0  503  0.10490575894E+02  0.10207896342E+03 -0.34773458192E+03  0.40171943744E+03  0.17300000000E+03 0.  1.
<mgrwt>
<rscale>  2 0.20114464E+03</rscale>
<asrwt>0</asrwt>
<pdfrwt beam="1">  1       21 0.96482643E-02 0.20114464E+03</pdfrwt>
<pdfrwt beam="2">  1       21 0.10121318E+00 0.20114464E+03</pdfrwt>
<totfact> 0.68674584E+04</totfact>
</mgrwt>
</event>
<event>
 4    1  0.4621995E+000  0.1931982E+03  0.7546771E-02  0.1155608E+00
         21   -1    0    0  501  502  0.00000000000E+00  0.00000000000E+00  0.65150639858E+03  0.65150639858E+03  0.00000000000E+00 0.  1.
         21   -1    0    0  502  503 -0.00000000000E+00 -0.00000000000E+00 -0.83346342059E+02  0.83346342059E+02  0.00000000000E+00 0.  1.
          6    1    1    2  501    0 -0.42320158661E+02 -0.74870339954E+02  0.48951483406E+03  0.52626071143E+03  0.17300000000E+03 0.  1.
         -6    1    1    2    0  503  0.42320158661E+02  0.74870339954E+02  0.78645222468E+02  0.20859202921E+03  0.17300000000E+03 0.  1.
<mgrwt>
<rscale>  2 0.19319825E+03</rscale>
<asrwt>0</asrwt>
<pdfrwt beam="1">  1       21 0.10023175E+00 0.19319825E+03</pdfrwt>
<pdfrwt beam="2">  1       21 0.12822515E-01 0.19319825E+03</pdfrwt>
<totfact> 0.42531463E+04</totfact>
</mgrwt>
</event>
<event>
 4    1  0.4621995E+000  0.1986070E+03  0.7546771E-02  0.1150920E+00
         21   -1    0    0  503  502  0.00000000000E+00  0.00000000000E+00  0.19583185453E+03  0.19583185453E+03  0.00000000000E+00 0. -1.
         21   -1    0    0  501  503 -0.00000000000E+00 -0.00000000000E+00 -0.20351229902E+03  0.20351229902E+03  0.00000000000E+00 0. -1.
          6    1    1    2  501    0 -0.19241674850E+02 -0.95632042472E+02 -0.24079116784E+02  0.20006132426E+03  0.17300000000E+03 0. -1.
         -6    1    1    2    0  502  0.19241674850E+02  0.95632042472E+02  0.16398672296E+02  0.19928282929E+03  0.17300000000E+03 0. -1.
<mgrwt>
<rscale>  2 0.19860697E+03</rscale>
<asrwt>0</asrwt>
<pdfrwt beam="1">  1       21 0.30127978E-01 0.19860697E+03</pdfrwt>
<pdfrwt beam="2">  1       21 0.31309584E-01 0.19860697E+03</pdfrwt>
<totfact> 0.10335252E+05</totfact>
</mgrwt>
</event>
<event>
 4    1  0.4621995E+000  0.2076454E+03  0.7546771E-02  0.1143444E+00
         21   -1    0    0  503  502  0.00000000000E+00  0.00000000000E+00  0.46905871727E+03  0.46905871727E+03  0.00000000000E+00 0.  1.
         21   -1    0    0  501  503 -0.00000000000E+00 -0.00000000000E+00 -0.13559925539E+04  0.13559925539E+04  0.00000000000E+00 0.  1.
          6    1    1    2  501    0  0.11066503042E+03 -0.30673190479E+02 -0.13245201736E+04  0.13406976855E+04  0.17300000000E+03 0.  1.
         -6    1    1    2    0  502 -0.11066503042E+03  0.30673190479E+02  0.43758633702E+03  0.48435358564E+03  0.17300000000E+03 0.  1.
<mgrwt>
<rscale>  2 0.20764536E+03</rscale>
<asrwt>0</asrwt>
<pdfrwt beam="1">  1       21 0.72162879E-01 0.20764536E+03</pdfrwt>
<pdfrwt beam="2">  1       21 0.20861424E+00 0.20764536E+03</pdfrwt>
<totfact> 0.20107478E+02</totfact>
</mgrwt>
</event>
<event>
 4    1  0.4621995E+000  0.1978946E+03  0.7546771E-02  0.1151528E+00
         21   -1    0    0  501  502  0.00000000000E+00  0.00000000000E+00  0.11585720576E+04  0.11585720576E+04  0.00000000000E+00 0.  1.
         21   -1    0    0  502  503 -0.00000000000E+00 -0.00000000000E+00 -0.33802530165E+02  0.33802530165E+02  0.00000000000E+00 0. -1.
          6    1    1    2  501    0 -0.28079622741E+01 -0.96048829016E+02  0.56046820260E+03  0.59437939763E+03  0.17300000000E+03 0. -1.
         -6    1    1    2    0  503  0.28079622741E+01  0.96048829016E+02  0.56430132482E+03  0.59799519011E+03  0.17300000000E+03 0. -1.
<mgrwt>
<rscale>  2 0.19789457E+03</rscale>
<asrwt>0</asrwt>
<pdfrwt beam="1">  1       21 0.17824182E+00 0.19789457E+03</pdfrwt>
<pdfrwt beam="2">  1       21 0.52003901E-02 0.19789457E+03</pdfrwt>
<totfact> 0.46917289E+04</totfact>
</mgrwt>
</event>
<event>
 4    1  0.4621995E+000  0.1835714E+03  0.7546771E-02  0.1164391E+00
         21   -1    0    0  503  502  0.00000000000E+00  0.00000000000E+00  0.22140159072E+04  0.22140159072E+04  0.00000000000E+00 0. -1.
         21   -1    0    0  501  503 -0.00000000000E+00 -0.00000000000E+00 -0.18845330583E+02  0.18845330583E+02  0.00000000000E+00 0.  1.
          6    1    1    2  501    0  0.61301284100E+02 -0.34090717174E+01  0.60795008951E+03  0.63506045424E+03  0.17300000000E+03 0.  1.
         -6    1    1    2    0  502 -0.61301284100E+02  0.34090717174E+01  0.15872204871E+04  0.15978007836E+04  0.17300000000E+03 0. -1.
<mgrwt>
<rscale>  2 0.18357143E+03</rscale>
<asrwt>0</asrwt>
<pdfrwt beam="1">  1       21 0.34061763E+00 0.18357143E+03</pdfrwt>
<pdfrwt beam="2">  1       21 0.28992834E-02 0.18357143E+03</pdfrwt>
<totfact> 0.13435702E+04</totfact>
</mgrwt>
</event>
<event>
 4    1  0.4621995E+000  0.2341594E+03  0.7546771E-02  0.1123746E+00
         21   -1    0    0  503  502  0.00000000000E+00  0.00000000000E+00  0.22389946727E+03  0.22389946727E+03  0.00000000000E+00 0. -1.
         21   -1    0    0  501  503 -0.00000000000E+00 -0.00000000000E+00 -0.25214901345E+03  0.25214901345E+03  0.00000000000E+00 0. -1.
          6    1    1    2  501    0 -0.26262515610E+02 -0.15560177945E+03 -0.54512150494E+02  0.24042089769E+03  0.17300000000E+03 0. -1.
         -6    1    1    2    0  502  0.26262515610E+02  0.15560177945E+03  0.26262604313E+02  0.23562758302E+03  0.17300000000E+03 0. -1.
<mgrwt>
<rscale>  2 0.23415942E+03</rscale>
<asrwt>0</asrwt>
<pdfrwt beam="1">  1       21 0.34446072E-01 0.23415942E+03</pdfrwt>
<pdfrwt beam="2">  1       21 0.38792156E-01 0.23415942E+03</pdfrwt>
<totfact> 0.51066942E+04</totfact>
</mgrwt>
</event>
<event>
 4    1  0.4621995E+000  0.2041090E+03  0.7546771E-02  0.1146318E+00
         21   -1    0    0  503  502  0.00000000000E+00  0.00000000000E+00  0.10659481009E+03  0.10659481009E+03  0.00000000000E+00 0.  1.
         21   -1    0    0  501  503 -0.00000000000E+00 -0.00000000000E+00 -0.55995651896E+03  0.55995651896E+03  0.00000000000E+00 0.  1.
          6    1    1    2  501    0 -0.73207784308E+02 -0.79825437596E+02 -0.40984140390E+03  0.45785418696E+03  0.17300000000E+03 0.  1.
         -6    1    1    2    0  502  0.73207784308E+02  0.79825437596E+02 -0.43520304970E+02  0.20869714209E+03  0.17300000000E+03 0.  1.
<mgrwt>
<rscale>  2 0.20410899E+03</rscale>
<asrwt>0</asrwt>
<pdfrwt beam="1">  1       21 0.16399202E-01 0.20410899E+03</pdfrwt>
<pdfrwt beam="2">  1       21 0.86147156E-01 0.20410899E+03</pdfrwt>
<totfact> 0.38492384E+04</totfact>
</mgrwt>
</event>
<event>
 4    1  0.4621995E+000  0.1796671E+03  0.7546771E-02  0.1168126E+00
         21   -1    0    0  501  502  0.00000000000E+00  0.00000000000E+00  0.28405298053E+03  0.28405298053E+03  0.00000000000E+00 0. -1.
         21   -1    0    0  502  503 -0.00000000000E+00 -0.00000000000E+00 -0.11563645437E+03  0.11563645437E+03  0.00000000000E+00 0. -1.
          6    1    1    2  501    0  0.24717997908E+02 -0.41716924275E+02  0.11045547991E+03  0.21090446708E+03  0.17300000000E+03 0. -1.
         -6    1    1    2    0  503 -0.24717997908E+02  0.41716924275E+02  0.57961046249E+02  0.18878496782E+03  0.17300000000E+03 0. -1.
<mgrwt>
<rscale>  2 0.17966714E+03</rscale>
<asrwt>0</asrwt>
<pdfrwt beam="1">  1       21 0.43700458E-01 0.17966714E+03</pdfrwt>
<pdfrwt beam="2">  1       21 0.17790224E-01 0.17966714E+03</pdfrwt>
<totfact> 0.14498557E+05</totfact>
</mgrwt>
</event>
<event>
 4    1  0.4621995E+000  0.2059606E+03  0.7546771E-02  0.1144805E+00
         21   -1    0    0  501  502  0.00000000000E+00  0.00000000000E+00  0.11618331353E+03  0.11618331353E+03  0.00000000000E+00 0.  1.
         21   -1    0    0  502  503 -0.00000000000E+00 -0.00000000000E+00 -0.37224666006E+03  0.37224666006E+03  0.00000000000E+00 0.  1.
          6    1    1    2  501    0 -0.11057380277E+03 -0.16254823037E+02 -0.94219008918E+02  0.22648842525E+03  0.17300000000E+03 0.  1.
         -6    1    1    2    0  503  0.11057380277E+03  0.16254823037E+02 -0.16184433761E+03  0.26194154834E+03  0.17300000000E+03 0.  1.
<mgrwt>
<rscale>  2 0.20596064E+03</rscale>
<asrwt>0</asrwt>
<pdfrwt beam="1">  1       21 0.17874356E-01 0.20596064E+03</pdfrwt>
<pdfrwt beam="2">  1       21 0.57268715E-01 0.20596064E+03</pdfrwt>
<totfact> 0.80954539E+04</totfact>
</mgrwt>
</event>
<event>
 4    1  0.4621995E+000  0.1866537E+03  0.7546771E-02  0.1161515E+00
         21   -1    0    0  501  502  0.00000000000E+00  0.00000000000E+00  0.13117938762E+04  0.13117938762E+04  0.00000000000E+00 0. -1.
         21   -1    0    0  502  503 -0.00000000000E+00 -0.00000000000E+00 -0.27088589462E+02  0.27088589462E+02  0.00000000000E+00 0. -1.
          6    1    1    2  501    0 -0.61095839888E+02 -0.34320613323E+02  0.73597751684E+03  0.75927762475E+03  0.17300000000E+03 0. -1.
         -6    1    1    2    0  503  0.61095839888E+02  0.34320613323E+02  0.54872776986E+03  0.57960484088E+03  0.17300000000E+03 0. -1.
<mgrwt>
<rscale>  2 0.18665371E+03</rscale>
<asrwt>0</asrwt>
<pdfrwt beam="1">  1       21 0.20181439E+00 0.18665371E+03</pdfrwt>
<pdfrwt beam="2">  1       21 0.41674763E-02 0.18665371E+03</pdfrwt>
<totfact> 0.48007863E+04</totfact>
</mgrwt>
</event>
<event>
 4    1  0.4621995E+000  0.1736845E+03  0.7546771E-02  0.1174059E+00
         21   -1    0    0  501  502  0.00000000000E+00  0.00000000000E+00  0.12408474820E+03  0.12408474820E+03  0.00000000000E+00 0.  1.
         21   -1    0    0  502  503 -0.00000000000E+00 -0.00000000000E+00 -0.24423168755E+03  0.24423168755E+03  0.00000000000E+00 0.  1.
          6    1    1    2  501    0  0.12869367072E+02 -0.84670879674E+01 -0.72550702833E+02  0.18822836308E+03  0.17300000000E+03 0.  1.
         -6    1    1    2    0  503 -0.12869367072E+02  0.84670879674E+01 -0.47596236515E+02  0.18008807267E+03  0.17300000000E+03 0.  1.
<mgrwt>
<rscale>  2 0.17368452E+03</rscale>
<asrwt>0</asrwt>
<pdfrwt beam="1">  1       21 0.19089961E-01 0.17368452E+03</pdfrwt>
<pdfrwt beam="2">  1       21 0.37574106E-01 0.17368452E+03</pdfrwt>
<totfact> 0.17298526E+05</totfact>
</mgrwt>
</event>
<event>
 4    1  0.4621995E+000  0.1941183E+03  0.7546771E-02  0.1154798E+00
         21   -1    0    0  503  502  0.00000000000E+00  0.00000000000E+00  0.21482372213E+03  0.21482372213E+03  0.00000000000E+00 0. -1.
         21   -1    0    0  501  503 -0.00000000000E+00 -0.00000000000E+00 -0.18104441679E+03  0.18104441679E+03  0.00000000000E+00 0. -1.
          6    1    1    2  501    0  0.70990333149E+02  0.52089168369E+02  0.51812521559E+02  0.20091402702E+03  0.17300000000E+03 0. -1.
         -6    1    1    2    0  502 -0.70990333149E+02 -0.52089168369E+02 -0.18033216215E+02  0.19495411191E+03  0.17300000000E+03 0. -1.
<mgrwt>
<rscale>  2 0.19411829E+03</rscale>
<asrwt>0</asrwt>
<pdfrwt beam="1">  1       21 0.33049803E-01 0.19411829E+03</pdfrwt>
<pdfrwt beam="2">  1       21 0.27852987E-01 0.19411829E+03</pdfrwt>
<totfact> 0.10843314E+05</totfact>
</mgrwt>
</event>
<event>
 4    1  0.4621995E+000  0.2246263E+03  0.7546771E-02  0.1130480E+00
         21   -1    0    0  503  502  0.00000000000E+00  0.00000000000E+00  0.64732067475E+03  0.64732067475E+03  0.00000000000E+00 0.  1.
         21   -1    0    0  501  503 -0.00000000000E+00 -0.00000000000E+00 -0.22304793990E+03  0.22304793990E+03  0.00000000000E+00 0. -1.
          6    1    1    2  501    0 -0.48008222359E+02 -0.13499322989E+03 -0.13886486155E+03  0.26408409892E+03  0.17300000000E+03 0. -1.
         -6    1    1    2    0  502  0.48008222359E+02  0.13499322989E+03  0.56313759640E+03  0.60628451573E+03  0.17300000000E+03 0.  1.
<mgrwt>
<rscale>  2 0.22462627E+03</rscale>
<asrwt>0</asrwt>
<pdfrwt beam="1">  1       21 0.99587795E-01 0.22462627E+03</pdfrwt>
<pdfrwt beam="2">  1       21 0.34315068E-01 0.22462627E+03</pdfrwt>
<totfact> 0.66296071E+03</totfact>
</mgrwt>
</event>
<event>
 4    1  0.4621995E+000  0.2032869E+03  0.7546771E-02  0.1146995E+00
         21   -1    0    0  503  502  0.00000000000E+00  0.00000000000E+00  0.85119844144E+02  0.85119844144E+02  0.00000000000E+00 0.  1.
         21   -1    0    0  501  503 -0.00000000000E+00 -0.00000000000E+00 -0.75443780602E+03  0.75443780602E+03  0.00000000000E+00 0.  1.
          6    1    1    2  501    0  0.39010128031E+02 -0.99371996509E+02 -0.58529050129E+03  0.61958902078E+03  0.17300000000E+03 0.  1.
         -6    1    1    2    0  502 -0.39010128031E+02  0.99371996509E+02 -0.84027460592E+02  0.21996862938E+03  0.17300000000E+03 0.  1.
<mgrwt>
<rscale>  2 0.20328695E+03</rscale>
<asrwt>0</asrwt>
<pdfrwt beam="1">  1       21 0.13095361E-01 0.20328695E+03</pdfrwt>
<pdfrwt beam="2">  1       21 0.11606735E+00 0.20328695E+03</pdfrwt>
<totfact> 0.28574273E+04</totfact>
</mgrwt>
</event>
<event>
 4    1  0.4621995E+000  0.1972860E+03  0.7546771E-02  0.1152049E+00
         21   -1    0    0  503  502  0.00000000000E+00  0.00000000000E+00  0.57453847360E+02  0.57453847360E+02  0.00000000000E+00 0. -1.
         21   -1    0    0  501  503 -0.00000000000E+00 -0.00000000000E+00 -0.70754539880E+03  0.70754539880E+03  0.00000000000E+00 0. -1.
          6    1    1    2  501    0  0.87295228560E+02  0.37044601764E+02 -0.24615108324E+03  0.31545540926E+03  0.17300000000E+03 0. -1.
         -6    1    1    2    0  502 -0.87295228560E+02 -0.37044601764E+02 -0.40394046820E+03  0.44954383690E+03  0.17300000000E+03 0. -1.
<mgrwt>
<rscale>  2 0.19728598E+03</rscale>
<asrwt>0</asrwt>
<pdfrwt beam="1">  1       21 0.88390533E-02 0.19728598E+03</pdfrwt>
<pdfrwt beam="2">  1       21 0.10885314E+00 0.19728598E+03</pdfrwt>
<totfact> 0.67386070E+04</totfact>
</mgrwt>
</event>
<event>
 4    1  0.4621995E+000  0.1740989E+03  0.7546771E-02  0.1173640E+00
         21   -1    0    0  503  502  0.00000000000E+00  0.00000000000E+00  0.21192352673E+03  0.21192352673E+03  0.00000000000E+00 0. -1.
         21   -1    0    0  501  503 -0.00000000000E+00 -0.00000000000E+00 -0.15886601961E+03  0.15886601961E+03  0.00000000000E+00 0. -1.
          6    1    1    2  501    0 -0.82463250952E+01  0.17703724619E+02 -0.32013518978E+02  0.17701776504E+03  0.17300000000E+03 0. -1.
         -6    1    1    2    0  502  0.82463250952E+01 -0.17703724619E+02  0.85071026097E+02  0.19377178129E+03  0.17300000000E+03 0. -1.
<mgrwt>
<rscale>  2 0.17409889E+03</rscale>
<asrwt>0</asrwt>
<pdfrwt beam="1">  1       21 0.32603620E-01 0.17409889E+03</pdfrwt>
<pdfrwt beam="2">  1       21 0.24440926E-01 0.17409889E+03</pdfrwt>
<totfact> 0.14405426E+05</totfact>
</mgrwt>
</event>
<event>
 4    1  0.4621995E+000  0.2291627E+03  0.7546771E-02  0.1127230E+00
         21   -1    0    0  501  502  0.00000000000E+00  0.00000000000E+00  0.61113993458E+03  0.61113993458E+03  0.00000000000E+00 0. -1.
         21   -1    0    0  502  503 -0.00000000000E+00 -0.00000000000E+00 -0.86419659131E+02  0.86419659131E+02  0.00000000000E+00 0. -1.
          6    1    1    2  501    0  0.76051843990E+02  0.12962503046E+03  0.28860177571E+03  0.36851935694E+03  0.17300000000E+03 0. -1.
         -6    1    1    2    0  503 -0.76051843990E+02 -0.12962503046E+03  0.23611849974E+03  0.32904023677E+03  0.17300000000E+03 0. -1.
<mgrwt>
<rscale>  2 0.22916267E+03</rscale>
<asrwt>0</asrwt>
<pdfrwt beam="1">  1       21 0.94021526E-01 0.22916267E+03</pdfrwt>
<pdfrwt beam="2">  1       21 0.13295333E-01 0.22916267E+03</pdfrwt>
<totfact> 0.45496574E+04</totfact>
</mgrwt>
</event>
<event>
 4    1  0.4621995E+000  0.3357395E+03  0.7546771E-02  0.1068625E+00
         21   -1    0    0  501  502  0.00000000000E+00  0.00000000000E+00  0.33492971547E+03  0.33492971547E+03  0.00000000000E+00 0.  1.
         21   -1    0    0  502  503 -0.00000000000E+00 -0.00000000000E+00 -0.46826538392E+03  0.46826538392E+03  0.00000000000E+00 0. -1.
          6    1    1    2  501    0  0.17238120194E+02 -0.28721920226E+03  0.14632312799E+03  0.36623964930E+03  0.17300000000E+03 0.  1.
         -6    1    1    2    0  503 -0.17238120194E+02  0.28721920226E+03 -0.27965879644E+03  0.43695545009E+03  0.17300000000E+03 0. -1.
<mgrwt>
<rscale>  2 0.33573952E+03</rscale>
<asrwt>0</asrwt>
<pdfrwt beam="1">  1       21 0.51527649E-01 0.33573952E+03</pdfrwt>
<pdfrwt beam="2">  1       21 0.72040828E-01 0.33573952E+03</pdfrwt>
<totfact> 0.57258733E+03</totfact>
</mgrwt>
</event>
<event>
 4    1  0.4621995E+000  0.2056769E+03  0.7546771E-02  0.1145036E+00
         21   -1    0    0  501  502  0.00000000000E+00  0.00000000000E+00  0.12315727697E+03  0.12315727697E+03  0.00000000000E+00 0. -1.
         21   -1    0    0  502  503 -0.00000000000E+00 -0.00000000000E+00 -0.36150312420E+03  0.36150312420E+03  0.00000000000E+00 0.  1.
          6    1    1    2  501    0  0.11114918651E+03 -0.44542984202E+01 -0.65075517828E+02  0.21572622802E+03  0.17300000000E+03 0. -1.
         -6    1    1    2    0  503 -0.11114918651E+03  0.44542984202E+01 -0.17327032940E+03  0.26893417315E+03  0.17300000000E+03 0. -1.
<mgrwt>
<rscale>  2 0.20567689E+03</rscale>
<asrwt>0</asrwt>
<pdfrwt beam="1">  1       21 0.18947274E-01 0.20567689E+03</pdfrwt>
<pdfrwt beam="2">  1       21 0.55615864E-01 0.20567689E+03</pdfrwt>
<totfact> 0.77335527E+04</totfact>
</mgrwt>
</event>
<event>
 4    1  0.4621995E+000  0.1799389E+03  0.7546771E-02  0.1167862E+00
         21   -1    0    0  501  502  0.00000000000E+00  0.00000000000E+00  0.89093336412E+02  0.89093336412E+02  0.00000000000E+00 0.  1.
         21   -1    0    0  502  503 -0.00000000000E+00 -0.00000000000E+00 -0.48893766021E+03  0.48893766021E+03  0.00000000000E+00 0.  1.
          6    1    1    2  501    0 -0.92475430843E+01  0.48615563155E+02 -0.53484485281E+02  0.18771941881E+03  0.17300000000E+03 0.  1.
         -6    1    1    2    0  503  0.92475430843E+01 -0.48615563155E+02 -0.34635983852E+03  0.39031157781E+03  0.17300000000E+03 0.  1.
<mgrwt>
<rscale>  2 0.17993885E+03</rscale>
<asrwt>0</asrwt>
<pdfrwt beam="1">  1       21 0.13706667E-01 0.17993885E+03</pdfrwt>
<pdfrwt beam="2">  1       21 0.75221178E-01 0.17993885E+03</pdfrwt>
<totfact> 0.73375426E+04</totfact>
</mgrwt>
</event>
<event>
 4    1  0.4621995E+000  0.2387913E+03  0.7546771E-02  0.1120601E+00
         21   -1    0    0  501  502  0.00000000000E+00  0.00000000000E+00  0.36222393681E+03  0.36222393681E+03  0.00000000000E+00 0. -1.
         21   -1    0    0  502  503 -0.00000000000E+00 -0.00000000000E+00 -0.27390213187E+03  0.27390213187E+03  0.00000000000E+00 0.  1.
          6    1    1    2  501    0  0.16459036864E+03  0.15152226363E+01  0.25157830044E+03  0.34686153808E+03  0.17300000000E+03 0. -1.
         -6    1    1    2    0  503 -0.16459036864E+03 -0.15152226363E+01 -0.16325649549E+03  0.28926453061E+03  0.17300000000E+03 0.  1.
<mgrwt>
<rscale>  2 0.23879130E+03</rscale>
<asrwt>0</asrwt>
<pdfrwt beam="1">  1       21 0.55726760E-01 0.23879130E+03</pdfrwt>
<pdfrwt beam="2">  1       21 0.42138789E-01 0.23879130E+03</pdfrwt>
<totfact> 0.16004014E+04</totfact>
</mgrwt>
</event>
<event>
 4    1  0.4621995E+000  0.2511673E+03  0.7546771E-02  0.1112569E+00
         21   -1    0    0  501  502  0.00000000000E+00  0.00000000000E+00  0.16122058853E+03  0.16122058853E+03  0.00000000000E+00 0. -1.
         21   -1    0    0  502  503 -0.00000000000E+00 -0.00000000000E+00 -0.46401722913E+03  0.46401722913E+03  0.00000000000E+00 0.  1.
          6    1    1    2  501    0 -0.88305601767E+02  0.15924241307E+03 -0.27639034433E+02  0.25268348115E+03  0.17300000000E+03 0.  1.
         -6    1    1    2    0  503  0.88305601767E+02 -0.15924241307E+03 -0.27515760616E+03  0.37255433651E+03  0.17300000000E+03 0. -1.
<mgrwt>
<rscale>  2 0.25116733E+03</rscale>
<asrwt>0</asrwt>
<pdfrwt beam="1">  1       21 0.24803168E-01 0.25116733E+03</pdfrwt>
<pdfrwt beam="2">  1       21 0.71387265E-01 0.25116733E+03</pdfrwt>
<totfact> 0.26469198E+04</totfact>
</mgrwt>
</event>
<event>
 4    1  0.4621995E+000  0.2246721E+03  0.7546771E-02  0.1130447E+00
         21   -1    0    0  503  502  0.00000000000E+00  0.00000000000E+00  0.73796823157E+02  0.73796823157E+02  0.00000000000E+00 0. -1.
         21   -1    0    0  501  503 -0.00000000000E+00 -0.00000000000E+00 -0.79802019862E+03  0.79802019862E+03  0.00000000000E+00 0. -1.
          6    1    1    2  501    0 -0.59830226624E+02  0.13026477295E+03 -0.52687684062E+03  0.57277986371E+03  0.17300000000E+03 0. -1.
         -6    1    1    2    0  502  0.59830226624E+02 -0.13026477295E+03 -0.19734653485E+03  0.29903715807E+03  0.17300000000E+03 0. -1.
<mgrwt>
<rscale>  2 0.22467213E+03</rscale>
<asrwt>0</asrwt>
<pdfrwt beam="1">  1       21 0.11353356E-01 0.22467213E+03</pdfrwt>
<pdfrwt beam="2">  1       21 0.12277235E+00 0.22467213E+03</pdfrwt>
<totfact> 0.31743995E+04</totfact>
</mgrwt>
</event>
<event>
 4    1  0.4621995E+000  0.1863921E+03  0.7546771E-02  0.1161756E+00
         21   -1    0    0  503  502  0.00000000000E+00  0.00000000000E+00  0.47143956339E+02  0.47143956339E+02  0.00000000000E+00 0. -1.
         21   -1    0    0  501  503 -0.00000000000E+00 -0.00000000000E+00 -0.99822263649E+03  0.99822263649E+03  0.00000000000E+00 0. -1.
          6    1    1    2  501    0 -0.14127349676E+02  0.67922339077E+02 -0.74295352353E+03  0.76597778315E+03  0.17300000000E+03 0. -1.
         -6    1    1    2    0  502  0.14127349676E+02 -0.67922339077E+02 -0.20812515662E+03  0.27938880968E+03  0.17300000000E+03 0. -1.
<mgrwt>
<rscale>  2 0.18639213E+03</rscale>
<asrwt>0</asrwt>
<pdfrwt beam="1">  1       21 0.72529163E-02 0.18639213E+03</pdfrwt>
<pdfrwt beam="2">  1       21 0.15357271E+00 0.18639213E+03</pdfrwt>
<totfact> 0.40107673E+04</totfact>
</mgrwt>
</event>
<event>
 4    1  0.4621995E+000  0.2427598E+03  0.7546771E-02  0.1117968E+00
         21   -1    0    0  503  502  0.00000000000E+00  0.00000000000E+00  0.49720851389E+03  0.49720851389E+03  0.00000000000E+00 0.  1.
         21   -1    0    0  501  503 -0.00000000000E+00 -0.00000000000E+00 -0.27219989090E+03  0.27219989090E+03  0.00000000000E+00 0. -1.
          6    1    1    2  501    0  0.32421311951E+02  0.16718902387E+03 -0.17655203145E+03  0.30017150262E+03  0.17300000000E+03 0. -1.
         -6    1    1    2    0  502 -0.32421311951E+02 -0.16718902387E+03  0.40156065443E+03  0.46923690217E+03  0.17300000000E+03 0.  1.
<mgrwt>
<rscale>  2 0.24275978E+03</rscale>
<asrwt>0</asrwt>
<pdfrwt beam="1">  1       21 0.76493617E-01 0.24275978E+03</pdfrwt>
<pdfrwt beam="2">  1       21 0.41876906E-01 0.24275978E+03</pdfrwt>
<totfact> 0.80784081E+03</totfact>
</mgrwt>
</event>
<event>
 4    1  0.4621995E+000  0.1814753E+03  0.7546771E-02  0.1166383E+00
         21   -1    0    0  501  502  0.00000000000E+00  0.00000000000E+00  0.25412323029E+02  0.25412323029E+02  0.00000000000E+00 0. -1.
         21   -1    0    0  502  503 -0.00000000000E+00 -0.00000000000E+00 -0.13759750108E+04  0.13759750108E+04  0.00000000000E+00 0. -1.
          6    1    1    2  501    0 -0.51782351180E+02 -0.17968678459E+02 -0.50630885312E+03  0.53784936557E+03  0.17300000000E+03 0. -1.
         -6    1    1    2    0  503  0.51782351180E+02  0.17968678459E+02 -0.84425383468E+03  0.86353796829E+03  0.17300000000E+03 0. -1.
<mgrwt>
<rscale>  2 0.18147530E+03</rscale>
<asrwt>0</asrwt>
<pdfrwt beam="1">  1       21 0.39095869E-02 0.18147530E+03</pdfrwt>
<pdfrwt beam="2">  1       21 0.21168853E+00 0.18147530E+03</pdfrwt>
<totfact> 0.46470054E+04</totfact>
</mgrwt>
</event>
<event>
 4    1  0.4621995E+000  0.1990415E+03  0.7546771E-02  0.1150550E+00
         21   -1    0    0  503  502  0.00000000000E+00  0.00000000000E+00  0.26771058474E+03  0.26771058474E+03  0.00000000000E+00 0.  1.
         21   -1    0    0  501  503 -0.00000000000E+00 -0.00000000000E+00 -0.16971086769E+03  0.16971086769E+03  0.00000000000E+00 0. -1.
          6    1    1    2  501    0 -0.79824873763E+02 -0.57589145160E+02  0.12725088358E+03  0.23624205274E+03  0.17300000000E+03 0.  1.
         -6    1    1    2    0  502  0.79824873763E+02  0.57589145160E+02 -0.29251166531E+02  0.20117939968E+03  0.17300000000E+03 0. -1.
<mgrwt>
<rscale>  2 0.19904150E+03</rscale>
<asrwt>0</asrwt>
<pdfrwt beam="1">  1       21 0.41186244E-01 0.19904150E+03</pdfrwt>
<pdfrwt beam="2">  1       21 0.26109364E-01 0.19904150E+03</pdfrwt>
<totfact> 0.78921800E+04</totfact>
</mgrwt>
</event>
<event>
 4    1  0.4621995E+000  0.1948293E+03  0.7546771E-02  0.1154176E+00
         21   -1    0    0  501  502  0.00000000000E+00  0.00000000000E+00  0.62796369861E+02  0.62796369861E+02  0.00000000000E+00 0.  1.
         21   -1    0    0  502  503 -0.00000000000E+00 -0.00000000000E+00 -0.93453465981E+03  0.93453465981E+03  0.00000000000E+00 0.  1.
          6    1    1    2  501    0  0.70141227063E+02  0.55764271540E+02 -0.13951436364E+03  0.23963034736E+03  0.17300000000E+03 0.  1.
         -6    1    1    2    0  503 -0.70141227063E+02 -0.55764271540E+02 -0.73222392631E+03  0.75770068231E+03  0.17300000000E+03 0.  1.
<mgrwt>
<rscale>  2 0.19482927E+03</rscale>
<asrwt>0</asrwt>
<pdfrwt beam="1">  1       21 0.96609802E-02 0.19482927E+03</pdfrwt>
<pdfrwt beam="2">  1       21 0.14377456E+00 0.19482927E+03</pdfrwt>
<totfact> 0.28762388E+04</totfact>
</mgrwt>
</event>
<event>
 4    1  0.4621995E+000  0.1856031E+03  0.7546771E-02  0.1162488E+00
         21   -1    0    0  503  502  0.00000000000E+00  0.00000000000E+00  0.14627762689E+03  0.14627762689E+03  0.00000000000E+00 0.  1.
         21   -1    0    0  501  503 -0.00000000000E+00 -0.00000000000E+00 -0.98498305887E+03  0.98498305887E+03  0.00000000000E+00 0.  1.
          6    1    1    2  501    0  0.64431771350E+02  0.19184611897E+02 -0.91275253781E+03  0.93143206826E+03  0.17300000000E+03 0.  1.
         -6    1    1    2    0  502 -0.64431771350E+02 -0.19184611897E+02  0.74047105836E+02  0.19982861751E+03  0.17300000000E+03 0.  1.
<mgrwt>
<rscale>  2 0.18560308E+03</rscale>
<asrwt>0</asrwt>
<pdfrwt beam="1">  1       21 0.22504249E-01 0.18560308E+03</pdfrwt>
<pdfrwt beam="2">  1       21 0.15153586E+00 0.18560308E+03</pdfrwt>
<totfact> 0.54138249E+03</totfact>
</mgrwt>
</event>
<event>
 4    1  0.4621995E+000  0.1816826E+03  0.7546771E-02  0.1166184E+00
         21   -1    0    0  503  502  0.00000000000E+00  0.00000000000E+00  0.23475460224E+02  0.23475460224E+02  0.00000000000E+00 0.  1.
         21   -1    0    0  501  503 -0.00000000000E+00 -0.00000000000E+00 -0.15577517369E+04  0.15577517369E+04  0.00000000000E+00 0.  1.
          6    1    1    2  501    0  0.49905184272E+02 -0.24270347406E+02 -0.10138301941E+04  0.10299806987E+04  0.17300000000E+03 0.  1.
         -6    1    1    2    0  502 -0.49905184272E+02  0.24270347406E+02 -0.52044608258E+03  0.55124649845E+03  0.17300000000E+03 0.  1.
<mgrwt>
<rscale>  2 0.18168263E+03</rscale>
<asrwt>0</asrwt>
<pdfrwt beam="1">  1       21 0.36116085E-02 0.18168263E+03</pdfrwt>
<pdfrwt beam="2">  1       21 0.23965416E+00 0.18168263E+03</pdfrwt>
<totfact> 0.35895748E+04</totfact>
</mgrwt>
</event>
<event>
 4    1  0.4621995E+000  0.1761911E+03  0.7546771E-02  0.1171541E+00
         21   -1    0    0  501  502  0.00000000000E+00  0.00000000000E+00  0.56172671373E+02  0.56172671373E+02  0.00000000000E+00 0.  1.
         21   -1    0    0  502  503 -0.00000000000E+00 -0.00000000000E+00 -0.64971843636E+03  0.64971843636E+03  0.00000000000E+00 0.  1.
          6    1    1    2  501    0  0.24975422048E+02 -0.22147670586E+02 -0.16034426613E+03  0.23823008773E+03  0.17300000000E+03 0.  1.
         -6    1    1    2    0  503 -0.24975422048E+02  0.22147670586E+02 -0.43320149885E+03  0.46766102000E+03  0.17300000000E+03 0.  1.
<mgrwt>
<rscale>  2 0.17619106E+03</rscale>
<asrwt>0</asrwt>
<pdfrwt beam="1">  1       21 0.86419488E-02 0.17619106E+03</pdfrwt>
<pdfrwt beam="2">  1       21 0.99956690E-01 0.17619106E+03</pdfrwt>
<totfact> 0.86808233E+04</totfact>
</mgrwt>
</event>
<event>
 4    1  0.4621995E+000  0.2223511E+03  0.7546771E-02  0.1132142E+00
         21   -1    0    0  501  502  0.00000000000E+00  0.00000000000E+00  0.29970301459E+03  0.29970301459E+03  0.00000000000E+00 0.  1.
         21   -1    0    0  502  503 -0.00000000000E+00 -0.00000000000E+00 -0.17636410302E+03  0.17636410302E+03  0.00000000000E+00 0. -1.
          6    1    1    2  501    0 -0.99545025635E+02 -0.97988675273E+02  0.12218977023E+03  0.25371309103E+03  0.17300000000E+03 0.  1.
         -6    1    1    2    0  503  0.99545025635E+02  0.97988675273E+02  0.11491413459E+01  0.22235402658E+03  0.17300000000E+03 0. -1.
<mgrwt>
<rscale>  2 0.22235106E+03</rscale>
<asrwt>0</asrwt>
<pdfrwt beam="1">  1       21 0.46108156E-01 0.22235106E+03</pdfrwt>
<pdfrwt beam="2">  1       21 0.27132939E-01 0.22235106E+03</pdfrwt>
<totfact> 0.57569937E+04</totfact>
</mgrwt>
</event>
<event>
 4    1  0.4621995E+000  0.1899278E+03  0.7546771E-02  0.1158526E+00
         21   -1    0    0  503  502  0.00000000000E+00  0.00000000000E+00  0.54707671275E+03  0.54707671275E+03  0.00000000000E+00 0.  1.
         21   -1    0    0  501  503 -0.00000000000E+00 -0.00000000000E+00 -0.74540438641E+02  0.74540438641E+02  0.00000000000E+00 0.  1.
          6    1    1    2  501    0  0.75667379711E+02  0.20445377517E+02  0.13067528936E+03  0.23053979497E+03  0.17300000000E+03 0.  1.
         -6    1    1    2    0  502 -0.75667379711E+02 -0.20445377517E+02  0.34186098475E+03  0.39107735643E+03  0.17300000000E+03 0.  1.
<mgrwt>
<rscale>  2 0.18992779E+03</rscale>
<asrwt>0</asrwt>
<pdfrwt beam="1">  1       21 0.84165645E-01 0.18992779E+03</pdfrwt>
<pdfrwt beam="2">  1       21 0.11467760E-01 0.18992779E+03</pdfrwt>
<totfact> 0.78082097E+04</totfact>
</mgrwt>
</event>
<event>
 4    1  0.4621995E+000  0.2011629E+03  0.7546771E-02  0.1148762E+00
         21   -1    0    0  501  502  0.00000000000E+00  0.00000000000E+00  0.62683106362E+03  0.62683106362E+03  0.00000000000E+00 0. -1.
         21   -1    0    0  502  503 -0.00000000000E+00 -0.00000000000E+00 -0.10064325560E+03  0.10064325560E+03  0.00000000000E+00 0. -1.
          6    1    1    2  501    0 -0.89956227263E+02 -0.49450723799E+02  0.48089731123E+03  0.52127605053E+03  0.17300000000E+03 0. -1.
         -6    1    1    2    0  503  0.89956227263E+02  0.49450723799E+02  0.45290496789E+02  0.20619826868E+03  0.17300000000E+03 0. -1.
<mgrwt>
<rscale>  2 0.20116286E+03</rscale>
<asrwt>0</asrwt>
<pdfrwt beam="1">  1       21 0.96435546E-01 0.20116286E+03</pdfrwt>
<pdfrwt beam="2">  1       21 0.15483578E-01 0.20116286E+03</pdfrwt>
<totfact> 0.32953691E+04</totfact>
</mgrwt>
</event>
<event>
 4    1  0.4621995E+000  0.2492031E+03  0.7546771E-02  0.1113809E+00
         21   -1    0    0  501  502  0.00000000000E+00  0.00000000000E+00  0.57874282216E+03  0.57874282216E+03  0.00000000000E+00 0. -1.
         21   -1    0    0  502  503 -0.00000000000E+00 -0.00000000000E+00 -0.11848487653E+03  0.11848487653E+03  0.00000000000E+00 0. -1.
          6    1    1    2  501    0  0.13090321395E+03 -0.12262756495E+03  0.33721329397E+03  0.41930296533E+03  0.17300000000E+03 0. -1.
         -6    1    1    2    0  503 -0.13090321395E+03  0.12262756495E+03  0.12304465166E+03  0.27792473335E+03  0.17300000000E+03 0. -1.
<mgrwt>
<rscale>  2 0.24920307E+03</rscale>
<asrwt>0</asrwt>
<pdfrwt beam="1">  1       21 0.89037356E-01 0.24920307E+03</pdfrwt>
<pdfrwt beam="2">  1       21 0.18228443E-01 0.24920307E+03</pdfrwt>
<totfact> 0.28685691E+04</totfact>
</mgrwt>
</event>
<event>
 4    1  0.4621995E+000  0.2103388E+03  0.7546771E-02  0.1141298E+00
         21   -1    0    0  503  502  0.00000000000E+00  0.00000000000E+00  0.16294077996E+02  0.16294077996E+02  0.00000000000E+00 0. -1.
         21   -1    0    0  501  503 -0.00000000000E+00 -0.00000000000E+00 -0.33811364811E+04  0.33811364811E+04  0.00000000000E+00 0. -1.
          6    1    1    2  501    0  0.11615922627E+03  0.28643572432E+02 -0.24362814550E+04  0.24453445049E+04  0.17300000000E+03 0. -1.
         -6    1    1    2    0  502 -0.11615922627E+03 -0.28643572432E+02 -0.92856094820E+03  0.95208605420E+03  0.17300000000E+03 0. -1.
<mgrwt>
<rscale>  2 0.21033882E+03</rscale>
<asrwt>0</asrwt>
<pdfrwt beam="1">  1       21 0.25067793E-02 0.21033882E+03</pdfrwt>
<pdfrwt beam="2">  1       21 0.52017524E+00 0.21033882E+03</pdfrwt>
<totfact> 0.11262185E+03</totfact>
</mgrwt>
</event>
<event>
 4    1  0.4621995E+000  0.1775954E+03  0.7546771E-02  0.1170151E+00
         21   -1    0    0  503  502  0.00000000000E+00  0.00000000000E+00  0.11470901600E+03  0.11470901600E+03  0.00000000000E+00 0. -1.
         21   -1    0    0  501  503 -0.00000000000E+00 -0.00000000000E+00 -0.27627737871E+03  0.27627737871E+03  0.00000000000E+00 0. -1.
          6    1    1    2  501    0  0.25003160844E+02 -0.31400053243E+02 -0.67272747794E+02  0.18990983121E+03  0.17300000000E+03 0. -1.
         -6    1    1    2    0  502 -0.25003160844E+02  0.31400053243E+02 -0.94295614913E+02  0.20107656350E+03  0.17300000000E+03 0. -1.
<mgrwt>
<rscale>  2 0.17759539E+03</rscale>
<asrwt>0</asrwt>
<pdfrwt beam="1">  1       21 0.17647541E-01 0.17759539E+03</pdfrwt>
<pdfrwt beam="2">  1       21 0.42504212E-01 0.17759539E+03</pdfrwt>
<totfact> 0.15582079E+05</totfact>
</mgrwt>
</event>
<event>
 4    1  0.4621995E+000  0.1785520E+03  0.7546771E-02  0.1169212E+00
         21   -1    0    0  501  502  0.00000000000E+00  0.00000000000E+00  0.99066161342E+02  0.99066161342E+02  0.00000000000E+00 0.  1.
         21   -1    0    0  502  503 -0.00000000000E+00 -0.00000000000E+00 -0.33630213092E+03  0.33630213092E+03  0.00000000000E+00 0.  1.
          6    1    1    2  501    0  0.37307355589E+02 -0.23663487212E+02 -0.16380149928E+03  0.24230503621E+03  0.17300000000E+03 0.  1.
         -6    1    1    2    0  503 -0.37307355589E+02  0.23663487212E+02 -0.73434470299E+02  0.19306325605E+03  0.17300000000E+03 0.  1.
<mgrwt>
<rscale>  2 0.17855195E+03</rscale>
<asrwt>0</asrwt>
<pdfrwt beam="1">  1       21 0.15240948E-01 0.17855195E+03</pdfrwt>
<pdfrwt beam="2">  1       21 0.51738789E-01 0.17855195E+03</pdfrwt>
<totfact> 0.13583453E+05</totfact>
</mgrwt>
</event>
<event>
 4    1  0.4621995E+000  0.2671597E+03  0.7546771E-02  0.1102916E+00
         21   -1    0    0  501  502  0.00000000000E+00  0.00000000000E+00  0.10297624758E+03  0.10297624758E+03  0.00000000000E+00 0.  1.
         21   -1    0    0  502  503 -0.00000000000E+00 -0.00000000000E+00 -0.91029147232E+03  0.91029147232E+03  0.00000000000E+00 0. -1.
          6    1    1    2  501    0  0.18692045485E+03  0.80659975247E+02 -0.15619404317E+03  0.30946868528E+03  0.17300000000E+03 0.  1.
         -6    1    1    2    0  503 -0.18692045485E+03 -0.80659975247E+02 -0.65112118156E+03  0.70379903462E+03  0.17300000000E+03 0. -1.
<mgrwt>
<rscale>  2 0.26715967E+03</rscale>
<asrwt>0</asrwt>
<pdfrwt beam="1">  1       21 0.15842500E-01 0.26715967E+03</pdfrwt>
<pdfrwt beam="2">  1       21 0.14004484E+00 0.26715967E+03</pdfrwt>
<totfact> 0.12113466E+04</totfact>
</mgrwt>
</event>
<event>
 4    1  0.4621995E+000  0.2322335E+03  0.7546771E-02  0.1125078E+00
         21   -1    0    0  503  502  0.00000000000E+00  0.00000000000E+00  0.98728013615E+03  0.98728013615E+03  0.00000000000E+00 0. -1.
         21   -1    0    0  501  503 -0.00000000000E+00 -0.00000000000E+00 -0.13735956320E+03  0.13735956320E+03  0.00000000000E+00 0.  1.
          6    1    1    2  501    0 -0.14056473603E+03  0.65153278303E+02 -0.11446563039E+02  0.23251541560E+03  0.17300000000E+03 0.  1.
         -6    1    1    2    0  502  0.14056473603E+03 -0.65153278303E+02  0.86136713599E+03  0.89212428375E+03  0.17300000000E+03 0.  1.
<mgrwt>
<rscale>  2 0.23223349E+03</rscale>
<asrwt>0</asrwt>
<pdfrwt beam="1">  1       21 0.15188925E+00 0.23223349E+03</pdfrwt>
<pdfrwt beam="2">  1       21 0.21132241E-01 0.23223349E+03</pdfrwt>
<totfact> 0.58394388E+03</totfact>
</mgrwt>
</event>
<event>
 4    1  0.4621995E+000  0.2664507E+03  0.7546771E-02  0.1103328E+00
         21   -1    0    0  501  502  0.00000000000E+00  0.00000000000E+00  0.77803591379E+03  0.77803591379E+03  0.00000000000E+00 0.  1.
         21   -1    0    0  502  503 -0.00000000000E+00 -0.00000000000E+00 -0.14639591082E+03  0.14639591082E+03  0.00000000000E+00 0. -1.
          6    1    1    2  501    0  0.14451362372E+03 -0.14206615578E+03  0.59950479029E+03  0.65605028286E+03  0.17300000000E+03 0.  1.
         -6    1    1    2    0  503 -0.14451362372E+03  0.14206615578E+03  0.32135212673E+02  0.26838154175E+03  0.17300000000E+03 0. -1.
<mgrwt>
<rscale>  2 0.26645071E+03</rscale>
<asrwt>0</asrwt>
<pdfrwt beam="1">  1       21 0.11969783E+00 0.26645071E+03</pdfrwt>
<pdfrwt beam="2">  1       21 0.22522448E-01 0.26645071E+03</pdfrwt>
<totfact> 0.93631728E+03</totfact>
</mgrwt>
</event>
<event>
 4    1  0.4621995E+000  0.2006850E+03  0.7546771E-02  0.1149162E+00
         21   -1    0    0  501  502  0.00000000000E+00  0.00000000000E+00  0.69003011228E+02  0.69003011228E+02  0.00000000000E+00 0. -1.
         21   -1    0    0  502  503 -0.00000000000E+00 -0.00000000000E+00 -0.58910070894E+03  0.58910070894E+03  0.00000000000E+00 0. -1.
          6    1    1    2  501    0  0.10078568074E+03 -0.13700595227E+02 -0.29166459794E+03  0.35403770625E+03  0.17300000000E+03 0. -1.
         -6    1    1    2    0  503 -0.10078568074E+03  0.13700595227E+02 -0.22843309977E+03  0.30406601392E+03  0.17300000000E+03 0. -1.
<mgrwt>
<rscale>  2 0.20068498E+03</rscale>
<asrwt>0</asrwt>
<pdfrwt beam="1">  1       21 0.10615848E-01 0.20068498E+03</pdfrwt>
<pdfrwt beam="2">  1       21 0.90630874E-01 0.20068498E+03</pdfrwt>
<totfact> 0.75183152E+04</totfact>
</mgrwt>
</event>
<event>
 4    1  0.4621995E+000  0.1958384E+03  0.7546771E-02  0.1153298E+00
         21   -1    0    0  501  502  0.00000000000E+00  0.00000000000E+00  0.42288793900E+03  0.42288793900E+03  0.00000000000E+00 0. -1.
         21   -1    0    0  502  503 -0.00000000000E+00 -0.00000000000E+00 -0.20725992406E+03  0.20725992406E+03  0.00000000000E+00 0. -1.
          6    1    1    2  501    0  0.66361084004E+02 -0.63402462737E+02  0.34410318962E+03  0.39592887096E+03  0.17300000000E+03 0. -1.
         -6    1    1    2    0  503 -0.66361084004E+02  0.63402462737E+02 -0.12847517469E+03  0.23421899210E+03  0.17300000000E+03 0. -1.
<mgrwt>
<rscale>  2 0.19583837E+03</rscale>
<asrwt>0</asrwt>
<pdfrwt beam="1">  1       21 0.65059682E-01 0.19583837E+03</pdfrwt>
<pdfrwt beam="2">  1       21 0.31886142E-01 0.19583837E+03</pdfrwt>
<totfact> 0.20534212E+04</totfact>
</mgrwt>
</event>
<event>
 4    1  0.4621995E+000  0.2632561E+03  0.7546771E-02  0.1105203E+00
         21   -1    0    0  503  502  0.00000000000E+00  0.00000000000E+00  0.37759754429E+03  0.37759754429E+03  0.00000000000E+00 0.  1.
         21   -1    0    0  501  503 -0.00000000000E+00 -0.00000000000E+00 -0.39891653605E+03  0.39891653605E+03  0.00000000000E+00 0.  1.
          6    1    1    2  501    0 -0.46062357706E+01 -0.19837731887E+03 -0.29594439416E+03  0.39608946273E+03  0.17300000000E+03 0.  1.
         -6    1    1    2    0  502  0.46062357706E+01  0.19837731887E+03  0.27462540239E+03  0.38042461762E+03  0.17300000000E+03 0.  1.
<mgrwt>
<rscale>  2 0.26325611E+03</rscale>
<asrwt>0</asrwt>
<pdfrwt beam="1">  1       21 0.58091930E-01 0.26325611E+03</pdfrwt>
<pdfrwt beam="2">  1       21 0.61371775E-01 0.26325611E+03</pdfrwt>
<totfact> 0.65456962E+03</totfact>
</mgrwt>
</event>
<event>
 4    1  0.4621995E+000  0.2092954E+03  0.7546771E-02  0.1142125E+00
         21   -1    0    0  501  502  0.00000000000E+00  0.00000000000E+00  0.37301169920E+03  0.37301169920E+03  0.00000000000E+00 0.  1.
         21   -1    0    0  502  503 -0.00000000000E+00 -0.00000000000E+00 -0.12263615852E+03  0.12263615852E+03  0.00000000000E+00 0.  1.
          6    1    1    2  501    0  0.67225978879E+02 -0.96727654894E+02  0.17622539366E+03  0.27360548392E+03  0.17300000000E+03 0.  1.
         -6    1    1    2    0  503 -0.67225978879E+02  0.96727654894E+02  0.74150147015E+02  0.22204237379E+03  0.17300000000E+03 0.  1.
<mgrwt>
<rscale>  2 0.20929542E+03</rscale>
<asrwt>0</asrwt>
<pdfrwt beam="1">  1       21 0.57386415E-01 0.20929542E+03</pdfrwt>
<pdfrwt beam="2">  1       21 0.18867102E-01 0.20929542E+03</pdfrwt>
<totfact> 0.72804533E+04</totfact>
</mgrwt>
</event>
<event>
 4    1  0.4621995E+000  0.1795663E+03  0.7546771E-02  0.1168223E+00
         21   -1    0    0  501  502  0.00000000000E+00  0.00000000000E+00  0.33027141580E+02  0.33027141580E+02  0.00000000000E+00 0.  1.
         21   -1    0    0  502  503 -0.00000000000E+00 -0.00000000000E+00 -0.11171163318E+04  0.11171163318E+04  0.00000000000E+00 0.  1.
          6    1    1    2  501    0 -0.34570407137E+02  0.33465578455E+02 -0.33786364216E+03  0.38261716988E+03  0.17300000000E+03 0.  1.
         -6    1    1    2    0  503  0.34570407137E+02 -0.33465578455E+02 -0.74622554806E+03  0.76752630350E+03  0.17300000000E+03 0.  1.
<mgrwt>
<rscale>  2 0.17956631E+03</rscale>
<asrwt>0</asrwt>
<pdfrwt beam="1">  1       21 0.50810994E-02 0.17956631E+03</pdfrwt>
<pdfrwt beam="2">  1       21 0.17186403E+00 0.17956631E+03</pdfrwt>
<totfact> 0.54618440E+04</totfact>
</mgrwt>
</event>
<event>
 4    1  0.4621995E+000  0.2535142E+03  0.7546771E-02  0.1111104E+00
         21   -1    0    0  501  502  0.00000000000E+00  0.00000000000E+00  0.60717880248E+03  0.60717880248E+03  0.00000000000E+00 0. -1.
         21   -1    0    0  502  503 -0.00000000000E+00 -0.00000000000E+00 -0.16062653077E+03  0.16062653077E+03  0.00000000000E+00 0. -1.
          6    1    1    2  501    0  0.81508355447E+02 -0.16642367334E+03 -0.91194878776E+00  0.25351584311E+03  0.17300000000E+03 0. -1.
         -6    1    1    2    0  503 -0.81508355447E+02  0.16642367334E+03  0.44746422049E+03  0.51428949015E+03  0.17300000000E+03 0. -1.
<mgrwt>
<rscale>  2 0.25351420E+03</rscale>
<asrwt>0</asrwt>
<pdfrwt beam="1">  1       21 0.93412122E-01 0.25351420E+03</pdfrwt>
<pdfrwt beam="2">  1       21 0.24711774E-01 0.25351420E+03</pdfrwt>
<totfact> 0.14394895E+04</totfact>
</mgrwt>
</event>
<event>
 4    1  0.4621995E+000  0.1794062E+03  0.7546771E-02  0.1168379E+00
         21   -1    0    0  503  502  0.00000000000E+00  0.00000000000E+00  0.17976763034E+03  0.17976763034E+03  0.00000000000E+00 0.  1.
         21   -1    0    0  501  503 -0.00000000000E+00 -0.00000000000E+00 -0.20867623985E+03  0.20867623985E+03  0.00000000000E+00 0.  1.
          6    1    1    2  501    0  0.23923863380E+02 -0.41051563619E+02 -0.87641170954E+02  0.19966861787E+03  0.17300000000E+03 0.  1.
         -6    1    1    2    0  502 -0.23923863380E+02  0.41051563619E+02  0.58732561444E+02  0.18877525232E+03  0.17300000000E+03 0.  1.
<mgrwt>
<rscale>  2 0.17940619E+03</rscale>
<asrwt>0</asrwt>
<pdfrwt beam="1">  1       21 0.27656559E-01 0.17940619E+03</pdfrwt>
<pdfrwt beam="2">  1       21 0.32104037E-01 0.17940619E+03</pdfrwt>
<totfact> 0.11699633E+05</totfact>
</mgrwt>
</event>
<event>
 4    1  0.4621995E+000  0.1867098E+03  0.7546771E-02  0.1161463E+00
         21   -1    0    0  503  502  0.00000000000E+00  0.00000000000E+00  0.58053389285E+02  0.58053389285E+02  0.00000000000E+00 0.  1.
         21   -1    0    0  501  503 -0.00000000000E+00 -0.00000000000E+00 -0.62392320282E+03  0.62392320282E+03  0.00000000000E+00 0.  1.
          6    1    1    2  501    0  0.65781182872E+02 -0.24584132749E+02 -0.34901635229E+03  0.39581934991E+03  0.17300000000E+03 0.  1.
         -6    1    1    2    0  502 -0.65781182872E+02  0.24584132749E+02 -0.21685346125E+03  0.28615724219E+03  0.17300000000E+03 0.  1.
<mgrwt>
<rscale>  2 0.18670978E+03</rscale>
<asrwt>0</asrwt>
<pdfrwt beam="1">  1       21 0.89312909E-02 0.18670978E+03</pdfrwt>
<pdfrwt beam="2">  1       21 0.95988182E-01 0.18670978E+03</pdfrwt>
<totfact> 0.89738170E+04</totfact>
</mgrwt>
</event>
<event>
 4    1  0.4621995E+000  0.2356896E+03  0.7546771E-02  0.1122698E+00
         21   -1    0    0  501  502  0.00000000000E+00  0.00000000000E+00  0.64713529220E+03  0.64713529220E+03  0.00000000000E+00 0.  1.
         21   -1    0    0  502  503 -0.00000000000E+00 -0.00000000000E+00 -0.16030362313E+03  0.16030362313E+03  0.00000000000E+00 0.  1.
          6    1    1    2  501    0 -0.84123828456E+02  0.13617549762E+03  0.51857398824E+03  0.56962142335E+03  0.17300000000E+03 0.  1.
         -6    1    1    2    0  503  0.84123828456E+02 -0.13617549762E+03 -0.31742319165E+02  0.23781749198E+03  0.17300000000E+03 0.  1.
<mgrwt>
<rscale>  2 0.23568959E+03</rscale>
<asrwt>0</asrwt>
<pdfrwt beam="1">  1       21 0.99559274E-01 0.23568959E+03</pdfrwt>
<pdfrwt beam="2">  1       21 0.24662096E-01 0.23568959E+03</pdfrwt>
<totfact> 0.12549100E+04</totfact>
</mgrwt>
</event>
<event>
 4    1  0.4621995E+000  0.1748644E+03  0.7546771E-02  0.1172868E+00
         21   -1    0    0  501  502  0.00000000000E+00  0.00000000000E+00  0.46331408021E+02  0.46331408021E+02  0.00000000000E+00 0.  1.
         21   -1    0    0  502  503 -0.00000000000E+00 -0.00000000000E+00 -0.75948913107E+03  0.75948913107E+03  0.00000000000E+00 0.  1.
          6    1    1    2  501    0 -0.10499472452E+02 -0.23201793720E+02 -0.21073426273E+03  0.27383661487E+03  0.17300000000E+03 0.  1.
         -6    1    1    2    0  503  0.10499472452E+02  0.23201793720E+02 -0.50242346032E+03  0.53198392422E+03  0.17300000000E+03 0.  1.
<mgrwt>
<rscale>  2 0.17486441E+03</rscale>
<asrwt>0</asrwt>
<pdfrwt beam="1">  1       21 0.71279088E-02 0.17486441E+03</pdfrwt>
<pdfrwt beam="2">  1       21 0.11684448E+00 0.17486441E+03</pdfrwt>
<totfact> 0.83348176E+04</totfact>
</mgrwt>
</event>
<event>
 4    1  0.4621995E+000  0.1821563E+03  0.7546771E-02  0.1165732E+00
         21   -1    0    0  501  502  0.00000000000E+00  0.00000000000E+00  0.50604436060E+03  0.50604436060E+03  0.00000000000E+00 0. -1.
         21   -1    0    0  502  503 -0.00000000000E+00 -0.00000000000E+00 -0.72872394246E+02  0.72872394246E+02  0.00000000000E+00 0. -1.
          6    1    1    2  501    0  0.54387192774E+02 -0.17145508670E+02  0.30822076814E+03  0.35802371028E+03  0.17300000000E+03 0. -1.
         -6    1    1    2    0  503 -0.54387192774E+02  0.17145508670E+02  0.12495119821E+03  0.22089304457E+03  0.17300000000E+03 0. -1.
<mgrwt>
<rscale>  2 0.18215635E+03</rscale>
<asrwt>0</asrwt>
<pdfrwt beam="1">  1       21 0.77852976E-01 0.18215635E+03</pdfrwt>
<pdfrwt beam="2">  1       21 0.11211138E-01 0.18215635E+03</pdfrwt>
<totfact> 0.97288050E+04</totfact>
</mgrwt>
</event>
<event>
 4    1  0.4621995E+000  0.1822942E+03  0.7546771E-02  0.1165601E+00
         21   -1    0    0  503  502  0.00000000000E+00  0.00000000000E+00  0.65513483704E+03  0.65513483704E+03  0.00000000000E+00 0.  1.
         21   -1    0    0  501  503 -0.00000000000E+00 -0.00000000000E+00 -0.51563077709E+02  0.51563077709E+02  0.00000000000E+00 0.  1.
          6    1    1    2  501    0 -0.32068596785E+02 -0.47684153236E+02  0.25671557495E+03  0.31485561737E+03  0.17300000000E+03 0.  1.
         -6    1    1    2    0  502  0.32068596785E+02  0.47684153236E+02  0.34685618438E+03  0.39184229737E+03  0.17300000000E+03 0.  1.
<mgrwt>
<rscale>  2 0.18229419E+03</rscale>
<asrwt>0</asrwt>
<pdfrwt beam="1">  1       21 0.10078997E+00 0.18229419E+03</pdfrwt>
<pdfrwt beam="2">  1       21 0.79327816E-02 0.18229419E+03</pdfrwt>
<totfact> 0.98540996E+04</totfact>
</mgrwt>
</event>
<event>
 4    1  0.4621995E+000  0.1870496E+03  0.7546771E-02  0.1161150E+00
         21   -1    0    0  503  502  0.00000000000E+00  0.00000000000E+00  0.33703811204E+03  0.33703811204E+03  0.00000000000E+00 0.  1.
         21   -1    0    0  501  503 -0.00000000000E+00 -0.00000000000E+00 -0.10467276690E+03  0.10467276690E+03  0.00000000000E+00 0.  1.
          6    1    1    2  501    0 -0.71052647854E+02 -0.31768194466E+01  0.13624601423E+03  0.23140991193E+03  0.17300000000E+03 0.  1.
         -6    1    1    2    0  502  0.71052647854E+02  0.31768194466E+01  0.96119330914E+02  0.21030096701E+03  0.17300000000E+03 0.  1.
<mgrwt>
<rscale>  2 0.18704965E+03</rscale>
<asrwt>0</asrwt>
<pdfrwt beam="1">  1       21 0.51852017E-01 0.18704965E+03</pdfrwt>
<pdfrwt beam="2">  1       21 0.16103503E-01 0.18704965E+03</pdfrwt>
<totfact> 0.12192947E+05</totfact>
</mgrwt>
</event>
<event>
 4    1  0.4621995E+000  0.1834050E+03  0.7546771E-02  0.1164548E+00
         21   -1    0    0  503  502  0.00000000000E+00  0.00000000000E+00  0.68512483495E+03  0.68512483495E+03  0.00000000000E+00 0.  1.
         21   -1    0    0  501  503 -0.00000000000E+00 -0.00000000000E+00 -0.88143505139E+02  0.88143505139E+02  0.00000000000E+00 0.  1.
          6    1    1    2  501    0 -0.60274201799E+02  0.86842449046E+01  0.41156405606E+02  0.18796607469E+03  0.17300000000E+03 0.  1.
         -6    1    1    2    0  502  0.60274201799E+02 -0.86842449046E+01  0.55582492421E+03  0.58530226540E+03  0.17300000000E+03 0.  1.
<mgrwt>
<rscale>  2 0.18340500E+03</rscale>
<asrwt>0</asrwt>
<pdfrwt beam="1">  1       21 0.10540382E+00 0.18340500E+03</pdfrwt>
<pdfrwt beam="2">  1       21 0.13560540E-01 0.18340500E+03</pdfrwt>
<totfact> 0.34273304E+04</totfact>
</mgrwt>
</event>
<event>
 4    1  0.4621995E+000  0.2419628E+03  0.7546771E-02  0.1118492E+00
         21   -1    0    0  501  502  0.00000000000E+00  0.00000000000E+00  0.83519845388E+03  0.83519845388E+03  0.00000000000E+00 0. -1.
         21   -1    0    0  502  503 -0.00000000000E+00 -0.00000000000E+00 -0.34413385331E+03  0.34413385331E+03  0.00000000000E+00 0.  1.
          6    1    1    2  501    0  0.16389200302E+03 -0.41909639137E+02  0.77172636311E+03  0.80876917970E+03  0.17300000000E+03 0. -1.
         -6    1    1    2    0  503 -0.16389200302E+03  0.41909639137E+02 -0.28066176254E+03  0.37056312749E+03  0.17300000000E+03 0.  1.
<mgrwt>
<rscale>  2 0.24196282E+03</rscale>
<asrwt>0</asrwt>
<pdfrwt beam="1">  1       21 0.12849207E+00 0.24196282E+03</pdfrwt>
<pdfrwt beam="2">  1       21 0.52943670E-01 0.24196282E+03</pdfrwt>
<totfact> 0.14402215E+03</totfact>
</mgrwt>
</event>
<event>
 4    1  0.4621995E+000  0.1772312E+03  0.7546771E-02  0.1170510E+00
         21   -1    0    0  501  502  0.00000000000E+00  0.00000000000E+00  0.26754317170E+03  0.26754317170E+03  0.00000000000E+00 0.  1.
         21   -1    0    0  502  503 -0.00000000000E+00 -0.00000000000E+00 -0.17540386500E+03  0.17540386500E+03  0.00000000000E+00 0.  1.
          6    1    1    2  501    0  0.37336910281E+02  0.93727787099E+01  0.17342352255E+03  0.24796494112E+03  0.17300000000E+03 0.  1.
         -6    1    1    2    0  503 -0.37336910281E+02 -0.93727787099E+01 -0.81284215859E+02  0.19498209558E+03  0.17300000000E+03 0.  1.
<mgrwt>
<rscale>  2 0.17723119E+03</rscale>
<asrwt>0</asrwt>
<pdfrwt beam="1">  1       21 0.41160488E-01 0.17723119E+03</pdfrwt>
<pdfrwt beam="2">  1       21 0.26985210E-01 0.17723119E+03</pdfrwt>
<totfact> 0.74853038E+04</totfact>
</mgrwt>
</event>
<event>
 4    1  0.4621995E+000  0.2812209E+03  0.7546771E-02  0.1095024E+00
         21   -1    0    0  503  502  0.00000000000E+00  0.00000000000E+00  0.80513369422E+03  0.80513369422E+03  0.00000000000E+00 0. -1.
         21   -1    0    0  501  503 -0.00000000000E+00 -0.00000000000E+00 -0.98651642254E+02  0.98651642254E+02  0.00000000000E+00 0.  1.
          6    1    1    2  501    0 -0.82432396641E+01  0.22155870216E+03  0.38291749158E+03  0.47509053333E+03  0.17300000000E+03 0. -1.
         -6    1    1    2    0  502  0.82432396641E+01 -0.22155870216E+03  0.32356456039E+03  0.42869480314E+03  0.17300000000E+03 0. -1.
<mgrwt>
<rscale>  2 0.28122093E+03</rscale>
<asrwt>0</asrwt>
<pdfrwt beam="1">  1       21 0.12386672E+00 0.28122093E+03</pdfrwt>
<pdfrwt beam="2">  1       21 0.15177176E-01 0.28122093E+03</pdfrwt>
<totfact> 0.17834509E+04</totfact>
</mgrwt>
</event>
<event>
 4    1  0.4621995E+000  0.1890225E+03  0.7546771E-02  0.1159346E+00
         21   -1    0    0  501  502  0.00000000000E+00  0.00000000000E+00  0.85100662542E+02  0.85100662542E+02  0.00000000000E+00 0. -1.
         21   -1    0    0  502  503 -0.00000000000E+00 -0.00000000000E+00 -0.50483371246E+03  0.50483371246E+03  0.00000000000E+00 0. -1.
          6    1    1    2  501    0 -0.27438813832E+02  0.71046655786E+02 -0.88843695282E+02  0.20886052282E+03  0.17300000000E+03 0. -1.
         -6    1    1    2    0  503  0.27438813832E+02 -0.71046655786E+02 -0.33088935463E+03  0.38107385218E+03  0.17300000000E+03 0. -1.
<mgrwt>
<rscale>  2 0.18902253E+03</rscale>
<asrwt>0</asrwt>
<pdfrwt beam="1">  1       21 0.13092410E-01 0.18902253E+03</pdfrwt>
<pdfrwt beam="2">  1       21 0.77666726E-01 0.18902253E+03</pdfrwt>
<totfact> 0.73902273E+04</totfact>
</mgrwt>
</event>
<event>
 4    1  0.4621995E+000  0.1808917E+03  0.7546771E-02  0.1166943E+00
         21   -1    0    0  501  502  0.00000000000E+00  0.00000000000E+00  0.77658727671E+02  0.77658727671E+02  0.00000000000E+00 0.  1.
         21   -1    0    0  502  503 -0.00000000000E+00 -0.00000000000E+00 -0.48916741976E+03  0.48916741976E+03  0.00000000000E+00 0.  1.
          6    1    1    2  501    0 -0.50059194172E+02  0.16937525300E+02 -0.10023077708E+03  0.20680428274E+03  0.17300000000E+03 0.  1.
         -6    1    1    2    0  503  0.50059194172E+02 -0.16937525300E+02 -0.31127791501E+03  0.36002186469E+03  0.17300000000E+03 0.  1.
<mgrwt>
<rscale>  2 0.18089169E+03</rscale>
<asrwt>0</asrwt>
<pdfrwt beam="1">  1       21 0.11947497E-01 0.18089169E+03</pdfrwt>
<pdfrwt beam="2">  1       21 0.75256524E-01 0.18089169E+03</pdfrwt>
<totfact> 0.93758896E+04</totfact>
</mgrwt>
</event>
<event>
 4    1  0.4621995E+000  0.1763799E+03  0.7546771E-02  0.1171353E+00
         21   -1    0    0  503  502  0.00000000000E+00  0.00000000000E+00  0.80203466005E+03  0.80203466005E+03  0.00000000000E+00 0. -1.
         21   -1    0    0  501  503 -0.00000000000E+00 -0.00000000000E+00 -0.21526533103E+03  0.21526533103E+03  0.00000000000E+00 0. -1.
          6    1    1    2  501    0  0.32112958954E+02  0.12232500110E+02 -0.16716408793E+03  0.24300968805E+03  0.17300000000E+03 0. -1.
         -6    1    1    2    0  502 -0.32112958954E+02 -0.12232500110E+02  0.75393341695E+03  0.77429030304E+03  0.17300000000E+03 0. -1.
<mgrwt>
<rscale>  2 0.17637992E+03</rscale>
<asrwt>0</asrwt>
<pdfrwt beam="1">  1       21 0.12338995E+00 0.17637992E+03</pdfrwt>
<pdfrwt beam="2">  1       21 0.33117744E-01 0.17637992E+03</pdfrwt>
<totfact> 0.43859187E+03</totfact>
</mgrwt>
</event>
<event>
 4    1  0.4621995E+000  0.2208787E+03  0.7546771E-02  0.1133230E+00
         21   -1    0    0  503  502  0.00000000000E+00  0.00000000000E+00  0.16514052746E+03  0.16514052746E+03  0.00000000000E+00 0. -1.
         21   -1    0    0  501  503 -0.00000000000E+00 -0.00000000000E+00 -0.35051822832E+03  0.35051822832E+03  0.00000000000E+00 0.  1.
          6    1    1    2  501    0  0.89249484209E+02  0.10436929539E+03 -0.19490219331E+03  0.29457475317E+03  0.17300000000E+03 0.  1.
         -6    1    1    2    0  502 -0.89249484209E+02 -0.10436929539E+03  0.95244924380E+01  0.22108400261E+03  0.17300000000E+03 0. -1.
<mgrwt>
<rscale>  2 0.22087875E+03</rscale>
<asrwt>0</asrwt>
<pdfrwt beam="1">  1       21 0.25406235E-01 0.22087875E+03</pdfrwt>
<pdfrwt beam="2">  1       21 0.53925881E-01 0.22087875E+03</pdfrwt>
<totfact> 0.47116996E+04</totfact>
</mgrwt>
</event>
<event>
 4    1  0.4621995E+000  0.2854780E+03  0.7546771E-02  0.1092734E+00
         21   -1    0    0  503  502  0.00000000000E+00  0.00000000000E+00  0.43064120317E+03  0.43064120317E+03  0.00000000000E+00 0. -1.
         21   -1    0    0  501  503 -0.00000000000E+00 -0.00000000000E+00 -0.26666005716E+03  0.26666005716E+03  0.00000000000E+00 0. -1.
          6    1    1    2  501    0  0.56178593402E+02 -0.22002881512E+03 -0.10586217407E+03  0.30447415940E+03  0.17300000000E+03 0. -1.
         -6    1    1    2    0  502 -0.56178593402E+02  0.22002881512E+03  0.26984332008E+03  0.39282710094E+03  0.17300000000E+03 0. -1.
<mgrwt>
<rscale>  2 0.28547804E+03</rscale>
<asrwt>0</asrwt>
<pdfrwt beam="1">  1       21 0.66252493E-01 0.28547804E+03</pdfrwt>
<pdfrwt beam="2">  1       21 0.41024624E-01 0.28547804E+03</pdfrwt>
<totfact> 0.11351628E+04</totfact>
</mgrwt>
</event>
<event>
 4    1  0.4621995E+000  0.2047168E+03  0.7546771E-02  0.1145819E+00
         21   -1    0    0  503  502  0.00000000000E+00  0.00000000000E+00  0.35456472074E+03  0.35456472074E+03  0.00000000000E+00 0.  1.
         21   -1    0    0  501  503 -0.00000000000E+00 -0.00000000000E+00 -0.23243732781E+03  0.23243732781E+03  0.00000000000E+00 0.  1.
          6    1    1    2  501    0 -0.52183312066E+02  0.96212718276E+02 -0.14469761999E+03  0.25069181567E+03  0.17300000000E+03 0.  1.
         -6    1    1    2    0  502  0.52183312066E+02 -0.96212718276E+02  0.26682501291E+03  0.33631023287E+03  0.17300000000E+03 0.  1.
<mgrwt>
<rscale>  2 0.20471684E+03</rscale>
<asrwt>0</asrwt>
<pdfrwt beam="1">  1       21 0.54548418E-01 0.20471684E+03</pdfrwt>
<pdfrwt beam="2">  1       21 0.35759589E-01 0.20471684E+03</pdfrwt>
<totfact> 0.23767582E+04</totfact>
</mgrwt>
</event>
<event>
 4    1  0.4621995E+000  0.1754766E+03  0.7546771E-02  0.1172254E+00
         21   -1    0    0  501  502  0.00000000000E+00  0.00000000000E+00  0.15705508718E+03  0.15705508718E+03  0.00000000000E+00 0.  1.
         21   -1    0    0  502  503 -0.00000000000E+00 -0.00000000000E+00 -0.41002018170E+03  0.41002018170E+03  0.00000000000E+00 0.  1.
          6    1    1    2  501    0  0.15053565593E+02  0.25227563401E+02  0.78339046378E+02  0.19216931592E+03  0.17300000000E+03 0.  1.
         -6    1    1    2    0  503 -0.15053565593E+02 -0.25227563401E+02 -0.33130414090E+03  0.37490595297E+03  0.17300000000E+03 0.  1.
<mgrwt>
<rscale>  2 0.17547661E+03</rscale>
<asrwt>0</asrwt>
<pdfrwt beam="1">  1       21 0.24162321E-01 0.17547661E+03</pdfrwt>
<pdfrwt beam="2">  1       21 0.63080027E-01 0.17547661E+03</pdfrwt>
<totfact> 0.37932389E+04</totfact>
</mgrwt>
</event>
<event>
 4    1  0.4621995E+000  0.1746041E+03  0.7546771E-02  0.1173130E+00
         21   -1    0    0  501  502  0.00000000000E+00  0.00000000000E+00  0.70219372073E+02  0.70219372073E+02  0.00000000000E+00 0. -1.
         21   -1    0    0  502  503 -0.00000000000E+00 -0.00000000000E+00 -0.49932644182E+03  0.49932644182E+03  0.00000000000E+00 0. -1.
          6    1    1    2  501    0  0.23605319019E+02  0.61666507512E+00 -0.11167818388E+03  0.20726458481E+03  0.17300000000E+03 0.  1.
         -6    1    1    2    0  503 -0.23605319019E+02 -0.61666507512E+00 -0.31742888587E+03  0.36228122908E+03  0.17300000000E+03 0.  1.
<mgrwt>
<rscale>  2 0.17460410E+03</rscale>
<asrwt>0</asrwt>
<pdfrwt beam="1">  1       21 0.10802980E-01 0.17460410E+03</pdfrwt>
<pdfrwt beam="2">  1       21 0.76819451E-01 0.17460410E+03</pdfrwt>
<totfact> 0.10739006E+05</totfact>
</mgrwt>
</event>
<event>
 4    1  0.4621995E+000  0.2498790E+03  0.7546771E-02  0.1113381E+00
         21   -1    0    0  503  502  0.00000000000E+00  0.00000000000E+00  0.67460785204E+02  0.67460785204E+02  0.00000000000E+00 0. -1.
         21   -1    0    0  501  503 -0.00000000000E+00 -0.00000000000E+00 -0.12622537377E+04  0.12622537377E+04  0.00000000000E+00 0.  1.
          6    1    1    2  501    0  0.18764769517E+02 -0.17932761118E+03 -0.94077077168E+03  0.97339054524E+03  0.17300000000E+03 0.  1.
         -6    1    1    2    0  502 -0.18764769517E+02  0.17932761118E+03 -0.25402218077E+03  0.35632397762E+03  0.17300000000E+03 0. -1.
<mgrwt>
<rscale>  2 0.24987899E+03</rscale>
<asrwt>0</asrwt>
<pdfrwt beam="1">  1       21 0.10378584E-01 0.24987899E+03</pdfrwt>
<pdfrwt beam="2">  1       21 0.19419285E+00 0.24987899E+03</pdfrwt>
<totfact> 0.10662718E+04</totfact>
</mgrwt>
</event>
<event>
 4    1  0.4621995E+000  0.1789466E+03  0.7546771E-02  0.1168826E+00
         21   -1    0    0  503  502  0.00000000000E+00  0.00000000000E+00  0.94882596589E+03  0.94882596589E+03  0.00000000000E+00 0. -1.
         21   -1    0    0  501  503 -0.00000000000E+00 -0.00000000000E+00 -0.45460467302E+02  0.45460467302E+02  0.00000000000E+00 0. -1.
          6    1    1    2  501    0 -0.32786160696E+02  0.31905266161E+02  0.19935141378E+03  0.26788591699E+03  0.17300000000E+03 0. -1.
         -6    1    1    2    0  502  0.32786160696E+02 -0.31905266161E+02  0.70401408481E+03  0.72640051621E+03  0.17300000000E+03 0. -1.
<mgrwt>
<rscale>  2 0.17894658E+03</rscale>
<asrwt>0</asrwt>
<pdfrwt beam="1">  1       21 0.14597321E+00 0.17894658E+03</pdfrwt>
<pdfrwt beam="2">  1       21 0.69939188E-02 0.17894658E+03</pdfrwt>
<totfact> 0.49005392E+04</totfact>
</mgrwt>
</event>
<event>
 4    1  0.4621995E+000  0.1900258E+03  0.7546771E-02  0.1158438E+00
         21   -1    0    0  503  502  0.00000000000E+00  0.00000000000E+00  0.19365163254E+04  0.19365163254E+04  0.00000000000E+00 0. -1.
         21   -1    0    0  501  503 -0.00000000000E+00 -0.00000000000E+00 -0.28947427006E+02  0.28947427006E+02  0.00000000000E+00 0. -1.
          6    1    1    2  501    0 -0.46482905646E+02  0.63404618470E+02  0.36756236105E+03  0.41377759173E+03  0.17300000000E+03 0. -1.
         -6    1    1    2    0  502  0.46482905646E+02 -0.63404618470E+02  0.15400065374E+04  0.15516861607E+04  0.17300000000E+03 0. -1.
<mgrwt>
<rscale>  2 0.19002580E+03</rscale>
<asrwt>0</asrwt>
<pdfrwt beam="1">  1       21 0.29792549E+00 0.19002580E+03</pdfrwt>
<pdfrwt beam="2">  1       21 0.44534518E-02 0.19002580E+03</pdfrwt>
<totfact> 0.11510191E+04</totfact>
</mgrwt>
</event>
<event>
 4    1  0.4621995E+000  0.2302665E+03  0.7546771E-02  0.1126452E+00
         21   -1    0    0  501  502  0.00000000000E+00  0.00000000000E+00  0.55782767169E+03  0.55782767169E+03  0.00000000000E+00 0.  1.
         21   -1    0    0  502  503 -0.00000000000E+00 -0.00000000000E+00 -0.65910972492E+03  0.65910972492E+03  0.00000000000E+00 0. -1.
          6    1    1    2  501    0  0.11654067146E+03 -0.97529065349E+02  0.51224588440E+03  0.56162130727E+03  0.17300000000E+03 0.  1.
         -6    1    1    2    0  503 -0.11654067146E+03  0.97529065349E+02 -0.61352793763E+03  0.65531608934E+03  0.17300000000E+03 0. -1.
<mgrwt>
<rscale>  2 0.23026647E+03</rscale>
<asrwt>0</asrwt>
<pdfrwt beam="1">  1       21 0.85819642E-01 0.23026647E+03</pdfrwt>
<pdfrwt beam="2">  1       21 0.10140150E+00 0.23026647E+03</pdfrwt>
<totfact> 0.89803275E+02</totfact>
</mgrwt>
</event>
<event>
 4    1  0.4621995E+000  0.1755768E+03  0.7546771E-02  0.1172154E+00
         21   -1    0    0  503  502  0.00000000000E+00  0.00000000000E+00  0.21661962622E+03  0.21661962622E+03  0.00000000000E+00 0. -1.
         21   -1    0    0  501  503 -0.00000000000E+00 -0.00000000000E+00 -0.15801378458E+03  0.15801378458E+03  0.00000000000E+00 0. -1.
          6    1    1    2  501    0 -0.20410987975E+02  0.21945709609E+02 -0.29747888141E+02  0.17807908201E+03  0.17300000000E+03 0.  1.
         -6    1    1    2    0  502  0.20410987975E+02 -0.21945709609E+02  0.88353729785E+02  0.19655432879E+03  0.17300000000E+03 0.  1.
<mgrwt>
<rscale>  2 0.17557683E+03</rscale>
<asrwt>0</asrwt>
<pdfrwt beam="1">  1       21 0.33326096E-01 0.17557683E+03</pdfrwt>
<pdfrwt beam="2">  1       21 0.24309813E-01 0.17557683E+03</pdfrwt>
<totfact> 0.13932596E+05</totfact>
</mgrwt>
</event>
<event>
 4    1  0.4621995E+000  0.2033042E+03  0.7546771E-02  0.1146981E+00
         21   -1    0    0  501  502  0.00000000000E+00  0.00000000000E+00  0.58770329826E+02  0.58770329826E+02  0.00000000000E+00 0. -1.
         21   -1    0    0  502  503 -0.00000000000E+00 -0.00000000000E+00 -0.73630962273E+03  0.73630962273E+03  0.00000000000E+00 0. -1.
          6    1    1    2  501    0 -0.50113554848E+02  0.94298640896E+02 -0.25458464109E+03  0.32580046276E+03  0.17300000000E+03 0. -1.
         -6    1    1    2    0  503  0.50113554848E+02 -0.94298640896E+02 -0.42295465182E+03  0.46927948980E+03  0.17300000000E+03 0. -1.
<mgrwt>
<rscale>  2 0.20330421E+03</rscale>
<asrwt>0</asrwt>
<pdfrwt beam="1">  1       21 0.90415897E-02 0.20330421E+03</pdfrwt>
<pdfrwt beam="2">  1       21 0.11327840E+00 0.20330421E+03</pdfrwt>
<totfact> 0.58614062E+04</totfact>
</mgrwt>
</event>
<event>
 4    1  0.4621995E+000  0.2013344E+03  0.7546771E-02  0.1148618E+00
         21   -1    0    0  503  502  0.00000000000E+00  0.00000000000E+00  0.42715714409E+03  0.42715714409E+03  0.00000000000E+00 0.  1.
         21   -1    0    0  501  503 -0.00000000000E+00 -0.00000000000E+00 -0.12663145630E+03  0.12663145630E+03  0.00000000000E+00 0. -1.
          6    1    1    2  501    0 -0.65620627585E+02  0.79375591111E+02  0.11646372986E+02  0.20167099254E+03  0.17300000000E+03 0. -1.
         -6    1    1    2    0  502  0.65620627585E+02 -0.79375591111E+02  0.28887931481E+03  0.35211760784E+03  0.17300000000E+03 0.  1.
<mgrwt>
<rscale>  2 0.20133443E+03</rscale>
<asrwt>0</asrwt>
<pdfrwt beam="1">  1       21 0.65716483E-01 0.20133443E+03</pdfrwt>
<pdfrwt beam="2">  1       21 0.19481763E-01 0.20133443E+03</pdfrwt>
<totfact> 0.51368789E+04</totfact>
</mgrwt>
</event>
<event>
 4    1  0.4621995E+000  0.1920684E+03  0.7546771E-02  0.1156609E+00
         21   -1    0    0  503  502  0.00000000000E+00  0.00000000000E+00  0.21155825415E+03  0.21155825415E+03  0.00000000000E+00 0.  1.
         21   -1    0    0  501  503 -0.00000000000E+00 -0.00000000000E+00 -0.17998399628E+03  0.17998399628E+03  0.00000000000E+00 0.  1.
          6    1    1    2  501    0  0.74876450607E+02 -0.36807437843E+02 -0.18775829253E+02  0.19298394260E+03  0.17300000000E+03 0. -1.
         -6    1    1    2    0  502 -0.74876450607E+02  0.36807437843E+02  0.50350087124E+02  0.19855830783E+03  0.17300000000E+03 0. -1.
<mgrwt>
<rscale>  2 0.19206840E+03</rscale>
<asrwt>0</asrwt>
<pdfrwt beam="1">  1       21 0.32547424E-01 0.19206840E+03</pdfrwt>
<pdfrwt beam="2">  1       21 0.27689846E-01 0.19206840E+03</pdfrwt>
<totfact> 0.11311713E+05</totfact>
</mgrwt>
</event>
<event>
 4    1  0.4621995E+000  0.1759272E+03  0.7546771E-02  0.1171804E+00
         21   -1    0    0  503  502  0.00000000000E+00  0.00000000000E+00  0.44442932940E+03  0.44442932940E+03  0.00000000000E+00 0.  1.
         21   -1    0    0  501  503 -0.00000000000E+00 -0.00000000000E+00 -0.99148931981E+02  0.99148931981E+02  0.00000000000E+00 0.  1.
          6    1    1    2  501    0 -0.29064088217E+01  0.31826411445E+02  0.24368012630E+02  0.17760677835E+03  0.17300000000E+03 0. -1.
         -6    1    1    2    0  502  0.29064088217E+01 -0.31826411445E+02  0.32091238479E+03  0.36597148302E+03  0.17300000000E+03 0. -1.
<mgrwt>
<rscale>  2 0.17592717E+03</rscale>
<asrwt>0</asrwt>
<pdfrwt beam="1">  1       21 0.68373742E-01 0.17592717E+03</pdfrwt>
<pdfrwt beam="2">  1       21 0.15253682E-01 0.17592717E+03</pdfrwt>
<totfact> 0.74774921E+04</totfact>
</mgrwt>
</event>
<event>
 4    1  0.4621995E+000  0.2359246E+03  0.7546771E-02  0.1122538E+00
         21   -1    0    0  503  502  0.00000000000E+00  0.00000000000E+00  0.17318940445E+03  0.17318940445E+03  0.00000000000E+00 0. -1.
         21   -1    0    0  501  503 -0.00000000000E+00 -0.00000000000E+00 -0.76207341466E+03  0.76207341466E+03  0.00000000000E+00 0. -1.
          6    1    1    2  501    0  0.12295067049E+03 -0.10302695012E+03 -0.65004977935E+03  0.69153823861E+03  0.17300000000E+03 0. -1.
         -6    1    1    2    0  502 -0.12295067049E+03  0.10302695012E+03  0.61165769131E+02  0.24372458050E+03  0.17300000000E+03 0. -1.
<mgrwt>
<rscale>  2 0.23592461E+03</rscale>
<asrwt>0</asrwt>
<pdfrwt beam="1">  1       21 0.26644524E-01 0.23592461E+03</pdfrwt>
<pdfrwt beam="2">  1       21 0.11724206E+00 0.23592461E+03</pdfrwt>
<totfact> 0.72716767E+03</totfact>
</mgrwt>
</event>
<event>
 4    1  0.4621995E+000  0.1861487E+03  0.7546771E-02  0.1161982E+00
         21   -1    0    0  501  502  0.00000000000E+00  0.00000000000E+00  0.28187753726E+02  0.28187753726E+02  0.00000000000E+00 0.  1.
         21   -1    0    0  502  503 -0.00000000000E+00 -0.00000000000E+00 -0.13714122386E+04  0.13714122386E+04  0.00000000000E+00 0.  1.
          6    1    1    2  501    0  0.58340165133E+02  0.36314785993E+02 -0.44634478272E+03  0.48360624852E+03  0.17300000000E+03 0.  1.
         -6    1    1    2    0  503 -0.58340165133E+02 -0.36314785993E+02 -0.89687970213E+03  0.91599374378E+03  0.17300000000E+03 0.  1.
<mgrwt>
<rscale>  2 0.18614870E+03</rscale>
<asrwt>0</asrwt>
<pdfrwt beam="1">  1       21 0.43365786E-02 0.18614870E+03</pdfrwt>
<pdfrwt beam="2">  1       21 0.21098644E+00 0.18614870E+03</pdfrwt>
<totfact> 0.39319928E+04</totfact>
</mgrwt>
</event>
<event>
 4    1  0.4621995E+000  0.1954665E+03  0.7546771E-02  0.1153621E+00
         21   -1    0    0  501  502  0.00000000000E+00  0.00000000000E+00  0.13966154119E+04  0.13966154119E+04  0.00000000000E+00 0.  1.
         21   -1    0    0  502  503 -0.00000000000E+00 -0.00000000000E+00 -0.59448365490E+02  0.59448365490E+02  0.00000000000E+00 0.  1.
          6    1    1    2  501    0 -0.14717756663E+02 -0.89786156766E+02  0.12034861649E+04  0.12192563781E+04  0.17300000000E+03 0.  1.
         -6    1    1    2    0  503  0.14717756663E+02  0.89786156766E+02  0.13368088154E+03  0.23680739937E+03  0.17300000000E+03 0.  1.
<mgrwt>
<rscale>  2 0.19546654E+03</rscale>
<asrwt>0</asrwt>
<pdfrwt beam="1">  1       21 0.21486389E+00 0.19546654E+03</pdfrwt>
<pdfrwt beam="2">  1       21 0.91459034E-02 0.19546654E+03</pdfrwt>
<totfact> 0.10251173E+04</totfact>
</mgrwt>
</event>
<event>
 4    1  0.4621995E+000  0.2130678E+03  0.7546771E-02  0.1139159E+00
         21   -1    0    0  503  502  0.00000000000E+00  0.00000000000E+00  0.42425658323E+03  0.42425658323E+03  0.00000000000E+00 0.  1.
         21   -1    0    0  501  503 -0.00000000000E+00 -0.00000000000E+00 -0.12195314234E+03  0.12195314234E+03  0.00000000000E+00 0. -1.
          6    1    1    2  501    0 -0.79771833703E+02 -0.95421992162E+02  0.55539066513E+02  0.22018739735E+03  0.17300000000E+03 0. -1.
         -6    1    1    2    0  502  0.79771833703E+02  0.95421992162E+02  0.24676437438E+03  0.32602232823E+03  0.17300000000E+03 0.  1.
<mgrwt>
<rscale>  2 0.21306783E+03</rscale>
<asrwt>0</asrwt>
<pdfrwt beam="1">  1       21 0.65270243E-01 0.21306783E+03</pdfrwt>
<pdfrwt beam="2">  1       21 0.18762022E-01 0.21306783E+03</pdfrwt>
<totfact> 0.55617852E+04</totfact>
</mgrwt>
</event>
<event>
 4    1  0.4621995E+000  0.1804058E+03  0.7546771E-02  0.1167411E+00
         21   -1    0    0  501  502  0.00000000000E+00  0.00000000000E+00  0.51672407457E+03  0.51672407457E+03  0.00000000000E+00 0.  1.
         21   -1    0    0  502  503 -0.00000000000E+00 -0.00000000000E+00 -0.65818114837E+02  0.65818114837E+02  0.00000000000E+00 0.  1.
          6    1    1    2  501    0  0.41927803384E+02 -0.29313722520E+02  0.28587593879E+03  0.33804036357E+03  0.17300000000E+03 0.  1.
         -6    1    1    2    0  503 -0.41927803384E+02  0.29313722520E+02  0.16503002095E+03  0.24450182584E+03  0.17300000000E+03 0.  1.
<mgrwt>
<rscale>  2 0.18040575E+03</rscale>
<asrwt>0</asrwt>
<pdfrwt beam="1">  1       21 0.79496009E-01 0.18040575E+03</pdfrwt>
<pdfrwt beam="2">  1       21 0.10125864E-01 0.18040575E+03</pdfrwt>
<totfact> 0.11124922E+05</totfact>
</mgrwt>
</event>
<event>
 4    1  0.4621995E+000  0.2458443E+03  0.7546771E-02  0.1115960E+00
         21   -1    0    0  501  502  0.00000000000E+00  0.00000000000E+00  0.22171080204E+03  0.22171080204E+03  0.00000000000E+00 0. -1.
         21   -1    0    0  502  503 -0.00000000000E+00 -0.00000000000E+00 -0.37014622177E+03  0.37014622177E+03  0.00000000000E+00 0. -1.
          6    1    1    2  501    0 -0.17008293459E+03  0.39776935754E+02  0.77695271630E+02  0.25782933210E+03  0.17300000000E+03 0. -1.
         -6    1    1    2    0  503  0.17008293459E+03 -0.39776935754E+02 -0.22613069136E+03  0.33402769172E+03  0.17300000000E+03 0. -1.
<mgrwt>
<rscale>  2 0.24584428E+03</rscale>
<asrwt>0</asrwt>
<pdfrwt beam="1">  1       21 0.34109354E-01 0.24584428E+03</pdfrwt>
<pdfrwt beam="2">  1       21 0.56945572E-01 0.24584428E+03</pdfrwt>
<totfact> 0.23324385E+04</totfact>
</mgrwt>
</event>
<event>
 4    1  0.4621995E+000  0.1859675E+03  0.7546771E-02  0.1162150E+00
         21   -1    0    0  501  502  0.00000000000E+00  0.00000000000E+00  0.69813462573E+02  0.69813462573E+02  0.00000000000E+00 0. -1.
         21   -1    0    0  502  503 -0.00000000000E+00 -0.00000000000E+00 -0.51700369787E+03  0.51700369787E+03  0.00000000000E+00 0. -1.
          6    1    1    2  501    0  0.60337425265E+01  0.67959488760E+02 -0.16358376907E+03  0.24767629613E+03  0.17300000000E+03 0. -1.
         -6    1    1    2    0  503 -0.60337425265E+01 -0.67959488760E+02 -0.28360646623E+03  0.33914086432E+03  0.17300000000E+03 0. -1.
<mgrwt>
<rscale>  2 0.18596747E+03</rscale>
<asrwt>0</asrwt>
<pdfrwt beam="1">  1       21 0.10740533E-01 0.18596747E+03</pdfrwt>
<pdfrwt beam="2">  1       21 0.79539031E-01 0.18596747E+03</pdfrwt>
<totfact> 0.99894655E+04</totfact>
</mgrwt>
</event>
<event>
 4    1  0.4621995E+000  0.1984067E+03  0.7546771E-02  0.1151090E+00
         21   -1    0    0  501  502  0.00000000000E+00  0.00000000000E+00  0.13972749153E+04  0.13972749153E+04  0.00000000000E+00 0.  1.
         21   -1    0    0  502  503 -0.00000000000E+00 -0.00000000000E+00 -0.13947252227E+03  0.13947252227E+03  0.00000000000E+00 0.  1.
          6    1    1    2  501    0  0.72779768708E+02 -0.64337652527E+02  0.13152977607E+04  0.13301779684E+04  0.17300000000E+03 0.  1.
         -6    1    1    2    0  503 -0.72779768708E+02  0.64337652527E+02 -0.57495367729E+02  0.20656946913E+03  0.17300000000E+03 0.  1.
<mgrwt>
<rscale>  2 0.19840672E+03</rscale>
<asrwt>0</asrwt>
<pdfrwt beam="1">  1       21 0.21496536E+00 0.19840672E+03</pdfrwt>
<pdfrwt beam="2">  1       21 0.21457312E-01 0.19840672E+03</pdfrwt>
<totfact> 0.21730249E+03</totfact>
</mgrwt>
</event>
<event>
 4    1  0.4621995E+000  0.2280696E+03  0.7546771E-02  0.1128006E+00
         21   -1    0    0  501  502  0.00000000000E+00  0.00000000000E+00  0.86620860835E+03  0.86620860835E+03  0.00000000000E+00 0. -1.
         21   -1    0    0  502  503 -0.00000000000E+00 -0.00000000000E+00 -0.64731058089E+02  0.64731058089E+02  0.00000000000E+00 0. -1.
          6    1    1    2  501    0  0.91115063308E+02 -0.11740865251E+03  0.52591202052E+03  0.57323572793E+03  0.17300000000E+03 0. -1.
         -6    1    1    2    0  503 -0.91115063308E+02  0.11740865251E+03  0.27556552973E+03  0.35770393851E+03  0.17300000000E+03 0. -1.
<mgrwt>
<rscale>  2 0.22806961E+03</rscale>
<asrwt>0</asrwt>
<pdfrwt beam="1">  1       21 0.13326285E+00 0.22806961E+03</pdfrwt>
<pdfrwt beam="2">  1       21 0.99586250E-02 0.22806961E+03</pdfrwt>
<totfact> 0.32523148E+04</totfact>
</mgrwt>
</event>
<event>
 4    1  0.4621995E+000  0.2495380E+03  0.7546771E-02  0.1113597E+00
         21   -1    0    0  503  502  0.00000000000E+00  0.00000000000E+00  0.94534522566E+02  0.94534522566E+02  0.00000000000E+00 0.  1.
         21   -1    0    0  501  503 -0.00000000000E+00 -0.00000000000E+00 -0.65871239209E+03  0.65871239209E+03  0.00000000000E+00 0.  1.
          6    1    1    2  501    0  0.17158098100E+03 -0.53853285751E+02 -0.28414289736E+03  0.37816186421E+03  0.17300000000E+03 0.  1.
         -6    1    1    2    0  502 -0.17158098100E+03  0.53853285751E+02 -0.28003497216E+03  0.37508505044E+03  0.17300000000E+03 0.  1.
<mgrwt>
<rscale>  2 0.24953799E+03</rscale>
<asrwt>0</asrwt>
<pdfrwt beam="1">  1       21 0.14543773E-01 0.24953799E+03</pdfrwt>
<pdfrwt beam="2">  1       21 0.10134037E+00 0.24953799E+03</pdfrwt>
<totfact> 0.32049013E+04</totfact>
</mgrwt>
</event>
<event>
 4    1  0.4621995E+000  0.2704048E+03  0.7546771E-02  0.1101048E+00
         21   -1    0    0  501  502  0.00000000000E+00  0.00000000000E+00  0.56952318766E+03  0.56952318766E+03  0.00000000000E+00 0. -1.
         21   -1    0    0  502  503 -0.00000000000E+00 -0.00000000000E+00 -0.17419055373E+03  0.17419055373E+03  0.00000000000E+00 0.  1.
          6    1    1    2  501    0 -0.48241881298E+02 -0.20214473426E+03  0.38835200526E+03  0.47321882115E+03  0.17300000000E+03 0. -1.
         -6    1    1    2    0  503  0.48241881298E+02  0.20214473426E+03  0.69806286746E+01  0.27049492024E+03  0.17300000000E+03 0.  1.
<mgrwt>
<rscale>  2 0.27040483E+03</rscale>
<asrwt>0</asrwt>
<pdfrwt beam="1">  1       21 0.87618951E-01 0.27040483E+03</pdfrwt>
<pdfrwt beam="2">  1       21 0.26798547E-01 0.27040483E+03</pdfrwt>
<totfact> 0.14178292E+04</totfact>
</mgrwt>
</event>
<event>
 4    1  0.4621995E+000  0.3128041E+03  0.7546771E-02  0.1079010E+00
         21   -1    0    0  503  502  0.00000000000E+00  0.00000000000E+00  0.15970885562E+04  0.15970885562E+04  0.00000000000E+00 0.  1.
         21   -1    0    0  501  503 -0.00000000000E+00 -0.00000000000E+00 -0.61411747271E+02  0.61411747271E+02  0.00000000000E+00 0.  1.
          6    1    1    2  501    0  0.57425656344E+01  0.26054641092E+03  0.80830735796E+03  0.86672209746E+03  0.17300000000E+03 0.  1.
         -6    1    1    2    0  502 -0.57425656344E+01 -0.26054641092E+03  0.72736945098E+03  0.79177820601E+03  0.17300000000E+03 0.  1.
<mgrwt>
<rscale>  2 0.31280411E+03</rscale>
<asrwt>0</asrwt>
<pdfrwt beam="1">  1       21 0.24570590E+00 0.31280411E+03</pdfrwt>
<pdfrwt beam="2">  1       21 0.94479623E-02 0.31280411E+03</pdfrwt>
<totfact> 0.57493609E+03</totfact>
</mgrwt>
</event>
<event>
 4    1  0.4621995E+000  0.1901964E+03  0.7546771E-02  0.1158284E+00
         21   -1    0    0  503  502  0.00000000000E+00  0.00000000000E+00  0.23546755826E+03  0.23546755826E+03  0.00000000000E+00 0.  1.
         21   -1    0    0  501  503 -0.00000000000E+00 -0.00000000000E+00 -0.18437399210E+04  0.18437399210E+04  0.00000000000E+00 0.  1.
          6    1    1    2  501    0  0.40626864526E+02 -0.67787470070E+02 -0.17994856453E+04  0.18095091243E+04  0.17300000000E+03 0.  1.
         -6    1    1    2    0  502 -0.40626864526E+02  0.67787470070E+02  0.19121328259E+03  0.26969835494E+03  0.17300000000E+03 0.  1.
<mgrwt>
<rscale>  2 0.19019643E+03</rscale>
<asrwt>0</asrwt>
<pdfrwt beam="1">  1       21 0.36225779E-01 0.19019643E+03</pdfrwt>
<pdfrwt beam="2">  1       21 0.28365229E+00 0.19019643E+03</pdfrwt>
<totfact> 0.31269106E+02</totfact>
</mgrwt>
</event>
<event>
 4    1  0.4621995E+000  0.2225464E+03  0.7546771E-02  0.1131999E+00
         21   -1    0    0  501  502  0.00000000000E+00  0.00000000000E+00  0.39821502732E+02  0.39821502732E+02  0.00000000000E+00 0.  1.
         21   -1    0    0  502  503 -0.00000000000E+00 -0.00000000000E+00 -0.19579506541E+04  0.19579506541E+04  0.00000000000E+00 0.  1.
          6    1    1    2  501    0 -0.13883395152E+03 -0.17973160333E+02 -0.35576425046E+03  0.41963686979E+03  0.17300000000E+03 0.  1.
         -6    1    1    2    0  503  0.13883395152E+03  0.17973160333E+02 -0.15623649009E+04  0.15781352870E+04  0.17300000000E+03 0.  1.
<mgrwt>
<rscale>  2 0.22254640E+03</rscale>
<asrwt>0</asrwt>
<pdfrwt beam="1">  1       21 0.61263860E-02 0.22254640E+03</pdfrwt>
<pdfrwt beam="2">  1       21 0.30122313E+00 0.22254640E+03</pdfrwt>
<totfact> 0.61891707E+03</totfact>
</mgrwt>
</event>
<event>
 4    1  0.4621995E+000  0.1852499E+03  0.7546771E-02  0.1162817E+00
         21   -1    0    0  503  502  0.00000000000E+00  0.00000000000E+00  0.12381835444E+04  0.12381835444E+04  0.00000000000E+00 0. -1.
         21   -1    0    0  501  503 -0.00000000000E+00 -0.00000000000E+00 -0.43870806603E+02  0.43870806603E+02  0.00000000000E+00 0. -1.
          6    1    1    2  501    0  0.49593957037E+02 -0.43919944756E+02  0.98614707037E+03  0.10033960168E+04  0.17300000000E+03 0. -1.
         -6    1    1    2    0  502 -0.49593957037E+02  0.43919944756E+02  0.20816566738E+03  0.27865833417E+03  0.17300000000E+03 0. -1.
<mgrwt>
<rscale>  2 0.18524989E+03</rscale>
<asrwt>0</asrwt>
<pdfrwt beam="1">  1       21 0.19048975E+00 0.18524989E+03</pdfrwt>
<pdfrwt beam="2">  1       21 0.67493558E-02 0.18524989E+03</pdfrwt>
<totfact> 0.25071825E+04</totfact>
</mgrwt>
</event>
<event>
 4    1  0.4621995E+000  0.2246180E+03  0.7546771E-02  0.1130486E+00
         21   -1    0    0  501  502  0.00000000000E+00  0.00000000000E+00  0.12799979917E+04  0.12799979917E+04  0.00000000000E+00 0.  1.
         21   -1    0    0  502  503 -0.00000000000E+00 -0.00000000000E+00 -0.41528767655E+02  0.41528767655E+02  0.00000000000E+00 0. -1.
          6    1    1    2  501    0 -0.42981962389E+02 -0.13666308978E+03  0.76824933618E+03  0.80041257595E+03  0.17300000000E+03 0.  1.
         -6    1    1    2    0  503  0.42981962389E+02  0.13666308978E+03  0.47021988785E+03  0.52111418339E+03  0.17300000000E+03 0. -1.
<mgrwt>
<rscale>  2 0.22461801E+03</rscale>
<asrwt>0</asrwt>
<pdfrwt beam="1">  1       21 0.19692274E+00 0.22461801E+03</pdfrwt>
<pdfrwt beam="2">  1       21 0.63890422E-02 0.22461801E+03</pdfrwt>
<totfact> 0.24330978E+04</totfact>
</mgrwt>
</event>
<event>
 4    1  0.4621995E+000  0.2152066E+03  0.7546771E-02  0.1137508E+00
         21   -1    0    0  501  502  0.00000000000E+00  0.00000000000E+00  0.27557762951E+04  0.27557762951E+04  0.00000000000E+00 0. -1.
         21   -1    0    0  502  503 -0.00000000000E+00 -0.00000000000E+00 -0.16818648072E+02  0.16818648072E+02  0.00000000000E+00 0.  1.
          6    1    1    2  501    0  0.62178984717E+02 -0.11188683650E+03  0.14073238280E+04  0.14236833381E+04  0.17300000000E+03 0.  1.
         -6    1    1    2    0  503 -0.62178984717E+02  0.11188683650E+03  0.13316338189E+04  0.13489116050E+04  0.17300000000E+03 0. -1.
<mgrwt>
<rscale>  2 0.21520662E+03</rscale>
<asrwt>0</asrwt>
<pdfrwt beam="1">  1       21 0.42396522E+00 0.21520662E+03</pdfrwt>
<pdfrwt beam="2">  1       21 0.25874865E-02 0.21520662E+03</pdfrwt>
<totfact> 0.48207052E+03</totfact>
</mgrwt>
</event>
<event>
 4    1  0.4621995E+000  0.2149755E+03  0.7546771E-02  0.1137685E+00
         21   -1    0    0  501  502  0.00000000000E+00  0.00000000000E+00  0.31642424733E+02  0.31642424733E+02  0.00000000000E+00 0.  1.
         21   -1    0    0  502  503 -0.00000000000E+00 -0.00000000000E+00 -0.14677433890E+04  0.14677433890E+04  0.00000000000E+00 0. -1.
          6    1    1    2  501    0  0.10564564026E+03  0.71585340697E+02 -0.66546521383E+03  0.69932711454E+03  0.17300000000E+03 0. -1.
         -6    1    1    2    0  503 -0.10564564026E+03 -0.71585340697E+02 -0.77063575046E+03  0.80005869922E+03  0.17300000000E+03 0.  1.
<mgrwt>
<rscale>  2 0.21497549E+03</rscale>
<asrwt>0</asrwt>
<pdfrwt beam="1">  1       21 0.48680645E-02 0.21497549E+03</pdfrwt>
<pdfrwt beam="2">  1       21 0.22580672E+00 0.21497549E+03</pdfrwt>
<totfact> 0.25653810E+04</totfact>
</mgrwt>
</event>
<event>
 4    1  0.4621995E+000  0.2075362E+03  0.7546771E-02  0.1143532E+00
         21   -1    0    0  501  502  0.00000000000E+00  0.00000000000E+00  0.33657296781E+03  0.33657296781E+03  0.00000000000E+00 0. -1.
         21   -1    0    0  502  503 -0.00000000000E+00 -0.00000000000E+00 -0.18574140840E+03  0.18574140840E+03  0.00000000000E+00 0. -1.
          6    1    1    2  501    0  0.11367935585E+03 -0.14808666782E+02  0.22106344838E+03  0.30321665648E+03  0.17300000000E+03 0. -1.
         -6    1    1    2    0  503 -0.11367935585E+03  0.14808666782E+02 -0.70231888972E+02  0.21909771972E+03  0.17300000000E+03 0. -1.
<mgrwt>
<rscale>  2 0.20753624E+03</rscale>
<asrwt>0</asrwt>
<pdfrwt beam="1">  1       21 0.51780457E-01 0.20753624E+03</pdfrwt>
<pdfrwt beam="2">  1       21 0.28575601E-01 0.20753624E+03</pdfrwt>
<totfact> 0.41169308E+04</totfact>
</mgrwt>
</event>
<event>
 4    1  0.4621995E+000  0.1754021E+03  0.7546771E-02  0.1172329E+00
         21   -1    0    0  503  502  0.00000000000E+00  0.00000000000E+00  0.18781753527E+03  0.18781753527E+03  0.00000000000E+00 0.  1.
         21   -1    0    0  501  503 -0.00000000000E+00 -0.00000000000E+00 -0.16694273061E+03  0.16694273061E+03  0.00000000000E+00 0.  1.
          6    1    1    2  501    0  0.95608355530E+01  0.27303465471E+02 -0.13871637435E+02  0.17594974035E+03  0.17300000000E+03 0.  1.
         -6    1    1    2    0  502 -0.95608355530E+01 -0.27303465471E+02  0.34746442088E+02  0.17881052553E+03  0.17300000000E+03 0.  1.
<mgrwt>
<rscale>  2 0.17540208E+03</rscale>
<asrwt>0</asrwt>
<pdfrwt beam="1">  1       21 0.28895006E-01 0.17540208E+03</pdfrwt>
<pdfrwt beam="2">  1       21 0.25683497E-01 0.17540208E+03</pdfrwt>
<totfact> 0.16578456E+05</totfact>
</mgrwt>
</event>
<event>
 4    1  0.4621995E+000  0.1743547E+03  0.7546771E-02  0.1173381E+00
         21   -1    0    0  503  502  0.00000000000E+00  0.00000000000E+00  0.47411337564E+03  0.47411337564E+03  0.00000000000E+00 0.  1.
         21   -1    0    0  501  503 -0.00000000000E+00 -0.00000000000E+00 -0.89215991116E+02  0.89215991116E+02  0.00000000000E+00 0.  1.
          6    1    1    2  501    0 -0.46234350096E+01  0.21194219479E+02  0.43057917885E+02  0.17959274869E+03  0.17300000000E+03 0.  1.
         -6    1    1    2    0  502  0.46234350096E+01 -0.21194219479E+02  0.34183946664E+03  0.38373661806E+03  0.17300000000E+03 0.  1.
<mgrwt>
<rscale>  2 0.17435473E+03</rscale>
<asrwt>0</asrwt>
<pdfrwt beam="1">  1       21 0.72940518E-01 0.17435473E+03</pdfrwt>
<pdfrwt beam="2">  1       21 0.13725537E-01 0.17435473E+03</pdfrwt>
<totfact> 0.78570390E+04</totfact>
</mgrwt>
</event>
<event>
 4    1  0.4621995E+000  0.1798503E+03  0.7546771E-02  0.1167948E+00
         21   -1    0    0  501  502  0.00000000000E+00  0.00000000000E+00  0.11833856622E+03  0.11833856622E+03  0.00000000000E+00 0.  1.
         21   -1    0    0  502  503 -0.00000000000E+00 -0.00000000000E+00 -0.35280456861E+03  0.35280456861E+03  0.00000000000E+00 0.  1.
          6    1    1    2  501    0 -0.47066324894E+02  0.14208782951E+02 -0.54296308531E+01  0.17993223542E+03  0.17300000000E+03 0.  1.
         -6    1    1    2    0  503  0.47066324894E+02 -0.14208782951E+02 -0.22903637153E+03  0.29121089941E+03  0.17300000000E+03 0.  1.
<mgrwt>
<rscale>  2 0.17985029E+03</rscale>
<asrwt>0</asrwt>
<pdfrwt beam="1">  1       21 0.18205934E-01 0.17985029E+03</pdfrwt>
<pdfrwt beam="2">  1       21 0.54277624E-01 0.17985029E+03</pdfrwt>
<totfact> 0.88628010E+04</totfact>
</mgrwt>
</event>
<event>
 4    1  0.4621995E+000  0.1820141E+03  0.7546771E-02  0.1165868E+00
         21   -1    0    0  501  502  0.00000000000E+00  0.00000000000E+00  0.11782237560E+03  0.11782237560E+03  0.00000000000E+00 0.  1.
         21   -1    0    0  502  503 -0.00000000000E+00 -0.00000000000E+00 -0.28955659216E+03  0.28955659216E+03  0.00000000000E+00 0.  1.
          6    1    1    2  501    0 -0.44682435595E+02  0.34693091246E+02 -0.51219612382E+02  0.18908352473E+03  0.17300000000E+03 0.  1.
         -6    1    1    2    0  503  0.44682435595E+02 -0.34693091246E+02 -0.12051460418E+03  0.21829544304E+03  0.17300000000E+03 0.  1.
<mgrwt>
<rscale>  2 0.18201409E+03</rscale>
<asrwt>0</asrwt>
<pdfrwt beam="1">  1       21 0.18126519E-01 0.18201409E+03</pdfrwt>
<pdfrwt beam="2">  1       21 0.44547168E-01 0.18201409E+03</pdfrwt>
<totfact> 0.13456450E+05</totfact>
</mgrwt>
</event>
<event>
 4    1  0.4621995E+000  0.2040519E+03  0.7546771E-02  0.1146365E+00
         21   -1    0    0  501  502  0.00000000000E+00  0.00000000000E+00  0.14600525910E+03  0.14600525910E+03  0.00000000000E+00 0.  1.
         21   -1    0    0  502  503 -0.00000000000E+00 -0.00000000000E+00 -0.31670613229E+03  0.31670613229E+03  0.00000000000E+00 0. -1.
          6    1    1    2  501    0  0.99970696840E+02  0.41400967549E+02 -0.12351659676E+02  0.20442539920E+03  0.17300000000E+03 0.  1.
         -6    1    1    2    0  503 -0.99970696840E+02 -0.41400967549E+02 -0.15834921352E+03  0.25828599219E+03  0.17300000000E+03 0. -1.
<mgrwt>
<rscale>  2 0.20405191E+03</rscale>
<asrwt>0</asrwt>
<pdfrwt beam="1">  1       21 0.22462348E-01 0.20405191E+03</pdfrwt>
<pdfrwt beam="2">  1       21 0.48724020E-01 0.20405191E+03</pdfrwt>
<totfact> 0.74257864E+04</totfact>
</mgrwt>
</event>
<event>
 4    1  0.4621995E+000  0.1945150E+03  0.7546771E-02  0.1154451E+00
         21   -1    0    0  501  502  0.00000000000E+00  0.00000000000E+00  0.18245378675E+03  0.18245378675E+03  0.00000000000E+00 0. -1.
         21   -1    0    0  502  503 -0.00000000000E+00 -0.00000000000E+00 -0.23190269934E+03  0.23190269934E+03  0.00000000000E+00 0.  1.
          6    1    1    2  501    0  0.74848328187E+02 -0.48008400885E+02  0.42655853864E+02  0.19913714032E+03  0.17300000000E+03 0. -1.
         -6    1    1    2    0  503 -0.74848328187E+02  0.48008400885E+02 -0.92104766457E+02  0.21521934577E+03  0.17300000000E+03 0.  1.
<mgrwt>
<rscale>  2 0.19451498E+03</rscale>
<asrwt>0</asrwt>
<pdfrwt beam="1">  1       21 0.28069813E-01 0.19451498E+03</pdfrwt>
<pdfrwt beam="2">  1       21 0.35677338E-01 0.19451498E+03</pdfrwt>
<totfact> 0.91784793E+04</totfact>
</mgrwt>
</event>
<event>
 4    1  0.4621995E+000  0.2155948E+03  0.7546771E-02  0.1137211E+00
         21   -1    0    0  501  502  0.00000000000E+00  0.00000000000E+00  0.26715232881E+03  0.26715232881E+03  0.00000000000E+00 0. -1.
         21   -1    0    0  502  503 -0.00000000000E+00 -0.00000000000E+00 -0.19156982964E+03  0.19156982964E+03  0.00000000000E+00 0. -1.
          6    1    1    2  501    0 -0.12450533135E+03  0.32412268448E+02  0.10727702485E+03  0.24081007608E+03  0.17300000000E+03 0. -1.
         -6    1    1    2    0  503  0.12450533135E+03 -0.32412268448E+02 -0.31694525680E+02  0.21791208236E+03  0.17300000000E+03 0. -1.
<mgrwt>
<rscale>  2 0.21559483E+03</rscale>
<asrwt>0</asrwt>
<pdfrwt beam="1">  1       21 0.41100358E-01 0.21559483E+03</pdfrwt>
<pdfrwt beam="2">  1       21 0.29472281E-01 0.21559483E+03</pdfrwt>
<totfact> 0.62244767E+04</totfact>
</mgrwt>
</event>
<event>
 4    1  0.4621995E+000  0.2044223E+03  0.7546771E-02  0.1146061E+00
         21   -1    0    0  503  502  0.00000000000E+00  0.00000000000E+00  0.11652314227E+03  0.11652314227E+03  0.00000000000E+00 0. -1.
         21   -1    0    0  501  503 -0.00000000000E+00 -0.00000000000E+00 -0.77105932528E+03  0.77105932528E+03  0.00000000000E+00 0. -1.
          6    1    1    2  501    0  0.25818416289E+02  0.10579642310E+03 -0.65183974551E+03  0.68314239189E+03  0.17300000000E+03 0. -1.
         -6    1    1    2    0  502 -0.25818416289E+02 -0.10579642310E+03 -0.26964374909E+01  0.20444007566E+03  0.17300000000E+03 0. -1.
<mgrwt>
<rscale>  2 0.20442229E+03</rscale>
<asrwt>0</asrwt>
<pdfrwt beam="1">  1       21 0.17926637E-01 0.20442229E+03</pdfrwt>
<pdfrwt beam="2">  1       21 0.11862451E+00 0.20442229E+03</pdfrwt>
<totfact> 0.15251578E+04</totfact>
</mgrwt>
</event>
<event>
 4    1  0.4621995E+000  0.2090450E+03  0.7546771E-02  0.1142324E+00
         21   -1    0    0  501  502  0.00000000000E+00  0.00000000000E+00  0.17936373805E+04  0.17936373805E+04  0.00000000000E+00 0. -1.
         21   -1    0    0  502  503 -0.00000000000E+00 -0.00000000000E+00 -0.52903114492E+02  0.52903114492E+02  0.00000000000E+00 0. -1.
          6    1    1    2  501    0 -0.98251371754E+02 -0.64167552742E+02  0.15484926005E+04  0.15625393245E+04  0.17300000000E+03 0. -1.
         -6    1    1    2    0  503  0.98251371754E+02  0.64167552742E+02  0.19224166554E+03  0.28400117050E+03  0.17300000000E+03 0. -1.
<mgrwt>
<rscale>  2 0.20904499E+03</rscale>
<asrwt>0</asrwt>
<pdfrwt beam="1">  1       21 0.27594416E+00 0.20904499E+03</pdfrwt>
<pdfrwt beam="2">  1       21 0.81389421E-02 0.20904499E+03</pdfrwt>
<totfact> 0.53754098E+03</totfact>
</mgrwt>
</event>
<event>
 4    1  0.4621995E+000  0.1921852E+03  0.7546771E-02  0.1156505E+00
         21   -1    0    0  501  502  0.00000000000E+00  0.00000000000E+00  0.85194001715E+02  0.85194001715E+02  0.00000000000E+00 0.  1.
         21   -1    0    0  502  503 -0.00000000000E+00 -0.00000000000E+00 -0.52477639563E+03  0.52477639563E+03  0.00000000000E+00 0. -1.
          6    1    1    2  501    0 -0.32749939897E+02  0.77029828025E+02 -0.92625020673E+02  0.21334138704E+03  0.17300000000E+03 0.  1.
         -6    1    1    2    0  503  0.32749939897E+02 -0.77029828025E+02 -0.34695737324E+03  0.39662901030E+03  0.17300000000E+03 0. -1.
<mgrwt>
<rscale>  2 0.19218520E+03</rscale>
<asrwt>0</asrwt>
<pdfrwt beam="1">  1       21 0.13106770E-01 0.19218520E+03</pdfrwt>
<pdfrwt beam="2">  1       21 0.80734830E-01 0.19218520E+03</pdfrwt>
<totfact> 0.67495409E+04</totfact>
</mgrwt>
</event>
<event>
 4    1  0.4621995E+000  0.2267168E+03  0.7546771E-02  0.1128972E+00
         21   -1    0    0  503  502  0.00000000000E+00  0.00000000000E+00  0.24564921029E+03  0.24564921029E+03  0.00000000000E+00 0. -1.
         21   -1    0    0  501  503 -0.00000000000E+00 -0.00000000000E+00 -0.36317093920E+03  0.36317093920E+03  0.00000000000E+00 0.  1.
          6    1    1    2  501    0 -0.60033609774E+02  0.13366922566E+03 -0.25694164029E+03  0.34266529253E+03  0.17300000000E+03 0.  1.
         -6    1    1    2    0  502  0.60033609774E+02 -0.13366922566E+03  0.13941991138E+03  0.26615485695E+03  0.17300000000E+03 0. -1.
<mgrwt>
<rscale>  2 0.22671678E+03</rscale>
<asrwt>0</asrwt>
<pdfrwt beam="1">  1       21 0.37792186E-01 0.22671678E+03</pdfrwt>
<pdfrwt beam="2">  1       21 0.55872452E-01 0.22671678E+03</pdfrwt>
<totfact> 0.19976436E+04</totfact>
</mgrwt>
</event>
<event>
 4    1  0.4621995E+000  0.2113720E+03  0.7546771E-02  0.1140484E+00
         21   -1    0    0  503  502  0.00000000000E+00  0.00000000000E+00  0.10903467523E+03  0.10903467523E+03  0.00000000000E+00 0.  1.
         21   -1    0    0  501  503 -0.00000000000E+00 -0.00000000000E+00 -0.57906664248E+03  0.57906664248E+03  0.00000000000E+00 0.  1.
          6    1    1    2  501    0 -0.30195875030E+02  0.11763216522E+03 -0.42105083480E+03  0.47112835050E+03  0.17300000000E+03 0.  1.
         -6    1    1    2    0  502  0.30195875030E+02 -0.11763216522E+03 -0.48981132448E+02  0.21697296721E+03  0.17300000000E+03 0.  1.
<mgrwt>
<rscale>  2 0.21137199E+03</rscale>
<asrwt>0</asrwt>
<pdfrwt beam="1">  1       21 0.16774565E-01 0.21137199E+03</pdfrwt>
<pdfrwt beam="2">  1       21 0.89087178E-01 0.21137199E+03</pdfrwt>
<totfact> 0.34042508E+04</totfact>
</mgrwt>
</event>
<event>
 4    1  0.4621995E+000  0.2035412E+03  0.7546771E-02  0.1146785E+00
         21   -1    0    0  501  502  0.00000000000E+00  0.00000000000E+00  0.38349046304E+03  0.38349046304E+03  0.00000000000E+00 0. -1.
         21   -1    0    0  502  503 -0.00000000000E+00 -0.00000000000E+00 -0.15600893711E+03  0.15600893711E+03  0.00000000000E+00 0. -1.
          6    1    1    2  501    0  0.29559398840E+02  0.10308377359E+03  0.26333162977E+03  0.33282513378E+03  0.17300000000E+03 0. -1.
         -6    1    1    2    0  503 -0.29559398840E+02 -0.10308377359E+03 -0.35850103845E+02  0.20667426638E+03  0.17300000000E+03 0. -1.
<mgrwt>
<rscale>  2 0.20354121E+03</rscale>
<asrwt>0</asrwt>
<pdfrwt beam="1">  1       21 0.58998533E-01 0.20354121E+03</pdfrwt>
<pdfrwt beam="2">  1       21 0.24001375E-01 0.20354121E+03</pdfrwt>
<totfact> 0.43734747E+04</totfact>
</mgrwt>
</event>
<event>
 4    1  0.4621995E+000  0.1915988E+03  0.7546771E-02  0.1157027E+00
         21   -1    0    0  503  502  0.00000000000E+00  0.00000000000E+00  0.98545980591E+03  0.98545980591E+03  0.00000000000E+00 0. -1.
         21   -1    0    0  501  503 -0.00000000000E+00 -0.00000000000E+00 -0.37702527081E+02  0.37702527081E+02  0.00000000000E+00 0. -1.
          6    1    1    2  501    0 -0.68551899311E+02  0.45625910193E+02  0.41793922350E+03  0.45976437565E+03  0.17300000000E+03 0. -1.
         -6    1    1    2    0  502  0.68551899311E+02 -0.45625910193E+02  0.52981805533E+03  0.56339795734E+03  0.17300000000E+03 0. -1.
<mgrwt>
<rscale>  2 0.19159876E+03</rscale>
<asrwt>0</asrwt>
<pdfrwt beam="1">  1       21 0.15160918E+00 0.19159876E+03</pdfrwt>
<pdfrwt beam="2">  1       21 0.58003895E-02 0.19159876E+03</pdfrwt>
<totfact> 0.60751581E+04</totfact>
</mgrwt>
</event>
<event>
 4    1  0.4621995E+000  0.1951196E+03  0.7546771E-02  0.1153923E+00
         21   -1    0    0  503  502  0.00000000000E+00  0.00000000000E+00  0.55682949103E+02  0.55682949103E+02  0.00000000000E+00 0.  1.
         21   -1    0    0  501  503 -0.00000000000E+00 -0.00000000000E+00 -0.89354324812E+03  0.89354324812E+03  0.00000000000E+00 0. -1.
          6    1    1    2  501    0 -0.85403063393E+02  0.29136989467E+02 -0.64891903509E+03  0.67761903862E+03  0.17300000000E+03 0. -1.
         -6    1    1    2    0  502  0.85403063393E+02 -0.29136989467E+02 -0.18894126392E+03  0.27160715860E+03  0.17300000000E+03 0. -1.
<mgrwt>
<rscale>  2 0.19511957E+03</rscale>
<asrwt>0</asrwt>
<pdfrwt beam="1">  1       21 0.85666078E-02 0.19511957E+03</pdfrwt>
<pdfrwt beam="2">  1       21 0.13746819E+00 0.19511957E+03</pdfrwt>
<totfact> 0.39888771E+04</totfact>
</mgrwt>
</event>
<event>
 4    1  0.4621995E+000  0.2100415E+03  0.7546771E-02  0.1141533E+00
         21   -1    0    0  503  502  0.00000000000E+00  0.00000000000E+00  0.12814217593E+03  0.12814217593E+03  0.00000000000E+00 0. -1.
         21   -1    0    0  501  503 -0.00000000000E+00 -0.00000000000E+00 -0.35137845330E+03  0.35137845330E+03  0.00000000000E+00 0. -1.
          6    1    1    2  501    0 -0.98141445577E+01  0.11871028676E+03 -0.14568355317E+03  0.25561914498E+03  0.17300000000E+03 0. -1.
         -6    1    1    2    0  502  0.98141445577E+01 -0.11871028676E+03 -0.77552724196E+02  0.22390148425E+03  0.17300000000E+03 0. -1.
<mgrwt>
<rscale>  2 0.21004154E+03</rscale>
<asrwt>0</asrwt>
<pdfrwt beam="1">  1       21 0.19714181E-01 0.21004154E+03</pdfrwt>
<pdfrwt beam="2">  1       21 0.54058223E-01 0.21004154E+03</pdfrwt>
<totfact> 0.76131525E+04</totfact>
</mgrwt>
</event>
<event>
 4    1  0.4621995E+000  0.1983799E+03  0.7546771E-02  0.1151113E+00
         21   -1    0    0  503  502  0.00000000000E+00  0.00000000000E+00  0.42330511572E+03  0.42330511572E+03  0.00000000000E+00 0. -1.
         21   -1    0    0  501  503 -0.00000000000E+00 -0.00000000000E+00 -0.98130262217E+02  0.98130262217E+02  0.00000000000E+00 0.  1.
          6    1    1    2  501    0 -0.60666064062E+02 -0.75797169139E+02  0.10279939030E+03  0.22343298061E+03  0.17300000000E+03 0. -1.
         -6    1    1    2    0  502  0.60666064062E+02  0.75797169139E+02  0.22237546320E+03  0.29800239732E+03  0.17300000000E+03 0. -1.
<mgrwt>
<rscale>  2 0.19837989E+03</rscale>
<asrwt>0</asrwt>
<pdfrwt beam="1">  1       21 0.65123863E-01 0.19837989E+03</pdfrwt>
<pdfrwt beam="2">  1       21 0.15096964E-01 0.19837989E+03</pdfrwt>
<totfact> 0.83943942E+04</totfact>
</mgrwt>
</event>
<event>
 4    1  0.4621995E+000  0.2713527E+03  0.7546771E-02  0.1100508E+00
         21   -1    0    0  501  502  0.00000000000E+00  0.00000000000E+00  0.74982015020E+02  0.74982015020E+02  0.00000000000E+00 0.  1.
         21   -1    0    0  502  503 -0.00000000000E+00 -0.00000000000E+00 -0.11939667194E+04  0.11939667194E+04  0.00000000000E+00 0.  1.
          6    1    1    2  501    0  0.10400293943E+03  0.18134681872E+03 -0.29215932795E+03  0.39873468996E+03  0.17300000000E+03 0.  1.
         -6    1    1    2    0  503 -0.10400293943E+03 -0.18134681872E+03 -0.82682537643E+03  0.87021404446E+03  0.17300000000E+03 0.  1.
<mgrwt>
<rscale>  2 0.27135269E+03</rscale>
<asrwt>0</asrwt>
<pdfrwt beam="1">  1       21 0.11535695E-01 0.27135269E+03</pdfrwt>
<pdfrwt beam="2">  1       21 0.18368718E+00 0.27135269E+03</pdfrwt>
<totfact> 0.10241805E+04</totfact>
</mgrwt>
</event>
<event>
 4    1  0.4621995E+000  0.1825479E+03  0.7546771E-02  0.1165360E+00
         21   -1    0    0  503  502  0.00000000000E+00  0.00000000000E+00  0.18185032572E+03  0.18185032572E+03  0.00000000000E+00 0. -1.
         21   -1    0    0  501  503 -0.00000000000E+00 -0.00000000000E+00 -0.18380636580E+03  0.18380636580E+03  0.00000000000E+00 0. -1.
          6    1    1    2  501    0  0.36111641642E+02 -0.45723831943E+02 -0.11054275577E+02  0.18288224758E+03  0.17300000000E+03 0. -1.
         -6    1    1    2    0  502 -0.36111641642E+02  0.45723831943E+02  0.90982354893E+01  0.18277444394E+03  0.17300000000E+03 0. -1.
<mgrwt>
<rscale>  2 0.18254786E+03</rscale>
<asrwt>0</asrwt>
<pdfrwt beam="1">  1       21 0.27976973E-01 0.18254786E+03</pdfrwt>
<pdfrwt beam="2">  1       21 0.28277902E-01 0.18254786E+03</pdfrwt>
<totfact> 0.14633675E+05</totfact>
</mgrwt>
</event>
<event>
 4    1  0.4621995E+000  0.2076748E+03  0.7546771E-02  0.1143421E+00
         21   -1    0    0  503  502  0.00000000000E+00  0.00000000000E+00  0.45601381741E+03  0.45601381741E+03  0.00000000000E+00 0.  1.
         21   -1    0    0  501  503 -0.00000000000E+00 -0.00000000000E+00 -0.12299506848E+03  0.12299506848E+03  0.00000000000E+00 0.  1.
          6    1    1    2  501    0 -0.47196104216E+02 -0.10474903991E+03  0.27353446673E+02  0.20946848130E+03  0.17300000000E+03 0. -1.
         -6    1    1    2    0  502  0.47196104216E+02  0.10474903991E+03  0.30566530226E+03  0.36954040458E+03  0.17300000000E+03 0. -1.
<mgrwt>
<rscale>  2 0.20767483E+03</rscale>
<asrwt>0</asrwt>
<pdfrwt beam="1">  1       21 0.70155971E-01 0.20767483E+03</pdfrwt>
<pdfrwt beam="2">  1       21 0.18922319E-01 0.20767483E+03</pdfrwt>
<totfact> 0.46835391E+04</totfact>
</mgrwt>
</event>
<event>
 4    1  0.4621995E+000  0.2596210E+03  0.7546771E-02  0.1107371E+00
         21   -1    0    0  501  502  0.00000000000E+00  0.00000000000E+00  0.25312370985E+03  0.25312370985E+03  0.00000000000E+00 0.  1.
         21   -1    0    0  502  503 -0.00000000000E+00 -0.00000000000E+00 -0.38825233562E+03  0.38825233562E+03  0.00000000000E+00 0.  1.
          6    1    1    2  501    0  0.19357402557E+03 -0.17757307996E+01  0.11217679029E+03  0.28281918053E+03  0.17300000000E+03 0.  1.
         -6    1    1    2    0  503 -0.19357402557E+03  0.17757307996E+01 -0.24730541606E+03  0.35855686495E+03  0.17300000000E+03 0.  1.
<mgrwt>
<rscale>  2 0.25962099E+03</rscale>
<asrwt>0</asrwt>
<pdfrwt beam="1">  1       21 0.38942109E-01 0.25962099E+03</pdfrwt>
<pdfrwt beam="2">  1       21 0.59731129E-01 0.25962099E+03</pdfrwt>
<totfact> 0.16023568E+04</totfact>
</mgrwt>
</event>
<event>
 4    1  0.4621995E+000  0.2950005E+03  0.7546771E-02  0.1087767E+00
         21   -1    0    0  503  502  0.00000000000E+00  0.00000000000E+00  0.76605022249E+02  0.76605022249E+02  0.00000000000E+00 0.  1.
         21   -1    0    0  501  503 -0.00000000000E+00 -0.00000000000E+00 -0.12283395399E+04  0.12283395399E+04  0.00000000000E+00 0. -1.
          6    1    1    2  501    0 -0.20721585868E+03  0.11898679291E+03 -0.75473680850E+03  0.81034123620E+03  0.17300000000E+03 0. -1.
         -6    1    1    2    0  502  0.20721585868E+03 -0.11898679291E+03 -0.39699770916E+03  0.49460332596E+03  0.17300000000E+03 0.  1.
<mgrwt>
<rscale>  2 0.29500046E+03</rscale>
<asrwt>0</asrwt>
<pdfrwt beam="1">  1       21 0.11785388E-01 0.29500046E+03</pdfrwt>
<pdfrwt beam="2">  1       21 0.18897531E+00 0.29500046E+03</pdfrwt>
<totfact> 0.89523342E+03</totfact>
</mgrwt>
</event>
<event>
 4    1  0.4621995E+000  0.2069128E+03  0.7546771E-02  0.1144034E+00
         21   -1    0    0  501  502  0.00000000000E+00  0.00000000000E+00  0.35544223037E+02  0.35544223037E+02  0.00000000000E+00 0.  1.
         21   -1    0    0  502  503 -0.00000000000E+00 -0.00000000000E+00 -0.12950436844E+04  0.12950436844E+04  0.00000000000E+00 0.  1.
          6    1    1    2  501    0 -0.11340121324E+03  0.49044202400E+01 -0.45383221025E+03  0.49877506309E+03  0.17300000000E+03 0.  1.
         -6    1    1    2    0  503  0.11340121324E+03 -0.49044202400E+01 -0.80566725114E+03  0.83181284437E+03  0.17300000000E+03 0.  1.
<mgrwt>
<rscale>  2 0.20691276E+03</rscale>
<asrwt>0</asrwt>
<pdfrwt beam="1">  1       21 0.54683413E-02 0.20691276E+03</pdfrwt>
<pdfrwt beam="2">  1       21 0.19923751E+00 0.20691276E+03</pdfrwt>
<totfact> 0.31059411E+04</totfact>
</mgrwt>
</event>
<event>
 4    1  0.4621995E+000  0.1857689E+03  0.7546771E-02  0.1162334E+00
         21   -1    0    0  503  502  0.00000000000E+00  0.00000000000E+00  0.11770216002E+03  0.11770216002E+03  0.00000000000E+00 0. -1.
         21   -1    0    0  501  503 -0.00000000000E+00 -0.00000000000E+00 -0.30572419442E+03  0.30572419442E+03  0.00000000000E+00 0. -1.
          6    1    1    2  501    0  0.37911354882E+02  0.56069868006E+02 -0.13686421920E+03  0.23074209721E+03  0.17300000000E+03 0. -1.
         -6    1    1    2    0  502 -0.37911354882E+02 -0.56069868006E+02 -0.51157815206E+02  0.19268425723E+03  0.17300000000E+03 0. -1.
<mgrwt>
<rscale>  2 0.18576895E+03</rscale>
<asrwt>0</asrwt>
<pdfrwt beam="1">  1       21 0.18108025E-01 0.18576895E+03</pdfrwt>
<pdfrwt beam="2">  1       21 0.47034490E-01 0.18576895E+03</pdfrwt>
<totfact> 0.12041228E+05</totfact>
</mgrwt>
</event>
<event>
 4    1  0.4621995E+000  0.1754172E+03  0.7546771E-02  0.1172313E+00
         21   -1    0    0  501  502  0.00000000000E+00  0.00000000000E+00  0.72127200205E+02  0.72127200205E+02  0.00000000000E+00 0.  1.
         21   -1    0    0  502  503 -0.00000000000E+00 -0.00000000000E+00 -0.80052591780E+03  0.80052591780E+03  0.00000000000E+00 0.  1.
          6    1    1    2  501    0 -0.54830713379E+01  0.28498201483E+02 -0.66239594055E+03  0.68522959190E+03  0.17300000000E+03 0.  1.
         -6    1    1    2    0  503  0.54830713379E+01 -0.28498201483E+02 -0.66002777041E+02  0.18742352610E+03  0.17300000000E+03 0.  1.
<mgrwt>
<rscale>  2 0.17541725E+03</rscale>
<asrwt>0</asrwt>
<pdfrwt beam="1">  1       21 0.11096493E-01 0.17541725E+03</pdfrwt>
<pdfrwt beam="2">  1       21 0.12315783E+00 0.17541725E+03</pdfrwt>
<totfact> 0.33740063E+04</totfact>
</mgrwt>
</event>
<event>
 4    1  0.4621995E+000  0.2188985E+03  0.7546771E-02  0.1134707E+00
         21   -1    0    0  503  502  0.00000000000E+00  0.00000000000E+00  0.68904630555E+03  0.68904630555E+03  0.00000000000E+00 0.  1.
         21   -1    0    0  501  503 -0.00000000000E+00 -0.00000000000E+00 -0.18979021609E+03  0.18979021609E+03  0.00000000000E+00 0.  1.
          6    1    1    2  501    0  0.72105107384E+02  0.11308586822E+03 -0.10014262582E+03  0.24071789632E+03  0.17300000000E+03 0.  1.
         -6    1    1    2    0  502 -0.72105107384E+02 -0.11308586822E+03  0.59939871529E+03  0.63811862533E+03  0.17300000000E+03 0.  1.
<mgrwt>
<rscale>  2 0.21889852E+03</rscale>
<asrwt>0</asrwt>
<pdfrwt beam="1">  1       21 0.10600712E+00 0.21889852E+03</pdfrwt>
<pdfrwt beam="2">  1       21 0.29198495E-01 0.21889852E+03</pdfrwt>
<totfact> 0.78713415E+03</totfact>
</mgrwt>
</event>
<event>
 4    1  0.4621995E+000  0.2044278E+03  0.7546771E-02  0.1146056E+00
         21   -1    0    0  503  502  0.00000000000E+00  0.00000000000E+00  0.35999222832E+03  0.35999222832E+03  0.00000000000E+00 0. -1.
         21   -1    0    0  501  503 -0.00000000000E+00 -0.00000000000E+00 -0.21444387885E+03  0.21444387885E+03  0.00000000000E+00 0. -1.
          6    1    1    2  501    0 -0.27869154158E+02  0.10528542094E+03 -0.12174189572E+03  0.23793234078E+03  0.17300000000E+03 0. -1.
         -6    1    1    2    0  502  0.27869154158E+02 -0.10528542094E+03  0.26729024520E+03  0.33650376639E+03  0.17300000000E+03 0. -1.
<mgrwt>
<rscale>  2 0.20442776E+03</rscale>
<asrwt>0</asrwt>
<pdfrwt beam="1">  1       21 0.55383420E-01 0.20442776E+03</pdfrwt>
<pdfrwt beam="2">  1       21 0.32991366E-01 0.20442776E+03</pdfrwt>
<totfact> 0.27006970E+04</totfact>
</mgrwt>
</event>
<event>
 4    1  0.4621995E+000  0.2029246E+03  0.7546771E-02  0.1147295E+00
         21   -1    0    0  501  502  0.00000000000E+00  0.00000000000E+00  0.60097706218E+02  0.60097706218E+02  0.00000000000E+00 0.  1.
         21   -1    0    0  502  503 -0.00000000000E+00 -0.00000000000E+00 -0.10829313568E+04  0.10829313568E+04  0.00000000000E+00 0. -1.
          6    1    1    2  501    0  0.21571850828E+02 -0.10384625893E+03 -0.16505756904E+03  0.26157674082E+03  0.17300000000E+03 0.  1.
         -6    1    1    2    0  503 -0.21571850828E+02  0.10384625893E+03 -0.85777608158E+03  0.88145232224E+03  0.17300000000E+03 0. -1.
<mgrwt>
<rscale>  2 0.20292459E+03</rscale>
<asrwt>0</asrwt>
<pdfrwt beam="1">  1       21 0.92458017E-02 0.20292459E+03</pdfrwt>
<pdfrwt beam="2">  1       21 0.16660481E+00 0.20292459E+03</pdfrwt>
<totfact> 0.20861907E+04</totfact>
</mgrwt>
</event>
<event>
 4    1  0.4621995E+000  0.2333780E+03  0.7546771E-02  0.1124284E+00
         21   -1    0    0  503  502  0.00000000000E+00  0.00000000000E+00  0.92883830844E+02  0.92883830844E+02  0.00000000000E+00 0.  1.
         21   -1    0    0  501  503 -0.00000000000E+00 -0.00000000000E+00 -0.71974261747E+03  0.71974261747E+03  0.00000000000E+00 0. -1.
          6    1    1    2  501    0 -0.89617558306E+02  0.12847181153E+03 -0.48832857754E+03  0.54123018463E+03  0.17300000000E+03 0. -1.
         -6    1    1    2    0  502  0.89617558306E+02 -0.12847181153E+03 -0.13853020909E+03  0.27139626369E+03  0.17300000000E+03 0.  1.
<mgrwt>
<rscale>  2 0.23337805E+03</rscale>
<asrwt>0</asrwt>
<pdfrwt beam="1">  1       21 0.14289820E-01 0.23337805E+03</pdfrwt>
<pdfrwt beam="2">  1       21 0.11072963E+00 0.23337805E+03</pdfrwt>
<totfact> 0.26914080E+04</totfact>
</mgrwt>
</event>
<event>
 4    1  0.4621995E+000  0.1785361E+03  0.7546771E-02  0.1169227E+00
         21   -1    0    0  501  502  0.00000000000E+00  0.00000000000E+00  0.83821875980E+02  0.83821875980E+02  0.00000000000E+00 0.  1.
         21   -1    0    0  502  503 -0.00000000000E+00 -0.00000000000E+00 -0.38133422964E+03  0.38133422964E+03  0.00000000000E+00 0.  1.
          6    1    1    2  501    0  0.31053468213E+02 -0.31334211717E+02 -0.16102863729E+03  0.24042747917E+03  0.17300000000E+03 0. -1.
         -6    1    1    2    0  503 -0.31053468213E+02  0.31334211717E+02 -0.13648371636E+03  0.22472862645E+03  0.17300000000E+03 0. -1.
<mgrwt>
<rscale>  2 0.17853613E+03</rscale>
<asrwt>0</asrwt>
<pdfrwt beam="1">  1       21 0.12895673E-01 0.17853613E+03</pdfrwt>
<pdfrwt beam="2">  1       21 0.58666805E-01 0.17853613E+03</pdfrwt>
<totfact> 0.14090216E+05</totfact>
</mgrwt>
</event>
<event>
 4    1  0.4621995E+000  0.1736191E+03  0.7546771E-02  0.1174125E+00
         21   -1    0    0  501  502  0.00000000000E+00  0.00000000000E+00  0.64462493819E+03  0.64462493819E+03  0.00000000000E+00 0. -1.
         21   -1    0    0  502  503 -0.00000000000E+00 -0.00000000000E+00 -0.16688348681E+03  0.16688348681E+03  0.00000000000E+00 0. -1.
          6    1    1    2  501    0 -0.10988978922E+02  0.96866068542E+01  0.58311579082E+03  0.60841401489E+03  0.17300000000E+03 0. -1.
         -6    1    1    2    0  503  0.10988978922E+02 -0.96866068542E+01 -0.10537433943E+03  0.20309441012E+03  0.17300000000E+03 0. -1.
<mgrwt>
<rscale>  2 0.17361909E+03</rscale>
<asrwt>0</asrwt>
<pdfrwt beam="1">  1       21 0.99173066E-01 0.17361909E+03</pdfrwt>
<pdfrwt beam="2">  1       21 0.25674383E-01 0.17361909E+03</pdfrwt>
<totfact> 0.12212922E+04</totfact>
</mgrwt>
</event>
<event>
 4    1  0.4621995E+000  0.2730603E+03  0.7546771E-02  0.1099541E+00
         21   -1    0    0  501  502  0.00000000000E+00  0.00000000000E+00  0.18932658149E+04  0.18932658149E+04  0.00000000000E+00 0. -1.
         21   -1    0    0  502  503 -0.00000000000E+00 -0.00000000000E+00 -0.18484106977E+03  0.18484106977E+03  0.00000000000E+00 0. -1.
          6    1    1    2  501    0  0.10023965251E+03 -0.18597024503E+03  0.17759514639E+04  0.17968209488E+04  0.17300000000E+03 0. -1.
         -6    1    1    2    0  503 -0.10023965251E+03  0.18597024503E+03 -0.67526718763E+02  0.28128593587E+03  0.17300000000E+03 0. -1.
<mgrwt>
<rscale>  2 0.27306029E+03</rscale>
<asrwt>0</asrwt>
<pdfrwt beam="1">  1       21 0.29127165E+00 0.27306029E+03</pdfrwt>
<pdfrwt beam="2">  1       21 0.28437089E-01 0.27306029E+03</pdfrwt>
<totfact> 0.41127763E+02</totfact>
</mgrwt>
</event>
<event>
 4    1  0.4621995E+000  0.1757895E+03  0.7546771E-02  0.1171941E+00
         21   -1    0    0  503  502  0.00000000000E+00  0.00000000000E+00  0.26198259062E+03  0.26198259062E+03  0.00000000000E+00 0.  1.
         21   -1    0    0  501  503 -0.00000000000E+00 -0.00000000000E+00 -0.15633078681E+03  0.15633078681E+03  0.00000000000E+00 0.  1.
          6    1    1    2  501    0 -0.26628365948E+02  0.16244556501E+02  0.15645518368E+03  0.23532993858E+03  0.17300000000E+03 0.  1.
         -6    1    1    2    0  502  0.26628365948E+02 -0.16244556501E+02 -0.50803379865E+02  0.18298343885E+03  0.17300000000E+03 0.  1.
<mgrwt>
<rscale>  2 0.17578952E+03</rscale>
<asrwt>0</asrwt>
<pdfrwt beam="1">  1       21 0.40305014E-01 0.17578952E+03</pdfrwt>
<pdfrwt beam="2">  1       21 0.24050890E-01 0.17578952E+03</pdfrwt>
<totfact> 0.97349047E+04</totfact>
</mgrwt>
</event>
<event>
 4    1  0.4621995E+000  0.2282341E+03  0.7546771E-02  0.1127889E+00
         21   -1    0    0  501  502  0.00000000000E+00  0.00000000000E+00  0.30968141168E+03  0.30968141168E+03  0.00000000000E+00 0.  1.
         21   -1    0    0  502  503 -0.00000000000E+00 -0.00000000000E+00 -0.19768046543E+03  0.19768046543E+03  0.00000000000E+00 0. -1.
          6    1    1    2  501    0 -0.90127147147E+02  0.11848595373E+03  0.15395303207E+03  0.27530412268E+03  0.17300000000E+03 0.  1.
         -6    1    1    2    0  503  0.90127147147E+02 -0.11848595373E+03 -0.41952085814E+02  0.23205775442E+03  0.17300000000E+03 0. -1.
<mgrwt>
<rscale>  2 0.22823414E+03</rscale>
<asrwt>0</asrwt>
<pdfrwt beam="1">  1       21 0.47643294E-01 0.22823414E+03</pdfrwt>
<pdfrwt beam="2">  1       21 0.30412379E-01 0.22823414E+03</pdfrwt>
<totfact> 0.42964367E+04</totfact>
</mgrwt>
</event>
<event>
 4    1  0.4621995E+000  0.2209112E+03  0.7546771E-02  0.1133206E+00
         21   -1    0    0  501  502  0.00000000000E+00  0.00000000000E+00  0.88619060372E+03  0.88619060372E+03  0.00000000000E+00 0. -1.
         21   -1    0    0  502  503 -0.00000000000E+00 -0.00000000000E+00 -0.55249772696E+02  0.55249772696E+02  0.00000000000E+00 0.  1.
          6    1    1    2  501    0 -0.13511636300E+03  0.24826101745E+02  0.44238445361E+03  0.49447524879E+03  0.17300000000E+03 0.  1.
         -6    1    1    2    0  503  0.13511636300E+03 -0.24826101745E+02  0.38855637742E+03  0.44696512763E+03  0.17300000000E+03 0. -1.
<mgrwt>
<rscale>  2 0.22091122E+03</rscale>
<asrwt>0</asrwt>
<pdfrwt beam="1">  1       21 0.13633701E+00 0.22091122E+03</pdfrwt>
<pdfrwt beam="2">  1       21 0.84999657E-02 0.22091122E+03</pdfrwt>
<totfact> 0.40715907E+04</totfact>
</mgrwt>
</event>
<event>
 4    1  0.4621995E+000  0.1840117E+03  0.7546771E-02  0.1163976E+00
         21   -1    0    0  503  502  0.00000000000E+00  0.00000000000E+00  0.26877193554E+03  0.26877193554E+03  0.00000000000E+00 0. -1.
         21   -1    0    0  501  503 -0.00000000000E+00 -0.00000000000E+00 -0.36316608990E+03  0.36316608990E+03  0.00000000000E+00 0. -1.
          6    1    1    2  501    0 -0.52394830252E+02 -0.34439714996E+02 -0.30254657756E+03  0.35411120259E+03  0.17300000000E+03 0. -1.
         -6    1    1    2    0  502  0.52394830252E+02  0.34439714996E+02  0.20815242320E+03  0.27782682284E+03  0.17300000000E+03 0. -1.
<mgrwt>
<rscale>  2 0.18401172E+03</rscale>
<asrwt>0</asrwt>
<pdfrwt beam="1">  1       21 0.41349529E-01 0.18401172E+03</pdfrwt>
<pdfrwt beam="2">  1       21 0.55871706E-01 0.18401172E+03</pdfrwt>
<totfact> 0.17082310E+04</totfact>
</mgrwt>
</event>
<event>
 4    1  0.4621995E+000  0.1970054E+03  0.7546771E-02  0.1152290E+00
         21   -1    0    0  501  502  0.00000000000E+00  0.00000000000E+00  0.16246008792E+04  0.16246008792E+04  0.00000000000E+00 0.  1.
         21   -1    0    0  502  503 -0.00000000000E+00 -0.00000000000E+00 -0.28805150500E+02  0.28805150500E+02  0.00000000000E+00 0.  1.
          6    1    1    2  501    0 -0.16111131479E+02 -0.92857774344E+02  0.11394040971E+04  0.11563100066E+04  0.17300000000E+03 0.  1.
         -6    1    1    2    0  503  0.16111131479E+02  0.92857774344E+02  0.45639163159E+03  0.49709602312E+03  0.17300000000E+03 0.  1.
<mgrwt>
<rscale>  2 0.19700542E+03</rscale>
<asrwt>0</asrwt>
<pdfrwt beam="1">  1       21 0.24993853E+00 0.19700542E+03</pdfrwt>
<pdfrwt beam="2">  1       21 0.44315629E-02 0.19700542E+03</pdfrwt>
<totfact> 0.21869657E+04</totfact>
</mgrwt>
</event>
<event>
 4    1  0.4621995E+000  0.2034203E+03  0.7546771E-02  0.1146885E+00
         21   -1    0    0  503  502  0.00000000000E+00  0.00000000000E+00  0.11866120629E+03  0.11866120629E+03  0.00000000000E+00 0. -1.
         21   -1    0    0  501  503 -0.00000000000E+00 -0.00000000000E+00 -0.77830066901E+03  0.77830066901E+03  0.00000000000E+00 0. -1.
          6    1    1    2  501    0 -0.90349857634E+02  0.57338799084E+02 -0.66300928653E+03  0.69351362545E+03  0.17300000000E+03 0. -1.
         -6    1    1    2    0  502  0.90349857634E+02 -0.57338799084E+02  0.33698238168E+01  0.20344824985E+03  0.17300000000E+03 0. -1.
<mgrwt>
<rscale>  2 0.20342034E+03</rscale>
<asrwt>0</asrwt>
<pdfrwt beam="1">  1       21 0.18255571E-01 0.20342034E+03</pdfrwt>
<pdfrwt beam="2">  1       21 0.11973856E+00 0.20342034E+03</pdfrwt>
<totfact> 0.14417977E+04</totfact>
</mgrwt>
</event>
<event>
 4    1  0.4621995E+000  0.1894951E+03  0.7546771E-02  0.1158918E+00
         21   -1    0    0  503  502  0.00000000000E+00  0.00000000000E+00  0.27718392103E+03  0.27718392103E+03  0.00000000000E+00 0. -1.
         21   -1    0    0  501  503 -0.00000000000E+00 -0.00000000000E+00 -0.13322476833E+03  0.13322476833E+03  0.00000000000E+00 0. -1.
          6    1    1    2  501    0  0.54253823141E+02  0.55099110767E+02  0.37885659753E+02  0.19324521352E+03  0.17300000000E+03 0.  1.
         -6    1    1    2    0  502 -0.54253823141E+02 -0.55099110767E+02  0.10607349295E+03  0.21716347584E+03  0.17300000000E+03 0.  1.
<mgrwt>
<rscale>  2 0.18949509E+03</rscale>
<asrwt>0</asrwt>
<pdfrwt beam="1">  1       21 0.42643680E-01 0.18949509E+03</pdfrwt>
<pdfrwt beam="2">  1       21 0.20496118E-01 0.18949509E+03</pdfrwt>
<totfact> 0.11677062E+05</totfact>
</mgrwt>
</event>
<event>
 4    1  0.4621995E+000  0.2216776E+03  0.7546771E-02  0.1132638E+00
         21   -1    0    0  501  502  0.00000000000E+00  0.00000000000E+00  0.37383589390E+02  0.37383589390E+02  0.00000000000E+00 0. -1.
         21   -1    0    0  502  503 -0.00000000000E+00 -0.00000000000E+00 -0.13402251272E+04  0.13402251272E+04  0.00000000000E+00 0. -1.
          6    1    1    2  501    0 -0.11384308919E+03  0.79067752914E+02 -0.74683953082E+03  0.77904444245E+03  0.17300000000E+03 0. -1.
         -6    1    1    2    0  503  0.11384308919E+03 -0.79067752914E+02 -0.55600200697E+03  0.59856427413E+03  0.17300000000E+03 0. -1.
<mgrwt>
<rscale>  2 0.22167760E+03</rscale>
<asrwt>0</asrwt>
<pdfrwt beam="1">  1       21 0.57513217E-02 0.22167760E+03</pdfrwt>
<pdfrwt beam="2">  1       21 0.20618847E+00 0.22167760E+03</pdfrwt>
<totfact> 0.25458383E+04</totfact>
</mgrwt>
</event>
<event>
 4    1  0.4621995E+000  0.2049378E+03  0.7546771E-02  0.1145639E+00
         21   -1    0    0  503  502  0.00000000000E+00  0.00000000000E+00  0.52110745532E+03  0.52110745532E+03  0.00000000000E+00 0. -1.
         21   -1    0    0  501  503 -0.00000000000E+00 -0.00000000000E+00 -0.10999314353E+03  0.10999314353E+03  0.00000000000E+00 0. -1.
          6    1    1    2  501    0  0.73383906425E+02 -0.81763727059E+02  0.42427206268E+02  0.20928347430E+03  0.17300000000E+03 0. -1.
         -6    1    1    2    0  502 -0.73383906425E+02  0.81763727059E+02  0.36868710552E+03  0.42181712455E+03  0.17300000000E+03 0. -1.
<mgrwt>
<rscale>  2 0.20493781E+03</rscale>
<asrwt>0</asrwt>
<pdfrwt beam="1">  1       21 0.80170376E-01 0.20493781E+03</pdfrwt>
<pdfrwt beam="2">  1       21 0.16922022E-01 0.20493781E+03</pdfrwt>
<totfact> 0.42790956E+04</totfact>
</mgrwt>
</event>
<event>
 4    1  0.4621995E+000  0.2603263E+03  0.7546771E-02  0.1106947E+00
         21   -1    0    0  503  502  0.00000000000E+00  0.00000000000E+00  0.80140678661E+02  0.80140678661E+02  0.00000000000E+00 0. -1.
         21   -1    0    0  501  503 -0.00000000000E+00 -0.00000000000E+00 -0.13092400095E+04  0.13092400095E+04  0.00000000000E+00 0. -1.
          6    1    1    2  501    0  0.19429505348E+03  0.94984017851E+01 -0.10279354557E+04  0.10603872352E+04  0.17300000000E+03 0. -1.
         -6    1    1    2    0  502 -0.19429505348E+03 -0.94984017851E+01 -0.20116387514E+03  0.32899345298E+03  0.17300000000E+03 0. -1.
<mgrwt>
<rscale>  2 0.26032631E+03</rscale>
<asrwt>0</asrwt>
<pdfrwt beam="1">  1       21 0.12329336E-01 0.26032631E+03</pdfrwt>
<pdfrwt beam="2">  1       21 0.20142153E+00 0.26032631E+03</pdfrwt>
<totfact> 0.69733030E+03</totfact>
</mgrwt>
</event>
<event>
 4    1  0.4621995E+000  0.1755625E+03  0.7546771E-02  0.1172168E+00
         21   -1    0    0  501  502  0.00000000000E+00  0.00000000000E+00  0.53352883516E+02  0.53352883516E+02  0.00000000000E+00 0.  1.
         21   -1    0    0  502  503 -0.00000000000E+00 -0.00000000000E+00 -0.66276922697E+03  0.66276922697E+03  0.00000000000E+00 0.  1.
          6    1    1    2  501    0 -0.11350835920E+02 -0.27646976328E+02 -0.17643055789E+03  0.24889744581E+03  0.17300000000E+03 0.  1.
         -6    1    1    2    0  503  0.11350835920E+02  0.27646976328E+02 -0.43298578557E+03  0.46722466468E+03  0.17300000000E+03 0.  1.
<mgrwt>
<rscale>  2 0.17556252E+03</rscale>
<asrwt>0</asrwt>
<pdfrwt beam="1">  1       21 0.82081357E-02 0.17556252E+03</pdfrwt>
<pdfrwt beam="2">  1       21 0.10196450E+00 0.17556252E+03</pdfrwt>
<totfact> 0.90601715E+04</totfact>
</mgrwt>
</event>
<event>
 4    1  0.4621995E+000  0.1884620E+03  0.7546771E-02  0.1159856E+00
         21   -1    0    0  503  502  0.00000000000E+00  0.00000000000E+00  0.65354551398E+03  0.65354551398E+03  0.00000000000E+00 0.  1.
         21   -1    0    0  501  503 -0.00000000000E+00 -0.00000000000E+00 -0.59970888177E+02  0.59970888177E+02  0.00000000000E+00 0.  1.
          6    1    1    2  501    0 -0.17190406195E+02  0.72755751789E+02  0.18753227447E+03  0.26586888395E+03  0.17300000000E+03 0.  1.
         -6    1    1    2    0  502  0.17190406195E+02 -0.72755751789E+02  0.40604235133E+03  0.44764751821E+03  0.17300000000E+03 0.  1.
<mgrwt>
<rscale>  2 0.18846196E+03</rscale>
<asrwt>0</asrwt>
<pdfrwt beam="1">  1       21 0.10054546E+00 0.18846196E+03</pdfrwt>
<pdfrwt beam="2">  1       21 0.92262910E-02 0.18846196E+03</pdfrwt>
<totfact> 0.75927600E+04</totfact>
</mgrwt>
</event>
<event>
 4    1  0.4621995E+000  0.1980205E+03  0.7546771E-02  0.1151420E+00
         21   -1    0    0  503  502  0.00000000000E+00  0.00000000000E+00  0.73713544627E+02  0.73713544627E+02  0.00000000000E+00 0. -1.
         21   -1    0    0  501  503 -0.00000000000E+00 -0.00000000000E+00 -0.58399646968E+03  0.58399646968E+03  0.00000000000E+00 0. -1.
          6    1    1    2  501    0 -0.53299833247E+02 -0.80263511267E+02 -0.15697014817E+03  0.25268900032E+03  0.17300000000E+03 0. -1.
         -6    1    1    2    0  502  0.53299833247E+02  0.80263511267E+02 -0.35331277688E+03  0.40502101399E+03  0.17300000000E+03 0. -1.
<mgrwt>
<rscale>  2 0.19802046E+03</rscale>
<asrwt>0</asrwt>
<pdfrwt beam="1">  1       21 0.11340545E-01 0.19802046E+03</pdfrwt>
<pdfrwt beam="2">  1       21 0.89845610E-01 0.19802046E+03</pdfrwt>
<totfact> 0.68296444E+04</totfact>
</mgrwt>
</event>
<event>
 4    1  0.4621995E+000  0.1748987E+03  0.7546771E-02  0.1172833E+00
         21   -1    0    0  501  502  0.00000000000E+00  0.00000000000E+00  0.90611748931E+03  0.90611748931E+03  0.00000000000E+00 0.  1.
         21   -1    0    0  502  503 -0.00000000000E+00 -0.00000000000E+00 -0.34648953210E+02  0.34648953210E+02  0.00000000000E+00 0.  1.
          6    1    1    2  501    0  0.24910216346E+01 -0.25580238869E+02  0.51112331605E+03  0.54021902782E+03  0.17300000000E+03 0. -1.
         -6    1    1    2    0  503 -0.24910216346E+01  0.25580238869E+02  0.36034522006E+03  0.40054741471E+03  0.17300000000E+03 0. -1.
<mgrwt>
<rscale>  2 0.17489870E+03</rscale>
<asrwt>0</asrwt>
<pdfrwt beam="1">  1       21 0.13940267E+00 0.17489870E+03</pdfrwt>
<pdfrwt beam="2">  1       21 0.53306089E-02 0.17489870E+03</pdfrwt>
<totfact> 0.88041974E+04</totfact>
</mgrwt>
</event>
<event>
 4    1  0.4621995E+000  0.2126732E+03  0.7546771E-02  0.1139466E+00
         21   -1    0    0  501  502  0.00000000000E+00  0.00000000000E+00  0.13680381981E+03  0.13680381981E+03  0.00000000000E+00 0. -1.
         21   -1    0    0  502  503 -0.00000000000E+00 -0.00000000000E+00 -0.39958861269E+03  0.39958861269E+03  0.00000000000E+00 0. -1.
          6    1    1    2  501    0  0.57906253943E+02  0.10930578965E+03 -0.24281574084E+03  0.32278378815E+03  0.17300000000E+03 0. -1.
         -6    1    1    2    0  503 -0.57906253943E+02 -0.10930578965E+03 -0.19969052045E+02  0.21360864434E+03  0.17300000000E+03 0. -1.
<mgrwt>
<rscale>  2 0.21267320E+03</rscale>
<asrwt>0</asrwt>
<pdfrwt beam="1">  1       21 0.21046742E-01 0.21267320E+03</pdfrwt>
<pdfrwt beam="2">  1       21 0.61475171E-01 0.21267320E+03</pdfrwt>
<totfact> 0.51100602E+04</totfact>
</mgrwt>
</event>
<event>
 4    1  0.4621995E+000  0.2379974E+03  0.7546771E-02  0.1121134E+00
         21   -1    0    0  501  502  0.00000000000E+00  0.00000000000E+00  0.43465328766E+03  0.43465328766E+03  0.00000000000E+00 0. -1.
         21   -1    0    0  502  503 -0.00000000000E+00 -0.00000000000E+00 -0.55654527287E+03  0.55654527287E+03  0.00000000000E+00 0. -1.
          6    1    1    2  501    0  0.67634859360E+02 -0.14879273726E+03  0.37276606653E+03  0.44226382761E+03  0.17300000000E+03 0. -1.
         -6    1    1    2    0  503 -0.67634859360E+02  0.14879273726E+03 -0.49465805174E+03  0.54893473292E+03  0.17300000000E+03 0. -1.
<mgrwt>
<rscale>  2 0.23799738E+03</rscale>
<asrwt>0</asrwt>
<pdfrwt beam="1">  1       21 0.66869737E-01 0.23799738E+03</pdfrwt>
<pdfrwt beam="2">  1       21 0.85622349E-01 0.23799738E+03</pdfrwt>
<totfact> 0.23264626E+03</totfact>
</mgrwt>
</event>
<event>
 4    1  0.4621995E+000  0.2248874E+03  0.7546771E-02  0.1130291E+00
         21   -1    0    0  501  502  0.00000000000E+00  0.00000000000E+00  0.69989220756E+03  0.69989220756E+03  0.00000000000E+00 0. -1.
         21   -1    0    0  502  503 -0.00000000000E+00 -0.00000000000E+00 -0.75178773850E+02  0.75178773850E+02  0.00000000000E+00 0.  1.
          6    1    1    2  501    0 -0.60877077032E+01 -0.14355592461E+03  0.38871353939E+03  0.44907970270E+03  0.17300000000E+03 0.  1.
         -6    1    1    2    0  503  0.60877077032E+01  0.14355592461E+03  0.23599989432E+03  0.32599127871E+03  0.17300000000E+03 0. -1.
<mgrwt>
<rscale>  2 0.22488745E+03</rscale>
<asrwt>0</asrwt>
<pdfrwt beam="1">  1       21 0.10767572E+00 0.22488745E+03</pdfrwt>
<pdfrwt beam="2">  1       21 0.11565966E-01 0.22488745E+03</pdfrwt>
<totfact> 0.42386073E+04</totfact>
</mgrwt>
</event>
<event>
 4    1  0.4621995E+000  0.2090283E+03  0.7546771E-02  0.1142338E+00
         21   -1    0    0  503  502  0.00000000000E+00  0.00000000000E+00  0.26030341572E+03  0.26030341572E+03  0.00000000000E+00 0.  1.
         21   -1    0    0  501  503 -0.00000000000E+00 -0.00000000000E+00 -0.18764980143E+03  0.18764980143E+03  0.00000000000E+00 0. -1.
          6    1    1    2  501    0  0.43810511069E+02 -0.10883232492E+03 -0.36421147749E+02  0.21217760445E+03  0.17300000000E+03 0.  1.
         -6    1    1    2    0  502 -0.43810511069E+02  0.10883232492E+03  0.10907476203E+03  0.23577561269E+03  0.17300000000E+03 0. -1.
<mgrwt>
<rscale>  2 0.20902831E+03</rscale>
<asrwt>0</asrwt>
<pdfrwt beam="1">  1       21 0.40046679E-01 0.20902831E+03</pdfrwt>
<pdfrwt beam="2">  1       21 0.28869200E-01 0.20902831E+03</pdfrwt>
<totfact> 0.68503388E+04</totfact>
</mgrwt>
</event>
<event>
 4    1  0.4621995E+000  0.1959229E+03  0.7546771E-02  0.1153225E+00
         21   -1    0    0  503  502  0.00000000000E+00  0.00000000000E+00  0.27337723198E+03  0.27337723198E+03  0.00000000000E+00 0. -1.
         21   -1    0    0  501  503 -0.00000000000E+00 -0.00000000000E+00 -0.69242455366E+03  0.69242455366E+03  0.00000000000E+00 0.  1.
          6    1    1    2  501    0  0.62131258968E+02  0.67797418320E+02 -0.64069091227E+03  0.66997808049E+03  0.17300000000E+03 0.  1.
         -6    1    1    2    0  502 -0.62131258968E+02 -0.67797418320E+02  0.22164359060E+03  0.29582370514E+03  0.17300000000E+03 0. -1.
<mgrwt>
<rscale>  2 0.19592290E+03</rscale>
<asrwt>0</asrwt>
<pdfrwt beam="1">  1       21 0.42058037E-01 0.19592290E+03</pdfrwt>
<pdfrwt beam="2">  1       21 0.10652685E+00 0.19592290E+03</pdfrwt>
<totfact> 0.38292539E+03</totfact>
</mgrwt>
</event>
<event>
 4    1  0.4621995E+000  0.1742701E+03  0.7546771E-02  0.1173467E+00
         21   -1    0    0  503  502  0.00000000000E+00  0.00000000000E+00  0.75510165503E+03  0.75510165503E+03  0.00000000000E+00 0.  1.
         21   -1    0    0  501  503 -0.00000000000E+00 -0.00000000000E+00 -0.40247507547E+02  0.40247507547E+02  0.00000000000E+00 0.  1.
          6    1    1    2  501    0 -0.18878687606E+02  0.92017303778E+01  0.36785146587E+03  0.40704395049E+03  0.17300000000E+03 0.  1.
         -6    1    1    2    0  502  0.18878687606E+02 -0.92017303778E+01  0.34700268161E+03  0.38830521208E+03  0.17300000000E+03 0.  1.
<mgrwt>
<rscale>  2 0.17427013E+03</rscale>
<asrwt>0</asrwt>
<pdfrwt beam="1">  1       21 0.11616947E+00 0.17427013E+03</pdfrwt>
<pdfrwt beam="2">  1       21 0.61919248E-02 0.17427013E+03</pdfrwt>
<totfact> 0.10769191E+05</totfact>
</mgrwt>
</event>
<event>
 4    1  0.4621995E+000  0.1885279E+03  0.7546771E-02  0.1159796E+00
         21   -1    0    0  501  502  0.00000000000E+00  0.00000000000E+00  0.11204431074E+04  0.11204431074E+04  0.00000000000E+00 0.  1.
         21   -1    0    0  502  503 -0.00000000000E+00 -0.00000000000E+00 -0.71297112856E+02  0.71297112856E+02  0.00000000000E+00 0.  1.
          6    1    1    2  501    0  0.74007523921E+02 -0.11689453595E+02  0.96851518006E+03  0.98669367634E+03  0.17300000000E+03 0.  1.
         -6    1    1    2    0  503 -0.74007523921E+02  0.11689453595E+02  0.80630814462E+02  0.20504654389E+03  0.17300000000E+03 0.  1.
<mgrwt>
<rscale>  2 0.18852787E+03</rscale>
<asrwt>0</asrwt>
<pdfrwt beam="1">  1       21 0.17237585E+00 0.18852787E+03</pdfrwt>
<pdfrwt beam="2">  1       21 0.10968787E-01 0.18852787E+03</pdfrwt>
<totfact> 0.14189623E+04</totfact>
</mgrwt>
</event>
<event>
 4    1  0.4621995E+000  0.1753144E+03  0.7546771E-02  0.1172416E+00
         21   -1    0    0  501  502  0.00000000000E+00  0.00000000000E+00  0.22586829707E+03  0.22586829707E+03  0.00000000000E+00 0.  1.
         21   -1    0    0  502  503 -0.00000000000E+00 -0.00000000000E+00 -0.33890130664E+03  0.33890130664E+03  0.00000000000E+00 0.  1.
          6    1    1    2  501    0 -0.25296036567E+02  0.12893869366E+02  0.16194066550E+03  0.23866277564E+03  0.17300000000E+03 0.  1.
         -6    1    1    2    0  503  0.25296036567E+02 -0.12893869366E+02 -0.27497367507E+03  0.32610682807E+03  0.17300000000E+03 0.  1.
<mgrwt>
<rscale>  2 0.17531441E+03</rscale>
<asrwt>0</asrwt>
<pdfrwt beam="1">  1       21 0.34748969E-01 0.17531441E+03</pdfrwt>
<pdfrwt beam="2">  1       21 0.52138662E-01 0.17531441E+03</pdfrwt>
<totfact> 0.28135272E+04</totfact>
</mgrwt>
</event>
<event>
 4    1  0.4621995E+000  0.2257565E+03  0.7546771E-02  0.1129663E+00
         21   -1    0    0  501  502  0.00000000000E+00  0.00000000000E+00  0.44739254284E+03  0.44739254284E+03  0.00000000000E+00 0.  1.
         21   -1    0    0  502  503 -0.00000000000E+00 -0.00000000000E+00 -0.13533852386E+03  0.13533852386E+03  0.00000000000E+00 0. -1.
          6    1    1    2  501    0 -0.10948442674E+03  0.95132333292E+02  0.27194315559E+03  0.35343893448E+03  0.17300000000E+03 0. -1.
         -6    1    1    2    0  503  0.10948442674E+03 -0.95132333292E+02  0.40110863384E+02  0.22929213222E+03  0.17300000000E+03 0. -1.
<mgrwt>
<rscale>  2 0.22575651E+03</rscale>
<asrwt>0</asrwt>
<pdfrwt beam="1">  1       21 0.68829621E-01 0.22575651E+03</pdfrwt>
<pdfrwt beam="2">  1       21 0.20821312E-01 0.22575651E+03</pdfrwt>
<totfact> 0.40494434E+04</totfact>
</mgrwt>
</event>
<event>
 4    1  0.4621995E+000  0.1859387E+03  0.7546771E-02  0.1162176E+00
         21   -1    0    0  503  502  0.00000000000E+00  0.00000000000E+00  0.14989376896E+04  0.14989376896E+04  0.00000000000E+00 0.  1.
         21   -1    0    0  501  503 -0.00000000000E+00 -0.00000000000E+00 -0.23085910135E+02  0.23085910135E+02  0.00000000000E+00 0.  1.
          6    1    1    2  501    0 -0.18156454031E+02 -0.65685293767E+02  0.71510204153E+03  0.73888033161E+03  0.17300000000E+03 0.  1.
         -6    1    1    2    0  502  0.18156454031E+02  0.65685293767E+02  0.76074973794E+03  0.78314326813E+03  0.17300000000E+03 0.  1.
<mgrwt>
<rscale>  2 0.18593874E+03</rscale>
<asrwt>0</asrwt>
<pdfrwt beam="1">  1       21 0.23060572E+00 0.18593874E+03</pdfrwt>
<pdfrwt beam="2">  1       21 0.35516797E-02 0.18593874E+03</pdfrwt>
<totfact> 0.41662398E+04</totfact>
</mgrwt>
</event>
<event>
 4    1  0.4621995E+000  0.3022656E+03  0.7546771E-02  0.1084114E+00
         21   -1    0    0  501  502  0.00000000000E+00  0.00000000000E+00  0.19616565661E+04  0.19616565661E+04  0.00000000000E+00 0. -1.
         21   -1    0    0  502  503 -0.00000000000E+00 -0.00000000000E+00 -0.49813879049E+02  0.49813879049E+02  0.00000000000E+00 0. -1.
          6    1    1    2  501    0  0.21375094201E+03 -0.12548315596E+03  0.12123664762E+04  0.12494786754E+04  0.17300000000E+03 0. -1.
         -6    1    1    2    0  503 -0.21375094201E+03  0.12548315596E+03  0.69947621087E+03  0.76199176978E+03  0.17300000000E+03 0. -1.
<mgrwt>
<rscale>  2 0.30226559E+03</rscale>
<asrwt>0</asrwt>
<pdfrwt beam="1">  1       21 0.30179326E+00 0.30226559E+03</pdfrwt>
<pdfrwt beam="2">  1       21 0.76636752E-02 0.30226559E+03</pdfrwt>
<totfact> 0.38878240E+03</totfact>
</mgrwt>
</event>
<event>
 4    1  0.4621995E+000  0.1794626E+03  0.7546771E-02  0.1168324E+00
         21   -1    0    0  501  502  0.00000000000E+00  0.00000000000E+00  0.49169228282E+02  0.49169228282E+02  0.00000000000E+00 0. -1.
         21   -1    0    0  502  503 -0.00000000000E+00 -0.00000000000E+00 -0.11424901838E+04  0.11424901838E+04  0.00000000000E+00 0. -1.
          6    1    1    2  501    0 -0.27248299446E+02  0.39183421010E+02 -0.15746292458E+03  0.23874962392E+03  0.17300000000E+03 0. -1.
         -6    1    1    2    0  503  0.27248299446E+02 -0.39183421010E+02 -0.93585803093E+03  0.95290978816E+03  0.17300000000E+03 0. -1.
<mgrwt>
<rscale>  2 0.17946256E+03</rscale>
<asrwt>0</asrwt>
<pdfrwt beam="1">  1       21 0.75644967E-02 0.17946256E+03</pdfrwt>
<pdfrwt beam="2">  1       21 0.17576772E+00 0.17946256E+03</pdfrwt>
<totfact> 0.25964629E+04</totfact>
</mgrwt>
</event>
<event>
 4    1  0.4621995E+000  0.2021255E+03  0.7546771E-02  0.1147958E+00
         21   -1    0    0  501  502  0.00000000000E+00  0.00000000000E+00  0.12599648651E+04  0.12599648651E+04  0.00000000000E+00 0. -1.
         21   -1    0    0  502  503 -0.00000000000E+00 -0.00000000000E+00 -0.38374889222E+02  0.38374889222E+02  0.00000000000E+00 0. -1.
          6    1    1    2  501    0  0.10415894271E+03  0.87541013297E+01  0.86640557417E+03  0.88967035389E+03  0.17300000000E+03 0. -1.
         -6    1    1    2    0  503 -0.10415894271E+03 -0.87541013297E+01  0.35518440174E+03  0.40866940047E+03  0.17300000000E+03 0. -1.
<mgrwt>
<rscale>  2 0.20212550E+03</rscale>
<asrwt>0</asrwt>
<pdfrwt beam="1">  1       21 0.19384072E+00 0.20212550E+03</pdfrwt>
<pdfrwt beam="2">  1       21 0.59038301E-02 0.20212550E+03</pdfrwt>
<totfact> 0.29636822E+04</totfact>
</mgrwt>
</event>
<event>
 4    1  0.4621995E+000  0.2205998E+03  0.7546771E-02  0.1133437E+00
         21   -1    0    0  503  502  0.00000000000E+00  0.00000000000E+00  0.13142315352E+04  0.13142315352E+04  0.00000000000E+00 0.  1.
         21   -1    0    0  501  503 -0.00000000000E+00 -0.00000000000E+00 -0.41964529648E+02  0.41964529648E+02  0.00000000000E+00 0.  1.
          6    1    1    2  501    0  0.17783341834E+02  0.13571670278E+03  0.86869181869E+03  0.89626432849E+03  0.17300000000E+03 0.  1.
         -6    1    1    2    0  502 -0.17783341834E+02 -0.13571670278E+03  0.40357518685E+03  0.45993173635E+03  0.17300000000E+03 0.  1.
<mgrwt>
<rscale>  2 0.22059980E+03</rscale>
<asrwt>0</asrwt>
<pdfrwt beam="1">  1       21 0.20218944E+00 0.22059980E+03</pdfrwt>
<pdfrwt beam="2">  1       21 0.64560825E-02 0.22059980E+03</pdfrwt>
<totfact> 0.22153058E+04</totfact>
</mgrwt>
</event>
<event>
 4    1  0.4621995E+000  0.2526174E+03  0.7546771E-02  0.1111662E+00
         21   -1    0    0  501  502  0.00000000000E+00  0.00000000000E+00  0.62747208470E+02  0.62747208470E+02  0.00000000000E+00 0. -1.
         21   -1    0    0  502  503 -0.00000000000E+00 -0.00000000000E+00 -0.18419813900E+04  0.18419813900E+04  0.00000000000E+00 0. -1.
          6    1    1    2  501    0 -0.80359814435E+02 -0.16561655310E+03 -0.25227042222E+03  0.35700967545E+03  0.17300000000E+03 0. -1.
         -6    1    1    2    0  503  0.80359814435E+02  0.16561655310E+03 -0.15269637593E+04  0.15477189230E+04  0.17300000000E+03 0. -1.
<mgrwt>
<rscale>  2 0.25261738E+03</rscale>
<asrwt>0</asrwt>
<pdfrwt beam="1">  1       21 0.96534159E-02 0.25261738E+03</pdfrwt>
<pdfrwt beam="2">  1       21 0.28338177E+00 0.25261738E+03</pdfrwt>
<totfact> 0.34563321E+03</totfact>
</mgrwt>
</event>
<event>
 4    1  0.4621995E+000  0.1806268E+03  0.7546771E-02  0.1167198E+00
         21   -1    0    0  503  502  0.00000000000E+00  0.00000000000E+00  0.71501963205E+03  0.71501963205E+03  0.00000000000E+00 0.  1.
         21   -1    0    0  501  503 -0.00000000000E+00 -0.00000000000E+00 -0.50087087009E+02  0.50087087009E+02  0.00000000000E+00 0.  1.
          6    1    1    2  501    0 -0.10542940155E+02  0.50851630973E+02  0.21834269123E+03  0.28337179248E+03  0.17300000000E+03 0.  1.
         -6    1    1    2    0  502  0.10542940155E+02 -0.50851630973E+02  0.44658985381E+03  0.48173492658E+03  0.17300000000E+03 0.  1.
<mgrwt>
<rscale>  2 0.18062680E+03</rscale>
<asrwt>0</asrwt>
<pdfrwt beam="1">  1       21 0.11000301E+00 0.18062680E+03</pdfrwt>
<pdfrwt beam="2">  1       21 0.77057062E-02 0.18062680E+03</pdfrwt>
<totfact> 0.84093110E+04</totfact>
</mgrwt>
</event>
<event>
 4    1  0.4621995E+000  0.2079282E+03  0.7546771E-02  0.1143217E+00
         21   -1    0    0  503  502  0.00000000000E+00  0.00000000000E+00  0.18946420911E+03  0.18946420911E+03  0.00000000000E+00 0. -1.
         21   -1    0    0  501  503 -0.00000000000E+00 -0.00000000000E+00 -0.22841670698E+03  0.22841670698E+03  0.00000000000E+00 0. -1.
          6    1    1    2  501    0 -0.11246227262E+03 -0.25638960756E+02 -0.12915327853E+02  0.20832888606E+03  0.17300000000E+03 0. -1.
         -6    1    1    2    0  502  0.11246227262E+03  0.25638960756E+02 -0.26037170018E+02  0.20955203004E+03  0.17300000000E+03 0. -1.
<mgrwt>
<rscale>  2 0.20792816E+03</rscale>
<asrwt>0</asrwt>
<pdfrwt beam="1">  1       21 0.29148340E-01 0.20792816E+03</pdfrwt>
<pdfrwt beam="2">  1       21 0.35141032E-01 0.20792816E+03</pdfrwt>
<totfact> 0.87427644E+04</totfact>
</mgrwt>
</event>
<event>
 4    1  0.4621995E+000  0.1921438E+03  0.7546771E-02  0.1156542E+00
         21   -1    0    0  503  502  0.00000000000E+00  0.00000000000E+00  0.36068645655E+02  0.36068645655E+02  0.00000000000E+00 0.  1.
         21   -1    0    0  501  503 -0.00000000000E+00 -0.00000000000E+00 -0.16931076377E+04  0.16931076377E+04  0.00000000000E+00 0.  1.
          6    1    1    2  501    0 -0.76474644298E+02 -0.33791666558E+02 -0.13722082038E+04  0.13855953964E+04  0.17300000000E+03 0.  1.
         -6    1    1    2    0  502  0.76474644298E+02  0.33791666558E+02 -0.28483078826E+03  0.34358088697E+03  0.17300000000E+03 0.  1.
<mgrwt>
<rscale>  2 0.19214382E+03</rscale>
<asrwt>0</asrwt>
<pdfrwt beam="1">  1       21 0.55490211E-02 0.19214382E+03</pdfrwt>
<pdfrwt beam="2">  1       21 0.26047816E+00 0.19214382E+03</pdfrwt>
<totfact> 0.13016236E+04</totfact>
</mgrwt>
</event>
<event>
 4    1  0.4621995E+000  0.2481714E+03  0.7546771E-02  0.1114466E+00
         21   -1    0    0  503  502  0.00000000000E+00  0.00000000000E+00  0.60867076193E+03  0.60867076193E+03  0.00000000000E+00 0. -1.
         21   -1    0    0  501  503 -0.00000000000E+00 -0.00000000000E+00 -0.13740863015E+03  0.13740863015E+03  0.00000000000E+00 0.  1.
          6    1    1    2  501    0  0.17586959190E+03 -0.27017603571E+02  0.44100979455E+02  0.25205943872E+03  0.17300000000E+03 0.  1.
         -6    1    1    2    0  502 -0.17586959190E+03  0.27017603571E+02  0.42716115233E+03  0.49401995336E+03  0.17300000000E+03 0. -1.
<mgrwt>
<rscale>  2 0.24817144E+03</rscale>
<asrwt>0</asrwt>
<pdfrwt beam="1">  1       21 0.93641654E-01 0.24817144E+03</pdfrwt>
<pdfrwt beam="2">  1       21 0.21139790E-01 0.24817144E+03</pdfrwt>
<totfact> 0.19318285E+04</totfact>
</mgrwt>
</event>
<event>
 4    1  0.4621995E+000  0.2555363E+03  0.7546771E-02  0.1109855E+00
         21   -1    0    0  503  502  0.00000000000E+00  0.00000000000E+00  0.80283068818E+02  0.80283068818E+02  0.00000000000E+00 0.  1.
         21   -1    0    0  501  503 -0.00000000000E+00 -0.00000000000E+00 -0.87130536865E+03  0.87130536865E+03  0.00000000000E+00 0. -1.
          6    1    1    2  501    0  0.46199405716E+02 -0.18230585913E+03 -0.51821377556E+03  0.57779263455E+03  0.17300000000E+03 0. -1.
         -6    1    1    2    0  502 -0.46199405716E+02  0.18230585913E+03 -0.27280852428E+03  0.37379580292E+03  0.17300000000E+03 0.  1.
<mgrwt>
<rscale>  2 0.25553632E+03</rscale>
<asrwt>0</asrwt>
<pdfrwt beam="1">  1       21 0.12351241E-01 0.25553632E+03</pdfrwt>
<pdfrwt beam="2">  1       21 0.13404698E+00 0.25553632E+03</pdfrwt>
<totfact> 0.21493404E+04</totfact>
</mgrwt>
</event>
<event>
 4    1  0.4621995E+000  0.2302591E+03  0.7546771E-02  0.1126458E+00
         21   -1    0    0  501  502  0.00000000000E+00  0.00000000000E+00  0.43809921341E+03  0.43809921341E+03  0.00000000000E+00 0.  1.
         21   -1    0    0  502  503 -0.00000000000E+00 -0.00000000000E+00 -0.40835316244E+03  0.40835316244E+03  0.00000000000E+00 0.  1.
          6    1    1    2  501    0 -0.51348040754E+02 -0.14301619041E+03  0.36988794970E+03  0.43570213144E+03  0.17300000000E+03 0.  1.
         -6    1    1    2    0  503  0.51348040754E+02  0.14301619041E+03 -0.34014189874E+03  0.41075024441E+03  0.17300000000E+03 0.  1.
<mgrwt>
<rscale>  2 0.23025910E+03</rscale>
<asrwt>0</asrwt>
<pdfrwt beam="1">  1       21 0.67399879E-01 0.23025910E+03</pdfrwt>
<pdfrwt beam="2">  1       21 0.62823564E-01 0.23025910E+03</pdfrwt>
<totfact> 0.45945825E+03</totfact>
</mgrwt>
</event>
<event>
 4    1  0.4621995E+000  0.1749486E+03  0.7546771E-02  0.1172783E+00
         21   -1    0    0  501  502  0.00000000000E+00  0.00000000000E+00  0.24455077938E+03  0.24455077938E+03  0.00000000000E+00 0.  1.
         21   -1    0    0  502  503 -0.00000000000E+00 -0.00000000000E+00 -0.12520653725E+03  0.12520653725E+03  0.00000000000E+00 0.  1.
          6    1    1    2  501    0  0.11247483868E+02 -0.23484444710E+02  0.63382275603E+02  0.18607616155E+03  0.17300000000E+03 0. -1.
         -6    1    1    2    0  503 -0.11247483868E+02  0.23484444710E+02  0.55961966526E+02  0.18368115509E+03  0.17300000000E+03 0. -1.
<mgrwt>
<rscale>  2 0.17494864E+03</rscale>
<asrwt>0</asrwt>
<pdfrwt beam="1">  1       21 0.37623197E-01 0.17494864E+03</pdfrwt>
<pdfrwt beam="2">  1       21 0.19262544E-01 0.17494864E+03</pdfrwt>
<totfact> 0.16960813E+05</totfact>
</mgrwt>
</event>
<event>
 4    1  0.4621995E+000  0.2213999E+03  0.7546771E-02  0.1132844E+00
         21   -1    0    0  501  502  0.00000000000E+00  0.00000000000E+00  0.92890220053E+02  0.92890220053E+02  0.00000000000E+00 0.  1.
         21   -1    0    0  502  503 -0.00000000000E+00 -0.00000000000E+00 -0.85012004988E+03  0.85012004988E+03  0.00000000000E+00 0.  1.
          6    1    1    2  501    0 -0.11891491467E+03  0.70343200341E+02 -0.88239994418E+02  0.23833635765E+03  0.17300000000E+03 0.  1.
         -6    1    1    2    0  503  0.11891491467E+03 -0.70343200341E+02 -0.66898983541E+03  0.70467391228E+03  0.17300000000E+03 0.  1.
<mgrwt>
<rscale>  2 0.22139992E+03</rscale>
<asrwt>0</asrwt>
<pdfrwt beam="1">  1       21 0.14290804E-01 0.22139992E+03</pdfrwt>
<pdfrwt beam="2">  1       21 0.13078770E+00 0.22139992E+03</pdfrwt>
<totfact> 0.17903842E+04</totfact>
</mgrwt>
</event>
<event>
 4    1  0.4621995E+000  0.2165723E+03  0.7546771E-02  0.1136465E+00
         21   -1    0    0  501  502  0.00000000000E+00  0.00000000000E+00  0.38990568100E+02  0.38990568100E+02  0.00000000000E+00 0. -1.
         21   -1    0    0  502  503 -0.00000000000E+00 -0.00000000000E+00 -0.15335221437E+04  0.15335221437E+04  0.00000000000E+00 0. -1.
          6    1    1    2  501    0 -0.78374911498E+02 -0.10407660075E+03 -0.38221389820E+03  0.43930744309E+03  0.17300000000E+03 0. -1.
         -6    1    1    2    0  503  0.78374911498E+02  0.10407660075E+03 -0.11123176774E+04  0.11332052687E+04  0.17300000000E+03 0. -1.
<mgrwt>
<rscale>  2 0.21657231E+03</rscale>
<asrwt>0</asrwt>
<pdfrwt beam="1">  1       21 0.59985490E-02 0.21657231E+03</pdfrwt>
<pdfrwt beam="2">  1       21 0.23592648E+00 0.21657231E+03</pdfrwt>
<totfact> 0.15577929E+04</totfact>
</mgrwt>
</event>
<event>
 4    1  0.4621995E+000  0.2341313E+03  0.7546771E-02  0.1123765E+00
         21   -1    0    0  501  502  0.00000000000E+00  0.00000000000E+00  0.15042520974E+04  0.15042520974E+04  0.00000000000E+00 0. -1.
         21   -1    0    0  502  503 -0.00000000000E+00 -0.00000000000E+00 -0.52361396793E+02  0.52361396793E+02  0.00000000000E+00 0. -1.
          6    1    1    2  501    0  0.68180648814E+02 -0.14226688490E+03  0.11550990969E+04  0.11785887285E+04  0.17300000000E+03 0. -1.
         -6    1    1    2    0  503 -0.68180648814E+02  0.14226688490E+03  0.29679160375E+03  0.37802476568E+03  0.17300000000E+03 0. -1.
<mgrwt>
<rscale>  2 0.23413130E+03</rscale>
<asrwt>0</asrwt>
<pdfrwt beam="1">  1       21 0.23142337E+00 0.23413130E+03</pdfrwt>
<pdfrwt beam="2">  1       21 0.80556007E-02 0.23413130E+03</pdfrwt>
<totfact> 0.98139845E+03</totfact>
</mgrwt>
</event>
<event>
 4    1  0.4621995E+000  0.2219191E+03  0.7546771E-02  0.1132460E+00
         21   -1    0    0  503  502  0.00000000000E+00  0.00000000000E+00  0.85569744126E+03  0.85569744126E+03  0.00000000000E+00 0. -1.
         21   -1    0    0  501  503 -0.00000000000E+00 -0.00000000000E+00 -0.58313485378E+02  0.58313485378E+02  0.00000000000E+00 0. -1.
          6    1    1    2  501    0  0.89647789359E+02 -0.10621837429E+03  0.45087679552E+03  0.50253154519E+03  0.17300000000E+03 0.  1.
         -6    1    1    2    0  502 -0.89647789359E+02  0.10621837429E+03  0.34650716036E+03  0.41147938144E+03  0.17300000000E+03 0.  1.
<mgrwt>
<rscale>  2 0.22191906E+03</rscale>
<asrwt>0</asrwt>
<pdfrwt beam="1">  1       21 0.13164575E+00 0.22191906E+03</pdfrwt>
<pdfrwt beam="2">  1       21 0.89713061E-02 0.22191906E+03</pdfrwt>
<totfact> 0.40475655E+04</totfact>
</mgrwt>
</event>
<event>
 4    1  0.4621995E+000  0.1915581E+03  0.7546771E-02  0.1157064E+00
         21   -1    0    0  503  502  0.00000000000E+00  0.00000000000E+00  0.50130445233E+03  0.50130445233E+03  0.00000000000E+00 0.  1.
         21   -1    0    0  501  503 -0.00000000000E+00 -0.00000000000E+00 -0.83287906301E+02  0.83287906301E+02  0.00000000000E+00 0.  1.
          6    1    1    2  501    0 -0.45817080911E+02  0.68310201646E+02  0.10727207411E+03  0.21954905246E+03  0.17300000000E+03 0.  1.
         -6    1    1    2    0  502  0.45817080911E+02 -0.68310201646E+02  0.31074447192E+03  0.36504330617E+03  0.17300000000E+03 0.  1.
<mgrwt>
<rscale>  2 0.19155806E+03</rscale>
<asrwt>0</asrwt>
<pdfrwt beam="1">  1       21 0.77123760E-01 0.19155806E+03</pdfrwt>
<pdfrwt beam="2">  1       21 0.12813524E-01 0.19155806E+03</pdfrwt>
<totfact> 0.77959018E+04</totfact>
</mgrwt>
</event>
<event>
 4    1  0.4621995E+000  0.2309097E+03  0.7546771E-02  0.1126001E+00
         21   -1    0    0  501  502  0.00000000000E+00  0.00000000000E+00  0.55011440301E+03  0.55011440301E+03  0.00000000000E+00 0.  1.
         21   -1    0    0  502  503 -0.00000000000E+00 -0.00000000000E+00 -0.10095294547E+03  0.10095294547E+03  0.00000000000E+00 0. -1.
          6    1    1    2  501    0  0.14737256279E+03  0.40885536946E+02  0.28961331718E+03  0.37039866750E+03  0.17300000000E+03 0.  1.
         -6    1    1    2    0  503 -0.14737256279E+03 -0.40885536946E+02  0.15954814036E+03  0.28066868099E+03  0.17300000000E+03 0. -1.
<mgrwt>
<rscale>  2 0.23090972E+03</rscale>
<asrwt>0</asrwt>
<pdfrwt beam="1">  1       21 0.84632983E-01 0.23090972E+03</pdfrwt>
<pdfrwt beam="2">  1       21 0.15531223E-01 0.23090972E+03</pdfrwt>
<totfact> 0.43723059E+04</totfact>
</mgrwt>
</event>
<event>
 4    1  0.4621995E+000  0.2036403E+03  0.7546771E-02  0.1146703E+00
         21   -1    0    0  503  502  0.00000000000E+00  0.00000000000E+00  0.10283606418E+03  0.10283606418E+03  0.00000000000E+00 0. -1.
         21   -1    0    0  501  503 -0.00000000000E+00 -0.00000000000E+00 -0.15368380745E+04  0.15368380745E+04  0.00000000000E+00 0. -1.
          6    1    1    2  501    0  0.71587025266E+02 -0.80097994292E+02 -0.14211097472E+04  0.14356261019E+04  0.17300000000E+03 0. -1.
         -6    1    1    2    0  502 -0.71587025266E+02  0.80097994292E+02 -0.12892263151E+02  0.20404803681E+03  0.17300000000E+03 0. -1.
<mgrwt>
<rscale>  2 0.20364035E+03</rscale>
<asrwt>0</asrwt>
<pdfrwt beam="1">  1       21 0.15820932E-01 0.20364035E+03</pdfrwt>
<pdfrwt beam="2">  1       21 0.23643664E+00 0.20364035E+03</pdfrwt>
<totfact> 0.28148283E+03</totfact>
</mgrwt>
</event>
<event>
 4    1  0.4621995E+000  0.2455155E+03  0.7546771E-02  0.1116172E+00
         21   -1    0    0  501  502  0.00000000000E+00  0.00000000000E+00  0.18321413755E+03  0.18321413755E+03  0.00000000000E+00 0. -1.
         21   -1    0    0  502  503 -0.00000000000E+00 -0.00000000000E+00 -0.33335660482E+03  0.33335660482E+03  0.00000000000E+00 0. -1.
          6    1    1    2  501    0 -0.15194203917E+03 -0.85220046704E+02 -0.10459105180E+03  0.26686537382E+03  0.17300000000E+03 0. -1.
         -6    1    1    2    0  503  0.15194203917E+03  0.85220046704E+02 -0.45551415472E+02  0.24970536855E+03  0.17300000000E+03 0. -1.
<mgrwt>
<rscale>  2 0.24551546E+03</rscale>
<asrwt>0</asrwt>
<pdfrwt beam="1">  1       21 0.28186790E-01 0.24551546E+03</pdfrwt>
<pdfrwt beam="2">  1       21 0.51285632E-01 0.24551546E+03</pdfrwt>
<totfact> 0.42402821E+04</totfact>
</mgrwt>
</event>
<event>
 4    1  0.4621995E+000  0.2141954E+03  0.7546771E-02  0.1138286E+00
         21   -1    0    0  501  502  0.00000000000E+00  0.00000000000E+00  0.86919479781E+02  0.86919479781E+02  0.00000000000E+00 0.  1.
         21   -1    0    0  502  503 -0.00000000000E+00 -0.00000000000E+00 -0.73097705541E+03  0.73097705541E+03  0.00000000000E+00 0.  1.
          6    1    1    2  501    0  0.61728264578E+02  0.11018300895E+03 -0.10644807818E+03  0.23918793334E+03  0.17300000000E+03 0.  1.
         -6    1    1    2    0  503 -0.61728264578E+02 -0.11018300895E+03 -0.53760949745E+03  0.57870860185E+03  0.17300000000E+03 0.  1.
<mgrwt>
<rscale>  2 0.21419541E+03</rscale>
<asrwt>0</asrwt>
<pdfrwt beam="1">  1       21 0.13372228E-01 0.21419541E+03</pdfrwt>
<pdfrwt beam="2">  1       21 0.11245800E+00 0.21419541E+03</pdfrwt>
<totfact> 0.29536949E+04</totfact>
</mgrwt>
</event>
<event>
 4    1  0.4621995E+000  0.1950559E+03  0.7546771E-02  0.1153979E+00
         21   -1    0    0  503  502  0.00000000000E+00  0.00000000000E+00  0.24427004741E+03  0.24427004741E+03  0.00000000000E+00 0.  1.
         21   -1    0    0  501  503 -0.00000000000E+00 -0.00000000000E+00 -0.17326399349E+03  0.17326399349E+03  0.00000000000E+00 0.  1.
          6    1    1    2  501    0 -0.63725458670E+01  0.89873202191E+02 -0.30857815560E+02  0.19748166141E+03  0.17300000000E+03 0.  1.
         -6    1    1    2    0  502  0.63725458670E+01 -0.89873202191E+02  0.10186386948E+03  0.22005237949E+03  0.17300000000E+03 0.  1.
<mgrwt>
<rscale>  2 0.19505589E+03</rscale>
<asrwt>0</asrwt>
<pdfrwt beam="1">  1       21 0.37580007E-01 0.19505589E+03</pdfrwt>
<pdfrwt beam="2">  1       21 0.26655999E-01 0.19505589E+03</pdfrwt>
<totfact> 0.91392507E+04</totfact>
</mgrwt>
</event>
<event>
 4    1  0.4621995E+000  0.2969922E+03  0.7546771E-02  0.1086754E+00
         21   -1    0    0  501  502  0.00000000000E+00  0.00000000000E+00  0.37090459099E+03  0.37090459099E+03  0.00000000000E+00 0. -1.
         21   -1    0    0  502  503 -0.00000000000E+00 -0.00000000000E+00 -0.23814191441E+03  0.23814191441E+03  0.00000000000E+00 0.  1.
          6    1    1    2  501    0 -0.20728444348E+03 -0.12372757319E+03  0.77771748259E+02  0.30700618512E+03  0.17300000000E+03 0.  1.
         -6    1    1    2    0  503  0.20728444348E+03  0.12372757319E+03  0.54990928319E+02  0.30204032028E+03  0.17300000000E+03 0. -1.
<mgrwt>
<rscale>  2 0.29699218E+03</rscale>
<asrwt>0</asrwt>
<pdfrwt beam="1">  1       21 0.57062245E-01 0.29699218E+03</pdfrwt>
<pdfrwt beam="2">  1       21 0.36637218E-01 0.29699218E+03</pdfrwt>
<totfact> 0.19678271E+04</totfact>
</mgrwt>
</event>
<event>
 4    1  0.4621995E+000  0.2127967E+03  0.7546771E-02  0.1139370E+00
         21   -1    0    0  501  502  0.00000000000E+00  0.00000000000E+00  0.96455552940E+03  0.96455552940E+03  0.00000000000E+00 0.  1.
         21   -1    0    0  502  503 -0.00000000000E+00 -0.00000000000E+00 -0.48614389423E+02  0.48614389423E+02  0.00000000000E+00 0.  1.
          6    1    1    2  501    0  0.42289652052E+02  0.11646891285E+03  0.36413557918E+03  0.42175483679E+03  0.17300000000E+03 0.  1.
         -6    1    1    2    0  503 -0.42289652052E+02 -0.11646891285E+03  0.55180556080E+03  0.59141508204E+03  0.17300000000E+03 0.  1.
<mgrwt>
<rscale>  2 0.21279667E+03</rscale>
<asrwt>0</asrwt>
<pdfrwt beam="1">  1       21 0.14839314E+00 0.21279667E+03</pdfrwt>
<pdfrwt beam="2">  1       21 0.74791375E-02 0.21279667E+03</pdfrwt>
<totfact> 0.40995555E+04</totfact>
</mgrwt>
</event>
<event>
 4    1  0.4621995E+000  0.1870877E+03  0.7546771E-02  0.1161115E+00
         21   -1    0    0  501  502  0.00000000000E+00  0.00000000000E+00  0.28624178682E+02  0.28624178682E+02  0.00000000000E+00 0. -1.
         21   -1    0    0  502  503 -0.00000000000E+00 -0.00000000000E+00 -0.13052009056E+04  0.13052009056E+04  0.00000000000E+00 0. -1.
          6    1    1    2  501    0 -0.49234697172E+02 -0.51466163352E+02 -0.80585209345E+03  0.82728436338E+03  0.17300000000E+03 0. -1.
         -6    1    1    2    0  503  0.49234697172E+02  0.51466163352E+02 -0.47072463342E+03  0.50654072086E+03  0.17300000000E+03 0. -1.
<mgrwt>
<rscale>  2 0.18708774E+03</rscale>
<asrwt>0</asrwt>
<pdfrwt beam="1">  1       21 0.44037206E-02 0.18708774E+03</pdfrwt>
<pdfrwt beam="2">  1       21 0.20080010E+00 0.18708774E+03</pdfrwt>
<totfact> 0.44402200E+04</totfact>
</mgrwt>
</event>
<event>
 4    1  0.4621995E+000  0.2161343E+03  0.7546771E-02  0.1136798E+00
         21   -1    0    0  501  502  0.00000000000E+00  0.00000000000E+00  0.10927917831E+04  0.10927917831E+04  0.00000000000E+00 0.  1.
         21   -1    0    0  502  503 -0.00000000000E+00 -0.00000000000E+00 -0.42747567724E+02  0.42747567724E+02  0.00000000000E+00 0. -1.
          6    1    1    2  501    0 -0.91781780220E+02 -0.91439309606E+02  0.52401071391E+03  0.56683442981E+03  0.17300000000E+03 0.  1.
         -6    1    1    2    0  503  0.91781780220E+02  0.91439309606E+02  0.52603350144E+03  0.56870492099E+03  0.17300000000E+03 0.  1.
<mgrwt>
<rscale>  2 0.21613432E+03</rscale>
<asrwt>0</asrwt>
<pdfrwt beam="1">  1       21 0.16812179E+00 0.21613432E+03</pdfrwt>
<pdfrwt beam="2">  1       21 0.65765497E-02 0.21613432E+03</pdfrwt>
<totfact> 0.36523381E+04</totfact>
</mgrwt>
</event>
<event>
 4    1  0.4621995E+000  0.1739513E+03  0.7546771E-02  0.1173789E+00
         21   -1    0    0  503  502  0.00000000000E+00  0.00000000000E+00  0.50438392498E+02  0.50438392498E+02  0.00000000000E+00 0.  1.
         21   -1    0    0  501  503 -0.00000000000E+00 -0.00000000000E+00 -0.86057440102E+03  0.86057440102E+03  0.00000000000E+00 0.  1.
          6    1    1    2  501    0  0.15891120590E+02 -0.88046953068E+01 -0.65575509755E+03  0.67843481510E+03  0.17300000000E+03 0.  1.
         -6    1    1    2    0  502 -0.15891120590E+02  0.88046953068E+01 -0.15438091097E+03  0.23257797842E+03  0.17300000000E+03 0.  1.
<mgrwt>
<rscale>  2 0.17395129E+03</rscale>
<asrwt>0</asrwt>
<pdfrwt beam="1">  1       21 0.77597532E-02 0.17395129E+03</pdfrwt>
<pdfrwt beam="2">  1       21 0.13239605E+00 0.17395129E+03</pdfrwt>
<totfact> 0.52753947E+04</totfact>
</mgrwt>
</event>
<event>
 4    1  0.4621995E+000  0.1886162E+03  0.7546771E-02  0.1159715E+00
         21   -1    0    0  503  502  0.00000000000E+00  0.00000000000E+00  0.10419139586E+04  0.10419139586E+04  0.00000000000E+00 0. -1.
         21   -1    0    0  501  503 -0.00000000000E+00 -0.00000000000E+00 -0.34232777829E+02  0.34232777829E+02  0.00000000000E+00 0. -1.
          6    1    1    2  501    0 -0.58594800294E+02  0.47050207076E+02  0.53109906420E+03  0.56359763005E+03  0.17300000000E+03 0. -1.
         -6    1    1    2    0  502  0.58594800294E+02 -0.47050207076E+02  0.47658211653E+03  0.51254910633E+03  0.17300000000E+03 0. -1.
<mgrwt>
<rscale>  2 0.18861620E+03</rscale>
<asrwt>0</asrwt>
<pdfrwt beam="1">  1       21 0.16029443E+00 0.18861620E+03</pdfrwt>
<pdfrwt beam="2">  1       21 0.52665820E-02 0.18861620E+03</pdfrwt>
<totfact> 0.61819157E+04</totfact>
</mgrwt>
</event>
<event>
 4    1  0.4621995E+000  0.2217960E+03  0.7546771E-02  0.1132551E+00
         21   -1    0    0  503  502  0.00000000000E+00  0.00000000000E+00  0.39530378853E+02  0.39530378853E+02  0.00000000000E+00 0. -1.
         21   -1    0    0  501  503 -0.00000000000E+00 -0.00000000000E+00 -0.12472242022E+04  0.12472242022E+04  0.00000000000E+00 0.  1.
          6    1    1    2  501    0 -0.68022680311E+02 -0.12098501021E+03 -0.63420709666E+03  0.67187208544E+03  0.17300000000E+03 0.  1.
         -6    1    1    2    0  502  0.68022680311E+02  0.12098501021E+03 -0.57348672669E+03  0.61488249562E+03  0.17300000000E+03 0.  1.
<mgrwt>
<rscale>  2 0.22179598E+03</rscale>
<asrwt>0</asrwt>
<pdfrwt beam="1">  1       21 0.60815974E-02 0.22179598E+03</pdfrwt>
<pdfrwt beam="2">  1       21 0.19188062E+00 0.22179598E+03</pdfrwt>
<totfact> 0.28637313E+04</totfact>
</mgrwt>
</event>
<event>
 4    1  0.4621995E+000  0.1935093E+03  0.7546771E-02  0.1155334E+00
         21   -1    0    0  503  502  0.00000000000E+00  0.00000000000E+00  0.23102415972E+03  0.23102415972E+03  0.00000000000E+00 0.  1.
         21   -1    0    0  501  503 -0.00000000000E+00 -0.00000000000E+00 -0.16689712825E+03  0.16689712825E+03  0.00000000000E+00 0.  1.
          6    1    1    2  501    0 -0.86384127889E+02  0.73920764354E+01 -0.17158038307E+01  0.19351693551E+03  0.17300000000E+03 0.  1.
         -6    1    1    2    0  502  0.86384127889E+02 -0.73920764354E+01  0.65842835307E+02  0.20440435246E+03  0.17300000000E+03 0.  1.
<mgrwt>
<rscale>  2 0.19350933E+03</rscale>
<asrwt>0</asrwt>
<pdfrwt beam="1">  1       21 0.35542178E-01 0.19350933E+03</pdfrwt>
<pdfrwt beam="2">  1       21 0.25676481E-01 0.19350933E+03</pdfrwt>
<totfact> 0.10982888E+05</totfact>
</mgrwt>
</event>
<event>
 4    1  0.4621995E+000  0.2188267E+03  0.7546771E-02  0.1134761E+00
         21   -1    0    0  503  502  0.00000000000E+00  0.00000000000E+00  0.53102605281E+03  0.53102605281E+03  0.00000000000E+00 0. -1.
         21   -1    0    0  501  503 -0.00000000000E+00 -0.00000000000E+00 -0.10544015275E+03  0.10544015275E+03  0.00000000000E+00 0. -1.
          6    1    1    2  501    0  0.89770847224E+02 -0.99485225290E+02  0.91706043817E+02  0.23726591313E+03  0.17300000000E+03 0. -1.
         -6    1    1    2    0  502 -0.89770847224E+02  0.99485225290E+02  0.33387985625E+03  0.39920029242E+03  0.17300000000E+03 0. -1.
<mgrwt>
<rscale>  2 0.21882668E+03</rscale>
<asrwt>0</asrwt>
<pdfrwt beam="1">  1       21 0.81696315E-01 0.21882668E+03</pdfrwt>
<pdfrwt beam="2">  1       21 0.16221562E-01 0.21882668E+03</pdfrwt>
<totfact> 0.44011090E+04</totfact>
</mgrwt>
</event>
<event>
 4    1  0.4621995E+000  0.3604666E+03  0.7546771E-02  0.1058399E+00
         21   -1    0    0  503  502  0.00000000000E+00  0.00000000000E+00  0.42907557074E+03  0.42907557074E+03  0.00000000000E+00 0.  1.
         21   -1    0    0  501  503 -0.00000000000E+00 -0.00000000000E+00 -0.48169935566E+03  0.48169935566E+03  0.00000000000E+00 0. -1.
          6    1    1    2  501    0 -0.30159595038E+03  0.95115975497E+02 -0.30381205463E+03  0.47142118176E+03  0.17300000000E+03 0. -1.
         -6    1    1    2    0  502  0.30159595038E+03 -0.95115975497E+02  0.25118826971E+03  0.43935374463E+03  0.17300000000E+03 0.  1.
<mgrwt>
<rscale>  2 0.36046659E+03</rscale>
<asrwt>0</asrwt>
<pdfrwt beam="1">  1       21 0.66011626E-01 0.36046659E+03</pdfrwt>
<pdfrwt beam="2">  1       21 0.74107593E-01 0.36046659E+03</pdfrwt>
<totfact> 0.31052261E+03</totfact>
</mgrwt>
</event>
<event>
 4    1  0.4621995E+000  0.2145093E+03  0.7546771E-02  0.1138044E+00
         21   -1    0    0  501  502  0.00000000000E+00  0.00000000000E+00  0.16433355866E+03  0.16433355866E+03  0.00000000000E+00 0. -1.
         21   -1    0    0  502  503 -0.00000000000E+00 -0.00000000000E+00 -0.49436802320E+03  0.49436802320E+03  0.00000000000E+00 0.  1.
          6    1    1    2  501    0  0.11325105835E+03  0.57091548870E+02  0.51857163540E+02  0.22068849671E+03  0.17300000000E+03 0. -1.
         -6    1    1    2    0  503 -0.11325105835E+03 -0.57091548870E+02 -0.38189162808E+03  0.43801308516E+03  0.17300000000E+03 0.  1.
<mgrwt>
<rscale>  2 0.21450932E+03</rscale>
<asrwt>0</asrwt>
<pdfrwt beam="1">  1       21 0.25282087E-01 0.21450932E+03</pdfrwt>
<pdfrwt beam="2">  1       21 0.76056617E-01 0.21450932E+03</pdfrwt>
<totfact> 0.22557262E+04</totfact>
</mgrwt>
</event>
<event>
 4    1  0.4621995E+000  0.2505434E+03  0.7546771E-02  0.1112962E+00
         21   -1    0    0  501  502  0.00000000000E+00  0.00000000000E+00  0.65202610738E+03  0.65202610738E+03  0.00000000000E+00 0. -1.
         21   -1    0    0  502  503 -0.00000000000E+00 -0.00000000000E+00 -0.17623813378E+03  0.17623813378E+03  0.00000000000E+00 0.  1.
          6    1    1    2  501    0  0.18122497796E+03  0.71427408570E+00  0.51685365480E+03  0.57437766610E+03  0.17300000000E+03 0. -1.
         -6    1    1    2    0  503 -0.18122497796E+03 -0.71427408570E+00 -0.41065681209E+02  0.25388657506E+03  0.17300000000E+03 0.  1.
<mgrwt>
<rscale>  2 0.25054342E+03</rscale>
<asrwt>0</asrwt>
<pdfrwt beam="1">  1       21 0.10031171E+00 0.25054342E+03</pdfrwt>
<pdfrwt beam="2">  1       21 0.27113559E-01 0.25054342E+03</pdfrwt>
<totfact> 0.10183147E+04</totfact>
</mgrwt>
</event>
<event>
 4    1  0.4621995E+000  0.2110204E+03  0.7546771E-02  0.1140760E+00
         21   -1    0    0  503  502  0.00000000000E+00  0.00000000000E+00  0.53277698553E+03  0.53277698553E+03  0.00000000000E+00 0. -1.
         21   -1    0    0  501  503 -0.00000000000E+00 -0.00000000000E+00 -0.85026776348E+02  0.85026776348E+02  0.00000000000E+00 0.  1.
          6    1    1    2  501    0  0.79169453206E+02  0.91284194103E+02  0.18358359468E+03  0.27970080917E+03  0.17300000000E+03 0.  1.
         -6    1    1    2    0  502 -0.79169453206E+02 -0.91284194103E+02  0.26416661450E+03  0.33810295271E+03  0.17300000000E+03 0. -1.
<mgrwt>
<rscale>  2 0.21102039E+03</rscale>
<asrwt>0</asrwt>
<pdfrwt beam="1">  1       21 0.81965687E-01 0.21102039E+03</pdfrwt>
<pdfrwt beam="2">  1       21 0.13081043E-01 0.21102039E+03</pdfrwt>
<totfact> 0.64877015E+04</totfact>
</mgrwt>
</event>
<event>
 4    1  0.4621995E+000  0.1757367E+03  0.7546771E-02  0.1171994E+00
         21   -1    0    0  501  502  0.00000000000E+00  0.00000000000E+00  0.18020443881E+02  0.18020443881E+02  0.00000000000E+00 0. -1.
         21   -1    0    0  502  503 -0.00000000000E+00 -0.00000000000E+00 -0.17226007409E+04  0.17226007409E+04  0.00000000000E+00 0. -1.
          6    1    1    2  501    0  0.18640767610E+02  0.24635693502E+02 -0.91450554252E+03  0.93123776926E+03  0.17300000000E+03 0.  1.
         -6    1    1    2    0  503 -0.18640767610E+02 -0.24635693502E+02 -0.79007475448E+03  0.80938341549E+03  0.17300000000E+03 0.  1.
<mgrwt>
<rscale>  2 0.17573672E+03</rscale>
<asrwt>0</asrwt>
<pdfrwt beam="1">  1       21 0.27723762E-02 0.17573672E+03</pdfrwt>
<pdfrwt beam="2">  1       21 0.26501548E+00 0.17573672E+03</pdfrwt>
<totfact> 0.39741078E+04</totfact>
</mgrwt>
</event>
<event>
 4    1  0.4621995E+000  0.2768540E+03  0.7546771E-02  0.1097420E+00
         21   -1    0    0  501  502  0.00000000000E+00  0.00000000000E+00  0.36307277549E+03  0.36307277549E+03  0.00000000000E+00 0. -1.
         21   -1    0    0  502  503 -0.00000000000E+00 -0.00000000000E+00 -0.26261093557E+03  0.26261093557E+03  0.00000000000E+00 0. -1.
          6    1    1    2  501    0  0.20943870299E+03 -0.53428392684E+02  0.18877166560E+03  0.33508641451E+03  0.17300000000E+03 0. -1.
         -6    1    1    2    0  503 -0.20943870299E+03  0.53428392684E+02 -0.88309825675E+02  0.29059729655E+03  0.17300000000E+03 0. -1.
<mgrwt>
<rscale>  2 0.27685405E+03</rscale>
<asrwt>0</asrwt>
<pdfrwt beam="1">  1       21 0.55857350E-01 0.27685405E+03</pdfrwt>
<pdfrwt beam="2">  1       21 0.40401682E-01 0.27685405E+03</pdfrwt>
<totfact> 0.17037596E+04</totfact>
</mgrwt>
</event>
<event>
 4    1  0.4621995E+000  0.1878811E+03  0.7546771E-02  0.1160386E+00
         21   -1    0    0  503  502  0.00000000000E+00  0.00000000000E+00  0.16310501183E+03  0.16310501183E+03  0.00000000000E+00 0. -1.
         21   -1    0    0  501  503 -0.00000000000E+00 -0.00000000000E+00 -0.10052600896E+04  0.10052600896E+04  0.00000000000E+00 0. -1.
          6    1    1    2  501    0  0.69779424196E+02 -0.22386023941E+02 -0.93856955315E+03  0.95718969290E+03  0.17300000000E+03 0. -1.
         -6    1    1    2    0  502 -0.69779424196E+02  0.22386023941E+02  0.96414475364E+02  0.21117540853E+03  0.17300000000E+03 0. -1.
<mgrwt>
<rscale>  2 0.18788109E+03</rscale>
<asrwt>0</asrwt>
<pdfrwt beam="1">  1       21 0.25093079E-01 0.18788109E+03</pdfrwt>
<pdfrwt beam="2">  1       21 0.15465540E+00 0.18788109E+03</pdfrwt>
<totfact> 0.41639119E+03</totfact>
</mgrwt>
</event>
<event>
 4    1  0.4621995E+000  0.1949304E+03  0.7546771E-02  0.1154088E+00
         21   -1    0    0  501  502  0.00000000000E+00  0.00000000000E+00  0.24587037236E+03  0.24587037236E+03  0.00000000000E+00 0.  1.
         21   -1    0    0  502  503 -0.00000000000E+00 -0.00000000000E+00 -0.35459953847E+03  0.35459953847E+03  0.00000000000E+00 0.  1.
          6    1    1    2  501    0 -0.79281321729E+02  0.42229436224E+02  0.17114613372E+03  0.25940094901E+03  0.17300000000E+03 0.  1.
         -6    1    1    2    0  503  0.79281321729E+02 -0.42229436224E+02 -0.27987529984E+03  0.34106896182E+03  0.17300000000E+03 0.  1.
<mgrwt>
<rscale>  2 0.19493038E+03</rscale>
<asrwt>0</asrwt>
<pdfrwt beam="1">  1       21 0.37826212E-01 0.19493038E+03</pdfrwt>
<pdfrwt beam="2">  1       21 0.54553775E-01 0.19493038E+03</pdfrwt>
<totfact> 0.21361307E+04</totfact>
</mgrwt>
</event>
<event>
 4    1  0.4621995E+000  0.3718567E+03  0.7546771E-02  0.1053985E+00
         21   -1    0    0  503  502  0.00000000000E+00  0.00000000000E+00  0.14996942495E+04  0.14996942495E+04  0.00000000000E+00 0.  1.
         21   -1    0    0  501  503 -0.00000000000E+00 -0.00000000000E+00 -0.12496762326E+03  0.12496762326E+03  0.00000000000E+00 0.  1.
          6    1    1    2  501    0  0.17493371916E+03 -0.27883074896E+03  0.27142201995E+03  0.46037735129E+03  0.17300000000E+03 0.  1.
         -6    1    1    2    0  502 -0.17493371916E+03  0.27883074896E+03  0.11033046062E+04  0.11642845214E+04  0.17300000000E+03 0.  1.
<mgrwt>
<rscale>  2 0.37185668E+03</rscale>
<asrwt>0</asrwt>
<pdfrwt beam="1">  1       21 0.23072218E+00 0.37185668E+03</pdfrwt>
<pdfrwt beam="2">  1       21 0.19225789E-01 0.37185668E+03</pdfrwt>
<totfact> 0.18703503E+03</totfact>
</mgrwt>
</event>
<event>
 4    1  0.4621995E+000  0.3025326E+03  0.7546771E-02  0.1083981E+00
         21   -1    0    0  503  502  0.00000000000E+00  0.00000000000E+00  0.18676186135E+03  0.18676186135E+03  0.00000000000E+00 0. -1.
         21   -1    0    0  501  503 -0.00000000000E+00 -0.00000000000E+00 -0.10837435787E+04  0.10837435787E+04  0.00000000000E+00 0.  1.
          6    1    1    2  501    0  0.23402712626E+03 -0.82633445666E+02 -0.91866410668E+03  0.96719683781E+03  0.17300000000E+03 0. -1.
         -6    1    1    2    0  502 -0.23402712626E+03  0.82633445666E+02  0.21682389350E+02  0.30330860221E+03  0.17300000000E+03 0.  1.
<mgrwt>
<rscale>  2 0.30253261E+03</rscale>
<asrwt>0</asrwt>
<pdfrwt beam="1">  1       21 0.28732595E-01 0.30253261E+03</pdfrwt>
<pdfrwt beam="2">  1       21 0.16672978E+00 0.30253261E+03</pdfrwt>
<totfact> 0.23970661E+03</totfact>
</mgrwt>
</event>
<event>
 4    1  0.4621995E+000  0.2001470E+03  0.7546771E-02  0.1149615E+00
         21   -1    0    0  501  502  0.00000000000E+00  0.00000000000E+00  0.18488984416E+03  0.18488984416E+03  0.00000000000E+00 0.  1.
         21   -1    0    0  502  503 -0.00000000000E+00 -0.00000000000E+00 -0.22894676672E+03  0.22894676672E+03  0.00000000000E+00 0.  1.
          6    1    1    2  501    0  0.83889919061E+02 -0.55608546873E+02  0.25900006410E+02  0.20181585502E+03  0.17300000000E+03 0.  1.
         -6    1    1    2    0  503 -0.83889919061E+02  0.55608546873E+02 -0.69956928974E+02  0.21202075586E+03  0.17300000000E+03 0.  1.
<mgrwt>
<rscale>  2 0.20014702E+03</rscale>
<asrwt>0</asrwt>
<pdfrwt beam="1">  1       21 0.28444592E-01 0.20014702E+03</pdfrwt>
<pdfrwt beam="2">  1       21 0.35222579E-01 0.20014702E+03</pdfrwt>
<totfact> 0.91550371E+04</totfact>
</mgrwt>
</event>
<event>
 4    1  0.4621995E+000  0.2579455E+03  0.7546771E-02  0.1108384E+00
         21   -1    0    0  503  502  0.00000000000E+00  0.00000000000E+00  0.30792732828E+03  0.30792732828E+03  0.00000000000E+00 0. -1.
         21   -1    0    0  501  503 -0.00000000000E+00 -0.00000000000E+00 -0.45071396411E+03  0.45071396411E+03  0.00000000000E+00 0. -1.
          6    1    1    2  501    0 -0.14825042986E+03  0.12094911749E+03 -0.34508058570E+03  0.43083232191E+03  0.17300000000E+03 0. -1.
         -6    1    1    2    0  502  0.14825042986E+03 -0.12094911749E+03  0.20229394987E+03  0.32780897048E+03  0.17300000000E+03 0. -1.
<mgrwt>
<rscale>  2 0.25794550E+03</rscale>
<asrwt>0</asrwt>
<pdfrwt beam="1">  1       21 0.47373435E-01 0.25794550E+03</pdfrwt>
<pdfrwt beam="2">  1       21 0.69340610E-01 0.25794550E+03</pdfrwt>
<totfact> 0.77331644E+03</totfact>
</mgrwt>
</event>
<event>
 4    1  0.4621995E+000  0.1970989E+03  0.7546771E-02  0.1152210E+00
         21   -1    0    0  503  502  0.00000000000E+00  0.00000000000E+00  0.92428595023E+03  0.92428595023E+03  0.00000000000E+00 0. -1.
         21   -1    0    0  501  503 -0.00000000000E+00 -0.00000000000E+00 -0.46950362163E+02  0.46950362163E+02  0.00000000000E+00 0.  1.
          6    1    1    2  501    0 -0.20547221851E+02 -0.92178036188E+02  0.28146418635E+03  0.34361325189E+03  0.17300000000E+03 0.  1.
         -6    1    1    2    0  502  0.20547221851E+02  0.92178036188E+02  0.59587140172E+03  0.62762306050E+03  0.17300000000E+03 0. -1.
<mgrwt>
<rscale>  2 0.19709891E+03</rscale>
<asrwt>0</asrwt>
<pdfrwt beam="1">  1       21 0.14219783E+00 0.19709891E+03</pdfrwt>
<pdfrwt beam="2">  1       21 0.72231333E-02 0.19709891E+03</pdfrwt>
<totfact> 0.49120194E+04</totfact>
</mgrwt>
</event>
<event>
 4    1  0.4621995E+000  0.1821566E+03  0.7546771E-02  0.1165732E+00
         21   -1    0    0  503  502  0.00000000000E+00  0.00000000000E+00  0.37829633106E+03  0.37829633106E+03  0.00000000000E+00 0. -1.
         21   -1    0    0  501  503 -0.00000000000E+00 -0.00000000000E+00 -0.14416872327E+03  0.14416872327E+03  0.00000000000E+00 0.  1.
          6    1    1    2  501    0  0.26727813506E+02  0.50375264147E+02 -0.46410847235E+02  0.18797608889E+03  0.17300000000E+03 0.  1.
         -6    1    1    2    0  502 -0.26727813506E+02 -0.50375264147E+02  0.28053845502E+03  0.33448896544E+03  0.17300000000E+03 0. -1.
<mgrwt>
<rscale>  2 0.18215664E+03</rscale>
<asrwt>0</asrwt>
<pdfrwt beam="1">  1       21 0.58199435E-01 0.18215664E+03</pdfrwt>
<pdfrwt beam="2">  1       21 0.22179804E-01 0.18215664E+03</pdfrwt>
<totfact> 0.52835186E+04</totfact>
</mgrwt>
</event>
<event>
 4    1  0.4621995E+000  0.2586639E+03  0.7546771E-02  0.1107949E+00
         21   -1    0    0  501  502  0.00000000000E+00  0.00000000000E+00  0.13354073986E+04  0.13354073986E+04  0.00000000000E+00 0.  1.
         21   -1    0    0  502  503 -0.00000000000E+00 -0.00000000000E+00 -0.68784584885E+02  0.68784584885E+02  0.00000000000E+00 0.  1.
          6    1    1    2  501    0  0.21827322292E+02 -0.19105390075E+03  0.99921405716E+03  0.10321510340E+04  0.17300000000E+03 0.  1.
         -6    1    1    2    0  503 -0.21827322292E+02  0.19105390075E+03  0.26740875651E+03  0.37204094943E+03  0.17300000000E+03 0.  1.
<mgrwt>
<rscale>  2 0.25866392E+03</rscale>
<asrwt>0</asrwt>
<pdfrwt beam="1">  1       21 0.20544727E+00 0.25866392E+03</pdfrwt>
<pdfrwt beam="2">  1       21 0.10582245E-01 0.25866392E+03</pdfrwt>
<totfact> 0.86508239E+03</totfact>
</mgrwt>
</event>
<event>
 4    1  0.4621995E+000  0.2847268E+03  0.7546771E-02  0.1093135E+00
         21   -1    0    0  501  502  0.00000000000E+00  0.00000000000E+00  0.64080724972E+02  0.64080724972E+02  0.00000000000E+00 0. -1.
         21   -1    0    0  502  503 -0.00000000000E+00 -0.00000000000E+00 -0.12728779728E+04  0.12728779728E+04  0.00000000000E+00 0.  1.
          6    1    1    2  501    0  0.22497834711E+03 -0.22914414278E+02 -0.65661156738E+03  0.71568713658E+03  0.17300000000E+03 0. -1.
         -6    1    1    2    0  503 -0.22497834711E+03  0.22914414278E+02 -0.55218568046E+03  0.62127156120E+03  0.17300000000E+03 0.  1.
<mgrwt>
<rscale>  2 0.28472676E+03</rscale>
<asrwt>0</asrwt>
<pdfrwt beam="1">  1       21 0.98585730E-02 0.28472676E+03</pdfrwt>
<pdfrwt beam="2">  1       21 0.19582738E+00 0.28472676E+03</pdfrwt>
<totfact> 0.11158279E+04</totfact>
</mgrwt>
</event>
<event>
 4    1  0.4621995E+000  0.2513567E+03  0.7546771E-02  0.1112450E+00
         21   -1    0    0  501  502  0.00000000000E+00  0.00000000000E+00  0.11550556130E+03  0.11550556130E+03  0.00000000000E+00 0.  1.
         21   -1    0    0  502  503 -0.00000000000E+00 -0.00000000000E+00 -0.68290965661E+03  0.68290965661E+03  0.00000000000E+00 0.  1.
          6    1    1    2  501    0  0.18141775879E+03  0.18406488938E+02 -0.10560329586E+03  0.27263942880E+03  0.17300000000E+03 0.  1.
         -6    1    1    2    0  503 -0.18141775879E+03 -0.18406488938E+02 -0.46180079945E+03  0.52577578911E+03  0.17300000000E+03 0.  1.
<mgrwt>
<rscale>  2 0.25135672E+03</rscale>
<asrwt>0</asrwt>
<pdfrwt beam="1">  1       21 0.17770087E-01 0.25135672E+03</pdfrwt>
<pdfrwt beam="2">  1       21 0.10506302E+00 0.25135672E+03</pdfrwt>
<totfact> 0.20291953E+04</totfact>
</mgrwt>
</event>
<event>
 4    1  0.4621995E+000  0.1937057E+03  0.7546771E-02  0.1155161E+00
         21   -1    0    0  503  502  0.00000000000E+00  0.00000000000E+00  0.36451683671E+03  0.36451683671E+03  0.00000000000E+00 0. -1.
         21   -1    0    0  501  503 -0.00000000000E+00 -0.00000000000E+00 -0.29094398776E+03  0.29094398776E+03  0.00000000000E+00 0. -1.
          6    1    1    2  501    0 -0.29136250565E+02 -0.82121758879E+02 -0.22666478918E+03  0.29815907002E+03  0.17300000000E+03 0. -1.
         -6    1    1    2    0  502  0.29136250565E+02  0.82121758879E+02  0.30023763814E+03  0.35730175445E+03  0.17300000000E+03 0. -1.
<mgrwt>
<rscale>  2 0.19370572E+03</rscale>
<asrwt>0</asrwt>
<pdfrwt beam="1">  1       21 0.56079513E-01 0.19370572E+03</pdfrwt>
<pdfrwt beam="2">  1       21 0.44760614E-01 0.19370572E+03</pdfrwt>
<totfact> 0.14331681E+04</totfact>
</mgrwt>
</event>
<event>
 4    1  0.4621995E+000  0.2163071E+03  0.7546771E-02  0.1136667E+00
         21   -1    0    0  501  502  0.00000000000E+00  0.00000000000E+00  0.25232224801E+03  0.25232224801E+03  0.00000000000E+00 0. -1.
         21   -1    0    0  502  503 -0.00000000000E+00 -0.00000000000E+00 -0.18595249948E+03  0.18595249948E+03  0.00000000000E+00 0. -1.
          6    1    1    2  501    0 -0.12276060209E+03  0.42303515970E+02  0.21596987012E+02  0.21738257229E+03  0.17300000000E+03 0. -1.
         -6    1    1    2    0  503  0.12276060209E+03 -0.42303515970E+02  0.44772761515E+02  0.22089217520E+03  0.17300000000E+03 0. -1.
<mgrwt>
<rscale>  2 0.21630708E+03</rscale>
<asrwt>0</asrwt>
<pdfrwt beam="1">  1       21 0.38818808E-01 0.21630708E+03</pdfrwt>
<pdfrwt beam="2">  1       21 0.28608077E-01 0.21630708E+03</pdfrwt>
<totfact> 0.74025176E+04</totfact>
</mgrwt>
</event>
<event>
 4    1  0.4621995E+000  0.2300978E+03  0.7546771E-02  0.1126571E+00
         21   -1    0    0  503  502  0.00000000000E+00  0.00000000000E+00  0.44445036759E+02  0.44445036759E+02  0.00000000000E+00 0.  1.
         21   -1    0    0  501  503 -0.00000000000E+00 -0.00000000000E+00 -0.14603858407E+04  0.14603858407E+04  0.00000000000E+00 0.  1.
          6    1    1    2  501    0 -0.13921957783E+03  0.60281837937E+02 -0.38496294416E+03  0.44848796998E+03  0.17300000000E+03 0.  1.
         -6    1    1    2    0  502  0.13921957783E+03 -0.60281837937E+02 -0.10309778598E+04  0.10563429075E+04  0.17300000000E+03 0.  1.
<mgrwt>
<rscale>  2 0.23009779E+03</rscale>
<asrwt>0</asrwt>
<pdfrwt beam="1">  1       21 0.68376971E-02 0.23009779E+03</pdfrwt>
<pdfrwt beam="2">  1       21 0.22467477E+00 0.23009779E+03</pdfrwt>
<totfact> 0.14398179E+04</totfact>
</mgrwt>
</event>
<event>
 4    1  0.4621995E+000  0.1831268E+03  0.7546771E-02  0.1164811E+00
         21   -1    0    0  503  502  0.00000000000E+00  0.00000000000E+00  0.69037592297E+03  0.69037592297E+03  0.00000000000E+00 0. -1.
         21   -1    0    0  501  503 -0.00000000000E+00 -0.00000000000E+00 -0.49569580849E+02  0.49569580849E+02  0.00000000000E+00 0. -1.
          6    1    1    2  501    0  0.40111818188E+02 -0.44693139916E+02  0.26801322502E+03  0.32460210027E+03  0.17300000000E+03 0. -1.
         -6    1    1    2    0  502 -0.40111818188E+02  0.44693139916E+02  0.37279311710E+03  0.41534340355E+03  0.17300000000E+03 0. -1.
<mgrwt>
<rscale>  2 0.18312683E+03</rscale>
<asrwt>0</asrwt>
<pdfrwt beam="1">  1       21 0.10621167E+00 0.18312683E+03</pdfrwt>
<pdfrwt beam="2">  1       21 0.76260899E-02 0.18312683E+03</pdfrwt>
<totfact> 0.93066405E+04</totfact>
</mgrwt>
</event>
<event>
 4    1  0.4621995E+000  0.1924309E+03  0.7546771E-02  0.1156287E+00
         21   -1    0    0  501  502  0.00000000000E+00  0.00000000000E+00  0.36980069191E+03  0.36980069191E+03  0.00000000000E+00 0.  1.
         21   -1    0    0  502  503 -0.00000000000E+00 -0.00000000000E+00 -0.10242383932E+03  0.10242383932E+03  0.00000000000E+00 0. -1.
          6    1    1    2  501    0  0.83808592233E+02  0.87626524998E+01  0.98385571459E+02  0.21612354079E+03  0.17300000000E+03 0. -1.
         -6    1    1    2    0  503 -0.83808592233E+02 -0.87626524998E+01  0.16899128112E+03  0.25610099044E+03  0.17300000000E+03 0.  1.
<mgrwt>
<rscale>  2 0.19243093E+03</rscale>
<asrwt>0</asrwt>
<pdfrwt beam="1">  1       21 0.56892414E-01 0.19243093E+03</pdfrwt>
<pdfrwt beam="2">  1       21 0.15757514E-01 0.19243093E+03</pdfrwt>
<totfact> 0.10411151E+05</totfact>
</mgrwt>
</event>
<event>
 4    1  0.4621995E+000  0.2114623E+03  0.7546771E-02  0.1140413E+00
         21   -1    0    0  501  502  0.00000000000E+00  0.00000000000E+00  0.91323417500E+02  0.91323417500E+02  0.00000000000E+00 0. -1.
         21   -1    0    0  502  503 -0.00000000000E+00 -0.00000000000E+00 -0.48988021269E+03  0.48988021269E+03  0.00000000000E+00 0.  1.
          6    1    1    2  501    0  0.12029475299E+03  0.17789464374E+02 -0.19294603744E+03  0.28625943828E+03  0.17300000000E+03 0. -1.
         -6    1    1    2    0  503 -0.12029475299E+03 -0.17789464374E+02 -0.20561075776E+03  0.29494419192E+03  0.17300000000E+03 0.  1.
<mgrwt>
<rscale>  2 0.21146227E+03</rscale>
<asrwt>0</asrwt>
<pdfrwt beam="1">  1       21 0.14049757E-01 0.21146227E+03</pdfrwt>
<pdfrwt beam="2">  1       21 0.75366187E-01 0.21146227E+03</pdfrwt>
<totfact> 0.68890731E+04</totfact>
</mgrwt>
</event>
<event>
 4    1  0.4621995E+000  0.2017736E+03  0.7546771E-02  0.1148251E+00
         21   -1    0    0  503  502  0.00000000000E+00  0.00000000000E+00  0.21087761381E+03  0.21087761381E+03  0.00000000000E+00 0. -1.
         21   -1    0    0  501  503 -0.00000000000E+00 -0.00000000000E+00 -0.21386878561E+03  0.21386878561E+03  0.00000000000E+00 0. -1.
          6    1    1    2  501    0 -0.60923112354E+02 -0.84094962973E+02  0.64744646332E+02  0.21190671921E+03  0.17300000000E+03 0. -1.
         -6    1    1    2    0  502  0.60923112354E+02  0.84094962973E+02 -0.67735818134E+02  0.21283968022E+03  0.17300000000E+03 0. -1.
<mgrwt>
<rscale>  2 0.20177361E+03</rscale>
<asrwt>0</asrwt>
<pdfrwt beam="1">  1       21 0.32442710E-01 0.20177361E+03</pdfrwt>
<pdfrwt beam="2">  1       21 0.32902890E-01 0.20177361E+03</pdfrwt>
<totfact> 0.80974946E+04</totfact>
</mgrwt>
</event>
<event>
 4    1  0.4621995E+000  0.1810961E+03  0.7546771E-02  0.1166746E+00
         21   -1    0    0  501  502  0.00000000000E+00  0.00000000000E+00  0.35599508754E+03  0.35599508754E+03  0.00000000000E+00 0.  1.
         21   -1    0    0  502  503 -0.00000000000E+00 -0.00000000000E+00 -0.38875743762E+03  0.38875743762E+03  0.00000000000E+00 0.  1.
          6    1    1    2  501    0  0.53253187941E+02 -0.55589491332E+01  0.30889514973E+03  0.35806705722E+03  0.17300000000E+03 0.  1.
         -6    1    1    2    0  503 -0.53253187941E+02  0.55589491332E+01 -0.34165749981E+03  0.38668546794E+03  0.17300000000E+03 0.  1.
<mgrwt>
<rscale>  2 0.18109612E+03</rscale>
<asrwt>0</asrwt>
<pdfrwt beam="1">  1       21 0.54768475E-01 0.18109612E+03</pdfrwt>
<pdfrwt beam="2">  1       21 0.59808836E-01 0.18109612E+03</pdfrwt>
<totfact> 0.82793749E+03</totfact>
</mgrwt>
</event>
<event>
 4    1  0.4621995E+000  0.2286885E+03  0.7546771E-02  0.1127566E+00
         21   -1    0    0  503  502  0.00000000000E+00  0.00000000000E+00  0.24763152976E+03  0.24763152976E+03  0.00000000000E+00 0. -1.
         21   -1    0    0  501  503 -0.00000000000E+00 -0.00000000000E+00 -0.27497984411E+03  0.27497984411E+03  0.00000000000E+00 0. -1.
          6    1    1    2  501    0  0.14536528071E+03 -0.35190204150E+02 -0.13952580524E+03  0.26789151840E+03  0.17300000000E+03 0. -1.
         -6    1    1    2    0  502 -0.14536528071E+03  0.35190204150E+02  0.11217749090E+03  0.25471985546E+03  0.17300000000E+03 0. -1.
<mgrwt>
<rscale>  2 0.22868847E+03</rscale>
<asrwt>0</asrwt>
<pdfrwt beam="1">  1       21 0.38097158E-01 0.22868847E+03</pdfrwt>
<pdfrwt beam="2">  1       21 0.42304591E-01 0.22868847E+03</pdfrwt>
<totfact> 0.35079560E+04</totfact>
</mgrwt>
</event>
<event>
 4    1  0.4621995E+000  0.2083263E+03  0.7546771E-02  0.1142898E+00
         21   -1    0    0  501  502  0.00000000000E+00  0.00000000000E+00  0.14127518483E+03  0.14127518483E+03  0.00000000000E+00 0.  1.
         21   -1    0    0  502  503 -0.00000000000E+00 -0.00000000000E+00 -0.43775998405E+03  0.43775998405E+03  0.00000000000E+00 0.  1.
          6    1    1    2  501    0 -0.63552906446E+02  0.97117868096E+02  0.98680602551E+01  0.20855989747E+03  0.17300000000E+03 0.  1.
         -6    1    1    2    0  503  0.63552906446E+02 -0.97117868096E+02 -0.30635285947E+03  0.37047527141E+03  0.17300000000E+03 0.  1.
<mgrwt>
<rscale>  2 0.20832631E+03</rscale>
<asrwt>0</asrwt>
<pdfrwt beam="1">  1       21 0.21734644E-01 0.20832631E+03</pdfrwt>
<pdfrwt beam="2">  1       21 0.67347690E-01 0.20832631E+03</pdfrwt>
<totfact> 0.39513230E+04</totfact>
</mgrwt>
</event>
<event>
 4    1  0.4621995E+000  0.1766467E+03  0.7546771E-02  0.1171088E+00
         21   -1    0    0  503  502  0.00000000000E+00  0.00000000000E+00  0.46669425394E+03  0.46669425394E+03  0.00000000000E+00 0.  1.
         21   -1    0    0  501  503 -0.00000000000E+00 -0.00000000000E+00 -0.34170501643E+03  0.34170501643E+03  0.00000000000E+00 0.  1.
          6    1    1    2  501    0  0.33614894998E+02 -0.12045314015E+02 -0.30000929138E+03  0.34815172794E+03  0.17300000000E+03 0.  1.
         -6    1    1    2    0  502 -0.33614894998E+02  0.12045314015E+02  0.42499852889E+03  0.46024754243E+03  0.17300000000E+03 0.  1.
<mgrwt>
<rscale>  2 0.17664668E+03</rscale>
<asrwt>0</asrwt>
<pdfrwt beam="1">  1       21 0.71799116E-01 0.17664668E+03</pdfrwt>
<pdfrwt beam="2">  1       21 0.52570002E-01 0.17664668E+03</pdfrwt>
<totfact> 0.60852000E+03</totfact>
</mgrwt>
</event>
<event>
 4    1  0.4621995E+000  0.1749403E+03  0.7546771E-02  0.1172792E+00
         21   -1    0    0  503  502  0.00000000000E+00  0.00000000000E+00  0.31987700288E+04  0.31987700288E+04  0.00000000000E+00 0. -1.
         21   -1    0    0  501  503 -0.00000000000E+00 -0.00000000000E+00 -0.18754420820E+02  0.18754420820E+02  0.00000000000E+00 0. -1.
          6    1    1    2  501    0  0.15415014266E+02 -0.20916406173E+02  0.46404029835E+03  0.49592087797E+03  0.17300000000E+03 0. -1.
         -6    1    1    2    0  502 -0.15415014266E+02  0.20916406173E+02  0.27159753097E+04  0.27216035717E+04  0.17300000000E+03 0. -1.
<mgrwt>
<rscale>  2 0.17494033E+03</rscale>
<asrwt>0</asrwt>
<pdfrwt beam="1">  1       21 0.49211803E+00 0.17494033E+03</pdfrwt>
<pdfrwt beam="2">  1       21 0.28852981E-02 0.17494033E+03</pdfrwt>
<totfact> 0.14944657E+03</totfact>
</mgrwt>
</event>
<event>
 4    1  0.4621995E+000  0.4461521E+03  0.7546771E-02  0.1028876E+00
         21   -1    0    0  501  502  0.00000000000E+00  0.00000000000E+00  0.77953985884E+02  0.77953985884E+02  0.00000000000E+00 0.  1.
         21   -1    0    0  502  503 -0.00000000000E+00 -0.00000000000E+00 -0.35706754128E+04  0.35706754128E+04  0.00000000000E+00 0.  1.
          6    1    1    2  501    0  0.39459202445E+03  0.11584414668E+03 -0.77264355215E+03  0.89220501610E+03  0.17300000000E+03 0.  1.
         -6    1    1    2    0  503 -0.39459202445E+03 -0.11584414668E+03 -0.27200778748E+04  0.27564243826E+04  0.17300000000E+03 0.  1.
<mgrwt>
<rscale>  2 0.44615214E+03</rscale>
<asrwt>0</asrwt>
<pdfrwt beam="1">  1       21 0.11992920E-01 0.44615214E+03</pdfrwt>
<pdfrwt beam="2">  1       21 0.54933474E+00 0.44615214E+03</pdfrwt>
<totfact> 0.36337393E+01</totfact>
</mgrwt>
</event>
<event>
 4    1  0.4621995E+000  0.1813633E+03  0.7546771E-02  0.1166490E+00
         21   -1    0    0  503  502  0.00000000000E+00  0.00000000000E+00  0.30749352953E+03  0.30749352953E+03  0.00000000000E+00 0.  1.
         21   -1    0    0  501  503 -0.00000000000E+00 -0.00000000000E+00 -0.10750010622E+03  0.10750010622E+03  0.00000000000E+00 0.  1.
          6    1    1    2  501    0  0.29678773950E+02  0.45638004821E+02  0.11456436180E+03  0.21451724896E+03  0.17300000000E+03 0.  1.
         -6    1    1    2    0  502 -0.29678773950E+02 -0.45638004821E+02  0.85429061516E+02  0.20047638679E+03  0.17300000000E+03 0.  1.
<mgrwt>
<rscale>  2 0.18136333E+03</rscale>
<asrwt>0</asrwt>
<pdfrwt beam="1">  1       21 0.47306697E-01 0.18136333E+03</pdfrwt>
<pdfrwt beam="2">  1       21 0.16538478E-01 0.18136333E+03</pdfrwt>
<totfact> 0.14080555E+05</totfact>
</mgrwt>
</event>
<event>
 4    1  0.4621995E+000  0.1963484E+03  0.7546771E-02  0.1152857E+00
         21   -1    0    0  501  502  0.00000000000E+00  0.00000000000E+00  0.46923407594E+02  0.46923407594E+02  0.00000000000E+00 0. -1.
         21   -1    0    0  502  503 -0.00000000000E+00 -0.00000000000E+00 -0.28831450360E+04  0.28831450360E+04  0.00000000000E+00 0. -1.
          6    1    1    2  501    0  0.88891653735E+02  0.26869401072E+02 -0.17928571159E+03  0.26588730168E+03  0.17300000000E+03 0. -1.
         -6    1    1    2    0  503 -0.88891653735E+02 -0.26869401072E+02 -0.26569359168E+04  0.26641811419E+04  0.17300000000E+03 0. -1.
<mgrwt>
<rscale>  2 0.19634839E+03</rscale>
<asrwt>0</asrwt>
<pdfrwt beam="1">  1       21 0.72189839E-02 0.19634839E+03</pdfrwt>
<pdfrwt beam="2">  1       21 0.44356089E+00 0.19634839E+03</pdfrwt>
<totfact> 0.65410695E+02</totfact>
</mgrwt>
</event>
<event>
 4    1  0.4621995E+000  0.1774225E+03  0.7546771E-02  0.1170321E+00
         21   -1    0    0  503  502  0.00000000000E+00  0.00000000000E+00  0.75624397927E+03  0.75624397927E+03  0.00000000000E+00 0. -1.
         21   -1    0    0  501  503 -0.00000000000E+00 -0.00000000000E+00 -0.65687109623E+02  0.65687109623E+02  0.00000000000E+00 0. -1.
          6    1    1    2  501    0 -0.36238700712E+02 -0.15378109505E+02  0.96546640586E+02  0.20199005790E+03  0.17300000000E+03 0. -1.
         -6    1    1    2    0  502  0.36238700712E+02  0.15378109505E+02  0.59401022906E+03  0.61994103099E+03  0.17300000000E+03 0. -1.
<mgrwt>
<rscale>  2 0.17742246E+03</rscale>
<asrwt>0</asrwt>
<pdfrwt beam="1">  1       21 0.11634522E+00 0.17742246E+03</pdfrwt>
<pdfrwt beam="2">  1       21 0.10105710E-01 0.17742246E+03</pdfrwt>
<totfact> 0.45757207E+04</totfact>
</mgrwt>
</event>
<event>
 4    1  0.4621995E+000  0.2321588E+03  0.7546771E-02  0.1125129E+00
         21   -1    0    0  501  502  0.00000000000E+00  0.00000000000E+00  0.28710578563E+03  0.28710578563E+03  0.00000000000E+00 0.  1.
         21   -1    0    0  502  503 -0.00000000000E+00 -0.00000000000E+00 -0.18794348348E+03  0.18794348348E+03  0.00000000000E+00 0.  1.
          6    1    1    2  501    0  0.11172402158E+03 -0.10717484605E+03  0.41532581122E+02  0.23584456729E+03  0.17300000000E+03 0.  1.
         -6    1    1    2    0  503 -0.11172402158E+03  0.10717484605E+03  0.57629721026E+02  0.23920470182E+03  0.17300000000E+03 0.  1.
<mgrwt>
<rscale>  2 0.23215879E+03</rscale>
<asrwt>0</asrwt>
<pdfrwt beam="1">  1       21 0.44170121E-01 0.23215879E+03</pdfrwt>
<pdfrwt beam="2">  1       21 0.28914382E-01 0.23215879E+03</pdfrwt>
<totfact> 0.55366851E+04</totfact>
</mgrwt>
</event>
<event>
 4    1  0.4621995E+000  0.1736843E+03  0.7546771E-02  0.1174059E+00
         21   -1    0    0  501  502  0.00000000000E+00  0.00000000000E+00  0.10611762452E+03  0.10611762452E+03  0.00000000000E+00 0. -1.
         21   -1    0    0  502  503 -0.00000000000E+00 -0.00000000000E+00 -0.92833666370E+03  0.92833666370E+03  0.00000000000E+00 0. -1.
          6    1    1    2  501    0  0.72732907547E+01  0.13577383273E+02  0.19708011269E+02  0.17479888959E+03  0.17300000000E+03 0. -1.
         -6    1    1    2    0  503 -0.72732907547E+01 -0.13577383273E+02 -0.84192705046E+03  0.85965539862E+03  0.17300000000E+03 0. -1.
<mgrwt>
<rscale>  2 0.17368433E+03</rscale>
<asrwt>0</asrwt>
<pdfrwt beam="1">  1       21 0.16325788E-01 0.17368433E+03</pdfrwt>
<pdfrwt beam="2">  1       21 0.14282103E+00 0.17368433E+03</pdfrwt>
<totfact> 0.11582059E+04</totfact>
</mgrwt>
</event>
<event>
 4    1  0.4621995E+000  0.1959483E+03  0.7546771E-02  0.1153203E+00
         21   -1    0    0  501  502  0.00000000000E+00  0.00000000000E+00  0.55993212352E+03  0.55993212352E+03  0.00000000000E+00 0. -1.
         21   -1    0    0  502  503 -0.00000000000E+00 -0.00000000000E+00 -0.12574692031E+03  0.12574692031E+03  0.00000000000E+00 0. -1.
          6    1    1    2  501    0  0.67972433920E+02 -0.62019887133E+02  0.44826960466E+03  0.48922526165E+03  0.17300000000E+03 0. -1.
         -6    1    1    2    0  503 -0.67972433920E+02  0.62019887133E+02 -0.14084401450E+02  0.19645378219E+03  0.17300000000E+03 0. -1.
<mgrwt>
<rscale>  2 0.19594825E+03</rscale>
<asrwt>0</asrwt>
<pdfrwt beam="1">  1       21 0.86143402E-01 0.19594825E+03</pdfrwt>
<pdfrwt beam="2">  1       21 0.19345680E-01 0.19594825E+03</pdfrwt>
<totfact> 0.28489565E+04</totfact>
</mgrwt>
</event>
<event>
 4    1  0.4621995E+000  0.2854229E+03  0.7546771E-02  0.1092763E+00
         21   -1    0    0  503  502  0.00000000000E+00  0.00000000000E+00  0.48965345988E+03  0.48965345988E+03  0.00000000000E+00 0.  1.
         21   -1    0    0  501  503 -0.00000000000E+00 -0.00000000000E+00 -0.20564692382E+03  0.20564692382E+03  0.00000000000E+00 0. -1.
          6    1    1    2  501    0  0.15323061920E+03  0.16750402018E+03 -0.99188620130E+01  0.28559517373E+03  0.17300000000E+03 0. -1.
         -6    1    1    2    0  502 -0.15323061920E+03 -0.16750402018E+03  0.29392539808E+03  0.40970520996E+03  0.17300000000E+03 0.  1.
<mgrwt>
<rscale>  2 0.28542288E+03</rscale>
<asrwt>0</asrwt>
<pdfrwt beam="1">  1       21 0.75331301E-01 0.28542288E+03</pdfrwt>
<pdfrwt beam="2">  1       21 0.31637988E-01 0.28542288E+03</pdfrwt>
<totfact> 0.14374541E+04</totfact>
</mgrwt>
</event>
<event>
 4    1  0.4621995E+000  0.3054892E+03  0.7546771E-02  0.1082528E+00
         21   -1    0    0  501  502  0.00000000000E+00  0.00000000000E+00  0.12654951604E+04  0.12654951604E+04  0.00000000000E+00 0. -1.
         21   -1    0    0  502  503 -0.00000000000E+00 -0.00000000000E+00 -0.11642372245E+03  0.11642372245E+03  0.00000000000E+00 0. -1.
          6    1    1    2  501    0 -0.11423421919E+03  0.22437738059E+03  0.99288461322E+03  0.10388183291E+04  0.17300000000E+03 0. -1.
         -6    1    1    2    0  503  0.11423421919E+03 -0.22437738059E+03  0.15618682474E+03  0.34310055374E+03  0.17300000000E+03 0. -1.
<mgrwt>
<rscale>  2 0.30548922E+03</rscale>
<asrwt>0</asrwt>
<pdfrwt beam="1">  1       21 0.19469155E+00 0.30548922E+03</pdfrwt>
<pdfrwt beam="2">  1       21 0.17911343E-01 0.30548922E+03</pdfrwt>
<totfact> 0.37799802E+03</totfact>
</mgrwt>
</event>
<event>
 4    1  0.4621995E+000  0.2697561E+03  0.7546771E-02  0.1101419E+00
         21   -1    0    0  501  502  0.00000000000E+00  0.00000000000E+00  0.31654310445E+03  0.31654310445E+03  0.00000000000E+00 0.  1.
         21   -1    0    0  502  503 -0.00000000000E+00 -0.00000000000E+00 -0.23359729215E+03  0.23359729215E+03  0.00000000000E+00 0.  1.
          6    1    1    2  501    0  0.86959465227E+02 -0.18782276277E+03  0.67942201013E+01  0.26984162064E+03  0.17300000000E+03 0.  1.
         -6    1    1    2    0  503 -0.86959465227E+02  0.18782276277E+03  0.76151592204E+02  0.28029877595E+03  0.17300000000E+03 0.  1.
<mgrwt>
<rscale>  2 0.26975607E+03</rscale>
<asrwt>0</asrwt>
<pdfrwt beam="1">  1       21 0.48698939E-01 0.26975607E+03</pdfrwt>
<pdfrwt beam="2">  1       21 0.35938045E-01 0.26975607E+03</pdfrwt>
<totfact> 0.28953628E+04</totfact>
</mgrwt>
</event>
<event>
 4    1  0.4621995E+000  0.2284380E+03  0.7546771E-02  0.1127744E+00
         21   -1    0    0  503  502  0.00000000000E+00  0.00000000000E+00  0.16059143675E+03  0.16059143675E+03  0.00000000000E+00 0. -1.
         21   -1    0    0  501  503 -0.00000000000E+00 -0.00000000000E+00 -0.32496443541E+03  0.32496443541E+03  0.00000000000E+00 0. -1.
          6    1    1    2  501    0  0.14546257459E+03 -0.33099068408E+02 -0.83899020524E+02  0.24335766801E+03  0.17300000000E+03 0. -1.
         -6    1    1    2    0  502 -0.14546257459E+03  0.33099068408E+02 -0.80473978130E+02  0.24219820415E+03  0.17300000000E+03 0. -1.
<mgrwt>
<rscale>  2 0.22843798E+03</rscale>
<asrwt>0</asrwt>
<pdfrwt beam="1">  1       21 0.24706375E-01 0.22843798E+03</pdfrwt>
<pdfrwt beam="2">  1       21 0.49994528E-01 0.22843798E+03</pdfrwt>
<totfact> 0.58103515E+04</totfact>
</mgrwt>
</event>
<event>
 4    1  0.4621995E+000  0.2129552E+03  0.7546771E-02  0.1139247E+00
         21   -1    0    0  503  502  0.00000000000E+00  0.00000000000E+00  0.63466256544E+02  0.63466256544E+02  0.00000000000E+00 0. -1.
         21   -1    0    0  501  503 -0.00000000000E+00 -0.00000000000E+00 -0.71931640092E+03  0.71931640092E+03  0.00000000000E+00 0. -1.
          6    1    1    2  501    0  0.51194088283E+02  0.11313752230E+03 -0.35977880523E+03  0.41807980377E+03  0.17300000000E+03 0. -1.
         -6    1    1    2    0  502 -0.51194088283E+02 -0.11313752230E+03 -0.29607133915E+03  0.36470285370E+03  0.17300000000E+03 0. -1.
<mgrwt>
<rscale>  2 0.21295524E+03</rscale>
<asrwt>0</asrwt>
<pdfrwt beam="1">  1       21 0.97640389E-02 0.21295524E+03</pdfrwt>
<pdfrwt beam="2">  1       21 0.11066407E+00 0.21295524E+03</pdfrwt>
<totfact> 0.53921259E+04</totfact>
</mgrwt>
</event>
<event>
 4    1  0.4621995E+000  0.2023070E+03  0.7546771E-02  0.1147807E+00
         21   -1    0    0  503  502  0.00000000000E+00  0.00000000000E+00  0.87896256496E+02  0.87896256496E+02  0.00000000000E+00 0.  1.
         21   -1    0    0  501  503 -0.00000000000E+00 -0.00000000000E+00 -0.48093727595E+03  0.48093727595E+03  0.00000000000E+00 0. -1.
          6    1    1    2  501    0 -0.98425860809E+02 -0.36214505400E+02 -0.24724263198E+03  0.31946370615E+03  0.17300000000E+03 0. -1.
         -6    1    1    2    0  502  0.98425860809E+02  0.36214505400E+02 -0.14579838747E+03  0.24936982629E+03  0.17300000000E+03 0.  1.
<mgrwt>
<rscale>  2 0.20230705E+03</rscale>
<asrwt>0</asrwt>
<pdfrwt beam="1">  1       21 0.13522501E-01 0.20230705E+03</pdfrwt>
<pdfrwt beam="2">  1       21 0.73990349E-01 0.20230705E+03</pdfrwt>
<totfact> 0.77250171E+04</totfact>
</mgrwt>
</event>
<event>
 4    1  0.4621995E+000  0.1805711E+03  0.7546771E-02  0.1167252E+00
         21   -1    0    0  503  502  0.00000000000E+00  0.00000000000E+00  0.22797242399E+03  0.22797242399E+03  0.00000000000E+00 0. -1.
         21   -1    0    0  501  503 -0.00000000000E+00 -0.00000000000E+00 -0.14647977407E+03  0.14647977407E+03  0.00000000000E+00 0. -1.
          6    1    1    2  501    0 -0.34352060880E+02  0.38689132124E+02  0.11995913261E+02  0.18096909948E+03  0.17300000000E+03 0. -1.
         -6    1    1    2    0  502  0.34352060880E+02 -0.38689132124E+02  0.69496736651E+02  0.19348309858E+03  0.17300000000E+03 0. -1.
<mgrwt>
<rscale>  2 0.18057107E+03</rscale>
<asrwt>0</asrwt>
<pdfrwt beam="1">  1       21 0.35072681E-01 0.18057107E+03</pdfrwt>
<pdfrwt beam="2">  1       21 0.22535350E-01 0.18057107E+03</pdfrwt>
<totfact> 0.14513855E+05</totfact>
</mgrwt>
</event>
<event>
 4    1  0.4621995E+000  0.2004148E+03  0.7546771E-02  0.1149390E+00
         21   -1    0    0  503  502  0.00000000000E+00  0.00000000000E+00  0.17506115218E+03  0.17506115218E+03  0.00000000000E+00 0.  1.
         21   -1    0    0  501  503 -0.00000000000E+00 -0.00000000000E+00 -0.26805851296E+03  0.26805851296E+03  0.00000000000E+00 0.  1.
          6    1    1    2  501    0  0.89198864618E+02 -0.47756027322E+02 -0.13059414214E+03  0.23920891613E+03  0.17300000000E+03 0.  1.
         -6    1    1    2    0  502 -0.89198864618E+02  0.47756027322E+02  0.37596781357E+02  0.20391074901E+03  0.17300000000E+03 0.  1.
<mgrwt>
<rscale>  2 0.20041476E+03</rscale>
<asrwt>0</asrwt>
<pdfrwt beam="1">  1       21 0.26932485E-01 0.20041476E+03</pdfrwt>
<pdfrwt beam="2">  1       21 0.41239771E-01 0.20041476E+03</pdfrwt>
<totfact> 0.74109059E+04</totfact>
</mgrwt>
</event>
<event>
 4    1  0.4621995E+000  0.1957813E+03  0.7546771E-02  0.1153348E+00
         21   -1    0    0  503  502  0.00000000000E+00  0.00000000000E+00  0.94297290453E+02  0.94297290453E+02  0.00000000000E+00 0. -1.
         21   -1    0    0  501  503 -0.00000000000E+00 -0.00000000000E+00 -0.57342805141E+03  0.57342805141E+03  0.00000000000E+00 0. -1.
          6    1    1    2  501    0  0.40020636392E+02 -0.82460032248E+02 -0.41970710085E+03  0.46312456074E+03  0.17300000000E+03 0.  1.
         -6    1    1    2    0  502 -0.40020636392E+02  0.82460032248E+02 -0.59423660106E+02  0.20460078112E+03  0.17300000000E+03 0.  1.
<mgrwt>
<rscale>  2 0.19578128E+03</rscale>
<asrwt>0</asrwt>
<pdfrwt beam="1">  1       21 0.14507276E-01 0.19578128E+03</pdfrwt>
<pdfrwt beam="2">  1       21 0.88219700E-01 0.19578128E+03</pdfrwt>
<totfact> 0.45789037E+04</totfact>
</mgrwt>
</event>
<event>
 4    1  0.4621995E+000  0.1797314E+03  0.7546771E-02  0.1168063E+00
         21   -1    0    0  501  502  0.00000000000E+00  0.00000000000E+00  0.34781947419E+03  0.34781947419E+03  0.00000000000E+00 0. -1.
         21   -1    0    0  502  503 -0.00000000000E+00 -0.00000000000E+00 -0.99539999752E+02  0.99539999752E+02  0.00000000000E+00 0.  1.
          6    1    1    2  501    0  0.32824839547E+02 -0.36012373173E+02  0.18202430419E+03  0.25580502033E+03  0.17300000000E+03 0. -1.
         -6    1    1    2    0  503 -0.32824839547E+02  0.36012373173E+02  0.66255170252E+02  0.19155445361E+03  0.17300000000E+03 0.  1.
<mgrwt>
<rscale>  2 0.17973136E+03</rscale>
<asrwt>0</asrwt>
<pdfrwt beam="1">  1       21 0.53510688E-01 0.17973136E+03</pdfrwt>
<pdfrwt beam="2">  1       21 0.15313846E-01 0.17973136E+03</pdfrwt>
<totfact> 0.12542588E+05</totfact>
</mgrwt>
</event>
<event>
 4    1  0.4621995E+000  0.2027097E+03  0.7546771E-02  0.1147473E+00
         21   -1    0    0  501  502  0.00000000000E+00  0.00000000000E+00  0.21087395193E+03  0.21087395193E+03  0.00000000000E+00 0.  1.
         21   -1    0    0  502  503 -0.00000000000E+00 -0.00000000000E+00 -0.19531945684E+03  0.19531945684E+03  0.00000000000E+00 0. -1.
          6    1    1    2  501    0  0.90209809670E+02 -0.54994691739E+02  0.17610948463E+02  0.20347326946E+03  0.17300000000E+03 0. -1.
         -6    1    1    2    0  503 -0.90209809670E+02  0.54994691739E+02 -0.20564533702E+01  0.20272013931E+03  0.17300000000E+03 0.  1.
<mgrwt>
<rscale>  2 0.20270971E+03</rscale>
<asrwt>0</asrwt>
<pdfrwt beam="1">  1       21 0.32442147E-01 0.20270971E+03</pdfrwt>
<pdfrwt beam="2">  1       21 0.30049147E-01 0.20270971E+03</pdfrwt>
<totfact> 0.96716325E+04</totfact>
</mgrwt>
</event>
<event>
 4    1  0.4621995E+000  0.1997302E+03  0.7546771E-02  0.1149967E+00
         21   -1    0    0  503  502  0.00000000000E+00  0.00000000000E+00  0.14926327959E+03  0.14926327959E+03  0.00000000000E+00 0. -1.
         21   -1    0    0  501  503 -0.00000000000E+00 -0.00000000000E+00 -0.27152571065E+03  0.27152571065E+03  0.00000000000E+00 0.  1.
          6    1    1    2  501    0  0.47856506510E+02 -0.87595175190E+02 -0.87500937400E+02  0.21805635505E+03  0.17300000000E+03 0. -1.
         -6    1    1    2    0  502 -0.47856506510E+02  0.87595175190E+02 -0.34761493657E+02  0.20273263520E+03  0.17300000000E+03 0. -1.
<mgrwt>
<rscale>  2 0.19973022E+03</rscale>
<asrwt>0</asrwt>
<pdfrwt beam="1">  1       21 0.22963581E-01 0.19973022E+03</pdfrwt>
<pdfrwt beam="2">  1       21 0.41773186E-01 0.19973022E+03</pdfrwt>
<totfact> 0.97924588E+04</totfact>
</mgrwt>
</event>
<event>
 4    1  0.4621995E+000  0.2077313E+03  0.7546771E-02  0.1143375E+00
         21   -1    0    0  503  502  0.00000000000E+00  0.00000000000E+00  0.16813128652E+03  0.16813128652E+03  0.00000000000E+00 0.  1.
         21   -1    0    0  501  503 -0.00000000000E+00 -0.00000000000E+00 -0.60958588586E+03  0.60958588586E+03  0.00000000000E+00 0. -1.
          6    1    1    2  501    0  0.66838331133E+02 -0.93573182053E+02 -0.51660824493E+03  0.55680910700E+03  0.17300000000E+03 0. -1.
         -6    1    1    2    0  502 -0.66838331133E+02  0.93573182053E+02  0.75153645587E+02  0.22090806539E+03  0.17300000000E+03 0.  1.
<mgrwt>
<rscale>  2 0.20773132E+03</rscale>
<asrwt>0</asrwt>
<pdfrwt beam="1">  1       21 0.25866352E-01 0.20773132E+03</pdfrwt>
<pdfrwt beam="2">  1       21 0.93782444E-01 0.20773132E+03</pdfrwt>
<totfact> 0.13414377E+04</totfact>
</mgrwt>
</event>
<event>
 4    1  0.4621995E+000  0.2113442E+03  0.7546771E-02  0.1140506E+00
         21   -1    0    0  503  502  0.00000000000E+00  0.00000000000E+00  0.44518111577E+03  0.44518111577E+03  0.00000000000E+00 0. -1.
         21   -1    0    0  501  503 -0.00000000000E+00 -0.00000000000E+00 -0.11226659846E+03  0.11226659846E+03  0.00000000000E+00 0. -1.
          6    1    1    2  501    0  0.12073422852E+03 -0.12673339406E+02  0.75584410672E+02  0.22445349319E+03  0.17300000000E+03 0. -1.
         -6    1    1    2    0  502 -0.12073422852E+03  0.12673339406E+02  0.25733010663E+03  0.33299422104E+03  0.17300000000E+03 0. -1.
<mgrwt>
<rscale>  2 0.21134419E+03</rscale>
<asrwt>0</asrwt>
<pdfrwt beam="1">  1       21 0.68489401E-01 0.21134419E+03</pdfrwt>
<pdfrwt beam="2">  1       21 0.17271785E-01 0.21134419E+03</pdfrwt>
<totfact> 0.58387310E+04</totfact>
</mgrwt>
</event>
<event>
 4    1  0.4621995E+000  0.1941409E+03  0.7546771E-02  0.1154779E+00
         21   -1    0    0  503  502  0.00000000000E+00  0.00000000000E+00  0.25710012733E+02  0.25710012733E+02  0.00000000000E+00 0.  1.
         21   -1    0    0  501  503 -0.00000000000E+00 -0.00000000000E+00 -0.22341868837E+04  0.22341868837E+04  0.00000000000E+00 0. -1.
          6    1    1    2  501    0  0.73553720990E+02 -0.48492593424E+02 -0.17668125928E+04  0.17774468823E+04  0.17300000000E+03 0. -1.
         -6    1    1    2    0  502 -0.73553720990E+02  0.48492593424E+02 -0.44166427823E+03  0.48245001415E+03  0.17300000000E+03 0. -1.
<mgrwt>
<rscale>  2 0.19414088E+03</rscale>
<asrwt>0</asrwt>
<pdfrwt beam="1">  1       21 0.39553866E-02 0.19414088E+03</pdfrwt>
<pdfrwt beam="2">  1       21 0.34372106E+00 0.19414088E+03</pdfrwt>
<totfact> 0.75885124E+03</totfact>
</mgrwt>
</event>
<event>
 4    1  0.4621995E+000  0.2115229E+03  0.7546771E-02  0.1140366E+00
         21   -1    0    0  503  502  0.00000000000E+00  0.00000000000E+00  0.66612350048E+02  0.66612350048E+02  0.00000000000E+00 0.  1.
         21   -1    0    0  501  503 -0.00000000000E+00 -0.00000000000E+00 -0.69237446629E+03  0.69237446629E+03  0.00000000000E+00 0.  1.
          6    1    1    2  501    0 -0.88298641512E+01 -0.12138775905E+03 -0.37849511001E+03  0.43359024764E+03  0.17300000000E+03 0.  1.
         -6    1    1    2    0  502  0.88298641512E+01  0.12138775905E+03 -0.24726700624E+03  0.32539656870E+03  0.17300000000E+03 0.  1.
<mgrwt>
<rscale>  2 0.21152294E+03</rscale>
<asrwt>0</asrwt>
<pdfrwt beam="1">  1       21 0.10248054E-01 0.21152294E+03</pdfrwt>
<pdfrwt beam="2">  1       21 0.10651915E+00 0.21152294E+03</pdfrwt>
<totfact> 0.54326990E+04</totfact>
</mgrwt>
</event>
<event>
 4    1  0.4621995E+000  0.2379279E+03  0.7546771E-02  0.1121181E+00
         21   -1    0    0  503  502  0.00000000000E+00  0.00000000000E+00  0.73178812806E+03  0.73178812806E+03  0.00000000000E+00 0. -1.
         21   -1    0    0  501  503 -0.00000000000E+00 -0.00000000000E+00 -0.12512760602E+03  0.12512760602E+03  0.00000000000E+00 0. -1.
          6    1    1    2  501    0  0.15373885353E+03  0.55181835896E+02  0.38597701848E+02  0.24103828054E+03  0.17300000000E+03 0. -1.
         -6    1    1    2    0  502 -0.15373885353E+03 -0.55181835896E+02  0.56806282019E+03  0.61587745354E+03  0.17300000000E+03 0. -1.
<mgrwt>
<rscale>  2 0.23792787E+03</rscale>
<asrwt>0</asrwt>
<pdfrwt beam="1">  1       21 0.11258279E+00 0.23792787E+03</pdfrwt>
<pdfrwt beam="2">  1       21 0.19250401E-01 0.23792787E+03</pdfrwt>
<totfact> 0.14878298E+04</totfact>
</mgrwt>
</event>
<event>
 4    1  0.4621995E+000  0.3944989E+03  0.7546771E-02  0.1045701E+00
         21   -1    0    0  503  502  0.00000000000E+00  0.00000000000E+00  0.19239039676E+03  0.19239039676E+03  0.00000000000E+00 0. -1.
         21   -1    0    0  501  503 -0.00000000000E+00 -0.00000000000E+00 -0.97934667128E+03  0.97934667128E+03  0.00000000000E+00 0.  1.
          6    1    1    2  501    0 -0.92356351230E+02 -0.34230207961E+03 -0.63787425748E+03  0.75000865173E+03  0.17300000000E+03 0.  1.
         -6    1    1    2    0  502  0.92356351230E+02  0.34230207961E+03 -0.14908201703E+03  0.42172841631E+03  0.17300000000E+03 0. -1.
<mgrwt>
<rscale>  2 0.39449893E+03</rscale>
<asrwt>0</asrwt>
<pdfrwt beam="1">  1       21 0.29598523E-01 0.39449893E+03</pdfrwt>
<pdfrwt beam="2">  1       21 0.15066872E+00 0.39449893E+03</pdfrwt>
<totfact> 0.28478199E+03</totfact>
</mgrwt>
</event>
<event>
 4    1  0.4621995E+000  0.1976992E+03  0.7546771E-02  0.1151695E+00
         21   -1    0    0  503  502  0.00000000000E+00  0.00000000000E+00  0.34115579697E+03  0.34115579697E+03  0.00000000000E+00 0.  1.
         21   -1    0    0  501  503 -0.00000000000E+00 -0.00000000000E+00 -0.17334669290E+03  0.17334669290E+03  0.00000000000E+00 0.  1.
          6    1    1    2  501    0 -0.75728799471E+02  0.58490330808E+02 -0.65896827200E+02  0.20839232640E+03  0.17300000000E+03 0.  1.
         -6    1    1    2    0  502  0.75728799471E+02 -0.58490330808E+02  0.23370593127E+03  0.30611016347E+03  0.17300000000E+03 0.  1.
<mgrwt>
<rscale>  2 0.19769919E+03</rscale>
<asrwt>0</asrwt>
<pdfrwt beam="1">  1       21 0.52485507E-01 0.19769919E+03</pdfrwt>
<pdfrwt beam="2">  1       21 0.26668722E-01 0.19769919E+03</pdfrwt>
<totfact> 0.45957380E+04</totfact>
</mgrwt>
</event>
<event>
 4    1  0.4621995E+000  0.2203256E+03  0.7546771E-02  0.1133641E+00
         21   -1    0    0  501  502  0.00000000000E+00  0.00000000000E+00  0.11939731861E+04  0.11939731861E+04  0.00000000000E+00 0.  1.
         21   -1    0    0  502  503 -0.00000000000E+00 -0.00000000000E+00 -0.74642011503E+02  0.74642011503E+02  0.00000000000E+00 0.  1.
          6    1    1    2  501    0 -0.10796524934E+02 -0.13600669379E+03  0.98767356290E+03  0.10119498271E+04  0.17300000000E+03 0.  1.
         -6    1    1    2    0  503  0.10796524934E+02  0.13600669379E+03  0.13165761172E+03  0.25666537053E+03  0.17300000000E+03 0.  1.
<mgrwt>
<rscale>  2 0.22032564E+03</rscale>
<asrwt>0</asrwt>
<pdfrwt beam="1">  1       21 0.18368817E+00 0.22032564E+03</pdfrwt>
<pdfrwt beam="2">  1       21 0.11483387E-01 0.22032564E+03</pdfrwt>
<totfact> 0.10675352E+04</totfact>
</mgrwt>
</event>
<event>
 4    1  0.4621995E+000  0.2179130E+03  0.7546771E-02  0.1135449E+00
         21   -1    0    0  503  502  0.00000000000E+00  0.00000000000E+00  0.40824579162E+03  0.40824579162E+03  0.00000000000E+00 0. -1.
         21   -1    0    0  501  503 -0.00000000000E+00 -0.00000000000E+00 -0.22030893890E+03  0.22030893890E+03  0.00000000000E+00 0. -1.
          6    1    1    2  501    0  0.45011832187E+02  0.12462347185E+03 -0.12195318856E+03  0.24971714994E+03  0.17300000000E+03 0. -1.
         -6    1    1    2    0  502 -0.45011832187E+02 -0.12462347185E+03  0.30989004128E+03  0.37883758058E+03  0.17300000000E+03 0. -1.
<mgrwt>
<rscale>  2 0.21791300E+03</rscale>
<asrwt>0</asrwt>
<pdfrwt beam="1">  1       21 0.62807045E-01 0.21791300E+03</pdfrwt>
<pdfrwt beam="2">  1       21 0.33893683E-01 0.21791300E+03</pdfrwt>
<totfact> 0.19399712E+04</totfact>
</mgrwt>
</event>
<event>
 4    1  0.4621995E+000  0.1836464E+03  0.7546771E-02  0.1164320E+00
         21   -1    0    0  501  502  0.00000000000E+00  0.00000000000E+00  0.81107867953E+02  0.81107867953E+02  0.00000000000E+00 0. -1.
         21   -1    0    0  502  503 -0.00000000000E+00 -0.00000000000E+00 -0.70858340339E+03  0.70858340339E+03  0.00000000000E+00 0. -1.
          6    1    1    2  501    0 -0.45739995390E+02  0.41289900779E+02 -0.59937122458E+02  0.19317986886E+03  0.17300000000E+03 0. -1.
         -6    1    1    2    0  503  0.45739995390E+02 -0.41289900779E+02 -0.56753841298E+03  0.59651140248E+03  0.17300000000E+03 0. -1.
<mgrwt>
<rscale>  2 0.18364641E+03</rscale>
<asrwt>0</asrwt>
<pdfrwt beam="1">  1       21 0.12478134E-01 0.18364641E+03</pdfrwt>
<pdfrwt beam="2">  1       21 0.10901283E+00 0.18364641E+03</pdfrwt>
<totfact> 0.36701697E+04</totfact>
</mgrwt>
</event>
<event>
 4    1  0.4621995E+000  0.2484139E+03  0.7546771E-02  0.1114311E+00
         21   -1    0    0  503  502  0.00000000000E+00  0.00000000000E+00  0.11822017219E+04  0.11822017219E+04  0.00000000000E+00 0.  1.
         21   -1    0    0  501  503 -0.00000000000E+00 -0.00000000000E+00 -0.84420894166E+02  0.84420894166E+02  0.00000000000E+00 0. -1.
          6    1    1    2  501    0 -0.17810347031E+03  0.77212933810E+01  0.15762684105E+03  0.29420347640E+03  0.17300000000E+03 0. -1.
         -6    1    1    2    0  502  0.17810347031E+03 -0.77212933810E+01  0.94015398666E+03  0.97241913964E+03  0.17300000000E+03 0.  1.
<mgrwt>
<rscale>  2 0.24841390E+03</rscale>
<asrwt>0</asrwt>
<pdfrwt beam="1">  1       21 0.18187718E+00 0.24841390E+03</pdfrwt>
<pdfrwt beam="2">  1       21 0.12987831E-01 0.24841390E+03</pdfrwt>
<totfact> 0.86308949E+03</totfact>
</mgrwt>
</event>
<event>
 4    1  0.4621995E+000  0.2285916E+03  0.7546771E-02  0.1127635E+00
         21   -1    0    0  503  502  0.00000000000E+00  0.00000000000E+00  0.50965628391E+03  0.50965628391E+03  0.00000000000E+00 0.  1.
         21   -1    0    0  501  503 -0.00000000000E+00 -0.00000000000E+00 -0.13476909581E+03  0.13476909581E+03  0.00000000000E+00 0.  1.
          6    1    1    2  501    0  0.65111672249E+02  0.13448261572E+03  0.29845293380E+02  0.23053165798E+03  0.17300000000E+03 0.  1.
         -6    1    1    2    0  502 -0.65111672249E+02 -0.13448261572E+03  0.34504189472E+03  0.41389372175E+03  0.17300000000E+03 0.  1.
<mgrwt>
<rscale>  2 0.22859157E+03</rscale>
<asrwt>0</asrwt>
<pdfrwt beam="1">  1       21 0.78408658E-01 0.22859157E+03</pdfrwt>
<pdfrwt beam="2">  1       21 0.20733707E-01 0.22859157E+03</pdfrwt>
<totfact> 0.30466290E+04</totfact>
</mgrwt>
</event>
<event>
 4    1  0.4621995E+000  0.1868121E+03  0.7546771E-02  0.1161368E+00
         21   -1    0    0  503  502  0.00000000000E+00  0.00000000000E+00  0.78870775254E+03  0.78870775254E+03  0.00000000000E+00 0.  1.
         21   -1    0    0  501  503 -0.00000000000E+00 -0.00000000000E+00 -0.50092203411E+02  0.50092203411E+02  0.00000000000E+00 0.  1.
          6    1    1    2  501    0  0.27186922244E+02  0.65043182605E+02  0.22605408293E+03  0.29325618963E+03  0.17300000000E+03 0.  1.
         -6    1    1    2    0  502 -0.27186922244E+02 -0.65043182605E+02  0.51256146620E+03  0.54554376633E+03  0.17300000000E+03 0.  1.
<mgrwt>
<rscale>  2 0.18681206E+03</rscale>
<asrwt>0</asrwt>
<pdfrwt beam="1">  1       21 0.12133964E+00 0.18681206E+03</pdfrwt>
<pdfrwt beam="2">  1       21 0.77064934E-02 0.18681206E+03</pdfrwt>
<totfact> 0.65975578E+04</totfact>
</mgrwt>
</event>
<event>
 4    1  0.4621995E+000  0.2102543E+03  0.7546771E-02  0.1141365E+00
         21   -1    0    0  503  502  0.00000000000E+00  0.00000000000E+00  0.20103632525E+03  0.20103632525E+03  0.00000000000E+00 0.  1.
         21   -1    0    0  501  503 -0.00000000000E+00 -0.00000000000E+00 -0.23610096259E+03  0.23610096259E+03  0.00000000000E+00 0.  1.
          6    1    1    2  501    0  0.12027659467E+02 -0.11888314341E+03 -0.74795765442E+02  0.22316198805E+03  0.17300000000E+03 0.  1.
         -6    1    1    2    0  502 -0.12027659467E+02  0.11888314341E+03  0.39731128101E+02  0.21397529979E+03  0.17300000000E+03 0.  1.
<mgrwt>
<rscale>  2 0.21025429E+03</rscale>
<asrwt>0</asrwt>
<pdfrwt beam="1">  1       21 0.30928665E-01 0.21025429E+03</pdfrwt>
<pdfrwt beam="2">  1       21 0.36323225E-01 0.21025429E+03</pdfrwt>
<totfact> 0.72826729E+04</totfact>
</mgrwt>
</event>
<event>
 4    1  0.4621995E+000  0.2021388E+03  0.7546771E-02  0.1147947E+00
         21   -1    0    0  501  502  0.00000000000E+00  0.00000000000E+00  0.45979750153E+02  0.45979750153E+02  0.00000000000E+00 0. -1.
         21   -1    0    0  502  503 -0.00000000000E+00 -0.00000000000E+00 -0.10612734068E+04  0.10612734068E+04  0.00000000000E+00 0. -1.
          6    1    1    2  501    0 -0.59398365078E+01  0.10438298791E+03 -0.28436772723E+03  0.34889123536E+03  0.17300000000E+03 0. -1.
         -6    1    1    2    0  503  0.59398365078E+01 -0.10438298791E+03 -0.73092592946E+03  0.75836192163E+03  0.17300000000E+03 0. -1.
<mgrwt>
<rscale>  2 0.20213879E+03</rscale>
<asrwt>0</asrwt>
<pdfrwt beam="1">  1       21 0.70738070E-02 0.20213879E+03</pdfrwt>
<pdfrwt beam="2">  1       21 0.16327285E+00 0.20213879E+03</pdfrwt>
<totfact> 0.35184970E+04</totfact>
</mgrwt>
</event>
<event>
 4    1  0.4621995E+000  0.4456405E+03  0.7546771E-02  0.1029030E+00
         21   -1    0    0  503  502  0.00000000000E+00  0.00000000000E+00  0.30480923523E+03  0.30480923523E+03  0.00000000000E+00 0. -1.
         21   -1    0    0  501  503 -0.00000000000E+00 -0.00000000000E+00 -0.92227748017E+03  0.92227748017E+03  0.00000000000E+00 0.  1.
          6    1    1    2  501    0  0.30721636371E+03  0.27255191401E+03 -0.64115521054E+03  0.78081716423E+03  0.17300000000E+03 0. -1.
         -6    1    1    2    0  502 -0.30721636371E+03 -0.27255191401E+03  0.23686965602E+02  0.44626955117E+03  0.17300000000E+03 0.  1.
<mgrwt>
<rscale>  2 0.44564048E+03</rscale>
<asrwt>0</asrwt>
<pdfrwt beam="1">  1       21 0.46893729E-01 0.44564048E+03</pdfrwt>
<pdfrwt beam="2">  1       21 0.14188884E+00 0.44564048E+03</pdfrwt>
<totfact> 0.12812513E+03</totfact>
</mgrwt>
</event>
<event>
 4    1  0.4621995E+000  0.1794932E+03  0.7546771E-02  0.1168294E+00
         21   -1    0    0  503  502  0.00000000000E+00  0.00000000000E+00  0.40936663229E+03  0.40936663229E+03  0.00000000000E+00 0. -1.
         21   -1    0    0  501  503 -0.00000000000E+00 -0.00000000000E+00 -0.87744243618E+02  0.87744243618E+02  0.00000000000E+00 0. -1.
          6    1    1    2  501    0  0.46345255692E+02 -0.11870635667E+02  0.81018616806E+02  0.19693098026E+03  0.17300000000E+03 0. -1.
         -6    1    1    2    0  502 -0.46345255692E+02  0.11870635667E+02  0.24060377187E+03  0.30017989565E+03  0.17300000000E+03 0. -1.
<mgrwt>
<rscale>  2 0.17949316E+03</rscale>
<asrwt>0</asrwt>
<pdfrwt beam="1">  1       21 0.62979481E-01 0.17949316E+03</pdfrwt>
<pdfrwt beam="2">  1       21 0.13499115E-01 0.17949316E+03</pdfrwt>
<totfact> 0.11139460E+05</totfact>
</mgrwt>
</event>
<event>
 4    1  0.4621995E+000  0.1827497E+03  0.7546771E-02  0.1165168E+00
         21   -1    0    0  503  502  0.00000000000E+00  0.00000000000E+00  0.31057028880E+02  0.31057028880E+02  0.00000000000E+00 0.  1.
         21   -1    0    0  501  503 -0.00000000000E+00 -0.00000000000E+00 -0.10753686667E+04  0.10753686667E+04  0.00000000000E+00 0.  1.
          6    1    1    2  501    0 -0.49989539410E+02  0.31136821712E+02 -0.52049771938E+03  0.55164783295E+03  0.17300000000E+03 0.  1.
         -6    1    1    2    0  502  0.49989539410E+02 -0.31136821712E+02 -0.52381391847E+03  0.55477786266E+03  0.17300000000E+03 0.  1.
<mgrwt>
<rscale>  2 0.18274971E+03</rscale>
<asrwt>0</asrwt>
<pdfrwt beam="1">  1       21 0.47780046E-02 0.18274971E+03</pdfrwt>
<pdfrwt beam="2">  1       21 0.16544133E+00 0.18274971E+03</pdfrwt>
<totfact> 0.67141600E+04</totfact>
</mgrwt>
</event>
<event>
 4    1  0.4621995E+000  0.1738020E+03  0.7546771E-02  0.1173940E+00
         21   -1    0    0  501  502  0.00000000000E+00  0.00000000000E+00  0.11287475275E+03  0.11287475275E+03  0.00000000000E+00 0.  1.
         21   -1    0    0  502  503 -0.00000000000E+00 -0.00000000000E+00 -0.30524232476E+03  0.30524232476E+03  0.00000000000E+00 0.  1.
          6    1    1    2  501    0  0.16575697174E+02  0.18408416071E+01 -0.22785022373E+02  0.17528918871E+03  0.17300000000E+03 0. -1.
         -6    1    1    2    0  503 -0.16575697174E+02 -0.18408416071E+01 -0.16958254963E+03  0.24282788879E+03  0.17300000000E+03 0. -1.
<mgrwt>
<rscale>  2 0.17380202E+03</rscale>
<asrwt>0</asrwt>
<pdfrwt beam="1">  1       21 0.17365347E-01 0.17380202E+03</pdfrwt>
<pdfrwt beam="2">  1       21 0.46960356E-01 0.17380202E+03</pdfrwt>
<totfact> 0.13105476E+05</totfact>
</mgrwt>
</event>
<event>
 4    1  0.4621995E+000  0.1759742E+03  0.7546771E-02  0.1171757E+00
         21   -1    0    0  501  502  0.00000000000E+00  0.00000000000E+00  0.44197193521E+03  0.44197193521E+03  0.00000000000E+00 0.  1.
         21   -1    0    0  502  503 -0.00000000000E+00 -0.00000000000E+00 -0.93757792395E+02  0.93757792395E+02  0.00000000000E+00 0.  1.
          6    1    1    2  501    0 -0.36200046544E+00 -0.32214882042E+02  0.30876029207E+03  0.35538689851E+03  0.17300000000E+03 0.  1.
         -6    1    1    2    0  503  0.36200046544E+00  0.32214882042E+02  0.39453850744E+02  0.18034282910E+03  0.17300000000E+03 0.  1.
<mgrwt>
<rscale>  2 0.17597423E+03</rscale>
<asrwt>0</asrwt>
<pdfrwt beam="1">  1       21 0.67995681E-01 0.17597423E+03</pdfrwt>
<pdfrwt beam="2">  1       21 0.14424276E-01 0.17597423E+03</pdfrwt>
<totfact> 0.83771119E+04</totfact>
</mgrwt>
</event>
<event>
 4    1  0.4621995E+000  0.2516131E+03  0.7546771E-02  0.1112290E+00
         21   -1    0    0  501  502  0.00000000000E+00  0.00000000000E+00  0.76530176542E+02  0.76530176542E+02  0.00000000000E+00 0. -1.
         21   -1    0    0  502  503 -0.00000000000E+00 -0.00000000000E+00 -0.84378341383E+03  0.84378341383E+03  0.00000000000E+00 0.  1.
          6    1    1    2  501    0 -0.18017926849E+03  0.30258628458E+02 -0.31920282683E+03  0.40644753419E+03  0.17300000000E+03 0. -1.
         -6    1    1    2    0  503  0.18017926849E+03 -0.30258628458E+02 -0.44805041045E+03  0.51386605618E+03  0.17300000000E+03 0. -1.
<mgrwt>
<rscale>  2 0.25161310E+03</rscale>
<asrwt>0</asrwt>
<pdfrwt beam="1">  1       21 0.11773874E-01 0.25161310E+03</pdfrwt>
<pdfrwt beam="2">  1       21 0.12981283E+00 0.25161310E+03</pdfrwt>
<totfact> 0.25481111E+04</totfact>
</mgrwt>
</event>
<event>
 4    1  0.4621995E+000  0.2933226E+03  0.7546771E-02  0.1088627E+00
         21   -1    0    0  501  502  0.00000000000E+00  0.00000000000E+00  0.20988579887E+03  0.20988579887E+03  0.00000000000E+00 0.  1.
         21   -1    0    0  502  503 -0.00000000000E+00 -0.00000000000E+00 -0.41562693089E+03  0.41562693089E+03  0.00000000000E+00 0.  1.
          6    1    1    2  501    0  0.50044943840E+02  0.23152680768E+03 -0.13949189239E+03  0.32480170430E+03  0.17300000000E+03 0.  1.
         -6    1    1    2    0  503 -0.50044943840E+02 -0.23152680768E+03 -0.66249239634E+02  0.30071102545E+03  0.17300000000E+03 0.  1.
<mgrwt>
<rscale>  2 0.29332262E+03</rscale>
<asrwt>0</asrwt>
<pdfrwt beam="1">  1       21 0.32290123E-01 0.29332262E+03</pdfrwt>
<pdfrwt beam="2">  1       21 0.63942605E-01 0.29332262E+03</pdfrwt>
<totfact> 0.19813248E+04</totfact>
</mgrwt>
</event>
<event>
 4    1  0.4621995E+000  0.2396680E+03  0.7546771E-02  0.1120014E+00
         21   -1    0    0  501  502  0.00000000000E+00  0.00000000000E+00  0.36328994460E+02  0.36328994460E+02  0.00000000000E+00 0.  1.
         21   -1    0    0  502  503 -0.00000000000E+00 -0.00000000000E+00 -0.15811356383E+04  0.15811356383E+04  0.00000000000E+00 0.  1.
          6    1    1    2  501    0  0.13473110695E+03  0.96743426906E+02 -0.77053666731E+03  0.80694951360E+03  0.17300000000E+03 0.  1.
         -6    1    1    2    0  503 -0.13473110695E+03 -0.96743426906E+02 -0.77426997651E+03  0.81051511914E+03  0.17300000000E+03 0.  1.
<mgrwt>
<rscale>  2 0.23966802E+03</rscale>
<asrwt>0</asrwt>
<pdfrwt beam="1">  1       21 0.55890760E-02 0.23966802E+03</pdfrwt>
<pdfrwt beam="2">  1       21 0.24325164E+00 0.23966802E+03</pdfrwt>
<totfact> 0.15612981E+04</totfact>
</mgrwt>
</event>
<event>
 4    1  0.4621995E+000  0.1814235E+03  0.7546771E-02  0.1166432E+00
         21   -1    0    0  501  502  0.00000000000E+00  0.00000000000E+00  0.34806439242E+02  0.34806439242E+02  0.00000000000E+00 0. -1.
         21   -1    0    0  502  503 -0.00000000000E+00 -0.00000000000E+00 -0.10410997690E+04  0.10410997690E+04  0.00000000000E+00 0. -1.
          6    1    1    2  501    0  0.31436687943E+02 -0.44690465475E+02 -0.34025488762E+03  0.38560068931E+03  0.17300000000E+03 0. -1.
         -6    1    1    2    0  503 -0.31436687943E+02  0.44690465475E+02 -0.66603844219E+03  0.69030551897E+03  0.17300000000E+03 0. -1.
<mgrwt>
<rscale>  2 0.18142355E+03</rscale>
<asrwt>0</asrwt>
<pdfrwt beam="1">  1       21 0.53548373E-02 0.18142355E+03</pdfrwt>
<pdfrwt beam="2">  1       21 0.16016918E+00 0.18142355E+03</pdfrwt>
<totfact> 0.60465358E+04</totfact>
</mgrwt>
</event>
<event>
 4    1  0.4621995E+000  0.2094475E+03  0.7546771E-02  0.1142004E+00
         21   -1    0    0  503  502  0.00000000000E+00  0.00000000000E+00  0.16961900759E+03  0.16961900759E+03  0.00000000000E+00 0. -1.
         21   -1    0    0  501  503 -0.00000000000E+00 -0.00000000000E+00 -0.57975251331E+03  0.57975251331E+03  0.00000000000E+00 0.  1.
          6    1    1    2  501    0 -0.11400004336E+03 -0.30712042167E+02 -0.48392438754E+03  0.52730546392E+03  0.17300000000E+03 0.  1.
         -6    1    1    2    0  502  0.11400004336E+03  0.30712042167E+02  0.73790881822E+02  0.22206605697E+03  0.17300000000E+03 0. -1.
<mgrwt>
<rscale>  2 0.20944746E+03</rscale>
<asrwt>0</asrwt>
<pdfrwt beam="1">  1       21 0.26095231E-01 0.20944746E+03</pdfrwt>
<pdfrwt beam="2">  1       21 0.89192696E-01 0.20944746E+03</pdfrwt>
<totfact> 0.14807259E+04</totfact>
</mgrwt>
</event>
<event>
 4    1  0.4621995E+000  0.2046426E+03  0.7546771E-02  0.1145880E+00
         21   -1    0    0  503  502  0.00000000000E+00  0.00000000000E+00  0.31468261575E+03  0.31468261575E+03  0.00000000000E+00 0.  1.
         21   -1    0    0  501  503 -0.00000000000E+00 -0.00000000000E+00 -0.15501506480E+03  0.15501506480E+03  0.00000000000E+00 0.  1.
          6    1    1    2  501    0 -0.61290162421E+02 -0.90515799202E+02 -0.85049366250E+01  0.20481925657E+03  0.17300000000E+03 0.  1.
         -6    1    1    2    0  502  0.61290162421E+02  0.90515799202E+02  0.16817248758E+03  0.26487842398E+03  0.17300000000E+03 0.  1.
<mgrwt>
<rscale>  2 0.20464260E+03</rscale>
<asrwt>0</asrwt>
<pdfrwt beam="1">  1       21 0.48412710E-01 0.20464260E+03</pdfrwt>
<pdfrwt beam="2">  1       21 0.23848472E-01 0.20464260E+03</pdfrwt>
<totfact> 0.67156184E+04</totfact>
</mgrwt>
</event>
<event>
 4    1  0.4621995E+000  0.1799323E+03  0.7546771E-02  0.1167869E+00
         21   -1    0    0  501  502  0.00000000000E+00  0.00000000000E+00  0.13164778870E+03  0.13164778870E+03  0.00000000000E+00 0.  1.
         21   -1    0    0  502  503 -0.00000000000E+00 -0.00000000000E+00 -0.30677255238E+03  0.30677255238E+03  0.00000000000E+00 0.  1.
          6    1    1    2  501    0 -0.46354009457E+02  0.17260697919E+02  0.10064657274E+02  0.18021354891E+03  0.17300000000E+03 0.  1.
         -6    1    1    2    0  503  0.46354009457E+02 -0.17260697919E+02 -0.18518942095E+03  0.25820679216E+03  0.17300000000E+03 0.  1.
<mgrwt>
<rscale>  2 0.17993228E+03</rscale>
<asrwt>0</asrwt>
<pdfrwt beam="1">  1       21 0.20253506E-01 0.17993228E+03</pdfrwt>
<pdfrwt beam="2">  1       21 0.47195777E-01 0.17993228E+03</pdfrwt>
<totfact> 0.97319137E+04</totfact>
</mgrwt>
</event>
<event>
 4    1  0.4621995E+000  0.3483634E+03  0.7546771E-02  0.1063289E+00
         21   -1    0    0  501  502  0.00000000000E+00  0.00000000000E+00  0.14437901673E+03  0.14437901673E+03  0.00000000000E+00 0.  1.
         21   -1    0    0  502  503 -0.00000000000E+00 -0.00000000000E+00 -0.93240274499E+03  0.93240274499E+03  0.00000000000E+00 0. -1.
          6    1    1    2  501    0  0.15525359744E+03 -0.25946935957E+03 -0.22502445548E+03  0.41472042829E+03  0.17300000000E+03 0.  1.
         -6    1    1    2    0  503 -0.15525359744E+03  0.25946935957E+03 -0.56299927278E+03  0.66206133343E+03  0.17300000000E+03 0. -1.
<mgrwt>
<rscale>  2 0.34836336E+03</rscale>
<asrwt>0</asrwt>
<pdfrwt beam="1">  1       21 0.22212156E-01 0.34836336E+03</pdfrwt>
<pdfrwt beam="2">  1       21 0.14344658E+00 0.34836336E+03</pdfrwt>
<totfact> 0.57945567E+03</totfact>
</mgrwt>
</event>
<event>
 4    1  0.4621995E+000  0.1768874E+03  0.7546771E-02  0.1170850E+00
         21   -1    0    0  503  502  0.00000000000E+00  0.00000000000E+00  0.44207560059E+03  0.44207560059E+03  0.00000000000E+00 0. -1.
         21   -1    0    0  501  503 -0.00000000000E+00 -0.00000000000E+00 -0.87336904354E+02  0.87336904354E+02  0.00000000000E+00 0. -1.
          6    1    1    2  501    0 -0.97477950572E+01  0.35568942245E+02  0.62108234100E+02  0.18747426998E+03  0.17300000000E+03 0. -1.
         -6    1    1    2    0  502  0.97477950572E+01 -0.35568942245E+02  0.29263046213E+03  0.34193823496E+03  0.17300000000E+03 0. -1.
<mgrwt>
<rscale>  2 0.17688745E+03</rscale>
<asrwt>0</asrwt>
<pdfrwt beam="1">  1       21 0.68011629E-01 0.17688745E+03</pdfrwt>
<pdfrwt beam="2">  1       21 0.13436447E-01 0.17688745E+03</pdfrwt>
<totfact> 0.95138933E+04</totfact>
</mgrwt>
</event>
<event>
 4    1  0.4621995E+000  0.2585211E+03  0.7546771E-02  0.1108035E+00
         21   -1    0    0  501  502  0.00000000000E+00  0.00000000000E+00  0.38502962000E+03  0.38502962000E+03  0.00000000000E+00 0.  1.
         21   -1    0    0  502  503 -0.00000000000E+00 -0.00000000000E+00 -0.37854400843E+03  0.37854400843E+03  0.00000000000E+00 0.  1.
          6    1    1    2  501    0  0.88368689131E+02 -0.17057290090E+03  0.28417555541E+03  0.38417298973E+03  0.17300000000E+03 0.  1.
         -6    1    1    2    0  503 -0.88368689131E+02  0.17057290090E+03 -0.27768994384E+03  0.37940063870E+03  0.17300000000E+03 0.  1.
<mgrwt>
<rscale>  2 0.25852106E+03</rscale>
<asrwt>0</asrwt>
<pdfrwt beam="1">  1       21 0.59235327E-01 0.25852106E+03</pdfrwt>
<pdfrwt beam="2">  1       21 0.58237539E-01 0.25852106E+03</pdfrwt>
<totfact> 0.70484374E+03</totfact>
</mgrwt>
</event>
<event>
 4    1  0.4621995E+000  0.1886665E+03  0.7546771E-02  0.1159670E+00
         21   -1    0    0  503  502  0.00000000000E+00  0.00000000000E+00  0.36407479849E+03  0.36407479849E+03  0.00000000000E+00 0. -1.
         21   -1    0    0  501  503 -0.00000000000E+00 -0.00000000000E+00 -0.11765928847E+03  0.11765928847E+03  0.00000000000E+00 0. -1.
          6    1    1    2  501    0 -0.54113653118E+02 -0.52323686024E+02  0.22224305320E+03  0.29152535099E+03  0.17300000000E+03 0. -1.
         -6    1    1    2    0  502  0.54113653118E+02  0.52323686024E+02  0.24172456816E+02  0.19020873598E+03  0.17300000000E+03 0. -1.
<mgrwt>
<rscale>  2 0.18866652E+03</rscale>
<asrwt>0</asrwt>
<pdfrwt beam="1">  1       21 0.56011507E-01 0.18866652E+03</pdfrwt>
<pdfrwt beam="2">  1       21 0.18101429E-01 0.18866652E+03</pdfrwt>
<totfact> 0.83520574E+04</totfact>
</mgrwt>
</event>
<event>
 4    1  0.4621995E+000  0.2211494E+03  0.7546771E-02  0.1133029E+00
         21   -1    0    0  501  502  0.00000000000E+00  0.00000000000E+00  0.38631449762E+03  0.38631449762E+03  0.00000000000E+00 0.  1.
         21   -1    0    0  502  503 -0.00000000000E+00 -0.00000000000E+00 -0.18131268140E+03  0.18131268140E+03  0.00000000000E+00 0.  1.
          6    1    1    2  501    0 -0.73649844698E+02 -0.11642064033E+03  0.25840829571E+03  0.34012043809E+03  0.17300000000E+03 0.  1.
         -6    1    1    2    0  503  0.73649844698E+02  0.11642064033E+03 -0.53406479485E+02  0.22750674093E+03  0.17300000000E+03 0.  1.
<mgrwt>
<rscale>  2 0.22114942E+03</rscale>
<asrwt>0</asrwt>
<pdfrwt beam="1">  1       21 0.59433000E-01 0.22114942E+03</pdfrwt>
<pdfrwt beam="2">  1       21 0.27894259E-01 0.22114942E+03</pdfrwt>
<totfact> 0.31972190E+04</totfact>
</mgrwt>
</event>
<event>
 4    1  0.4621995E+000  0.2412627E+03  0.7546771E-02  0.1118954E+00
         21   -1    0    0  501  502  0.00000000000E+00  0.00000000000E+00  0.65739971732E+02  0.65739971732E+02  0.00000000000E+00 0.  1.
         21   -1    0    0  502  503 -0.00000000000E+00 -0.00000000000E+00 -0.95711288761E+03  0.95711288761E+03  0.00000000000E+00 0. -1.
          6    1    1    2  501    0 -0.13683061703E+02  0.16760509431E+03 -0.58565487040E+03  0.63340296892E+03  0.17300000000E+03 0.  1.
         -6    1    1    2    0  503  0.13683061703E+02 -0.16760509431E+03 -0.30571804548E+03  0.38944989042E+03  0.17300000000E+03 0.  1.
<mgrwt>
<rscale>  2 0.24126271E+03</rscale>
<asrwt>0</asrwt>
<pdfrwt beam="1">  1       21 0.10113841E-01 0.24126271E+03</pdfrwt>
<pdfrwt beam="2">  1       21 0.14724814E+00 0.24126271E+03</pdfrwt>
<totfact> 0.24241093E+04</totfact>
</mgrwt>
</event>
<event>
 4    1  0.4621995E+000  0.1864614E+03  0.7546771E-02  0.1161692E+00
         21   -1    0    0  503  502  0.00000000000E+00  0.00000000000E+00  0.47471362141E+03  0.47471362141E+03  0.00000000000E+00 0.  1.
         21   -1    0    0  501  503 -0.00000000000E+00 -0.00000000000E+00 -0.12226042367E+03  0.12226042367E+03  0.00000000000E+00 0. -1.
          6    1    1    2  501    0  0.21497539648E+02  0.66156717283E+02 -0.12778109790E+02  0.18689873071E+03  0.17300000000E+03 0. -1.
         -6    1    1    2    0  502 -0.21497539648E+02 -0.66156717283E+02  0.36523130753E+03  0.41007531437E+03  0.17300000000E+03 0.  1.
<mgrwt>
<rscale>  2 0.18646140E+03</rscale>
<asrwt>0</asrwt>
<pdfrwt beam="1">  1       21 0.73032864E-01 0.18646140E+03</pdfrwt>
<pdfrwt beam="2">  1       21 0.18809296E-01 0.18646140E+03</pdfrwt>
<totfact> 0.43788509E+04</totfact>
</mgrwt>
</event>
<event>
 4    1  0.4621995E+000  0.2254812E+03  0.7546771E-02  0.1129861E+00
         21   -1    0    0  501  502  0.00000000000E+00  0.00000000000E+00  0.49889438855E+02  0.49889438855E+02  0.00000000000E+00 0. -1.
         21   -1    0    0  502  503 -0.00000000000E+00 -0.00000000000E+00 -0.14688473508E+04  0.14688473508E+04  0.00000000000E+00 0.  1.
          6    1    1    2  501    0  0.57248526293E+02 -0.13279822031E+03 -0.11296769459E+04  0.11519599660E+04  0.17300000000E+03 0.  1.
         -6    1    1    2    0  503 -0.57248526293E+02  0.13279822031E+03 -0.28928096604E+03  0.36677682369E+03  0.17300000000E+03 0. -1.
<mgrwt>
<rscale>  2 0.22548118E+03</rscale>
<asrwt>0</asrwt>
<pdfrwt beam="1">  1       21 0.76752984E-02 0.22548118E+03</pdfrwt>
<pdfrwt beam="2">  1       21 0.22597651E+00 0.22548118E+03</pdfrwt>
<totfact> 0.11606250E+04</totfact>
</mgrwt>
</event>
<event>
 4    1  0.4621995E+000  0.3525591E+03  0.7546771E-02  0.1061570E+00
         21   -1    0    0  503  502  0.00000000000E+00  0.00000000000E+00  0.23948626164E+03  0.23948626164E+03  0.00000000000E+00 0.  1.
         21   -1    0    0  501  503 -0.00000000000E+00 -0.00000000000E+00 -0.51953398026E+03  0.51953398026E+03  0.00000000000E+00 0. -1.
          6    1    1    2  501    0  0.30659160342E+03  0.19249449495E+02 -0.12807698393E+03  0.37510220795E+03  0.17300000000E+03 0. -1.
         -6    1    1    2    0  502 -0.30659160342E+03 -0.19249449495E+02 -0.15197073469E+03  0.38391803396E+03  0.17300000000E+03 0.  1.
<mgrwt>
<rscale>  2 0.35255915E+03</rscale>
<asrwt>0</asrwt>
<pdfrwt beam="1">  1       21 0.36844040E-01 0.35255915E+03</pdfrwt>
<pdfrwt beam="2">  1       21 0.79928305E-01 0.35255915E+03</pdfrwt>
<totfact> 0.90023648E+03</totfact>
</mgrwt>
</event>
<event>
 4    1  0.4621995E+000  0.1799590E+03  0.7546771E-02  0.1167843E+00
         21   -1    0    0  503  502  0.00000000000E+00  0.00000000000E+00  0.29988988548E+03  0.29988988548E+03  0.00000000000E+00 0. -1.
         21   -1    0    0  501  503 -0.00000000000E+00 -0.00000000000E+00 -0.13986490487E+03  0.13986490487E+03  0.00000000000E+00 0. -1.
          6    1    1    2  501    0  0.42337580345E+02 -0.25763769225E+02 -0.24953260307E+02  0.18168078521E+03  0.17300000000E+03 0. -1.
         -6    1    1    2    0  502 -0.42337580345E+02  0.25763769225E+02  0.18497824093E+03  0.25807400514E+03  0.17300000000E+03 0. -1.
<mgrwt>
<rscale>  2 0.17995900E+03</rscale>
<asrwt>0</asrwt>
<pdfrwt beam="1">  1       21 0.46136905E-01 0.17995900E+03</pdfrwt>
<pdfrwt beam="2">  1       21 0.21517678E-01 0.17995900E+03</pdfrwt>
<totfact> 0.91047528E+04</totfact>
</mgrwt>
</event>
<event>
 4    1  0.4621995E+000  0.2406916E+03  0.7546771E-02  0.1119333E+00
         21   -1    0    0  503  502  0.00000000000E+00  0.00000000000E+00  0.65710802414E+02  0.65710802414E+02  0.00000000000E+00 0.  1.
         21   -1    0    0  501  503 -0.00000000000E+00 -0.00000000000E+00 -0.89878047397E+03  0.89878047397E+03  0.00000000000E+00 0. -1.
          6    1    1    2  501    0  0.14078951575E+03 -0.90453059092E+02 -0.48315604637E+03  0.53978904100E+03  0.17300000000E+03 0. -1.
         -6    1    1    2    0  502 -0.14078951575E+03  0.90453059092E+02 -0.34991362519E+03  0.42470223538E+03  0.17300000000E+03 0.  1.
<mgrwt>
<rscale>  2 0.24069159E+03</rscale>
<asrwt>0</asrwt>
<pdfrwt beam="1">  1       21 0.10109354E-01 0.24069159E+03</pdfrwt>
<pdfrwt beam="2">  1       21 0.13827392E+00 0.24069159E+03</pdfrwt>
<totfact> 0.28612457E+04</totfact>
</mgrwt>
</event>
<event>
 4    1  0.4621995E+000  0.2078210E+03  0.7546771E-02  0.1143303E+00
         21   -1    0    0  503  502  0.00000000000E+00  0.00000000000E+00  0.92754078506E+03  0.92754078506E+03  0.00000000000E+00 0.  1.
         21   -1    0    0  501  503 -0.00000000000E+00 -0.00000000000E+00 -0.62966004945E+02  0.62966004945E+02  0.00000000000E+00 0. -1.
          6    1    1    2  501    0  0.17203427681E+01  0.11514164361E+03  0.17951519229E+03  0.27461839329E+03  0.17300000000E+03 0. -1.
         -6    1    1    2    0  502 -0.17203427681E+01 -0.11514164361E+03  0.68505958783E+03  0.71588839671E+03  0.17300000000E+03 0.  1.
<mgrwt>
<rscale>  2 0.20782098E+03</rscale>
<asrwt>0</asrwt>
<pdfrwt beam="1">  1       21 0.14269857E+00 0.20782098E+03</pdfrwt>
<pdfrwt beam="2">  1       21 0.96870784E-02 0.20782098E+03</pdfrwt>
<totfact> 0.28957426E+04</totfact>
</mgrwt>
</event>
<event>
 4    1  0.4621995E+000  0.1789191E+03  0.7546771E-02  0.1168853E+00
         21   -1    0    0  501  502  0.00000000000E+00  0.00000000000E+00  0.36022558910E+03  0.36022558910E+03  0.00000000000E+00 0. -1.
         21   -1    0    0  502  503 -0.00000000000E+00 -0.00000000000E+00 -0.96074891750E+02  0.96074891750E+02  0.00000000000E+00 0. -1.
          6    1    1    2  501    0 -0.29368236200E+02 -0.34936544520E+02  0.19456807506E+03  0.26432705361E+03  0.17300000000E+03 0. -1.
         -6    1    1    2    0  503  0.29368236200E+02  0.34936544520E+02  0.69582622295E+02  0.19197342724E+03  0.17300000000E+03 0. -1.
<mgrwt>
<rscale>  2 0.17891913E+03</rscale>
<asrwt>0</asrwt>
<pdfrwt beam="1">  1       21 0.55419321E-01 0.17891913E+03</pdfrwt>
<pdfrwt beam="2">  1       21 0.14780753E-01 0.17891913E+03</pdfrwt>
<totfact> 0.12427968E+05</totfact>
</mgrwt>
</event>
<event>
 4    1  0.4621995E+000  0.1923408E+03  0.7546771E-02  0.1156367E+00
         21   -1    0    0  503  502  0.00000000000E+00  0.00000000000E+00  0.21510090798E+03  0.21510090798E+03  0.00000000000E+00 0. -1.
         21   -1    0    0  501  503 -0.00000000000E+00 -0.00000000000E+00 -0.58282724539E+03  0.58282724539E+03  0.00000000000E+00 0. -1.
          6    1    1    2  501    0 -0.84019760288E+02 -0.25791805662E+01 -0.51882810400E+03  0.55333314901E+03  0.17300000000E+03 0. -1.
         -6    1    1    2    0  502  0.84019760288E+02  0.25791805662E+01  0.15110176659E+03  0.24459500436E+03  0.17300000000E+03 0. -1.
<mgrwt>
<rscale>  2 0.19234077E+03</rscale>
<asrwt>0</asrwt>
<pdfrwt beam="1">  1       21 0.33092448E-01 0.19234077E+03</pdfrwt>
<pdfrwt beam="2">  1       21 0.89665729E-01 0.19234077E+03</pdfrwt>
<totfact> 0.93191565E+03</totfact>
</mgrwt>
</event>
<event>
 4    1  0.4621995E+000  0.2037011E+03  0.7546771E-02  0.1146653E+00
         21   -1    0    0  501  502  0.00000000000E+00  0.00000000000E+00  0.19583606462E+04  0.19583606462E+04  0.00000000000E+00 0.  1.
         21   -1    0    0  502  503 -0.00000000000E+00 -0.00000000000E+00 -0.38041944306E+02  0.38041944306E+02  0.00000000000E+00 0. -1.
          6    1    1    2  501    0  0.44525417447E+02  0.97890780954E+02  0.16245677339E+04  0.16372887466E+04  0.17300000000E+03 0.  1.
         -6    1    1    2    0  503 -0.44525417447E+02 -0.97890780954E+02  0.29575096796E+03  0.35911384385E+03  0.17300000000E+03 0. -1.
<mgrwt>
<rscale>  2 0.20370105E+03</rscale>
<asrwt>0</asrwt>
<pdfrwt beam="1">  1       21 0.30128617E+00 0.20370105E+03</pdfrwt>
<pdfrwt beam="2">  1       21 0.58526084E-02 0.20370105E+03</pdfrwt>
<totfact> 0.68213764E+03</totfact>
</mgrwt>
</event>
<event>
 4    1  0.4621995E+000  0.2781130E+03  0.7546771E-02  0.1096724E+00
         21   -1    0    0  501  502  0.00000000000E+00  0.00000000000E+00  0.84294642288E+03  0.84294642288E+03  0.00000000000E+00 0.  1.
         21   -1    0    0  502  503 -0.00000000000E+00 -0.00000000000E+00 -0.11819157181E+03  0.11819157181E+03  0.00000000000E+00 0. -1.
          6    1    1    2  501    0 -0.85586609650E+02  0.20023182410E+03  0.58964769705E+03  0.65194421370E+03  0.17300000000E+03 0. -1.
         -6    1    1    2    0  503  0.85586609650E+02 -0.20023182410E+03  0.13510715402E+03  0.30919378099E+03  0.17300000000E+03 0.  1.
<mgrwt>
<rscale>  2 0.27811302E+03</rscale>
<asrwt>0</asrwt>
<pdfrwt beam="1">  1       21 0.12968406E+00 0.27811302E+03</pdfrwt>
<pdfrwt beam="2">  1       21 0.18183319E-01 0.27811302E+03</pdfrwt>
<totfact> 0.11373789E+04</totfact>
</mgrwt>
</event>
<event>
 4    1  0.4621995E+000  0.2736394E+03  0.7546771E-02  0.1099215E+00
         21   -1    0    0  503  502  0.00000000000E+00  0.00000000000E+00  0.10664220748E+04  0.10664220748E+04  0.00000000000E+00 0. -1.
         21   -1    0    0  501  503 -0.00000000000E+00 -0.00000000000E+00 -0.79848349119E+02  0.79848349119E+02  0.00000000000E+00 0.  1.
          6    1    1    2  501    0  0.20483754227E+03  0.54690818934E+02  0.69236316609E+03  0.74447649940E+03  0.17300000000E+03 0. -1.
         -6    1    1    2    0  502 -0.20483754227E+03 -0.54690818934E+02  0.29421055955E+03  0.40179392448E+03  0.17300000000E+03 0.  1.
<mgrwt>
<rscale>  2 0.27363937E+03</rscale>
<asrwt>0</asrwt>
<pdfrwt beam="1">  1       21 0.16406492E+00 0.27363937E+03</pdfrwt>
<pdfrwt beam="2">  1       21 0.12284362E-01 0.27363937E+03</pdfrwt>
<totfact> 0.12558981E+04</totfact>
</mgrwt>
</event>
<event>
 4    1  0.4621995E+000  0.2656480E+03  0.7546771E-02  0.1103797E+00
         21   -1    0    0  501  502  0.00000000000E+00  0.00000000000E+00  0.50753238184E+03  0.50753238184E+03  0.00000000000E+00 0.  1.
         21   -1    0    0  502  503 -0.00000000000E+00 -0.00000000000E+00 -0.14285057779E+03  0.14285057779E+03  0.00000000000E+00 0.  1.
          6    1    1    2  501    0 -0.18193546347E+03 -0.86829365214E+02  0.23543173814E+03  0.35496049760E+03  0.17300000000E+03 0.  1.
         -6    1    1    2    0  503  0.18193546347E+03  0.86829365214E+02  0.12925006591E+03  0.29542246203E+03  0.17300000000E+03 0.  1.
<mgrwt>
<rscale>  2 0.26564798E+03</rscale>
<asrwt>0</asrwt>
<pdfrwt beam="1">  1       21 0.78081904E-01 0.26564798E+03</pdfrwt>
<pdfrwt beam="2">  1       21 0.21977012E-01 0.26564798E+03</pdfrwt>
<totfact> 0.27084966E+04</totfact>
</mgrwt>
</event>
<event>
 4    1  0.4621995E+000  0.2275215E+03  0.7546771E-02  0.1128397E+00
         21   -1    0    0  503  502  0.00000000000E+00  0.00000000000E+00  0.26813719043E+03  0.26813719043E+03  0.00000000000E+00 0. -1.
         21   -1    0    0  501  503 -0.00000000000E+00 -0.00000000000E+00 -0.10183625760E+04  0.10183625760E+04  0.00000000000E+00 0. -1.
          6    1    1    2  501    0  0.14224018804E+03 -0.40059251892E+02 -0.95418879402E+03  0.98093948304E+03  0.17300000000E+03 0. -1.
         -6    1    1    2    0  502 -0.14224018804E+03  0.40059251892E+02  0.20396340849E+03  0.30556028335E+03  0.17300000000E+03 0. -1.
<mgrwt>
<rscale>  2 0.22752146E+03</rscale>
<asrwt>0</asrwt>
<pdfrwt beam="1">  1       21 0.41251876E-01 0.22752146E+03</pdfrwt>
<pdfrwt beam="2">  1       21 0.15667116E+00 0.22752146E+03</pdfrwt>
<totfact> 0.14581644E+03</totfact>
</mgrwt>
</event>
<event>
 4    1  0.4621995E+000  0.2983840E+03  0.7546771E-02  0.1086051E+00
         21   -1    0    0  503  502  0.00000000000E+00  0.00000000000E+00  0.18421023257E+04  0.18421023257E+04  0.00000000000E+00 0.  1.
         21   -1    0    0  501  503 -0.00000000000E+00 -0.00000000000E+00 -0.48797030061E+02  0.48797030061E+02  0.00000000000E+00 0. -1.
          6    1    1    2  501    0 -0.23509637925E+03 -0.61916724518E+02  0.80438365420E+03  0.85794291853E+03  0.17300000000E+03 0. -1.
         -6    1    1    2    0  502  0.23509637925E+03  0.61916724518E+02  0.98892164148E+03  0.10329564373E+04  0.17300000000E+03 0.  1.
<mgrwt>
<rscale>  2 0.29838396E+03</rscale>
<asrwt>0</asrwt>
<pdfrwt beam="1">  1       21 0.28340030E+00 0.29838396E+03</pdfrwt>
<pdfrwt beam="2">  1       21 0.75072368E-02 0.29838396E+03</pdfrwt>
<totfact> 0.51890790E+03</totfact>
</mgrwt>
</event>
<event>
 4    1  0.4621995E+000  0.2042736E+03  0.7546771E-02  0.1146183E+00
         21   -1    0    0  501  502  0.00000000000E+00  0.00000000000E+00  0.31924456041E+02  0.31924456041E+02  0.00000000000E+00 0. -1.
         21   -1    0    0  502  503 -0.00000000000E+00 -0.00000000000E+00 -0.13513467576E+04  0.13513467576E+04  0.00000000000E+00 0. -1.
          6    1    1    2  501    0 -0.27908664458E+02  0.10497522919E+03 -0.53452620303E+03  0.57222893498E+03  0.17300000000E+03 0. -1.
         -6    1    1    2    0  503  0.27908664458E+02 -0.10497522919E+03 -0.78489609848E+03  0.81104227862E+03  0.17300000000E+03 0. -1.
<mgrwt>
<rscale>  2 0.20427357E+03</rscale>
<asrwt>0</asrwt>
<pdfrwt beam="1">  1       21 0.49114554E-02 0.20427357E+03</pdfrwt>
<pdfrwt beam="2">  1       21 0.20789947E+00 0.20427357E+03</pdfrwt>
<totfact> 0.32890419E+04</totfact>
</mgrwt>
</event>
<event>
 4    1  0.4621995E+000  0.1835289E+03  0.7546771E-02  0.1164431E+00
         21   -1    0    0  503  502  0.00000000000E+00  0.00000000000E+00  0.40973434624E+02  0.40973434624E+02  0.00000000000E+00 0.  1.
         21   -1    0    0  501  503 -0.00000000000E+00 -0.00000000000E+00 -0.93166338914E+03  0.93166338914E+03  0.00000000000E+00 0.  1.
          6    1    1    2  501    0 -0.11353122010E+02  0.60207678066E+02 -0.61214333378E+03  0.63906362669E+03  0.17300000000E+03 0.  1.
         -6    1    1    2    0  502  0.11353122010E+02 -0.60207678066E+02 -0.27854662074E+03  0.33357319707E+03  0.17300000000E+03 0.  1.
<mgrwt>
<rscale>  2 0.18352890E+03</rscale>
<asrwt>0</asrwt>
<pdfrwt beam="1">  1       21 0.63036058E-02 0.18352890E+03</pdfrwt>
<pdfrwt beam="2">  1       21 0.14333282E+00 0.18352890E+03</pdfrwt>
<totfact> 0.61287187E+04</totfact>
</mgrwt>
</event>
<event>
 4    1  0.4621995E+000  0.2620012E+03  0.7546771E-02  0.1105947E+00
         21   -1    0    0  501  502  0.00000000000E+00  0.00000000000E+00  0.81932088740E+03  0.81932088740E+03  0.00000000000E+00 0.  1.
         21   -1    0    0  502  503 -0.00000000000E+00 -0.00000000000E+00 -0.84841526219E+02  0.84841526219E+02  0.00000000000E+00 0.  1.
          6    1    1    2  501    0 -0.18949214012E+03 -0.52994169756E+02  0.31672816945E+03  0.41104912908E+03  0.17300000000E+03 0.  1.
         -6    1    1    2    0  503  0.18949214012E+03  0.52994169756E+02  0.41775119173E+03  0.49311328454E+03  0.17300000000E+03 0.  1.
<mgrwt>
<rscale>  2 0.26200125E+03</rscale>
<asrwt>0</asrwt>
<pdfrwt beam="1">  1       21 0.12604936E+00 0.26200125E+03</pdfrwt>
<pdfrwt beam="2">  1       21 0.13052543E-01 0.26200125E+03</pdfrwt>
<totfact> 0.22679512E+04</totfact>
</mgrwt>
</event>
<event>
 4    1  0.4621995E+000  0.2435866E+03  0.7546771E-02  0.1117426E+00
         21   -1    0    0  501  502  0.00000000000E+00  0.00000000000E+00  0.22274198835E+04  0.22274198835E+04  0.00000000000E+00 0. -1.
         21   -1    0    0  502  503 -0.00000000000E+00 -0.00000000000E+00 -0.36540978562E+02  0.36540978562E+02  0.00000000000E+00 0.  1.
          6    1    1    2  501    0  0.17060065083E+03  0.17344570821E+02  0.16847276750E+04  0.17022460913E+04  0.17300000000E+03 0. -1.
         -6    1    1    2    0  503 -0.17060065083E+03 -0.17344570821E+02  0.50615122994E+03  0.56171477083E+03  0.17300000000E+03 0.  1.
<mgrwt>
<rscale>  2 0.24358657E+03</rscale>
<asrwt>0</asrwt>
<pdfrwt beam="1">  1       21 0.34267988E+00 0.24358657E+03</pdfrwt>
<pdfrwt beam="2">  1       21 0.56216908E-02 0.24358657E+03</pdfrwt>
<totfact> 0.40147933E+03</totfact>
</mgrwt>
</event>
<event>
 4    1  0.4621995E+000  0.2126015E+03  0.7546771E-02  0.1139522E+00
         21   -1    0    0  503  502  0.00000000000E+00  0.00000000000E+00  0.94092566461E+02  0.94092566461E+02  0.00000000000E+00 0.  1.
         21   -1    0    0  501  503 -0.00000000000E+00 -0.00000000000E+00 -0.48744957892E+03  0.48744957892E+03  0.00000000000E+00 0.  1.
          6    1    1    2  501    0  0.10143349138E+03  0.70580699500E+02 -0.23171686174E+03  0.31447113116E+03  0.17300000000E+03 0. -1.
         -6    1    1    2    0  502 -0.10143349138E+03 -0.70580699500E+02 -0.16164015072E+03  0.26707101423E+03  0.17300000000E+03 0. -1.
<mgrwt>
<rscale>  2 0.21260148E+03</rscale>
<asrwt>0</asrwt>
<pdfrwt beam="1">  1       21 0.14475779E-01 0.21260148E+03</pdfrwt>
<pdfrwt beam="2">  1       21 0.74992244E-01 0.21260148E+03</pdfrwt>
<totfact> 0.65947675E+04</totfact>
</mgrwt>
</event>
<event>
 4    1  0.4621995E+000  0.2150972E+03  0.7546771E-02  0.1137592E+00
         21   -1    0    0  501  502  0.00000000000E+00  0.00000000000E+00  0.70989864102E+02  0.70989864102E+02  0.00000000000E+00 0.  1.
         21   -1    0    0  502  503 -0.00000000000E+00 -0.00000000000E+00 -0.11939159952E+04  0.11939159952E+04  0.00000000000E+00 0. -1.
          6    1    1    2  501    0 -0.36317521480E+02  0.12255141950E+03 -0.13526433674E+03  0.25409300183E+03  0.17300000000E+03 0.  1.
         -6    1    1    2    0  503  0.36317521480E+02 -0.12255141950E+03 -0.98766179437E+03  0.10108128575E+04  0.17300000000E+03 0. -1.
<mgrwt>
<rscale>  2 0.21509722E+03</rscale>
<asrwt>0</asrwt>
<pdfrwt beam="1">  1       21 0.10921517E-01 0.21509722E+03</pdfrwt>
<pdfrwt beam="2">  1       21 0.18367939E+00 0.21509722E+03</pdfrwt>
<totfact> 0.11722215E+04</totfact>
</mgrwt>
</event>
<event>
 4    1  0.4621995E+000  0.2154508E+03  0.7546771E-02  0.1137321E+00
         21   -1    0    0  501  502  0.00000000000E+00  0.00000000000E+00  0.61921409425E+03  0.61921409425E+03  0.00000000000E+00 0. -1.
         21   -1    0    0  502  503 -0.00000000000E+00 -0.00000000000E+00 -0.75026947637E+02  0.75026947637E+02  0.00000000000E+00 0.  1.
          6    1    1    2  501    0  0.57054898938E+02  0.11504262028E+03  0.28210924689E+03  0.35497139766E+03  0.17300000000E+03 0. -1.
         -6    1    1    2    0  503 -0.57054898938E+02 -0.11504262028E+03  0.26207789972E+03  0.33926964423E+03  0.17300000000E+03 0. -1.
<mgrwt>
<rscale>  2 0.21545084E+03</rscale>
<asrwt>0</asrwt>
<pdfrwt beam="1">  1       21 0.95263704E-01 0.21545084E+03</pdfrwt>
<pdfrwt beam="2">  1       21 0.11542608E-01 0.21545084E+03</pdfrwt>
<totfact> 0.57255625E+04</totfact>
</mgrwt>
</event>
<event>
 4    1  0.4621995E+000  0.2516294E+03  0.7546771E-02  0.1112279E+00
         21   -1    0    0  501  502  0.00000000000E+00  0.00000000000E+00  0.13776894353E+04  0.13776894353E+04  0.00000000000E+00 0. -1.
         21   -1    0    0  502  503 -0.00000000000E+00 -0.00000000000E+00 -0.16205988401E+03  0.16205988401E+03  0.00000000000E+00 0. -1.
          6    1    1    2  501    0 -0.12671798663E+03 -0.13164689710E+03  0.12594429551E+04  0.12843340340E+04  0.17300000000E+03 0. -1.
         -6    1    1    2    0  503  0.12671798663E+03  0.13164689710E+03 -0.43813403778E+02  0.25541528537E+03  0.17300000000E+03 0. -1.
<mgrwt>
<rscale>  2 0.25162940E+03</rscale>
<asrwt>0</asrwt>
<pdfrwt beam="1">  1       21 0.21195221E+00 0.25162940E+03</pdfrwt>
<pdfrwt beam="2">  1       21 0.24932291E-01 0.25162940E+03</pdfrwt>
<totfact> 0.16227864E+03</totfact>
</mgrwt>
</event>
<event>
 4    1  0.4621995E+000  0.2230642E+03  0.7546771E-02  0.1131619E+00
         21   -1    0    0  501  502  0.00000000000E+00  0.00000000000E+00  0.22502366549E+03  0.22502366549E+03  0.00000000000E+00 0. -1.
         21   -1    0    0  502  503 -0.00000000000E+00 -0.00000000000E+00 -0.24252117403E+03  0.24252117403E+03  0.00000000000E+00 0. -1.
          6    1    1    2  501    0  0.73261660553E+02  0.12025541252E+03  0.60692747214E+02  0.23117362460E+03  0.17300000000E+03 0. -1.
         -6    1    1    2    0  503 -0.73261660553E+02 -0.12025541252E+03 -0.78190255749E+02  0.23637121492E+03  0.17300000000E+03 0. -1.
<mgrwt>
<rscale>  2 0.22306420E+03</rscale>
<asrwt>0</asrwt>
<pdfrwt beam="1">  1       21 0.34619026E-01 0.22306420E+03</pdfrwt>
<pdfrwt beam="2">  1       21 0.37310950E-01 0.22306420E+03</pdfrwt>
<totfact> 0.54943091E+04</totfact>
</mgrwt>
</event>
<event>
 4    1  0.4621995E+000  0.2015539E+03  0.7546771E-02  0.1148435E+00
         21   -1    0    0  503  502  0.00000000000E+00  0.00000000000E+00  0.39681566742E+03  0.39681566742E+03  0.00000000000E+00 0. -1.
         21   -1    0    0  501  503 -0.00000000000E+00 -0.00000000000E+00 -0.12061061741E+03  0.12061061741E+03  0.00000000000E+00 0.  1.
          6    1    1    2  501    0 -0.51278916396E+02 -0.89807896713E+02  0.37505182482E+02  0.20501371733E+03  0.17300000000E+03 0.  1.
         -6    1    1    2    0  502  0.51278916396E+02  0.89807896713E+02  0.23869986752E+03  0.31241256750E+03  0.17300000000E+03 0. -1.
<mgrwt>
<rscale>  2 0.20155393E+03</rscale>
<asrwt>0</asrwt>
<pdfrwt beam="1">  1       21 0.61048564E-01 0.20155393E+03</pdfrwt>
<pdfrwt beam="2">  1       21 0.18555480E-01 0.20155393E+03</pdfrwt>
<totfact> 0.65984378E+04</totfact>
</mgrwt>
</event>
<event>
 4    1  0.4621995E+000  0.1768039E+03  0.7546771E-02  0.1170933E+00
         21   -1    0    0  501  502  0.00000000000E+00  0.00000000000E+00  0.52203516369E+03  0.52203516369E+03  0.00000000000E+00 0. -1.
         21   -1    0    0  502  503 -0.00000000000E+00 -0.00000000000E+00 -0.65390403799E+02  0.65390403799E+02  0.00000000000E+00 0. -1.
          6    1    1    2  501    0 -0.23824248766E+02 -0.27622954087E+02  0.31358245568E+03  0.35999108174E+03  0.17300000000E+03 0. -1.
         -6    1    1    2    0  503  0.23824248766E+02  0.27622954087E+02  0.14306230421E+03  0.22743448575E+03  0.17300000000E+03 0. -1.
<mgrwt>
<rscale>  2 0.17680391E+03</rscale>
<asrwt>0</asrwt>
<pdfrwt beam="1">  1       21 0.80313099E-01 0.17680391E+03</pdfrwt>
<pdfrwt beam="2">  1       21 0.10060062E-01 0.17680391E+03</pdfrwt>
<totfact> 0.11012632E+05</totfact>
</mgrwt>
</event>
<event>
 4    1  0.4621995E+000  0.1966587E+03  0.7546771E-02  0.1152589E+00
         21   -1    0    0  503  502  0.00000000000E+00  0.00000000000E+00  0.17078946389E+03  0.17078946389E+03  0.00000000000E+00 0. -1.
         21   -1    0    0  501  503 -0.00000000000E+00 -0.00000000000E+00 -0.48143882600E+03  0.48143882600E+03  0.00000000000E+00 0. -1.
          6    1    1    2  501    0  0.42985848515E+02  0.83053289739E+02 -0.39266026457E+03  0.43915454624E+03  0.17300000000E+03 0. -1.
         -6    1    1    2    0  502 -0.42985848515E+02 -0.83053289739E+02  0.82010902462E+02  0.21307374365E+03  0.17300000000E+03 0. -1.
<mgrwt>
<rscale>  2 0.19665867E+03</rscale>
<asrwt>0</asrwt>
<pdfrwt beam="1">  1       21 0.26275303E-01 0.19665867E+03</pdfrwt>
<pdfrwt beam="2">  1       21 0.74067511E-01 0.19665867E+03</pdfrwt>
<totfact> 0.22461007E+04</totfact>
</mgrwt>
</event>
<event>
 4    1  0.4621995E+000  0.3646515E+03  0.7546771E-02  0.1056757E+00
         21   -1    0    0  501  502  0.00000000000E+00  0.00000000000E+00  0.11539717375E+03  0.11539717375E+03  0.00000000000E+00 0.  1.
         21   -1    0    0  502  503 -0.00000000000E+00 -0.00000000000E+00 -0.13853554598E+04  0.13853554598E+04  0.00000000000E+00 0.  1.
          6    1    1    2  501    0 -0.22238307111E+03  0.23148965892E+03 -0.32719940596E+03  0.48992871294E+03  0.17300000000E+03 0.  1.
         -6    1    1    2    0  503  0.22238307111E+03 -0.23148965892E+03 -0.94275888014E+03  0.10108239207E+04  0.17300000000E+03 0.  1.
<mgrwt>
<rscale>  2 0.36465147E+03</rscale>
<asrwt>0</asrwt>
<pdfrwt beam="1">  1       21 0.17753412E-01 0.36465147E+03</pdfrwt>
<pdfrwt beam="2">  1       21 0.21313160E+00 0.36465147E+03</pdfrwt>
<totfact> 0.28174182E+03</totfact>
</mgrwt>
</event>
<event>
 4    1  0.4621995E+000  0.2243339E+03  0.7546771E-02  0.1130693E+00
         21   -1    0    0  503  502  0.00000000000E+00  0.00000000000E+00  0.14508588272E+03  0.14508588272E+03  0.00000000000E+00 0. -1.
         21   -1    0    0  501  503 -0.00000000000E+00 -0.00000000000E+00 -0.74197107777E+03  0.74197107777E+03  0.00000000000E+00 0.  1.
          6    1    1    2  501    0 -0.33792019037E+02 -0.13876166164E+03 -0.62209813629E+03  0.66131066109E+03  0.17300000000E+03 0.  1.
         -6    1    1    2    0  502  0.33792019037E+02  0.13876166164E+03  0.25212941242E+02  0.22574629941E+03  0.17300000000E+03 0. -1.
<mgrwt>
<rscale>  2 0.22433390E+03</rscale>
<asrwt>0</asrwt>
<pdfrwt beam="1">  1       21 0.22320905E-01 0.22433390E+03</pdfrwt>
<pdfrwt beam="2">  1       21 0.11414940E+00 0.22433390E+03</pdfrwt>
<totfact> 0.10975085E+04</totfact>
</mgrwt>
</event>
<event>
 4    1  0.4621995E+000  0.1834427E+03  0.7546771E-02  0.1164512E+00
         21   -1    0    0  501  502  0.00000000000E+00  0.00000000000E+00  0.99121436221E+02  0.99121436221E+02  0.00000000000E+00 0. -1.
         21   -1    0    0  502  503 -0.00000000000E+00 -0.00000000000E+00 -0.66645981096E+03  0.66645981096E+03  0.00000000000E+00 0. -1.
          6    1    1    2  501    0  0.32909880431E+02  0.51372644780E+02 -0.15551804898E+02  0.18410069934E+03  0.17300000000E+03 0. -1.
         -6    1    1    2    0  503 -0.32909880431E+02 -0.51372644780E+02 -0.55178656984E+03  0.58148054785E+03  0.17300000000E+03 0. -1.
<mgrwt>
<rscale>  2 0.18344266E+03</rscale>
<asrwt>0</asrwt>
<pdfrwt beam="1">  1       21 0.15249452E-01 0.18344266E+03</pdfrwt>
<pdfrwt beam="2">  1       21 0.10253228E+00 0.18344266E+03</pdfrwt>
<totfact> 0.29596941E+04</totfact>
</mgrwt>
</event>
<event>
 4    1  0.4621995E+000  0.1883110E+03  0.7546771E-02  0.1159994E+00
         21   -1    0    0  501  502  0.00000000000E+00  0.00000000000E+00  0.67491233574E+03  0.67491233574E+03  0.00000000000E+00 0. -1.
         21   -1    0    0  502  503 -0.00000000000E+00 -0.00000000000E+00 -0.53081181358E+02  0.53081181358E+02  0.00000000000E+00 0. -1.
          6    1    1    2  501    0 -0.32448456092E+02  0.66926440751E+02  0.27422032313E+03  0.33265272642E+03  0.17300000000E+03 0. -1.
         -6    1    1    2    0  503  0.32448456092E+02 -0.66926440751E+02  0.34761083125E+03  0.39534079068E+03  0.17300000000E+03 0. -1.
<mgrwt>
<rscale>  2 0.18831105E+03</rscale>
<asrwt>0</asrwt>
<pdfrwt beam="1">  1       21 0.10383266E+00 0.18831105E+03</pdfrwt>
<pdfrwt beam="2">  1       21 0.81663361E-02 0.18831105E+03</pdfrwt>
<totfact> 0.87050175E+04</totfact>
</mgrwt>
</event>
<event>
 4    1  0.4621995E+000  0.2150417E+03  0.7546771E-02  0.1137635E+00
         21   -1    0    0  501  502  0.00000000000E+00  0.00000000000E+00  0.23006409753E+03  0.23006409753E+03  0.00000000000E+00 0. -1.
         21   -1    0    0  502  503 -0.00000000000E+00 -0.00000000000E+00 -0.20522105040E+03  0.20522105040E+03  0.00000000000E+00 0.  1.
          6    1    1    2  501    0 -0.12708684013E+03 -0.12761317111E+02  0.43634550817E+02  0.21942399635E+03  0.17300000000E+03 0. -1.
         -6    1    1    2    0  503  0.12708684013E+03  0.12761317111E+02 -0.18791503688E+02  0.21586115158E+03  0.17300000000E+03 0.  1.
<mgrwt>
<rscale>  2 0.21504166E+03</rscale>
<asrwt>0</asrwt>
<pdfrwt beam="1">  1       21 0.35394477E-01 0.21504166E+03</pdfrwt>
<pdfrwt beam="2">  1       21 0.31572469E-01 0.21504166E+03</pdfrwt>
<totfact> 0.73503055E+04</totfact>
</mgrwt>
</event>
<event>
 4    1  0.4621995E+000  0.2000371E+03  0.7546771E-02  0.1149708E+00
         21   -1    0    0  501  502  0.00000000000E+00  0.00000000000E+00  0.54902331857E+03  0.54902331857E+03  0.00000000000E+00 0.  1.
         21   -1    0    0  502  503 -0.00000000000E+00 -0.00000000000E+00 -0.22132400824E+03  0.22132400824E+03  0.00000000000E+00 0. -1.
          6    1    1    2  501    0  0.60079571106E+02 -0.80475285918E+02  0.47929077757E+03  0.51935967881E+03  0.17300000000E+03 0.  1.
         -6    1    1    2    0  503 -0.60079571106E+02  0.80475285918E+02 -0.15159146725E+03  0.25098764800E+03  0.17300000000E+03 0. -1.
<mgrwt>
<rscale>  2 0.20003706E+03</rscale>
<asrwt>0</asrwt>
<pdfrwt beam="1">  1       21 0.84465125E-01 0.20003706E+03</pdfrwt>
<pdfrwt beam="2">  1       21 0.34049848E-01 0.20003706E+03</pdfrwt>
<totfact> 0.10050954E+04</totfact>
</mgrwt>
</event>
<event>
 4    1  0.4621995E+000  0.1896985E+03  0.7546771E-02  0.1158734E+00
         21   -1    0    0  503  502  0.00000000000E+00  0.00000000000E+00  0.42949768158E+03  0.42949768158E+03  0.00000000000E+00 0.  1.
         21   -1    0    0  501  503 -0.00000000000E+00 -0.00000000000E+00 -0.89022205051E+02  0.89022205051E+02  0.00000000000E+00 0. -1.
          6    1    1    2  501    0 -0.65250171010E+02 -0.42413920169E+02  0.23312027214E+03  0.30055047284E+03  0.17300000000E+03 0.  1.
         -6    1    1    2    0  502  0.65250171010E+02  0.42413920169E+02  0.10735520439E+03  0.21796941380E+03  0.17300000000E+03 0. -1.
<mgrwt>
<rscale>  2 0.18969851E+03</rscale>
<asrwt>0</asrwt>
<pdfrwt beam="1">  1       21 0.66076565E-01 0.18969851E+03</pdfrwt>
<pdfrwt beam="2">  1       21 0.13695724E-01 0.18969851E+03</pdfrwt>
<totfact> 0.97407216E+04</totfact>
</mgrwt>
</event>
<event>
 4    1  0.4621995E+000  0.1807148E+03  0.7546771E-02  0.1167113E+00
         21   -1    0    0  501  502  0.00000000000E+00  0.00000000000E+00  0.14954993105E+03  0.14954993105E+03  0.00000000000E+00 0.  1.
         21   -1    0    0  502  503 -0.00000000000E+00 -0.00000000000E+00 -0.26209592470E+03  0.26209592470E+03  0.00000000000E+00 0.  1.
          6    1    1    2  501    0 -0.40477449145E+02  0.33021623016E+02  0.27791399177E+02  0.18283931017E+03  0.17300000000E+03 0.  1.
         -6    1    1    2    0  503  0.40477449145E+02 -0.33021623016E+02 -0.14033739282E+03  0.22880654558E+03  0.17300000000E+03 0.  1.
<mgrwt>
<rscale>  2 0.18071483E+03</rscale>
<asrwt>0</asrwt>
<pdfrwt beam="1">  1       21 0.23007682E-01 0.18071483E+03</pdfrwt>
<pdfrwt beam="2">  1       21 0.40322449E-01 0.18071483E+03</pdfrwt>
<totfact> 0.10558390E+05</totfact>
</mgrwt>
</event>
<event>
 4    1  0.4621995E+000  0.3368022E+03  0.7546771E-02  0.1068166E+00
         21   -1    0    0  501  502  0.00000000000E+00  0.00000000000E+00  0.17022163348E+04  0.17022163348E+04  0.00000000000E+00 0.  1.
         21   -1    0    0  502  503 -0.00000000000E+00 -0.00000000000E+00 -0.76839942177E+02  0.76839942177E+02  0.00000000000E+00 0. -1.
          6    1    1    2  501    0 -0.23236393553E+03  0.17179553267E+03  0.11367776830E+04  0.11856218639E+04  0.17300000000E+03 0.  1.
         -6    1    1    2    0  503  0.23236393553E+03 -0.17179553267E+03  0.48859870962E+03  0.59343441307E+03  0.17300000000E+03 0. -1.
<mgrwt>
<rscale>  2 0.33680217E+03</rscale>
<asrwt>0</asrwt>
<pdfrwt beam="1">  1       21 0.26187941E+00 0.33680217E+03</pdfrwt>
<pdfrwt beam="2">  1       21 0.11821531E-01 0.33680217E+03</pdfrwt>
<totfact> 0.30263886E+03</totfact>
</mgrwt>
</event>
<event>
 4    1  0.4621995E+000  0.1820703E+03  0.7546771E-02  0.1165814E+00
         21   -1    0    0  503  502  0.00000000000E+00  0.00000000000E+00  0.13493219096E+03  0.13493219096E+03  0.00000000000E+00 0.  1.
         21   -1    0    0  501  503 -0.00000000000E+00 -0.00000000000E+00 -0.25534515111E+03  0.25534515111E+03  0.00000000000E+00 0.  1.
          6    1    1    2  501    0  0.23687407646E+02  0.51570478694E+02 -0.98179278978E+02  0.20685448599E+03  0.17300000000E+03 0.  1.
         -6    1    1    2    0  502 -0.23687407646E+02 -0.51570478694E+02 -0.22233681174E+02  0.18342285608E+03  0.17300000000E+03 0.  1.
<mgrwt>
<rscale>  2 0.18207034E+03</rscale>
<asrwt>0</asrwt>
<pdfrwt beam="1">  1       21 0.20758799E-01 0.18207034E+03</pdfrwt>
<pdfrwt beam="2">  1       21 0.39283869E-01 0.18207034E+03</pdfrwt>
<totfact> 0.13497558E+05</totfact>
</mgrwt>
</event>
<event>
 4    1  0.4621995E+000  0.2265334E+03  0.7546771E-02  0.1129104E+00
         21   -1    0    0  501  502  0.00000000000E+00  0.00000000000E+00  0.54640689819E+03  0.54640689819E+03  0.00000000000E+00 0. -1.
         21   -1    0    0  502  503 -0.00000000000E+00 -0.00000000000E+00 -0.25745686518E+03  0.25745686518E+03  0.00000000000E+00 0. -1.
          6    1    1    2  501    0  0.14405605634E+03  0.25223404319E+02  0.46481481005E+03  0.51707849998E+03  0.17300000000E+03 0. -1.
         -6    1    1    2    0  503 -0.14405605634E+03 -0.25223404319E+02 -0.17586477704E+03  0.28678526339E+03  0.17300000000E+03 0. -1.
<mgrwt>
<rscale>  2 0.22653337E+03</rscale>
<asrwt>0</asrwt>
<pdfrwt beam="1">  1       21 0.84062599E-01 0.22653337E+03</pdfrwt>
<pdfrwt beam="2">  1       21 0.39608749E-01 0.22653337E+03</pdfrwt>
<totfact> 0.73745048E+03</totfact>
</mgrwt>
</event>
<event>
 4    1  0.4621995E+000  0.2338013E+03  0.7546771E-02  0.1123992E+00
         21   -1    0    0  503  502  0.00000000000E+00  0.00000000000E+00  0.47410781730E+03  0.47410781730E+03  0.00000000000E+00 0.  1.
         21   -1    0    0  501  503 -0.00000000000E+00 -0.00000000000E+00 -0.27306513053E+03  0.27306513053E+03  0.00000000000E+00 0.  1.
          6    1    1    2  501    0 -0.11607154304E+03  0.10611993319E+03 -0.18344583201E+03  0.29717909854E+03  0.17300000000E+03 0.  1.
         -6    1    1    2    0  502  0.11607154304E+03 -0.10611993319E+03  0.38448851878E+03  0.44999384929E+03  0.17300000000E+03 0.  1.
<mgrwt>
<rscale>  2 0.23380129E+03</rscale>
<asrwt>0</asrwt>
<pdfrwt beam="1">  1       21 0.72939664E-01 0.23380129E+03</pdfrwt>
<pdfrwt beam="2">  1       21 0.42010020E-01 0.23380129E+03</pdfrwt>
<totfact> 0.89777187E+03</totfact>
</mgrwt>
</event>
<event>
 4    1  0.4621995E+000  0.2524309E+03  0.7546771E-02  0.1111778E+00
         21   -1    0    0  503  502  0.00000000000E+00  0.00000000000E+00  0.46439903981E+03  0.46439903981E+03  0.00000000000E+00 0.  1.
         21   -1    0    0  501  503 -0.00000000000E+00 -0.00000000000E+00 -0.13722674389E+03  0.13722674389E+03  0.00000000000E+00 0. -1.
          6    1    1    2  501    0 -0.16845645918E+03 -0.73585098960E+02  0.16051961242E+03  0.29914526806E+03  0.17300000000E+03 0. -1.
         -6    1    1    2    0  502  0.16845645918E+03  0.73585098960E+02  0.16665268349E+03  0.30248051564E+03  0.17300000000E+03 0.  1.
<mgrwt>
<rscale>  2 0.25243087E+03</rscale>
<asrwt>0</asrwt>
<pdfrwt beam="1">  1       21 0.71446005E-01 0.25243087E+03</pdfrwt>
<pdfrwt beam="2">  1       21 0.21111807E-01 0.25243087E+03</pdfrwt>
<totfact> 0.35889403E+04</totfact>
</mgrwt>
</event>
<event>
 4    1  0.4621995E+000  0.1799063E+03  0.7546771E-02  0.1167894E+00
         21   -1    0    0  501  502  0.00000000000E+00  0.00000000000E+00  0.29838238313E+03  0.29838238313E+03  0.00000000000E+00 0. -1.
         21   -1    0    0  502  503 -0.00000000000E+00 -0.00000000000E+00 -0.12967935639E+03  0.12967935639E+03  0.00000000000E+00 0. -1.
          6    1    1    2  501    0  0.49239004942E+02  0.35773565107E+01  0.17090395935E+03  0.24814197632E+03  0.17300000000E+03 0. -1.
         -6    1    1    2    0  503 -0.49239004942E+02 -0.35773565107E+01 -0.22009326094E+01  0.17991976320E+03  0.17300000000E+03 0. -1.
<mgrwt>
<rscale>  2 0.17990630E+03</rscale>
<asrwt>0</asrwt>
<pdfrwt beam="1">  1       21 0.45904982E-01 0.17990630E+03</pdfrwt>
<pdfrwt beam="2">  1       21 0.19950670E-01 0.17990630E+03</pdfrwt>
<totfact> 0.10597812E+05</totfact>
</mgrwt>
</event>
<event>
 4    1  0.4621995E+000  0.1822200E+03  0.7546771E-02  0.1165672E+00
         21   -1    0    0  503  502  0.00000000000E+00  0.00000000000E+00  0.25141136540E+04  0.25141136540E+04  0.00000000000E+00 0. -1.
         21   -1    0    0  501  503 -0.00000000000E+00 -0.00000000000E+00 -0.70345510049E+02  0.70345510049E+02  0.00000000000E+00 0. -1.
          6    1    1    2  501    0 -0.50846970296E+02 -0.26262589404E+02  0.57260484218E+02  0.19100497649E+03  0.17300000000E+03 0. -1.
         -6    1    1    2    0  502  0.50846970296E+02  0.26262589404E+02  0.23865076597E+04  0.23934541875E+04  0.17300000000E+03 0. -1.
<mgrwt>
<rscale>  2 0.18222003E+03</rscale>
<asrwt>0</asrwt>
<pdfrwt beam="1">  1       21 0.38678665E+00 0.18222003E+03</pdfrwt>
<pdfrwt beam="2">  1       21 0.10822388E-01 0.18222003E+03</pdfrwt>
<totfact> 0.75426740E+02</totfact>
</mgrwt>
</event>
<event>
 4    1  0.4621995E+000  0.1829407E+03  0.7546771E-02  0.1164987E+00
         21   -1    0    0  503  502  0.00000000000E+00  0.00000000000E+00  0.69759248170E+03  0.69759248170E+03  0.00000000000E+00 0. -1.
         21   -1    0    0  501  503 -0.00000000000E+00 -0.00000000000E+00 -0.71940538764E+02  0.71940538764E+02  0.00000000000E+00 0. -1.
          6    1    1    2  501    0  0.59265441648E+02  0.50886184566E+01  0.90750655828E+02  0.20421304597E+03  0.17300000000E+03 0. -1.
         -6    1    1    2    0  502 -0.59265441648E+02 -0.50886184566E+01  0.53490128711E+03  0.56531997450E+03  0.17300000000E+03 0. -1.
<mgrwt>
<rscale>  2 0.18294066E+03</rscale>
<asrwt>0</asrwt>
<pdfrwt beam="1">  1       21 0.10732192E+00 0.18294066E+03</pdfrwt>
<pdfrwt beam="2">  1       21 0.11067776E-01 0.18294066E+03</pdfrwt>
<totfact> 0.47222626E+04</totfact>
</mgrwt>
</event>
<event>
 4    1  0.4621995E+000  0.2145007E+03  0.7546771E-02  0.1138051E+00
         21   -1    0    0  501  502  0.00000000000E+00  0.00000000000E+00  0.88244764318E+03  0.88244764318E+03  0.00000000000E+00 0. -1.
         21   -1    0    0  502  503 -0.00000000000E+00 -0.00000000000E+00 -0.55444857208E+02  0.55444857208E+02  0.00000000000E+00 0.  1.
          6    1    1    2  501    0 -0.33917193605E+00 -0.12681257129E+03  0.52799715051E+03  0.56990484664E+03  0.17300000000E+03 0. -1.
         -6    1    1    2    0  503  0.33917193605E+00  0.12681257129E+03  0.29900563546E+03  0.36798765374E+03  0.17300000000E+03 0. -1.
<mgrwt>
<rscale>  2 0.21450068E+03</rscale>
<asrwt>0</asrwt>
<pdfrwt beam="1">  1       21 0.13576117E+00 0.21450068E+03</pdfrwt>
<pdfrwt beam="2">  1       21 0.85299787E-02 0.21450068E+03</pdfrwt>
<totfact> 0.41046082E+04</totfact>
</mgrwt>
</event>
<event>
 4    1  0.4621995E+000  0.1941043E+03  0.7546771E-02  0.1154811E+00
         21   -1    0    0  501  502  0.00000000000E+00  0.00000000000E+00  0.18665577322E+03  0.18665577322E+03  0.00000000000E+00 0. -1.
         21   -1    0    0  502  503 -0.00000000000E+00 -0.00000000000E+00 -0.30400402140E+03  0.30400402140E+03  0.00000000000E+00 0. -1.
          6    1    1    2  501    0 -0.76773808969E+02  0.43049725936E+02  0.83538522391E+02  0.21131772611E+03  0.17300000000E+03 0. -1.
         -6    1    1    2    0  503  0.76773808969E+02 -0.43049725936E+02 -0.20088677057E+03  0.27934206850E+03  0.17300000000E+03 0. -1.
<mgrwt>
<rscale>  2 0.19410434E+03</rscale>
<asrwt>0</asrwt>
<pdfrwt beam="1">  1       21 0.28716273E-01 0.19410434E+03</pdfrwt>
<pdfrwt beam="2">  1       21 0.46769849E-01 0.19410434E+03</pdfrwt>
<totfact> 0.50746153E+04</totfact>
</mgrwt>
</event>
<event>
 4    1  0.4621995E+000  0.1871755E+03  0.7546771E-02  0.1161034E+00
         21   -1    0    0  503  502  0.00000000000E+00  0.00000000000E+00  0.56268235988E+02  0.56268235988E+02  0.00000000000E+00 0. -1.
         21   -1    0    0  501  503 -0.00000000000E+00 -0.00000000000E+00 -0.64311142146E+03  0.64311142146E+03  0.00000000000E+00 0. -1.
          6    1    1    2  501    0  0.71065025987E+02 -0.74454556917E+01 -0.35581635640E+03  0.40204471419E+03  0.17300000000E+03 0.  1.
         -6    1    1    2    0  502 -0.71065025987E+02  0.74454556917E+01 -0.23102682907E+03  0.29733494325E+03  0.17300000000E+03 0.  1.
<mgrwt>
<rscale>  2 0.18717551E+03</rscale>
<asrwt>0</asrwt>
<pdfrwt beam="1">  1       21 0.86566517E-02 0.18717551E+03</pdfrwt>
<pdfrwt beam="2">  1       21 0.98940219E-01 0.18717551E+03</pdfrwt>
<totfact> 0.88244342E+04</totfact>
</mgrwt>
</event>
<event>
 4    1  0.4621995E+000  0.1837150E+03  0.7546771E-02  0.1164255E+00
         21   -1    0    0  501  502  0.00000000000E+00  0.00000000000E+00  0.18158465039E+03  0.18158465039E+03  0.00000000000E+00 0. -1.
         21   -1    0    0  502  503 -0.00000000000E+00 -0.00000000000E+00 -0.34577776238E+03  0.34577776238E+03  0.00000000000E+00 0. -1.
          6    1    1    2  501    0  0.58106339291E+01  0.61550411991E+02  0.97217708476E+02  0.20785210974E+03  0.17300000000E+03 0. -1.
         -6    1    1    2    0  503 -0.58106339291E+01 -0.61550411991E+02 -0.26141082047E+03  0.31951030303E+03  0.17300000000E+03 0. -1.
<mgrwt>
<rscale>  2 0.18371504E+03</rscale>
<asrwt>0</asrwt>
<pdfrwt beam="1">  1       21 0.27936100E-01 0.18371504E+03</pdfrwt>
<pdfrwt beam="2">  1       21 0.53196578E-01 0.18371504E+03</pdfrwt>
<totfact> 0.41134650E+04</totfact>
</mgrwt>
</event>
<event>
 4    1  0.4621995E+000  0.2375061E+03  0.7546771E-02  0.1121465E+00
         21   -1    0    0  503  502  0.00000000000E+00  0.00000000000E+00  0.42733815868E+03  0.42733815868E+03  0.00000000000E+00 0.  1.
         21   -1    0    0  501  503 -0.00000000000E+00 -0.00000000000E+00 -0.19665938708E+03  0.19665938708E+03  0.00000000000E+00 0.  1.
          6    1    1    2  501    0 -0.15248534145E+03  0.56818750352E+02 -0.63559364588E+02  0.24586366664E+03  0.17300000000E+03 0.  1.
         -6    1    1    2    0  502  0.15248534145E+03 -0.56818750352E+02  0.29423813619E+03  0.37813387912E+03  0.17300000000E+03 0.  1.
<mgrwt>
<rscale>  2 0.23750610E+03</rscale>
<asrwt>0</asrwt>
<pdfrwt beam="1">  1       21 0.65744332E-01 0.23750610E+03</pdfrwt>
<pdfrwt beam="2">  1       21 0.30255290E-01 0.23750610E+03</pdfrwt>
<totfact> 0.21737907E+04</totfact>
</mgrwt>
</event>
<event>
 4    1  0.4621995E+000  0.1933623E+03  0.7546771E-02  0.1155463E+00
         21   -1    0    0  501  502  0.00000000000E+00  0.00000000000E+00  0.89197165283E+02  0.89197165283E+02  0.00000000000E+00 0. -1.
         21   -1    0    0  502  503 -0.00000000000E+00 -0.00000000000E+00 -0.41967282158E+03  0.41967282158E+03  0.00000000000E+00 0. -1.
          6    1    1    2  501    0  0.30426576133E+02 -0.80834456615E+02 -0.17402417955E+03  0.26014111744E+03  0.17300000000E+03 0. -1.
         -6    1    1    2    0  503 -0.30426576133E+02  0.80834456615E+02 -0.15645147674E+03  0.24872886943E+03  0.17300000000E+03 0. -1.
<mgrwt>
<rscale>  2 0.19336232E+03</rscale>
<asrwt>0</asrwt>
<pdfrwt beam="1">  1       21 0.13722641E-01 0.19336232E+03</pdfrwt>
<pdfrwt beam="2">  1       21 0.64565049E-01 0.19336232E+03</pdfrwt>
<totfact> 0.10193883E+05</totfact>
</mgrwt>
</event>
<event>
 4    1  0.4621995E+000  0.2853451E+03  0.7546771E-02  0.1092805E+00
         21   -1    0    0  503  502  0.00000000000E+00  0.00000000000E+00  0.14007421413E+03  0.14007421413E+03  0.00000000000E+00 0. -1.
         21   -1    0    0  501  503 -0.00000000000E+00 -0.00000000000E+00 -0.10436465546E+04  0.10436465546E+04  0.00000000000E+00 0. -1.
          6    1    1    2  501    0 -0.20181340335E+03  0.10375053668E+03 -0.84573288618E+03  0.89257265161E+03  0.17300000000E+03 0. -1.
         -6    1    1    2    0  502  0.20181340335E+03 -0.10375053668E+03 -0.57839454302E+02  0.29114811713E+03  0.17300000000E+03 0. -1.
<mgrwt>
<rscale>  2 0.28534510E+03</rscale>
<asrwt>0</asrwt>
<pdfrwt beam="1">  1       21 0.21549879E-01 0.28534510E+03</pdfrwt>
<pdfrwt beam="2">  1       21 0.16056101E+00 0.28534510E+03</pdfrwt>
<totfact> 0.46798690E+03</totfact>
</mgrwt>
</event>
<event>
 4    1  0.4621995E+000  0.1807130E+03  0.7546771E-02  0.1167115E+00
         21   -1    0    0  503  502  0.00000000000E+00  0.00000000000E+00  0.11007389453E+03  0.11007389453E+03  0.00000000000E+00 0.  1.
         21   -1    0    0  501  503 -0.00000000000E+00 -0.00000000000E+00 -0.60264141088E+03  0.60264141088E+03  0.00000000000E+00 0.  1.
          6    1    1    2  501    0 -0.50593590001E+02  0.12979193669E+02 -0.50019799037E+03  0.53184133009E+03  0.17300000000E+03 0.  1.
         -6    1    1    2    0  502  0.50593590001E+02 -0.12979193669E+02  0.76304740242E+01  0.18087397533E+03  0.17300000000E+03 0.  1.
<mgrwt>
<rscale>  2 0.18071295E+03</rscale>
<asrwt>0</asrwt>
<pdfrwt beam="1">  1       21 0.16934445E-01 0.18071295E+03</pdfrwt>
<pdfrwt beam="2">  1       21 0.92714063E-01 0.18071295E+03</pdfrwt>
<totfact> 0.31013474E+04</totfact>
</mgrwt>
</event>
<event>
 4    1  0.4621995E+000  0.2112465E+03  0.7546771E-02  0.1140583E+00
         21   -1    0    0  501  502  0.00000000000E+00  0.00000000000E+00  0.25472644980E+03  0.25472644980E+03  0.00000000000E+00 0.  1.
         21   -1    0    0  502  503 -0.00000000000E+00 -0.00000000000E+00 -0.35779812033E+03  0.35779812033E+03  0.00000000000E+00 0.  1.
          6    1    1    2  501    0 -0.10140228443E+03  0.66435244796E+02  0.16725881032E+03  0.26944493810E+03  0.17300000000E+03 0.  1.
         -6    1    1    2    0  503  0.10140228443E+03 -0.66435244796E+02 -0.27033048084E+03  0.34307963203E+03  0.17300000000E+03 0.  1.
<mgrwt>
<rscale>  2 0.21124646E+03</rscale>
<asrwt>0</asrwt>
<pdfrwt beam="1">  1       21 0.39188684E-01 0.21124646E+03</pdfrwt>
<pdfrwt beam="2">  1       21 0.55045865E-01 0.21124646E+03</pdfrwt>
<totfact> 0.19330982E+04</totfact>
</mgrwt>
</event>
<event>
 4    1  0.4621995E+000  0.1999565E+03  0.7546771E-02  0.1149776E+00
         21   -1    0    0  503  502  0.00000000000E+00  0.00000000000E+00  0.79521287983E+03  0.79521287983E+03  0.00000000000E+00 0. -1.
         21   -1    0    0  501  503 -0.00000000000E+00 -0.00000000000E+00 -0.62497739797E+02  0.62497739797E+02  0.00000000000E+00 0. -1.
          6    1    1    2  501    0 -0.11530763179E+02  0.99602364360E+02  0.17673499862E+03  0.26686672558E+03  0.17300000000E+03 0. -1.
         -6    1    1    2    0  502  0.11530763179E+02 -0.99602364360E+02  0.55598014141E+03  0.59084389404E+03  0.17300000000E+03 0. -1.
<mgrwt>
<rscale>  2 0.19995647E+03</rscale>
<asrwt>0</asrwt>
<pdfrwt beam="1">  1       21 0.12234044E+00 0.19995647E+03</pdfrwt>
<pdfrwt beam="2">  1       21 0.96150374E-02 0.19995647E+03</pdfrwt>
<totfact> 0.43597051E+04</totfact>
</mgrwt>
</event>
<event>
 4    1  0.4621995E+000  0.1984404E+03  0.7546771E-02  0.1151062E+00
         21   -1    0    0  503  502  0.00000000000E+00  0.00000000000E+00  0.83325469870E+03  0.83325469870E+03  0.00000000000E+00 0. -1.
         21   -1    0    0  501  503 -0.00000000000E+00 -0.00000000000E+00 -0.17168686354E+03  0.17168686354E+03  0.00000000000E+00 0. -1.
          6    1    1    2  501    0  0.86476432237E+02 -0.44400512893E+02 -0.96977421225E+02  0.22086919003E+03  0.17300000000E+03 0. -1.
         -6    1    1    2    0  502 -0.86476432237E+02  0.44400512893E+02  0.75854525639E+03  0.78407237221E+03  0.17300000000E+03 0. -1.
<mgrwt>
<rscale>  2 0.19844037E+03</rscale>
<asrwt>0</asrwt>
<pdfrwt beam="1">  1       21 0.12819303E+00 0.19844037E+03</pdfrwt>
<pdfrwt beam="2">  1       21 0.26413364E-01 0.19844037E+03</pdfrwt>
<totfact> 0.60765064E+03</totfact>
</mgrwt>
</event>
<event>
 4    1  0.4621995E+000  0.1962571E+03  0.7546771E-02  0.1152936E+00
         21   -1    0    0  501  502  0.00000000000E+00  0.00000000000E+00  0.46876489690E+02  0.46876489690E+02  0.00000000000E+00 0.  1.
         21   -1    0    0  502  503 -0.00000000000E+00 -0.00000000000E+00 -0.82207430931E+03  0.82207430931E+03  0.00000000000E+00 0.  1.
          6    1    1    2  501    0 -0.86833634910E+02  0.32368997470E+02 -0.39727814822E+03  0.44311032396E+03  0.17300000000E+03 0.  1.
         -6    1    1    2    0  503  0.86833634910E+02 -0.32368997470E+02 -0.37791967140E+03  0.42584047504E+03  0.17300000000E+03 0.  1.
<mgrwt>
<rscale>  2 0.19625706E+03</rscale>
<asrwt>0</asrwt>
<pdfrwt beam="1">  1       21 0.72117683E-02 0.19625706E+03</pdfrwt>
<pdfrwt beam="2">  1       21 0.12647296E+00 0.19625706E+03</pdfrwt>
<totfact> 0.66431551E+04</totfact>
</mgrwt>
</event>
<event>
 4    1  0.4621995E+000  0.1867840E+03  0.7546771E-02  0.1161394E+00
         21   -1    0    0  503  502  0.00000000000E+00  0.00000000000E+00  0.48075853554E+03  0.48075853554E+03  0.00000000000E+00 0. -1.
         21   -1    0    0  501  503 -0.00000000000E+00 -0.00000000000E+00 -0.74048833234E+02  0.74048833234E+02  0.00000000000E+00 0. -1.
          6    1    1    2  501    0 -0.69313678372E+02  0.12445444606E+02  0.24256750643E+03  0.30614909812E+03  0.17300000000E+03 0.  1.
         -6    1    1    2    0  502  0.69313678372E+02 -0.12445444606E+02  0.16414219588E+03  0.24865827066E+03  0.17300000000E+03 0.  1.
<mgrwt>
<rscale>  2 0.18678403E+03</rscale>
<asrwt>0</asrwt>
<pdfrwt beam="1">  1       21 0.73962850E-01 0.18678403E+03</pdfrwt>
<pdfrwt beam="2">  1       21 0.11392128E-01 0.18678403E+03</pdfrwt>
<totfact> 0.10584114E+05</totfact>
</mgrwt>
</event>
<event>
 4    1  0.4621995E+000  0.1799701E+03  0.7546771E-02  0.1167832E+00
         21   -1    0    0  503  502  0.00000000000E+00  0.00000000000E+00  0.24805391474E+03  0.24805391474E+03  0.00000000000E+00 0.  1.
         21   -1    0    0  501  503 -0.00000000000E+00 -0.00000000000E+00 -0.16318405097E+04  0.16318405097E+04  0.00000000000E+00 0.  1.
          6    1    1    2  501    0 -0.39296376657E+02 -0.30266240006E+02 -0.15934511279E+04  0.16035821611E+04  0.17300000000E+03 0.  1.
         -6    1    1    2    0  502  0.39296376657E+02  0.30266240006E+02  0.20966453292E+03  0.27631226333E+03  0.17300000000E+03 0.  1.
<mgrwt>
<rscale>  2 0.17997014E+03</rscale>
<asrwt>0</asrwt>
<pdfrwt beam="1">  1       21 0.38162140E-01 0.17997014E+03</pdfrwt>
<pdfrwt beam="2">  1       21 0.25105239E+00 0.17997014E+03</pdfrwt>
<totfact> 0.44181328E+02</totfact>
</mgrwt>
</event>
<event>
 4    1  0.4621995E+000  0.1894979E+03  0.7546771E-02  0.1158915E+00
         21   -1    0    0  503  502  0.00000000000E+00  0.00000000000E+00  0.78002309761E+02  0.78002309761E+02  0.00000000000E+00 0.  1.
         21   -1    0    0  501  503 -0.00000000000E+00 -0.00000000000E+00 -0.46680066714E+03  0.46680066714E+03  0.00000000000E+00 0.  1.
          6    1    1    2  501    0  0.12363027587E+02  0.76338790540E+02 -0.22638623253E+03  0.29522903257E+03  0.17300000000E+03 0.  1.
         -6    1    1    2    0  502 -0.12363027587E+02 -0.76338790540E+02 -0.16241212485E+03  0.24957394433E+03  0.17300000000E+03 0.  1.
<mgrwt>
<rscale>  2 0.18949790E+03</rscale>
<asrwt>0</asrwt>
<pdfrwt beam="1">  1       21 0.12000356E-01 0.18949790E+03</pdfrwt>
<pdfrwt beam="2">  1       21 0.71815486E-01 0.18949790E+03</pdfrwt>
<totfact> 0.10287183E+05</totfact>
</mgrwt>
</event>
<event>
 4    1  0.4621995E+000  0.2355420E+03  0.7546771E-02  0.1122799E+00
         21   -1    0    0  501  502  0.00000000000E+00  0.00000000000E+00  0.21814533207E+03  0.21814533207E+03  0.00000000000E+00 0.  1.
         21   -1    0    0  502  503 -0.00000000000E+00 -0.00000000000E+00 -0.38128657752E+03  0.38128657752E+03  0.00000000000E+00 0.  1.
          6    1    1    2  501    0 -0.14523168771E+03 -0.66774070585E+02  0.91378605258E+02  0.25264613418E+03  0.17300000000E+03 0.  1.
         -6    1    1    2    0  503  0.14523168771E+03  0.66774070585E+02 -0.25451985071E+03  0.34678577540E+03  0.17300000000E+03 0.  1.
<mgrwt>
<rscale>  2 0.23554197E+03</rscale>
<asrwt>0</asrwt>
<pdfrwt beam="1">  1       21 0.33560821E-01 0.23554197E+03</pdfrwt>
<pdfrwt beam="2">  1       21 0.58659473E-01 0.23554197E+03</pdfrwt>
<totfact> 0.22716236E+04</totfact>
</mgrwt>
</event>
<event>
 4    1  0.4621995E+000  0.1809239E+03  0.7546771E-02  0.1166912E+00
         21   -1    0    0  501  502  0.00000000000E+00  0.00000000000E+00  0.33458006676E+02  0.33458006676E+02  0.00000000000E+00 0.  1.
         21   -1    0    0  502  503 -0.00000000000E+00 -0.00000000000E+00 -0.10992437652E+04  0.10992437652E+04  0.00000000000E+00 0.  1.
          6    1    1    2  501    0  0.52049576196E+02  0.97628773915E+01 -0.34506952783E+03  0.38962347362E+03  0.17300000000E+03 0.  1.
         -6    1    1    2    0  503 -0.52049576196E+02 -0.97628773915E+01 -0.72071623073E+03  0.74307829829E+03  0.17300000000E+03 0.  1.
<mgrwt>
<rscale>  2 0.18092394E+03</rscale>
<asrwt>0</asrwt>
<pdfrwt beam="1">  1       21 0.51473858E-02 0.18092394E+03</pdfrwt>
<pdfrwt beam="2">  1       21 0.16911442E+00 0.18092394E+03</pdfrwt>
<totfact> 0.55806049E+04</totfact>
</mgrwt>
</event>
<event>
 4    1  0.4621995E+000  0.2122212E+03  0.7546771E-02  0.1139819E+00
         21   -1    0    0  501  502  0.00000000000E+00  0.00000000000E+00  0.21515276835E+04  0.21515276835E+04  0.00000000000E+00 0. -1.
         21   -1    0    0  502  503 -0.00000000000E+00 -0.00000000000E+00 -0.37187402196E+02  0.37187402196E+02  0.00000000000E+00 0. -1.
          6    1    1    2  501    0  0.44434932225E+02  0.11460536997E+03  0.17806847111E+04  0.17932863392E+04  0.17300000000E+03 0. -1.
         -6    1    1    2    0  503 -0.44434932225E+02 -0.11460536997E+03  0.33365557022E+03  0.39542874651E+03  0.17300000000E+03 0. -1.
<mgrwt>
<rscale>  2 0.21222124E+03</rscale>
<asrwt>0</asrwt>
<pdfrwt beam="1">  1       21 0.33100416E+00 0.21222124E+03</pdfrwt>
<pdfrwt beam="2">  1       21 0.57211405E-02 0.21222124E+03</pdfrwt>
<totfact> 0.47219907E+03</totfact>
</mgrwt>
</event>
<event>
 4    1  0.4621995E+000  0.2422457E+03  0.7546771E-02  0.1118306E+00
         21   -1    0    0  501  502  0.00000000000E+00  0.00000000000E+00  0.14994671048E+04  0.14994671048E+04  0.00000000000E+00 0.  1.
         21   -1    0    0  502  503 -0.00000000000E+00 -0.00000000000E+00 -0.22077949357E+03  0.22077949357E+03  0.00000000000E+00 0.  1.
          6    1    1    2  501    0  0.41063693066E+02  0.16452282879E+03  0.14195176629E+04  0.14400393687E+04  0.17300000000E+03 0.  1.
         -6    1    1    2    0  503 -0.41063693066E+02 -0.16452282879E+03 -0.14083005171E+03  0.28020722965E+03  0.17300000000E+03 0.  1.
<mgrwt>
<rscale>  2 0.24224572E+03</rscale>
<asrwt>0</asrwt>
<pdfrwt beam="1">  1       21 0.23068724E+00 0.24224572E+03</pdfrwt>
<pdfrwt beam="2">  1       21 0.33966077E-01 0.24224572E+03</pdfrwt>
<totfact> 0.68444103E+02</totfact>
</mgrwt>
</event>
<event>
 4    1  0.4621995E+000  0.1908235E+03  0.7546771E-02  0.1157721E+00
         21   -1    0    0  503  502  0.00000000000E+00  0.00000000000E+00  0.15829421048E+04  0.15829421048E+04  0.00000000000E+00 0.  1.
         21   -1    0    0  501  503 -0.00000000000E+00 -0.00000000000E+00 -0.23025414677E+02  0.23025414677E+02  0.00000000000E+00 0.  1.
          6    1    1    2  501    0  0.69460810999E+02  0.40740828684E+02  0.75533287633E+03  0.77906442189E+03  0.17300000000E+03 0.  1.
         -6    1    1    2    0  502 -0.69460810999E+02 -0.40740828684E+02  0.80458381379E+03  0.82690309759E+03  0.17300000000E+03 0.  1.
<mgrwt>
<rscale>  2 0.19082353E+03</rscale>
<asrwt>0</asrwt>
<pdfrwt beam="1">  1       21 0.24352947E+00 0.19082353E+03</pdfrwt>
<pdfrwt beam="2">  1       21 0.35423727E-02 0.19082353E+03</pdfrwt>
<totfact> 0.34907538E+04</totfact>
</mgrwt>
</event>
<event>
 4    1  0.4621995E+000  0.1739140E+03  0.7546771E-02  0.1173827E+00
         21   -1    0    0  501  502  0.00000000000E+00  0.00000000000E+00  0.11090493992E+03  0.11090493992E+03  0.00000000000E+00 0. -1.
         21   -1    0    0  502  503 -0.00000000000E+00 -0.00000000000E+00 -0.27664295332E+03  0.27664295332E+03  0.00000000000E+00 0. -1.
          6    1    1    2  501    0 -0.15115383124E+02  0.94132781559E+01 -0.10594165924E+03  0.20364115442E+03  0.17300000000E+03 0. -1.
         -6    1    1    2    0  503  0.15115383124E+02 -0.94132781559E+01 -0.59796354160E+02  0.18390673882E+03  0.17300000000E+03 0. -1.
<mgrwt>
<rscale>  2 0.17391401E+03</rscale>
<asrwt>0</asrwt>
<pdfrwt beam="1">  1       21 0.17062298E-01 0.17391401E+03</pdfrwt>
<pdfrwt beam="2">  1       21 0.42560455E-01 0.17391401E+03</pdfrwt>
<totfact> 0.16554419E+05</totfact>
</mgrwt>
</event>
<event>
 4    1  0.4621995E+000  0.1824826E+03  0.7546771E-02  0.1165422E+00
         21   -1    0    0  503  502  0.00000000000E+00  0.00000000000E+00  0.15326809607E+03  0.15326809607E+03  0.00000000000E+00 0.  1.
         21   -1    0    0  501  503 -0.00000000000E+00 -0.00000000000E+00 -0.21853938254E+03  0.21853938254E+03  0.00000000000E+00 0.  1.
          6    1    1    2  501    0  0.36901322481E+02  0.44824011905E+02 -0.46827998185E+02  0.18839522568E+03  0.17300000000E+03 0.  1.
         -6    1    1    2    0  502 -0.36901322481E+02 -0.44824011905E+02 -0.18443288290E+02  0.18341225294E+03  0.17300000000E+03 0.  1.
<mgrwt>
<rscale>  2 0.18248260E+03</rscale>
<asrwt>0</asrwt>
<pdfrwt beam="1">  1       21 0.23579707E-01 0.18248260E+03</pdfrwt>
<pdfrwt beam="2">  1       21 0.33621443E-01 0.18248260E+03</pdfrwt>
<totfact> 0.14474372E+05</totfact>
</mgrwt>
</event>
<event>
 4    1  0.4621995E+000  0.2097245E+03  0.7546771E-02  0.1141784E+00
         21   -1    0    0  503  502  0.00000000000E+00  0.00000000000E+00  0.19825825856E+03  0.19825825856E+03  0.00000000000E+00 0.  1.
         21   -1    0    0  501  503 -0.00000000000E+00 -0.00000000000E+00 -0.51709125166E+03  0.51709125166E+03  0.00000000000E+00 0.  1.
          6    1    1    2  501    0 -0.62975914351E+02 -0.10044593335E+03 -0.42968186877E+03  0.47813267998E+03  0.17300000000E+03 0.  1.
         -6    1    1    2    0  502  0.62975914351E+02  0.10044593335E+03  0.11084887566E+03  0.23721683024E+03  0.17300000000E+03 0.  1.
<mgrwt>
<rscale>  2 0.20972447E+03</rscale>
<asrwt>0</asrwt>
<pdfrwt beam="1">  1       21 0.30501270E-01 0.20972447E+03</pdfrwt>
<pdfrwt beam="2">  1       21 0.79552500E-01 0.20972447E+03</pdfrwt>
<totfact> 0.14213814E+04</totfact>
</mgrwt>
</event>
<event>
 4    1  0.4621995E+000  0.2504303E+03  0.7546771E-02  0.1113033E+00
         21   -1    0    0  501  502  0.00000000000E+00  0.00000000000E+00  0.61867080896E+02  0.61867080896E+02  0.00000000000E+00 0.  1.
         21   -1    0    0  502  503 -0.00000000000E+00 -0.00000000000E+00 -0.11006080659E+04  0.11006080659E+04  0.00000000000E+00 0.  1.
          6    1    1    2  501    0  0.17716108123E+03  0.37420197279E+02 -0.35604998431E+03  0.43530094325E+03  0.17300000000E+03 0.  1.
         -6    1    1    2    0  503 -0.17716108123E+03 -0.37420197279E+02 -0.68269100065E+03  0.72717420350E+03  0.17300000000E+03 0.  1.
<mgrwt>
<rscale>  2 0.25043027E+03</rscale>
<asrwt>0</asrwt>
<pdfrwt beam="1">  1       21 0.95180132E-02 0.25043027E+03</pdfrwt>
<pdfrwt beam="2">  1       21 0.16932430E+00 0.25043027E+03</pdfrwt>
<totfact> 0.18400116E+04</totfact>
</mgrwt>
</event>
<event>
 4    1  0.4621995E+000  0.2246245E+03  0.7546771E-02  0.1130482E+00
         21   -1    0    0  503  502  0.00000000000E+00  0.00000000000E+00  0.20747579876E+03  0.20747579876E+03  0.00000000000E+00 0.  1.
         21   -1    0    0  501  503 -0.00000000000E+00 -0.00000000000E+00 -0.46818637547E+03  0.46818637547E+03  0.00000000000E+00 0. -1.
          6    1    1    2  501    0  0.41473210456E+02  0.13713914364E+03 -0.36455015430E+03  0.42819736910E+03  0.17300000000E+03 0. -1.
         -6    1    1    2    0  502 -0.41473210456E+02 -0.13713914364E+03  0.10383957759E+03  0.24746480513E+03  0.17300000000E+03 0.  1.
<mgrwt>
<rscale>  2 0.22462451E+03</rscale>
<asrwt>0</asrwt>
<pdfrwt beam="1">  1       21 0.31919354E-01 0.22462451E+03</pdfrwt>
<pdfrwt beam="2">  1       21 0.72028671E-01 0.22462451E+03</pdfrwt>
<totfact> 0.16103725E+04</totfact>
</mgrwt>
</event>
<event>
 4    1  0.4621995E+000  0.2995227E+03  0.7546771E-02  0.1085479E+00
         21   -1    0    0  501  502  0.00000000000E+00  0.00000000000E+00  0.92234614729E+03  0.92234614729E+03  0.00000000000E+00 0. -1.
         21   -1    0    0  502  503 -0.00000000000E+00 -0.00000000000E+00 -0.38210200602E+03  0.38210200602E+03  0.00000000000E+00 0. -1.
          6    1    1    2  501    0  0.21736405029E+03  0.11197196564E+03  0.83324581752E+03  0.88544477178E+03  0.17300000000E+03 0. -1.
         -6    1    1    2    0  503 -0.21736405029E+03 -0.11197196564E+03 -0.29300167625E+03  0.41900338153E+03  0.17300000000E+03 0. -1.
<mgrwt>
<rscale>  2 0.29952271E+03</rscale>
<asrwt>0</asrwt>
<pdfrwt beam="1">  1       21 0.14189941E+00 0.29952271E+03</pdfrwt>
<pdfrwt beam="2">  1       21 0.58784924E-01 0.29952271E+03</pdfrwt>
<totfact> 0.85441842E+02</totfact>
</mgrwt>
</event>
<event>
 4    1  0.4621995E+000  0.2190576E+03  0.7546771E-02  0.1134588E+00
         21   -1    0    0  501  502  0.00000000000E+00  0.00000000000E+00  0.22583823311E+03  0.22583823311E+03  0.00000000000E+00 0.  1.
         21   -1    0    0  502  503 -0.00000000000E+00 -0.00000000000E+00 -0.23549345997E+03  0.23549345997E+03  0.00000000000E+00 0.  1.
          6    1    1    2  501    0 -0.12797110176E+02  0.13376640380E+03  0.67279859134E+02  0.22915670677E+03  0.17300000000E+03 0.  1.
         -6    1    1    2    0  503  0.12797110176E+02 -0.13376640380E+03 -0.76935085995E+02  0.23217498631E+03  0.17300000000E+03 0.  1.
<mgrwt>
<rscale>  2 0.21905757E+03</rscale>
<asrwt>0</asrwt>
<pdfrwt beam="1">  1       21 0.34744344E-01 0.21905757E+03</pdfrwt>
<pdfrwt beam="2">  1       21 0.36229763E-01 0.21905757E+03</pdfrwt>
<totfact> 0.57960614E+04</totfact>
</mgrwt>
</event>
<event>
 4    1  0.4621995E+000  0.2296754E+03  0.7546771E-02  0.1126868E+00
         21   -1    0    0  501  502  0.00000000000E+00  0.00000000000E+00  0.41588791601E+03  0.41588791601E+03  0.00000000000E+00 0.  1.
         21   -1    0    0  502  503 -0.00000000000E+00 -0.00000000000E+00 -0.19875678617E+03  0.19875678617E+03  0.00000000000E+00 0.  1.
          6    1    1    2  501    0  0.14315520689E+03 -0.48253086388E+02  0.29342923227E+03  0.37262781426E+03  0.17300000000E+03 0.  1.
         -6    1    1    2    0  503 -0.14315520689E+03  0.48253086388E+02 -0.76298102422E+02  0.24201688792E+03  0.17300000000E+03 0.  1.
<mgrwt>
<rscale>  2 0.22967537E+03</rscale>
<asrwt>0</asrwt>
<pdfrwt beam="1">  1       21 0.63982756E-01 0.22967537E+03</pdfrwt>
<pdfrwt beam="2">  1       21 0.30577967E-01 0.22967537E+03</pdfrwt>
<totfact> 0.22682844E+04</totfact>
</mgrwt>
</event>
<event>
 4    1  0.4621995E+000  0.2118353E+03  0.7546771E-02  0.1140121E+00
         21   -1    0    0  501  502  0.00000000000E+00  0.00000000000E+00  0.23396232090E+04  0.23396232090E+04  0.00000000000E+00 0. -1.
         21   -1    0    0  502  503 -0.00000000000E+00 -0.00000000000E+00 -0.25594459740E+02  0.25594459740E+02  0.00000000000E+00 0.  1.
          6    1    1    2  501    0  0.11437165976E+03  0.43177513091E+02  0.17490464932E+04  0.17618279738E+04  0.17300000000E+03 0. -1.
         -6    1    1    2    0  503 -0.11437165976E+03 -0.43177513091E+02  0.56498225608E+03  0.60338969487E+03  0.17300000000E+03 0.  1.
<mgrwt>
<rscale>  2 0.21183525E+03</rscale>
<asrwt>0</asrwt>
<pdfrwt beam="1">  1       21 0.35994186E+00 0.21183525E+03</pdfrwt>
<pdfrwt beam="2">  1       21 0.39376110E-02 0.21183525E+03</pdfrwt>
<totfact> 0.60009933E+03</totfact>
</mgrwt>
</event>
<event>
 4    1  0.4621995E+000  0.2183078E+03  0.7546771E-02  0.1135151E+00
         21   -1    0    0  501  502  0.00000000000E+00  0.00000000000E+00  0.22084673585E+03  0.22084673585E+03  0.00000000000E+00 0.  1.
         21   -1    0    0  502  503 -0.00000000000E+00 -0.00000000000E+00 -0.23982629389E+03  0.23982629389E+03  0.00000000000E+00 0.  1.
          6    1    1    2  501    0  0.90393687344E+02  0.97766373784E+02 -0.82397901764E+02  0.23334030250E+03  0.17300000000E+03 0.  1.
         -6    1    1    2    0  503 -0.90393687344E+02 -0.97766373784E+02  0.63418343728E+02  0.22733272724E+03  0.17300000000E+03 0.  1.
<mgrwt>
<rscale>  2 0.21830777E+03</rscale>
<asrwt>0</asrwt>
<pdfrwt beam="1">  1       21 0.33976421E-01 0.21830777E+03</pdfrwt>
<pdfrwt beam="2">  1       21 0.36896353E-01 0.21830777E+03</pdfrwt>
<totfact> 0.58439357E+04</totfact>
</mgrwt>
</event>
<event>
 4    1  0.4621995E+000  0.3110454E+03  0.7546771E-02  0.1079846E+00
         21   -1    0    0  503  502  0.00000000000E+00  0.00000000000E+00  0.61008120976E+03  0.61008120976E+03  0.00000000000E+00 0. -1.
         21   -1    0    0  501  503 -0.00000000000E+00 -0.00000000000E+00 -0.16050236984E+03  0.16050236984E+03  0.00000000000E+00 0. -1.
          6    1    1    2  501    0  0.15257554603E+03 -0.20866469860E+03  0.18266924872E+03  0.36071776795E+03  0.17300000000E+03 0. -1.
         -6    1    1    2    0  502 -0.15257554603E+03  0.20866469860E+03  0.26690959120E+03  0.40986581165E+03  0.17300000000E+03 0. -1.
<mgrwt>
<rscale>  2 0.31104542E+03</rscale>
<asrwt>0</asrwt>
<pdfrwt beam="1">  1       21 0.93858646E-01 0.31104542E+03</pdfrwt>
<pdfrwt beam="2">  1       21 0.24692673E-01 0.31104542E+03</pdfrwt>
<totfact> 0.13879018E+04</totfact>
</mgrwt>
</event>
<event>
 4    1  0.4621995E+000  0.1942365E+03  0.7546771E-02  0.1154695E+00
         21   -1    0    0  503  502  0.00000000000E+00  0.00000000000E+00  0.13348753010E+03  0.13348753010E+03  0.00000000000E+00 0. -1.
         21   -1    0    0  501  503 -0.00000000000E+00 -0.00000000000E+00 -0.28267503206E+03  0.28267503206E+03  0.00000000000E+00 0. -1.
          6    1    1    2  501    0 -0.71981632144E+02 -0.51161237808E+02 -0.72021936358E+02  0.20715932742E+03  0.17300000000E+03 0. -1.
         -6    1    1    2    0  502  0.71981632144E+02  0.51161237808E+02 -0.77165565601E+02  0.20900323475E+03  0.17300000000E+03 0. -1.
<mgrwt>
<rscale>  2 0.19423652E+03</rscale>
<asrwt>0</asrwt>
<pdfrwt beam="1">  1       21 0.20536543E-01 0.19423652E+03</pdfrwt>
<pdfrwt beam="2">  1       21 0.43488466E-01 0.19423652E+03</pdfrwt>
<totfact> 0.11158458E+05</totfact>
</mgrwt>
</event>
<event>
 4    1  0.4621995E+000  0.2733049E+03  0.7546771E-02  0.1099403E+00
         21   -1    0    0  501  502  0.00000000000E+00  0.00000000000E+00  0.50729341721E+03  0.50729341721E+03  0.00000000000E+00 0. -1.
         21   -1    0    0  502  503 -0.00000000000E+00 -0.00000000000E+00 -0.19418917805E+03  0.19418917805E+03  0.00000000000E+00 0. -1.
          6    1    1    2  501    0 -0.44066156505E+02  0.20694144590E+03  0.32900594794E+03  0.42771544508E+03  0.17300000000E+03 0. -1.
         -6    1    1    2    0  503  0.44066156505E+02 -0.20694144590E+03 -0.15901708777E+02  0.27376715019E+03  0.17300000000E+03 0. -1.
<mgrwt>
<rscale>  2 0.27330494E+03</rscale>
<asrwt>0</asrwt>
<pdfrwt beam="1">  1       21 0.78045140E-01 0.27330494E+03</pdfrwt>
<pdfrwt beam="2">  1       21 0.29875258E-01 0.27330494E+03</pdfrwt>
<totfact> 0.14938456E+04</totfact>
</mgrwt>
</event>
<event>
 4    1  0.4621995E+000  0.2797531E+03  0.7546771E-02  0.1095824E+00
         21   -1    0    0  503  502  0.00000000000E+00  0.00000000000E+00  0.40072449953E+03  0.40072449953E+03  0.00000000000E+00 0. -1.
         21   -1    0    0  501  503 -0.00000000000E+00 -0.00000000000E+00 -0.21390191586E+03  0.21390191586E+03  0.00000000000E+00 0.  1.
          6    1    1    2  501    0 -0.17324630548E+02  0.21916355079E+03  0.18403538919E+03  0.33485941721E+03  0.17300000000E+03 0. -1.
         -6    1    1    2    0  502  0.17324630548E+02 -0.21916355079E+03  0.27871944869E+01  0.27976699819E+03  0.17300000000E+03 0.  1.
<mgrwt>
<rscale>  2 0.27975311E+03</rscale>
<asrwt>0</asrwt>
<pdfrwt beam="1">  1       21 0.61649923E-01 0.27975311E+03</pdfrwt>
<pdfrwt beam="2">  1       21 0.32907987E-01 0.27975311E+03</pdfrwt>
<totfact> 0.20782993E+04</totfact>
</mgrwt>
</event>
<event>
 4    1  0.4621995E+000  0.1791969E+03  0.7546771E-02  0.1168583E+00
         21   -1    0    0  503  502  0.00000000000E+00  0.00000000000E+00  0.35928655946E+03  0.35928655946E+03  0.00000000000E+00 0. -1.
         21   -1    0    0  501  503 -0.00000000000E+00 -0.00000000000E+00 -0.13057374937E+03  0.13057374937E+03  0.00000000000E+00 0. -1.
          6    1    1    2  501    0 -0.45819174014E+02  0.91171624738E+01 -0.23222605596E+02  0.18069534795E+03  0.17300000000E+03 0. -1.
         -6    1    1    2    0  502  0.45819174014E+02 -0.91171624738E+01  0.25193541569E+03  0.30916496088E+03  0.17300000000E+03 0. -1.
<mgrwt>
<rscale>  2 0.17919687E+03</rscale>
<asrwt>0</asrwt>
<pdfrwt beam="1">  1       21 0.55274855E-01 0.17919687E+03</pdfrwt>
<pdfrwt beam="2">  1       21 0.20088269E-01 0.17919687E+03</pdfrwt>
<totfact> 0.71067540E+04</totfact>
</mgrwt>
</event>
<event>
 4    1  0.4621995E+000  0.1773155E+03  0.7546771E-02  0.1170427E+00
         21   -1    0    0  501  502  0.00000000000E+00  0.00000000000E+00  0.14001330119E+03  0.14001330119E+03  0.00000000000E+00 0.  1.
         21   -1    0    0  502  503 -0.00000000000E+00 -0.00000000000E+00 -0.22475420235E+03  0.22475420235E+03  0.00000000000E+00 0.  1.
          6    1    1    2  501    0  0.31450566556E+02  0.22861529356E+02 -0.47790374087E+02  0.18364288039E+03  0.17300000000E+03 0. -1.
         -6    1    1    2    0  503 -0.31450566556E+02 -0.22861529356E+02 -0.36950527079E+02  0.18112462315E+03  0.17300000000E+03 0. -1.
<mgrwt>
<rscale>  2 0.17731550E+03</rscale>
<asrwt>0</asrwt>
<pdfrwt beam="1">  1       21 0.21540508E-01 0.17731550E+03</pdfrwt>
<pdfrwt beam="2">  1       21 0.34577569E-01 0.17731550E+03</pdfrwt>
<totfact> 0.16269157E+05</totfact>
</mgrwt>
</event>
<event>
 4    1  0.4621995E+000  0.1976223E+03  0.7546771E-02  0.1151761E+00
         21   -1    0    0  503  502  0.00000000000E+00  0.00000000000E+00  0.92471611654E+02  0.92471611654E+02  0.00000000000E+00 0.  1.
         21   -1    0    0  501  503 -0.00000000000E+00 -0.00000000000E+00 -0.57301048719E+03  0.57301048719E+03  0.00000000000E+00 0.  1.
          6    1    1    2  501    0  0.70828846467E+02 -0.64100152156E+02 -0.41089249512E+03  0.45594648540E+03  0.17300000000E+03 0.  1.
         -6    1    1    2    0  502 -0.70828846467E+02  0.64100152156E+02 -0.69646380415E+02  0.20953561345E+03  0.17300000000E+03 0.  1.
<mgrwt>
<rscale>  2 0.19762225E+03</rscale>
<asrwt>0</asrwt>
<pdfrwt beam="1">  1       21 0.14226402E-01 0.19762225E+03</pdfrwt>
<pdfrwt beam="2">  1       21 0.88155459E-01 0.19762225E+03</pdfrwt>
<totfact> 0.47477450E+04</totfact>
</mgrwt>
</event>
<event>
 4    1  0.4621995E+000  0.1959754E+03  0.7546771E-02  0.1153180E+00
         21   -1    0    0  503  502  0.00000000000E+00  0.00000000000E+00  0.77802329441E+03  0.77802329441E+03  0.00000000000E+00 0.  1.
         21   -1    0    0  501  503 -0.00000000000E+00 -0.00000000000E+00 -0.53209180967E+02  0.53209180967E+02  0.00000000000E+00 0.  1.
          6    1    1    2  501    0  0.88448520772E+02 -0.25577461350E+02  0.25068029383E+03  0.31819326999E+03  0.17300000000E+03 0.  1.
         -6    1    1    2    0  502 -0.88448520772E+02  0.25577461350E+02  0.47413381962E+03  0.51303920538E+03  0.17300000000E+03 0.  1.
<mgrwt>
<rscale>  2 0.19597537E+03</rscale>
<asrwt>0</asrwt>
<pdfrwt beam="1">  1       21 0.11969588E+00 0.19597537E+03</pdfrwt>
<pdfrwt beam="2">  1       21 0.81860284E-02 0.19597537E+03</pdfrwt>
<totfact> 0.61167896E+04</totfact>
</mgrwt>
</event>
<event>
 4    1  0.4621995E+000  0.2536765E+03  0.7546771E-02  0.1111003E+00
         21   -1    0    0  501  502  0.00000000000E+00  0.00000000000E+00  0.87187180017E+03  0.87187180017E+03  0.00000000000E+00 0.  1.
         21   -1    0    0  502  503 -0.00000000000E+00 -0.00000000000E+00 -0.12054829873E+03  0.12054829873E+03  0.00000000000E+00 0.  1.
          6    1    1    2  501    0  0.18405385981E+03  0.23387276873E+02  0.68463946922E+03  0.73012532544E+03  0.17300000000E+03 0.  1.
         -6    1    1    2    0  503 -0.18405385981E+03 -0.23387276873E+02  0.66684032215E+02  0.26229477346E+03  0.17300000000E+03 0.  1.
<mgrwt>
<rscale>  2 0.25367654E+03</rscale>
<asrwt>0</asrwt>
<pdfrwt beam="1">  1       21 0.13413412E+00 0.25367654E+03</pdfrwt>
<pdfrwt beam="2">  1       21 0.18545893E-01 0.25367654E+03</pdfrwt>
<totfact> 0.10190165E+04</totfact>
</mgrwt>
</event>
<event>
 4    1  0.4621995E+000  0.1868425E+03  0.7546771E-02  0.1161340E+00
         21   -1    0    0  501  502  0.00000000000E+00  0.00000000000E+00  0.22341451330E+03  0.22341451330E+03  0.00000000000E+00 0. -1.
         21   -1    0    0  502  503 -0.00000000000E+00 -0.00000000000E+00 -0.54320282648E+03  0.54320282648E+03  0.00000000000E+00 0.  1.
          6    1    1    2  501    0 -0.69932033110E+02 -0.95196351763E+01  0.16361951401E+03  0.24835752067E+03  0.17300000000E+03 0. -1.
         -6    1    1    2    0  503  0.69932033110E+02  0.95196351763E+01 -0.48340782720E+03  0.51825981911E+03  0.17300000000E+03 0.  1.
<mgrwt>
<rscale>  2 0.18684248E+03</rscale>
<asrwt>0</asrwt>
<pdfrwt beam="1">  1       21 0.34371463E-01 0.18684248E+03</pdfrwt>
<pdfrwt beam="2">  1       21 0.83569666E-01 0.18684248E+03</pdfrwt>
<totfact> 0.10201683E+04</totfact>
</mgrwt>
</event>
<event>
 4    1  0.4621995E+000  0.1909636E+03  0.7546771E-02  0.1157595E+00
         21   -1    0    0  503  502  0.00000000000E+00  0.00000000000E+00  0.41847300091E+03  0.41847300091E+03  0.00000000000E+00 0.  1.
         21   -1    0    0  501  503 -0.00000000000E+00 -0.00000000000E+00 -0.27510014015E+03  0.27510014015E+03  0.00000000000E+00 0.  1.
          6    1    1    2  501    0 -0.80136598782E+02 -0.10779810332E+02 -0.21495967252E+03  0.28753215400E+03  0.17300000000E+03 0.  1.
         -6    1    1    2    0  502  0.80136598782E+02  0.10779810332E+02  0.35833253327E+03  0.40604098706E+03  0.17300000000E+03 0.  1.
<mgrwt>
<rscale>  2 0.19096355E+03</rscale>
<asrwt>0</asrwt>
<pdfrwt beam="1">  1       21 0.64380461E-01 0.19096355E+03</pdfrwt>
<pdfrwt beam="2">  1       21 0.42323099E-01 0.19096355E+03</pdfrwt>
<totfact> 0.11968002E+04</totfact>
</mgrwt>
</event>
<event>
 4    1  0.4621995E+000  0.1923964E+03  0.7546771E-02  0.1156317E+00
         21   -1    0    0  503  502  0.00000000000E+00  0.00000000000E+00  0.78871872193E+03  0.78871872193E+03  0.00000000000E+00 0.  1.
         21   -1    0    0  501  503 -0.00000000000E+00 -0.00000000000E+00 -0.47767579781E+02  0.47767579781E+02  0.00000000000E+00 0.  1.
          6    1    1    2  501    0  0.80579191256E+02  0.24380008643E+02  0.31516911557E+03  0.36925324954E+03  0.17300000000E+03 0.  1.
         -6    1    1    2    0  502 -0.80579191256E+02 -0.24380008643E+02  0.42578202658E+03  0.46723305217E+03  0.17300000000E+03 0.  1.
<mgrwt>
<rscale>  2 0.19239644E+03</rscale>
<asrwt>0</asrwt>
<pdfrwt beam="1">  1       21 0.12134133E+00 0.19239644E+03</pdfrwt>
<pdfrwt beam="2">  1       21 0.73488590E-02 0.19239644E+03</pdfrwt>
<totfact> 0.71451000E+04</totfact>
</mgrwt>
</event>
<event>
 4    1  0.4621995E+000  0.1984387E+03  0.7546771E-02  0.1151063E+00
         21   -1    0    0  501  502  0.00000000000E+00  0.00000000000E+00  0.12800902242E+03  0.12800902242E+03  0.00000000000E+00 0.  1.
         21   -1    0    0  502  503 -0.00000000000E+00 -0.00000000000E+00 -0.51554514507E+03  0.51554514507E+03  0.00000000000E+00 0.  1.
          6    1    1    2  501    0  0.94638455141E+02 -0.22191656749E+02  0.10583110625E+02  0.19872068099E+03  0.17300000000E+03 0.  1.
         -6    1    1    2    0  503 -0.94638455141E+02  0.22191656749E+02 -0.39811923327E+03  0.44483348651E+03  0.17300000000E+03 0.  1.
<mgrwt>
<rscale>  2 0.19843867E+03</rscale>
<asrwt>0</asrwt>
<pdfrwt beam="1">  1       21 0.19693696E-01 0.19843867E+03</pdfrwt>
<pdfrwt beam="2">  1       21 0.79314637E-01 0.19843867E+03</pdfrwt>
<totfact> 0.33210949E+04</totfact>
</mgrwt>
</event>
<event>
 4    1  0.4621995E+000  0.2055902E+03  0.7546771E-02  0.1145106E+00
         21   -1    0    0  501  502  0.00000000000E+00  0.00000000000E+00  0.42133291266E+03  0.42133291266E+03  0.00000000000E+00 0.  1.
         21   -1    0    0  502  503 -0.00000000000E+00 -0.00000000000E+00 -0.11906964145E+03  0.11906964145E+03  0.00000000000E+00 0. -1.
          6    1    1    2  501    0  0.50290409507E+02 -0.99041341650E+02  0.43904306468E+02  0.21022583279E+03  0.17300000000E+03 0. -1.
         -6    1    1    2    0  503 -0.50290409507E+02  0.99041341650E+02  0.25835896474E+03  0.33017672133E+03  0.17300000000E+03 0.  1.
<mgrwt>
<rscale>  2 0.20559016E+03</rscale>
<asrwt>0</asrwt>
<pdfrwt beam="1">  1       21 0.64820447E-01 0.20559016E+03</pdfrwt>
<pdfrwt beam="2">  1       21 0.18318407E-01 0.20559016E+03</pdfrwt>
<totfact> 0.59232565E+04</totfact>
</mgrwt>
</event>
<event>
 4    1  0.4621995E+000  0.2105280E+03  0.7546771E-02  0.1141149E+00
         21   -1    0    0  501  502  0.00000000000E+00  0.00000000000E+00  0.49282254378E+02  0.49282254378E+02  0.00000000000E+00 0. -1.
         21   -1    0    0  502  503 -0.00000000000E+00 -0.00000000000E+00 -0.94348132812E+03  0.94348132812E+03  0.00000000000E+00 0. -1.
          6    1    1    2  501    0  0.29866366398E+02 -0.11619402295E+03 -0.33974580134E+03  0.39968645253E+03  0.17300000000E+03 0. -1.
         -6    1    1    2    0  503 -0.29866366398E+02  0.11619402295E+03 -0.55445327241E+03  0.59307712997E+03  0.17300000000E+03 0. -1.
<mgrwt>
<rscale>  2 0.21052803E+03</rscale>
<asrwt>0</asrwt>
<pdfrwt beam="1">  1       21 0.75818864E-02 0.21052803E+03</pdfrwt>
<pdfrwt beam="2">  1       21 0.14515095E+00 0.21052803E+03</pdfrwt>
<totfact> 0.42479655E+04</totfact>
</mgrwt>
</event>
<event>
 4    1  0.4621995E+000  0.2067364E+03  0.7546771E-02  0.1144177E+00
         21   -1    0    0  503  502  0.00000000000E+00  0.00000000000E+00  0.47491209142E+03  0.47491209142E+03  0.00000000000E+00 0.  1.
         21   -1    0    0  501  503 -0.00000000000E+00 -0.00000000000E+00 -0.28929393055E+03  0.28929393055E+03  0.00000000000E+00 0.  1.
          6    1    1    2  501    0  0.97915838374E+02 -0.56775058623E+02 -0.22433952982E+03  0.30507071856E+03  0.17300000000E+03 0.  1.
         -6    1    1    2    0  502 -0.97915838374E+02  0.56775058623E+02  0.40995769068E+03  0.45913530341E+03  0.17300000000E+03 0.  1.
<mgrwt>
<rscale>  2 0.20673635E+03</rscale>
<asrwt>0</asrwt>
<pdfrwt beam="1">  1       21 0.73063398E-01 0.20673635E+03</pdfrwt>
<pdfrwt beam="2">  1       21 0.44506759E-01 0.20673635E+03</pdfrwt>
<totfact> 0.80871345E+03</totfact>
</mgrwt>
</event>
<event>
 4    1  0.4621995E+000  0.1819494E+03  0.7546771E-02  0.1165930E+00
         21   -1    0    0  503  502  0.00000000000E+00  0.00000000000E+00  0.30852818449E+02  0.30852818449E+02  0.00000000000E+00 0. -1.
         21   -1    0    0  501  503 -0.00000000000E+00 -0.00000000000E+00 -0.19115317862E+04  0.19115317862E+04  0.00000000000E+00 0. -1.
          6    1    1    2  501    0 -0.19459835040E+02  0.52895205539E+02 -0.29710410640E+03  0.34839121400E+03  0.17300000000E+03 0. -1.
         -6    1    1    2    0  502  0.19459835040E+02 -0.52895205539E+02 -0.15835748614E+04  0.15939933907E+04  0.17300000000E+03 0. -1.
<mgrwt>
<rscale>  2 0.18194941E+03</rscale>
<asrwt>0</asrwt>
<pdfrwt beam="1">  1       21 0.47465864E-02 0.18194941E+03</pdfrwt>
<pdfrwt beam="2">  1       21 0.29408188E+00 0.18194941E+03</pdfrwt>
<totfact> 0.10971705E+04</totfact>
</mgrwt>
</event>
<event>
 4    1  0.4621995E+000  0.2864132E+03  0.7546771E-02  0.1092237E+00
         21   -1    0    0  503  502  0.00000000000E+00  0.00000000000E+00  0.20832512142E+03  0.20832512142E+03  0.00000000000E+00 0.  1.
         21   -1    0    0  501  503 -0.00000000000E+00 -0.00000000000E+00 -0.77943710158E+03  0.77943710158E+03  0.00000000000E+00 0. -1.
          6    1    1    2  501    0  0.22352207184E+03 -0.46275598758E+02 -0.63296189122E+03  0.69474693477E+03  0.17300000000E+03 0. -1.
         -6    1    1    2    0  502 -0.22352207184E+03  0.46275598758E+02  0.61849911059E+02  0.29301528823E+03  0.17300000000E+03 0.  1.
<mgrwt>
<rscale>  2 0.28641325E+03</rscale>
<asrwt>0</asrwt>
<pdfrwt beam="1">  1       21 0.32050019E-01 0.28641325E+03</pdfrwt>
<pdfrwt beam="2">  1       21 0.11991340E+00 0.28641325E+03</pdfrwt>
<totfact> 0.46472238E+03</totfact>
</mgrwt>
</event>
<event>
 4    1  0.4621995E+000  0.1864067E+03  0.7546771E-02  0.1161743E+00
         21   -1    0    0  501  502  0.00000000000E+00  0.00000000000E+00  0.10059440309E+03  0.10059440309E+03  0.00000000000E+00 0.  1.
         21   -1    0    0  502  503 -0.00000000000E+00 -0.00000000000E+00 -0.63606444257E+03  0.63606444257E+03  0.00000000000E+00 0.  1.
          6    1    1    2  501    0 -0.45324210896E+01  0.69267015131E+02 -0.18754253517E+02  0.18734776287E+03  0.17300000000E+03 0.  1.
         -6    1    1    2    0  503  0.45324210896E+01 -0.69267015131E+02 -0.51671578596E+03  0.54931108280E+03  0.17300000000E+03 0.  1.
<mgrwt>
<rscale>  2 0.18640671E+03</rscale>
<asrwt>0</asrwt>
<pdfrwt beam="1">  1       21 0.15476062E-01 0.18640671E+03</pdfrwt>
<pdfrwt beam="2">  1       21 0.97856067E-01 0.18640671E+03</pdfrwt>
<totfact> 0.32130304E+04</totfact>
</mgrwt>
</event>
<event>
 4    1  0.4621995E+000  0.2170336E+03  0.7546771E-02  0.1136114E+00
         21   -1    0    0  501  502  0.00000000000E+00  0.00000000000E+00  0.22147113236E+03  0.22147113236E+03  0.00000000000E+00 0. -1.
         21   -1    0    0  502  503 -0.00000000000E+00 -0.00000000000E+00 -0.33144594456E+03  0.33144594456E+03  0.00000000000E+00 0. -1.
          6    1    1    2  501    0  0.97182444925E+02 -0.87921394100E+02  0.11049825938E+03  0.24354355764E+03  0.17300000000E+03 0. -1.
         -6    1    1    2    0  503 -0.97182444925E+02  0.87921394100E+02 -0.22047307157E+03  0.30937351928E+03  0.17300000000E+03 0. -1.
<mgrwt>
<rscale>  2 0.21703364E+03</rscale>
<asrwt>0</asrwt>
<pdfrwt beam="1">  1       21 0.34072482E-01 0.21703364E+03</pdfrwt>
<pdfrwt beam="2">  1       21 0.50991684E-01 0.21703364E+03</pdfrwt>
<totfact> 0.29958628E+04</totfact>
</mgrwt>
</event>
<event>
 4    1  0.4621995E+000  0.2332490E+03  0.7546771E-02  0.1124374E+00
         21   -1    0    0  503  502  0.00000000000E+00  0.00000000000E+00  0.15093379693E+04  0.15093379693E+04  0.00000000000E+00 0.  1.
         21   -1    0    0  501  503 -0.00000000000E+00 -0.00000000000E+00 -0.48732863430E+02  0.48732863430E+02  0.00000000000E+00 0.  1.
          6    1    1    2  501    0 -0.12325616940E+03  0.96353663874E+02  0.11277949851E+04  0.11516625549E+04  0.17300000000E+03 0.  1.
         -6    1    1    2    0  502  0.12325616940E+03 -0.96353663874E+02  0.33281012076E+03  0.40640827787E+03  0.17300000000E+03 0.  1.
<mgrwt>
<rscale>  2 0.23324903E+03</rscale>
<asrwt>0</asrwt>
<pdfrwt beam="1">  1       21 0.23220581E+00 0.23324903E+03</pdfrwt>
<pdfrwt beam="2">  1       21 0.74973648E-02 0.23324903E+03</pdfrwt>
<totfact> 0.11010541E+04</totfact>
</mgrwt>
</event>
<event>
 4    1  0.4621995E+000  0.1964240E+03  0.7546771E-02  0.1152792E+00
         21   -1    0    0  503  502  0.00000000000E+00  0.00000000000E+00  0.19261477416E+03  0.19261477416E+03  0.00000000000E+00 0. -1.
         21   -1    0    0  501  503 -0.00000000000E+00 -0.00000000000E+00 -0.35812580653E+03  0.35812580653E+03  0.00000000000E+00 0. -1.
          6    1    1    2  501    0 -0.61373758194E+02  0.69904647872E+02 -0.26555561818E+03  0.33030619784E+03  0.17300000000E+03 0. -1.
         -6    1    1    2    0  502  0.61373758194E+02 -0.69904647872E+02  0.10004458581E+03  0.22043438284E+03  0.17300000000E+03 0. -1.
<mgrwt>
<rscale>  2 0.19642403E+03</rscale>
<asrwt>0</asrwt>
<pdfrwt beam="1">  1       21 0.29633043E-01 0.19642403E+03</pdfrwt>
<pdfrwt beam="2">  1       21 0.55096277E-01 0.19642403E+03</pdfrwt>
<totfact> 0.33851317E+04</totfact>
</mgrwt>
</event>
<event>
 4    1  0.4621995E+000  0.2542100E+03  0.7546771E-02  0.1110673E+00
         21   -1    0    0  501  502  0.00000000000E+00  0.00000000000E+00  0.14034820588E+03  0.14034820588E+03  0.00000000000E+00 0. -1.
         21   -1    0    0  502  503 -0.00000000000E+00 -0.00000000000E+00 -0.46384824325E+03  0.46384824325E+03  0.00000000000E+00 0.  1.
          6    1    1    2  501    0 -0.35289609846E+02 -0.18288891539E+03 -0.13587567747E+03  0.28824453449E+03  0.17300000000E+03 0.  1.
         -6    1    1    2    0  503  0.35289609846E+02  0.18288891539E+03 -0.18762435990E+03  0.31595191464E+03  0.17300000000E+03 0.  1.
<mgrwt>
<rscale>  2 0.25420998E+03</rscale>
<asrwt>0</asrwt>
<pdfrwt beam="1">  1       21 0.21592031E-01 0.25420998E+03</pdfrwt>
<pdfrwt beam="2">  1       21 0.71361269E-01 0.25420998E+03</pdfrwt>
<totfact> 0.34459438E+04</totfact>
</mgrwt>
</event>
<event>
 4    1  0.4621995E+000  0.1951737E+03  0.7546771E-02  0.1153876E+00
         21   -1    0    0  501  502  0.00000000000E+00  0.00000000000E+00  0.26896036864E+03  0.26896036864E+03  0.00000000000E+00 0.  1.
         21   -1    0    0  502  503 -0.00000000000E+00 -0.00000000000E+00 -0.14260621779E+03  0.14260621779E+03  0.00000000000E+00 0.  1.
          6    1    1    2  501    0 -0.86841787093E+02 -0.24945684574E+02  0.80205532757E+02  0.21101116238E+03  0.17300000000E+03 0.  1.
         -6    1    1    2    0  503  0.86841787093E+02  0.24945684574E+02  0.46148618098E+02  0.20055542405E+03  0.17300000000E+03 0.  1.
<mgrwt>
<rscale>  2 0.19517373E+03</rscale>
<asrwt>0</asrwt>
<pdfrwt beam="1">  1       21 0.41378518E-01 0.19517373E+03</pdfrwt>
<pdfrwt beam="2">  1       21 0.21939418E-01 0.19517373E+03</pdfrwt>
<totfact> 0.10902451E+05</totfact>
</mgrwt>
</event>
<event>
 4    1  0.4621995E+000  0.2219740E+03  0.7546771E-02  0.1132420E+00
         21   -1    0    0  503  502  0.00000000000E+00  0.00000000000E+00  0.24824654102E+03  0.24824654102E+03  0.00000000000E+00 0. -1.
         21   -1    0    0  501  503 -0.00000000000E+00 -0.00000000000E+00 -0.37634178139E+03  0.37634178139E+03  0.00000000000E+00 0.  1.
          6    1    1    2  501    0  0.12649615469E+03 -0.57811591328E+02 -0.27873750649E+03  0.35632436735E+03  0.17300000000E+03 0.  1.
         -6    1    1    2    0  502 -0.12649615469E+03  0.57811591328E+02  0.15064226612E+03  0.26826395506E+03  0.17300000000E+03 0. -1.
<mgrwt>
<rscale>  2 0.22197400E+03</rscale>
<asrwt>0</asrwt>
<pdfrwt beam="1">  1       21 0.38191776E-01 0.22197400E+03</pdfrwt>
<pdfrwt beam="2">  1       21 0.57898735E-01 0.22197400E+03</pdfrwt>
<totfact> 0.18172187E+04</totfact>
</mgrwt>
</event>
<event>
 4    1  0.4621995E+000  0.1926840E+03  0.7546771E-02  0.1156063E+00
         21   -1    0    0  503  502  0.00000000000E+00  0.00000000000E+00  0.63391890549E+02  0.63391890549E+02  0.00000000000E+00 0. -1.
         21   -1    0    0  501  503 -0.00000000000E+00 -0.00000000000E+00 -0.10548857390E+04  0.10548857390E+04  0.00000000000E+00 0.  1.
          6    1    1    2  501    0  0.81162671009E+02  0.24713441655E+02 -0.86865368847E+03  0.88976758980E+03  0.17300000000E+03 0.  1.
         -6    1    1    2    0  502 -0.81162671009E+02 -0.24713441655E+02 -0.12284015999E+03  0.22851003976E+03  0.17300000000E+03 0. -1.
<mgrwt>
<rscale>  2 0.19268402E+03</rscale>
<asrwt>0</asrwt>
<pdfrwt beam="1">  1       21 0.97525981E-02 0.19268402E+03</pdfrwt>
<pdfrwt beam="2">  1       21 0.16229012E+00 0.19268402E+03</pdfrwt>
<totfact> 0.20542986E+04</totfact>
</mgrwt>
</event>
<event>
 4    1  0.4621995E+000  0.2807490E+03  0.7546771E-02  0.1095281E+00
         21   -1    0    0  503  502  0.00000000000E+00  0.00000000000E+00  0.70347298929E+03  0.70347298929E+03  0.00000000000E+00 0.  1.
         21   -1    0    0  501  503 -0.00000000000E+00 -0.00000000000E+00 -0.12362026766E+03  0.12362026766E+03  0.00000000000E+00 0. -1.
          6    1    1    2  501    0 -0.21733553334E+03  0.40697088262E+02  0.16337630538E+03  0.32482580594E+03  0.17300000000E+03 0.  1.
         -6    1    1    2    0  502  0.21733553334E+03 -0.40697088262E+02  0.41647641625E+03  0.50226745100E+03  0.17300000000E+03 0. -1.
<mgrwt>
<rscale>  2 0.28074898E+03</rscale>
<asrwt>0</asrwt>
<pdfrwt beam="1">  1       21 0.10822661E+00 0.28074898E+03</pdfrwt>
<pdfrwt beam="2">  1       21 0.19018503E-01 0.28074898E+03</pdfrwt>
<totfact> 0.16399380E+04</totfact>
</mgrwt>
</event>
<event>
 4    1  0.4621995E+000  0.1923708E+03  0.7546771E-02  0.1156340E+00
         21   -1    0    0  501  502  0.00000000000E+00  0.00000000000E+00  0.17221232141E+04  0.17221232141E+04  0.00000000000E+00 0. -1.
         21   -1    0    0  502  503 -0.00000000000E+00 -0.00000000000E+00 -0.23786308571E+02  0.23786308571E+02  0.00000000000E+00 0.  1.
          6    1    1    2  501    0 -0.81904930078E+02 -0.19212176882E+02  0.11204671971E+04  0.11368611459E+04  0.17300000000E+03 0.  1.
         -6    1    1    2    0  503  0.81904930078E+02  0.19212176882E+02  0.57786970844E+03  0.60904837677E+03  0.17300000000E+03 0.  1.
<mgrwt>
<rscale>  2 0.19237080E+03</rscale>
<asrwt>0</asrwt>
<pdfrwt beam="1">  1       21 0.26494193E+00 0.19237080E+03</pdfrwt>
<pdfrwt beam="2">  1       21 0.36594334E-02 0.19237080E+03</pdfrwt>
<totfact> 0.24739185E+04</totfact>
</mgrwt>
</event>
<event>
 4    1  0.4621995E+000  0.2726041E+03  0.7546771E-02  0.1099798E+00
         21   -1    0    0  503  502  0.00000000000E+00  0.00000000000E+00  0.66686928480E+03  0.66686928480E+03  0.00000000000E+00 0.  1.
         21   -1    0    0  501  503 -0.00000000000E+00 -0.00000000000E+00 -0.14799262090E+03  0.14799262090E+03  0.00000000000E+00 0. -1.
          6    1    1    2  501    0  0.18067239464E+03 -0.10835821451E+03  0.56941119460E+02  0.27848753638E+03  0.17300000000E+03 0. -1.
         -6    1    1    2    0  502 -0.18067239464E+03  0.10835821451E+03  0.46193554444E+03  0.53637436931E+03  0.17300000000E+03 0.  1.
<mgrwt>
<rscale>  2 0.27260414E+03</rscale>
<asrwt>0</asrwt>
<pdfrwt beam="1">  1       21 0.10259527E+00 0.27260414E+03</pdfrwt>
<pdfrwt beam="2">  1       21 0.22768096E-01 0.27260414E+03</pdfrwt>
<totfact> 0.13338781E+04</totfact>
</mgrwt>
</event>
<event>
 4    1  0.4621995E+000  0.1898114E+03  0.7546771E-02  0.1158632E+00
         21   -1    0    0  501  502  0.00000000000E+00  0.00000000000E+00  0.83555685654E+03  0.83555685654E+03  0.00000000000E+00 0. -1.
         21   -1    0    0  502  503 -0.00000000000E+00 -0.00000000000E+00 -0.45226178548E+02  0.45226178548E+02  0.00000000000E+00 0.  1.
          6    1    1    2  501    0 -0.94787726472E+01  0.77521202727E+02  0.49022443764E+03  0.52568848500E+03  0.17300000000E+03 0. -1.
         -6    1    1    2    0  503  0.94787726472E+01 -0.77521202727E+02  0.30010624035E+03  0.35509455008E+03  0.17300000000E+03 0. -1.
<mgrwt>
<rscale>  2 0.18981144E+03</rscale>
<asrwt>0</asrwt>
<pdfrwt beam="1">  1       21 0.12854720E+00 0.18981144E+03</pdfrwt>
<pdfrwt beam="2">  1       21 0.69578743E-02 0.18981144E+03</pdfrwt>
<totfact> 0.68063801E+04</totfact>
</mgrwt>
</event>
<event>
 4    1  0.4621995E+000  0.1819238E+03  0.7546771E-02  0.1165954E+00
         21   -1    0    0  501  502  0.00000000000E+00  0.00000000000E+00  0.51998226046E+02  0.51998226046E+02  0.00000000000E+00 0. -1.
         21   -1    0    0  502  503 -0.00000000000E+00 -0.00000000000E+00 -0.66081215446E+03  0.66081215446E+03  0.00000000000E+00 0. -1.
          6    1    1    2  501    0 -0.50729236839E+02  0.24368048628E+02 -0.23602806492E+03  0.29800252464E+03  0.17300000000E+03 0. -1.
         -6    1    1    2    0  503  0.50729236839E+02 -0.24368048628E+02 -0.37278586349E+03  0.41480785586E+03  0.17300000000E+03 0. -1.
<mgrwt>
<rscale>  2 0.18192377E+03</rscale>
<asrwt>0</asrwt>
<pdfrwt beam="1">  1       21 0.79997278E-02 0.18192377E+03</pdfrwt>
<pdfrwt beam="2">  1       21 0.10166340E+00 0.18192377E+03</pdfrwt>
<totfact> 0.95152959E+04</totfact>
</mgrwt>
</event>
<event>
 4    1  0.4621995E+000  0.2141015E+03  0.7546771E-02  0.1138359E+00
         21   -1    0    0  503  502  0.00000000000E+00  0.00000000000E+00  0.15101621241E+04  0.15101621241E+04  0.00000000000E+00 0. -1.
         21   -1    0    0  501  503 -0.00000000000E+00 -0.00000000000E+00 -0.38411924959E+02  0.38411924959E+02  0.00000000000E+00 0. -1.
          6    1    1    2  501    0  0.94698351155E+02  0.83322585330E+02  0.38124050938E+03  0.43724564827E+03  0.17300000000E+03 0. -1.
         -6    1    1    2    0  502 -0.94698351155E+02 -0.83322585330E+02  0.10905096897E+04  0.11113284008E+04  0.17300000000E+03 0. -1.
<mgrwt>
<rscale>  2 0.21410145E+03</rscale>
<asrwt>0</asrwt>
<pdfrwt beam="1">  1       21 0.23233259E+00 0.21410145E+03</pdfrwt>
<pdfrwt beam="2">  1       21 0.59095281E-02 0.21410145E+03</pdfrwt>
<totfact> 0.16833952E+04</totfact>
</mgrwt>
</event>
<event>
 4    1  0.4621995E+000  0.2622471E+03  0.7546771E-02  0.1105801E+00
         21   -1    0    0  503  502  0.00000000000E+00  0.00000000000E+00  0.72124528039E+03  0.72124528039E+03  0.00000000000E+00 0.  1.
         21   -1    0    0  501  503 -0.00000000000E+00 -0.00000000000E+00 -0.17169873717E+03  0.17169873717E+03  0.00000000000E+00 0. -1.
          6    1    1    2  501    0 -0.88094678363E+02 -0.17630614659E+03 -0.22941651126E+02  0.26324864489E+03  0.17300000000E+03 0. -1.
         -6    1    1    2    0  502  0.88094678363E+02  0.17630614659E+03  0.57248819435E+03  0.62969537266E+03  0.17300000000E+03 0.  1.
<mgrwt>
<rscale>  2 0.26224708E+03</rscale>
<asrwt>0</asrwt>
<pdfrwt beam="1">  1       21 0.11096081E+00 0.26224708E+03</pdfrwt>
<pdfrwt beam="2">  1       21 0.26415191E-01 0.26224708E+03</pdfrwt>
<totfact> 0.83328153E+03</totfact>
</mgrwt>
</event>
<event>
 4    1  0.4621995E+000  0.2037971E+03  0.7546771E-02  0.1146574E+00
         21   -1    0    0  503  502  0.00000000000E+00  0.00000000000E+00  0.90554263238E+02  0.90554263238E+02  0.00000000000E+00 0. -1.
         21   -1    0    0  501  503 -0.00000000000E+00 -0.00000000000E+00 -0.52190019002E+03  0.52190019002E+03  0.00000000000E+00 0. -1.
          6    1    1    2  501    0 -0.62282074278E+02  0.87893097874E+02 -0.32227377092E+03  0.38130517549E+03  0.17300000000E+03 0. -1.
         -6    1    1    2    0  502  0.62282074278E+02 -0.87893097874E+02 -0.10907215586E+03  0.23114927777E+03  0.17300000000E+03 0. -1.
<mgrwt>
<rscale>  2 0.20379709E+03</rscale>
<asrwt>0</asrwt>
<pdfrwt beam="1">  1       21 0.13931425E-01 0.20379709E+03</pdfrwt>
<pdfrwt beam="2">  1       21 0.80292339E-01 0.20379709E+03</pdfrwt>
<totfact> 0.60869260E+04</totfact>
</mgrwt>
</event>
<event>
 4    1  0.4621995E+000  0.1837930E+03  0.7546771E-02  0.1164182E+00
         21   -1    0    0  503  502  0.00000000000E+00  0.00000000000E+00  0.59778712680E+03  0.59778712680E+03  0.00000000000E+00 0. -1.
         21   -1    0    0  501  503 -0.00000000000E+00 -0.00000000000E+00 -0.56792563119E+02  0.56792563119E+02  0.00000000000E+00 0. -1.
          6    1    1    2  501    0  0.38754359776E+02 -0.48466180557E+02  0.29365671089E+03  0.34643056290E+03  0.17300000000E+03 0.  1.
         -6    1    1    2    0  502 -0.38754359776E+02  0.48466180557E+02  0.24733785279E+03  0.30814912702E+03  0.17300000000E+03 0.  1.
<mgrwt>
<rscale>  2 0.18379301E+03</rscale>
<asrwt>0</asrwt>
<pdfrwt beam="1">  1       21 0.91967246E-01 0.18379301E+03</pdfrwt>
<pdfrwt beam="2">  1       21 0.87373178E-02 0.18379301E+03</pdfrwt>
<totfact> 0.10316599E+05</totfact>
</mgrwt>
</event>
<event>
 4    1  0.4621995E+000  0.2280965E+03  0.7546771E-02  0.1127987E+00
         21   -1    0    0  501  502  0.00000000000E+00  0.00000000000E+00  0.12326242196E+03  0.12326242196E+03  0.00000000000E+00 0.  1.
         21   -1    0    0  502  503 -0.00000000000E+00 -0.00000000000E+00 -0.60354684108E+03  0.60354684108E+03  0.00000000000E+00 0.  1.
          6    1    1    2  501    0  0.14865043918E+03  0.14366936151E+01 -0.40882323032E+02  0.23173127000E+03  0.17300000000E+03 0.  1.
         -6    1    1    2    0  503 -0.14865043918E+03 -0.14366936151E+01 -0.43940209608E+03  0.49507799304E+03  0.17300000000E+03 0.  1.
<mgrwt>
<rscale>  2 0.22809651E+03</rscale>
<asrwt>0</asrwt>
<pdfrwt beam="1">  1       21 0.18963449E-01 0.22809651E+03</pdfrwt>
<pdfrwt beam="2">  1       21 0.92853362E-01 0.22809651E+03</pdfrwt>
<totfact> 0.24412691E+04</totfact>
</mgrwt>
</event>
<event>
 4    1  0.4621995E+000  0.2485781E+03  0.7546771E-02  0.1114207E+00
         21   -1    0    0  503  502  0.00000000000E+00  0.00000000000E+00  0.10597756786E+04  0.10597756786E+04  0.00000000000E+00 0.  1.
         21   -1    0    0  501  503 -0.00000000000E+00 -0.00000000000E+00 -0.19299950907E+03  0.19299950907E+03  0.00000000000E+00 0.  1.
          6    1    1    2  501    0  0.11069289019E+03 -0.14003272106E+03 -0.89897397517E+02  0.26433429779E+03  0.17300000000E+03 0.  1.
         -6    1    1    2    0  502 -0.11069289019E+03  0.14003272106E+03  0.95667356708E+03  0.98844088991E+03  0.17300000000E+03 0.  1.
<mgrwt>
<rscale>  2 0.24857811E+03</rscale>
<asrwt>0</asrwt>
<pdfrwt beam="1">  1       21 0.16304241E+00 0.24857811E+03</pdfrwt>
<pdfrwt beam="2">  1       21 0.29692233E-01 0.24857811E+03</pdfrwt>
<totfact> 0.24796482E+03</totfact>
</mgrwt>
</event>
<event>
 4    1  0.4621995E+000  0.2197404E+03  0.7546771E-02  0.1134077E+00
         21   -1    0    0  501  502  0.00000000000E+00  0.00000000000E+00  0.91299657447E+02  0.91299657447E+02  0.00000000000E+00 0. -1.
         21   -1    0    0  502  503 -0.00000000000E+00 -0.00000000000E+00 -0.54422533122E+03  0.54422533122E+03  0.00000000000E+00 0. -1.
          6    1    1    2  501    0  0.13518979902E+03 -0.89745829738E+01 -0.17309055926E+03  0.27972516262E+03  0.17300000000E+03 0. -1.
         -6    1    1    2    0  503 -0.13518979902E+03  0.89745829738E+01 -0.27983511451E+03  0.35579982604E+03  0.17300000000E+03 0. -1.
<mgrwt>
<rscale>  2 0.21974036E+03</rscale>
<asrwt>0</asrwt>
<pdfrwt beam="1">  1       21 0.14046101E-01 0.21974036E+03</pdfrwt>
<pdfrwt beam="2">  1       21 0.83726975E-01 0.21974036E+03</pdfrwt>
<totfact> 0.54114258E+04</totfact>
</mgrwt>
</event>
<event>
 4    1  0.4621995E+000  0.2529988E+03  0.7546771E-02  0.1111424E+00
         21   -1    0    0  503  502  0.00000000000E+00  0.00000000000E+00  0.70975367445E+03  0.70975367445E+03  0.00000000000E+00 0.  1.
         21   -1    0    0  501  503 -0.00000000000E+00 -0.00000000000E+00 -0.15381756057E+03  0.15381756057E+03  0.00000000000E+00 0.  1.
          6    1    1    2  501    0  0.14870979825E+03 -0.10938357838E+03  0.55568897015E+03  0.61057235678E+03  0.17300000000E+03 0.  1.
         -6    1    1    2    0  502 -0.14870979825E+03  0.10938357838E+03  0.24714373084E+00  0.25299887825E+03  0.17300000000E+03 0.  1.
<mgrwt>
<rscale>  2 0.25299876E+03</rscale>
<asrwt>0</asrwt>
<pdfrwt beam="1">  1       21 0.10919287E+00 0.25299876E+03</pdfrwt>
<pdfrwt beam="2">  1       21 0.23664241E-01 0.25299876E+03</pdfrwt>
<totfact> 0.10761412E+04</totfact>
</mgrwt>
</event>
<event>
 4    1  0.4621995E+000  0.2232845E+03  0.7546771E-02  0.1131458E+00
         21   -1    0    0  503  502  0.00000000000E+00  0.00000000000E+00  0.74986034331E+03  0.74986034331E+03  0.00000000000E+00 0.  1.
         21   -1    0    0  501  503 -0.00000000000E+00 -0.00000000000E+00 -0.72125932902E+03  0.72125932902E+03  0.00000000000E+00 0. -1.
          6    1    1    2  501    0 -0.31828142277E+02  0.13752800452E+03 -0.68653716187E+03  0.72193438573E+03  0.17300000000E+03 0. -1.
         -6    1    1    2    0  502  0.31828142277E+02 -0.13752800452E+03  0.71513817615E+03  0.74918528660E+03  0.17300000000E+03 0.  1.
<mgrwt>
<rscale>  2 0.22328453E+03</rscale>
<asrwt>0</asrwt>
<pdfrwt beam="1">  1       21 0.11536313E+00 0.22328453E+03</pdfrwt>
<pdfrwt beam="2">  1       21 0.11096297E+00 0.22328453E+03</pdfrwt>
<totfact> 0.35964504E+02</totfact>
</mgrwt>
</event>
<event>
 4    1  0.4621995E+000  0.3207336E+03  0.7546771E-02  0.1075312E+00
         21   -1    0    0  501  502  0.00000000000E+00  0.00000000000E+00  0.16187764017E+04  0.16187764017E+04  0.00000000000E+00 0.  1.
         21   -1    0    0  502  503 -0.00000000000E+00 -0.00000000000E+00 -0.66546317470E+02  0.66546317470E+02  0.00000000000E+00 0. -1.
          6    1    1    2  501    0  0.22238523058E+03 -0.15325103227E+03  0.95498066563E+03  0.10074016783E+04  0.17300000000E+03 0.  1.
         -6    1    1    2    0  503 -0.22238523058E+03  0.15325103227E+03  0.59724941864E+03  0.67792104093E+03  0.17300000000E+03 0.  1.
<mgrwt>
<rscale>  2 0.32073364E+03</rscale>
<asrwt>0</asrwt>
<pdfrwt beam="1">  1       21 0.24904249E+00 0.32073364E+03</pdfrwt>
<pdfrwt beam="2">  1       21 0.10237896E-01 0.32073364E+03</pdfrwt>
<totfact> 0.47320844E+03</totfact>
</mgrwt>
</event>
<event>
 4    1  0.4621995E+000  0.1906265E+03  0.7546771E-02  0.1157897E+00
         21   -1    0    0  503  502  0.00000000000E+00  0.00000000000E+00  0.95033313471E+03  0.95033313471E+03  0.00000000000E+00 0. -1.
         21   -1    0    0  501  503 -0.00000000000E+00 -0.00000000000E+00 -0.38386954980E+02  0.38386954980E+02  0.00000000000E+00 0.  1.
          6    1    1    2  501    0 -0.50908046110E+01  0.79897208972E+02  0.42513924432E+03  0.46592044101E+03  0.17300000000E+03 0.  1.
         -6    1    1    2    0  502  0.50908046110E+01 -0.79897208972E+02  0.48680693541E+03  0.52279964868E+03  0.17300000000E+03 0.  1.
<mgrwt>
<rscale>  2 0.19062655E+03</rscale>
<asrwt>0</asrwt>
<pdfrwt beam="1">  1       21 0.14620508E+00 0.19062655E+03</pdfrwt>
<pdfrwt beam="2">  1       21 0.59056861E-02 0.19062655E+03</pdfrwt>
<totfact> 0.64836201E+04</totfact>
</mgrwt>
</event>
<event>
 4    1  0.4621995E+000  0.2879429E+03  0.7546771E-02  0.1091428E+00
         21   -1    0    0  503  502  0.00000000000E+00  0.00000000000E+00  0.15025024216E+03  0.15025024216E+03  0.00000000000E+00 0. -1.
         21   -1    0    0  501  503 -0.00000000000E+00 -0.00000000000E+00 -0.13327504850E+04  0.13327504850E+04  0.00000000000E+00 0. -1.
          6    1    1    2  501    0  0.50026308561E+02  0.22467642762E+03 -0.11588509985E+04  0.11940882570E+04  0.17300000000E+03 0. -1.
         -6    1    1    2    0  502 -0.50026308561E+02 -0.22467642762E+03 -0.23649244332E+02  0.28891247020E+03  0.17300000000E+03 0. -1.
<mgrwt>
<rscale>  2 0.28794293E+03</rscale>
<asrwt>0</asrwt>
<pdfrwt beam="1">  1       21 0.23115422E-01 0.28794293E+03</pdfrwt>
<pdfrwt beam="2">  1       21 0.20503854E+00 0.28794293E+03</pdfrwt>
<totfact> 0.20194871E+03</totfact>
</mgrwt>
</event>
<event>
 4    1  0.4621995E+000  0.2167125E+03  0.7546771E-02  0.1136358E+00
         21   -1    0    0  501  502  0.00000000000E+00  0.00000000000E+00  0.21660596460E+03  0.21660596460E+03  0.00000000000E+00 0.  1.
         21   -1    0    0  502  503 -0.00000000000E+00 -0.00000000000E+00 -0.21847852801E+03  0.21847852801E+03  0.00000000000E+00 0. -1.
          6    1    1    2  501    0  0.11441096062E+03 -0.62812863685E+02 -0.19895058278E+02  0.21762384313E+03  0.17300000000E+03 0. -1.
         -6    1    1    2    0  503 -0.11441096062E+03  0.62812863685E+02  0.18022494862E+02  0.21746064949E+03  0.17300000000E+03 0.  1.
<mgrwt>
<rscale>  2 0.21671254E+03</rscale>
<asrwt>0</asrwt>
<pdfrwt beam="1">  1       21 0.33323995E-01 0.21671254E+03</pdfrwt>
<pdfrwt beam="2">  1       21 0.33612081E-01 0.21671254E+03</pdfrwt>
<totfact> 0.73172033E+04</totfact>
</mgrwt>
</event>
<event>
 4    1  0.4621995E+000  0.2800284E+03  0.7546771E-02  0.1095673E+00
         21   -1    0    0  503  502  0.00000000000E+00  0.00000000000E+00  0.46518680335E+03  0.46518680335E+03  0.00000000000E+00 0. -1.
         21   -1    0    0  501  503 -0.00000000000E+00 -0.00000000000E+00 -0.17120045276E+03  0.17120045276E+03  0.00000000000E+00 0. -1.
          6    1    1    2  501    0 -0.77040541669E+01  0.22006259654E+03  0.10754127498E+03  0.29996837278E+03  0.17300000000E+03 0. -1.
         -6    1    1    2    0  502  0.77040541669E+01 -0.22006259654E+03  0.18644507560E+03  0.33641888333E+03  0.17300000000E+03 0. -1.
<mgrwt>
<rscale>  2 0.28002839E+03</rscale>
<asrwt>0</asrwt>
<pdfrwt beam="1">  1       21 0.71567200E-01 0.28002839E+03</pdfrwt>
<pdfrwt beam="2">  1       21 0.26338531E-01 0.28002839E+03</pdfrwt>
<totfact> 0.23148201E+04</totfact>
</mgrwt>
</event>
<event>
 4    1  0.4621995E+000  0.1948919E+03  0.7546771E-02  0.1154122E+00
         21   -1    0    0  501  502  0.00000000000E+00  0.00000000000E+00  0.29821112776E+03  0.29821112776E+03  0.00000000000E+00 0.  1.
         21   -1    0    0  502  503 -0.00000000000E+00 -0.00000000000E+00 -0.15513888518E+03  0.15513888518E+03  0.00000000000E+00 0.  1.
          6    1    1    2  501    0  0.65316803098E+01  0.89505144269E+02  0.16743882593E+03  0.25694083779E+03  0.17300000000E+03 0. -1.
         -6    1    1    2    0  503 -0.65316803098E+01 -0.89505144269E+02 -0.24366583342E+02  0.19640917515E+03  0.17300000000E+03 0. -1.
<mgrwt>
<rscale>  2 0.19489185E+03</rscale>
<asrwt>0</asrwt>
<pdfrwt beam="1">  1       21 0.45878635E-01 0.19489185E+03</pdfrwt>
<pdfrwt beam="2">  1       21 0.23867521E-01 0.19489185E+03</pdfrwt>
<totfact> 0.75273919E+04</totfact>
</mgrwt>
</event>
<event>
 4    1  0.4621995E+000  0.2170991E+03  0.7546771E-02  0.1136064E+00
         21   -1    0    0  503  502  0.00000000000E+00  0.00000000000E+00  0.51455829894E+03  0.51455829894E+03  0.00000000000E+00 0. -1.
         21   -1    0    0  501  503 -0.00000000000E+00 -0.00000000000E+00 -0.91623978669E+02  0.91623978669E+02  0.00000000000E+00 0.  1.
          6    1    1    2  501    0 -0.11603153755E+03  0.61153159788E+02  0.21666241459E+03  0.30671587594E+03  0.17300000000E+03 0.  1.
         -6    1    1    2    0  502  0.11603153755E+03 -0.61153159788E+02  0.20627190568E+03  0.29946640167E+03  0.17300000000E+03 0. -1.
<mgrwt>
<rscale>  2 0.21709912E+03</rscale>
<asrwt>0</asrwt>
<pdfrwt beam="1">  1       21 0.79162813E-01 0.21709912E+03</pdfrwt>
<pdfrwt beam="2">  1       21 0.14095997E-01 0.21709912E+03</pdfrwt>
<totfact> 0.61154738E+04</totfact>
</mgrwt>
</event>
<event>
 4    1  0.4621995E+000  0.1879230E+03  0.7546771E-02  0.1160348E+00
         21   -1    0    0  501  502  0.00000000000E+00  0.00000000000E+00  0.31211617567E+02  0.31211617567E+02  0.00000000000E+00 0. -1.
         21   -1    0    0  502  503 -0.00000000000E+00 -0.00000000000E+00 -0.11359045491E+04  0.11359045491E+04  0.00000000000E+00 0. -1.
          6    1    1    2  501    0  0.72672475577E+02 -0.10236071303E+02 -0.51589218265E+03  0.54905355839E+03  0.17300000000E+03 0. -1.
         -6    1    1    2    0  503 -0.72672475577E+02  0.10236071303E+02 -0.58880074888E+03  0.61806260827E+03  0.17300000000E+03 0. -1.
<mgrwt>
<rscale>  2 0.18792303E+03</rscale>
<asrwt>0</asrwt>
<pdfrwt beam="1">  1       21 0.48017867E-02 0.18792303E+03</pdfrwt>
<pdfrwt beam="2">  1       21 0.17475457E+00 0.18792303E+03</pdfrwt>
<totfact> 0.57107030E+04</totfact>
</mgrwt>
</event>
<event>
 4    1  0.4621995E+000  0.1806319E+03  0.7546771E-02  0.1167193E+00
         21   -1    0    0  501  502  0.00000000000E+00  0.00000000000E+00  0.50055353418E+03  0.50055353418E+03  0.00000000000E+00 0. -1.
         21   -1    0    0  502  503 -0.00000000000E+00 -0.00000000000E+00 -0.80497836699E+02  0.80497836699E+02  0.00000000000E+00 0. -1.
          6    1    1    2  501    0 -0.51950248175E+02  0.24739678444E+00  0.33674630600E+03  0.38213343755E+03  0.17300000000E+03 0. -1.
         -6    1    1    2    0  503  0.51950248175E+02 -0.24739678444E+00  0.83309391482E+02  0.19891793333E+03  0.17300000000E+03 0. -1.
<mgrwt>
<rscale>  2 0.18063192E+03</rscale>
<asrwt>0</asrwt>
<pdfrwt beam="1">  1       21 0.77008234E-01 0.18063192E+03</pdfrwt>
<pdfrwt beam="2">  1       21 0.12384283E-01 0.18063192E+03</pdfrwt>
<totfact> 0.83529937E+04</totfact>
</mgrwt>
</event>
<event>
 4    1  0.4621995E+000  0.3143727E+03  0.7546771E-02  0.1078269E+00
         21   -1    0    0  501  502  0.00000000000E+00  0.00000000000E+00  0.29497577970E+03  0.29497577970E+03  0.00000000000E+00 0.  1.
         21   -1    0    0  502  503 -0.00000000000E+00 -0.00000000000E+00 -0.34530282020E+03  0.34530282020E+03  0.00000000000E+00 0. -1.
          6    1    1    2  501    0 -0.25088673140E+03 -0.77181898725E+02  0.30014204379E+02  0.31580223233E+03  0.17300000000E+03 0.  1.
         -6    1    1    2    0  503  0.25088673140E+03  0.77181898725E+02 -0.80341244879E+02  0.32447636757E+03  0.17300000000E+03 0.  1.
<mgrwt>
<rscale>  2 0.31437270E+03</rscale>
<asrwt>0</asrwt>
<pdfrwt beam="1">  1       21 0.45380889E-01 0.31437270E+03</pdfrwt>
<pdfrwt beam="2">  1       21 0.53123511E-01 0.31437270E+03</pdfrwt>
<totfact> 0.14690924E+04</totfact>
</mgrwt>
</event>
<event>
 4    1  0.4621995E+000  0.1748540E+03  0.7546771E-02  0.1172878E+00
         21   -1    0    0  501  502  0.00000000000E+00  0.00000000000E+00  0.77529501008E+03  0.77529501008E+03  0.00000000000E+00 0.  1.
         21   -1    0    0  502  503 -0.00000000000E+00 -0.00000000000E+00 -0.47253434671E+02  0.47253434671E+02  0.00000000000E+00 0.  1.
          6    1    1    2  501    0  0.47102524201E+01 -0.24954945393E+02  0.53131016413E+03  0.55934285218E+03  0.17300000000E+03 0.  1.
         -6    1    1    2    0  503 -0.47102524201E+01  0.24954945393E+02  0.19673141128E+03  0.26320559258E+03  0.17300000000E+03 0.  1.
<mgrwt>
<rscale>  2 0.17485404E+03</rscale>
<asrwt>0</asrwt>
<pdfrwt beam="1">  1       21 0.11927615E+00 0.17485404E+03</pdfrwt>
<pdfrwt beam="2">  1       21 0.72697598E-02 0.17485404E+03</pdfrwt>
<totfact> 0.76596557E+04</totfact>
</mgrwt>
</event>
<event>
 4    1  0.4621995E+000  0.1879042E+03  0.7546771E-02  0.1160365E+00
         21   -1    0    0  501  502  0.00000000000E+00  0.00000000000E+00  0.49647354530E+03  0.49647354530E+03  0.00000000000E+00 0. -1.
         21   -1    0    0  502  503 -0.00000000000E+00 -0.00000000000E+00 -0.95563509049E+02  0.95563509049E+02  0.00000000000E+00 0. -1.
          6    1    1    2  501    0 -0.72970018213E+02  0.73734291100E+01  0.35017378144E+03  0.39740365904E+03  0.17300000000E+03 0.  1.
         -6    1    1    2    0  503  0.72970018213E+02 -0.73734291100E+01  0.50736254809E+02  0.19463339530E+03  0.17300000000E+03 0.  1.
<mgrwt>
<rscale>  2 0.18790421E+03</rscale>
<asrwt>0</asrwt>
<pdfrwt beam="1">  1       21 0.76380544E-01 0.18790421E+03</pdfrwt>
<pdfrwt beam="2">  1       21 0.14702079E-01 0.18790421E+03</pdfrwt>
<totfact> 0.62236221E+04</totfact>
</mgrwt>
</event>
<event>
 4    1  0.4621995E+000  0.1975026E+03  0.7546771E-02  0.1151863E+00
         21   -1    0    0  503  502  0.00000000000E+00  0.00000000000E+00  0.27496734587E+02  0.27496734587E+02  0.00000000000E+00 0. -1.
         21   -1    0    0  501  503 -0.00000000000E+00 -0.00000000000E+00 -0.14310777363E+04  0.14310777363E+04  0.00000000000E+00 0. -1.
          6    1    1    2  501    0 -0.91267760071E+02 -0.27358367183E+02 -0.63373377146E+03  0.66379648792E+03  0.17300000000E+03 0. -1.
         -6    1    1    2    0  502  0.91267760071E+02  0.27358367183E+02 -0.76984723022E+03  0.79477798294E+03  0.17300000000E+03 0. -1.
<mgrwt>
<rscale>  2 0.19750262E+03</rscale>
<asrwt>0</asrwt>
<pdfrwt beam="1">  1       21 0.42302671E-02 0.19750262E+03</pdfrwt>
<pdfrwt beam="2">  1       21 0.22016579E+00 0.19750262E+03</pdfrwt>
<totfact> 0.35672501E+04</totfact>
</mgrwt>
</event>
<event>
 4    1  0.4621995E+000  0.1996614E+03  0.7546771E-02  0.1150025E+00
         21   -1    0    0  501  502  0.00000000000E+00  0.00000000000E+00  0.81858371066E+03  0.81858371066E+03  0.00000000000E+00 0. -1.
         21   -1    0    0  502  503 -0.00000000000E+00 -0.00000000000E+00 -0.12941652671E+03  0.12941652671E+03  0.00000000000E+00 0.  1.
          6    1    1    2  501    0  0.20074706906E+02 -0.97635368547E+02  0.71892340709E+03  0.74613371745E+03  0.17300000000E+03 0. -1.
         -6    1    1    2    0  503 -0.20074706906E+02  0.97635368547E+02 -0.29756223143E+02  0.20186651992E+03  0.17300000000E+03 0.  1.
<mgrwt>
<rscale>  2 0.19966136E+03</rscale>
<asrwt>0</asrwt>
<pdfrwt beam="1">  1       21 0.12593595E+00 0.19966136E+03</pdfrwt>
<pdfrwt beam="2">  1       21 0.19910235E-01 0.19966136E+03</pdfrwt>
<totfact> 0.10843736E+04</totfact>
</mgrwt>
</event>
<event>
 4    1  0.4621995E+000  0.1925291E+03  0.7546771E-02  0.1156200E+00
         21   -1    0    0  503  502  0.00000000000E+00  0.00000000000E+00  0.20437884783E+02  0.20437884783E+02  0.00000000000E+00 0. -1.
         21   -1    0    0  501  503 -0.00000000000E+00 -0.00000000000E+00 -0.24902686129E+04  0.24902686129E+04  0.00000000000E+00 0. -1.
          6    1    1    2  501    0 -0.74865575208E+02  0.39161183785E+02 -0.18892657771E+04  0.18990504547E+04  0.17300000000E+03 0. -1.
         -6    1    1    2    0  502  0.74865575208E+02 -0.39161183785E+02 -0.58056495100E+03  0.61165604305E+03  0.17300000000E+03 0. -1.
<mgrwt>
<rscale>  2 0.19252910E+03</rscale>
<asrwt>0</asrwt>
<pdfrwt beam="1">  1       21 0.31442903E-02 0.19252910E+03</pdfrwt>
<pdfrwt beam="2">  1       21 0.38311820E+00 0.19252910E+03</pdfrwt>
<totfact> 0.64800011E+03</totfact>
</mgrwt>
</event>
<event>
 4    1  0.4621995E+000  0.2773999E+03  0.7546771E-02  0.1097118E+00
         21   -1    0    0  501  502  0.00000000000E+00  0.00000000000E+00  0.25076767869E+03  0.25076767869E+03  0.00000000000E+00 0.  1.
         21   -1    0    0  502  503 -0.00000000000E+00 -0.00000000000E+00 -0.31159193096E+03  0.31159193096E+03  0.00000000000E+00 0. -1.
          6    1    1    2  501    0  0.16869653303E+02 -0.21618767998E+03 -0.65060810165E+02  0.28492737179E+03  0.17300000000E+03 0. -1.
         -6    1    1    2    0  503 -0.16869653303E+02  0.21618767998E+03  0.42365578999E+01  0.27743223785E+03  0.17300000000E+03 0. -1.
<mgrwt>
<rscale>  2 0.27739989E+03</rscale>
<asrwt>0</asrwt>
<pdfrwt beam="1">  1       21 0.38579643E-01 0.27739989E+03</pdfrwt>
<pdfrwt beam="2">  1       21 0.47937220E-01 0.27739989E+03</pdfrwt>
<totfact> 0.25853763E+04</totfact>
</mgrwt>
</event>
<event>
 4    1  0.4621995E+000  0.2368869E+03  0.7546771E-02  0.1121884E+00
         21   -1    0    0  503  502  0.00000000000E+00  0.00000000000E+00  0.12799372308E+03  0.12799372308E+03  0.00000000000E+00 0. -1.
         21   -1    0    0  501  503 -0.00000000000E+00 -0.00000000000E+00 -0.54883606403E+03  0.54883606403E+03  0.00000000000E+00 0.  1.
          6    1    1    2  501    0 -0.95467992286E+02 -0.13066080311E+03 -0.36220954745E+03  0.43279456938E+03  0.17300000000E+03 0.  1.
         -6    1    1    2    0  502  0.95467992286E+02  0.13066080311E+03 -0.58632793499E+02  0.24403521773E+03  0.17300000000E+03 0. -1.
<mgrwt>
<rscale>  2 0.23688686E+03</rscale>
<asrwt>0</asrwt>
<pdfrwt beam="1">  1       21 0.19691342E-01 0.23688686E+03</pdfrwt>
<pdfrwt beam="2">  1       21 0.84436318E-01 0.23688686E+03</pdfrwt>
<totfact> 0.28236607E+04</totfact>
</mgrwt>
</event>
<event>
 4    1  0.4621995E+000  0.2212052E+03  0.7546771E-02  0.1132988E+00
         21   -1    0    0  503  502  0.00000000000E+00  0.00000000000E+00  0.13340043170E+04  0.13340043170E+04  0.00000000000E+00 0. -1.
         21   -1    0    0  501  503 -0.00000000000E+00 -0.00000000000E+00 -0.36813529600E+02  0.36813529600E+02  0.00000000000E+00 0.  1.
          6    1    1    2  501    0  0.13174275759E+03  0.40578366810E+02  0.68981931054E+03  0.72441869056E+03  0.17300000000E+03 0.  1.
         -6    1    1    2    0  502 -0.13174275759E+03 -0.40578366810E+02  0.60737147684E+03  0.64639915602E+03  0.17300000000E+03 0. -1.
<mgrwt>
<rscale>  2 0.22120524E+03</rscale>
<asrwt>0</asrwt>
<pdfrwt beam="1">  1       21 0.20523140E+00 0.22120524E+03</pdfrwt>
<pdfrwt beam="2">  1       21 0.56636210E-02 0.22120524E+03</pdfrwt>
<totfact> 0.26514950E+04</totfact>
</mgrwt>
</event>
<event>
 4    1  0.4621995E+000  0.2222340E+03  0.7546771E-02  0.1132228E+00
         21   -1    0    0  501  502  0.00000000000E+00  0.00000000000E+00  0.23445139252E+03  0.23445139252E+03  0.00000000000E+00 0.  1.
         21   -1    0    0  502  503 -0.00000000000E+00 -0.00000000000E+00 -0.21261163300E+03  0.21261163300E+03  0.00000000000E+00 0. -1.
          6    1    1    2  501    0 -0.13867304532E+03  0.15124628418E+02 -0.10532948835E+02  0.22248350702E+03  0.17300000000E+03 0. -1.
         -6    1    1    2    0  503  0.13867304532E+03 -0.15124628418E+02  0.32372708361E+02  0.22457951850E+03  0.17300000000E+03 0.  1.
<mgrwt>
<rscale>  2 0.22223404E+03</rscale>
<asrwt>0</asrwt>
<pdfrwt beam="1">  1       21 0.36069445E-01 0.22223404E+03</pdfrwt>
<pdfrwt beam="2">  1       21 0.32709482E-01 0.22223404E+03</pdfrwt>
<totfact> 0.65820225E+04</totfact>
</mgrwt>
</event>
<event>
 4    1  0.4621995E+000  0.2379180E+03  0.7546771E-02  0.1121188E+00
         21   -1    0    0  503  502  0.00000000000E+00  0.00000000000E+00  0.68399415908E+02  0.68399415908E+02  0.00000000000E+00 0. -1.
         21   -1    0    0  501  503 -0.00000000000E+00 -0.00000000000E+00 -0.10370549682E+04  0.10370549682E+04  0.00000000000E+00 0.  1.
          6    1    1    2  501    0  0.14561231763E+03 -0.73979809489E+02 -0.73275066565E+03  0.77040800701E+03  0.17300000000E+03 0.  1.
         -6    1    1    2    0  502 -0.14561231763E+03  0.73979809489E+02 -0.23590488662E+03  0.33504637707E+03  0.17300000000E+03 0. -1.
<mgrwt>
<rscale>  2 0.23791797E+03</rscale>
<asrwt>0</asrwt>
<pdfrwt beam="1">  1       21 0.10522988E-01 0.23791797E+03</pdfrwt>
<pdfrwt beam="2">  1       21 0.15954691E+00 0.23791797E+03</pdfrwt>
<totfact> 0.18259054E+04</totfact>
</mgrwt>
</event>
<event>
 4    1  0.4621995E+000  0.1822322E+03  0.7546771E-02  0.1165660E+00
         21   -1    0    0  501  502  0.00000000000E+00  0.00000000000E+00  0.36591351017E+03  0.36591351017E+03  0.00000000000E+00 0.  1.
         21   -1    0    0  502  503 -0.00000000000E+00 -0.00000000000E+00 -0.17855543542E+03  0.17855543542E+03  0.00000000000E+00 0.  1.
          6    1    1    2  501    0 -0.21290681286E+02  0.53162696788E+02  0.28457834031E+03  0.33792513552E+03  0.17300000000E+03 0.  1.
         -6    1    1    2    0  503  0.21290681286E+02 -0.53162696788E+02 -0.97220265569E+02  0.20654381007E+03  0.17300000000E+03 0.  1.
<mgrwt>
<rscale>  2 0.18223217E+03</rscale>
<asrwt>0</asrwt>
<pdfrwt beam="1">  1       21 0.56294386E-01 0.18223217E+03</pdfrwt>
<pdfrwt beam="2">  1       21 0.27470067E-01 0.18223217E+03</pdfrwt>
<totfact> 0.37734160E+04</totfact>
</mgrwt>
</event>
<event>
 4    1  0.4621995E+000  0.1830818E+03  0.7546771E-02  0.1164853E+00
         21   -1    0    0  503  502  0.00000000000E+00  0.00000000000E+00  0.10761769153E+04  0.10761769153E+04  0.00000000000E+00 0.  1.
         21   -1    0    0  501  503 -0.00000000000E+00 -0.00000000000E+00 -0.31984597741E+02  0.31984597741E+02  0.00000000000E+00 0.  1.
          6    1    1    2  501    0  0.12083000385E+02 -0.58685183958E+02  0.43239525963E+03  0.46955788809E+03  0.17300000000E+03 0. -1.
         -6    1    1    2    0  502 -0.12083000385E+02  0.58685183958E+02  0.61179705796E+03  0.63860362499E+03  0.17300000000E+03 0. -1.
<mgrwt>
<rscale>  2 0.18308181E+03</rscale>
<asrwt>0</asrwt>
<pdfrwt beam="1">  1       21 0.16556565E+00 0.18308181E+03</pdfrwt>
<pdfrwt beam="2">  1       21 0.49207082E-02 0.18308181E+03</pdfrwt>
<totfact> 0.63740104E+04</totfact>
</mgrwt>
</event>
<event>
 4    1  0.4621995E+000  0.2958037E+03  0.7546771E-02  0.1087357E+00
         21   -1    0    0  503  502  0.00000000000E+00  0.00000000000E+00  0.28735202617E+03  0.28735202617E+03  0.00000000000E+00 0. -1.
         21   -1    0    0  501  503 -0.00000000000E+00 -0.00000000000E+00 -0.96847658020E+03  0.96847658020E+03  0.00000000000E+00 0.  1.
          6    1    1    2  501    0 -0.22874326306E+03 -0.72438518390E+02 -0.86047555853E+03  0.90989999790E+03  0.17300000000E+03 0.  1.
         -6    1    1    2    0  502  0.22874326306E+03  0.72438518390E+02  0.17935100450E+03  0.34592860847E+03  0.17300000000E+03 0. -1.
<mgrwt>
<rscale>  2 0.29580368E+03</rscale>
<asrwt>0</asrwt>
<pdfrwt beam="1">  1       21 0.44208005E-01 0.29580368E+03</pdfrwt>
<pdfrwt beam="2">  1       21 0.14899639E+00 0.29580368E+03</pdfrwt>
<totfact> 0.13747021E+03</totfact>
</mgrwt>
</event>
<event>
 4    1  0.4621995E+000  0.2297185E+03  0.7546771E-02  0.1126838E+00
         21   -1    0    0  501  502  0.00000000000E+00  0.00000000000E+00  0.70991522037E+03  0.70991522037E+03  0.00000000000E+00 0.  1.
         21   -1    0    0  502  503 -0.00000000000E+00 -0.00000000000E+00 -0.87274826609E+02  0.87274826609E+02  0.00000000000E+00 0.  1.
          6    1    1    2  501    0 -0.66702619759E+02  0.13561843609E+03  0.46480805176E+03  0.51847577057E+03  0.17300000000E+03 0.  1.
         -6    1    1    2    0  503  0.66702619759E+02 -0.13561843609E+03  0.15783234200E+03  0.27871427641E+03  0.17300000000E+03 0.  1.
<mgrwt>
<rscale>  2 0.22971852E+03</rscale>
<asrwt>0</asrwt>
<pdfrwt beam="1">  1       21 0.10921772E+00 0.22971852E+03</pdfrwt>
<pdfrwt beam="2">  1       21 0.13426897E-01 0.22971852E+03</pdfrwt>
<totfact> 0.31223770E+04</totfact>
</mgrwt>
</event>
<event>
 4    1  0.4621995E+000  0.2597553E+03  0.7546771E-02  0.1107290E+00
         21   -1    0    0  503  502  0.00000000000E+00  0.00000000000E+00  0.44448743910E+02  0.44448743910E+02  0.00000000000E+00 0. -1.
         21   -1    0    0  501  503 -0.00000000000E+00 -0.00000000000E+00 -0.21209652669E+04  0.21209652669E+04  0.00000000000E+00 0.  1.
          6    1    1    2  501    0  0.16791618160E+03  0.96684891625E+02 -0.16155474218E+04  0.16362965148E+04  0.17300000000E+03 0.  1.
         -6    1    1    2    0  502 -0.16791618160E+03 -0.96684891625E+02 -0.46096910116E+03  0.52911749596E+03  0.17300000000E+03 0. -1.
<mgrwt>
<rscale>  2 0.25975529E+03</rscale>
<asrwt>0</asrwt>
<pdfrwt beam="1">  1       21 0.68382663E-02 0.25975529E+03</pdfrwt>
<pdfrwt beam="2">  1       21 0.32630244E+00 0.25975529E+03</pdfrwt>
<totfact> 0.35236405E+03</totfact>
</mgrwt>
</event>
<event>
 4    1  0.4621995E+000  0.1933553E+03  0.7546771E-02  0.1155469E+00
         21   -1    0    0  501  502  0.00000000000E+00  0.00000000000E+00  0.21964680866E+03  0.21964680866E+03  0.00000000000E+00 0. -1.
         21   -1    0    0  502  503 -0.00000000000E+00 -0.00000000000E+00 -0.23815341964E+03  0.23815341964E+03  0.00000000000E+00 0. -1.
          6    1    1    2  501    0 -0.14716184950E+02 -0.85092438548E+02  0.11300779569E+03  0.22395769932E+03  0.17300000000E+03 0. -1.
         -6    1    1    2    0  503  0.14716184950E+02  0.85092438548E+02 -0.13151440667E+03  0.23384252898E+03  0.17300000000E+03 0. -1.
<mgrwt>
<rscale>  2 0.19335534E+03</rscale>
<asrwt>0</asrwt>
<pdfrwt beam="1">  1       21 0.33791817E-01 0.19335534E+03</pdfrwt>
<pdfrwt beam="2">  1       21 0.36638987E-01 0.19335534E+03</pdfrwt>
<totfact> 0.60593909E+04</totfact>
</mgrwt>
</event>
<event>
 4    1  0.4621995E+000  0.1740954E+03  0.7546771E-02  0.1173643E+00
         21   -1    0    0  501  502  0.00000000000E+00  0.00000000000E+00  0.43773206054E+03  0.43773206054E+03  0.00000000000E+00 0. -1.
         21   -1    0    0  502  503 -0.00000000000E+00 -0.00000000000E+00 -0.10081375516E+03  0.10081375516E+03  0.00000000000E+00 0. -1.
          6    1    1    2  501    0  0.19056260862E+02 -0.41301260508E+01  0.31914968473E+03  0.36354603599E+03  0.17300000000E+03 0. -1.
         -6    1    1    2    0  503 -0.19056260862E+02  0.41301260508E+01  0.17768620645E+02  0.17499977971E+03  0.17300000000E+03 0. -1.
<mgrwt>
<rscale>  2 0.17409537E+03</rscale>
<asrwt>0</asrwt>
<pdfrwt beam="1">  1       21 0.67343393E-01 0.17409537E+03</pdfrwt>
<pdfrwt beam="2">  1       21 0.15509809E-01 0.17409537E+03</pdfrwt>
<totfact> 0.75052941E+04</totfact>
</mgrwt>
</event>
<event>
 4    1  0.4621995E+000  0.3059842E+03  0.7546771E-02  0.1082287E+00
         21   -1    0    0  501  502  0.00000000000E+00  0.00000000000E+00  0.82574428886E+03  0.82574428886E+03  0.00000000000E+00 0. -1.
         21   -1    0    0  502  503 -0.00000000000E+00 -0.00000000000E+00 -0.24105420709E+03  0.24105420709E+03  0.00000000000E+00 0.  1.
          6    1    1    2  501    0 -0.11060055132E+03  0.22685870549E+03  0.68053069851E+03  0.74615573832E+03  0.17300000000E+03 0. -1.
         -6    1    1    2    0  503  0.11060055132E+03 -0.22685870549E+03 -0.95840616743E+02  0.32064275764E+03  0.17300000000E+03 0.  1.
<mgrwt>
<rscale>  2 0.30598424E+03</rscale>
<asrwt>0</asrwt>
<pdfrwt beam="1">  1       21 0.12703758E+00 0.30598424E+03</pdfrwt>
<pdfrwt beam="2">  1       21 0.37085263E-01 0.30598424E+03</pdfrwt>
<totfact> 0.29660794E+03</totfact>
</mgrwt>
</event>
<event>
 4    1  0.4621995E+000  0.1842160E+03  0.7546771E-02  0.1163784E+00
         21   -1    0    0  501  502  0.00000000000E+00  0.00000000000E+00  0.72945479881E+03  0.72945479881E+03  0.00000000000E+00 0. -1.
         21   -1    0    0  502  503 -0.00000000000E+00 -0.00000000000E+00 -0.72131906012E+02  0.72131906012E+02  0.00000000000E+00 0. -1.
          6    1    1    2  501    0  0.41333733600E+02  0.47938009245E+02  0.56747706488E+03  0.59662865287E+03  0.17300000000E+03 0. -1.
         -6    1    1    2    0  503 -0.41333733600E+02 -0.47938009245E+02  0.89845827913E+02  0.20495805194E+03  0.17300000000E+03 0. -1.
<mgrwt>
<rscale>  2 0.18421599E+03</rscale>
<asrwt>0</asrwt>
<pdfrwt beam="1">  1       21 0.11222381E+00 0.18421599E+03</pdfrwt>
<pdfrwt beam="2">  1       21 0.11097217E-01 0.18421599E+03</pdfrwt>
<totfact> 0.42165627E+04</totfact>
</mgrwt>
</event>
<event>
 4    1  0.4621995E+000  0.1815958E+03  0.7546771E-02  0.1166268E+00
         21   -1    0    0  501  502  0.00000000000E+00  0.00000000000E+00  0.30071109639E+03  0.30071109639E+03  0.00000000000E+00 0.  1.
         21   -1    0    0  502  503 -0.00000000000E+00 -0.00000000000E+00 -0.11166106297E+03  0.11166106297E+03  0.00000000000E+00 0. -1.
          6    1    1    2  501    0 -0.54955989439E+02 -0.52781697007E+01  0.66947011616E+02  0.19354307586E+03  0.17300000000E+03 0. -1.
         -6    1    1    2    0  503  0.54955989439E+02  0.52781697007E+01  0.12210302180E+03  0.21882908350E+03  0.17300000000E+03 0.  1.
<mgrwt>
<rscale>  2 0.18159576E+03</rscale>
<asrwt>0</asrwt>
<pdfrwt beam="1">  1       21 0.46263245E-01 0.18159576E+03</pdfrwt>
<pdfrwt beam="2">  1       21 0.17178625E-01 0.18159576E+03</pdfrwt>
<totfact> 0.13749289E+05</totfact>
</mgrwt>
</event>
<event>
 4    1  0.4621995E+000  0.2145663E+03  0.7546771E-02  0.1138000E+00
         21   -1    0    0  503  502  0.00000000000E+00  0.00000000000E+00  0.33545405646E+02  0.33545405646E+02  0.00000000000E+00 0.  1.
         21   -1    0    0  501  503 -0.00000000000E+00 -0.00000000000E+00 -0.13755821293E+04  0.13755821293E+04  0.00000000000E+00 0.  1.
          6    1    1    2  501    0  0.91626665477E+02 -0.87830885170E+02 -0.70474719699E+03  0.73668671895E+03  0.17300000000E+03 0.  1.
         -6    1    1    2    0  502 -0.91626665477E+02  0.87830885170E+02 -0.63728952663E+03  0.67244081596E+03  0.17300000000E+03 0.  1.
<mgrwt>
<rscale>  2 0.21456633E+03</rscale>
<asrwt>0</asrwt>
<pdfrwt beam="1">  1       21 0.51608319E-02 0.21456633E+03</pdfrwt>
<pdfrwt beam="2">  1       21 0.21162801E+00 0.21456633E+03</pdfrwt>
<totfact> 0.28440099E+04</totfact>
</mgrwt>
</event>
<event>
 4    1  0.4621995E+000  0.1750291E+03  0.7546771E-02  0.1172702E+00
         21   -1    0    0  503  502  0.00000000000E+00  0.00000000000E+00  0.37328647818E+02  0.37328647818E+02  0.00000000000E+00 0. -1.
         21   -1    0    0  501  503 -0.00000000000E+00 -0.00000000000E+00 -0.11608848185E+04  0.11608848185E+04  0.00000000000E+00 0. -1.
          6    1    1    2  501    0  0.92501146617E+01  0.24912290768E+02 -0.88609867958E+03  0.90321982751E+03  0.17300000000E+03 0. -1.
         -6    1    1    2    0  502 -0.92501146617E+01 -0.24912290768E+02 -0.23745749106E+03  0.29499363876E+03  0.17300000000E+03 0. -1.
<mgrwt>
<rscale>  2 0.17502910E+03</rscale>
<asrwt>0</asrwt>
<pdfrwt beam="1">  1       21 0.57428689E-02 0.17502910E+03</pdfrwt>
<pdfrwt beam="2">  1       21 0.17859766E+00 0.17502910E+03</pdfrwt>
<totfact> 0.39983793E+04</totfact>
</mgrwt>
</event>
<event>
 4    1  0.4621995E+000  0.2783114E+03  0.7546771E-02  0.1096615E+00
         21   -1    0    0  503  502  0.00000000000E+00  0.00000000000E+00  0.33392478124E+03  0.33392478124E+03  0.00000000000E+00 0.  1.
         21   -1    0    0  501  503 -0.00000000000E+00 -0.00000000000E+00 -0.24525050369E+03  0.24525050369E+03  0.00000000000E+00 0. -1.
          6    1    1    2  501    0  0.15110149676E+03  0.15715141137E+03 -0.23075918308E+02  0.27926640762E+03  0.17300000000E+03 0. -1.
         -6    1    1    2    0  502 -0.15110149676E+03 -0.15715141137E+03  0.11175019585E+03  0.29990887731E+03  0.17300000000E+03 0.  1.
<mgrwt>
<rscale>  2 0.27831139E+03</rscale>
<asrwt>0</asrwt>
<pdfrwt beam="1">  1       21 0.51373043E-01 0.27831139E+03</pdfrwt>
<pdfrwt beam="2">  1       21 0.37730847E-01 0.27831139E+03</pdfrwt>
<totfact> 0.23374086E+04</totfact>
</mgrwt>
</event>
<event>
 4    1  0.4621995E+000  0.1837121E+03  0.7546771E-02  0.1164258E+00
         21   -1    0    0  501  502  0.00000000000E+00  0.00000000000E+00  0.57734202595E+03  0.57734202595E+03  0.00000000000E+00 0.  1.
         21   -1    0    0  502  503 -0.00000000000E+00 -0.00000000000E+00 -0.59165589655E+02  0.59165589655E+02  0.00000000000E+00 0. -1.
          6    1    1    2  501    0  0.42907339383E+02  0.44498310214E+02  0.29389740928E+03  0.34659172893E+03  0.17300000000E+03 0.  1.
         -6    1    1    2    0  503 -0.42907339383E+02 -0.44498310214E+02  0.22427902702E+03  0.28991588667E+03  0.17300000000E+03 0.  1.
<mgrwt>
<rscale>  2 0.18371211E+03</rscale>
<asrwt>0</asrwt>
<pdfrwt beam="1">  1       21 0.88821846E-01 0.18371211E+03</pdfrwt>
<pdfrwt beam="2">  1       21 0.91023988E-02 0.18371211E+03</pdfrwt>
<totfact> 0.10408354E+05</totfact>
</mgrwt>
</event>
<event>
 4    1  0.4621995E+000  0.1845726E+03  0.7546771E-02  0.1163450E+00
         21   -1    0    0  503  502  0.00000000000E+00  0.00000000000E+00  0.36729117108E+03  0.36729117108E+03  0.00000000000E+00 0.  1.
         21   -1    0    0  501  503 -0.00000000000E+00 -0.00000000000E+00 -0.95249979678E+02  0.95249979678E+02  0.00000000000E+00 0.  1.
          6    1    1    2  501    0  0.41903942181E+02  0.48806752222E+02  0.17347223666E+03  0.25329756479E+03  0.17300000000E+03 0.  1.
         -6    1    1    2    0  502 -0.41903942181E+02 -0.48806752222E+02  0.98568954738E+02  0.20924358597E+03  0.17300000000E+03 0.  1.
<mgrwt>
<rscale>  2 0.18457259E+03</rscale>
<asrwt>0</asrwt>
<pdfrwt beam="1">  1       21 0.56506333E-01 0.18457259E+03</pdfrwt>
<pdfrwt beam="2">  1       21 0.14653843E-01 0.18457259E+03</pdfrwt>
<totfact> 0.12090747E+05</totfact>
</mgrwt>
</event>
<event>
 4    1  0.4621995E+000  0.1834097E+03  0.7546771E-02  0.1164543E+00
         21   -1    0    0  503  502  0.00000000000E+00  0.00000000000E+00  0.34028442703E+03  0.34028442703E+03  0.00000000000E+00 0.  1.
         21   -1    0    0  501  503 -0.00000000000E+00 -0.00000000000E+00 -0.12151860169E+03  0.12151860169E+03  0.00000000000E+00 0. -1.
          6    1    1    2  501    0 -0.47250634929E+02 -0.38438181011E+02  0.96676957166E+01  0.18366431499E+03  0.17300000000E+03 0.  1.
         -6    1    1    2    0  502  0.47250634929E+02  0.38438181011E+02  0.20909812963E+03  0.27813871373E+03  0.17300000000E+03 0. -1.
<mgrwt>
<rscale>  2 0.18340970E+03</rscale>
<asrwt>0</asrwt>
<pdfrwt beam="1">  1       21 0.52351450E-01 0.18340970E+03</pdfrwt>
<pdfrwt beam="2">  1       21 0.18695170E-01 0.18340970E+03</pdfrwt>
<totfact> 0.90914591E+04</totfact>
</mgrwt>
</event>
<event>
 4    1  0.4621995E+000  0.2185194E+03  0.7546771E-02  0.1134992E+00
         21   -1    0    0  503  502  0.00000000000E+00  0.00000000000E+00  0.20912665593E+03  0.20912665593E+03  0.00000000000E+00 0. -1.
         21   -1    0    0  501  503 -0.00000000000E+00 -0.00000000000E+00 -0.23823275669E+03  0.23823275669E+03  0.00000000000E+00 0. -1.
          6    1    1    2  501    0  0.11470724870E+02  0.13300425727E+03 -0.60148114992E+02  0.22664621267E+03  0.17300000000E+03 0. -1.
         -6    1    1    2    0  502 -0.11470724870E+02 -0.13300425727E+03  0.31042014231E+02  0.22071319994E+03  0.17300000000E+03 0. -1.
<mgrwt>
<rscale>  2 0.21851936E+03</rscale>
<asrwt>0</asrwt>
<pdfrwt beam="1">  1       21 0.32173332E-01 0.21851936E+03</pdfrwt>
<pdfrwt beam="2">  1       21 0.36651193E-01 0.21851936E+03</pdfrwt>
<totfact> 0.65961540E+04</totfact>
</mgrwt>
</event>
<event>
 4    1  0.4621995E+000  0.2212395E+03  0.7546771E-02  0.1132962E+00
         21   -1    0    0  501  502  0.00000000000E+00  0.00000000000E+00  0.16115021202E+03  0.16115021202E+03  0.00000000000E+00 0.  1.
         21   -1    0    0  502  503 -0.00000000000E+00 -0.00000000000E+00 -0.48351457124E+03  0.48351457124E+03  0.00000000000E+00 0.  1.
          6    1    1    2  501    0  0.39011556506E+02 -0.13227247248E+03  0.35366314474E+02  0.22404839816E+03  0.17300000000E+03 0.  1.
         -6    1    1    2    0  503 -0.39011556506E+02  0.13227247248E+03 -0.35773067369E+03  0.42061638510E+03  0.17300000000E+03 0.  1.
<mgrwt>
<rscale>  2 0.22123948E+03</rscale>
<asrwt>0</asrwt>
<pdfrwt beam="1">  1       21 0.24792341E-01 0.22123948E+03</pdfrwt>
<pdfrwt beam="2">  1       21 0.74386857E-01 0.22123948E+03</pdfrwt>
<totfact> 0.24522956E+04</totfact>
</mgrwt>
</event>
<event>
 4    1  0.4621995E+000  0.1994241E+03  0.7546771E-02  0.1150226E+00
         21   -1    0    0  503  502  0.00000000000E+00  0.00000000000E+00  0.16295259839E+03  0.16295259839E+03  0.00000000000E+00 0.  1.
         21   -1    0    0  501  503 -0.00000000000E+00 -0.00000000000E+00 -0.24441583494E+03  0.24441583494E+03  0.00000000000E+00 0.  1.
          6    1    1    2  501    0 -0.80647204608E+02  0.57766721289E+02 -0.48519768291E+02  0.20524164688E+03  0.17300000000E+03 0.  1.
         -6    1    1    2    0  502  0.80647204608E+02 -0.57766721289E+02 -0.32943468259E+02  0.20212678645E+03  0.17300000000E+03 0.  1.
<mgrwt>
<rscale>  2 0.19942409E+03</rscale>
<asrwt>0</asrwt>
<pdfrwt beam="1">  1       21 0.25069631E-01 0.19942409E+03</pdfrwt>
<pdfrwt beam="2">  1       21 0.37602436E-01 0.19942409E+03</pdfrwt>
<totfact> 0.10248955E+05</totfact>
</mgrwt>
</event>
<event>
 4    1  0.4621995E+000  0.1845259E+03  0.7546771E-02  0.1163493E+00
         21   -1    0    0  503  502  0.00000000000E+00  0.00000000000E+00  0.77068414644E+02  0.77068414644E+02  0.00000000000E+00 0.  1.
         21   -1    0    0  501  503 -0.00000000000E+00 -0.00000000000E+00 -0.48813581088E+03  0.48813581088E+03  0.00000000000E+00 0.  1.
          6    1    1    2  501    0 -0.19958025954E+01  0.64162614207E+02 -0.29259050138E+03  0.34591765752E+03  0.17300000000E+03 0.  1.
         -6    1    1    2    0  502  0.19958025954E+01 -0.64162614207E+02 -0.11847689486E+03  0.21928656800E+03  0.17300000000E+03 0.  1.
<mgrwt>
<rscale>  2 0.18452594E+03</rscale>
<asrwt>0</asrwt>
<pdfrwt beam="1">  1       21 0.11856679E-01 0.18452594E+03</pdfrwt>
<pdfrwt beam="2">  1       21 0.75097816E-01 0.18452594E+03</pdfrwt>
<totfact> 0.95354919E+04</totfact>
</mgrwt>
</event>
<event>
 4    1  0.4621995E+000  0.2197009E+03  0.7546771E-02  0.1134106E+00
         21   -1    0    0  501  502  0.00000000000E+00  0.00000000000E+00  0.15926287296E+03  0.15926287296E+03  0.00000000000E+00 0. -1.
         21   -1    0    0  502  503 -0.00000000000E+00 -0.00000000000E+00 -0.30434988921E+03  0.30434988921E+03  0.00000000000E+00 0. -1.
          6    1    1    2  501    0 -0.42304837953E+02 -0.12864598762E+03 -0.87550309461E+02  0.23650274022E+03  0.17300000000E+03 0. -1.
         -6    1    1    2    0  503  0.42304837953E+02  0.12864598762E+03 -0.57536706788E+02  0.22711002196E+03  0.17300000000E+03 0. -1.
<mgrwt>
<rscale>  2 0.21970091E+03</rscale>
<asrwt>0</asrwt>
<pdfrwt beam="1">  1       21 0.24501980E-01 0.21970091E+03</pdfrwt>
<pdfrwt beam="2">  1       21 0.46823060E-01 0.21970091E+03</pdfrwt>
<totfact> 0.67915570E+04</totfact>
</mgrwt>
</event>
<event>
 4    1  0.4621995E+000  0.1835114E+03  0.7546771E-02  0.1164447E+00
         21   -1    0    0  501  502  0.00000000000E+00  0.00000000000E+00  0.78831361360E+02  0.78831361360E+02  0.00000000000E+00 0. -1.
         21   -1    0    0  502  503 -0.00000000000E+00 -0.00000000000E+00 -0.58283034650E+03  0.58283034650E+03  0.00000000000E+00 0. -1.
          6    1    1    2  501    0  0.34391315849E+02  0.50642691693E+02 -0.81042210244E+02  0.20060978209E+03  0.17300000000E+03 0. -1.
         -6    1    1    2    0  503 -0.34391315849E+02 -0.50642691693E+02 -0.42295677490E+03  0.46105192577E+03  0.17300000000E+03 0. -1.
<mgrwt>
<rscale>  2 0.18351143E+03</rscale>
<asrwt>0</asrwt>
<pdfrwt beam="1">  1       21 0.12127902E-01 0.18351143E+03</pdfrwt>
<pdfrwt beam="2">  1       21 0.89666204E-01 0.18351143E+03</pdfrwt>
<totfact> 0.61272139E+04</totfact>
</mgrwt>
</event>
<event>
 4    1  0.4621995E+000  0.1960464E+03  0.7546771E-02  0.1153118E+00
         21   -1    0    0  501  502  0.00000000000E+00  0.00000000000E+00  0.88838860871E+03  0.88838860871E+03  0.00000000000E+00 0.  1.
         21   -1    0    0  502  503 -0.00000000000E+00 -0.00000000000E+00 -0.81421751033E+02  0.81421751033E+02  0.00000000000E+00 0.  1.
          6    1    1    2  501    0  0.78577701800E+02 -0.48277507823E+02  0.73544274011E+03  0.76112429798E+03  0.17300000000E+03 0.  1.
         -6    1    1    2    0  503 -0.78577701800E+02  0.48277507823E+02  0.71524117558E+02  0.20868606176E+03  0.17300000000E+03 0.  1.
<mgrwt>
<rscale>  2 0.19604635E+03</rscale>
<asrwt>0</asrwt>
<pdfrwt beam="1">  1       21 0.13667516E+00 0.19604635E+03</pdfrwt>
<pdfrwt beam="2">  1       21 0.12526424E-01 0.19604635E+03</pdfrwt>
<totfact> 0.20639612E+04</totfact>
</mgrwt>
</event>
<event>
 4    1  0.4621995E+000  0.1819176E+03  0.7546771E-02  0.1165960E+00
         21   -1    0    0  501  502  0.00000000000E+00  0.00000000000E+00  0.76295460682E+02  0.76295460682E+02  0.00000000000E+00 0. -1.
         21   -1    0    0  502  503 -0.00000000000E+00 -0.00000000000E+00 -0.21202349730E+04  0.21202349730E+04  0.00000000000E+00 0. -1.
          6    1    1    2  501    0 -0.67216202318E+01  0.55855608873E+02 -0.42468501253E+02  0.18680900091E+03  0.17300000000E+03 0. -1.
         -6    1    1    2    0  503  0.67216202318E+01 -0.55855608873E+02 -0.20014710111E+04  0.20097214328E+04  0.17300000000E+03 0. -1.
<mgrwt>
<rscale>  2 0.18191764E+03</rscale>
<asrwt>0</asrwt>
<pdfrwt beam="1">  1       21 0.11737763E-01 0.18191764E+03</pdfrwt>
<pdfrwt beam="2">  1       21 0.32618999E+00 0.18191764E+03</pdfrwt>
<totfact> 0.14935350E+03</totfact>
</mgrwt>
</event>
<event>
 4    1  0.4621995E+000  0.1942052E+03  0.7546771E-02  0.1154722E+00
         21   -1    0    0  503  502  0.00000000000E+00  0.00000000000E+00  0.56730079286E+03  0.56730079286E+03  0.00000000000E+00 0.  1.
         21   -1    0    0  501  503 -0.00000000000E+00 -0.00000000000E+00 -0.14865452343E+03  0.14865452343E+03  0.00000000000E+00 0.  1.
          6    1    1    2  501    0  0.87691913024E+02 -0.98371605667E+01 -0.56828133283E+02  0.20234890183E+03  0.17300000000E+03 0.  1.
         -6    1    1    2    0  502 -0.87691913024E+02  0.98371605667E+01  0.47547440272E+03  0.51360641446E+03  0.17300000000E+03 0.  1.
<mgrwt>
<rscale>  2 0.19420515E+03</rscale>
<asrwt>0</asrwt>
<pdfrwt beam="1">  1       21 0.87277044E-01 0.19420515E+03</pdfrwt>
<pdfrwt beam="2">  1       21 0.22869927E-01 0.19420515E+03</pdfrwt>
<totfact> 0.20213679E+04</totfact>
</mgrwt>
</event>
<event>
 4    1  0.4621995E+000  0.1786790E+03  0.7546771E-02  0.1169088E+00
         21   -1    0    0  503  502  0.00000000000E+00  0.00000000000E+00  0.20708701666E+03  0.20708701666E+03  0.00000000000E+00 0.  1.
         21   -1    0    0  501  503 -0.00000000000E+00 -0.00000000000E+00 -0.16090025533E+03  0.16090025533E+03  0.00000000000E+00 0.  1.
          6    1    1    2  501    0  0.31993302231E+02 -0.31202795232E+02 -0.14542801373E+02  0.17926984936E+03  0.17300000000E+03 0. -1.
         -6    1    1    2    0  502 -0.31993302231E+02  0.31202795232E+02  0.60729562709E+02  0.18871742263E+03  0.17300000000E+03 0. -1.
<mgrwt>
<rscale>  2 0.17867900E+03</rscale>
<asrwt>0</asrwt>
<pdfrwt beam="1">  1       21 0.31859541E-01 0.17867900E+03</pdfrwt>
<pdfrwt beam="2">  1       21 0.24753885E-01 0.17867900E+03</pdfrwt>
<totfact> 0.14689506E+05</totfact>
</mgrwt>
</event>
<event>
 4    1  0.4621995E+000  0.2140479E+03  0.7546771E-02  0.1138400E+00
         21   -1    0    0  503  502  0.00000000000E+00  0.00000000000E+00  0.52002041523E+03  0.52002041523E+03  0.00000000000E+00 0. -1.
         21   -1    0    0  501  503 -0.00000000000E+00 -0.00000000000E+00 -0.92650534822E+02  0.92650534822E+02  0.00000000000E+00 0.  1.
          6    1    1    2  501    0 -0.92711903953E+02 -0.85393203074E+02  0.14583384570E+03  0.25900580460E+03  0.17300000000E+03 0.  1.
         -6    1    1    2    0  502  0.92711903953E+02  0.85393203074E+02  0.28153603471E+03  0.35366514545E+03  0.17300000000E+03 0. -1.
<mgrwt>
<rscale>  2 0.21404788E+03</rscale>
<asrwt>0</asrwt>
<pdfrwt beam="1">  1       21 0.80003139E-01 0.21404788E+03</pdfrwt>
<pdfrwt beam="2">  1       21 0.14253929E-01 0.21404788E+03</pdfrwt>
<totfact> 0.58592888E+04</totfact>
</mgrwt>
</event>
<event>
 4    1  0.4621995E+000  0.2616852E+03  0.7546771E-02  0.1106135E+00
         21   -1    0    0  503  502  0.00000000000E+00  0.00000000000E+00  0.17058316035E+03  0.17058316035E+03  0.00000000000E+00 0.  1.
         21   -1    0    0  501  503 -0.00000000000E+00 -0.00000000000E+00 -0.40212185765E+03  0.40212185765E+03  0.00000000000E+00 0.  1.
          6    1    1    2  501    0 -0.13309706733E+03 -0.14434447854E+03 -0.12754796920E+03  0.29111448309E+03  0.17300000000E+03 0.  1.
         -6    1    1    2    0  502  0.13309706733E+03  0.14434447854E+03 -0.10399072810E+03  0.28159053491E+03  0.17300000000E+03 0.  1.
<mgrwt>
<rscale>  2 0.26168523E+03</rscale>
<asrwt>0</asrwt>
<pdfrwt beam="1">  1       21 0.26243563E-01 0.26168523E+03</pdfrwt>
<pdfrwt beam="2">  1       21 0.61864901E-01 0.26168523E+03</pdfrwt>
<totfact> 0.32388242E+04</totfact>
</mgrwt>
</event>
<event>
 4    1  0.4621995E+000  0.2149498E+03  0.7546771E-02  0.1137705E+00
         21   -1    0    0  503  502  0.00000000000E+00  0.00000000000E+00  0.13320511743E+03  0.13320511743E+03  0.00000000000E+00 0. -1.
         21   -1    0    0  501  503 -0.00000000000E+00 -0.00000000000E+00 -0.87033926336E+03  0.87033926336E+03  0.00000000000E+00 0. -1.
          6    1    1    2  501    0 -0.86721906283E+02  0.93561418503E+02  0.20578728592E+02  0.21593265647E+03  0.17300000000E+03 0. -1.
         -6    1    1    2    0  502  0.86721906283E+02 -0.93561418503E+02 -0.75771287452E+03  0.78761172431E+03  0.17300000000E+03 0. -1.
<mgrwt>
<rscale>  2 0.21494983E+03</rscale>
<asrwt>0</asrwt>
<pdfrwt beam="1">  1       21 0.20493095E-01 0.21494983E+03</pdfrwt>
<pdfrwt beam="2">  1       21 0.13389835E+00 0.21494983E+03</pdfrwt>
<totfact> 0.87026437E+03</totfact>
</mgrwt>
</event>
<event>
 4    1  0.4621995E+000  0.1843764E+03  0.7546771E-02  0.1163634E+00
         21   -1    0    0  501  502  0.00000000000E+00  0.00000000000E+00  0.63119631707E+02  0.63119631707E+02  0.00000000000E+00 0.  1.
         21   -1    0    0  502  503 -0.00000000000E+00 -0.00000000000E+00 -0.99775746135E+03  0.99775746135E+03  0.00000000000E+00 0.  1.
          6    1    1    2  501    0 -0.50949359491E+02  0.38338171046E+02 -0.10747409678E+03  0.21341352832E+03  0.17300000000E+03 0.  1.
         -6    1    1    2    0  503  0.50949359491E+02 -0.38338171046E+02 -0.82716373286E+03  0.84746356474E+03  0.17300000000E+03 0.  1.
<mgrwt>
<rscale>  2 0.18437639E+03</rscale>
<asrwt>0</asrwt>
<pdfrwt beam="1">  1       21 0.97107129E-02 0.18437639E+03</pdfrwt>
<pdfrwt beam="2">  1       21 0.15350114E+00 0.18437639E+03</pdfrwt>
<totfact> 0.24164765E+04</totfact>
</mgrwt>
</event>
<event>
 4    1  0.4621995E+000  0.2238274E+03  0.7546771E-02  0.1131061E+00
         21   -1    0    0  501  502  0.00000000000E+00  0.00000000000E+00  0.15587918838E+04  0.15587918838E+04  0.00000000000E+00 0. -1.
         21   -1    0    0  502  503 -0.00000000000E+00 -0.00000000000E+00 -0.42202074117E+02  0.42202074117E+02  0.00000000000E+00 0.  1.
          6    1    1    2  501    0  0.10851103829E+03 -0.91624584714E+02  0.11491794304E+04  0.11707741341E+04  0.17300000000E+03 0. -1.
         -6    1    1    2    0  503 -0.10851103829E+03  0.91624584714E+02  0.36741037929E+03  0.43021982377E+03  0.17300000000E+03 0.  1.
<mgrwt>
<rscale>  2 0.22382741E+03</rscale>
<asrwt>0</asrwt>
<pdfrwt beam="1">  1       21 0.23981409E+00 0.22382741E+03</pdfrwt>
<pdfrwt beam="2">  1       21 0.64926280E-02 0.22382741E+03</pdfrwt>
<totfact> 0.12807377E+04</totfact>
</mgrwt>
</event>
<event>
 4    1  0.4621995E+000  0.1794087E+03  0.7546771E-02  0.1168377E+00
         21   -1    0    0  503  502  0.00000000000E+00  0.00000000000E+00  0.53854196252E+02  0.53854196252E+02  0.00000000000E+00 0.  1.
         21   -1    0    0  501  503 -0.00000000000E+00 -0.00000000000E+00 -0.92371816172E+03  0.92371816172E+03  0.00000000000E+00 0. -1.
          6    1    1    2  501    0 -0.47251394593E+02 -0.50772122242E+01 -0.72532400127E+03  0.74718296233E+03  0.17300000000E+03 0. -1.
         -6    1    1    2    0  502  0.47251394593E+02  0.50772122242E+01 -0.14453996420E+03  0.23038939564E+03  0.17300000000E+03 0.  1.
<mgrwt>
<rscale>  2 0.17940867E+03</rscale>
<asrwt>0</asrwt>
<pdfrwt beam="1">  1       21 0.82852611E-02 0.17940867E+03</pdfrwt>
<pdfrwt beam="2">  1       21 0.14211048E+00 0.17940867E+03</pdfrwt>
<totfact> 0.39161898E+04</totfact>
</mgrwt>
</event>
<event>
 4    1  0.4621995E+000  0.1799057E+03  0.7546771E-02  0.1167894E+00
         21   -1    0    0  501  502  0.00000000000E+00  0.00000000000E+00  0.57564156294E+03  0.57564156294E+03  0.00000000000E+00 0. -1.
         21   -1    0    0  502  503 -0.00000000000E+00 -0.00000000000E+00 -0.88391823470E+02  0.88391823470E+02  0.00000000000E+00 0. -1.
          6    1    1    2  501    0 -0.17517080363E+02 -0.46154091112E+02  0.44391101526E+03  0.47898124985E+03  0.17300000000E+03 0. -1.
         -6    1    1    2    0  503  0.17517080363E+02  0.46154091112E+02  0.43338724206E+02  0.18505213656E+03  0.17300000000E+03 0. -1.
<mgrwt>
<rscale>  2 0.17990566E+03</rscale>
<asrwt>0</asrwt>
<pdfrwt beam="1">  1       21 0.88560238E-01 0.17990566E+03</pdfrwt>
<pdfrwt beam="2">  1       21 0.13598742E-01 0.17990566E+03</pdfrwt>
<totfact> 0.51423509E+04</totfact>
</mgrwt>
</event>
<event>
 4    1  0.4621995E+000  0.2132560E+03  0.7546771E-02  0.1139013E+00
         21   -1    0    0  501  502  0.00000000000E+00  0.00000000000E+00  0.85594096049E+02  0.85594096049E+02  0.00000000000E+00 0. -1.
         21   -1    0    0  502  503 -0.00000000000E+00 -0.00000000000E+00 -0.10475892638E+04  0.10475892638E+04  0.00000000000E+00 0.  1.
          6    1    1    2  501    0 -0.29864601451E+02 -0.12106700331E+03 -0.83246348078E+02  0.22892808517E+03  0.17300000000E+03 0.  1.
         -6    1    1    2    0  503  0.29864601451E+02  0.12106700331E+03 -0.87874881965E+03  0.90425527466E+03  0.17300000000E+03 0.  1.
<mgrwt>
<rscale>  2 0.21325598E+03</rscale>
<asrwt>0</asrwt>
<pdfrwt beam="1">  1       21 0.13168322E-01 0.21325598E+03</pdfrwt>
<pdfrwt beam="2">  1       21 0.16116759E+00 0.21325598E+03</pdfrwt>
<totfact> 0.12073571E+04</totfact>
</mgrwt>
</event>
<event>
 4    1  0.4621995E+000  0.1928123E+03  0.7546771E-02  0.1155949E+00
         21   -1    0    0  501  502  0.00000000000E+00  0.00000000000E+00  0.76471220367E+02  0.76471220367E+02  0.00000000000E+00 0. -1.
         21   -1    0    0  502  503 -0.00000000000E+00 -0.00000000000E+00 -0.48949758471E+03  0.48949758471E+03  0.00000000000E+00 0. -1.
          6    1    1    2  501    0  0.43338553479E+02  0.73275975613E+02 -0.18311643904E+03  0.26591018985E+03  0.17300000000E+03 0. -1.
         -6    1    1    2    0  503 -0.43338553479E+02 -0.73275975613E+02 -0.22990992530E+03  0.30005861523E+03  0.17300000000E+03 0. -1.
<mgrwt>
<rscale>  2 0.19281234E+03</rscale>
<asrwt>0</asrwt>
<pdfrwt beam="1">  1       21 0.11764803E-01 0.19281234E+03</pdfrwt>
<pdfrwt beam="2">  1       21 0.75307321E-01 0.19281234E+03</pdfrwt>
<totfact> 0.95781653E+04</totfact>
</mgrwt>
</event>
<event>
 4    1  0.4621995E+000  0.1952137E+03  0.7546771E-02  0.1153841E+00
         21   -1    0    0  503  502  0.00000000000E+00  0.00000000000E+00  0.42069037849E+03  0.42069037849E+03  0.00000000000E+00 0. -1.
         21   -1    0    0  501  503 -0.00000000000E+00 -0.00000000000E+00 -0.13728902884E+03  0.13728902884E+03  0.00000000000E+00 0. -1.
          6    1    1    2  501    0 -0.90168539248E+02  0.70007694762E+01 -0.21021186536E+02  0.19634221789E+03  0.17300000000E+03 0. -1.
         -6    1    1    2    0  502  0.90168539248E+02 -0.70007694762E+01  0.30442253619E+03  0.36163718944E+03  0.17300000000E+03 0. -1.
<mgrwt>
<rscale>  2 0.19521367E+03</rscale>
<asrwt>0</asrwt>
<pdfrwt beam="1">  1       21 0.64721596E-01 0.19521367E+03</pdfrwt>
<pdfrwt beam="2">  1       21 0.21121389E-01 0.19521367E+03</pdfrwt>
<totfact> 0.45792437E+04</totfact>
</mgrwt>
</event>
<event>
 4    1  0.4621995E+000  0.1733772E+03  0.7546771E-02  0.1174371E+00
         21   -1    0    0  503  502  0.00000000000E+00  0.00000000000E+00  0.11915021057E+03  0.11915021057E+03  0.00000000000E+00 0. -1.
         21   -1    0    0  501  503 -0.00000000000E+00 -0.00000000000E+00 -0.26336009936E+03  0.26336009936E+03  0.00000000000E+00 0. -1.
          6    1    1    2  501    0  0.11321751244E+02 -0.15680380581E+01 -0.11132786803E+03  0.20604255627E+03  0.17300000000E+03 0. -1.
         -6    1    1    2    0  502 -0.11321751244E+02  0.15680380581E+01 -0.32882020758E+02  0.17646775367E+03  0.17300000000E+03 0. -1.
<mgrwt>
<rscale>  2 0.17337716E+03</rscale>
<asrwt>0</asrwt>
<pdfrwt beam="1">  1       21 0.18330802E-01 0.17337716E+03</pdfrwt>
<pdfrwt beam="2">  1       21 0.40516938E-01 0.17337716E+03</pdfrwt>
<totfact> 0.16029762E+05</totfact>
</mgrwt>
</event>
<event>
 4    1  0.4621995E+000  0.3284681E+03  0.7546771E-02  0.1071817E+00
         21   -1    0    0  501  502  0.00000000000E+00  0.00000000000E+00  0.81638506401E+02  0.81638506401E+02  0.00000000000E+00 0. -1.
         21   -1    0    0  502  503 -0.00000000000E+00 -0.00000000000E+00 -0.17671934290E+04  0.17671934290E+04  0.00000000000E+00 0.  1.
          6    1    1    2  501    0 -0.24057623379E+03  0.14172280517E+03 -0.37857466738E+03  0.50120859585E+03  0.17300000000E+03 0. -1.
         -6    1    1    2    0  503  0.24057623379E+03 -0.14172280517E+03 -0.13069802552E+04  0.13476233395E+04  0.17300000000E+03 0.  1.
<mgrwt>
<rscale>  2 0.32846808E+03</rscale>
<asrwt>0</asrwt>
<pdfrwt beam="1">  1       21 0.12559770E-01 0.32846808E+03</pdfrwt>
<pdfrwt beam="2">  1       21 0.27187592E+00 0.32846808E+03</pdfrwt>
<totfact> 0.23762891E+03</totfact>
</mgrwt>
</event>
<event>
 4    1  0.4621995E+000  0.2449314E+03  0.7546771E-02  0.1116551E+00
         21   -1    0    0  501  502  0.00000000000E+00  0.00000000000E+00  0.23329326000E+04  0.23329326000E+04  0.00000000000E+00 0. -1.
         21   -1    0    0  502  503 -0.00000000000E+00 -0.00000000000E+00 -0.33791763834E+02  0.33791763834E+02  0.00000000000E+00 0.  1.
          6    1    1    2  501    0  0.10178194808E+03 -0.14036679158E+03  0.17281065588E+04  0.17453778043E+04  0.17300000000E+03 0.  1.
         -6    1    1    2    0  503 -0.10178194808E+03  0.14036679158E+03  0.57103427738E+03  0.62134655956E+03  0.17300000000E+03 0.  1.
<mgrwt>
<rscale>  2 0.24493142E+03</rscale>
<asrwt>0</asrwt>
<pdfrwt beam="1">  1       21 0.35891258E+00 0.24493142E+03</pdfrwt>
<pdfrwt beam="2">  1       21 0.51987348E-02 0.24493142E+03</pdfrwt>
<totfact> 0.36658765E+03</totfact>
</mgrwt>
</event>
<event>
 4    1  0.4621995E+000  0.2204729E+03  0.7546771E-02  0.1133531E+00
         21   -1    0    0  503  502  0.00000000000E+00  0.00000000000E+00  0.11924714105E+02  0.11924714105E+02  0.00000000000E+00 0.  1.
         21   -1    0    0  501  503 -0.00000000000E+00 -0.00000000000E+00 -0.42764167128E+04  0.42764167128E+04  0.00000000000E+00 0.  1.
          6    1    1    2  501    0  0.10549232551E+02 -0.13626444842E+03 -0.16683722650E+04  0.16828767932E+04  0.17300000000E+03 0.  1.
         -6    1    1    2    0  502 -0.10549232551E+02  0.13626444842E+03 -0.25961197336E+04  0.26054646337E+04  0.17300000000E+03 0.  1.
<mgrwt>
<rscale>  2 0.22047287E+03</rscale>
<asrwt>0</asrwt>
<pdfrwt beam="1">  1       21 0.18345672E-02 0.22047287E+03</pdfrwt>
<pdfrwt beam="2">  1       21 0.65791177E+00 0.22047287E+03</pdfrwt>
<totfact> 0.15710329E+02</totfact>
</mgrwt>
</event>
<event>
 4    1  0.4621995E+000  0.2055005E+03  0.7546771E-02  0.1145179E+00
         21   -1    0    0  503  502  0.00000000000E+00  0.00000000000E+00  0.18615262500E+03  0.18615262500E+03  0.00000000000E+00 0. -1.
         21   -1    0    0  501  503 -0.00000000000E+00 -0.00000000000E+00 -0.23468378011E+03  0.23468378011E+03  0.00000000000E+00 0. -1.
          6    1    1    2  501    0 -0.53090190135E+02 -0.97380150541E+02 -0.62686549796E+02  0.21484893654E+03  0.17300000000E+03 0. -1.
         -6    1    1    2    0  502  0.53090190135E+02  0.97380150541E+02  0.14155394692E+02  0.20598746857E+03  0.17300000000E+03 0. -1.
<mgrwt>
<rscale>  2 0.20550052E+03</rscale>
<asrwt>0</asrwt>
<pdfrwt beam="1">  1       21 0.28638865E-01 0.20550052E+03</pdfrwt>
<pdfrwt beam="2">  1       21 0.36105197E-01 0.20550052E+03</pdfrwt>
<totfact> 0.85811605E+04</totfact>
</mgrwt>
</event>
<event>
 4    1  0.4621995E+000  0.2500982E+03  0.7546771E-02  0.1113243E+00
         21   -1    0    0  503  502  0.00000000000E+00  0.00000000000E+00  0.27265255599E+03  0.27265255599E+03  0.00000000000E+00 0.  1.
         21   -1    0    0  501  503 -0.00000000000E+00 -0.00000000000E+00 -0.24949682342E+03  0.24949682342E+03  0.00000000000E+00 0. -1.
          6    1    1    2  501    0 -0.16715041600E+03 -0.68416836724E+02 -0.62500563285E+02  0.25778953727E+03  0.17300000000E+03 0.  1.
         -6    1    1    2    0  502  0.16715041600E+03  0.68416836724E+02  0.85656295850E+02  0.26435984214E+03  0.17300000000E+03 0. -1.
<mgrwt>
<rscale>  2 0.25009823E+03</rscale>
<asrwt>0</asrwt>
<pdfrwt beam="1">  1       21 0.41946547E-01 0.25009823E+03</pdfrwt>
<pdfrwt beam="2">  1       21 0.38384127E-01 0.25009823E+03</pdfrwt>
<totfact> 0.34824421E+04</totfact>
</mgrwt>
</event>
<event>
 4    1  0.4621995E+000  0.1809683E+03  0.7546771E-02  0.1166869E+00
         21   -1    0    0  503  502  0.00000000000E+00  0.00000000000E+00  0.12950299373E+04  0.12950299373E+04  0.00000000000E+00 0.  1.
         21   -1    0    0  501  503 -0.00000000000E+00 -0.00000000000E+00 -0.25313165409E+02  0.25313165409E+02  0.00000000000E+00 0.  1.
          6    1    1    2  501    0  0.32893032050E+02  0.41696031063E+02  0.61429791898E+03  0.64039944084E+03  0.17300000000E+03 0. -1.
         -6    1    1    2    0  502 -0.32893032050E+02 -0.41696031063E+02  0.65541885290E+03  0.67994366185E+03  0.17300000000E+03 0. -1.
<mgrwt>
<rscale>  2 0.18096826E+03</rscale>
<asrwt>0</asrwt>
<pdfrwt beam="1">  1       21 0.19923532E+00 0.18096826E+03</pdfrwt>
<pdfrwt beam="2">  1       21 0.38943341E-02 0.18096826E+03</pdfrwt>
<totfact> 0.56073180E+04</totfact>
</mgrwt>
</event>
<event>
 4    1  0.4621995E+000  0.1802005E+03  0.7546771E-02  0.1167609E+00
         21   -1    0    0  503  502  0.00000000000E+00  0.00000000000E+00  0.74833090952E+03  0.74833090952E+03  0.00000000000E+00 0. -1.
         21   -1    0    0  501  503 -0.00000000000E+00 -0.00000000000E+00 -0.74611246360E+02  0.74611246360E+02  0.00000000000E+00 0.  1.
          6    1    1    2  501    0  0.33694257065E+02 -0.37522228737E+02  0.70700086523E+02  0.19357355926E+03  0.17300000000E+03 0.  1.
         -6    1    1    2    0  502 -0.33694257065E+02  0.37522228737E+02  0.60301957664E+03  0.62936859663E+03  0.17300000000E+03 0. -1.
<mgrwt>
<rscale>  2 0.18020050E+03</rscale>
<asrwt>0</asrwt>
<pdfrwt beam="1">  1       21 0.11512783E+00 0.18020050E+03</pdfrwt>
<pdfrwt beam="2">  1       21 0.11478654E-01 0.18020050E+03</pdfrwt>
<totfact> 0.37398838E+04</totfact>
</mgrwt>
</event>
<event>
 4    1  0.4621995E+000  0.1976824E+03  0.7546771E-02  0.1151709E+00
         21   -1    0    0  503  502  0.00000000000E+00  0.00000000000E+00  0.12020610908E+04  0.12020610908E+04  0.00000000000E+00 0.  1.
         21   -1    0    0  501  503 -0.00000000000E+00 -0.00000000000E+00 -0.32754651586E+02  0.32754651586E+02  0.00000000000E+00 0. -1.
          6    1    1    2  501    0 -0.79890984405E+02 -0.52600087048E+02  0.63807298912E+03  0.66799362122E+03  0.17300000000E+03 0. -1.
         -6    1    1    2    0  502  0.79890984405E+02  0.52600087048E+02  0.53123345014E+03  0.56682212121E+03  0.17300000000E+03 0. -1.
<mgrwt>
<rscale>  2 0.19768242E+03</rscale>
<asrwt>0</asrwt>
<pdfrwt beam="1">  1       21 0.18493244E+00 0.19768242E+03</pdfrwt>
<pdfrwt beam="2">  1       21 0.50391781E-02 0.19768242E+03</pdfrwt>
<totfact> 0.44593957E+04</totfact>
</mgrwt>
</event>
<event>
 4    1  0.4621995E+000  0.4498153E+03  0.7546771E-02  0.1027777E+00
         21   -1    0    0  501  502  0.00000000000E+00  0.00000000000E+00  0.55715718535E+03  0.55715718535E+03  0.00000000000E+00 0.  1.
         21   -1    0    0  502  503 -0.00000000000E+00 -0.00000000000E+00 -0.36412076577E+03  0.36412076577E+03  0.00000000000E+00 0. -1.
          6    1    1    2  501    0 -0.14821039899E+03  0.38786402311E+03  0.72781868009E+02  0.45566547280E+03  0.17300000000E+03 0. -1.
         -6    1    1    2    0  503  0.14821039899E+03 -0.38786402311E+03  0.12025455157E+03  0.46561247832E+03  0.17300000000E+03 0.  1.
<mgrwt>
<rscale>  2 0.44981532E+03</rscale>
<asrwt>0</asrwt>
<pdfrwt beam="1">  1       21 0.85716490E-01 0.44981532E+03</pdfrwt>
<pdfrwt beam="2">  1       21 0.56018579E-01 0.44981532E+03</pdfrwt>
<totfact> 0.30715582E+03</totfact>
</mgrwt>
</event>
<event>
 4    1  0.4621995E+000  0.2028204E+03  0.7546771E-02  0.1147381E+00
         21   -1    0    0  503  502  0.00000000000E+00  0.00000000000E+00  0.44610301171E+03  0.44610301171E+03  0.00000000000E+00 0.  1.
         21   -1    0    0  501  503 -0.00000000000E+00 -0.00000000000E+00 -0.17492581692E+03  0.17492581692E+03  0.00000000000E+00 0.  1.
          6    1    1    2  501    0  0.33533268418E+02 -0.10041237405E+03 -0.77933784415E+02  0.21727816205E+03  0.17300000000E+03 0.  1.
         -6    1    1    2    0  502 -0.33533268418E+02  0.10041237405E+03  0.34911097921E+03  0.40375066657E+03  0.17300000000E+03 0.  1.
<mgrwt>
<rscale>  2 0.20282043E+03</rscale>
<asrwt>0</asrwt>
<pdfrwt beam="1">  1       21 0.68631232E-01 0.20282043E+03</pdfrwt>
<pdfrwt beam="2">  1       21 0.26911664E-01 0.20282043E+03</pdfrwt>
<totfact> 0.25303191E+04</totfact>
</mgrwt>
</event>
<event>
 4    1  0.4621995E+000  0.1845573E+03  0.7546771E-02  0.1163464E+00
         21   -1    0    0  503  502  0.00000000000E+00  0.00000000000E+00  0.11345584454E+03  0.11345584454E+03  0.00000000000E+00 0. -1.
         21   -1    0    0  501  503 -0.00000000000E+00 -0.00000000000E+00 -0.32850794993E+03  0.32850794993E+03  0.00000000000E+00 0. -1.
          6    1    1    2  501    0 -0.44885994269E+02 -0.46017869044E+02 -0.42676657070E+02  0.18942727843E+03  0.17300000000E+03 0. -1.
         -6    1    1    2    0  502  0.44885994269E+02  0.46017869044E+02 -0.17237544832E+03  0.25253651605E+03  0.17300000000E+03 0. -1.
<mgrwt>
<rscale>  2 0.18455730E+03</rscale>
<asrwt>0</asrwt>
<pdfrwt beam="1">  1       21 0.17454746E-01 0.18455730E+03</pdfrwt>
<pdfrwt beam="2">  1       21 0.50539684E-01 0.18455730E+03</pdfrwt>
<totfact> 0.11105004E+05</totfact>
</mgrwt>
</event>
<event>
 4    1  0.4621995E+000  0.2840649E+03  0.7546771E-02  0.1093489E+00
         21   -1    0    0  503  502  0.00000000000E+00  0.00000000000E+00  0.16629522727E+03  0.16629522727E+03  0.00000000000E+00 0. -1.
         21   -1    0    0  501  503 -0.00000000000E+00 -0.00000000000E+00 -0.10165387261E+04  0.10165387261E+04  0.00000000000E+00 0.  1.
          6    1    1    2  501    0  0.28729610387E+01 -0.22529005081E+03 -0.85268639596E+03  0.89875856088E+03  0.17300000000E+03 0.  1.
         -6    1    1    2    0  502 -0.28729610387E+01  0.22529005081E+03  0.24428970809E+01  0.28407539254E+03  0.17300000000E+03 0. -1.
<mgrwt>
<rscale>  2 0.28406489E+03</rscale>
<asrwt>0</asrwt>
<pdfrwt beam="1">  1       21 0.25583880E-01 0.28406489E+03</pdfrwt>
<pdfrwt beam="2">  1       21 0.15639058E+00 0.28406489E+03</pdfrwt>
<totfact> 0.36232879E+03</totfact>
</mgrwt>
</event>
<event>
 4    1  0.4621995E+000  0.2245972E+03  0.7546771E-02  0.1130501E+00
         21   -1    0    0  503  502  0.00000000000E+00  0.00000000000E+00  0.24907346983E+03  0.24907346983E+03  0.00000000000E+00 0. -1.
         21   -1    0    0  501  503 -0.00000000000E+00 -0.00000000000E+00 -0.20274816752E+03  0.20274816752E+03  0.00000000000E+00 0. -1.
          6    1    1    2  501    0  0.14307160069E+03  0.67406605665E+01  0.15688873439E+02  0.22514453176E+03  0.17300000000E+03 0. -1.
         -6    1    1    2    0  502 -0.14307160069E+03 -0.67406605665E+01  0.30636428871E+02  0.22667710560E+03  0.17300000000E+03 0. -1.
<mgrwt>
<rscale>  2 0.22459724E+03</rscale>
<asrwt>0</asrwt>
<pdfrwt beam="1">  1       21 0.38318995E-01 0.22459724E+03</pdfrwt>
<pdfrwt beam="2">  1       21 0.31192026E-01 0.22459724E+03</pdfrwt>
<totfact> 0.63950795E+04</totfact>
</mgrwt>
</event>
<event>
 4    1  0.4621995E+000  0.1892028E+03  0.7546771E-02  0.1159182E+00
         21   -1    0    0  503  502  0.00000000000E+00  0.00000000000E+00  0.61100657540E+03  0.61100657540E+03  0.00000000000E+00 0.  1.
         21   -1    0    0  501  503 -0.00000000000E+00 -0.00000000000E+00 -0.92793007145E+02  0.92793007145E+02  0.00000000000E+00 0.  1.
          6    1    1    2  501    0  0.99685901640E+01 -0.75956092171E+02  0.45455388543E+02  0.19458646683E+03  0.17300000000E+03 0.  1.
         -6    1    1    2    0  502 -0.99685901640E+01  0.75956092171E+02  0.47275817971E+03  0.50921311571E+03  0.17300000000E+03 0.  1.
<mgrwt>
<rscale>  2 0.18920280E+03</rscale>
<asrwt>0</asrwt>
<pdfrwt beam="1">  1       21 0.94001009E-01 0.18920280E+03</pdfrwt>
<pdfrwt beam="2">  1       21 0.14275848E-01 0.18920280E+03</pdfrwt>
<totfact> 0.40826554E+04</totfact>
</mgrwt>
</event>
<event>
 4    1  0.4621995E+000  0.2634288E+03  0.7546771E-02  0.1105100E+00
         21   -1    0    0  503  502  0.00000000000E+00  0.00000000000E+00  0.23201974941E+03  0.23201974941E+03  0.00000000000E+00 0. -1.
         21   -1    0    0  501  503 -0.00000000000E+00 -0.00000000000E+00 -0.30450273461E+03  0.30450273461E+03  0.00000000000E+00 0.  1.
          6    1    1    2  501    0  0.19855470764E+03  0.64615776300E+01 -0.72008415754E+02  0.27309327317E+03  0.17300000000E+03 0.  1.
         -6    1    1    2    0  502 -0.19855470764E+03 -0.64615776300E+01 -0.47456944375E+00  0.26342921085E+03  0.17300000000E+03 0. -1.
<mgrwt>
<rscale>  2 0.26342878E+03</rscale>
<asrwt>0</asrwt>
<pdfrwt beam="1">  1       21 0.35695346E-01 0.26342878E+03</pdfrwt>
<pdfrwt beam="2">  1       21 0.46846574E-01 0.26342878E+03</pdfrwt>
<totfact> 0.31908375E+04</totfact>
</mgrwt>
</event>
<event>
 4    1  0.4621995E+000  0.2149419E+03  0.7546771E-02  0.1137711E+00
         21   -1    0    0  503  502  0.00000000000E+00  0.00000000000E+00  0.35892884061E+03  0.35892884061E+03  0.00000000000E+00 0. -1.
         21   -1    0    0  501  503 -0.00000000000E+00 -0.00000000000E+00 -0.13920483211E+03  0.13920483211E+03  0.00000000000E+00 0. -1.
          6    1    1    2  501    0 -0.10177091210E+03  0.76900540747E+02  0.41495246146E+02  0.21891063741E+03  0.17300000000E+03 0. -1.
         -6    1    1    2    0  502  0.10177091210E+03 -0.76900540747E+02  0.17822876236E+03  0.27922303531E+03  0.17300000000E+03 0. -1.
<mgrwt>
<rscale>  2 0.21494188E+03</rscale>
<asrwt>0</asrwt>
<pdfrwt beam="1">  1       21 0.55219821E-01 0.21494188E+03</pdfrwt>
<pdfrwt beam="2">  1       21 0.21416128E-01 0.21494188E+03</pdfrwt>
<totfact> 0.62170850E+04</totfact>
</mgrwt>
</event>
<event>
 4    1  0.4621995E+000  0.2766778E+03  0.7546771E-02  0.1097517E+00
         21   -1    0    0  503  502  0.00000000000E+00  0.00000000000E+00  0.67425402007E+03  0.67425402007E+03  0.00000000000E+00 0.  1.
         21   -1    0    0  501  503 -0.00000000000E+00 -0.00000000000E+00 -0.14379817159E+03  0.14379817159E+03  0.00000000000E+00 0. -1.
          6    1    1    2  501    0  0.21483786545E+03  0.21594486582E+02  0.45287425086E+03  0.53070304067E+03  0.17300000000E+03 0.  1.
         -6    1    1    2    0  502 -0.21483786545E+03 -0.21594486582E+02  0.77581597626E+02  0.28734915099E+03  0.17300000000E+03 0. -1.
<mgrwt>
<rscale>  2 0.27667785E+03</rscale>
<asrwt>0</asrwt>
<pdfrwt beam="1">  1       21 0.10373139E+00 0.27667785E+03</pdfrwt>
<pdfrwt beam="2">  1       21 0.22122796E-01 0.27667785E+03</pdfrwt>
<totfact> 0.13691783E+04</totfact>
</mgrwt>
</event>
<event>
 4    1  0.4621995E+000  0.2549419E+03  0.7546771E-02  0.1110221E+00
         21   -1    0    0  501  502  0.00000000000E+00  0.00000000000E+00  0.67874328960E+03  0.67874328960E+03  0.00000000000E+00 0.  1.
         21   -1    0    0  502  503 -0.00000000000E+00 -0.00000000000E+00 -0.15510275024E+03  0.15510275024E+03  0.00000000000E+00 0. -1.
          6    1    1    2  501    0 -0.12138962951E+02 -0.18686629804E+03  0.51971106102E+03  0.57887386770E+03  0.17300000000E+03 0.  1.
         -6    1    1    2    0  503  0.12138962951E+02  0.18686629804E+03  0.39294783389E+01  0.25497217214E+03  0.17300000000E+03 0. -1.
<mgrwt>
<rscale>  2 0.25494189E+03</rscale>
<asrwt>0</asrwt>
<pdfrwt beam="1">  1       21 0.10442204E+00 0.25494189E+03</pdfrwt>
<pdfrwt beam="2">  1       21 0.23861962E-01 0.25494189E+03</pdfrwt>
<totfact> 0.11792838E+04</totfact>
</mgrwt>
</event>
<event>
 4    1  0.4621995E+000  0.1827535E+03  0.7546771E-02  0.1165165E+00
         21   -1    0    0  503  502  0.00000000000E+00  0.00000000000E+00  0.48770588868E+02  0.48770588868E+02  0.00000000000E+00 0. -1.
         21   -1    0    0  501  503 -0.00000000000E+00 -0.00000000000E+00 -0.12156897398E+04  0.12156897398E+04  0.00000000000E+00 0. -1.
          6    1    1    2  501    0  0.54411742233E+02  0.22565299808E+02 -0.10012513358E+04  0.10177932343E+04  0.17300000000E+03 0. -1.
         -6    1    1    2    0  502 -0.54411742233E+02 -0.22565299808E+02 -0.16566781514E+03  0.24666709432E+03  0.17300000000E+03 0. -1.
<mgrwt>
<rscale>  2 0.18275347E+03</rscale>
<asrwt>0</asrwt>
<pdfrwt beam="1">  1       21 0.75031682E-02 0.18275347E+03</pdfrwt>
<pdfrwt beam="2">  1       21 0.18702917E+00 0.18275347E+03</pdfrwt>
<totfact> 0.22049686E+04</totfact>
</mgrwt>
</event>
<event>
 4    1  0.4621995E+000  0.1994840E+03  0.7546771E-02  0.1150175E+00
         21   -1    0    0  501  502  0.00000000000E+00  0.00000000000E+00  0.24178529975E+03  0.24178529975E+03  0.00000000000E+00 0.  1.
         21   -1    0    0  502  503 -0.00000000000E+00 -0.00000000000E+00 -0.16528276709E+03  0.16528276709E+03  0.00000000000E+00 0. -1.
          6    1    1    2  501    0 -0.67939486148E+02  0.72450688721E+02  0.51489746410E+02  0.20602201353E+03  0.17300000000E+03 0. -1.
         -6    1    1    2    0  503  0.67939486148E+02 -0.72450688721E+02  0.25012786247E+02  0.20104605331E+03  0.17300000000E+03 0. -1.
<mgrwt>
<rscale>  2 0.19948402E+03</rscale>
<asrwt>0</asrwt>
<pdfrwt beam="1">  1       21 0.37197738E-01 0.19948402E+03</pdfrwt>
<pdfrwt beam="2">  1       21 0.25428118E-01 0.19948402E+03</pdfrwt>
<totfact> 0.10192681E+05</totfact>
</mgrwt>
</event>
<event>
 4    1  0.4621995E+000  0.2213993E+03  0.7546771E-02  0.1132844E+00
         21   -1    0    0  503  502  0.00000000000E+00  0.00000000000E+00  0.16504460651E+03  0.16504460651E+03  0.00000000000E+00 0.  1.
         21   -1    0    0  501  503 -0.00000000000E+00 -0.00000000000E+00 -0.33272395573E+03  0.33272395573E+03  0.00000000000E+00 0.  1.
          6    1    1    2  501    0  0.69042662081E+02 -0.11967364811E+03 -0.16539577469E+03  0.27635743797E+03  0.17300000000E+03 0.  1.
         -6    1    1    2    0  502 -0.69042662081E+02  0.11967364811E+03 -0.22835745422E+01  0.22141112427E+03  0.17300000000E+03 0.  1.
<mgrwt>
<rscale>  2 0.22139935E+03</rscale>
<asrwt>0</asrwt>
<pdfrwt beam="1">  1       21 0.25391478E-01 0.22139935E+03</pdfrwt>
<pdfrwt beam="2">  1       21 0.51188301E-01 0.22139935E+03</pdfrwt>
<totfact> 0.52632924E+04</totfact>
</mgrwt>
</event>
<event>
 4    1  0.4621995E+000  0.1733397E+03  0.7546771E-02  0.1174409E+00
         21   -1    0    0  503  502  0.00000000000E+00  0.00000000000E+00  0.74590299385E+02  0.74590299385E+02  0.00000000000E+00 0.  1.
         21   -1    0    0  501  503 -0.00000000000E+00 -0.00000000000E+00 -0.45845883578E+03  0.45845883578E+03  0.00000000000E+00 0.  1.
          6    1    1    2  501    0 -0.10824455372E+02 -0.68677424263E+00 -0.28478105463E+03  0.33338699670E+03  0.17300000000E+03 0. -1.
         -6    1    1    2    0  502  0.10824455372E+02  0.68677424263E+00 -0.99087481759E+02  0.19966213846E+03  0.17300000000E+03 0. -1.
<mgrwt>
<rscale>  2 0.17333967E+03</rscale>
<asrwt>0</asrwt>
<pdfrwt beam="1">  1       21 0.11475431E-01 0.17333967E+03</pdfrwt>
<pdfrwt beam="2">  1       21 0.70532129E-01 0.17333967E+03</pdfrwt>
<totfact> 0.11665610E+05</totfact>
</mgrwt>
</event>
<event>
 4    1  0.4621995E+000  0.1737731E+03  0.7546771E-02  0.1173969E+00
         21   -1    0    0  501  502  0.00000000000E+00  0.00000000000E+00  0.20318644699E+03  0.20318644699E+03  0.00000000000E+00 0. -1.
         21   -1    0    0  502  503 -0.00000000000E+00 -0.00000000000E+00 -0.31889682437E+03  0.31889682437E+03  0.00000000000E+00 0. -1.
          6    1    1    2  501    0  0.12118129568E+02  0.11010331248E+02  0.13289525284E+03  0.21876522732E+03  0.17300000000E+03 0. -1.
         -6    1    1    2    0  503 -0.12118129568E+02 -0.11010331248E+02 -0.24860563022E+03  0.30331804403E+03  0.17300000000E+03 0. -1.
<mgrwt>
<rscale>  2 0.17377306E+03</rscale>
<asrwt>0</asrwt>
<pdfrwt beam="1">  1       21 0.31259454E-01 0.17377306E+03</pdfrwt>
<pdfrwt beam="2">  1       21 0.49061049E-01 0.17377306E+03</pdfrwt>
<totfact> 0.39356201E+04</totfact>
</mgrwt>
</event>
<event>
 4    1  0.4621995E+000  0.2479182E+03  0.7546771E-02  0.1114628E+00
         21   -1    0    0  501  502  0.00000000000E+00  0.00000000000E+00  0.39228562713E+03  0.39228562713E+03  0.00000000000E+00 0.  1.
         21   -1    0    0  502  503 -0.00000000000E+00 -0.00000000000E+00 -0.21447519284E+03  0.21447519284E+03  0.00000000000E+00 0. -1.
          6    1    1    2  501    0 -0.16089878412E+03  0.75139843341E+02 -0.68581480035E+02  0.25722914725E+03  0.17300000000E+03 0. -1.
         -6    1    1    2    0  503  0.16089878412E+03 -0.75139843341E+02  0.24639191433E+03  0.34953167272E+03  0.17300000000E+03 0.  1.
<mgrwt>
<rscale>  2 0.24791816E+03</rscale>
<asrwt>0</asrwt>
<pdfrwt beam="1">  1       21 0.60351635E-01 0.24791816E+03</pdfrwt>
<pdfrwt beam="2">  1       21 0.32996184E-01 0.24791816E+03</pdfrwt>
<totfact> 0.21963604E+04</totfact>
</mgrwt>
</event>
<event>
 4    1  0.4621995E+000  0.4822339E+03  0.7546771E-02  0.1018523E+00
         21   -1    0    0  501  502  0.00000000000E+00  0.00000000000E+00  0.11179183909E+04  0.11179183909E+04  0.00000000000E+00 0. -1.
         21   -1    0    0  502  503 -0.00000000000E+00 -0.00000000000E+00 -0.20988823952E+03  0.20988823952E+03  0.00000000000E+00 0.  1.
          6    1    1    2  501    0 -0.43102152375E+03 -0.12977290401E+03  0.39138128879E+03  0.62107074779E+03  0.17300000000E+03 0.  1.
         -6    1    1    2    0  503  0.43102152375E+03  0.12977290401E+03  0.51664886255E+03  0.70673588258E+03  0.17300000000E+03 0.  1.
<mgrwt>
<rscale>  2 0.48223393E+03</rscale>
<asrwt>0</asrwt>
<pdfrwt beam="1">  1       21 0.17198744E+00 0.48223393E+03</pdfrwt>
<pdfrwt beam="2">  1       21 0.32290499E-01 0.48223393E+03</pdfrwt>
<totfact> 0.15967900E+03</totfact>
</mgrwt>
</event>
<event>
 4    1  0.4621995E+000  0.1986323E+03  0.7546771E-02  0.1150898E+00
         21   -1    0    0  503  502  0.00000000000E+00  0.00000000000E+00  0.12267140019E+04  0.12267140019E+04  0.00000000000E+00 0.  1.
         21   -1    0    0  501  503 -0.00000000000E+00 -0.00000000000E+00 -0.10654853879E+03  0.10654853879E+03  0.00000000000E+00 0.  1.
          6    1    1    2  501    0 -0.44509746386E+01 -0.97498532785E+02  0.30813732160E+01  0.19865616006E+03  0.17300000000E+03 0.  1.
         -6    1    1    2    0  502  0.44509746386E+01  0.97498532785E+02  0.11170840899E+04  0.11346063807E+04  0.17300000000E+03 0.  1.
<mgrwt>
<rscale>  2 0.19863226E+03</rscale>
<asrwt>0</asrwt>
<pdfrwt beam="1">  1       21 0.18872522E+00 0.19863226E+03</pdfrwt>
<pdfrwt beam="2">  1       21 0.16392084E-01 0.19863226E+03</pdfrwt>
<totfact> 0.52758327E+03</totfact>
</mgrwt>
</event>
<event>
 4    1  0.4621995E+000  0.1813137E+03  0.7546771E-02  0.1166538E+00
         21   -1    0    0  501  502  0.00000000000E+00  0.00000000000E+00  0.23299858798E+03  0.23299858798E+03  0.00000000000E+00 0.  1.
         21   -1    0    0  502  503 -0.00000000000E+00 -0.00000000000E+00 -0.16643261887E+03  0.16643261887E+03  0.00000000000E+00 0.  1.
          6    1    1    2  501    0  0.51873698379E+02 -0.15961263142E+02  0.11120971582E+03  0.21270224117E+03  0.17300000000E+03 0.  1.
         -6    1    1    2    0  503 -0.51873698379E+02  0.15961263142E+02 -0.44643746712E+02  0.18672896568E+03  0.17300000000E+03 0.  1.
<mgrwt>
<rscale>  2 0.18131366E+03</rscale>
<asrwt>0</asrwt>
<pdfrwt beam="1">  1       21 0.35845937E-01 0.18131366E+03</pdfrwt>
<pdfrwt beam="2">  1       21 0.25605018E-01 0.18131366E+03</pdfrwt>
<totfact> 0.10903876E+05</totfact>
</mgrwt>
</event>
<event>
 4    1  0.4621995E+000  0.2010035E+03  0.7546771E-02  0.1148895E+00
         21   -1    0    0  503  502  0.00000000000E+00  0.00000000000E+00  0.10216217418E+04  0.10216217418E+04  0.00000000000E+00 0. -1.
         21   -1    0    0  501  503 -0.00000000000E+00 -0.00000000000E+00 -0.18071696983E+03  0.18071696983E+03  0.00000000000E+00 0.  1.
          6    1    1    2  501    0  0.96424960949E+02 -0.34287680407E+02 -0.11088210800E+03  0.22955883777E+03  0.17300000000E+03 0.  1.
         -6    1    1    2    0  502 -0.96424960949E+02  0.34287680407E+02  0.95178687994E+03  0.97277987384E+03  0.17300000000E+03 0. -1.
<mgrwt>
<rscale>  2 0.20100353E+03</rscale>
<asrwt>0</asrwt>
<pdfrwt beam="1">  1       21 0.15717257E+00 0.20100353E+03</pdfrwt>
<pdfrwt beam="2">  1       21 0.27802611E-01 0.20100353E+03</pdfrwt>
<totfact> 0.32369656E+03</totfact>
</mgrwt>
</event>
<event>
 4    1  0.4621995E+000  0.1926519E+03  0.7546771E-02  0.1156091E+00
         21   -1    0    0  503  502  0.00000000000E+00  0.00000000000E+00  0.48119134099E+02  0.48119134099E+02  0.00000000000E+00 0.  1.
         21   -1    0    0  501  503 -0.00000000000E+00 -0.00000000000E+00 -0.17702843412E+04  0.17702843412E+04  0.00000000000E+00 0.  1.
          6    1    1    2  501    0  0.22014117917E+02 -0.81860353544E+02 -0.15440752809E+04  0.15560473039E+04  0.17300000000E+03 0.  1.
         -6    1    1    2    0  502 -0.22014117917E+02  0.81860353544E+02 -0.17808992626E+03  0.26235617147E+03  0.17300000000E+03 0.  1.
<mgrwt>
<rscale>  2 0.19265186E+03</rscale>
<asrwt>0</asrwt>
<pdfrwt beam="1">  1       21 0.74029442E-02 0.19265186E+03</pdfrwt>
<pdfrwt beam="2">  1       21 0.27235142E+00 0.19265186E+03</pdfrwt>
<totfact> 0.67644408E+03</totfact>
</mgrwt>
</event>
<event>
 4    1  0.4621995E+000  0.1905339E+03  0.7546771E-02  0.1157981E+00
         21   -1    0    0  503  502  0.00000000000E+00  0.00000000000E+00  0.45275827332E+03  0.45275827332E+03  0.00000000000E+00 0. -1.
         21   -1    0    0  501  503 -0.00000000000E+00 -0.00000000000E+00 -0.29651334697E+03  0.29651334697E+03  0.00000000000E+00 0.  1.
          6    1    1    2  501    0  0.78697153177E+02 -0.13450536082E+02 -0.24187510717E+03  0.30790700919E+03  0.17300000000E+03 0.  1.
         -6    1    1    2    0  502 -0.78697153177E+02  0.13450536082E+02  0.39812003352E+03  0.44136461110E+03  0.17300000000E+03 0. -1.
<mgrwt>
<rscale>  2 0.19053388E+03</rscale>
<asrwt>0</asrwt>
<pdfrwt beam="1">  1       21 0.69655119E-01 0.19053388E+03</pdfrwt>
<pdfrwt beam="2">  1       21 0.45617438E-01 0.19053388E+03</pdfrwt>
<totfact> 0.86443994E+03</totfact>
</mgrwt>
</event>
<event>
 4    1  0.4621995E+000  0.1814243E+03  0.7546771E-02  0.1166432E+00
         21   -1    0    0  503  502  0.00000000000E+00  0.00000000000E+00  0.29746723320E+03  0.29746723320E+03  0.00000000000E+00 0. -1.
         21   -1    0    0  501  503 -0.00000000000E+00 -0.00000000000E+00 -0.76498672862E+03  0.76498672862E+03  0.00000000000E+00 0.  1.
          6    1    1    2  501    0  0.37077339957E+02 -0.40137725648E+02 -0.72506771245E+03  0.74742086791E+03  0.17300000000E+03 0.  1.
         -6    1    1    2    0  502 -0.37077339957E+02  0.40137725648E+02  0.25754821703E+03  0.31503309390E+03  0.17300000000E+03 0. -1.
<mgrwt>
<rscale>  2 0.18142427E+03</rscale>
<asrwt>0</asrwt>
<pdfrwt beam="1">  1       21 0.45764190E-01 0.18142427E+03</pdfrwt>
<pdfrwt beam="2">  1       21 0.11769027E+00 0.18142427E+03</pdfrwt>
<totfact> 0.25621691E+03</totfact>
</mgrwt>
</event>
<event>
 4    1  0.4621995E+000  0.2067566E+03  0.7546771E-02  0.1144160E+00
         21   -1    0    0  503  502  0.00000000000E+00  0.00000000000E+00  0.11454047976E+03  0.11454047976E+03  0.00000000000E+00 0. -1.
         21   -1    0    0  501  503 -0.00000000000E+00 -0.00000000000E+00 -0.37634683451E+03  0.37634683451E+03  0.00000000000E+00 0.  1.
          6    1    1    2  501    0 -0.62046965092E+02 -0.94707281760E+02 -0.15329114853E+03  0.25738389871E+03  0.17300000000E+03 0. -1.
         -6    1    1    2    0  502  0.62046965092E+02  0.94707281760E+02 -0.10851520622E+03  0.23350341556E+03  0.17300000000E+03 0.  1.
<mgrwt>
<rscale>  2 0.20675661E+03</rscale>
<asrwt>0</asrwt>
<pdfrwt beam="1">  1       21 0.17621612E-01 0.20675661E+03</pdfrwt>
<pdfrwt beam="2">  1       21 0.57899514E-01 0.20675661E+03</pdfrwt>
<totfact> 0.81165101E+04</totfact>
</mgrwt>
</event>
<event>
 4    1  0.4621995E+000  0.1872929E+03  0.7546771E-02  0.1160926E+00
         21   -1    0    0  501  502  0.00000000000E+00  0.00000000000E+00  0.69271617090E+02  0.69271617090E+02  0.00000000000E+00 0.  1.
         21   -1    0    0  502  503 -0.00000000000E+00 -0.00000000000E+00 -0.13818174650E+04  0.13818174650E+04  0.00000000000E+00 0.  1.
          6    1    1    2  501    0  0.25139808843E+02 -0.67213296035E+02 -0.78778003281E+02  0.20318614853E+03  0.17300000000E+03 0.  1.
         -6    1    1    2    0  503 -0.25139808843E+02  0.67213296035E+02 -0.12337678446E+04  0.12479029335E+04  0.17300000000E+03 0.  1.
<mgrwt>
<rscale>  2 0.18729292E+03</rscale>
<asrwt>0</asrwt>
<pdfrwt beam="1">  1       21 0.10657172E-01 0.18729292E+03</pdfrwt>
<pdfrwt beam="2">  1       21 0.21258730E+00 0.18729292E+03</pdfrwt>
<totfact> 0.81444159E+03</totfact>
</mgrwt>
</event>
<event>
 4    1  0.4621995E+000  0.1888963E+03  0.7546771E-02  0.1159461E+00
         21   -1    0    0  503  502  0.00000000000E+00  0.00000000000E+00  0.30029118977E+03  0.30029118977E+03  0.00000000000E+00 0.  1.
         21   -1    0    0  501  503 -0.00000000000E+00 -0.00000000000E+00 -0.21345643440E+03  0.21345643440E+03  0.00000000000E+00 0.  1.
          6    1    1    2  501    0  0.39713306601E+02 -0.64619260197E+02  0.21445247873E+03  0.28578254170E+03  0.17300000000E+03 0.  1.
         -6    1    1    2    0  502 -0.39713306601E+02  0.64619260197E+02 -0.12761772336E+03  0.22796508247E+03  0.17300000000E+03 0.  1.
<mgrwt>
<rscale>  2 0.18889626E+03</rscale>
<asrwt>0</asrwt>
<pdfrwt beam="1">  1       21 0.46198645E-01 0.18889626E+03</pdfrwt>
<pdfrwt beam="2">  1       21 0.32839451E-01 0.18889626E+03</pdfrwt>
<totfact> 0.40145514E+04</totfact>
</mgrwt>
</event>
<event>
 4    1  0.4621995E+000  0.1863361E+03  0.7546771E-02  0.1161808E+00
         21   -1    0    0  501  502  0.00000000000E+00  0.00000000000E+00  0.64345578042E+03  0.64345578042E+03  0.00000000000E+00 0.  1.
         21   -1    0    0  502  503 -0.00000000000E+00 -0.00000000000E+00 -0.89197125357E+02  0.89197125357E+02  0.00000000000E+00 0.  1.
          6    1    1    2  501    0  0.30923488627E+02 -0.61934413833E+02  0.50737453476E+03  0.54050906772E+03  0.17300000000E+03 0.  1.
         -6    1    1    2    0  503 -0.30923488627E+02  0.61934413833E+02  0.46884120301E+02  0.19214383805E+03  0.17300000000E+03 0.  1.
<mgrwt>
<rscale>  2 0.18633608E+03</rscale>
<asrwt>0</asrwt>
<pdfrwt beam="1">  1       21 0.98993194E-01 0.18633608E+03</pdfrwt>
<pdfrwt beam="2">  1       21 0.13722635E-01 0.18633608E+03</pdfrwt>
<totfact> 0.38895929E+04</totfact>
</mgrwt>
</event>
<event>
 4    1  0.4621995E+000  0.1899637E+03  0.7546771E-02  0.1158494E+00
         21   -1    0    0  503  502  0.00000000000E+00  0.00000000000E+00  0.63032759231E+03  0.63032759231E+03  0.00000000000E+00 0. -1.
         21   -1    0    0  501  503 -0.00000000000E+00 -0.00000000000E+00 -0.15875322416E+03  0.15875322416E+03  0.00000000000E+00 0. -1.
          6    1    1    2  501    0  0.54947036574E+02 -0.56017965209E+02 -0.79691741575E+02  0.20600233719E+03  0.17300000000E+03 0. -1.
         -6    1    1    2    0  502 -0.54947036574E+02  0.56017965209E+02  0.55126610973E+03  0.58307847927E+03  0.17300000000E+03 0. -1.
<mgrwt>
<rscale>  2 0.18996365E+03</rscale>
<asrwt>0</asrwt>
<pdfrwt beam="1">  1       21 0.96973475E-01 0.18996365E+03</pdfrwt>
<pdfrwt beam="2">  1       21 0.24423573E-01 0.18996365E+03</pdfrwt>
<totfact> 0.14003512E+04</totfact>
</mgrwt>
</event>
<event>
 4    1  0.4621995E+000  0.2038290E+03  0.7546771E-02  0.1146548E+00
         21   -1    0    0  501  502  0.00000000000E+00  0.00000000000E+00  0.55961739521E+03  0.55961739521E+03  0.00000000000E+00 0. -1.
         21   -1    0    0  502  503 -0.00000000000E+00 -0.00000000000E+00 -0.74342599351E+02  0.74342599351E+02  0.00000000000E+00 0.  1.
          6    1    1    2  501    0 -0.10270871144E+03 -0.32683166630E+02  0.23088980311E+03  0.30798761333E+03  0.17300000000E+03 0. -1.
         -6    1    1    2    0  503  0.10270871144E+03  0.32683166630E+02  0.25438499275E+03  0.32597238122E+03  0.17300000000E+03 0. -1.
<mgrwt>
<rscale>  2 0.20382902E+03</rscale>
<asrwt>0</asrwt>
<pdfrwt beam="1">  1       21 0.86094981E-01 0.20382902E+03</pdfrwt>
<pdfrwt beam="2">  1       21 0.11437323E-01 0.20382902E+03</pdfrwt>
<totfact> 0.74020388E+04</totfact>
</mgrwt>
</event>
<event>
 4    1  0.4621995E+000  0.2918815E+03  0.7546771E-02  0.1089371E+00
         21   -1    0    0  503  502  0.00000000000E+00  0.00000000000E+00  0.73003675410E+03  0.73003675410E+03  0.00000000000E+00 0. -1.
         21   -1    0    0  501  503 -0.00000000000E+00 -0.00000000000E+00 -0.11719808700E+03  0.11719808700E+03  0.00000000000E+00 0.  1.
          6    1    1    2  501    0 -0.23180324377E+03 -0.39154101771E+02  0.27878394673E+03  0.40362764581E+03  0.17300000000E+03 0. -1.
         -6    1    1    2    0  502  0.23180324377E+03  0.39154101771E+02  0.33405472037E+03  0.44360719529E+03  0.17300000000E+03 0.  1.
<mgrwt>
<rscale>  2 0.29188146E+03</rscale>
<asrwt>0</asrwt>
<pdfrwt beam="1">  1       21 0.11231334E+00 0.29188146E+03</pdfrwt>
<pdfrwt beam="2">  1       21 0.18030475E-01 0.29188146E+03</pdfrwt>
<totfact> 0.16464762E+04</totfact>
</mgrwt>
</event>
<event>
 4    1  0.4621995E+000  0.1785910E+03  0.7546771E-02  0.1169174E+00
         21   -1    0    0  501  502  0.00000000000E+00  0.00000000000E+00  0.62044425047E+02  0.62044425047E+02  0.00000000000E+00 0.  1.
         21   -1    0    0  502  503 -0.00000000000E+00 -0.00000000000E+00 -0.53240653576E+03  0.53240653576E+03  0.00000000000E+00 0.  1.
          6    1    1    2  501    0  0.10967189704E+02 -0.42958855796E+02 -0.29035144020E+03  0.34087930616E+03  0.17300000000E+03 0.  1.
         -6    1    1    2    0  503 -0.10967189704E+02  0.42958855796E+02 -0.18001067051E+03  0.25357165464E+03  0.17300000000E+03 0.  1.
<mgrwt>
<rscale>  2 0.17859099E+03</rscale>
<asrwt>0</asrwt>
<pdfrwt beam="1">  1       21 0.95452964E-02 0.17859099E+03</pdfrwt>
<pdfrwt beam="2">  1       21 0.81908696E-01 0.17859099E+03</pdfrwt>
<totfact> 0.11546162E+05</totfact>
</mgrwt>
</event>
<event>
 4    1  0.4621995E+000  0.2450757E+03  0.7546771E-02  0.1116457E+00
         21   -1    0    0  503  502  0.00000000000E+00  0.00000000000E+00  0.10285755304E+04  0.10285755304E+04  0.00000000000E+00 0. -1.
         21   -1    0    0  501  503 -0.00000000000E+00 -0.00000000000E+00 -0.59694822291E+02  0.59694822291E+02  0.00000000000E+00 0.  1.
          6    1    1    2  501    0 -0.11769350625E+03 -0.12759830029E+03  0.40409939673E+03  0.47260809355E+03  0.17300000000E+03 0. -1.
         -6    1    1    2    0  502  0.11769350625E+03  0.12759830029E+03  0.56478131139E+03  0.61566225915E+03  0.17300000000E+03 0. -1.
<mgrwt>
<rscale>  2 0.24507568E+03</rscale>
<asrwt>0</asrwt>
<pdfrwt beam="1">  1       21 0.15824238E+00 0.24507568E+03</pdfrwt>
<pdfrwt beam="2">  1       21 0.91838195E-02 0.24507568E+03</pdfrwt>
<totfact> 0.23674217E+04</totfact>
</mgrwt>
</event>
<event>
 4    1  0.4621995E+000  0.1855356E+03  0.7546771E-02  0.1162551E+00
         21   -1    0    0  503  502  0.00000000000E+00  0.00000000000E+00  0.16644992617E+03  0.16644992617E+03  0.00000000000E+00 0. -1.
         21   -1    0    0  501  503 -0.00000000000E+00 -0.00000000000E+00 -0.24373843728E+03  0.24373843728E+03  0.00000000000E+00 0. -1.
          6    1    1    2  501    0  0.51586335253E+02 -0.42817277492E+02 -0.11847555650E+03  0.22013615497E+03  0.17300000000E+03 0. -1.
         -6    1    1    2    0  502 -0.51586335253E+02  0.42817277492E+02  0.41187045395E+02  0.19005220847E+03  0.17300000000E+03 0. -1.
<mgrwt>
<rscale>  2 0.18553563E+03</rscale>
<asrwt>0</asrwt>
<pdfrwt beam="1">  1       21 0.25607681E-01 0.18553563E+03</pdfrwt>
<pdfrwt beam="2">  1       21 0.37498221E-01 0.18553563E+03</pdfrwt>
<totfact> 0.99493264E+04</totfact>
</mgrwt>
</event>
<event>
 4    1  0.4621995E+000  0.1793966E+03  0.7546771E-02  0.1168388E+00
         21   -1    0    0  503  502  0.00000000000E+00  0.00000000000E+00  0.38691140846E+03  0.38691140846E+03  0.00000000000E+00 0. -1.
         21   -1    0    0  501  503 -0.00000000000E+00 -0.00000000000E+00 -0.91266095626E+02  0.91266095626E+02  0.00000000000E+00 0. -1.
          6    1    1    2  501    0 -0.45337479311E+02  0.14094261845E+02  0.76654674187E+02  0.19508735049E+03  0.17300000000E+03 0.  1.
         -6    1    1    2    0  502  0.45337479311E+02 -0.14094261845E+02  0.21899063865E+03  0.28309015359E+03  0.17300000000E+03 0.  1.
<mgrwt>
<rscale>  2 0.17939659E+03</rscale>
<asrwt>0</asrwt>
<pdfrwt beam="1">  1       21 0.59524831E-01 0.17939659E+03</pdfrwt>
<pdfrwt beam="2">  1       21 0.14040938E-01 0.17939659E+03</pdfrwt>
<totfact> 0.11714116E+05</totfact>
</mgrwt>
</event>
<event>
 4    1  0.4621995E+000  0.1754259E+03  0.7546771E-02  0.1172305E+00
         21   -1    0    0  501  502  0.00000000000E+00  0.00000000000E+00  0.14515010093E+03  0.14515010093E+03  0.00000000000E+00 0. -1.
         21   -1    0    0  502  503 -0.00000000000E+00 -0.00000000000E+00 -0.35662529749E+03  0.35662529749E+03  0.00000000000E+00 0. -1.
          6    1    1    2  501    0  0.24149384470E+02 -0.16188500175E+02  0.54023191261E+02  0.18355589204E+03  0.17300000000E+03 0. -1.
         -6    1    1    2    0  503 -0.24149384470E+02  0.16188500175E+02 -0.26549838782E+03  0.31821950638E+03  0.17300000000E+03 0. -1.
<mgrwt>
<rscale>  2 0.17542594E+03</rscale>
<asrwt>0</asrwt>
<pdfrwt beam="1">  1       21 0.22330785E-01 0.17542594E+03</pdfrwt>
<pdfrwt beam="2">  1       21 0.54865431E-01 0.17542594E+03</pdfrwt>
<totfact> 0.59304904E+04</totfact>
</mgrwt>
</event>
<event>
 4    1  0.4621995E+000  0.1827276E+03  0.7546771E-02  0.1165189E+00
         21   -1    0    0  503  502  0.00000000000E+00  0.00000000000E+00  0.32613060399E+02  0.32613060399E+02  0.00000000000E+00 0. -1.
         21   -1    0    0  501  503 -0.00000000000E+00 -0.00000000000E+00 -0.15579899644E+04  0.15579899644E+04  0.00000000000E+00 0. -1.
          6    1    1    2  501    0 -0.17242568665E+02  0.56241154478E+02 -0.12283772779E+04  0.12418937597E+04  0.17300000000E+03 0. -1.
         -6    1    1    2    0  502  0.17242568665E+02 -0.56241154478E+02 -0.29699962611E+03  0.34870926506E+03  0.17300000000E+03 0. -1.
<mgrwt>
<rscale>  2 0.18272759E+03</rscale>
<asrwt>0</asrwt>
<pdfrwt beam="1">  1       21 0.50173939E-02 0.18272759E+03</pdfrwt>
<pdfrwt beam="2">  1       21 0.23969076E+00 0.18272759E+03</pdfrwt>
<totfact> 0.20635161E+04</totfact>
</mgrwt>
</event>
<event>
 4    1  0.4621995E+000  0.2347888E+03  0.7546771E-02  0.1123314E+00
         21   -1    0    0  503  502  0.00000000000E+00  0.00000000000E+00  0.16823742935E+04  0.16823742935E+04  0.00000000000E+00 0.  1.
         21   -1    0    0  501  503 -0.00000000000E+00 -0.00000000000E+00 -0.46929080834E+02  0.46929080834E+02  0.00000000000E+00 0. -1.
          6    1    1    2  501    0  0.11213152295E+03  0.11235342521E+03  0.34272758074E+03  0.41543707730E+03  0.17300000000E+03 0. -1.
         -6    1    1    2    0  502 -0.11213152295E+03 -0.11235342521E+03  0.12927176320E+04  0.13138662971E+04  0.17300000000E+03 0.  1.
<mgrwt>
<rscale>  2 0.23478878E+03</rscale>
<asrwt>0</asrwt>
<pdfrwt beam="1">  1       21 0.25882677E+00 0.23478878E+03</pdfrwt>
<pdfrwt beam="2">  1       21 0.72198599E-02 0.23478878E+03</pdfrwt>
<totfact> 0.81408396E+03</totfact>
</mgrwt>
</event>
<event>
 4    1  0.4621995E+000  0.1880043E+03  0.7546771E-02  0.1160274E+00
         21   -1    0    0  503  502  0.00000000000E+00  0.00000000000E+00  0.43283285756E+03  0.43283285756E+03  0.00000000000E+00 0. -1.
         21   -1    0    0  501  503 -0.00000000000E+00 -0.00000000000E+00 -0.84519670778E+02  0.84519670778E+02  0.00000000000E+00 0.  1.
          6    1    1    2  501    0 -0.66881037174E+01  0.73293140365E+02  0.22172852346E+03  0.29070458076E+03  0.17300000000E+03 0. -1.
         -6    1    1    2    0  502  0.66881037174E+01 -0.73293140365E+02  0.12658466332E+03  0.22664794758E+03  0.17300000000E+03 0.  1.
<mgrwt>
<rscale>  2 0.18800430E+03</rscale>
<asrwt>0</asrwt>
<pdfrwt beam="1">  1       21 0.66589669E-01 0.18800430E+03</pdfrwt>
<pdfrwt beam="2">  1       21 0.13003027E-01 0.18800430E+03</pdfrwt>
<totfact> 0.10524047E+05</totfact>
</mgrwt>
</event>
<event>
 4    1  0.4621995E+000  0.2130949E+03  0.7546771E-02  0.1139138E+00
         21   -1    0    0  503  502  0.00000000000E+00  0.00000000000E+00  0.87096870839E+03  0.87096870839E+03  0.00000000000E+00 0. -1.
         21   -1    0    0  501  503 -0.00000000000E+00 -0.00000000000E+00 -0.84733359056E+02  0.84733359056E+02  0.00000000000E+00 0.  1.
          6    1    1    2  501    0  0.69269556130E+02  0.10335453162E+03  0.96735629133E+02  0.23402395723E+03  0.17300000000E+03 0.  1.
         -6    1    1    2    0  502 -0.69269556130E+02 -0.10335453162E+03  0.68949972020E+03  0.72167811022E+03  0.17300000000E+03 0. -1.
<mgrwt>
<rscale>  2 0.21309489E+03</rscale>
<asrwt>0</asrwt>
<pdfrwt beam="1">  1       21 0.13399518E+00 0.21309489E+03</pdfrwt>
<pdfrwt beam="2">  1       21 0.13035902E-01 0.21309489E+03</pdfrwt>
<totfact> 0.19986299E+04</totfact>
</mgrwt>
</event>
<event>
 4    1  0.4621995E+000  0.1783003E+03  0.7546771E-02  0.1169458E+00
         21   -1    0    0  501  502  0.00000000000E+00  0.00000000000E+00  0.96818650687E+02  0.96818650687E+02  0.00000000000E+00 0.  1.
         21   -1    0    0  502  503 -0.00000000000E+00 -0.00000000000E+00 -0.32984585273E+03  0.32984585273E+03  0.00000000000E+00 0.  1.
          6    1    1    2  501    0  0.42630316915E+02  0.66827695489E+01 -0.13085015836E+03  0.22116230979E+03  0.17300000000E+03 0. -1.
         -6    1    1    2    0  503 -0.42630316915E+02 -0.66827695489E+01 -0.10217704368E+03  0.20550219363E+03  0.17300000000E+03 0. -1.
<mgrwt>
<rscale>  2 0.17830032E+03</rscale>
<asrwt>0</asrwt>
<pdfrwt beam="1">  1       21 0.14895177E-01 0.17830032E+03</pdfrwt>
<pdfrwt beam="2">  1       21 0.50745516E-01 0.17830032E+03</pdfrwt>
<totfact> 0.14748597E+05</totfact>
</mgrwt>
</event>
<event>
 4    1  0.4621995E+000  0.1737640E+03  0.7546771E-02  0.1173978E+00
         21   -1    0    0  503  502  0.00000000000E+00  0.00000000000E+00  0.74228230361E+03  0.74228230361E+03  0.00000000000E+00 0.  1.
         21   -1    0    0  501  503 -0.00000000000E+00 -0.00000000000E+00 -0.28395981503E+03  0.28395981503E+03  0.00000000000E+00 0.  1.
          6    1    1    2  501    0 -0.16232138775E+02 -0.12050594210E+01 -0.24578774968E+03  0.30100756201E+03  0.17300000000E+03 0.  1.
         -6    1    1    2    0  502  0.16232138775E+02  0.12050594210E+01  0.70411023826E+03  0.72523455662E+03  0.17300000000E+03 0.  1.
<mgrwt>
<rscale>  2 0.17376402E+03</rscale>
<asrwt>0</asrwt>
<pdfrwt beam="1">  1       21 0.11419728E+00 0.17376402E+03</pdfrwt>
<pdfrwt beam="2">  1       21 0.43686126E-01 0.17376402E+03</pdfrwt>
<totfact> 0.30542288E+03</totfact>
</mgrwt>
</event>
<event>
 4    1  0.4621995E+000  0.1768283E+03  0.7546771E-02  0.1170908E+00
         21   -1    0    0  503  502  0.00000000000E+00  0.00000000000E+00  0.97570110870E+02  0.97570110870E+02  0.00000000000E+00 0. -1.
         21   -1    0    0  501  503 -0.00000000000E+00 -0.00000000000E+00 -0.32213608207E+03  0.32213608207E+03  0.00000000000E+00 0. -1.
          6    1    1    2  501    0 -0.33955256975E+02 -0.13648698039E+02 -0.12737706602E+03  0.21792926233E+03  0.17300000000E+03 0. -1.
         -6    1    1    2    0  502  0.33955256975E+02  0.13648698039E+02 -0.97188905185E+02  0.20177693061E+03  0.17300000000E+03 0. -1.
<mgrwt>
<rscale>  2 0.17682830E+03</rscale>
<asrwt>0</asrwt>
<pdfrwt beam="1">  1       21 0.15010786E-01 0.17682830E+03</pdfrwt>
<pdfrwt beam="2">  1       21 0.49559399E-01 0.17682830E+03</pdfrwt>
<totfact> 0.15284333E+05</totfact>
</mgrwt>
</event>
<event>
 4    1  0.4621995E+000  0.2386044E+03  0.7546771E-02  0.1120726E+00
         21   -1    0    0  501  502  0.00000000000E+00  0.00000000000E+00  0.25191432668E+03  0.25191432668E+03  0.00000000000E+00 0. -1.
         21   -1    0    0  502  503 -0.00000000000E+00 -0.00000000000E+00 -0.23985823084E+03  0.23985823084E+03  0.00000000000E+00 0. -1.
          6    1    1    2  501    0 -0.72377055856E+02 -0.14752839663E+03  0.65136071839E+02  0.24733534701E+03  0.17300000000E+03 0. -1.
         -6    1    1    2    0  503  0.72377055856E+02  0.14752839663E+03 -0.53079976005E+02  0.24443721051E+03  0.17300000000E+03 0. -1.
<mgrwt>
<rscale>  2 0.23860441E+03</rscale>
<asrwt>0</asrwt>
<pdfrwt beam="1">  1       21 0.38756050E-01 0.23860441E+03</pdfrwt>
<pdfrwt beam="2">  1       21 0.36901266E-01 0.23860441E+03</pdfrwt>
<totfact> 0.44500436E+04</totfact>
</mgrwt>
</event>
<event>
 4    1  0.4621995E+000  0.4061571E+03  0.7546771E-02  0.1041668E+00
         21   -1    0    0  503  502  0.00000000000E+00  0.00000000000E+00  0.15589385078E+03  0.15589385078E+03  0.00000000000E+00 0. -1.
         21   -1    0    0  501  503 -0.00000000000E+00 -0.00000000000E+00 -0.10984127921E+04  0.10984127921E+04  0.00000000000E+00 0.  1.
          6    1    1    2  501    0  0.50275680471E+02  0.36401500167E+03 -0.35123008491E+03  0.53696008979E+03  0.17300000000E+03 0. -1.
         -6    1    1    2    0  502 -0.50275680471E+02 -0.36401500167E+03 -0.59128885637E+03  0.71734655304E+03  0.17300000000E+03 0.  1.
<mgrwt>
<rscale>  2 0.40615707E+03</rscale>
<asrwt>0</asrwt>
<pdfrwt beam="1">  1       21 0.23983669E-01 0.40615707E+03</pdfrwt>
<pdfrwt beam="2">  1       21 0.16898659E+00 0.40615707E+03</pdfrwt>
<totfact> 0.31109169E+03</totfact>
</mgrwt>
</event>
<event>
 4    1  0.4621995E+000  0.2159671E+03  0.7546771E-02  0.1136926E+00
         21   -1    0    0  501  502  0.00000000000E+00  0.00000000000E+00  0.68640054932E+02  0.68640054932E+02  0.00000000000E+00 0. -1.
         21   -1    0    0  502  503 -0.00000000000E+00 -0.00000000000E+00 -0.14730367192E+04  0.14730367192E+04  0.00000000000E+00 0. -1.
          6    1    1    2  501    0 -0.24209468381E+02 -0.12699096575E+03 -0.13643274544E+03  0.25545194807E+03  0.17300000000E+03 0. -1.
         -6    1    1    2    0  503  0.24209468381E+02  0.12699096575E+03 -0.12679639188E+04  0.12862248260E+04  0.17300000000E+03 0. -1.
<mgrwt>
<rscale>  2 0.21596714E+03</rscale>
<asrwt>0</asrwt>
<pdfrwt beam="1">  1       21 0.10560009E-01 0.21596714E+03</pdfrwt>
<pdfrwt beam="2">  1       21 0.22662103E+00 0.21596714E+03</pdfrwt>
<totfact> 0.66120693E+03</totfact>
</mgrwt>
</event>
<event>
 4    1  0.4621995E+000  0.1763593E+03  0.7546771E-02  0.1171374E+00
         21   -1    0    0  503  502  0.00000000000E+00  0.00000000000E+00  0.21451530109E+03  0.21451530109E+03  0.00000000000E+00 0. -1.
         21   -1    0    0  501  503 -0.00000000000E+00 -0.00000000000E+00 -0.14832258172E+03  0.14832258172E+03  0.00000000000E+00 0. -1.
          6    1    1    2  501    0  0.23902235724E+02 -0.24541672293E+02  0.59032959426E+01  0.17645809546E+03  0.17300000000E+03 0. -1.
         -6    1    1    2    0  502 -0.23902235724E+02  0.24541672293E+02  0.60289423428E+02  0.18637978734E+03  0.17300000000E+03 0. -1.
<mgrwt>
<rscale>  2 0.17635932E+03</rscale>
<asrwt>0</asrwt>
<pdfrwt beam="1">  1       21 0.33002354E-01 0.17635932E+03</pdfrwt>
<pdfrwt beam="2">  1       21 0.22818859E-01 0.17635932E+03</pdfrwt>
<totfact> 0.16006738E+05</totfact>
</mgrwt>
</event>
<event>
 4    1  0.4621995E+000  0.1965273E+03  0.7546771E-02  0.1152702E+00
         21   -1    0    0  503  502  0.00000000000E+00  0.00000000000E+00  0.12669223285E+03  0.12669223285E+03  0.00000000000E+00 0. -1.
         21   -1    0    0  501  503 -0.00000000000E+00 -0.00000000000E+00 -0.67731931562E+03  0.67731931562E+03  0.00000000000E+00 0. -1.
          6    1    1    2  501    0  0.90646233389E+02 -0.21845586781E+02 -0.57342381014E+03  0.60616650792E+03  0.17300000000E+03 0. -1.
         -6    1    1    2    0  502 -0.90646233389E+02  0.21845586781E+02  0.22796727376E+02  0.19784504055E+03  0.17300000000E+03 0. -1.
<mgrwt>
<rscale>  2 0.19652727E+03</rscale>
<asrwt>0</asrwt>
<pdfrwt beam="1">  1       21 0.19491113E-01 0.19652727E+03</pdfrwt>
<pdfrwt beam="2">  1       21 0.10420297E+00 0.19652727E+03</pdfrwt>
<totfact> 0.17977756E+04</totfact>
</mgrwt>
</event>
<event>
 4    1  0.4621995E+000  0.1910038E+03  0.7546771E-02  0.1157559E+00
         21   -1    0    0  501  502  0.00000000000E+00  0.00000000000E+00  0.65712239124E+02  0.65712239124E+02  0.00000000000E+00 0. -1.
         21   -1    0    0  502  503 -0.00000000000E+00 -0.00000000000E+00 -0.64063006334E+03  0.64063006334E+03  0.00000000000E+00 0. -1.
          6    1    1    2  501    0 -0.25507025562E+02 -0.76829886551E+02 -0.15847800561E+03  0.24818887582E+03  0.17300000000E+03 0. -1.
         -6    1    1    2    0  503  0.25507025562E+02  0.76829886551E+02 -0.41643981861E+03  0.45815342664E+03  0.17300000000E+03 0. -1.
<mgrwt>
<rscale>  2 0.19100377E+03</rscale>
<asrwt>0</asrwt>
<pdfrwt beam="1">  1       21 0.10109575E-01 0.19100377E+03</pdfrwt>
<pdfrwt beam="2">  1       21 0.98558470E-01 0.19100377E+03</pdfrwt>
<totfact> 0.67682135E+04</totfact>
</mgrwt>
</event>
<event>
 4    1  0.4621995E+000  0.1952049E+03  0.7546771E-02  0.1153849E+00
         21   -1    0    0  503  502  0.00000000000E+00  0.00000000000E+00  0.36994764802E+02  0.36994764802E+02  0.00000000000E+00 0. -1.
         21   -1    0    0  501  503 -0.00000000000E+00 -0.00000000000E+00 -0.10614316450E+04  0.10614316450E+04  0.00000000000E+00 0. -1.
          6    1    1    2  501    0 -0.69753250659E+02 -0.57536249762E+02 -0.60671526137E+03  0.63734476101E+03  0.17300000000E+03 0. -1.
         -6    1    1    2    0  502  0.69753250659E+02  0.57536249762E+02 -0.41772161885E+03  0.46108164881E+03  0.17300000000E+03 0. -1.
<mgrwt>
<rscale>  2 0.19520486E+03</rscale>
<asrwt>0</asrwt>
<pdfrwt beam="1">  1       21 0.56915027E-02 0.19520486E+03</pdfrwt>
<pdfrwt beam="2">  1       21 0.16329717E+00 0.19520486E+03</pdfrwt>
<totfact> 0.51321675E+04</totfact>
</mgrwt>
</event>
<event>
 4    1  0.4621995E+000  0.1837133E+03  0.7546771E-02  0.1164257E+00
         21   -1    0    0  503  502  0.00000000000E+00  0.00000000000E+00  0.70245670893E+02  0.70245670893E+02  0.00000000000E+00 0.  1.
         21   -1    0    0  501  503 -0.00000000000E+00 -0.00000000000E+00 -0.80173982234E+03  0.80173982234E+03  0.00000000000E+00 0. -1.
          6    1    1    2  501    0  0.55910654551E+02  0.26374097728E+02 -0.64174181557E+03  0.66752015114E+03  0.17300000000E+03 0. -1.
         -6    1    1    2    0  502 -0.55910654551E+02 -0.26374097728E+02 -0.89752335880E+02  0.20446534210E+03  0.17300000000E+03 0.  1.
<mgrwt>
<rscale>  2 0.18371335E+03</rscale>
<asrwt>0</asrwt>
<pdfrwt beam="1">  1       21 0.10807026E-01 0.18371335E+03</pdfrwt>
<pdfrwt beam="2">  1       21 0.12334459E+00 0.18371335E+03</pdfrwt>
<totfact> 0.35056434E+04</totfact>
</mgrwt>
</event>
<event>
 4    1  0.4621995E+000  0.1771273E+03  0.7546771E-02  0.1170613E+00
         21   -1    0    0  501  502  0.00000000000E+00  0.00000000000E+00  0.29746469747E+03  0.29746469747E+03  0.00000000000E+00 0.  1.
         21   -1    0    0  502  503 -0.00000000000E+00 -0.00000000000E+00 -0.23911607937E+03  0.23911607937E+03  0.00000000000E+00 0.  1.
          6    1    1    2  501    0  0.37428332047E+02 -0.66471655864E+01  0.22974907999E+03  0.29010119718E+03  0.17300000000E+03 0.  1.
         -6    1    1    2    0  503 -0.37428332047E+02  0.66471655864E+01 -0.17140046189E+03  0.24647957966E+03  0.17300000000E+03 0.  1.
<mgrwt>
<rscale>  2 0.17712726E+03</rscale>
<asrwt>0</asrwt>
<pdfrwt beam="1">  1       21 0.45763800E-01 0.17712726E+03</pdfrwt>
<pdfrwt beam="2">  1       21 0.36787089E-01 0.17712726E+03</pdfrwt>
<totfact> 0.32891531E+04</totfact>
</mgrwt>
</event>
<event>
 4    1  0.4621995E+000  0.1888639E+03  0.7546771E-02  0.1159490E+00
         21   -1    0    0  501  502  0.00000000000E+00  0.00000000000E+00  0.58688332996E+03  0.58688332996E+03  0.00000000000E+00 0. -1.
         21   -1    0    0  502  503 -0.00000000000E+00 -0.00000000000E+00 -0.94860017302E+02  0.94860017302E+02  0.00000000000E+00 0. -1.
          6    1    1    2  501    0 -0.56184540387E+02 -0.50831755278E+02  0.45033229245E+03  0.48833261569E+03  0.17300000000E+03 0. -1.
         -6    1    1    2    0  503  0.56184540387E+02  0.50831755278E+02  0.41691020213E+02  0.19341073158E+03  0.17300000000E+03 0. -1.
<mgrwt>
<rscale>  2 0.18886389E+03</rscale>
<asrwt>0</asrwt>
<pdfrwt beam="1">  1       21 0.90289741E-01 0.18886389E+03</pdfrwt>
<pdfrwt beam="2">  1       21 0.14593849E-01 0.18886389E+03</pdfrwt>
<totfact> 0.43084571E+04</totfact>
</mgrwt>
</event>
<event>
 4    1  0.4621995E+000  0.2663366E+03  0.7546771E-02  0.1103395E+00
         21   -1    0    0  501  502  0.00000000000E+00  0.00000000000E+00  0.16953329888E+03  0.16953329888E+03  0.00000000000E+00 0.  1.
         21   -1    0    0  502  503 -0.00000000000E+00 -0.00000000000E+00 -0.66304978139E+03  0.66304978139E+03  0.00000000000E+00 0.  1.
          6    1    1    2  501    0  0.19471412338E+03 -0.55611187178E+02  0.61040358018E+01  0.26640655629E+03  0.17300000000E+03 0.  1.
         -6    1    1    2    0  503 -0.19471412338E+03  0.55611187178E+02 -0.49962051831E+03  0.56617652397E+03  0.17300000000E+03 0.  1.
<mgrwt>
<rscale>  2 0.26633662E+03</rscale>
<asrwt>0</asrwt>
<pdfrwt beam="1">  1       21 0.26082046E-01 0.26633662E+03</pdfrwt>
<pdfrwt beam="2">  1       21 0.10200766E+00 0.26633662E+03</pdfrwt>
<totfact> 0.10453352E+04</totfact>
</mgrwt>
</event>
<event>
 4    1  0.4621995E+000  0.2150528E+03  0.7546771E-02  0.1137626E+00
         21   -1    0    0  503  502  0.00000000000E+00  0.00000000000E+00  0.21300292699E+03  0.21300292699E+03  0.00000000000E+00 0. -1.
         21   -1    0    0  501  503 -0.00000000000E+00 -0.00000000000E+00 -0.22458123985E+03  0.22458123985E+03  0.00000000000E+00 0.  1.
          6    1    1    2  501    0 -0.87744191099E+02 -0.92842111201E+02 -0.45662378533E+02  0.21984711392E+03  0.17300000000E+03 0. -1.
         -6    1    1    2    0  502  0.87744191099E+02  0.92842111201E+02  0.34084065680E+02  0.21773705293E+03  0.17300000000E+03 0. -1.
<mgrwt>
<rscale>  2 0.21505279E+03</rscale>
<asrwt>0</asrwt>
<pdfrwt beam="1">  1       21 0.32769681E-01 0.21505279E+03</pdfrwt>
<pdfrwt beam="2">  1       21 0.34550960E-01 0.21505279E+03</pdfrwt>
<totfact> 0.71664775E+04</totfact>
</mgrwt>
</event>
<event>
 4    1  0.4621995E+000  0.2265324E+03  0.7546771E-02  0.1129104E+00
         21   -1    0    0  501  502  0.00000000000E+00  0.00000000000E+00  0.12286345660E+04  0.12286345660E+04  0.00000000000E+00 0. -1.
         21   -1    0    0  502  503 -0.00000000000E+00 -0.00000000000E+00 -0.42063776999E+02  0.42063776999E+02  0.00000000000E+00 0.  1.
          6    1    1    2  501    0  0.14623551297E+03 -0.17640363317E+01  0.53995910122E+03  0.58555338618E+03  0.17300000000E+03 0. -1.
         -6    1    1    2    0  503 -0.14623551297E+03  0.17640363317E+01  0.64661168783E+03  0.68514495686E+03  0.17300000000E+03 0.  1.
<mgrwt>
<rscale>  2 0.22653242E+03</rscale>
<asrwt>0</asrwt>
<pdfrwt beam="1">  1       21 0.18902067E+00 0.22653242E+03</pdfrwt>
<pdfrwt beam="2">  1       21 0.64713513E-02 0.22653242E+03</pdfrwt>
<totfact> 0.26798294E+04</totfact>
</mgrwt>
</event>
<event>
 4    1  0.4621995E+000  0.1772700E+03  0.7546771E-02  0.1170472E+00
         21   -1    0    0  501  502  0.00000000000E+00  0.00000000000E+00  0.98193751731E+02  0.98193751731E+02  0.00000000000E+00 0.  1.
         21   -1    0    0  502  503 -0.00000000000E+00 -0.00000000000E+00 -0.52019668471E+03  0.52019668471E+03  0.00000000000E+00 0.  1.
          6    1    1    2  501    0  0.32158642983E+02 -0.21482090220E+02 -0.19201707563E+02  0.17830693787E+03  0.17300000000E+03 0.  1.
         -6    1    1    2    0  503 -0.32158642983E+02  0.21482090220E+02 -0.40280122542E+03  0.44008349857E+03  0.17300000000E+03 0.  1.
<mgrwt>
<rscale>  2 0.17727002E+03</rscale>
<asrwt>0</asrwt>
<pdfrwt beam="1">  1       21 0.15106731E-01 0.17727002E+03</pdfrwt>
<pdfrwt beam="2">  1       21 0.80030258E-01 0.17727002E+03</pdfrwt>
<totfact> 0.53607402E+04</totfact>
</mgrwt>
</event>
<event>
 4    1  0.4621995E+000  0.2316873E+03  0.7546771E-02  0.1125458E+00
         21   -1    0    0  501  502  0.00000000000E+00  0.00000000000E+00  0.24320035987E+03  0.24320035987E+03  0.00000000000E+00 0.  1.
         21   -1    0    0  502  503 -0.00000000000E+00 -0.00000000000E+00 -0.25245938222E+03  0.25245938222E+03  0.00000000000E+00 0.  1.
          6    1    1    2  501    0  0.15391096668E+03  0.78365399715E+01  0.83244888638E+02  0.24618835982E+03  0.17300000000E+03 0.  1.
         -6    1    1    2    0  503 -0.15391096668E+03 -0.78365399715E+01 -0.92503910984E+02  0.24947138227E+03  0.17300000000E+03 0.  1.
<mgrwt>
<rscale>  2 0.23168728E+03</rscale>
<asrwt>0</asrwt>
<pdfrwt beam="1">  1       21 0.37415440E-01 0.23168728E+03</pdfrwt>
<pdfrwt beam="2">  1       21 0.38839905E-01 0.23168728E+03</pdfrwt>
<totfact> 0.43219970E+04</totfact>
</mgrwt>
</event>
<event>
 4    1  0.4621995E+000  0.2248869E+03  0.7546771E-02  0.1130291E+00
         21   -1    0    0  503  502  0.00000000000E+00  0.00000000000E+00  0.27513817238E+03  0.27513817238E+03  0.00000000000E+00 0. -1.
         21   -1    0    0  501  503 -0.00000000000E+00 -0.00000000000E+00 -0.34767341043E+03  0.34767341043E+03  0.00000000000E+00 0. -1.
          6    1    1    2  501    0 -0.92085453377E+02 -0.11029684698E+03 -0.25005261990E+03  0.33630408546E+03  0.17300000000E+03 0. -1.
         -6    1    1    2    0  502  0.92085453377E+02  0.11029684698E+03  0.17751738186E+03  0.28650749735E+03  0.17300000000E+03 0. -1.
<mgrwt>
<rscale>  2 0.22488692E+03</rscale>
<asrwt>0</asrwt>
<pdfrwt beam="1">  1       21 0.42328950E-01 0.22488692E+03</pdfrwt>
<pdfrwt beam="2">  1       21 0.53488217E-01 0.22488692E+03</pdfrwt>
<totfact> 0.17429759E+04</totfact>
</mgrwt>
</event>
<event>
 4    1  0.4621995E+000  0.2173888E+03  0.7546771E-02  0.1135845E+00
         21   -1    0    0  501  502  0.00000000000E+00  0.00000000000E+00  0.13635122196E+03  0.13635122196E+03  0.00000000000E+00 0. -1.
         21   -1    0    0  502  503 -0.00000000000E+00 -0.00000000000E+00 -0.51675362647E+03  0.51675362647E+03  0.00000000000E+00 0.  1.
          6    1    1    2  501    0  0.12435798240E+03  0.43173844307E+02 -0.37759071144E+03  0.43569787008E+03  0.17300000000E+03 0.  1.
         -6    1    1    2    0  503 -0.12435798240E+03 -0.43173844307E+02 -0.28116930676E+01  0.21740697835E+03  0.17300000000E+03 0. -1.
<mgrwt>
<rscale>  2 0.21738880E+03</rscale>
<asrwt>0</asrwt>
<pdfrwt beam="1">  1       21 0.20977111E-01 0.21738880E+03</pdfrwt>
<pdfrwt beam="2">  1       21 0.79500557E-01 0.21738880E+03</pdfrwt>
<totfact> 0.29051043E+04</totfact>
</mgrwt>
</event>
<event>
 4    1  0.4621995E+000  0.2257939E+03  0.7546771E-02  0.1129636E+00
         21   -1    0    0  503  502  0.00000000000E+00  0.00000000000E+00  0.21216300826E+03  0.21216300826E+03  0.00000000000E+00 0. -1.
         21   -1    0    0  501  503 -0.00000000000E+00 -0.00000000000E+00 -0.34151266442E+03  0.34151266442E+03  0.00000000000E+00 0.  1.
          6    1    1    2  501    0 -0.13087517512E+03  0.62654420246E+02 -0.21538351495E+03  0.31204638494E+03  0.17300000000E+03 0.  1.
         -6    1    1    2    0  502  0.13087517512E+03 -0.62654420246E+02  0.86033858798E+02  0.24162928775E+03  0.17300000000E+03 0. -1.
<mgrwt>
<rscale>  2 0.22579391E+03</rscale>
<asrwt>0</asrwt>
<pdfrwt beam="1">  1       21 0.32640463E-01 0.22579391E+03</pdfrwt>
<pdfrwt beam="2">  1       21 0.52540410E-01 0.22579391E+03</pdfrwt>
<totfact> 0.30493264E+04</totfact>
</mgrwt>
</event>
<event>
 4    1  0.4621995E+000  0.2505917E+03  0.7546771E-02  0.1112931E+00
         21   -1    0    0  503  502  0.00000000000E+00  0.00000000000E+00  0.84244957768E+02  0.84244957768E+02  0.00000000000E+00 0.  1.
         21   -1    0    0  501  503 -0.00000000000E+00 -0.00000000000E+00 -0.74768401609E+03  0.74768401609E+03  0.00000000000E+00 0. -1.
          6    1    1    2  501    0  0.35023023361E+02  0.17787795704E+03 -0.35471064498E+03  0.43429923029E+03  0.17300000000E+03 0.  1.
         -6    1    1    2    0  502 -0.35023023361E+02 -0.17787795704E+03 -0.30872841334E+03  0.39762974357E+03  0.17300000000E+03 0. -1.
<mgrwt>
<rscale>  2 0.25059166E+03</rscale>
<asrwt>0</asrwt>
<pdfrwt beam="1">  1       21 0.12960763E-01 0.25059166E+03</pdfrwt>
<pdfrwt beam="2">  1       21 0.11502830E+00 0.25059166E+03</pdfrwt>
<totfact> 0.29030394E+04</totfact>
</mgrwt>
</event>
<event>
 4    1  0.4621995E+000  0.2121597E+03  0.7546771E-02  0.1139867E+00
         21   -1    0    0  503  502  0.00000000000E+00  0.00000000000E+00  0.18175054718E+04  0.18175054718E+04  0.00000000000E+00 0.  1.
         21   -1    0    0  501  503 -0.00000000000E+00 -0.00000000000E+00 -0.31069582385E+02  0.31069582385E+02  0.00000000000E+00 0. -1.
          6    1    1    2  501    0  0.24851728058E+02 -0.12027103099E+03  0.47688125400E+03  0.52194583981E+03  0.17300000000E+03 0. -1.
         -6    1    1    2    0  502 -0.24851728058E+02  0.12027103099E+03  0.13095546354E+04  0.13266292143E+04  0.17300000000E+03 0.  1.
<mgrwt>
<rscale>  2 0.21215968E+03</rscale>
<asrwt>0</asrwt>
<pdfrwt beam="1">  1       21 0.27961614E+00 0.21215968E+03</pdfrwt>
<pdfrwt beam="2">  1       21 0.47799372E-02 0.21215968E+03</pdfrwt>
<totfact> 0.12742603E+04</totfact>
</mgrwt>
</event>
<event>
 4    1  0.4621995E+000  0.1779231E+03  0.7546771E-02  0.1169828E+00
         21   -1    0    0  503  502  0.00000000000E+00  0.00000000000E+00  0.88779767083E+02  0.88779767083E+02  0.00000000000E+00 0.  1.
         21   -1    0    0  501  503 -0.00000000000E+00 -0.00000000000E+00 -0.40367805132E+03  0.40367805132E+03  0.00000000000E+00 0.  1.
          6    1    1    2  501    0  0.39705666200E+02  0.12291622944E+02 -0.73339243159E+02  0.19244549491E+03  0.17300000000E+03 0.  1.
         -6    1    1    2    0  502 -0.39705666200E+02 -0.12291622944E+02 -0.24155904108E+03  0.30001232350E+03  0.17300000000E+03 0.  1.
<mgrwt>
<rscale>  2 0.17792308E+03</rscale>
<asrwt>0</asrwt>
<pdfrwt beam="1">  1       21 0.13658426E-01 0.17792308E+03</pdfrwt>
<pdfrwt beam="2">  1       21 0.62104314E-01 0.17792308E+03</pdfrwt>
<totfact> 0.11247271E+05</totfact>
</mgrwt>
</event>
<event>
 4    1  0.4621995E+000  0.2987079E+03  0.7546771E-02  0.1085888E+00
         21   -1    0    0  501  502  0.00000000000E+00  0.00000000000E+00  0.27345981495E+03  0.27345981495E+03  0.00000000000E+00 0.  1.
         21   -1    0    0  502  503 -0.00000000000E+00 -0.00000000000E+00 -0.37787983068E+03  0.37787983068E+03  0.00000000000E+00 0.  1.
          6    1    1    2  501    0 -0.20599779174E+03 -0.12985493315E+03  0.68125880176E+02  0.30637808247E+03  0.17300000000E+03 0.  1.
         -6    1    1    2    0  503  0.20599779174E+03  0.12985493315E+03 -0.17254589591E+03  0.34496156317E+03  0.17300000000E+03 0.  1.
<mgrwt>
<rscale>  2 0.29870787E+03</rscale>
<asrwt>0</asrwt>
<pdfrwt beam="1">  1       21 0.42070741E-01 0.29870787E+03</pdfrwt>
<pdfrwt beam="2">  1       21 0.58135358E-01 0.29870787E+03</pdfrwt>
<totfact> 0.14254490E+04</totfact>
</mgrwt>
</event>
<event>
 4    1  0.4621995E+000  0.2150764E+03  0.7546771E-02  0.1137608E+00
         21   -1    0    0  503  502  0.00000000000E+00  0.00000000000E+00  0.17996215413E+03  0.17996215413E+03  0.00000000000E+00 0. -1.
         21   -1    0    0  501  503 -0.00000000000E+00 -0.00000000000E+00 -0.27321666448E+03  0.27321666448E+03  0.00000000000E+00 0. -1.
          6    1    1    2  501    0  0.62131700824E+02 -0.11166255938E+03 -0.10175883252E+03  0.23793430902E+03  0.17300000000E+03 0. -1.
         -6    1    1    2    0  502 -0.62131700824E+02  0.11166255938E+03  0.85043221678E+01  0.21524450959E+03  0.17300000000E+03 0. -1.
<mgrwt>
<rscale>  2 0.21507644E+03</rscale>
<asrwt>0</asrwt>
<pdfrwt beam="1">  1       21 0.27686485E-01 0.21507644E+03</pdfrwt>
<pdfrwt beam="2">  1       21 0.42033333E-01 0.21507644E+03</pdfrwt>
<totfact> 0.67158499E+04</totfact>
</mgrwt>
</event>
<event>
 4    1  0.4621995E+000  0.2374497E+03  0.7546771E-02  0.1121503E+00
         21   -1    0    0  503  502  0.00000000000E+00  0.00000000000E+00  0.17774107055E+03  0.17774107055E+03  0.00000000000E+00 0. -1.
         21   -1    0    0  501  503 -0.00000000000E+00 -0.00000000000E+00 -0.45590255702E+03  0.45590255702E+03  0.00000000000E+00 0.  1.
          6    1    1    2  501    0  0.10592201138E+03  0.12342566290E+03 -0.31382212193E+03  0.39353105464E+03  0.17300000000E+03 0.  1.
         -6    1    1    2    0  502 -0.10592201138E+03 -0.12342566290E+03  0.35660635459E+02  0.24011257293E+03  0.17300000000E+03 0. -1.
<mgrwt>
<rscale>  2 0.23744971E+03</rscale>
<asrwt>0</asrwt>
<pdfrwt beam="1">  1       21 0.27344780E-01 0.23744971E+03</pdfrwt>
<pdfrwt beam="2">  1       21 0.70138856E-01 0.23744971E+03</pdfrwt>
<totfact> 0.22956408E+04</totfact>
</mgrwt>
</event>
<event>
 4    1  0.4621995E+000  0.2623952E+03  0.7546771E-02  0.1105713E+00
         21   -1    0    0  501  502  0.00000000000E+00  0.00000000000E+00  0.92727695773E+03  0.92727695773E+03  0.00000000000E+00 0. -1.
         21   -1    0    0  502  503 -0.00000000000E+00 -0.00000000000E+00 -0.13617519754E+03  0.13617519754E+03  0.00000000000E+00 0.  1.
          6    1    1    2  501    0  0.24720629330E+02  0.19573234467E+03  0.75411685450E+03  0.79846320548E+03  0.17300000000E+03 0. -1.
         -6    1    1    2    0  503 -0.24720629330E+02 -0.19573234467E+03  0.36984905695E+02  0.26498894980E+03  0.17300000000E+03 0.  1.
<mgrwt>
<rscale>  2 0.26239524E+03</rscale>
<asrwt>0</asrwt>
<pdfrwt beam="1">  1       21 0.14265799E+00 0.26239524E+03</pdfrwt>
<pdfrwt beam="2">  1       21 0.20950031E-01 0.26239524E+03</pdfrwt>
<totfact> 0.68707705E+03</totfact>
</mgrwt>
</event>
<event>
 4    1  0.4621995E+000  0.1881654E+03  0.7546771E-02  0.1160127E+00
         21   -1    0    0  503  502  0.00000000000E+00  0.00000000000E+00  0.63169233795E+02  0.63169233795E+02  0.00000000000E+00 0. -1.
         21   -1    0    0  501  503 -0.00000000000E+00 -0.00000000000E+00 -0.56178842066E+03  0.56178842066E+03  0.00000000000E+00 0. -1.
          6    1    1    2  501    0  0.73711937904E+02  0.66154484239E+01 -0.26428713366E+03  0.32442857914E+03  0.17300000000E+03 0. -1.
         -6    1    1    2    0  502 -0.73711937904E+02 -0.66154484239E+01 -0.23433205320E+03  0.30052907531E+03  0.17300000000E+03 0. -1.
<mgrwt>
<rscale>  2 0.18816539E+03</rscale>
<asrwt>0</asrwt>
<pdfrwt beam="1">  1       21 0.97183440E-02 0.18816539E+03</pdfrwt>
<pdfrwt beam="2">  1       21 0.86428984E-01 0.18816539E+03</pdfrwt>
<totfact> 0.98605164E+04</totfact>
</mgrwt>
</event>
<event>
 4    1  0.4621995E+000  0.1763725E+03  0.7546771E-02  0.1171361E+00
         21   -1    0    0  501  502  0.00000000000E+00  0.00000000000E+00  0.14545118246E+03  0.14545118246E+03  0.00000000000E+00 0. -1.
         21   -1    0    0  502  503 -0.00000000000E+00 -0.00000000000E+00 -0.26772080869E+03  0.26772080869E+03  0.00000000000E+00 0. -1.
          6    1    1    2  501    0  0.34282712913E+02  0.17226798447E+01  0.31519630175E+02  0.17916684715E+03  0.17300000000E+03 0. -1.
         -6    1    1    2    0  503 -0.34282712913E+02 -0.17226798447E+01 -0.15378925640E+03  0.23400514399E+03  0.17300000000E+03 0. -1.
<mgrwt>
<rscale>  2 0.17637254E+03</rscale>
<asrwt>0</asrwt>
<pdfrwt beam="1">  1       21 0.22377105E-01 0.17637254E+03</pdfrwt>
<pdfrwt beam="2">  1       21 0.41187817E-01 0.17637254E+03</pdfrwt>
<totfact> 0.10676794E+05</totfact>
</mgrwt>
</event>
<event>
 4    1  0.4621995E+000  0.1886735E+03  0.7546771E-02  0.1159663E+00
         21   -1    0    0  503  502  0.00000000000E+00  0.00000000000E+00  0.14370156555E+03  0.14370156555E+03  0.00000000000E+00 0. -1.
         21   -1    0    0  501  503 -0.00000000000E+00 -0.00000000000E+00 -0.93284175197E+03  0.93284175197E+03  0.00000000000E+00 0. -1.
          6    1    1    2  501    0  0.14969231835E+02  0.73787670060E+02 -0.85586804075E+03  0.87641759529E+03  0.17300000000E+03 0. -1.
         -6    1    1    2    0  502 -0.14969231835E+02 -0.73787670060E+02  0.66727854325E+02  0.20012572223E+03  0.17300000000E+03 0. -1.
<mgrwt>
<rscale>  2 0.18867352E+03</rscale>
<asrwt>0</asrwt>
<pdfrwt beam="1">  1       21 0.22107934E-01 0.18867352E+03</pdfrwt>
<pdfrwt beam="2">  1       21 0.14351411E+00 0.18867352E+03</pdfrwt>
<totfact> 0.64383710E+03</totfact>
</mgrwt>
</event>
<event>
 4    1  0.4621995E+000  0.2299161E+03  0.7546771E-02  0.1126699E+00
         21   -1    0    0  501  502  0.00000000000E+00  0.00000000000E+00  0.55882810987E+03  0.55882810987E+03  0.00000000000E+00 0. -1.
         21   -1    0    0  502  503 -0.00000000000E+00 -0.00000000000E+00 -0.11078360923E+03  0.11078360923E+03  0.00000000000E+00 0.  1.
          6    1    1    2  501    0 -0.15106018626E+03  0.10641209389E+02  0.35201411995E+03  0.42044661475E+03  0.17300000000E+03 0. -1.
         -6    1    1    2    0  503  0.15106018626E+03 -0.10641209389E+02  0.96030380695E+02  0.24916510435E+03  0.17300000000E+03 0.  1.
<mgrwt>
<rscale>  2 0.22991610E+03</rscale>
<asrwt>0</asrwt>
<pdfrwt beam="1">  1       21 0.85973554E-01 0.22991610E+03</pdfrwt>
<pdfrwt beam="2">  1       21 0.17043633E-01 0.22991610E+03</pdfrwt>
<totfact> 0.35556781E+04</totfact>
</mgrwt>
</event>
<event>
 4    1  0.4621995E+000  0.2372756E+03  0.7546771E-02  0.1121621E+00
         21   -1    0    0  503  502  0.00000000000E+00  0.00000000000E+00  0.67981869861E+02  0.67981869861E+02  0.00000000000E+00 0.  1.
         21   -1    0    0  501  503 -0.00000000000E+00 -0.00000000000E+00 -0.13515365126E+04  0.13515365126E+04  0.00000000000E+00 0.  1.
          6    1    1    2  501    0 -0.14826373774E+03 -0.66246180120E+02 -0.10834548503E+04  0.11091321405E+04  0.17300000000E+03 0.  1.
         -6    1    1    2    0  502  0.14826373774E+03  0.66246180120E+02 -0.20009979246E+03  0.31038624205E+03  0.17300000000E+03 0.  1.
<mgrwt>
<rscale>  2 0.23727556E+03</rscale>
<asrwt>0</asrwt>
<pdfrwt beam="1">  1       21 0.10458750E-01 0.23727556E+03</pdfrwt>
<pdfrwt beam="2">  1       21 0.20792869E+00 0.23727556E+03</pdfrwt>
<totfact> 0.86437777E+03</totfact>
</mgrwt>
</event>
<event>
 4    1  0.4621995E+000  0.2107388E+03  0.7546771E-02  0.1140982E+00
         21   -1    0    0  501  502  0.00000000000E+00  0.00000000000E+00  0.17136231831E+03  0.17136231831E+03  0.00000000000E+00 0.  1.
         21   -1    0    0  502  503 -0.00000000000E+00 -0.00000000000E+00 -0.25972343116E+03  0.25972343116E+03  0.00000000000E+00 0.  1.
          6    1    1    2  501    0  0.13685082289E+02  0.11955991379E+03 -0.34172405699E+02  0.21349147003E+03  0.17300000000E+03 0.  1.
         -6    1    1    2    0  503 -0.13685082289E+02 -0.11955991379E+03 -0.54188707147E+02  0.21759427944E+03  0.17300000000E+03 0.  1.
<mgrwt>
<rscale>  2 0.21073883E+03</rscale>
<asrwt>0</asrwt>
<pdfrwt beam="1">  1       21 0.26363434E-01 0.21073883E+03</pdfrwt>
<pdfrwt beam="2">  1       21 0.39957450E-01 0.21073883E+03</pdfrwt>
<totfact> 0.81965889E+04</totfact>
</mgrwt>
</event>
<event>
 4    1  0.4621995E+000  0.2093669E+03  0.7546771E-02  0.1142068E+00
         21   -1    0    0  501  502  0.00000000000E+00  0.00000000000E+00  0.97104237534E+02  0.97104237534E+02  0.00000000000E+00 0. -1.
         21   -1    0    0  502  503 -0.00000000000E+00 -0.00000000000E+00 -0.46586104505E+03  0.46586104505E+03  0.00000000000E+00 0. -1.
          6    1    1    2  501    0 -0.29371239474E+02  0.11420520851E+03 -0.13481415910E+03  0.24901678027E+03  0.17300000000E+03 0. -1.
         -6    1    1    2    0  503  0.29371239474E+02 -0.11420520851E+03 -0.23394264842E+03  0.31394850232E+03  0.17300000000E+03 0. -1.
<mgrwt>
<rscale>  2 0.20936690E+03</rscale>
<asrwt>0</asrwt>
<pdfrwt beam="1">  1       21 0.14939114E-01 0.20936690E+03</pdfrwt>
<pdfrwt beam="2">  1       21 0.71670929E-01 0.20936690E+03</pdfrwt>
<totfact> 0.68982479E+04</totfact>
</mgrwt>
</event>
<event>
 4    1  0.4621995E+000  0.2062289E+03  0.7546771E-02  0.1144588E+00
         21   -1    0    0  503  502  0.00000000000E+00  0.00000000000E+00  0.51296924572E+03  0.51296924572E+03  0.00000000000E+00 0.  1.
         21   -1    0    0  501  503 -0.00000000000E+00 -0.00000000000E+00 -0.83796100946E+02  0.83796100946E+02  0.00000000000E+00 0.  1.
          6    1    1    2  501    0 -0.25676550491E+02  0.10927983669E+03  0.18390614877E+03  0.27631836622E+03  0.17300000000E+03 0.  1.
         -6    1    1    2    0  502  0.25676550491E+02 -0.10927983669E+03  0.24526699600E+03  0.32044698045E+03  0.17300000000E+03 0.  1.
<mgrwt>
<rscale>  2 0.20622892E+03</rscale>
<asrwt>0</asrwt>
<pdfrwt beam="1">  1       21 0.78918344E-01 0.20622892E+03</pdfrwt>
<pdfrwt beam="2">  1       21 0.12891708E-01 0.20622892E+03</pdfrwt>
<totfact> 0.72736519E+04</totfact>
</mgrwt>
</event>
<event>
 4    1  0.4621995E+000  0.2081919E+03  0.7546771E-02  0.1143006E+00
         21   -1    0    0  503  502  0.00000000000E+00  0.00000000000E+00  0.47232275492E+03  0.47232275492E+03  0.00000000000E+00 0.  1.
         21   -1    0    0  501  503 -0.00000000000E+00 -0.00000000000E+00 -0.92280758876E+02  0.92280758876E+02  0.00000000000E+00 0.  1.
          6    1    1    2  501    0 -0.81712111572E+02  0.82085423306E+02  0.21107426669E+03  0.29647298689E+03  0.17300000000E+03 0.  1.
         -6    1    1    2    0  502  0.81712111572E+02 -0.82085423306E+02  0.16896772935E+03  0.26813052691E+03  0.17300000000E+03 0.  1.
<mgrwt>
<rscale>  2 0.20819194E+03</rscale>
<asrwt>0</asrwt>
<pdfrwt beam="1">  1       21 0.72665038E-01 0.20819194E+03</pdfrwt>
<pdfrwt beam="2">  1       21 0.14197040E-01 0.20819194E+03</pdfrwt>
<totfact> 0.73441855E+04</totfact>
</mgrwt>
</event>
<event>
 4    1  0.4621995E+000  0.1871028E+03  0.7546771E-02  0.1161101E+00
         21   -1    0    0  503  502  0.00000000000E+00  0.00000000000E+00  0.16772408903E+03  0.16772408903E+03  0.00000000000E+00 0. -1.
         21   -1    0    0  501  503 -0.00000000000E+00 -0.00000000000E+00 -0.80366905093E+03  0.80366905093E+03  0.00000000000E+00 0. -1.
          6    1    1    2  501    0  0.54359815658E+02 -0.46081015806E+02 -0.73586647866E+03  0.75928053050E+03  0.17300000000E+03 0. -1.
         -6    1    1    2    0  502 -0.54359815658E+02  0.46081015806E+02  0.99921516769E+02  0.21211260945E+03  0.17300000000E+03 0. -1.
<mgrwt>
<rscale>  2 0.18710278E+03</rscale>
<asrwt>0</asrwt>
<pdfrwt beam="1">  1       21 0.25803705E-01 0.18710278E+03</pdfrwt>
<pdfrwt beam="2">  1       21 0.12364140E+00 0.18710278E+03</pdfrwt>
<totfact> 0.70195388E+03</totfact>
</mgrwt>
</event>
<event>
 4    1  0.4621995E+000  0.1935617E+03  0.7546771E-02  0.1155288E+00
         21   -1    0    0  503  502  0.00000000000E+00  0.00000000000E+00  0.18603584302E+03  0.18603584302E+03  0.00000000000E+00 0.  1.
         21   -1    0    0  501  503 -0.00000000000E+00 -0.00000000000E+00 -0.20270704411E+03  0.20270704411E+03  0.00000000000E+00 0.  1.
          6    1    1    2  501    0 -0.79311830745E+02 -0.35309558914E+02 -0.23991115461E+02  0.19504282880E+03  0.17300000000E+03 0.  1.
         -6    1    1    2    0  502  0.79311830745E+02  0.35309558914E+02  0.73199143733E+01  0.19370005832E+03  0.17300000000E+03 0.  1.
<mgrwt>
<rscale>  2 0.19356170E+03</rscale>
<asrwt>0</asrwt>
<pdfrwt beam="1">  1       21 0.28620899E-01 0.19356170E+03</pdfrwt>
<pdfrwt beam="2">  1       21 0.31185699E-01 0.19356170E+03</pdfrwt>
<totfact> 0.11532666E+05</totfact>
</mgrwt>
</event>
<event>
 4    1  0.4621995E+000  0.2175758E+03  0.7546771E-02  0.1135703E+00
         21   -1    0    0  501  502  0.00000000000E+00  0.00000000000E+00  0.74676528265E+02  0.74676528265E+02  0.00000000000E+00 0. -1.
         21   -1    0    0  502  503 -0.00000000000E+00 -0.00000000000E+00 -0.68578650295E+03  0.68578650295E+03  0.00000000000E+00 0.  1.
          6    1    1    2  501    0  0.56331379275E+02  0.11931884094E+03 -0.20099097170E+03  0.29620361375E+03  0.17300000000E+03 0. -1.
         -6    1    1    2    0  503 -0.56331379275E+02 -0.11931884094E+03 -0.41011900299E+03  0.46425941747E+03  0.17300000000E+03 0.  1.
<mgrwt>
<rscale>  2 0.21757576E+03</rscale>
<asrwt>0</asrwt>
<pdfrwt beam="1">  1       21 0.11488697E-01 0.21757576E+03</pdfrwt>
<pdfrwt beam="2">  1       21 0.10550561E+00 0.21757576E+03</pdfrwt>
<totfact> 0.45223625E+04</totfact>
</mgrwt>
</event>
<event>
 4    1  0.4621995E+000  0.2266018E+03  0.7546771E-02  0.1129055E+00
         21   -1    0    0  501  502  0.00000000000E+00  0.00000000000E+00  0.45457564879E+03  0.45457564879E+03  0.00000000000E+00 0. -1.
         21   -1    0    0  502  503 -0.00000000000E+00 -0.00000000000E+00 -0.12550137495E+03  0.12550137495E+03  0.00000000000E+00 0. -1.
          6    1    1    2  501    0  0.11497078744E+03 -0.90559802040E+02  0.25622740839E+03  0.34205386202E+03  0.17300000000E+03 0. -1.
         -6    1    1    2    0  503 -0.11497078744E+03  0.90559802040E+02  0.72846865453E+02  0.23802316172E+03  0.17300000000E+03 0. -1.
<mgrwt>
<rscale>  2 0.22660176E+03</rscale>
<asrwt>0</asrwt>
<pdfrwt beam="1">  1       21 0.69934714E-01 0.22660176E+03</pdfrwt>
<pdfrwt beam="2">  1       21 0.19307904E-01 0.22660176E+03</pdfrwt>
<totfact> 0.45019397E+04</totfact>
</mgrwt>
</event>
<event>
 4    1  0.4621995E+000  0.1840523E+03  0.7546771E-02  0.1163938E+00
         21   -1    0    0  501  502  0.00000000000E+00  0.00000000000E+00  0.12979338453E+03  0.12979338453E+03  0.00000000000E+00 0. -1.
         21   -1    0    0  502  503 -0.00000000000E+00 -0.00000000000E+00 -0.29415329099E+03  0.29415329099E+03  0.00000000000E+00 0. -1.
          6    1    1    2  501    0 -0.22141669722E+02 -0.58787583518E+02 -0.11009442460E+02  0.18438123911E+03  0.17300000000E+03 0. -1.
         -6    1    1    2    0  503  0.22141669722E+02  0.58787583518E+02 -0.15335046399E+03  0.23956543641E+03  0.17300000000E+03 0. -1.
<mgrwt>
<rscale>  2 0.18405226E+03</rscale>
<asrwt>0</asrwt>
<pdfrwt beam="1">  1       21 0.19968213E-01 0.18405226E+03</pdfrwt>
<pdfrwt beam="2">  1       21 0.45254352E-01 0.18405226E+03</pdfrwt>
<totfact> 0.10878568E+05</totfact>
</mgrwt>
</event>
<event>
 4    1  0.4621995E+000  0.2061698E+03  0.7546771E-02  0.1144636E+00
         21   -1    0    0  501  502  0.00000000000E+00  0.00000000000E+00  0.99939976357E+03  0.99939976357E+03  0.00000000000E+00 0.  1.
         21   -1    0    0  502  503 -0.00000000000E+00 -0.00000000000E+00 -0.42620884355E+02  0.42620884355E+02  0.00000000000E+00 0. -1.
          6    1    1    2  501    0  0.73195845870E+02  0.84966753256E+02  0.50224785670E+03  0.54291701997E+03  0.17300000000E+03 0. -1.
         -6    1    1    2    0  503 -0.73195845870E+02 -0.84966753256E+02  0.45453102252E+03  0.49910362796E+03  0.17300000000E+03 0. -1.
<mgrwt>
<rscale>  2 0.20616979E+03</rscale>
<asrwt>0</asrwt>
<pdfrwt beam="1">  1       21 0.15375379E+00 0.20616979E+03</pdfrwt>
<pdfrwt beam="2">  1       21 0.65570599E-02 0.20616979E+03</pdfrwt>
<totfact> 0.47039583E+04</totfact>
</mgrwt>
</event>
<event>
 4    1  0.4621995E+000  0.1969711E+03  0.7546771E-02  0.1152320E+00
         21   -1    0    0  501  502  0.00000000000E+00  0.00000000000E+00  0.33982116488E+03  0.33982116488E+03  0.00000000000E+00 0. -1.
         21   -1    0    0  502  503 -0.00000000000E+00 -0.00000000000E+00 -0.30552682305E+03  0.30552682305E+03  0.00000000000E+00 0. -1.
          6    1    1    2  501    0  0.84826975702E+02  0.40902321057E+02  0.27251165141E+03  0.33624428000E+03  0.17300000000E+03 0. -1.
         -6    1    1    2    0  503 -0.84826975702E+02 -0.40902321057E+02 -0.23821730958E+03  0.30910370794E+03  0.17300000000E+03 0. -1.
<mgrwt>
<rscale>  2 0.19697110E+03</rscale>
<asrwt>0</asrwt>
<pdfrwt beam="1">  1       21 0.52280179E-01 0.19697110E+03</pdfrwt>
<pdfrwt beam="2">  1       21 0.47004127E-01 0.19697110E+03</pdfrwt>
<totfact> 0.14994667E+04</totfact>
</mgrwt>
</event>
<event>
 4    1  0.4621995E+000  0.1882362E+03  0.7546771E-02  0.1160062E+00
         21   -1    0    0  503  502  0.00000000000E+00  0.00000000000E+00  0.36065292836E+03  0.36065292836E+03  0.00000000000E+00 0.  1.
         21   -1    0    0  501  503 -0.00000000000E+00 -0.00000000000E+00 -0.20457881787E+03  0.20457881787E+03  0.00000000000E+00 0. -1.
          6    1    1    2  501    0  0.42920923888E+02  0.60511670981E+02 -0.12571357982E+03  0.22635541121E+03  0.17300000000E+03 0. -1.
         -6    1    1    2    0  502 -0.42920923888E+02 -0.60511670981E+02  0.28178769030E+03  0.33887633502E+03  0.17300000000E+03 0.  1.
<mgrwt>
<rscale>  2 0.18823620E+03</rscale>
<asrwt>0</asrwt>
<pdfrwt beam="1">  1       21 0.55485066E-01 0.18823620E+03</pdfrwt>
<pdfrwt beam="2">  1       21 0.31473664E-01 0.18823620E+03</pdfrwt>
<totfact> 0.29778601E+04</totfact>
</mgrwt>
</event>
<event>
 4    1  0.4621995E+000  0.2046329E+03  0.7546771E-02  0.1145888E+00
         21   -1    0    0  501  502  0.00000000000E+00  0.00000000000E+00  0.88173018829E+03  0.88173018829E+03  0.00000000000E+00 0.  1.
         21   -1    0    0  502  503 -0.00000000000E+00 -0.00000000000E+00 -0.84967088221E+02  0.84967088221E+02  0.00000000000E+00 0.  1.
          6    1    1    2  501    0 -0.22344841341E+02  0.10698750706E+03  0.71938509240E+03  0.74792347855E+03  0.17300000000E+03 0.  1.
         -6    1    1    2    0  503  0.22344841341E+02 -0.10698750706E+03  0.77378007667E+02  0.21877379796E+03  0.17300000000E+03 0.  1.
<mgrwt>
<rscale>  2 0.20463289E+03</rscale>
<asrwt>0</asrwt>
<pdfrwt beam="1">  1       21 0.13565079E+00 0.20463289E+03</pdfrwt>
<pdfrwt beam="2">  1       21 0.13071860E-01 0.20463289E+03</pdfrwt>
<totfact> 0.19377220E+04</totfact>
</mgrwt>
</event>
<event>
 4    1  0.4621995E+000  0.1839963E+03  0.7546771E-02  0.1163990E+00
         21   -1    0    0  503  502  0.00000000000E+00  0.00000000000E+00  0.20962715261E+03  0.20962715261E+03  0.00000000000E+00 0.  1.
         21   -1    0    0  501  503 -0.00000000000E+00 -0.00000000000E+00 -0.17815869439E+03  0.17815869439E+03  0.00000000000E+00 0. -1.
          6    1    1    2  501    0  0.60175403085E+02 -0.17451973475E+02 -0.43556569520E+02  0.18908153073E+03  0.17300000000E+03 0. -1.
         -6    1    1    2    0  502 -0.60175403085E+02  0.17451973475E+02  0.75025027738E+02  0.19870431626E+03  0.17300000000E+03 0.  1.
<mgrwt>
<rscale>  2 0.18399633E+03</rscale>
<asrwt>0</asrwt>
<pdfrwt beam="1">  1       21 0.32250331E-01 0.18399633E+03</pdfrwt>
<pdfrwt beam="2">  1       21 0.27409030E-01 0.18399633E+03</pdfrwt>
<totfact> 0.11779112E+05</totfact>
</mgrwt>
</event>
<event>
 4    1  0.4621995E+000  0.1908994E+03  0.7546771E-02  0.1157653E+00
         21   -1    0    0  501  502  0.00000000000E+00  0.00000000000E+00  0.14744516235E+04  0.14744516235E+04  0.00000000000E+00 0. -1.
         21   -1    0    0  502  503 -0.00000000000E+00 -0.00000000000E+00 -0.26084916385E+02  0.26084916385E+02  0.00000000000E+00 0. -1.
          6    1    1    2  501    0 -0.25616195399E+01  0.80666172737E+02  0.89605540491E+03  0.91616476793E+03  0.17300000000E+03 0. -1.
         -6    1    1    2    0  503  0.25616195399E+01 -0.80666172737E+02  0.55231130217E+03  0.58437177192E+03  0.17300000000E+03 0. -1.
<mgrwt>
<rscale>  2 0.19089943E+03</rscale>
<asrwt>0</asrwt>
<pdfrwt beam="1">  1       21 0.22683865E+00 0.19089943E+03</pdfrwt>
<pdfrwt beam="2">  1       21 0.40130652E-02 0.19089943E+03</pdfrwt>
<totfact> 0.35663111E+04</totfact>
</mgrwt>
</event>
<event>
 4    1  0.4621995E+000  0.2365966E+03  0.7546771E-02  0.1122081E+00
         21   -1    0    0  501  502  0.00000000000E+00  0.00000000000E+00  0.10969287204E+04  0.10969287204E+04  0.00000000000E+00 0. -1.
         21   -1    0    0  502  503 -0.00000000000E+00 -0.00000000000E+00 -0.90131785630E+02  0.90131785630E+02  0.00000000000E+00 0. -1.
          6    1    1    2  501    0 -0.14983999894E+03 -0.59974267930E+02  0.89432372955E+03  0.92509073681E+03  0.17300000000E+03 0. -1.
         -6    1    1    2    0  503  0.14983999894E+03  0.59974267930E+02  0.11247320524E+03  0.26196976924E+03  0.17300000000E+03 0. -1.
<mgrwt>
<rscale>  2 0.23659657E+03</rscale>
<asrwt>0</asrwt>
<pdfrwt beam="1">  1       21 0.16875826E+00 0.23659657E+03</pdfrwt>
<pdfrwt beam="2">  1       21 0.13866429E-01 0.23659657E+03</pdfrwt>
<totfact> 0.95367038E+03</totfact>
</mgrwt>
</event>
<event>
 4    1  0.4621995E+000  0.2287569E+03  0.7546771E-02  0.1127518E+00
         21   -1    0    0  503  502  0.00000000000E+00  0.00000000000E+00  0.58979542802E+03  0.58979542802E+03  0.00000000000E+00 0.  1.
         21   -1    0    0  501  503 -0.00000000000E+00 -0.00000000000E+00 -0.10690751435E+03  0.10690751435E+03  0.00000000000E+00 0.  1.
          6    1    1    2  501    0  0.14632526405E+03 -0.31458563699E+02  0.97783257636E+02  0.24877960045E+03  0.17300000000E+03 0.  1.
         -6    1    1    2    0  502 -0.14632526405E+03  0.31458563699E+02  0.38510465603E+03  0.44792334191E+03  0.17300000000E+03 0.  1.
<mgrwt>
<rscale>  2 0.22875691E+03</rscale>
<asrwt>0</asrwt>
<pdfrwt beam="1">  1       21 0.90737756E-01 0.22875691E+03</pdfrwt>
<pdfrwt beam="2">  1       21 0.16447310E-01 0.22875691E+03</pdfrwt>
<totfact> 0.33529729E+04</totfact>
</mgrwt>
</event>
<event>
 4    1  0.4621995E+000  0.2655569E+03  0.7546771E-02  0.1103850E+00
         21   -1    0    0  501  502  0.00000000000E+00  0.00000000000E+00  0.14601263859E+04  0.14601263859E+04  0.00000000000E+00 0. -1.
         21   -1    0    0  502  503 -0.00000000000E+00 -0.00000000000E+00 -0.66646174980E+02  0.66646174980E+02  0.00000000000E+00 0.  1.
          6    1    1    2  501    0 -0.16545830247E+03  0.11495663159E+03  0.10972921054E+04  0.11289687514E+04  0.17300000000E+03 0.  1.
         -6    1    1    2    0  503  0.16545830247E+03 -0.11495663159E+03  0.29618810551E+03  0.39780380950E+03  0.17300000000E+03 0.  1.
<mgrwt>
<rscale>  2 0.26555692E+03</rscale>
<asrwt>0</asrwt>
<pdfrwt beam="1">  1       21 0.22463480E+00 0.26555692E+03</pdfrwt>
<pdfrwt beam="2">  1       21 0.10253259E-01 0.26555692E+03</pdfrwt>
<totfact> 0.68966700E+03</totfact>
</mgrwt>
</event>
<event>
 4    1  0.4621995E+000  0.1955589E+03  0.7546771E-02  0.1153541E+00
         21   -1    0    0  501  502  0.00000000000E+00  0.00000000000E+00  0.19827464091E+03  0.19827464091E+03  0.00000000000E+00 0. -1.
         21   -1    0    0  502  503 -0.00000000000E+00 -0.00000000000E+00 -0.34448260234E+03  0.34448260234E+03  0.00000000000E+00 0. -1.
          6    1    1    2  501    0 -0.64443201816E+02 -0.64508597434E+02  0.10692598087E+03  0.22288214551E+03  0.17300000000E+03 0. -1.
         -6    1    1    2    0  503  0.64443201816E+02  0.64508597434E+02 -0.25313394230E+03  0.31987509773E+03  0.17300000000E+03 0. -1.
<mgrwt>
<rscale>  2 0.19555891E+03</rscale>
<asrwt>0</asrwt>
<pdfrwt beam="1">  1       21 0.30503791E-01 0.19555891E+03</pdfrwt>
<pdfrwt beam="2">  1       21 0.52997323E-01 0.19555891E+03</pdfrwt>
<totfact> 0.34742133E+04</totfact>
</mgrwt>
</event>
<event>
 4    1  0.4621995E+000  0.2038462E+03  0.7546771E-02  0.1146534E+00
         21   -1    0    0  503  502  0.00000000000E+00  0.00000000000E+00  0.63863532442E+03  0.63863532442E+03  0.00000000000E+00 0.  1.
         21   -1    0    0  501  503 -0.00000000000E+00 -0.00000000000E+00 -0.87897813254E+02  0.87897813254E+02  0.00000000000E+00 0. -1.
          6    1    1    2  501    0 -0.10641832063E+03 -0.17303241319E+02  0.90224879448E+02  0.22292103983E+03  0.17300000000E+03 0. -1.
         -6    1    1    2    0  502  0.10641832063E+03  0.17303241319E+02  0.46051263172E+03  0.50361209785E+03  0.17300000000E+03 0.  1.
<mgrwt>
<rscale>  2 0.20384617E+03</rscale>
<asrwt>0</asrwt>
<pdfrwt beam="1">  1       21 0.98251585E-01 0.20384617E+03</pdfrwt>
<pdfrwt beam="2">  1       21 0.13522741E-01 0.20384617E+03</pdfrwt>
<totfact> 0.40278465E+04</totfact>
</mgrwt>
</event>
<event>
 4    1  0.4621995E+000  0.2070932E+03  0.7546771E-02  0.1143889E+00
         21   -1    0    0  503  502  0.00000000000E+00  0.00000000000E+00  0.28789811005E+02  0.28789811005E+02  0.00000000000E+00 0.  1.
         21   -1    0    0  501  503 -0.00000000000E+00 -0.00000000000E+00 -0.23585011040E+04  0.23585011040E+04  0.00000000000E+00 0.  1.
          6    1    1    2  501    0 -0.86995352870E+02 -0.73419224943E+02 -0.18893295783E+04  0.19006456349E+04  0.17300000000E+03 0.  1.
         -6    1    1    2    0  502  0.86995352870E+02  0.73419224943E+02 -0.44038171467E+03  0.48664528008E+03  0.17300000000E+03 0.  1.
<mgrwt>
<rscale>  2 0.20709315E+03</rscale>
<asrwt>0</asrwt>
<pdfrwt beam="1">  1       21 0.44292031E-02 0.20709315E+03</pdfrwt>
<pdfrwt beam="2">  1       21 0.36284620E+00 0.20709315E+03</pdfrwt>
<totfact> 0.47565876E+03</totfact>
</mgrwt>
</event>
<event>
 4    1  0.4621995E+000  0.2644528E+03  0.7546771E-02  0.1104497E+00
         21   -1    0    0  501  502  0.00000000000E+00  0.00000000000E+00  0.14533305832E+03  0.14533305832E+03  0.00000000000E+00 0.  1.
         21   -1    0    0  502  503 -0.00000000000E+00 -0.00000000000E+00 -0.48496935174E+03  0.48496935174E+03  0.00000000000E+00 0.  1.
          6    1    1    2  501    0  0.63866142117E+01  0.19991367708E+03 -0.19757681457E+03  0.33010886807E+03  0.17300000000E+03 0.  1.
         -6    1    1    2    0  503 -0.63866142117E+01 -0.19991367708E+03 -0.14205947884E+03  0.30019354199E+03  0.17300000000E+03 0.  1.
<mgrwt>
<rscale>  2 0.26445277E+03</rscale>
<asrwt>0</asrwt>
<pdfrwt beam="1">  1       21 0.22358932E-01 0.26445277E+03</pdfrwt>
<pdfrwt beam="2">  1       21 0.74610669E-01 0.26445277E+03</pdfrwt>
<totfact> 0.29063450E+04</totfact>
</mgrwt>
</event>
<event>
 4    1  0.4621995E+000  0.1791709E+03  0.7546771E-02  0.1168608E+00
         21   -1    0    0  501  502  0.00000000000E+00  0.00000000000E+00  0.29075903262E+03  0.29075903262E+03  0.00000000000E+00 0.  1.
         21   -1    0    0  502  503 -0.00000000000E+00 -0.00000000000E+00 -0.11077685412E+03  0.11077685412E+03  0.00000000000E+00 0.  1.
          6    1    1    2  501    0  0.20291724149E+02  0.41969745395E+02  0.10157124009E+03  0.20595856479E+03  0.17300000000E+03 0.  1.
         -6    1    1    2    0  503 -0.20291724149E+02 -0.41969745395E+02  0.78410938403E+02  0.19557732194E+03  0.17300000000E+03 0.  1.
<mgrwt>
<rscale>  2 0.17917091E+03</rscale>
<asrwt>0</asrwt>
<pdfrwt beam="1">  1       21 0.44732159E-01 0.17917091E+03</pdfrwt>
<pdfrwt beam="2">  1       21 0.17042593E-01 0.17917091E+03</pdfrwt>
<totfact> 0.14962003E+05</totfact>
</mgrwt>
</event>
<event>
 4    1  0.4621995E+000  0.1804601E+03  0.7546771E-02  0.1167359E+00
         21   -1    0    0  503  502  0.00000000000E+00  0.00000000000E+00  0.12281837450E+03  0.12281837450E+03  0.00000000000E+00 0. -1.
         21   -1    0    0  501  503 -0.00000000000E+00 -0.00000000000E+00 -0.28599232892E+03  0.28599232892E+03  0.00000000000E+00 0. -1.
          6    1    1    2  501    0  0.44353984448E+02  0.25875981186E+02 -0.13676187064E+03  0.22642802742E+03  0.17300000000E+03 0. -1.
         -6    1    1    2    0  502 -0.44353984448E+02 -0.25875981186E+02 -0.26412083775E+02  0.18238267601E+03  0.17300000000E+03 0. -1.
<mgrwt>
<rscale>  2 0.18046009E+03</rscale>
<asrwt>0</asrwt>
<pdfrwt beam="1">  1       21 0.18895135E-01 0.18046009E+03</pdfrwt>
<pdfrwt beam="2">  1       21 0.43998820E-01 0.18046009E+03</pdfrwt>
<totfact> 0.12787480E+05</totfact>
</mgrwt>
</event>
<event>
 4    1  0.4621995E+000  0.1901227E+03  0.7546771E-02  0.1158351E+00
         21   -1    0    0  501  502  0.00000000000E+00  0.00000000000E+00  0.40146748034E+03  0.40146748034E+03  0.00000000000E+00 0.  1.
         21   -1    0    0  502  503 -0.00000000000E+00 -0.00000000000E+00 -0.15913379543E+03  0.15913379543E+03  0.00000000000E+00 0.  1.
          6    1    1    2  501    0 -0.49202709018E+02 -0.61617502663E+02  0.30586995361E+03  0.36014309896E+03  0.17300000000E+03 0.  1.
         -6    1    1    2    0  503  0.49202709018E+02  0.61617502663E+02 -0.63536268694E+02  0.20045817681E+03  0.17300000000E+03 0.  1.
<mgrwt>
<rscale>  2 0.19012265E+03</rscale>
<asrwt>0</asrwt>
<pdfrwt beam="1">  1       21 0.61764227E-01 0.19012265E+03</pdfrwt>
<pdfrwt beam="2">  1       21 0.24482123E-01 0.19012265E+03</pdfrwt>
<totfact> 0.38426950E+04</totfact>
</mgrwt>
</event>
<event>
 4    1  0.4621995E+000  0.1761392E+03  0.7546771E-02  0.1171593E+00
         21   -1    0    0  503  502  0.00000000000E+00  0.00000000000E+00  0.28649853578E+03  0.28649853578E+03  0.00000000000E+00 0. -1.
         21   -1    0    0  501  503 -0.00000000000E+00 -0.00000000000E+00 -0.40320895060E+03  0.40320895060E+03  0.00000000000E+00 0. -1.
          6    1    1    2  501    0  0.21203848375E+02  0.25425026357E+02 -0.35328654661E+03  0.39476121791E+03  0.17300000000E+03 0. -1.
         -6    1    1    2    0  502 -0.21203848375E+02 -0.25425026357E+02  0.23657613179E+03  0.29494626847E+03  0.17300000000E+03 0. -1.
<mgrwt>
<rscale>  2 0.17613925E+03</rscale>
<asrwt>0</asrwt>
<pdfrwt beam="1">  1       21 0.44076698E-01 0.17613925E+03</pdfrwt>
<pdfrwt beam="2">  1       21 0.62032146E-01 0.17613925E+03</pdfrwt>
<totfact> 0.12058769E+04</totfact>
</mgrwt>
</event>
<event>
 4    1  0.4621995E+000  0.2647786E+03  0.7546771E-02  0.1104306E+00
         21   -1    0    0  501  502  0.00000000000E+00  0.00000000000E+00  0.62064459164E+02  0.62064459164E+02  0.00000000000E+00 0. -1.
         21   -1    0    0  502  503 -0.00000000000E+00 -0.00000000000E+00 -0.17778745302E+04  0.17778745302E+04  0.00000000000E+00 0.  1.
          6    1    1    2  501    0  0.16672702332E+03 -0.11126897040E+03 -0.30237937070E+03  0.40192159422E+03  0.17300000000E+03 0.  1.
         -6    1    1    2    0  503 -0.16672702332E+03  0.11126897040E+03 -0.14134307003E+04  0.14380173951E+04  0.17300000000E+03 0.  1.
<mgrwt>
<rscale>  2 0.26477856E+03</rscale>
<asrwt>0</asrwt>
<pdfrwt beam="1">  1       21 0.95483793E-02 0.26477856E+03</pdfrwt>
<pdfrwt beam="2">  1       21 0.27351913E+00 0.26477856E+03</pdfrwt>
<totfact> 0.39844993E+03</totfact>
</mgrwt>
</event>
<event>
 4    1  0.4621995E+000  0.1831464E+03  0.7546771E-02  0.1164792E+00
         21   -1    0    0  503  502  0.00000000000E+00  0.00000000000E+00  0.12978844011E+04  0.12978844011E+04  0.00000000000E+00 0.  1.
         21   -1    0    0  501  503 -0.00000000000E+00 -0.00000000000E+00 -0.46667936427E+02  0.46667936427E+02  0.00000000000E+00 0.  1.
          6    1    1    2  501    0 -0.40818026788E+02 -0.44130598493E+02  0.10746834161E+04  0.10901775387E+04  0.17300000000E+03 0.  1.
         -6    1    1    2    0  502  0.40818026788E+02  0.44130598493E+02  0.17653304852E+03  0.25437479878E+03  0.17300000000E+03 0.  1.
<mgrwt>
<rscale>  2 0.18314645E+03</rscale>
<asrwt>0</asrwt>
<pdfrwt beam="1">  1       21 0.19967450E+00 0.18314645E+03</pdfrwt>
<pdfrwt beam="2">  1       21 0.71796835E-02 0.18314645E+03</pdfrwt>
<totfact> 0.19676904E+04</totfact>
</mgrwt>
</event>
<event>
 4    1  0.4621995E+000  0.2013578E+03  0.7546771E-02  0.1148598E+00
         21   -1    0    0  501  502  0.00000000000E+00  0.00000000000E+00  0.10089592020E+03  0.10089592020E+03  0.00000000000E+00 0.  1.
         21   -1    0    0  502  503 -0.00000000000E+00 -0.00000000000E+00 -0.40246591462E+03  0.40246591462E+03  0.00000000000E+00 0.  1.
          6    1    1    2  501    0  0.80990427386E+02  0.63690776348E+02 -0.16063553135E+03  0.25758248825E+03  0.17300000000E+03 0.  1.
         -6    1    1    2    0  503 -0.80990427386E+02 -0.63690776348E+02 -0.14093446307E+03  0.24577934657E+03  0.17300000000E+03 0.  1.
<mgrwt>
<rscale>  2 0.20135780E+03</rscale>
<asrwt>0</asrwt>
<pdfrwt beam="1">  1       21 0.15522449E-01 0.20135780E+03</pdfrwt>
<pdfrwt beam="2">  1       21 0.61917833E-01 0.20135780E+03</pdfrwt>
<totfact> 0.88913764E+04</totfact>
</mgrwt>
</event>
<event>
 4    1  0.4621995E+000  0.2440945E+03  0.7546771E-02  0.1117095E+00
         21   -1    0    0  503  502  0.00000000000E+00  0.00000000000E+00  0.11534531021E+03  0.11534531021E+03  0.00000000000E+00 0.  1.
         21   -1    0    0  501  503 -0.00000000000E+00 -0.00000000000E+00 -0.53935188990E+03  0.53935188990E+03  0.00000000000E+00 0.  1.
          6    1    1    2  501    0 -0.16072014498E+03 -0.61823682612E+02 -0.27930366266E+03  0.37093485777E+03  0.17300000000E+03 0. -1.
         -6    1    1    2    0  502  0.16072014498E+03  0.61823682612E+02 -0.14470291703E+03  0.28376234234E+03  0.17300000000E+03 0. -1.
<mgrwt>
<rscale>  2 0.24409452E+03</rscale>
<asrwt>0</asrwt>
<pdfrwt beam="1">  1       21 0.17745432E-01 0.24409452E+03</pdfrwt>
<pdfrwt beam="2">  1       21 0.82977214E-01 0.24409452E+03</pdfrwt>
<totfact> 0.35565948E+04</totfact>
</mgrwt>
</event>
<event>
 4    1  0.4621995E+000  0.2841991E+03  0.7546771E-02  0.1093417E+00
         21   -1    0    0  501  502  0.00000000000E+00  0.00000000000E+00  0.81685048306E+02  0.81685048306E+02  0.00000000000E+00 0.  1.
         21   -1    0    0  502  503 -0.00000000000E+00 -0.00000000000E+00 -0.11506064232E+04  0.11506064232E+04  0.00000000000E+00 0. -1.
          6    1    1    2  501    0  0.17808144237E+03 -0.13830091847E+03 -0.30339530980E+03  0.41571367331E+03  0.17300000000E+03 0.  1.
         -6    1    1    2    0  503 -0.17808144237E+03  0.13830091847E+03 -0.76552606512E+03  0.81657779822E+03  0.17300000000E+03 0. -1.
<mgrwt>
<rscale>  2 0.28419913E+03</rscale>
<asrwt>0</asrwt>
<pdfrwt beam="1">  1       21 0.12566931E-01 0.28419913E+03</pdfrwt>
<pdfrwt beam="2">  1       21 0.17701636E+00 0.28419913E+03</pdfrwt>
<totfact> 0.96861198E+03</totfact>
</mgrwt>
</event>
<event>
 4    1  0.4621995E+000  0.2989819E+03  0.7546771E-02  0.1085751E+00
         21   -1    0    0  503  502  0.00000000000E+00  0.00000000000E+00  0.12880861608E+04  0.12880861608E+04  0.00000000000E+00 0.  1.
         21   -1    0    0  501  503 -0.00000000000E+00 -0.00000000000E+00 -0.93927939762E+02  0.93927939762E+02  0.00000000000E+00 0. -1.
          6    1    1    2  501    0 -0.12772265301E+03 -0.20772118206E+03  0.24394771560E+03  0.38587647442E+03  0.17300000000E+03 0. -1.
         -6    1    1    2    0  502  0.12772265301E+03  0.20772118206E+03  0.95021050547E+03  0.99613762617E+03  0.17300000000E+03 0.  1.
<mgrwt>
<rscale>  2 0.29898188E+03</rscale>
<asrwt>0</asrwt>
<pdfrwt beam="1">  1       21 0.19816709E+00 0.29898188E+03</pdfrwt>
<pdfrwt beam="2">  1       21 0.14450453E-01 0.29898188E+03</pdfrwt>
<totfact> 0.53542749E+03</totfact>
</mgrwt>
</event>
<event>
 4    1  0.4621995E+000  0.1785028E+03  0.7546771E-02  0.1169260E+00
         21   -1    0    0  503  502  0.00000000000E+00  0.00000000000E+00  0.21396741312E+03  0.21396741312E+03  0.00000000000E+00 0.  1.
         21   -1    0    0  501  503 -0.00000000000E+00 -0.00000000000E+00 -0.25468068672E+03  0.25468068672E+03  0.00000000000E+00 0. -1.
          6    1    1    2  501    0 -0.43937992087E+02  0.19272683416E+01 -0.17136059684E+03  0.24744234815E+03  0.17300000000E+03 0. -1.
         -6    1    1    2    0  502  0.43937992087E+02 -0.19272683416E+01  0.13064732323E+03  0.22120575169E+03  0.17300000000E+03 0.  1.
<mgrwt>
<rscale>  2 0.17850283E+03</rscale>
<asrwt>0</asrwt>
<pdfrwt beam="1">  1       21 0.32918063E-01 0.17850283E+03</pdfrwt>
<pdfrwt beam="2">  1       21 0.39181644E-01 0.17850283E+03</pdfrwt>
<totfact> 0.56152241E+04</totfact>
</mgrwt>
</event>
<event>
 4    1  0.4621995E+000  0.1972152E+03  0.7546771E-02  0.1152110E+00
         21   -1    0    0  503  502  0.00000000000E+00  0.00000000000E+00  0.60720977034E+03  0.60720977034E+03  0.00000000000E+00 0. -1.
         21   -1    0    0  501  503 -0.00000000000E+00 -0.00000000000E+00 -0.67724107930E+02  0.67724107930E+02  0.00000000000E+00 0.  1.
          6    1    1    2  501    0  0.71757379144E+02 -0.61771369723E+02  0.19117638586E+03  0.27466749733E+03  0.17300000000E+03 0.  1.
         -6    1    1    2    0  502 -0.71757379144E+02  0.61771369723E+02  0.34830927655E+03  0.40026638094E+03  0.17300000000E+03 0. -1.
<mgrwt>
<rscale>  2 0.19721517E+03</rscale>
<asrwt>0</asrwt>
<pdfrwt beam="1">  1       21 0.93416884E-01 0.19721517E+03</pdfrwt>
<pdfrwt beam="2">  1       21 0.10419094E-01 0.19721517E+03</pdfrwt>
<totfact> 0.72549469E+04</totfact>
</mgrwt>
</event>
<event>
 4    1  0.4621995E+000  0.1823213E+03  0.7546771E-02  0.1165575E+00
         21   -1    0    0  501  502  0.00000000000E+00  0.00000000000E+00  0.18688197900E+03  0.18688197900E+03  0.00000000000E+00 0.  1.
         21   -1    0    0  502  503 -0.00000000000E+00 -0.00000000000E+00 -0.18587995656E+03  0.18587995656E+03  0.00000000000E+00 0. -1.
          6    1    1    2  501    0  0.53895535001E+02  0.20181988781E+02  0.39186713843E+02  0.18648495893E+03  0.17300000000E+03 0.  1.
         -6    1    1    2    0  503 -0.53895535001E+02 -0.20181988781E+02 -0.38184691399E+02  0.18627697663E+03  0.17300000000E+03 0. -1.
<mgrwt>
<rscale>  2 0.18232126E+03</rscale>
<asrwt>0</asrwt>
<pdfrwt beam="1">  1       21 0.28751074E-01 0.18232126E+03</pdfrwt>
<pdfrwt beam="2">  1       21 0.28596916E-01 0.18232126E+03</pdfrwt>
<totfact> 0.13584268E+05</totfact>
</mgrwt>
</event>
<event>
 4    1  0.4621995E+000  0.3627751E+03  0.7546771E-02  0.1057490E+00
         21   -1    0    0  501  502  0.00000000000E+00  0.00000000000E+00  0.14537898766E+04  0.14537898766E+04  0.00000000000E+00 0. -1.
         21   -1    0    0  502  503 -0.00000000000E+00 -0.00000000000E+00 -0.95867773158E+02  0.95867773158E+02  0.00000000000E+00 0.  1.
          6    1    1    2  501    0  0.59157843899E+02 -0.31333228805E+03  0.86186051254E+03  0.93509855968E+03  0.17300000000E+03 0.  1.
         -6    1    1    2    0  503 -0.59157843899E+02  0.31333228805E+03  0.49606159088E+03  0.61455909006E+03  0.17300000000E+03 0. -1.
<mgrwt>
<rscale>  2 0.36277510E+03</rscale>
<asrwt>0</asrwt>
<pdfrwt beam="1">  1       21 0.22365996E+00 0.36277510E+03</pdfrwt>
<pdfrwt beam="2">  1       21 0.14748889E-01 0.36277510E+03</pdfrwt>
<totfact> 0.34122203E+03</totfact>
</mgrwt>
</event>
<event>
 4    1  0.4621995E+000  0.1838094E+03  0.7546771E-02  0.1164166E+00
         21   -1    0    0  501  502  0.00000000000E+00  0.00000000000E+00  0.43023595131E+03  0.43023595131E+03  0.00000000000E+00 0. -1.
         21   -1    0    0  502  503 -0.00000000000E+00 -0.00000000000E+00 -0.79184463553E+02  0.79184463553E+02  0.00000000000E+00 0. -1.
          6    1    1    2  501    0 -0.58396031527E+02 -0.21137426837E+02  0.15234717411E+03  0.23873740547E+03  0.17300000000E+03 0. -1.
         -6    1    1    2    0  503  0.58396031527E+02  0.21137426837E+02  0.19870431365E+03  0.27068300939E+03  0.17300000000E+03 0. -1.
<mgrwt>
<rscale>  2 0.18380938E+03</rscale>
<asrwt>0</asrwt>
<pdfrwt beam="1">  1       21 0.66190145E-01 0.18380938E+03</pdfrwt>
<pdfrwt beam="2">  1       21 0.12182225E-01 0.18380938E+03</pdfrwt>
<totfact> 0.12004724E+05</totfact>
</mgrwt>
</event>
<event>
 4    1  0.4621995E+000  0.1837084E+03  0.7546771E-02  0.1164262E+00
         21   -1    0    0  503  502  0.00000000000E+00  0.00000000000E+00  0.13028671913E+03  0.13028671913E+03  0.00000000000E+00 0.  1.
         21   -1    0    0  501  503 -0.00000000000E+00 -0.00000000000E+00 -0.73994968354E+03  0.73994968354E+03  0.00000000000E+00 0.  1.
          6    1    1    2  501    0 -0.46076069913E+02  0.41191733980E+02 -0.65561596422E+03  0.68086786949E+03  0.17300000000E+03 0.  1.
         -6    1    1    2    0  502  0.46076069913E+02 -0.41191733980E+02  0.45952999810E+02  0.18936853318E+03  0.17300000000E+03 0.  1.
<mgrwt>
<rscale>  2 0.18370836E+03</rscale>
<asrwt>0</asrwt>
<pdfrwt beam="1">  1       21 0.20044110E-01 0.18370836E+03</pdfrwt>
<pdfrwt beam="2">  1       21 0.11383842E+00 0.18370836E+03</pdfrwt>
<totfact> 0.13898260E+04</totfact>
</mgrwt>
</event>
<event>
 4    1  0.4621995E+000  0.1941128E+03  0.7546771E-02  0.1154803E+00
         21   -1    0    0  503  502  0.00000000000E+00  0.00000000000E+00  0.15325065634E+03  0.15325065634E+03  0.00000000000E+00 0.  1.
         21   -1    0    0  501  503 -0.00000000000E+00 -0.00000000000E+00 -0.42807016164E+03  0.42807016164E+03  0.00000000000E+00 0.  1.
          6    1    1    2  501    0 -0.87543352970E+02 -0.93247062595E+01 -0.32703772127E+03  0.38030706005E+03  0.17300000000E+03 0.  1.
         -6    1    1    2    0  502  0.87543352970E+02  0.93247062595E+01  0.52218215968E+02  0.20101375792E+03  0.17300000000E+03 0.  1.
<mgrwt>
<rscale>  2 0.19411282E+03</rscale>
<asrwt>0</asrwt>
<pdfrwt beam="1">  1       21 0.23577024E-01 0.19411282E+03</pdfrwt>
<pdfrwt beam="2">  1       21 0.65856947E-01 0.19411282E+03</pdfrwt>
<totfact> 0.35843613E+04</totfact>
</mgrwt>
</event>
<event>
 4    1  0.4621995E+000  0.2152683E+03  0.7546771E-02  0.1137461E+00
         21   -1    0    0  503  502  0.00000000000E+00  0.00000000000E+00  0.10739538438E+03  0.10739538438E+03  0.00000000000E+00 0.  1.
         21   -1    0    0  501  503 -0.00000000000E+00 -0.00000000000E+00 -0.56283688327E+03  0.56283688327E+03  0.00000000000E+00 0.  1.
          6    1    1    2  501    0  0.60761935614E+02 -0.11278044214E+03 -0.38960615211E+03  0.44512177515E+03  0.17300000000E+03 0.  1.
         -6    1    1    2    0  502 -0.60761935614E+02  0.11278044214E+03 -0.65835346781E+02  0.22511049250E+03  0.17300000000E+03 0.  1.
<mgrwt>
<rscale>  2 0.21526830E+03</rscale>
<asrwt>0</asrwt>
<pdfrwt beam="1">  1       21 0.16522367E-01 0.21526830E+03</pdfrwt>
<pdfrwt beam="2">  1       21 0.86590291E-01 0.21526830E+03</pdfrwt>
<totfact> 0.37305674E+04</totfact>
</mgrwt>
</event>
<event>
 4    1  0.4621995E+000  0.1909549E+03  0.7546771E-02  0.1157603E+00
         21   -1    0    0  503  502  0.00000000000E+00  0.00000000000E+00  0.63860160225E+03  0.63860160225E+03  0.00000000000E+00 0.  1.
         21   -1    0    0  501  503 -0.00000000000E+00 -0.00000000000E+00 -0.65295759219E+02  0.65295759219E+02  0.00000000000E+00 0.  1.
          6    1    1    2  501    0  0.41823840222E+02 -0.69177518472E+02  0.16195834055E+03  0.25038823204E+03  0.17300000000E+03 0.  1.
         -6    1    1    2    0  502 -0.41823840222E+02  0.69177518472E+02  0.41134750248E+03  0.45350912942E+03  0.17300000000E+03 0.  1.
<mgrwt>
<rscale>  2 0.19095487E+03</rscale>
<asrwt>0</asrwt>
<pdfrwt beam="1">  1       21 0.98246396E-01 0.19095487E+03</pdfrwt>
<pdfrwt beam="2">  1       21 0.10045502E-01 0.19095487E+03</pdfrwt>
<totfact> 0.68962274E+04</totfact>
</mgrwt>
</event>
<event>
 4    1  0.4621995E+000  0.1973917E+03  0.7546771E-02  0.1151958E+00
         21   -1    0    0  503  502  0.00000000000E+00  0.00000000000E+00  0.59961701705E+03  0.59961701705E+03  0.00000000000E+00 0. -1.
         21   -1    0    0  501  503 -0.00000000000E+00 -0.00000000000E+00 -0.75321261860E+02  0.75321261860E+02  0.00000000000E+00 0. -1.
          6    1    1    2  501    0  0.19500304208E+02 -0.93028063521E+02  0.38718792401E+03  0.43460093300E+03  0.17300000000E+03 0. -1.
         -6    1    1    2    0  502 -0.19500304208E+02  0.93028063521E+02  0.13710783118E+03  0.24033734590E+03  0.17300000000E+03 0. -1.
<mgrwt>
<rscale>  2 0.19739170E+03</rscale>
<asrwt>0</asrwt>
<pdfrwt beam="1">  1       21 0.92248769E-01 0.19739170E+03</pdfrwt>
<pdfrwt beam="2">  1       21 0.11587887E-01 0.19739170E+03</pdfrwt>
<totfact> 0.61829385E+04</totfact>
</mgrwt>
</event>
<event>
 4    1  0.4621995E+000  0.1901152E+03  0.7546771E-02  0.1158357E+00
         21   -1    0    0  503  502  0.00000000000E+00  0.00000000000E+00  0.18797890432E+03  0.18797890432E+03  0.00000000000E+00 0.  1.
         21   -1    0    0  501  503 -0.00000000000E+00 -0.00000000000E+00 -0.23299453753E+03  0.23299453753E+03  0.00000000000E+00 0.  1.
          6    1    1    2  501    0 -0.37820697487E+02  0.69169373597E+02 -0.11050091513E+03  0.21989602008E+03  0.17300000000E+03 0.  1.
         -6    1    1    2    0  502  0.37820697487E+02 -0.69169373597E+02  0.65485281912E+02  0.20107742178E+03  0.17300000000E+03 0.  1.
<mgrwt>
<rscale>  2 0.19011525E+03</rscale>
<asrwt>0</asrwt>
<pdfrwt beam="1">  1       21 0.28919831E-01 0.19011525E+03</pdfrwt>
<pdfrwt beam="2">  1       21 0.35845313E-01 0.19011525E+03</pdfrwt>
<totfact> 0.85973046E+04</totfact>
</mgrwt>
</event>
<event>
 4    1  0.4621995E+000  0.1796756E+03  0.7546771E-02  0.1168117E+00
         21   -1    0    0  503  502  0.00000000000E+00  0.00000000000E+00  0.12081094377E+03  0.12081094377E+03  0.00000000000E+00 0. -1.
         21   -1    0    0  501  503 -0.00000000000E+00 -0.00000000000E+00 -0.33267812887E+03  0.33267812887E+03  0.00000000000E+00 0. -1.
          6    1    1    2  501    0 -0.18694987340E+01 -0.48485442068E+02 -0.20651092405E+03  0.27373362028E+03  0.17300000000E+03 0. -1.
         -6    1    1    2    0  502  0.18694987340E+01  0.48485442068E+02 -0.53562610436E+01  0.17975545235E+03  0.17300000000E+03 0. -1.
<mgrwt>
<rscale>  2 0.17967563E+03</rscale>
<asrwt>0</asrwt>
<pdfrwt beam="1">  1       21 0.18586299E-01 0.17967563E+03</pdfrwt>
<pdfrwt beam="2">  1       21 0.51181250E-01 0.17967563E+03</pdfrwt>
<totfact> 0.96496902E+04</totfact>
</mgrwt>
</event>
<event>
 4    1  0.4621995E+000  0.2641737E+03  0.7546771E-02  0.1104661E+00
         21   -1    0    0  501  502  0.00000000000E+00  0.00000000000E+00  0.88542490893E+03  0.88542490893E+03  0.00000000000E+00 0. -1.
         21   -1    0    0  502  503 -0.00000000000E+00 -0.00000000000E+00 -0.11364078471E+03  0.11364078471E+03  0.00000000000E+00 0. -1.
          6    1    1    2  501    0 -0.14759401265E+03 -0.13444242440E+03  0.66241191048E+03  0.71314605600E+03  0.17300000000E+03 0. -1.
         -6    1    1    2    0  503  0.14759401265E+03  0.13444242440E+03  0.10937221374E+03  0.28591963764E+03  0.17300000000E+03 0. -1.
<mgrwt>
<rscale>  2 0.26417373E+03</rscale>
<asrwt>0</asrwt>
<pdfrwt beam="1">  1       21 0.13621921E+00 0.26417373E+03</pdfrwt>
<pdfrwt beam="2">  1       21 0.17483198E-01 0.26417373E+03</pdfrwt>
<totfact> 0.10866776E+04</totfact>
</mgrwt>
</event>
<event>
 4    1  0.4621995E+000  0.2092836E+03  0.7546771E-02  0.1142135E+00
         21   -1    0    0  501  502  0.00000000000E+00  0.00000000000E+00  0.17032018621E+03  0.17032018621E+03  0.00000000000E+00 0. -1.
         21   -1    0    0  502  503 -0.00000000000E+00 -0.00000000000E+00 -0.10836823549E+04  0.10836823549E+04  0.00000000000E+00 0.  1.
          6    1    1    2  501    0  0.70223238099E+02 -0.94547961504E+02  0.90895157751E+02  0.22817000218E+03  0.17300000000E+03 0. -1.
         -6    1    1    2    0  503 -0.70223238099E+02  0.94547961504E+02 -0.10042573264E+04  0.10258325389E+04  0.17300000000E+03 0.  1.
<mgrwt>
<rscale>  2 0.20928359E+03</rscale>
<asrwt>0</asrwt>
<pdfrwt beam="1">  1       21 0.26203106E-01 0.20928359E+03</pdfrwt>
<pdfrwt beam="2">  1       21 0.16672036E+00 0.20928359E+03</pdfrwt>
<totfact> 0.30693188E+03</totfact>
</mgrwt>
</event>
<event>
 4    1  0.4621995E+000  0.2047036E+03  0.7546771E-02  0.1145830E+00
         21   -1    0    0  503  502  0.00000000000E+00  0.00000000000E+00  0.44071061730E+03  0.44071061730E+03  0.00000000000E+00 0.  1.
         21   -1    0    0  501  503 -0.00000000000E+00 -0.00000000000E+00 -0.11604924759E+03  0.11604924759E+03  0.00000000000E+00 0. -1.
          6    1    1    2  501    0 -0.98129138125E+02 -0.48427442648E+02  0.44002046097E+02  0.20937938058E+03  0.17300000000E+03 0. -1.
         -6    1    1    2    0  502  0.98129138125E+02  0.48427442648E+02  0.28065932361E+03  0.34738048431E+03  0.17300000000E+03 0.  1.
<mgrwt>
<rscale>  2 0.20470355E+03</rscale>
<asrwt>0</asrwt>
<pdfrwt beam="1">  1       21 0.67801633E-01 0.20470355E+03</pdfrwt>
<pdfrwt beam="2">  1       21 0.17853731E-01 0.20470355E+03</pdfrwt>
<totfact> 0.56324156E+04</totfact>
</mgrwt>
</event>
<event>
 4    1  0.4621995E+000  0.1923450E+03  0.7546771E-02  0.1156363E+00
         21   -1    0    0  501  502  0.00000000000E+00  0.00000000000E+00  0.11985419231E+03  0.11985419231E+03  0.00000000000E+00 0.  1.
         21   -1    0    0  502  503 -0.00000000000E+00 -0.00000000000E+00 -0.51835102005E+03  0.51835102005E+03  0.00000000000E+00 0.  1.
          6    1    1    2  501    0 -0.49426974236E-02 -0.84069076407E+02  0.37008240136E+01  0.19238062722E+03  0.17300000000E+03 0.  1.
         -6    1    1    2    0  503  0.49426974236E-02  0.84069076407E+02 -0.40219765176E+03  0.44582458514E+03  0.17300000000E+03 0.  1.
<mgrwt>
<rscale>  2 0.19234503E+03</rscale>
<asrwt>0</asrwt>
<pdfrwt beam="1">  1       21 0.18439106E-01 0.19234503E+03</pdfrwt>
<pdfrwt beam="2">  1       21 0.79746311E-01 0.19234503E+03</pdfrwt>
<totfact> 0.37203362E+04</totfact>
</mgrwt>
</event>
<event>
 4    1  0.4621995E+000  0.1896886E+03  0.7546771E-02  0.1158743E+00
         21   -1    0    0  501  502  0.00000000000E+00  0.00000000000E+00  0.48446395500E+03  0.48446395500E+03  0.00000000000E+00 0. -1.
         21   -1    0    0  502  503 -0.00000000000E+00 -0.00000000000E+00 -0.84198010715E+02  0.84198010715E+02  0.00000000000E+00 0. -1.
          6    1    1    2  501    0  0.45216353071E+02  0.63310627553E+02  0.29776146111E+03  0.35304906439E+03  0.17300000000E+03 0. -1.
         -6    1    1    2    0  503 -0.45216353071E+02 -0.63310627553E+02  0.10250448318E+03  0.21561290133E+03  0.17300000000E+03 0. -1.
<mgrwt>
<rscale>  2 0.18968857E+03</rscale>
<asrwt>0</asrwt>
<pdfrwt beam="1">  1       21 0.74532915E-01 0.18968857E+03</pdfrwt>
<pdfrwt beam="2">  1       21 0.12953540E-01 0.18968857E+03</pdfrwt>
<totfact> 0.82584688E+04</totfact>
</mgrwt>
</event>
<event>
 4    1  0.4621995E+000  0.2027056E+03  0.7546771E-02  0.1147476E+00
         21   -1    0    0  503  502  0.00000000000E+00  0.00000000000E+00  0.49842548306E+02  0.49842548306E+02  0.00000000000E+00 0. -1.
         21   -1    0    0  501  503 -0.00000000000E+00 -0.00000000000E+00 -0.11106113540E+04  0.11106113540E+04  0.00000000000E+00 0. -1.
          6    1    1    2  501    0  0.10501265401E+03 -0.11527726480E+02 -0.82494196654E+03  0.84948148546E+03  0.17300000000E+03 0. -1.
         -6    1    1    2    0  502 -0.10501265401E+03  0.11527726480E+02 -0.23582683919E+03  0.31097241689E+03  0.17300000000E+03 0. -1.
<mgrwt>
<rscale>  2 0.20270556E+03</rscale>
<asrwt>0</asrwt>
<pdfrwt beam="1">  1       21 0.76680848E-02 0.20270556E+03</pdfrwt>
<pdfrwt beam="2">  1       21 0.17086328E+00 0.20270556E+03</pdfrwt>
<totfact> 0.26999201E+04</totfact>
</mgrwt>
</event>
<event>
 4    1  0.4621995E+000  0.1963666E+03  0.7546771E-02  0.1152841E+00
         21   -1    0    0  503  502  0.00000000000E+00  0.00000000000E+00  0.16955939704E+03  0.16955939704E+03  0.00000000000E+00 0.  1.
         21   -1    0    0  501  503 -0.00000000000E+00 -0.00000000000E+00 -0.28303212222E+03  0.28303212222E+03  0.00000000000E+00 0. -1.
          6    1    1    2  501    0 -0.86296765529E+02  0.34405347001E+02 -0.15705326330E+03  0.25144698677E+03  0.17300000000E+03 0. -1.
         -6    1    1    2    0  502  0.86296765529E+02 -0.34405347001E+02  0.43580538129E+02  0.20114453248E+03  0.17300000000E+03 0.  1.
<mgrwt>
<rscale>  2 0.19636665E+03</rscale>
<asrwt>0</asrwt>
<pdfrwt beam="1">  1       21 0.26086062E-01 0.19636665E+03</pdfrwt>
<pdfrwt beam="2">  1       21 0.43543403E-01 0.19636665E+03</pdfrwt>
<totfact> 0.70666010E+04</totfact>
</mgrwt>
</event>
<event>
 4    1  0.4621995E+000  0.2663704E+03  0.7546771E-02  0.1103375E+00
         21   -1    0    0  503  502  0.00000000000E+00  0.00000000000E+00  0.26759552140E+03  0.26759552140E+03  0.00000000000E+00 0.  1.
         21   -1    0    0  501  503 -0.00000000000E+00 -0.00000000000E+00 -0.72655340094E+03  0.72655340094E+03  0.00000000000E+00 0. -1.
          6    1    1    2  501    0 -0.94011497235E+02  0.17940461395E+03 -0.62559977038E+03  0.67994724046E+03  0.17300000000E+03 0. -1.
         -6    1    1    2    0  502  0.94011497235E+02 -0.17940461395E+03  0.16664189083E+03  0.31420168188E+03  0.17300000000E+03 0.  1.
<mgrwt>
<rscale>  2 0.26637038E+03</rscale>
<asrwt>0</asrwt>
<pdfrwt beam="1">  1       21 0.41168542E-01 0.26637038E+03</pdfrwt>
<pdfrwt beam="2">  1       21 0.11177745E+00 0.26637038E+03</pdfrwt>
<totfact> 0.33809687E+03</totfact>
</mgrwt>
</event>
<event>
 4    1  0.4621995E+000  0.1956738E+03  0.7546771E-02  0.1153441E+00
         21   -1    0    0  501  502  0.00000000000E+00  0.00000000000E+00  0.21044712947E+03  0.21044712947E+03  0.00000000000E+00 0. -1.
         21   -1    0    0  502  503 -0.00000000000E+00 -0.00000000000E+00 -0.18318580110E+03  0.18318580110E+03  0.00000000000E+00 0. -1.
          6    1    1    2  501    0 -0.40132038704E+02  0.82150091776E+02 -0.26166126083E+01  0.19569124858E+03  0.17300000000E+03 0. -1.
         -6    1    1    2    0  503  0.40132038704E+02 -0.82150091776E+02  0.29877940978E+02  0.19794168198E+03  0.17300000000E+03 0. -1.
<mgrwt>
<rscale>  2 0.19567375E+03</rscale>
<asrwt>0</asrwt>
<pdfrwt beam="1">  1       21 0.32376481E-01 0.19567375E+03</pdfrwt>
<pdfrwt beam="2">  1       21 0.28182431E-01 0.19567375E+03</pdfrwt>
<totfact> 0.11030927E+05</totfact>
</mgrwt>
</event>
<event>
 4    1  0.4621995E+000  0.1766476E+03  0.7546771E-02  0.1171087E+00
         21   -1    0    0  503  502  0.00000000000E+00  0.00000000000E+00  0.36861806592E+03  0.36861806592E+03  0.00000000000E+00 0.  1.
         21   -1    0    0  501  503 -0.00000000000E+00 -0.00000000000E+00 -0.11884351922E+03  0.11884351922E+03  0.00000000000E+00 0.  1.
          6    1    1    2  501    0 -0.30063447546E+02  0.19276387044E+02 -0.58440172235E+01  0.17674428566E+03  0.17300000000E+03 0.  1.
         -6    1    1    2    0  502  0.30063447546E+02 -0.19276387044E+02  0.25561856392E+03  0.31071729948E+03  0.17300000000E+03 0.  1.
<mgrwt>
<rscale>  2 0.17664764E+03</rscale>
<asrwt>0</asrwt>
<pdfrwt beam="1">  1       21 0.56710471E-01 0.17664764E+03</pdfrwt>
<pdfrwt beam="2">  1       21 0.18283618E-01 0.17664764E+03</pdfrwt>
<totfact> 0.80255100E+04</totfact>
</mgrwt>
</event>
<event>
 4    1  0.4621995E+000  0.2625688E+03  0.7546771E-02  0.1105610E+00
         21   -1    0    0  501  502  0.00000000000E+00  0.00000000000E+00  0.92455206585E+02  0.92455206585E+02  0.00000000000E+00 0.  1.
         21   -1    0    0  502  503 -0.00000000000E+00 -0.00000000000E+00 -0.76886350154E+03  0.76886350154E+03  0.00000000000E+00 0. -1.
          6    1    1    2  501    0 -0.39514976225E+02 -0.19352506667E+03 -0.41297970085E+03  0.48938187348E+03  0.17300000000E+03 0.  1.
         -6    1    1    2    0  503  0.39514976225E+02  0.19352506667E+03 -0.26342859411E+03  0.37193683465E+03  0.17300000000E+03 0.  1.
<mgrwt>
<rscale>  2 0.26256882E+03</rscale>
<asrwt>0</asrwt>
<pdfrwt beam="1">  1       21 0.14223878E-01 0.26256882E+03</pdfrwt>
<pdfrwt beam="2">  1       21 0.11828669E+00 0.26256882E+03</pdfrwt>
<totfact> 0.22751982E+04</totfact>
</mgrwt>
</event>
<event>
 4    1  0.4621995E+000  0.2109521E+03  0.7546771E-02  0.1140814E+00
         21   -1    0    0  501  502  0.00000000000E+00  0.00000000000E+00  0.80425378118E+02  0.80425378118E+02  0.00000000000E+00 0.  1.
         21   -1    0    0  502  503 -0.00000000000E+00 -0.00000000000E+00 -0.69830801616E+03  0.69830801616E+03  0.00000000000E+00 0. -1.
          6    1    1    2  501    0 -0.27943166214E+02 -0.11743486347E+03 -0.13152028149E+03  0.24859274354E+03  0.17300000000E+03 0.  1.
         -6    1    1    2    0  503  0.27943166214E+02  0.11743486347E+03 -0.48636235655E+03  0.53014065074E+03  0.17300000000E+03 0. -1.
<mgrwt>
<rscale>  2 0.21095205E+03</rscale>
<asrwt>0</asrwt>
<pdfrwt beam="1">  1       21 0.12373135E-01 0.21095205E+03</pdfrwt>
<pdfrwt beam="2">  1       21 0.10743200E+00 0.21095205E+03</pdfrwt>
<totfact> 0.38029344E+04</totfact>
</mgrwt>
</event>
<event>
 4    1  0.4621995E+000  0.1744051E+03  0.7546771E-02  0.1173330E+00
         21   -1    0    0  501  502  0.00000000000E+00  0.00000000000E+00  0.18850574139E+03  0.18850574139E+03  0.00000000000E+00 0. -1.
         21   -1    0    0  502  503 -0.00000000000E+00 -0.00000000000E+00 -0.16921398900E+03  0.16921398900E+03  0.00000000000E+00 0. -1.
          6    1    1    2  501    0 -0.15203304693E+02  0.16031153502E+02  0.48181432099E+02  0.18093807989E+03  0.17300000000E+03 0.  1.
         -6    1    1    2    0  503  0.15203304693E+02 -0.16031153502E+02 -0.28889679708E+02  0.17678165049E+03  0.17300000000E+03 0.  1.
<mgrwt>
<rscale>  2 0.17440510E+03</rscale>
<asrwt>0</asrwt>
<pdfrwt beam="1">  1       21 0.29000884E-01 0.17440510E+03</pdfrwt>
<pdfrwt beam="2">  1       21 0.26032921E-01 0.17440510E+03</pdfrwt>
<totfact> 0.16046919E+05</totfact>
</mgrwt>
</event>
<event>
 4    1  0.4621995E+000  0.2020386E+03  0.7546771E-02  0.1148030E+00
         21   -1    0    0  503  502  0.00000000000E+00  0.00000000000E+00  0.14274779616E+03  0.14274779616E+03  0.00000000000E+00 0. -1.
         21   -1    0    0  501  503 -0.00000000000E+00 -0.00000000000E+00 -0.34885769469E+03  0.34885769469E+03  0.00000000000E+00 0.  1.
          6    1    1    2  501    0  0.59827007899E+02 -0.85506217802E+02 -0.20742931790E+03  0.28956261168E+03  0.17300000000E+03 0.  1.
         -6    1    1    2    0  502 -0.59827007899E+02  0.85506217802E+02  0.13194193703E+01  0.20204287917E+03  0.17300000000E+03 0. -1.
<mgrwt>
<rscale>  2 0.20203857E+03</rscale>
<asrwt>0</asrwt>
<pdfrwt beam="1">  1       21 0.21961200E-01 0.20203857E+03</pdfrwt>
<pdfrwt beam="2">  1       21 0.53670414E-01 0.20203857E+03</pdfrwt>
<totfact> 0.63339324E+04</totfact>
</mgrwt>
</event>
<event>
 4    1  0.4621995E+000  0.1974619E+03  0.7546771E-02  0.1151898E+00
         21   -1    0    0  501  502  0.00000000000E+00  0.00000000000E+00  0.15026176772E+03  0.15026176772E+03  0.00000000000E+00 0.  1.
         21   -1    0    0  502  503 -0.00000000000E+00 -0.00000000000E+00 -0.37838708489E+03  0.37838708489E+03  0.00000000000E+00 0.  1.
          6    1    1    2  501    0  0.70374578218E+02  0.64106399047E+02  0.34106343450E+02  0.20038576377E+03  0.17300000000E+03 0.  1.
         -6    1    1    2    0  503 -0.70374578218E+02 -0.64106399047E+02 -0.26223166062E+03  0.32826308883E+03  0.17300000000E+03 0.  1.
<mgrwt>
<rscale>  2 0.19746192E+03</rscale>
<asrwt>0</asrwt>
<pdfrwt beam="1">  1       21 0.23117195E-01 0.19746192E+03</pdfrwt>
<pdfrwt beam="2">  1       21 0.58213397E-01 0.19746192E+03</pdfrwt>
<totfact> 0.48481367E+04</totfact>
</mgrwt>
</event>
<event>
 4    1  0.4621995E+000  0.2107560E+03  0.7546771E-02  0.1140969E+00
         21   -1    0    0  503  502  0.00000000000E+00  0.00000000000E+00  0.83247396926E+03  0.83247396926E+03  0.00000000000E+00 0. -1.
         21   -1    0    0  501  503 -0.00000000000E+00 -0.00000000000E+00 -0.69656600359E+02  0.69656600359E+02  0.00000000000E+00 0. -1.
          6    1    1    2  501    0  0.76641239915E+02 -0.92818126907E+02  0.16321086141E+03  0.26656306875E+03  0.17300000000E+03 0. -1.
         -6    1    1    2    0  502 -0.76641239915E+02  0.92818126907E+02  0.59960650749E+03  0.63556750087E+03  0.17300000000E+03 0. -1.
<mgrwt>
<rscale>  2 0.21075598E+03</rscale>
<asrwt>0</asrwt>
<pdfrwt beam="1">  1       21 0.12807291E+00 0.21075598E+03</pdfrwt>
<pdfrwt beam="2">  1       21 0.10716401E-01 0.21075598E+03</pdfrwt>
<totfact> 0.31881049E+04</totfact>
</mgrwt>
</event>
<event>
 4    1  0.4621995E+000  0.2202366E+03  0.7546771E-02  0.1133707E+00
         21   -1    0    0  501  502  0.00000000000E+00  0.00000000000E+00  0.41784301110E+03  0.41784301110E+03  0.00000000000E+00 0.  1.
         21   -1    0    0  502  503 -0.00000000000E+00 -0.00000000000E+00 -0.22415033463E+03  0.22415033463E+03  0.00000000000E+00 0. -1.
          6    1    1    2  501    0  0.60462205882E+02  0.12214538788E+03 -0.12603796257E+03  0.25375133917E+03  0.17300000000E+03 0. -1.
         -6    1    1    2    0  503 -0.60462205882E+02 -0.12214538788E+03  0.31973063904E+03  0.38824200657E+03  0.17300000000E+03 0. -1.
<mgrwt>
<rscale>  2 0.22023663E+03</rscale>
<asrwt>0</asrwt>
<pdfrwt beam="1">  1       21 0.64283540E-01 0.22023663E+03</pdfrwt>
<pdfrwt beam="2">  1       21 0.34484667E-01 0.22023663E+03</pdfrwt>
<totfact> 0.17797997E+04</totfact>
</mgrwt>
</event>
<event>
 4    1  0.4621995E+000  0.2052602E+03  0.7546771E-02  0.1145375E+00
         21   -1    0    0  503  502  0.00000000000E+00  0.00000000000E+00  0.10718634043E+03  0.10718634043E+03  0.00000000000E+00 0. -1.
         21   -1    0    0  501  503 -0.00000000000E+00 -0.00000000000E+00 -0.47738633687E+03  0.47738633687E+03  0.00000000000E+00 0. -1.
          6    1    1    2  501    0 -0.62071858975E+02 -0.91377349208E+02 -0.30793704614E+03  0.37007696498E+03  0.17300000000E+03 0. -1.
         -6    1    1    2    0  502  0.62071858975E+02  0.91377349208E+02 -0.62262950301E+02  0.21449571232E+03  0.17300000000E+03 0. -1.
<mgrwt>
<rscale>  2 0.20526017E+03</rscale>
<asrwt>0</asrwt>
<pdfrwt beam="1">  1       21 0.16490206E-01 0.20526017E+03</pdfrwt>
<pdfrwt beam="2">  1       21 0.73444052E-01 0.20526017E+03</pdfrwt>
<totfact> 0.54628375E+04</totfact>
</mgrwt>
</event>
<event>
 4    1  0.4621995E+000  0.2000304E+03  0.7546771E-02  0.1149713E+00
         21   -1    0    0  501  502  0.00000000000E+00  0.00000000000E+00  0.11388366041E+04  0.11388366041E+04  0.00000000000E+00 0.  1.
         21   -1    0    0  502  503 -0.00000000000E+00 -0.00000000000E+00 -0.68486706534E+02  0.68486706534E+02  0.00000000000E+00 0.  1.
          6    1    1    2  501    0  0.62126675212E+02  0.78888889220E+02  0.95643890483E+03  0.97713231412E+03  0.17300000000E+03 0.  1.
         -6    1    1    2    0  503 -0.62126675212E+02 -0.78888889220E+02  0.11391099275E+03  0.23019099653E+03  0.17300000000E+03 0.  1.
<mgrwt>
<rscale>  2 0.20003045E+03</rscale>
<asrwt>0</asrwt>
<pdfrwt beam="1">  1       21 0.17520562E+00 0.20003045E+03</pdfrwt>
<pdfrwt beam="2">  1       21 0.10536417E-01 0.20003045E+03</pdfrwt>
<totfact> 0.14439942E+04</totfact>
</mgrwt>
</event>
<event>
 4    1  0.4621995E+000  0.2158398E+03  0.7546771E-02  0.1137023E+00
         21   -1    0    0  501  502  0.00000000000E+00  0.00000000000E+00  0.36879895708E+03  0.36879895708E+03  0.00000000000E+00 0.  1.
         21   -1    0    0  502  503 -0.00000000000E+00 -0.00000000000E+00 -0.21130648659E+03  0.21130648659E+03  0.00000000000E+00 0.  1.
          6    1    1    2  501    0  0.98107158186E+02  0.83861776846E+02  0.26269402875E+03  0.33999259527E+03  0.17300000000E+03 0.  1.
         -6    1    1    2    0  503 -0.98107158186E+02 -0.83861776846E+02 -0.10520155826E+03  0.24011284839E+03  0.17300000000E+03 0.  1.
<mgrwt>
<rscale>  2 0.21583978E+03</rscale>
<asrwt>0</asrwt>
<pdfrwt beam="1">  1       21 0.56738301E-01 0.21583978E+03</pdfrwt>
<pdfrwt beam="2">  1       21 0.32508690E-01 0.21583978E+03</pdfrwt>
<totfact> 0.26247742E+04</totfact>
</mgrwt>
</event>
<event>
 4    1  0.4621995E+000  0.3539457E+03  0.7546771E-02  0.1061007E+00
         21   -1    0    0  501  502  0.00000000000E+00  0.00000000000E+00  0.40020452193E+03  0.40020452193E+03  0.00000000000E+00 0. -1.
         21   -1    0    0  502  503 -0.00000000000E+00 -0.00000000000E+00 -0.41516977616E+03  0.41516977616E+03  0.00000000000E+00 0.  1.
          6    1    1    2  501    0 -0.27912094517E+03  0.13206079782E+03  0.19472775706E+03  0.40397581081E+03  0.17300000000E+03 0. -1.
         -6    1    1    2    0  503  0.27912094517E+03 -0.13206079782E+03 -0.20969301128E+03  0.41139848728E+03  0.17300000000E+03 0.  1.
<mgrwt>
<rscale>  2 0.35394570E+03</rscale>
<asrwt>0</asrwt>
<pdfrwt beam="1">  1       21 0.61569926E-01 0.35394570E+03</pdfrwt>
<pdfrwt beam="2">  1       21 0.63872273E-01 0.35394570E+03</pdfrwt>
<totfact> 0.50594220E+03</totfact>
</mgrwt>
</event>
<event>
 4    1  0.4621995E+000  0.2112631E+03  0.7546771E-02  0.1140570E+00
         21   -1    0    0  503  502  0.00000000000E+00  0.00000000000E+00  0.41801731625E+03  0.41801731625E+03  0.00000000000E+00 0. -1.
         21   -1    0    0  501  503 -0.00000000000E+00 -0.00000000000E+00 -0.10858357288E+03  0.10858357288E+03  0.00000000000E+00 0. -1.
          6    1    1    2  501    0 -0.83899987999E+00 -0.12125339888E+03  0.18873634964E+03  0.28329048755E+03  0.17300000000E+03 0. -1.
         -6    1    1    2    0  502  0.83899987999E+00  0.12125339888E+03  0.12069739373E+03  0.24331040158E+03  0.17300000000E+03 0. -1.
<mgrwt>
<rscale>  2 0.21126308E+03</rscale>
<asrwt>0</asrwt>
<pdfrwt beam="1">  1       21 0.64310355E-01 0.21126308E+03</pdfrwt>
<pdfrwt beam="2">  1       21 0.16705165E-01 0.21126308E+03</pdfrwt>
<totfact> 0.71270501E+04</totfact>
</mgrwt>
</event>
<event>
 4    1  0.4621995E+000  0.2026446E+03  0.7546771E-02  0.1147527E+00
         21   -1    0    0  501  502  0.00000000000E+00  0.00000000000E+00  0.24167702334E+03  0.24167702334E+03  0.00000000000E+00 0.  1.
         21   -1    0    0  502  503 -0.00000000000E+00 -0.00000000000E+00 -0.19209396319E+03  0.19209396319E+03  0.00000000000E+00 0. -1.
          6    1    1    2  501    0  0.89503502826E+02 -0.55901190471E+02  0.98485742308E+02  0.22530925758E+03  0.17300000000E+03 0. -1.
         -6    1    1    2    0  503 -0.89503502826E+02  0.55901190471E+02 -0.48902682151E+02  0.20846172895E+03  0.17300000000E+03 0. -1.
<mgrwt>
<rscale>  2 0.20264457E+03</rscale>
<asrwt>0</asrwt>
<pdfrwt beam="1">  1       21 0.37181080E-01 0.20264457E+03</pdfrwt>
<pdfrwt beam="2">  1       21 0.29552917E-01 0.20264457E+03</pdfrwt>
<totfact> 0.76215505E+04</totfact>
</mgrwt>
</event>
<event>
 4    1  0.4621995E+000  0.2215938E+03  0.7546771E-02  0.1132700E+00
         21   -1    0    0  503  502  0.00000000000E+00  0.00000000000E+00  0.20822441071E+03  0.20822441071E+03  0.00000000000E+00 0.  1.
         21   -1    0    0  501  503 -0.00000000000E+00 -0.00000000000E+00 -0.24246705851E+03  0.24246705851E+03  0.00000000000E+00 0.  1.
          6    1    1    2  501    0 -0.13341450781E+03 -0.37086081959E+02 -0.54427976337E+02  0.22818022039E+03  0.17300000000E+03 0.  1.
         -6    1    1    2    0  502  0.13341450781E+03  0.37086081959E+02  0.20185328541E+02  0.22251124883E+03  0.17300000000E+03 0.  1.
<mgrwt>
<rscale>  2 0.22159379E+03</rscale>
<asrwt>0</asrwt>
<pdfrwt beam="1">  1       21 0.32034525E-01 0.22159379E+03</pdfrwt>
<pdfrwt beam="2">  1       21 0.37302624E-01 0.22159379E+03</pdfrwt>
<totfact> 0.64134560E+04</totfact>
</mgrwt>
</event>
<event>
 4    1  0.4621995E+000  0.1815664E+03  0.7546771E-02  0.1166296E+00
         21   -1    0    0  503  502  0.00000000000E+00  0.00000000000E+00  0.12665184939E+03  0.12665184939E+03  0.00000000000E+00 0. -1.
         21   -1    0    0  501  503 -0.00000000000E+00 -0.00000000000E+00 -0.39855486041E+03  0.39855486041E+03  0.00000000000E+00 0. -1.
          6    1    1    2  501    0  0.17319085519E+02 -0.52320118941E+02 -0.29062305718E+03  0.34267784716E+03  0.17300000000E+03 0. -1.
         -6    1    1    2    0  502 -0.17319085519E+02  0.52320118941E+02  0.18720046164E+02  0.18252886264E+03  0.17300000000E+03 0. -1.
<mgrwt>
<rscale>  2 0.18156637E+03</rscale>
<asrwt>0</asrwt>
<pdfrwt beam="1">  1       21 0.19484900E-01 0.18156637E+03</pdfrwt>
<pdfrwt beam="2">  1       21 0.61316131E-01 0.18156637E+03</pdfrwt>
<totfact> 0.60231808E+04</totfact>
</mgrwt>
</event>
<event>
 4    1  0.4621995E+000  0.3156398E+03  0.7546771E-02  0.1077674E+00
         21   -1    0    0  501  502  0.00000000000E+00  0.00000000000E+00  0.36220922292E+03  0.36220922292E+03  0.00000000000E+00 0.  1.
         21   -1    0    0  502  503 -0.00000000000E+00 -0.00000000000E+00 -0.30959046829E+03  0.30959046829E+03  0.00000000000E+00 0. -1.
          6    1    1    2  501    0  0.25496526326E+03 -0.68499756543E+02  0.13849328386E+03  0.34468665740E+03  0.17300000000E+03 0. -1.
         -6    1    1    2    0  503 -0.25496526326E+03  0.68499756543E+02 -0.85874529227E+02  0.32711303381E+03  0.17300000000E+03 0.  1.
<mgrwt>
<rscale>  2 0.31563983E+03</rscale>
<asrwt>0</asrwt>
<pdfrwt beam="1">  1       21 0.55724496E-01 0.31563983E+03</pdfrwt>
<pdfrwt beam="2">  1       21 0.47629303E-01 0.31563983E+03</pdfrwt>
<totfact> 0.11983989E+04</totfact>
</mgrwt>
</event>
<event>
 4    1  0.4621995E+000  0.2241386E+03  0.7546771E-02  0.1130835E+00
         21   -1    0    0  501  502  0.00000000000E+00  0.00000000000E+00  0.17883329441E+03  0.17883329441E+03  0.00000000000E+00 0.  1.
         21   -1    0    0  502  503 -0.00000000000E+00 -0.00000000000E+00 -0.28362541583E+03  0.28362541583E+03  0.00000000000E+00 0.  1.
          6    1    1    2  501    0  0.50496602989E+01  0.14242055517E+03 -0.74973186194E+02  0.23634528185E+03  0.17300000000E+03 0.  1.
         -6    1    1    2    0  503 -0.50496602989E+01 -0.14242055517E+03 -0.29818935227E+02  0.22611342840E+03  0.17300000000E+03 0.  1.
<mgrwt>
<rscale>  2 0.22413860E+03</rscale>
<asrwt>0</asrwt>
<pdfrwt beam="1">  1       21 0.27512815E-01 0.22413860E+03</pdfrwt>
<pdfrwt beam="2">  1       21 0.43634679E-01 0.22413860E+03</pdfrwt>
<totfact> 0.62735991E+04</totfact>
</mgrwt>
</event>
<event>
 4    1  0.4621995E+000  0.2041086E+03  0.7546771E-02  0.1146318E+00
         21   -1    0    0  501  502  0.00000000000E+00  0.00000000000E+00  0.10020461775E+03  0.10020461775E+03  0.00000000000E+00 0.  1.
         21   -1    0    0  502  503 -0.00000000000E+00 -0.00000000000E+00 -0.89604859666E+03  0.89604859666E+03  0.00000000000E+00 0.  1.
          6    1    1    2  501    0  0.10813403286E+03  0.61935656977E+01 -0.33228134067E+02  0.20679564360E+03  0.17300000000E+03 0.  1.
         -6    1    1    2    0  503 -0.10813403286E+03 -0.61935656977E+01 -0.76261584484E+03  0.78945757082E+03  0.17300000000E+03 0.  1.
<mgrwt>
<rscale>  2 0.20410862E+03</rscale>
<asrwt>0</asrwt>
<pdfrwt beam="1">  1       21 0.15416095E-01 0.20410862E+03</pdfrwt>
<pdfrwt beam="2">  1       21 0.13785363E+00 0.20410862E+03</pdfrwt>
<totfact> 0.13785901E+04</totfact>
</mgrwt>
</event>
<event>
 4    1  0.4621995E+000  0.2015921E+03  0.7546771E-02  0.1148403E+00
         21   -1    0    0  503  502  0.00000000000E+00  0.00000000000E+00  0.20761421009E+03  0.20761421009E+03  0.00000000000E+00 0. -1.
         21   -1    0    0  501  503 -0.00000000000E+00 -0.00000000000E+00 -0.19633800365E+03  0.19633800365E+03  0.00000000000E+00 0. -1.
          6    1    1    2  501    0  0.88048320814E+02 -0.54386372027E+02 -0.54646592890E+01  0.20166617654E+03  0.17300000000E+03 0. -1.
         -6    1    1    2    0  502 -0.88048320814E+02  0.54386372027E+02  0.16740865725E+02  0.20228603720E+03  0.17300000000E+03 0. -1.
<mgrwt>
<rscale>  2 0.20159212E+03</rscale>
<asrwt>0</asrwt>
<pdfrwt beam="1">  1       21 0.31940648E-01 0.20159212E+03</pdfrwt>
<pdfrwt beam="2">  1       21 0.30205847E-01 0.20159212E+03</pdfrwt>
<totfact> 0.98763682E+04</totfact>
</mgrwt>
</event>
<event>
 4    1  0.4621995E+000  0.2147645E+03  0.7546771E-02  0.1137848E+00
         21   -1    0    0  501  502  0.00000000000E+00  0.00000000000E+00  0.53031179767E+03  0.53031179767E+03  0.00000000000E+00 0.  1.
         21   -1    0    0  502  503 -0.00000000000E+00 -0.00000000000E+00 -0.93366616209E+02  0.93366616209E+02  0.00000000000E+00 0.  1.
          6    1    1    2  501    0  0.12724865894E+03  0.16009806479E+01  0.30006422844E+03  0.36900179611E+03  0.17300000000E+03 0.  1.
         -6    1    1    2    0  503 -0.12724865894E+03 -0.16009806479E+01  0.13688095303E+03  0.25467661778E+03  0.17300000000E+03 0.  1.
<mgrwt>
<rscale>  2 0.21476449E+03</rscale>
<asrwt>0</asrwt>
<pdfrwt beam="1">  1       21 0.81586428E-01 0.21476449E+03</pdfrwt>
<pdfrwt beam="2">  1       21 0.14364095E-01 0.21476449E+03</pdfrwt>
<totfact> 0.55244966E+04</totfact>
</mgrwt>
</event>
<event>
 4    1  0.4621995E+000  0.3017396E+03  0.7546771E-02  0.1084374E+00
         21   -1    0    0  503  502  0.00000000000E+00  0.00000000000E+00  0.15654919661E+04  0.15654919661E+04  0.00000000000E+00 0.  1.
         21   -1    0    0  501  503 -0.00000000000E+00 -0.00000000000E+00 -0.10530265557E+03  0.10530265557E+03  0.00000000000E+00 0. -1.
          6    1    1    2  501    0 -0.43984482812E+02  0.24327588020E+03  0.17112661582E+03  0.34688774446E+03  0.17300000000E+03 0. -1.
         -6    1    1    2    0  502  0.43984482812E+02 -0.24327588020E+03  0.12890626947E+04  0.13239068772E+04  0.17300000000E+03 0.  1.
<mgrwt>
<rscale>  2 0.30173960E+03</rscale>
<asrwt>0</asrwt>
<pdfrwt beam="1">  1       21 0.24084490E+00 0.30173960E+03</pdfrwt>
<pdfrwt beam="2">  1       21 0.16200410E-01 0.30173960E+03</pdfrwt>
<totfact> 0.23314321E+03</totfact>
</mgrwt>
</event>
<event>
 4    1  0.4621995E+000  0.1905979E+03  0.7546771E-02  0.1157923E+00
         21   -1    0    0  503  502  0.00000000000E+00  0.00000000000E+00  0.17515011328E+03  0.17515011328E+03  0.00000000000E+00 0. -1.
         21   -1    0    0  501  503 -0.00000000000E+00 -0.00000000000E+00 -0.33525622624E+03  0.33525622624E+03  0.00000000000E+00 0. -1.
          6    1    1    2  501    0  0.75986243028E+02  0.24992777382E+02 -0.23764893742E+03  0.30463841765E+03  0.17300000000E+03 0. -1.
         -6    1    1    2    0  502 -0.75986243028E+02 -0.24992777382E+02  0.77542824452E+02  0.20576792188E+03  0.17300000000E+03 0. -1.
<mgrwt>
<rscale>  2 0.19059787E+03</rscale>
<asrwt>0</asrwt>
<pdfrwt beam="1">  1       21 0.26946171E-01 0.19059787E+03</pdfrwt>
<pdfrwt beam="2">  1       21 0.51577881E-01 0.19059787E+03</pdfrwt>
<totfact> 0.46895584E+04</totfact>
</mgrwt>
</event>
<event>
 4    1  0.4621995E+000  0.2653993E+03  0.7546771E-02  0.1103942E+00
         21   -1    0    0  503  502  0.00000000000E+00  0.00000000000E+00  0.73108168986E+02  0.73108168986E+02  0.00000000000E+00 0. -1.
         21   -1    0    0  501  503 -0.00000000000E+00 -0.00000000000E+00 -0.30841641598E+04  0.30841641598E+04  0.00000000000E+00 0.  1.
          6    1    1    2  501    0 -0.12512140175E+03  0.15764652691E+03 -0.28145693120E+04  0.28270545104E+04  0.17300000000E+03 0.  1.
         -6    1    1    2    0  502  0.12512140175E+03 -0.15764652691E+03 -0.19648667874E+03  0.33021781833E+03  0.17300000000E+03 0. -1.
<mgrwt>
<rscale>  2 0.26539931E+03</rscale>
<asrwt>0</asrwt>
<pdfrwt beam="1">  1       21 0.11247415E-01 0.26539931E+03</pdfrwt>
<pdfrwt beam="2">  1       21 0.47448662E+00 0.26539931E+03</pdfrwt>
<totfact> 0.16790137E+02</totfact>
</mgrwt>
</event>
<event>
 4    1  0.4621995E+000  0.2127538E+03  0.7546771E-02  0.1139404E+00
         21   -1    0    0  503  502  0.00000000000E+00  0.00000000000E+00  0.88573233423E+02  0.88573233423E+02  0.00000000000E+00 0. -1.
         21   -1    0    0  501  503 -0.00000000000E+00 -0.00000000000E+00 -0.52207073711E+03  0.52207073711E+03  0.00000000000E+00 0. -1.
          6    1    1    2  501    0  0.25458633263E+02  0.12119010030E+03 -0.17236147408E+03  0.27381135872E+03  0.17300000000E+03 0. -1.
         -6    1    1    2    0  502 -0.25458633263E+02 -0.12119010030E+03 -0.26113602961E+03  0.33683261181E+03  0.17300000000E+03 0. -1.
<mgrwt>
<rscale>  2 0.21275381E+03</rscale>
<asrwt>0</asrwt>
<pdfrwt beam="1">  1       21 0.13626651E-01 0.21275381E+03</pdfrwt>
<pdfrwt beam="2">  1       21 0.80318575E-01 0.21275381E+03</pdfrwt>
<totfact> 0.63051074E+04</totfact>
</mgrwt>
</event>
<event>
 4    1  0.4621995E+000  0.2986238E+03  0.7546771E-02  0.1085931E+00
         21   -1    0    0  503  502  0.00000000000E+00  0.00000000000E+00  0.22207832389E+03  0.22207832389E+03  0.00000000000E+00 0. -1.
         21   -1    0    0  501  503 -0.00000000000E+00 -0.00000000000E+00 -0.14387506686E+04  0.14387506686E+04  0.00000000000E+00 0.  1.
          6    1    1    2  501    0  0.24294656651E+03 -0.14971821692E+02 -0.13134073222E+04  0.13469279802E+04  0.17300000000E+03 0.  1.
         -6    1    1    2    0  502 -0.24294656651E+03  0.14971821692E+02  0.96734977581E+02  0.31390101228E+03  0.17300000000E+03 0. -1.
<mgrwt>
<rscale>  2 0.29862383E+03</rscale>
<asrwt>0</asrwt>
<pdfrwt beam="1">  1       21 0.34165896E-01 0.29862383E+03</pdfrwt>
<pdfrwt beam="2">  1       21 0.22134626E+00 0.29862383E+03</pdfrwt>
<totfact> 0.73554903E+02</totfact>
</mgrwt>
</event>
<event>
 4    1  0.4621995E+000  0.1873189E+03  0.7546771E-02  0.1160902E+00
         21   -1    0    0  501  502  0.00000000000E+00  0.00000000000E+00  0.47983499655E+02  0.47983499655E+02  0.00000000000E+00 0. -1.
         21   -1    0    0  502  503 -0.00000000000E+00 -0.00000000000E+00 -0.77447777859E+03  0.77447777859E+03  0.00000000000E+00 0.  1.
          6    1    1    2  501    0  0.52480445941E+02  0.49042435524E+02 -0.26610266658E+03  0.32542124523E+03  0.17300000000E+03 0. -1.
         -6    1    1    2    0  503 -0.52480445941E+02 -0.49042435524E+02 -0.46039161236E+03  0.49704003301E+03  0.17300000000E+03 0.  1.
<mgrwt>
<rscale>  2 0.18731887E+03</rscale>
<asrwt>0</asrwt>
<pdfrwt beam="1">  1       21 0.73820769E-02 0.18731887E+03</pdfrwt>
<pdfrwt beam="2">  1       21 0.11915043E+00 0.18731887E+03</pdfrwt>
<totfact> 0.74346435E+04</totfact>
</mgrwt>
</event>
<event>
 4    1  0.4621995E+000  0.1811670E+03  0.7546771E-02  0.1166678E+00
         21   -1    0    0  503  502  0.00000000000E+00  0.00000000000E+00  0.17782857268E+03  0.17782857268E+03  0.00000000000E+00 0. -1.
         21   -1    0    0  501  503 -0.00000000000E+00 -0.00000000000E+00 -0.18623891854E+03  0.18623891854E+03  0.00000000000E+00 0. -1.
          6    1    1    2  501    0 -0.32237104256E+02 -0.43049247400E+02 -0.21447305106E+02  0.18243205719E+03  0.17300000000E+03 0. -1.
         -6    1    1    2    0  502  0.32237104256E+02  0.43049247400E+02  0.13036959241E+02  0.18163543404E+03  0.17300000000E+03 0. -1.
<mgrwt>
<rscale>  2 0.18116696E+03</rscale>
<asrwt>0</asrwt>
<pdfrwt beam="1">  1       21 0.27358242E-01 0.18116696E+03</pdfrwt>
<pdfrwt beam="2">  1       21 0.28652141E-01 0.18116696E+03</pdfrwt>
<totfact> 0.14901584E+05</totfact>
</mgrwt>
</event>
<event>
 4    1  0.4621995E+000  0.2217122E+03  0.7546771E-02  0.1132613E+00
         21   -1    0    0  503  502  0.00000000000E+00  0.00000000000E+00  0.52588246164E+03  0.52588246164E+03  0.00000000000E+00 0.  1.
         21   -1    0    0  501  503 -0.00000000000E+00 -0.00000000000E+00 -0.13359180991E+03  0.13359180991E+03  0.00000000000E+00 0.  1.
          6    1    1    2  501    0  0.12691506822E+03  0.55855896361E+02  0.15450060191E+02  0.22224990452E+03  0.17300000000E+03 0.  1.
         -6    1    1    2    0  502 -0.12691506822E+03 -0.55855896361E+02  0.37684059153E+03  0.43722436703E+03  0.17300000000E+03 0.  1.
<mgrwt>
<rscale>  2 0.22171224E+03</rscale>
<asrwt>0</asrwt>
<pdfrwt beam="1">  1       21 0.80904993E-01 0.22171224E+03</pdfrwt>
<pdfrwt beam="2">  1       21 0.20552586E-01 0.22171224E+03</pdfrwt>
<totfact> 0.28948343E+04</totfact>
</mgrwt>
</event>
<event>
 4    1  0.4621995E+000  0.2669707E+03  0.7546771E-02  0.1103026E+00
         21   -1    0    0  503  502  0.00000000000E+00  0.00000000000E+00  0.56625086029E+03  0.56625086029E+03  0.00000000000E+00 0. -1.
         21   -1    0    0  501  503 -0.00000000000E+00 -0.00000000000E+00 -0.16420083675E+03  0.16420083675E+03  0.00000000000E+00 0. -1.
          6    1    1    2  501    0  0.19626000953E+03 -0.53163562723E+02  0.24561719738E+02  0.26809817944E+03  0.17300000000E+03 0. -1.
         -6    1    1    2    0  502 -0.19626000953E+03  0.53163562723E+02  0.37748830380E+03  0.46235351761E+03  0.17300000000E+03 0. -1.
<mgrwt>
<rscale>  2 0.26697070E+03</rscale>
<asrwt>0</asrwt>
<pdfrwt beam="1">  1       21 0.87115516E-01 0.26697070E+03</pdfrwt>
<pdfrwt beam="2">  1       21 0.25261667E-01 0.26697070E+03</pdfrwt>
<totfact> 0.16132883E+04</totfact>
</mgrwt>
</event>
<event>
 4    1  0.4621995E+000  0.2589568E+03  0.7546771E-02  0.1107772E+00
         21   -1    0    0  501  502  0.00000000000E+00  0.00000000000E+00  0.31646788473E+03  0.31646788473E+03  0.00000000000E+00 0. -1.
         21   -1    0    0  502  503 -0.00000000000E+00 -0.00000000000E+00 -0.21427072743E+03  0.21427072743E+03  0.00000000000E+00 0. -1.
          6    1    1    2  501    0 -0.65679162817E+02  0.18115151501E+03  0.79028934383E+02  0.27074747698E+03  0.17300000000E+03 0. -1.
         -6    1    1    2    0  503  0.65679162817E+02 -0.18115151501E+03  0.23168222911E+02  0.25999113518E+03  0.17300000000E+03 0. -1.
<mgrwt>
<rscale>  2 0.25895680E+03</rscale>
<asrwt>0</asrwt>
<pdfrwt beam="1">  1       21 0.48687367E-01 0.25895680E+03</pdfrwt>
<pdfrwt beam="2">  1       21 0.32964727E-01 0.25895680E+03</pdfrwt>
<totfact> 0.34571231E+04</totfact>
</mgrwt>
</event>
<event>
 4    1  0.4621995E+000  0.2516829E+03  0.7546771E-02  0.1112246E+00
         21   -1    0    0  501  502  0.00000000000E+00  0.00000000000E+00  0.59427732444E+02  0.59427732444E+02  0.00000000000E+00 0. -1.
         21   -1    0    0  502  503 -0.00000000000E+00 -0.00000000000E+00 -0.11553134907E+04  0.11553134907E+04  0.00000000000E+00 0.  1.
          6    1    1    2  501    0  0.40636501264E+02  0.17822444204E+03 -0.37897860945E+03  0.45493852705E+03  0.17300000000E+03 0. -1.
         -6    1    1    2    0  503 -0.40636501264E+02 -0.17822444204E+03 -0.71690714880E+03  0.75980269609E+03  0.17300000000E+03 0.  1.
<mgrwt>
<rscale>  2 0.25168289E+03</rscale>
<asrwt>0</asrwt>
<pdfrwt beam="1">  1       21 0.91427287E-02 0.25168289E+03</pdfrwt>
<pdfrwt beam="2">  1       21 0.17774052E+00 0.25168289E+03</pdfrwt>
<totfact> 0.17228630E+04</totfact>
</mgrwt>
</event>
<event>
 4    1  0.4621995E+000  0.2891725E+03  0.7546771E-02  0.1090782E+00
         21   -1    0    0  501  502  0.00000000000E+00  0.00000000000E+00  0.17949876773E+04  0.17949876773E+04  0.00000000000E+00 0. -1.
         21   -1    0    0  502  503 -0.00000000000E+00 -0.00000000000E+00 -0.17472770729E+03  0.17472770729E+03  0.00000000000E+00 0. -1.
          6    1    1    2  501    0  0.17882267243E+03  0.14735734209E+03  0.16535392651E+04  0.16786342174E+04  0.17300000000E+03 0. -1.
         -6    1    1    2    0  503 -0.17882267243E+03 -0.14735734209E+03 -0.33279295086E+02  0.29108116724E+03  0.17300000000E+03 0. -1.
<mgrwt>
<rscale>  2 0.28917250E+03</rscale>
<asrwt>0</asrwt>
<pdfrwt beam="1">  1       21 0.27615194E+00 0.28917250E+03</pdfrwt>
<pdfrwt beam="2">  1       21 0.26881187E-01 0.28917250E+03</pdfrwt>
<totfact> 0.55473156E+02</totfact>
</mgrwt>
</event>
<event>
 4    1  0.4621995E+000  0.4676511E+03  0.7546771E-02  0.1022585E+00
         21   -1    0    0  501  502  0.00000000000E+00  0.00000000000E+00  0.23747997999E+03  0.23747997999E+03  0.00000000000E+00 0. -1.
         21   -1    0    0  502  503 -0.00000000000E+00 -0.00000000000E+00 -0.92756084937E+03  0.92756084937E+03  0.00000000000E+00 0.  1.
          6    1    1    2  501    0 -0.17313919158E+03  0.39848636630E+03 -0.29571219375E+03  0.55330214650E+03  0.17300000000E+03 0.  1.
         -6    1    1    2    0  503  0.17313919158E+03 -0.39848636630E+03 -0.39436867563E+03  0.61173868286E+03  0.17300000000E+03 0. -1.
<mgrwt>
<rscale>  2 0.46765111E+03</rscale>
<asrwt>0</asrwt>
<pdfrwt beam="1">  1       21 0.36535382E-01 0.46765111E+03</pdfrwt>
<pdfrwt beam="2">  1       21 0.14270167E+00 0.46765111E+03</pdfrwt>
<totfact> 0.20974686E+03</totfact>
</mgrwt>
</event>
<event>
 4    1  0.4621995E+000  0.2036173E+03  0.7546771E-02  0.1146722E+00
         21   -1    0    0  501  502  0.00000000000E+00  0.00000000000E+00  0.32949475283E+02  0.32949475283E+02  0.00000000000E+00 0.  1.
         21   -1    0    0  502  503 -0.00000000000E+00 -0.00000000000E+00 -0.25175929138E+04  0.25175929138E+04  0.00000000000E+00 0.  1.
          6    1    1    2  501    0 -0.10057345052E+03  0.37629829435E+02 -0.34038772664E+03  0.39664067802E+03  0.17300000000E+03 0.  1.
         -6    1    1    2    0  503  0.10057345052E+03 -0.37629829435E+02 -0.21442557119E+04  0.21539017110E+04  0.17300000000E+03 0.  1.
<mgrwt>
<rscale>  2 0.20361734E+03</rscale>
<asrwt>0</asrwt>
<pdfrwt beam="1">  1       21 0.50691494E-02 0.20361734E+03</pdfrwt>
<pdfrwt beam="2">  1       21 0.38732204E+00 0.20361734E+03</pdfrwt>
<totfact> 0.27009122E+03</totfact>
</mgrwt>
</event>
<event>
 4    1  0.4621995E+000  0.8064791E+03  0.7546771E-02  0.9550686E-01
         21   -1    0    0  501  502  0.00000000000E+00  0.00000000000E+00  0.11268173237E+04  0.11268173237E+04  0.00000000000E+00 0.  1.
         21   -1    0    0  502  503 -0.00000000000E+00 -0.00000000000E+00 -0.78313551330E+03  0.78313551330E+03  0.00000000000E+00 0. -1.
          6    1    1    2  501    0  0.57311144922E+03  0.54039134518E+03  0.66154174263E+03  0.10430944427E+04  0.17300000000E+03 0.  1.
         -6    1    1    2    0  503 -0.57311144922E+03 -0.54039134518E+03 -0.31785993227E+03  0.86685839426E+03  0.17300000000E+03 0. -1.
<mgrwt>
<rscale>  2 0.80647910E+03</rscale>
<asrwt>0</asrwt>
<pdfrwt beam="1">  1       21 0.17335651E+00 0.80647910E+03</pdfrwt>
<pdfrwt beam="2">  1       21 0.12048239E+00 0.80647910E+03</pdfrwt>
<totfact> 0.72675639E+01</totfact>
</mgrwt>
</event>
<event>
 4    1  0.4621995E+000  0.2035405E+03  0.7546771E-02  0.1146786E+00
         21   -1    0    0  501  502  0.00000000000E+00  0.00000000000E+00  0.82204404851E+03  0.82204404851E+03  0.00000000000E+00 0. -1.
         21   -1    0    0  502  503 -0.00000000000E+00 -0.00000000000E+00 -0.23187784946E+03  0.23187784946E+03  0.00000000000E+00 0. -1.
          6    1    1    2  501    0  0.51949399518E+02  0.93813589244E+02  0.76127416553E+03  0.78801464754E+03  0.17300000000E+03 0. -1.
         -6    1    1    2    0  503 -0.51949399518E+02 -0.93813589244E+02 -0.17110796648E+03  0.26590725043E+03  0.17300000000E+03 0. -1.
<mgrwt>
<rscale>  2 0.20354049E+03</rscale>
<asrwt>0</asrwt>
<pdfrwt beam="1">  1       21 0.12646831E+00 0.20354049E+03</pdfrwt>
<pdfrwt beam="2">  1       21 0.35673516E-01 0.20354049E+03</pdfrwt>
<totfact> 0.34776238E+03</totfact>
</mgrwt>
</event>
<event>
 4    1  0.4621995E+000  0.2266609E+03  0.7546771E-02  0.1129012E+00
         21   -1    0    0  503  502  0.00000000000E+00  0.00000000000E+00  0.23356834756E+02  0.23356834756E+02  0.00000000000E+00 0.  1.
         21   -1    0    0  501  503 -0.00000000000E+00 -0.00000000000E+00 -0.22077063840E+04  0.22077063840E+04  0.00000000000E+00 0.  1.
          6    1    1    2  501    0 -0.25214957259E+02  0.14425803276E+03 -0.11598640639E+04  0.11818036304E+04  0.17300000000E+03 0.  1.
         -6    1    1    2    0  502  0.25214957259E+02 -0.14425803276E+03 -0.10244854853E+04  0.10492595884E+04  0.17300000000E+03 0.  1.
<mgrwt>
<rscale>  2 0.22666092E+03</rscale>
<asrwt>0</asrwt>
<pdfrwt beam="1">  1       21 0.35933571E-02 0.22666092E+03</pdfrwt>
<pdfrwt beam="2">  1       21 0.33964734E+00 0.22666092E+03</pdfrwt>
<totfact> 0.90837217E+03</totfact>
</mgrwt>
</event>
<event>
 4    1  0.4621995E+000  0.1814418E+03  0.7546771E-02  0.1166415E+00
         21   -1    0    0  503  502  0.00000000000E+00  0.00000000000E+00  0.81442010277E+02  0.81442010277E+02  0.00000000000E+00 0.  1.
         21   -1    0    0  501  503 -0.00000000000E+00 -0.00000000000E+00 -0.59527499308E+03  0.59527499308E+03  0.00000000000E+00 0.  1.
          6    1    1    2  501    0  0.46984643905E+02 -0.28010111258E+02 -0.44860171070E+03  0.48390558784E+03  0.17300000000E+03 0.  1.
         -6    1    1    2    0  502 -0.46984643905E+02  0.28010111258E+02 -0.65231272105E+02  0.19281141552E+03  0.17300000000E+03 0.  1.
<mgrwt>
<rscale>  2 0.18144179E+03</rscale>
<asrwt>0</asrwt>
<pdfrwt beam="1">  1       21 0.12529540E-01 0.18144179E+03</pdfrwt>
<pdfrwt beam="2">  1       21 0.91580766E-01 0.18144179E+03</pdfrwt>
<totfact> 0.55097000E+04</totfact>
</mgrwt>
</event>
<event>
 4    1  0.4621995E+000  0.2181936E+03  0.7546771E-02  0.1135237E+00
         21   -1    0    0  501  502  0.00000000000E+00  0.00000000000E+00  0.35887700252E+03  0.35887700252E+03  0.00000000000E+00 0. -1.
         21   -1    0    0  502  503 -0.00000000000E+00 -0.00000000000E+00 -0.16236093517E+03  0.16236093517E+03  0.00000000000E+00 0.  1.
          6    1    1    2  501    0 -0.11420382784E+03  0.68095077720E+02  0.20972694512E+03  0.30264475117E+03  0.17300000000E+03 0. -1.
         -6    1    1    2    0  503  0.11420382784E+03 -0.68095077720E+02 -0.13210877762E+02  0.21859318652E+03  0.17300000000E+03 0.  1.
<mgrwt>
<rscale>  2 0.21819362E+03</rscale>
<asrwt>0</asrwt>
<pdfrwt beam="1">  1       21 0.55211846E-01 0.21819362E+03</pdfrwt>
<pdfrwt beam="2">  1       21 0.24978606E-01 0.21819362E+03</pdfrwt>
<totfact> 0.46360041E+04</totfact>
</mgrwt>
</event>
<event>
 4    1  0.4621995E+000  0.1800214E+03  0.7546771E-02  0.1167782E+00
         21   -1    0    0  501  502  0.00000000000E+00  0.00000000000E+00  0.18067613197E+04  0.18067613197E+04  0.00000000000E+00 0.  1.
         21   -1    0    0  502  503 -0.00000000000E+00 -0.00000000000E+00 -0.37907220768E+02  0.37907220768E+02  0.00000000000E+00 0.  1.
          6    1    1    2  501    0  0.49786496610E+02 -0.13476925229E-02  0.15538797609E+04  0.15642729962E+04  0.17300000000E+03 0. -1.
         -6    1    1    2    0  503 -0.49786496610E+02  0.13476925229E-02  0.21497433805E+03  0.28039554431E+03  0.17300000000E+03 0. -1.
<mgrwt>
<rscale>  2 0.18002137E+03</rscale>
<asrwt>0</asrwt>
<pdfrwt beam="1">  1       21 0.27796321E+00 0.18002137E+03</pdfrwt>
<pdfrwt beam="2">  1       21 0.58318815E-02 0.18002137E+03</pdfrwt>
<totfact> 0.95918301E+03</totfact>
</mgrwt>
</event>
<event>
 4    1  0.4621995E+000  0.2165450E+03  0.7546771E-02  0.1136485E+00
         21   -1    0    0  503  502  0.00000000000E+00  0.00000000000E+00  0.14848855707E+03  0.14848855707E+03  0.00000000000E+00 0.  1.
         21   -1    0    0  501  503 -0.00000000000E+00 -0.00000000000E+00 -0.33812051053E+03  0.33812051053E+03  0.00000000000E+00 0.  1.
          6    1    1    2  501    0 -0.12399651637E+03  0.39844759247E+02 -0.15733733982E+03  0.26766916037E+03  0.17300000000E+03 0.  1.
         -6    1    1    2    0  502  0.12399651637E+03 -0.39844759247E+02 -0.32294613646E+02  0.21893990724E+03  0.17300000000E+03 0.  1.
<mgrwt>
<rscale>  2 0.21654501E+03</rscale>
<asrwt>0</asrwt>
<pdfrwt beam="1">  1       21 0.22844393E-01 0.21654501E+03</pdfrwt>
<pdfrwt beam="2">  1       21 0.52018540E-01 0.21654501E+03</pdfrwt>
<totfact> 0.62383917E+04</totfact>
</mgrwt>
</event>
<event>
 4    1  0.4621995E+000  0.1992882E+03  0.7546771E-02  0.1150341E+00
         21   -1    0    0  503  502  0.00000000000E+00  0.00000000000E+00  0.27376729734E+03  0.27376729734E+03  0.00000000000E+00 0.  1.
         21   -1    0    0  501  503 -0.00000000000E+00 -0.00000000000E+00 -0.15034731980E+03  0.15034731980E+03  0.00000000000E+00 0. -1.
          6    1    1    2  501    0  0.70092694753E+00 -0.98925724828E+02  0.10143433079E+03  0.22361733787E+03  0.17300000000E+03 0.  1.
         -6    1    1    2    0  502 -0.70092694753E+00  0.98925724828E+02  0.21985646748E+02  0.20049727927E+03  0.17300000000E+03 0. -1.
<mgrwt>
<rscale>  2 0.19928821E+03</rscale>
<asrwt>0</asrwt>
<pdfrwt beam="1">  1       21 0.42118046E-01 0.19928821E+03</pdfrwt>
<pdfrwt beam="2">  1       21 0.23130357E-01 0.19928821E+03</pdfrwt>
<totfact> 0.95005271E+04</totfact>
</mgrwt>
</event>
<event>
 4    1  0.4621995E+000  0.2451849E+03  0.7546771E-02  0.1116386E+00
         21   -1    0    0  501  502  0.00000000000E+00  0.00000000000E+00  0.69144110182E+03  0.69144110182E+03  0.00000000000E+00 0. -1.
         21   -1    0    0  502  503 -0.00000000000E+00 -0.00000000000E+00 -0.89232682390E+02  0.89232682390E+02  0.00000000000E+00 0. -1.
          6    1    1    2  501    0  0.78935306981E+02  0.15477672413E+03  0.36363771808E+03  0.43857497310E+03  0.17300000000E+03 0. -1.
         -6    1    1    2    0  503 -0.78935306981E+02 -0.15477672413E+03  0.23857070135E+03  0.34209881111E+03  0.17300000000E+03 0. -1.
<mgrwt>
<rscale>  2 0.24518486E+03</rscale>
<asrwt>0</asrwt>
<pdfrwt beam="1">  1       21 0.10637555E+00 0.24518486E+03</pdfrwt>
<pdfrwt beam="2">  1       21 0.13728105E-01 0.24518486E+03</pdfrwt>
<totfact> 0.31734795E+04</totfact>
</mgrwt>
</event>
<event>
 4    1  0.4621995E+000  0.3738562E+03  0.7546771E-02  0.1053228E+00
         21   -1    0    0  501  502  0.00000000000E+00  0.00000000000E+00  0.57544339997E+03  0.57544339997E+03  0.00000000000E+00 0.  1.
         21   -1    0    0  502  503 -0.00000000000E+00 -0.00000000000E+00 -0.25578001909E+03  0.25578001909E+03  0.00000000000E+00 0. -1.
          6    1    1    2  501    0  0.15270028650E+03  0.29414639212E+03  0.66525675720E+02  0.37972903896E+03  0.17300000000E+03 0. -1.
         -6    1    1    2    0  503 -0.15270028650E+03 -0.29414639212E+03  0.25313770516E+03  0.45149438011E+03  0.17300000000E+03 0.  1.
<mgrwt>
<rscale>  2 0.37385623E+03</rscale>
<asrwt>0</asrwt>
<pdfrwt beam="1">  1       21 0.88529753E-01 0.37385623E+03</pdfrwt>
<pdfrwt beam="2">  1       21 0.39350773E-01 0.37385623E+03</pdfrwt>
<totfact> 0.61585025E+03</totfact>
</mgrwt>
</event>
<event>
 4    1  0.4621995E+000  0.3545979E+03  0.7546771E-02  0.1060744E+00
         21   -1    0    0  501  502  0.00000000000E+00  0.00000000000E+00  0.46063037615E+03  0.46063037615E+03  0.00000000000E+00 0.  1.
         21   -1    0    0  502  503 -0.00000000000E+00 -0.00000000000E+00 -0.27441003829E+03  0.27441003829E+03  0.00000000000E+00 0. -1.
          6    1    1    2  501    0 -0.28723101196E+03 -0.11536478847E+03  0.11970544943E+03  0.37425804370E+03  0.17300000000E+03 0. -1.
         -6    1    1    2    0  503  0.28723101196E+03  0.11536478847E+03  0.66514888435E+02  0.36078237074E+03  0.17300000000E+03 0.  1.
<mgrwt>
<rscale>  2 0.35459793E+03</rscale>
<asrwt>0</asrwt>
<pdfrwt beam="1">  1       21 0.70866212E-01 0.35459793E+03</pdfrwt>
<pdfrwt beam="2">  1       21 0.42216929E-01 0.35459793E+03</pdfrwt>
<totfact> 0.89477771E+03</totfact>
</mgrwt>
</event>
<event>
 4    1  0.4621995E+000  0.1759933E+03  0.7546771E-02  0.1171738E+00
         21   -1    0    0  501  502  0.00000000000E+00  0.00000000000E+00  0.87297903237E+02  0.87297903237E+02  0.00000000000E+00 0. -1.
         21   -1    0    0  502  503 -0.00000000000E+00 -0.00000000000E+00 -0.57007646641E+03  0.57007646641E+03  0.00000000000E+00 0. -1.
          6    1    1    2  501    0  0.13362043103E+02  0.29429416615E+02 -0.39408252845E+02  0.18035144898E+03  0.17300000000E+03 0. -1.
         -6    1    1    2    0  503 -0.13362043103E+02 -0.29429416615E+02 -0.44337031033E+03  0.47702292066E+03  0.17300000000E+03 0. -1.
<mgrwt>
<rscale>  2 0.17599328E+03</rscale>
<asrwt>0</asrwt>
<pdfrwt beam="1">  1       21 0.13430446E-01 0.17599328E+03</pdfrwt>
<pdfrwt beam="2">  1       21 0.87704076E-01 0.17599328E+03</pdfrwt>
<totfact> 0.53883695E+04</totfact>
</mgrwt>
</event>
<event>
 4    1  0.4621995E+000  0.1948556E+03  0.7546771E-02  0.1154153E+00
         21   -1    0    0  503  502  0.00000000000E+00  0.00000000000E+00  0.17460241268E+04  0.17460241268E+04  0.00000000000E+00 0. -1.
         21   -1    0    0  501  503 -0.00000000000E+00 -0.00000000000E+00 -0.30197367413E+02  0.30197367413E+02  0.00000000000E+00 0. -1.
          6    1    1    2  501    0 -0.34707286617E+02  0.82674752701E+02  0.38807235607E+03  0.43424516580E+03  0.17300000000E+03 0. -1.
         -6    1    1    2    0  502  0.34707286617E+02 -0.82674752701E+02  0.13277544033E+04  0.13419763284E+04  0.17300000000E+03 0. -1.
<mgrwt>
<rscale>  2 0.19485561E+03</rscale>
<asrwt>0</asrwt>
<pdfrwt beam="1">  1       21 0.26861902E+00 0.19485561E+03</pdfrwt>
<pdfrwt beam="2">  1       21 0.46457502E-02 0.19485561E+03</pdfrwt>
<totfact> 0.15739628E+04</totfact>
</mgrwt>
</event>
<event>
 4    1  0.4621995E+000  0.2081399E+03  0.7546771E-02  0.1143048E+00
         21   -1    0    0  501  502  0.00000000000E+00  0.00000000000E+00  0.11095068598E+04  0.11095068598E+04  0.00000000000E+00 0. -1.
         21   -1    0    0  502  503 -0.00000000000E+00 -0.00000000000E+00 -0.15524616826E+03  0.15524616826E+03  0.00000000000E+00 0. -1.
          6    1    1    2  501    0 -0.59213044801E+02  0.99433536472E+02  0.10242319378E+04  0.10451666256E+04  0.17300000000E+03 0. -1.
         -6    1    1    2    0  503  0.59213044801E+02 -0.99433536472E+02 -0.69971246244E+02  0.21958640247E+03  0.17300000000E+03 0. -1.
<mgrwt>
<rscale>  2 0.20813989E+03</rscale>
<asrwt>0</asrwt>
<pdfrwt beam="1">  1       21 0.17069336E+00 0.20813989E+03</pdfrwt>
<pdfrwt beam="2">  1       21 0.23884027E-01 0.20813989E+03</pdfrwt>
<totfact> 0.34379693E+03</totfact>
</mgrwt>
</event>
<event>
 4    1  0.4621995E+000  0.1851067E+03  0.7546771E-02  0.1162950E+00
         21   -1    0    0  503  502  0.00000000000E+00  0.00000000000E+00  0.32089062437E+03  0.32089062437E+03  0.00000000000E+00 0. -1.
         21   -1    0    0  501  503 -0.00000000000E+00 -0.00000000000E+00 -0.10960101547E+03  0.10960101547E+03  0.00000000000E+00 0. -1.
          6    1    1    2  501    0 -0.15453356904E+02 -0.64005376593E+02  0.14018141202E+03  0.23219673285E+03  0.17300000000E+03 0. -1.
         -6    1    1    2    0  502  0.15453356904E+02  0.64005376593E+02  0.71108196889E+02  0.19829490699E+03  0.17300000000E+03 0. -1.
<mgrwt>
<rscale>  2 0.18510671E+03</rscale>
<asrwt>0</asrwt>
<pdfrwt beam="1">  1       21 0.49367788E-01 0.18510671E+03</pdfrwt>
<pdfrwt beam="2">  1       21 0.16861695E-01 0.18510671E+03</pdfrwt>
<totfact> 0.12424128E+05</totfact>
</mgrwt>
</event>
<event>
 4    1  0.4621995E+000  0.2022369E+03  0.7546771E-02  0.1147865E+00
         21   -1    0    0  501  502  0.00000000000E+00  0.00000000000E+00  0.10317468991E+04  0.10317468991E+04  0.00000000000E+00 0.  1.
         21   -1    0    0  502  503 -0.00000000000E+00 -0.00000000000E+00 -0.67102103499E+02  0.67102103499E+02  0.00000000000E+00 0.  1.
          6    1    1    2  501    0  0.75645449462E+02 -0.72446672296E+02  0.83379933736E+03  0.85797499342E+03  0.17300000000E+03 0.  1.
         -6    1    1    2    0  503 -0.75645449462E+02  0.72446672296E+02  0.13084545822E+03  0.24087400916E+03  0.17300000000E+03 0.  1.
<mgrwt>
<rscale>  2 0.20223688E+03</rscale>
<asrwt>0</asrwt>
<pdfrwt beam="1">  1       21 0.15873028E+00 0.20223688E+03</pdfrwt>
<pdfrwt beam="2">  1       21 0.10323401E-01 0.20223688E+03</pdfrwt>
<totfact> 0.19594884E+04</totfact>
</mgrwt>
</event>
<event>
 4    1  0.4621995E+000  0.1741728E+03  0.7546771E-02  0.1173565E+00
         21   -1    0    0  501  502  0.00000000000E+00  0.00000000000E+00  0.28224868520E+03  0.28224868520E+03  0.00000000000E+00 0. -1.
         21   -1    0    0  502  503 -0.00000000000E+00 -0.00000000000E+00 -0.51339249683E+03  0.51339249683E+03  0.00000000000E+00 0. -1.
          6    1    1    2  501    0 -0.16014181849E+02  0.12277098316E+02  0.23816350357E+03  0.29505598722E+03  0.17300000000E+03 0. -1.
         -6    1    1    2    0  503  0.16014181849E+02 -0.12277098316E+02 -0.46930731519E+03  0.50058519481E+03  0.17300000000E+03 0. -1.
<mgrwt>
<rscale>  2 0.17417285E+03</rscale>
<asrwt>0</asrwt>
<pdfrwt beam="1">  1       21 0.43422875E-01 0.17417285E+03</pdfrwt>
<pdfrwt beam="2">  1       21 0.78983461E-01 0.17417285E+03</pdfrwt>
<totfact> 0.73178309E+03</totfact>
</mgrwt>
</event>
<event>
 4    1  0.4621995E+000  0.1819208E+03  0.7546771E-02  0.1165957E+00
         21   -1    0    0  501  502  0.00000000000E+00  0.00000000000E+00  0.23268480296E+03  0.23268480296E+03  0.00000000000E+00 0.  1.
         21   -1    0    0  502  503 -0.00000000000E+00 -0.00000000000E+00 -0.20786045292E+03  0.20786045292E+03  0.00000000000E+00 0.  1.
          6    1    1    2  501    0 -0.49177619258E+02  0.27345125161E+02  0.13618380765E+03  0.22724705404E+03  0.17300000000E+03 0.  1.
         -6    1    1    2    0  503  0.49177619258E+02 -0.27345125161E+02 -0.11135945761E+03  0.21329820183E+03  0.17300000000E+03 0.  1.
<mgrwt>
<rscale>  2 0.18192085E+03</rscale>
<asrwt>0</asrwt>
<pdfrwt beam="1">  1       21 0.35797662E-01 0.18192085E+03</pdfrwt>
<pdfrwt beam="2">  1       21 0.31978531E-01 0.18192085E+03</pdfrwt>
<totfact> 0.71087195E+04</totfact>
</mgrwt>
</event>
<event>
 4    1  0.4621995E+000  0.1927721E+03  0.7546771E-02  0.1155985E+00
         21   -1    0    0  503  502  0.00000000000E+00  0.00000000000E+00  0.36204865687E+03  0.36204865687E+03  0.00000000000E+00 0. -1.
         21   -1    0    0  501  503 -0.00000000000E+00 -0.00000000000E+00 -0.12356696609E+03  0.12356696609E+03  0.00000000000E+00 0. -1.
          6    1    1    2  501    0  0.18466625863E+02  0.83012552496E+02  0.19320853925E+02  0.19373795586E+03  0.17300000000E+03 0. -1.
         -6    1    1    2    0  502 -0.18466625863E+02 -0.83012552496E+02  0.21916083685E+03  0.29187766710E+03  0.17300000000E+03 0. -1.
<mgrwt>
<rscale>  2 0.19277215E+03</rscale>
<asrwt>0</asrwt>
<pdfrwt beam="1">  1       21 0.55699793E-01 0.19277215E+03</pdfrwt>
<pdfrwt beam="2">  1       21 0.19010303E-01 0.19277215E+03</pdfrwt>
<totfact> 0.77052469E+04</totfact>
</mgrwt>
</event>
<event>
 4    1  0.4621995E+000  0.2346514E+03  0.7546771E-02  0.1123408E+00
         21   -1    0    0  503  502  0.00000000000E+00  0.00000000000E+00  0.11121975085E+03  0.11121975085E+03  0.00000000000E+00 0.  1.
         21   -1    0    0  501  503 -0.00000000000E+00 -0.00000000000E+00 -0.49668057128E+03  0.49668057128E+03  0.00000000000E+00 0.  1.
          6    1    1    2  501    0 -0.14880209650E+03 -0.54682987973E+02 -0.17540914675E+03  0.29296699790E+03  0.17300000000E+03 0. -1.
         -6    1    1    2    0  502  0.14880209650E+03  0.54682987973E+02 -0.21005167369E+03  0.31493332424E+03  0.17300000000E+03 0. -1.
<mgrwt>
<rscale>  2 0.23465143E+03</rscale>
<asrwt>0</asrwt>
<pdfrwt beam="1">  1       21 0.17110731E-01 0.23465143E+03</pdfrwt>
<pdfrwt beam="2">  1       21 0.76412395E-01 0.23465143E+03</pdfrwt>
<totfact> 0.46074313E+04</totfact>
</mgrwt>
</event>
<event>
 4    1  0.4621995E+000  0.1953363E+03  0.7546771E-02  0.1153734E+00
         21   -1    0    0  501  502  0.00000000000E+00  0.00000000000E+00  0.60577936783E+02  0.60577936783E+02  0.00000000000E+00 0. -1.
         21   -1    0    0  502  503 -0.00000000000E+00 -0.00000000000E+00 -0.66488459394E+03  0.66488459394E+03  0.00000000000E+00 0. -1.
          6    1    1    2  501    0  0.90682409033E+02  0.19937930086E+01 -0.38539318794E+03  0.43206965160E+03  0.17300000000E+03 0. -1.
         -6    1    1    2    0  503 -0.90682409033E+02 -0.19937930086E+01 -0.21891346922E+03  0.29339287913E+03  0.17300000000E+03 0. -1.
<mgrwt>
<rscale>  2 0.19533631E+03</rscale>
<asrwt>0</asrwt>
<pdfrwt beam="1">  1       21 0.93196822E-02 0.19533631E+03</pdfrwt>
<pdfrwt beam="2">  1       21 0.10228994E+00 0.19533631E+03</pdfrwt>
<totfact> 0.71374447E+04</totfact>
</mgrwt>
</event>
<event>
 4    1  0.4621995E+000  0.2185655E+03  0.7546771E-02  0.1134957E+00
         21   -1    0    0  503  502  0.00000000000E+00  0.00000000000E+00  0.85952319145E+02  0.85952319145E+02  0.00000000000E+00 0. -1.
         21   -1    0    0  501  503 -0.00000000000E+00 -0.00000000000E+00 -0.10676167770E+04  0.10676167770E+04  0.00000000000E+00 0. -1.
          6    1    1    2  501    0 -0.27479620510E+02  0.13071625020E+03 -0.89019745451E+03  0.91663644681E+03  0.17300000000E+03 0. -1.
         -6    1    1    2    0  502  0.27479620510E+02 -0.13071625020E+03 -0.91467003311E+02  0.23693264930E+03  0.17300000000E+03 0. -1.
<mgrwt>
<rscale>  2 0.21856548E+03</rscale>
<asrwt>0</asrwt>
<pdfrwt beam="1">  1       21 0.13223435E-01 0.21856548E+03</pdfrwt>
<pdfrwt beam="2">  1       21 0.16424872E+00 0.21856548E+03</pdfrwt>
<totfact> 0.11337691E+04</totfact>
</mgrwt>
</event>
<event>
 4    1  0.4621995E+000  0.2522553E+03  0.7546771E-02  0.1111888E+00
         21   -1    0    0  503  502  0.00000000000E+00  0.00000000000E+00  0.20579486831E+03  0.20579486831E+03  0.00000000000E+00 0. -1.
         21   -1    0    0  501  503 -0.00000000000E+00 -0.00000000000E+00 -0.51533579750E+03  0.51533579750E+03  0.00000000000E+00 0. -1.
          6    1    1    2  501    0  0.17430431145E+03 -0.57634749775E+02 -0.38281017681E+03  0.45844998510E+03  0.17300000000E+03 0. -1.
         -6    1    1    2    0  502 -0.17430431145E+03  0.57634749775E+02  0.73269247620E+02  0.26268068071E+03  0.17300000000E+03 0. -1.
<mgrwt>
<rscale>  2 0.25225534E+03</rscale>
<asrwt>0</asrwt>
<pdfrwt beam="1">  1       21 0.31660749E-01 0.25225534E+03</pdfrwt>
<pdfrwt beam="2">  1       21 0.79282430E-01 0.25225534E+03</pdfrwt>
<totfact> 0.12992127E+04</totfact>
</mgrwt>
</event>
<event>
 4    1  0.4621995E+000  0.1888849E+03  0.7546771E-02  0.1159471E+00
         21   -1    0    0  501  502  0.00000000000E+00  0.00000000000E+00  0.62165071287E+03  0.62165071287E+03  0.00000000000E+00 0.  1.
         21   -1    0    0  502  503 -0.00000000000E+00 -0.00000000000E+00 -0.81068978126E+02  0.81068978126E+02  0.00000000000E+00 0.  1.
          6    1    1    2  501    0 -0.55270862903E+02 -0.51900320662E+02  0.46017638417E+03  0.49743322780E+03  0.17300000000E+03 0.  1.
         -6    1    1    2    0  503  0.55270862903E+02  0.51900320662E+02  0.80405350575E+02  0.20528646320E+03  0.17300000000E+03 0.  1.
<mgrwt>
<rscale>  2 0.18888492E+03</rscale>
<asrwt>0</asrwt>
<pdfrwt beam="1">  1       21 0.95638568E-01 0.18888492E+03</pdfrwt>
<pdfrwt beam="2">  1       21 0.12472151E-01 0.18888492E+03</pdfrwt>
<totfact> 0.50031812E+04</totfact>
</mgrwt>
</event>
