<event>
 4    1  0.4374784E+000  0.3187086E+03  0.7546771E-02  0.1076245E+00
         21   -1    0    0  501  502  0.00000000000E+00  0.00000000000E+00  0.27831277785E+03  0.27831277785E+03  0.00000000000E+00 0. -1.
         21   -1    0    0  502  503 -0.00000000000E+00 -0.00000000000E+00 -0.67570005646E+03  0.67570005646E+03  0.00000000000E+00 0.  1.
          6    1    1    2  501    0 -0.16731068132E+03  0.20893369808E+03  0.12478122091E+03  0.34226525878E+03  0.17300000000E+03 0. -1.
         -6    1    1    2    0  503  0.16731068132E+03 -0.20893369808E+03 -0.52216849952E+03  0.61174757553E+03  0.17300000000E+03 0.  1.
<mgrwt>
<rscale>  2 0.31870857E+03</rscale>
<asrwt>0</asrwt>
<pdfrwt beam="1">  1       21 0.42817351E-01 0.31870857E+03</pdfrwt>
<pdfrwt beam="2">  1       21 0.10395385E+00 0.31870857E+03</pdfrwt>
<totfact> 0.36155166E+03</totfact>
</mgrwt>
</event>
<event>
 4    1  0.4374784E+000  0.1801472E+03  0.7546771E-02  0.1167661E+00
         21   -1    0    0  503  502  0.00000000000E+00  0.00000000000E+00  0.56607931457E+03  0.56607931457E+03  0.00000000000E+00 0.  1.
         21   -1    0    0  501  503 -0.00000000000E+00 -0.00000000000E+00 -0.12152711633E+03  0.12152711633E+03  0.00000000000E+00 0.  1.
          6    1    1    2  501    0  0.19731548804E+02 -0.46202441581E+02 -0.27604796999E+02  0.18224989559E+03  0.17300000000E+03 0.  1.
         -6    1    1    2    0  502 -0.19731548804E+02  0.46202441581E+02  0.47215699523E+03  0.50535653530E+03  0.17300000000E+03 0.  1.
<mgrwt>
<rscale>  2 0.18014716E+03</rscale>
<asrwt>0</asrwt>
<pdfrwt beam="1">  1       21 0.87089124E-01 0.18014716E+03</pdfrwt>
<pdfrwt beam="2">  1       21 0.18696480E-01 0.18014716E+03</pdfrwt>
<totfact> 0.29866468E+04</totfact>
</mgrwt>
</event>
<event>
 4    1  0.4374784E+000  0.2046196E+03  0.7546771E-02  0.1145899E+00
         21   -1    0    0  501  502  0.00000000000E+00  0.00000000000E+00  0.53132654844E+03  0.53132654844E+03  0.00000000000E+00 0.  1.
         21   -1    0    0  502  503 -0.00000000000E+00 -0.00000000000E+00 -0.10574067189E+03  0.10574067189E+03  0.00000000000E+00 0.  1.
          6    1    1    2  501    0 -0.10312557040E+03  0.36128676461E+02  0.37357176194E+03  0.42594016699E+03  0.17300000000E+03 0.  1.
         -6    1    1    2    0  503  0.10312557040E+03 -0.36128676461E+02  0.52014114616E+02  0.21112705334E+03  0.17300000000E+03 0.  1.
<mgrwt>
<rscale>  2 0.20461956E+03</rscale>
<asrwt>0</asrwt>
<pdfrwt beam="1">  1       21 0.81742545E-01 0.20461956E+03</pdfrwt>
<pdfrwt beam="2">  1       21 0.16267796E-01 0.20461956E+03</pdfrwt>
<totfact> 0.44031963E+04</totfact>
</mgrwt>
</event>
<event>
 4    1  0.4374784E+000  0.1997629E+03  0.7546771E-02  0.1149939E+00
         21   -1    0    0  501  502  0.00000000000E+00  0.00000000000E+00  0.56234222464E+03  0.56234222464E+03  0.00000000000E+00 0.  1.
         21   -1    0    0  502  503 -0.00000000000E+00 -0.00000000000E+00 -0.10188149771E+03  0.10188149771E+03  0.00000000000E+00 0.  1.
          6    1    1    2  501    0 -0.48697482166E+02  0.87205266518E+02  0.41318756763E+03  0.45894353610E+03  0.17300000000E+03 0.  1.
         -6    1    1    2    0  503  0.48697482166E+02 -0.87205266518E+02  0.47273159304E+02  0.20528018625E+03  0.17300000000E+03 0.  1.
<mgrwt>
<rscale>  2 0.19976287E+03</rscale>
<asrwt>0</asrwt>
<pdfrwt beam="1">  1       21 0.86514187E-01 0.19976287E+03</pdfrwt>
<pdfrwt beam="2">  1       21 0.15674077E-01 0.19976287E+03</pdfrwt>
<totfact> 0.41507461E+04</totfact>
</mgrwt>
</event>
<event>
 4    1  0.4374784E+000  0.1834438E+03  0.7546771E-02  0.1164511E+00
         21   -1    0    0  503  502  0.00000000000E+00  0.00000000000E+00  0.29599762146E+03  0.29599762146E+03  0.00000000000E+00 0. -1.
         21   -1    0    0  501  503 -0.00000000000E+00 -0.00000000000E+00 -0.13934177210E+03  0.13934177210E+03  0.00000000000E+00 0. -1.
          6    1    1    2  501    0  0.57526054602E+02  0.20331748648E+02  0.17172339046E+03  0.25127783386E+03  0.17300000000E+03 0. -1.
         -6    1    1    2    0  502 -0.57526054602E+02 -0.20331748648E+02 -0.15067541095E+02  0.18406155969E+03  0.17300000000E+03 0. -1.
<mgrwt>
<rscale>  2 0.18344380E+03</rscale>
<asrwt>0</asrwt>
<pdfrwt beam="1">  1       21 0.45538095E-01 0.18344380E+03</pdfrwt>
<pdfrwt beam="2">  1       21 0.21437196E-01 0.18344380E+03</pdfrwt>
<totfact> 0.94057859E+04</totfact>
</mgrwt>
</event>
<event>
 4    1  0.4374784E+000  0.3592095E+03  0.7546771E-02  0.1058897E+00
         21   -1    0    0  503  502  0.00000000000E+00  0.00000000000E+00  0.24655283713E+03  0.24655283713E+03  0.00000000000E+00 0. -1.
         21   -1    0    0  501  503 -0.00000000000E+00 -0.00000000000E+00 -0.76074880419E+03  0.76074880419E+03  0.00000000000E+00 0.  1.
          6    1    1    2  501    0 -0.19295022469E+03 -0.24874212946E+03 -0.53845357932E+03  0.64727404804E+03  0.17300000000E+03 0.  1.
         -6    1    1    2    0  502  0.19295022469E+03  0.24874212946E+03  0.24257612266E+02  0.36002759329E+03  0.17300000000E+03 0. -1.
<mgrwt>
<rscale>  2 0.35920946E+03</rscale>
<asrwt>0</asrwt>
<pdfrwt beam="1">  1       21 0.37931206E-01 0.35920946E+03</pdfrwt>
<pdfrwt beam="2">  1       21 0.11703828E+00 0.35920946E+03</pdfrwt>
<totfact> 0.33944048E+03</totfact>
</mgrwt>
</event>
<event>
 4    1  0.4374784E+000  0.1818442E+03  0.7546771E-02  0.1166030E+00
         21   -1    0    0  503  502  0.00000000000E+00  0.00000000000E+00  0.29985580922E+03  0.29985580922E+03  0.00000000000E+00 0.  1.
         21   -1    0    0  501  503 -0.00000000000E+00 -0.00000000000E+00 -0.19435427869E+03  0.19435427869E+03  0.00000000000E+00 0.  1.
          6    1    1    2  501    0 -0.26710033265E+02  0.49243208675E+02 -0.10977523350E+03  0.21240979584E+03  0.17300000000E+03 0.  1.
         -6    1    1    2    0  502  0.26710033265E+02 -0.49243208675E+02  0.21527676403E+03  0.28180029207E+03  0.17300000000E+03 0.  1.
<mgrwt>
<rscale>  2 0.18184422E+03</rscale>
<asrwt>0</asrwt>
<pdfrwt beam="1">  1       21 0.46131663E-01 0.18184422E+03</pdfrwt>
<pdfrwt beam="2">  1       21 0.29900658E-01 0.18184422E+03</pdfrwt>
<totfact> 0.48539361E+04</totfact>
</mgrwt>
</event>
<event>
 4    1  0.4374784E+000  0.2272116E+03  0.7546771E-02  0.1128618E+00
         21   -1    0    0  503  502  0.00000000000E+00  0.00000000000E+00  0.10912239652E+03  0.10912239652E+03  0.00000000000E+00 0. -1.
         21   -1    0    0  501  503 -0.00000000000E+00 -0.00000000000E+00 -0.78373749620E+03  0.78373749620E+03  0.00000000000E+00 0. -1.
          6    1    1    2  501    0  0.13506628746E+03  0.58764072133E+02 -0.61836774920E+03  0.65878964126E+03  0.17300000000E+03 0. -1.
         -6    1    1    2    0  502 -0.13506628746E+03 -0.58764072133E+02 -0.56247350480E+02  0.23407025146E+03  0.17300000000E+03 0. -1.
<mgrwt>
<rscale>  2 0.22721162E+03</rscale>
<asrwt>0</asrwt>
<pdfrwt beam="1">  1       21 0.16788061E-01 0.22721162E+03</pdfrwt>
<pdfrwt beam="2">  1       21 0.12057500E+00 0.22721162E+03</pdfrwt>
<totfact> 0.16300218E+04</totfact>
</mgrwt>
</event>
<event>
 4    1  0.4374784E+000  0.2128056E+03  0.7546771E-02  0.1139363E+00
         21   -1    0    0  501  502  0.00000000000E+00  0.00000000000E+00  0.83446045566E+03  0.83446045566E+03  0.00000000000E+00 0.  1.
         21   -1    0    0  502  503 -0.00000000000E+00 -0.00000000000E+00 -0.83468403899E+02  0.83468403899E+02  0.00000000000E+00 0. -1.
          6    1    1    2  501    0  0.10120773866E+03  0.71513704339E+02  0.64695056500E+03  0.68105157648E+03  0.17300000000E+03 0.  1.
         -6    1    1    2    0  503 -0.10120773866E+03 -0.71513704339E+02  0.10404148676E+03  0.23687728308E+03  0.17300000000E+03 0. -1.
<mgrwt>
<rscale>  2 0.21280558E+03</rscale>
<asrwt>0</asrwt>
<pdfrwt beam="1">  1       21 0.12837853E+00 0.21280558E+03</pdfrwt>
<pdfrwt beam="2">  1       21 0.12841293E-01 0.21280558E+03</pdfrwt>
<totfact> 0.22896481E+04</totfact>
</mgrwt>
</event>
<event>
 4    1  0.4374784E+000  0.2142809E+03  0.7546771E-02  0.1138220E+00
         21   -1    0    0  501  502  0.00000000000E+00  0.00000000000E+00  0.22748105484E+03  0.22748105484E+03  0.00000000000E+00 0. -1.
         21   -1    0    0  502  503 -0.00000000000E+00 -0.00000000000E+00 -0.27844210584E+03  0.27844210584E+03  0.00000000000E+00 0.  1.
          6    1    1    2  501    0 -0.10711817554E+03 -0.67179014312E+02  0.10719419514E+03  0.23959741018E+03  0.17300000000E+03 0. -1.
         -6    1    1    2    0  503  0.10711817554E+03  0.67179014312E+02 -0.15815524614E+03  0.26632575050E+03  0.17300000000E+03 0.  1.
<mgrwt>
<rscale>  2 0.21428095E+03</rscale>
<asrwt>0</asrwt>
<pdfrwt beam="1">  1       21 0.34997086E-01 0.21428095E+03</pdfrwt>
<pdfrwt beam="2">  1       21 0.42837247E-01 0.21428095E+03</pdfrwt>
<totfact> 0.40805630E+04</totfact>
</mgrwt>
</event>
<event>
 4    1  0.4374784E+000  0.1732705E+03  0.7546771E-02  0.1174479E+00
         21   -1    0    0  501  502  0.00000000000E+00  0.00000000000E+00  0.43096956150E+03  0.43096956150E+03  0.00000000000E+00 0. -1.
         21   -1    0    0  502  503 -0.00000000000E+00 -0.00000000000E+00 -0.70306096861E+02  0.70306096861E+02  0.00000000000E+00 0. -1.
          6    1    1    2  501    0 -0.61741868995E+01  0.74536807588E+01  0.20430088961E+03  0.26788342882E+03  0.17300000000E+03 0. -1.
         -6    1    1    2    0  503  0.61741868995E+01 -0.74536807588E+01  0.15636257503E+03  0.23339222954E+03  0.17300000000E+03 0. -1.
<mgrwt>
<rscale>  2 0.17327053E+03</rscale>
<asrwt>0</asrwt>
<pdfrwt beam="1">  1       21 0.66303008E-01 0.17327053E+03</pdfrwt>
<pdfrwt beam="2">  1       21 0.10816323E-01 0.17327053E+03</pdfrwt>
<totfact> 0.14835995E+05</totfact>
</mgrwt>
</event>
<event>
 4    1  0.4374784E+000  0.2205461E+03  0.7546771E-02  0.1133477E+00
         21   -1    0    0  501  502  0.00000000000E+00  0.00000000000E+00  0.20503667623E+04  0.20503667623E+04  0.00000000000E+00 0. -1.
         21   -1    0    0  502  503 -0.00000000000E+00 -0.00000000000E+00 -0.56676121504E+02  0.56676121504E+02  0.00000000000E+00 0.  1.
          6    1    1    2  501    0 -0.85774157256E+02 -0.10655684190E+03  0.18001725916E+04  0.18136322467E+04  0.17300000000E+03 0. -1.
         -6    1    1    2    0  503  0.85774157256E+02  0.10655684190E+03  0.19351804914E+03  0.29341063708E+03  0.17300000000E+03 0.  1.
<mgrwt>
<rscale>  2 0.22054606E+03</rscale>
<asrwt>0</asrwt>
<pdfrwt beam="1">  1       21 0.31544098E+00 0.22054606E+03</pdfrwt>
<pdfrwt beam="2">  1       21 0.87194049E-02 0.22054606E+03</pdfrwt>
<totfact> 0.27776920E+03</totfact>
</mgrwt>
</event>
<event>
 4    1  0.4374784E+000  0.2142403E+03  0.7546771E-02  0.1138251E+00
         21   -1    0    0  501  502  0.00000000000E+00  0.00000000000E+00  0.20504368707E+04  0.20504368707E+04  0.00000000000E+00 0. -1.
         21   -1    0    0  502  503 -0.00000000000E+00 -0.00000000000E+00 -0.33143920460E+03  0.33143920460E+03  0.00000000000E+00 0. -1.
          6    1    1    2  501    0 -0.80248323397E+01 -0.12611700209E+03  0.20095167361E+04  0.20209048490E+04  0.17300000000E+03 0. -1.
         -6    1    1    2    0  503  0.80248323397E+01  0.12611700209E+03 -0.29051907001E+03  0.36097122626E+03  0.17300000000E+03 0. -1.
<mgrwt>
<rscale>  2 0.21424028E+03</rscale>
<asrwt>0</asrwt>
<pdfrwt beam="1">  1       21 0.31545182E+00 0.21424028E+03</pdfrwt>
<pdfrwt beam="2">  1       21 0.50990648E-01 0.21424028E+03</pdfrwt>
<totfact> 0.98254152E+01</totfact>
</mgrwt>
</event>
<event>
 4    1  0.4374784E+000  0.2407100E+03  0.7546771E-02  0.1119321E+00
         21   -1    0    0  503  502  0.00000000000E+00  0.00000000000E+00  0.73391269733E+03  0.73391269733E+03  0.00000000000E+00 0.  1.
         21   -1    0    0  501  503 -0.00000000000E+00 -0.00000000000E+00 -0.96481877283E+02  0.96481877283E+02  0.00000000000E+00 0.  1.
          6    1    1    2  501    0  0.16607850862E+03 -0.20741493199E+02  0.14171883487E+03  0.27933046508E+03  0.17300000000E+03 0.  1.
         -6    1    1    2    0  502 -0.16607850862E+03  0.20741493199E+02  0.49571198517E+03  0.55106410953E+03  0.17300000000E+03 0.  1.
<mgrwt>
<rscale>  2 0.24070995E+03</rscale>
<asrwt>0</asrwt>
<pdfrwt beam="1">  1       21 0.11290964E+00 0.24070995E+03</pdfrwt>
<pdfrwt beam="2">  1       21 0.14843366E-01 0.24070995E+03</pdfrwt>
<totfact> 0.23853771E+04</totfact>
</mgrwt>
</event>
<event>
 4    1  0.4374784E+000  0.1931683E+03  0.7546771E-02  0.1155634E+00
         21   -1    0    0  501  502  0.00000000000E+00  0.00000000000E+00  0.36532179883E+03  0.36532179883E+03  0.00000000000E+00 0.  1.
         21   -1    0    0  502  503 -0.00000000000E+00 -0.00000000000E+00 -0.10674757738E+03  0.10674757738E+03  0.00000000000E+00 0. -1.
          6    1    1    2  501    0  0.84962456021E+02 -0.12898572480E+02  0.80249410271E+02  0.20917447252E+03  0.17300000000E+03 0. -1.
         -6    1    1    2    0  503 -0.84962456021E+02  0.12898572480E+02  0.17832481117E+03  0.26289490369E+03  0.17300000000E+03 0. -1.
<mgrwt>
<rscale>  2 0.19316830E+03</rscale>
<asrwt>0</asrwt>
<pdfrwt beam="1">  1       21 0.56203353E-01 0.19316830E+03</pdfrwt>
<pdfrwt beam="2">  1       21 0.16422704E-01 0.19316830E+03</pdfrwt>
<totfact> 0.99024063E+04</totfact>
</mgrwt>
</event>
<event>
 4    1  0.4374784E+000  0.2039776E+03  0.7546771E-02  0.1146426E+00
         21   -1    0    0  503  502  0.00000000000E+00  0.00000000000E+00  0.78858146396E+02  0.78858146396E+02  0.00000000000E+00 0.  1.
         21   -1    0    0  501  503 -0.00000000000E+00 -0.00000000000E+00 -0.69763715299E+03  0.69763715299E+03  0.00000000000E+00 0.  1.
          6    1    1    2  501    0 -0.10800571336E+03  0.35551809197E+01 -0.50105531126E+03  0.54098363965E+03  0.17300000000E+03 0.  1.
         -6    1    1    2    0  502  0.10800571336E+03 -0.35551809197E+01 -0.11772369534E+03  0.23551165974E+03  0.17300000000E+03 0.  1.
<mgrwt>
<rscale>  2 0.20397763E+03</rscale>
<asrwt>0</asrwt>
<pdfrwt beam="1">  1       21 0.12132022E-01 0.20397763E+03</pdfrwt>
<pdfrwt beam="2">  1       21 0.10732880E+00 0.20397763E+03</pdfrwt>
<totfact> 0.39635293E+04</totfact>
</mgrwt>
</event>
<event>
 4    1  0.4374784E+000  0.1736394E+03  0.7546771E-02  0.1174105E+00
         21   -1    0    0  503  502  0.00000000000E+00  0.00000000000E+00  0.10773406358E+03  0.10773406358E+03  0.00000000000E+00 0.  1.
         21   -1    0    0  501  503 -0.00000000000E+00 -0.00000000000E+00 -0.33266324044E+03  0.33266324044E+03  0.00000000000E+00 0.  1.
          6    1    1    2  501    0  0.14617742821E+02  0.28227896189E+01 -0.20019198198E+03  0.26500467203E+03  0.17300000000E+03 0.  1.
         -6    1    1    2    0  502 -0.14617742821E+02 -0.28227896189E+01 -0.24737194879E+02  0.17539263199E+03  0.17300000000E+03 0.  1.
<mgrwt>
<rscale>  2 0.17363942E+03</rscale>
<asrwt>0</asrwt>
<pdfrwt beam="1">  1       21 0.16574471E-01 0.17363942E+03</pdfrwt>
<pdfrwt beam="2">  1       21 0.51178960E-01 0.17363942E+03</pdfrwt>
<totfact> 0.11944131E+05</totfact>
</mgrwt>
</event>
<event>
 4    1  0.4374784E+000  0.2423638E+03  0.7546771E-02  0.1118228E+00
         21   -1    0    0  503  502  0.00000000000E+00  0.00000000000E+00  0.18672270171E+03  0.18672270171E+03  0.00000000000E+00 0.  1.
         21   -1    0    0  501  503 -0.00000000000E+00 -0.00000000000E+00 -0.31699766994E+03  0.31699766994E+03  0.00000000000E+00 0.  1.
          6    1    1    2  501    0 -0.16716737331E+03 -0.29432258513E+02 -0.43165603925E+02  0.24617769579E+03  0.17300000000E+03 0.  1.
         -6    1    1    2    0  502  0.16716737331E+03  0.29432258513E+02 -0.87109364309E+02  0.25754267586E+03  0.17300000000E+03 0.  1.
<mgrwt>
<rscale>  2 0.24236375E+03</rscale>
<asrwt>0</asrwt>
<pdfrwt beam="1">  1       21 0.28726569E-01 0.24236375E+03</pdfrwt>
<pdfrwt beam="2">  1       21 0.48768872E-01 0.24236375E+03</pdfrwt>
<totfact> 0.45472509E+04</totfact>
</mgrwt>
</event>
<event>
 4    1  0.4374784E+000  0.1834524E+03  0.7546771E-02  0.1164503E+00
         21   -1    0    0  501  502  0.00000000000E+00  0.00000000000E+00  0.11602446681E+04  0.11602446681E+04  0.00000000000E+00 0. -1.
         21   -1    0    0  502  503 -0.00000000000E+00 -0.00000000000E+00 -0.38336881316E+02  0.38336881316E+02  0.00000000000E+00 0. -1.
          6    1    1    2  501    0  0.56349704955E+02  0.23462770722E+02  0.85660248315E+03  0.87602660062E+03  0.17300000000E+03 0. -1.
         -6    1    1    2    0  503 -0.56349704955E+02 -0.23462770722E+02  0.26530530366E+03  0.32255494882E+03  0.17300000000E+03 0. -1.
<mgrwt>
<rscale>  2 0.18345242E+03</rscale>
<asrwt>0</asrwt>
<pdfrwt beam="1">  1       21 0.17849915E+00 0.18345242E+03</pdfrwt>
<pdfrwt beam="2">  1       21 0.58979826E-02 0.18345242E+03</pdfrwt>
<totfact> 0.38053072E+04</totfact>
</mgrwt>
</event>
<event>
 4    1  0.4374784E+000  0.2301565E+03  0.7546771E-02  0.1126530E+00
         21   -1    0    0  501  502  0.00000000000E+00  0.00000000000E+00  0.35170712566E+03  0.35170712566E+03  0.00000000000E+00 0. -1.
         21   -1    0    0  502  503 -0.00000000000E+00 -0.00000000000E+00 -0.23157737789E+03  0.23157737789E+03  0.00000000000E+00 0. -1.
          6    1    1    2  501    0  0.14239408539E+03 -0.52601620510E+02  0.23250835051E+03  0.32715766702E+03  0.17300000000E+03 0. -1.
         -6    1    1    2    0  503 -0.14239408539E+03  0.52601620510E+02 -0.11237860274E+03  0.25612683652E+03  0.17300000000E+03 0. -1.
<mgrwt>
<rscale>  2 0.23015648E+03</rscale>
<asrwt>0</asrwt>
<pdfrwt beam="1">  1       21 0.54108789E-01 0.23015648E+03</pdfrwt>
<pdfrwt beam="2">  1       21 0.35627289E-01 0.23015648E+03</pdfrwt>
<totfact> 0.24026953E+04</totfact>
</mgrwt>
</event>
<event>
 4    1  0.4374784E+000  0.1912812E+03  0.7546771E-02  0.1157311E+00
         21   -1    0    0  503  502  0.00000000000E+00  0.00000000000E+00  0.42123123741E+03  0.42123123741E+03  0.00000000000E+00 0. -1.
         21   -1    0    0  501  503 -0.00000000000E+00 -0.00000000000E+00 -0.88722140869E+02  0.88722140869E+02  0.00000000000E+00 0.  1.
          6    1    1    2  501    0 -0.22240127859E+02 -0.78516681247E+02  0.20318584762E+03  0.27905730808E+03  0.17300000000E+03 0.  1.
         -6    1    1    2    0  502  0.22240127859E+02  0.78516681247E+02  0.12932324892E+03  0.23089607020E+03  0.17300000000E+03 0.  1.
<mgrwt>
<rscale>  2 0.19128119E+03</rscale>
<asrwt>0</asrwt>
<pdfrwt beam="1">  1       21 0.64804804E-01 0.19128119E+03</pdfrwt>
<pdfrwt beam="2">  1       21 0.13649560E-01 0.19128119E+03</pdfrwt>
<totfact> 0.10218098E+05</totfact>
</mgrwt>
</event>
<event>
 4    1  0.4374784E+000  0.2285639E+03  0.7546771E-02  0.1127655E+00
         21   -1    0    0  501  502  0.00000000000E+00  0.00000000000E+00  0.80039108787E+02  0.80039108787E+02  0.00000000000E+00 0.  1.
         21   -1    0    0  502  503 -0.00000000000E+00 -0.00000000000E+00 -0.11187746848E+04  0.11187746848E+04  0.00000000000E+00 0.  1.
          6    1    1    2  501    0 -0.14248384681E+03  0.44842114664E+02 -0.13248576267E+03  0.26418542572E+03  0.17300000000E+03 0.  1.
         -6    1    1    2    0  503  0.14248384681E+03 -0.44842114664E+02 -0.90624981330E+03  0.93462836783E+03  0.17300000000E+03 0.  1.
<mgrwt>
<rscale>  2 0.22856391E+03</rscale>
<asrwt>0</asrwt>
<pdfrwt beam="1">  1       21 0.12313710E-01 0.22856391E+03</pdfrwt>
<pdfrwt beam="2">  1       21 0.17211917E+00 0.22856391E+03</pdfrwt>
<totfact> 0.11252879E+04</totfact>
</mgrwt>
</event>
<event>
 4    1  0.4374784E+000  0.2573699E+03  0.7546771E-02  0.1108734E+00
         21   -1    0    0  501  502  0.00000000000E+00  0.00000000000E+00  0.84758974256E+03  0.84758974256E+03  0.00000000000E+00 0.  1.
         21   -1    0    0  502  503 -0.00000000000E+00 -0.00000000000E+00 -0.21572962787E+03  0.21572962787E+03  0.00000000000E+00 0. -1.
          6    1    1    2  501    0  0.60290186281E+02  0.18076320784E+03  0.74050631178E+03  0.78395716825E+03  0.17300000000E+03 0.  1.
         -6    1    1    2    0  503 -0.60290186281E+02 -0.18076320784E+03 -0.10864619709E+03  0.27936220219E+03  0.17300000000E+03 0. -1.
<mgrwt>
<rscale>  2 0.25736986E+03</rscale>
<asrwt>0</asrwt>
<pdfrwt beam="1">  1       21 0.13039842E+00 0.25736986E+03</pdfrwt>
<pdfrwt beam="2">  1       21 0.33189174E-01 0.25736986E+03</pdfrwt>
<totfact> 0.35694814E+03</totfact>
</mgrwt>
</event>
<event>
 4    1  0.4374784E+000  0.2192684E+03  0.7546771E-02  0.1134430E+00
         21   -1    0    0  501  502  0.00000000000E+00  0.00000000000E+00  0.25431392636E+03  0.25431392636E+03  0.00000000000E+00 0.  1.
         21   -1    0    0  502  503 -0.00000000000E+00 -0.00000000000E+00 -0.41842997192E+03  0.41842997192E+03  0.00000000000E+00 0.  1.
          6    1    1    2  501    0  0.13333986908E+03  0.19238405238E+02  0.16699047914E+03  0.27561650358E+03  0.17300000000E+03 0.  1.
         -6    1    1    2    0  503 -0.13333986908E+03 -0.19238405238E+02 -0.33110652469E+03  0.39712739470E+03  0.17300000000E+03 0.  1.
<mgrwt>
<rscale>  2 0.21926841E+03</rscale>
<asrwt>0</asrwt>
<pdfrwt beam="1">  1       21 0.39125220E-01 0.21926841E+03</pdfrwt>
<pdfrwt beam="2">  1       21 0.64373841E-01 0.21926841E+03</pdfrwt>
<totfact> 0.13786073E+04</totfact>
</mgrwt>
</event>
<event>
 4    1  0.4374784E+000  0.2603128E+03  0.7546771E-02  0.1106955E+00
         21   -1    0    0  503  502  0.00000000000E+00  0.00000000000E+00  0.34754436483E+03  0.34754436483E+03  0.00000000000E+00 0.  1.
         21   -1    0    0  501  503 -0.00000000000E+00 -0.00000000000E+00 -0.27853121641E+03  0.27853121641E+03  0.00000000000E+00 0. -1.
          6    1    1    2  501    0 -0.17389425904E+03  0.87146627313E+02 -0.13694721210E+03  0.29413821051E+03  0.17300000000E+03 0. -1.
         -6    1    1    2    0  502  0.17389425904E+03 -0.87146627313E+02  0.20596036053E+03  0.33193737073E+03  0.17300000000E+03 0.  1.
<mgrwt>
<rscale>  2 0.26031279E+03</rscale>
<asrwt>0</asrwt>
<pdfrwt beam="1">  1       21 0.53468364E-01 0.26031279E+03</pdfrwt>
<pdfrwt beam="2">  1       21 0.42850956E-01 0.26031279E+03</pdfrwt>
<totfact> 0.16704821E+04</totfact>
</mgrwt>
</event>
<event>
 4    1  0.4374784E+000  0.1893468E+03  0.7546771E-02  0.1159052E+00
         21   -1    0    0  501  502  0.00000000000E+00  0.00000000000E+00  0.17332599542E+03  0.17332599542E+03  0.00000000000E+00 0.  1.
         21   -1    0    0  502  503 -0.00000000000E+00 -0.00000000000E+00 -0.34586737163E+03  0.34586737163E+03  0.00000000000E+00 0.  1.
          6    1    1    2  501    0 -0.67460864907E+02 -0.37043610007E+02 -0.25085235114E+03  0.31429142433E+03  0.17300000000E+03 0.  1.
         -6    1    1    2    0  503  0.67460864907E+02  0.37043610007E+02  0.78310974934E+02  0.20490194272E+03  0.17300000000E+03 0.  1.
<mgrwt>
<rscale>  2 0.18934676E+03</rscale>
<asrwt>0</asrwt>
<pdfrwt beam="1">  1       21 0.26665538E-01 0.18934676E+03</pdfrwt>
<pdfrwt beam="2">  1       21 0.53210364E-01 0.18934676E+03</pdfrwt>
<totfact> 0.44845857E+04</totfact>
</mgrwt>
</event>
<event>
 4    1  0.4374784E+000  0.2018825E+03  0.7546771E-02  0.1148160E+00
         21   -1    0    0  503  502  0.00000000000E+00  0.00000000000E+00  0.23151796140E+03  0.23151796140E+03  0.00000000000E+00 0. -1.
         21   -1    0    0  501  503 -0.00000000000E+00 -0.00000000000E+00 -0.18221646726E+03  0.18221646726E+03  0.00000000000E+00 0. -1.
          6    1    1    2  501    0 -0.10396649231E+03  0.43038197709E+01 -0.13433713688E+02  0.20232898717E+03  0.17300000000E+03 0. -1.
         -6    1    1    2    0  502  0.10396649231E+03 -0.43038197709E+01  0.62735207837E+02  0.21140544149E+03  0.17300000000E+03 0. -1.
<mgrwt>
<rscale>  2 0.20188253E+03</rscale>
<asrwt>0</asrwt>
<pdfrwt beam="1">  1       21 0.35618148E-01 0.20188253E+03</pdfrwt>
<pdfrwt beam="2">  1       21 0.28033303E-01 0.20188253E+03</pdfrwt>
<totfact> 0.92034913E+04</totfact>
</mgrwt>
</event>
<event>
 4    1  0.4374784E+000  0.2353629E+03  0.7546771E-02  0.1122921E+00
         21   -1    0    0  503  502  0.00000000000E+00  0.00000000000E+00  0.15185651879E+04  0.15185651879E+04  0.00000000000E+00 0. -1.
         21   -1    0    0  501  503 -0.00000000000E+00 -0.00000000000E+00 -0.36501863257E+02  0.36501863257E+02  0.00000000000E+00 0.  1.
          6    1    1    2  501    0  0.13277763192E+03  0.88525647008E+02  0.76050506010E+03  0.79609273088E+03  0.17300000000E+03 0.  1.
         -6    1    1    2    0  502 -0.13277763192E+03 -0.88525647008E+02  0.72155826457E+03  0.75897432031E+03  0.17300000000E+03 0.  1.
<mgrwt>
<rscale>  2 0.23536289E+03</rscale>
<asrwt>0</asrwt>
<pdfrwt beam="1">  1       21 0.23362536E+00 0.23536289E+03</pdfrwt>
<pdfrwt beam="2">  1       21 0.56156724E-02 0.23536289E+03</pdfrwt>
<totfact> 0.17754124E+04</totfact>
</mgrwt>
</event>
<event>
 4    1  0.4374784E+000  0.2020951E+03  0.7546771E-02  0.1147983E+00
         21   -1    0    0  503  502  0.00000000000E+00  0.00000000000E+00  0.63936986594E+03  0.63936986594E+03  0.00000000000E+00 0. -1.
         21   -1    0    0  501  503 -0.00000000000E+00 -0.00000000000E+00 -0.10048268734E+03  0.10048268734E+03  0.00000000000E+00 0.  1.
          6    1    1    2  501    0 -0.27404784903E+02  0.10080879081E+03  0.46173368498E+02  0.20730271223E+03  0.17300000000E+03 0.  1.
         -6    1    1    2    0  502  0.27404784903E+02 -0.10080879081E+03  0.49271381010E+03  0.53254984105E+03  0.17300000000E+03 0. -1.
<mgrwt>
<rscale>  2 0.20209511E+03</rscale>
<asrwt>0</asrwt>
<pdfrwt beam="1">  1       21 0.98364592E-01 0.20209511E+03</pdfrwt>
<pdfrwt beam="2">  1       21 0.15458875E-01 0.20209511E+03</pdfrwt>
<totfact> 0.31526071E+04</totfact>
</mgrwt>
</event>
<event>
 4    1  0.4374784E+000  0.1800359E+03  0.7546771E-02  0.1167768E+00
         21   -1    0    0  503  502  0.00000000000E+00  0.00000000000E+00  0.85740965154E+03  0.85740965154E+03  0.00000000000E+00 0.  1.
         21   -1    0    0  501  503 -0.00000000000E+00 -0.00000000000E+00 -0.38322301016E+02  0.38322301016E+02  0.00000000000E+00 0.  1.
          6    1    1    2  501    0 -0.42063664239E+02  0.26731811725E+02  0.35742503813E+03  0.40020694583E+03  0.17300000000E+03 0. -1.
         -6    1    1    2    0  502  0.42063664239E+02 -0.26731811725E+02  0.46166231240E+03  0.49552500673E+03  0.17300000000E+03 0. -1.
<mgrwt>
<rscale>  2 0.18003595E+03</rscale>
<asrwt>0</asrwt>
<pdfrwt beam="1">  1       21 0.13190916E+00 0.18003595E+03</pdfrwt>
<pdfrwt beam="2">  1       21 0.58957393E-02 0.18003595E+03</pdfrwt>
<totfact> 0.85150844E+04</totfact>
</mgrwt>
</event>
<event>
 4    1  0.4374784E+000  0.1883442E+03  0.7546771E-02  0.1159963E+00
         21   -1    0    0  503  502  0.00000000000E+00  0.00000000000E+00  0.12294350502E+03  0.12294350502E+03  0.00000000000E+00 0.  1.
         21   -1    0    0  501  503 -0.00000000000E+00 -0.00000000000E+00 -0.44716493597E+03  0.44716493597E+03  0.00000000000E+00 0.  1.
          6    1    1    2  501    0  0.72803350652E+02 -0.15627522927E+02  0.76689600257E+01  0.18850029254E+03  0.17300000000E+03 0.  1.
         -6    1    1    2    0  502 -0.72803350652E+02  0.15627522927E+02 -0.33189039098E+03  0.38160814845E+03  0.17300000000E+03 0.  1.
<mgrwt>
<rscale>  2 0.18834423E+03</rscale>
<asrwt>0</asrwt>
<pdfrwt beam="1">  1       21 0.18914385E-01 0.18834423E+03</pdfrwt>
<pdfrwt beam="2">  1       21 0.68794605E-01 0.18834423E+03</pdfrwt>
<totfact> 0.49409195E+04</totfact>
</mgrwt>
</event>
<event>
 4    1  0.4374784E+000  0.3620616E+03  0.7546771E-02  0.1057771E+00
         21   -1    0    0  501  502  0.00000000000E+00  0.00000000000E+00  0.61410020984E+03  0.61410020984E+03  0.00000000000E+00 0.  1.
         21   -1    0    0  502  503 -0.00000000000E+00 -0.00000000000E+00 -0.21357328904E+03  0.21357328904E+03  0.00000000000E+00 0. -1.
          6    1    1    2  501    0 -0.31631003330E+03 -0.33280010243E+02  0.20960334810E+03  0.41835649843E+03  0.17300000000E+03 0.  1.
         -6    1    1    2    0  503  0.31631003330E+03  0.33280010243E+02  0.19092357270E+03  0.40931700045E+03  0.17300000000E+03 0. -1.
<mgrwt>
<rscale>  2 0.36206159E+03</rscale>
<asrwt>0</asrwt>
<pdfrwt beam="1">  1       21 0.94476955E-01 0.36206159E+03</pdfrwt>
<pdfrwt beam="2">  1       21 0.32857429E-01 0.36206159E+03</pdfrwt>
<totfact> 0.76397408E+03</totfact>
</mgrwt>
</event>
<event>
 4    1  0.4374784E+000  0.1838320E+03  0.7546771E-02  0.1164145E+00
         21   -1    0    0  501  502  0.00000000000E+00  0.00000000000E+00  0.10462823378E+03  0.10462823378E+03  0.00000000000E+00 0.  1.
         21   -1    0    0  502  503 -0.00000000000E+00 -0.00000000000E+00 -0.74075900202E+03  0.74075900202E+03  0.00000000000E+00 0.  1.
          6    1    1    2  501    0  0.40974116567E+02 -0.46757977119E+02 -0.63114346219E+00  0.18383303565E+03  0.17300000000E+03 0.  1.
         -6    1    1    2    0  503 -0.40974116567E+02  0.46757977119E+02 -0.63549962477E+03  0.66155420015E+03  0.17300000000E+03 0.  1.
<mgrwt>
<rscale>  2 0.18383195E+03</rscale>
<asrwt>0</asrwt>
<pdfrwt beam="1">  1       21 0.16096652E-01 0.18383195E+03</pdfrwt>
<pdfrwt beam="2">  1       21 0.11396292E+00 0.18383195E+03</pdfrwt>
<totfact> 0.20782666E+04</totfact>
</mgrwt>
</event>
<event>
 4    1  0.4374784E+000  0.1741912E+03  0.7546771E-02  0.1173546E+00
         21   -1    0    0  501  502  0.00000000000E+00  0.00000000000E+00  0.27312801182E+03  0.27312801182E+03  0.00000000000E+00 0. -1.
         21   -1    0    0  502  503 -0.00000000000E+00 -0.00000000000E+00 -0.15066397653E+03  0.15066397653E+03  0.00000000000E+00 0. -1.
          6    1    1    2  501    0 -0.20334900220E+02  0.27573016433E+00  0.16982629523E+03  0.24327670407E+03  0.17300000000E+03 0.  1.
         -6    1    1    2    0  503  0.20334900220E+02 -0.27573016433E+00 -0.47362259934E+02  0.18051528428E+03  0.17300000000E+03 0.  1.
<mgrwt>
<rscale>  2 0.17419123E+03</rscale>
<asrwt>0</asrwt>
<pdfrwt beam="1">  1       21 0.42019694E-01 0.17419123E+03</pdfrwt>
<pdfrwt beam="2">  1       21 0.23179073E-01 0.17419123E+03</pdfrwt>
<totfact> 0.96019692E+04</totfact>
</mgrwt>
</event>
<event>
 4    1  0.4374784E+000  0.2149792E+03  0.7546771E-02  0.1137683E+00
         21   -1    0    0  501  502  0.00000000000E+00  0.00000000000E+00  0.20440020559E+03  0.20440020559E+03  0.00000000000E+00 0. -1.
         21   -1    0    0  502  503 -0.00000000000E+00 -0.00000000000E+00 -0.31543337879E+03  0.31543337879E+03  0.00000000000E+00 0.  1.
          6    1    1    2  501    0  0.12117980313E+03  0.40031483734E+02  0.82799720919E+02  0.23037330175E+03  0.17300000000E+03 0. -1.
         -6    1    1    2    0  503 -0.12117980313E+03 -0.40031483734E+02 -0.19383289412E+03  0.28946028263E+03  0.17300000000E+03 0.  1.
<mgrwt>
<rscale>  2 0.21497922E+03</rscale>
<asrwt>0</asrwt>
<pdfrwt beam="1">  1       21 0.31446186E-01 0.21497922E+03</pdfrwt>
<pdfrwt beam="2">  1       21 0.48528212E-01 0.21497922E+03</pdfrwt>
<totfact> 0.38965682E+04</totfact>
</mgrwt>
</event>
<event>
 4    1  0.4374784E+000  0.2819571E+03  0.7546771E-02  0.1094625E+00
         21   -1    0    0  501  502  0.00000000000E+00  0.00000000000E+00  0.81929049213E+02  0.81929049213E+02  0.00000000000E+00 0. -1.
         21   -1    0    0  502  503 -0.00000000000E+00 -0.00000000000E+00 -0.97289744927E+03  0.97289744927E+03  0.00000000000E+00 0.  1.
          6    1    1    2  501    0  0.12762011661E+03 -0.18243880977E+03 -0.41849367724E+03  0.50461546881E+03  0.17300000000E+03 0. -1.
         -6    1    1    2    0  503 -0.12762011661E+03  0.18243880977E+03 -0.47247472282E+03  0.55021102967E+03  0.17300000000E+03 0.  1.
<mgrwt>
<rscale>  2 0.28195711E+03</rscale>
<asrwt>0</asrwt>
<pdfrwt beam="1">  1       21 0.12604468E-01 0.28195711E+03</pdfrwt>
<pdfrwt beam="2">  1       21 0.14967654E+00 0.28195711E+03</pdfrwt>
<totfact> 0.15312034E+04</totfact>
</mgrwt>
</event>
<event>
 4    1  0.4374784E+000  0.2028823E+03  0.7546771E-02  0.1147330E+00
         21   -1    0    0  501  502  0.00000000000E+00  0.00000000000E+00  0.69324123734E+03  0.69324123734E+03  0.00000000000E+00 0. -1.
         21   -1    0    0  502  503 -0.00000000000E+00 -0.00000000000E+00 -0.60081220301E+02  0.60081220301E+02  0.00000000000E+00 0. -1.
          6    1    1    2  501    0  0.10598194944E+03 -0.20920141241E+00  0.35741601465E+03  0.41098348495E+03  0.17300000000E+03 0.  1.
         -6    1    1    2    0  503 -0.10598194944E+03  0.20920141241E+00  0.27574400239E+03  0.34233897269E+03  0.17300000000E+03 0.  1.
<mgrwt>
<rscale>  2 0.20288227E+03</rscale>
<asrwt>0</asrwt>
<pdfrwt beam="1">  1       21 0.10665249E+00 0.20288227E+03</pdfrwt>
<pdfrwt beam="2">  1       21 0.92432651E-02 0.20288227E+03</pdfrwt>
<totfact> 0.65266452E+04</totfact>
</mgrwt>
</event>
<event>
 4    1  0.4374784E+000  0.1796838E+03  0.7546771E-02  0.1168109E+00
         21   -1    0    0  503  502  0.00000000000E+00  0.00000000000E+00  0.21153437471E+03  0.21153437471E+03  0.00000000000E+00 0. -1.
         21   -1    0    0  501  503 -0.00000000000E+00 -0.00000000000E+00 -0.29955410842E+03  0.29955410842E+03  0.00000000000E+00 0. -1.
          6    1    1    2  501    0 -0.37725574936E+02  0.30562018556E+02 -0.22297838292E+03  0.28636622572E+03  0.17300000000E+03 0. -1.
         -6    1    1    2    0  502  0.37725574936E+02 -0.30562018556E+02  0.13495864921E+03  0.22472225742E+03  0.17300000000E+03 0. -1.
<mgrwt>
<rscale>  2 0.17968377E+03</rscale>
<asrwt>0</asrwt>
<pdfrwt beam="1">  1       21 0.32543750E-01 0.17968377E+03</pdfrwt>
<pdfrwt beam="2">  1       21 0.46085247E-01 0.17968377E+03</pdfrwt>
<totfact> 0.41262104E+04</totfact>
</mgrwt>
</event>
<event>
 4    1  0.4374784E+000  0.2066410E+03  0.7546771E-02  0.1144254E+00
         21   -1    0    0  501  502  0.00000000000E+00  0.00000000000E+00  0.33572139960E+03  0.33572139960E+03  0.00000000000E+00 0. -1.
         21   -1    0    0  502  503 -0.00000000000E+00 -0.00000000000E+00 -0.16927910549E+03  0.16927910549E+03  0.00000000000E+00 0. -1.
          6    1    1    2  501    0  0.90343634009E+02 -0.67893489123E+02  0.20912631420E+03  0.29399713156E+03  0.17300000000E+03 0.  1.
         -6    1    1    2    0  503 -0.90343634009E+02  0.67893489123E+02 -0.42684020092E+02  0.21100337353E+03  0.17300000000E+03 0.  1.
<mgrwt>
<rscale>  2 0.20664099E+03</rscale>
<asrwt>0</asrwt>
<pdfrwt beam="1">  1       21 0.51649446E-01 0.20664099E+03</pdfrwt>
<pdfrwt beam="2">  1       21 0.26042939E-01 0.20664099E+03</pdfrwt>
<totfact> 0.49534263E+04</totfact>
</mgrwt>
</event>
<event>
 4    1  0.4374784E+000  0.2062890E+03  0.7546771E-02  0.1144539E+00
         21   -1    0    0  501  502  0.00000000000E+00  0.00000000000E+00  0.10464517939E+03  0.10464517939E+03  0.00000000000E+00 0.  1.
         21   -1    0    0  502  503 -0.00000000000E+00 -0.00000000000E+00 -0.51549897741E+03  0.51549897741E+03  0.00000000000E+00 0. -1.
          6    1    1    2  501    0  0.95421575809E+02 -0.59336942765E+02 -0.62952022425E+02  0.21568056712E+03  0.17300000000E+03 0.  1.
         -6    1    1    2    0  503 -0.95421575809E+02  0.59336942765E+02 -0.34790177560E+03  0.40446358968E+03  0.17300000000E+03 0. -1.
<mgrwt>
<rscale>  2 0.20628900E+03</rscale>
<asrwt>0</asrwt>
<pdfrwt beam="1">  1       21 0.16099259E-01 0.20628900E+03</pdfrwt>
<pdfrwt beam="2">  1       21 0.79307533E-01 0.20628900E+03</pdfrwt>
<totfact> 0.48026161E+04</totfact>
</mgrwt>
</event>
<event>
 4    1  0.4374784E+000  0.2132835E+03  0.7546771E-02  0.1138992E+00
         21   -1    0    0  501  502  0.00000000000E+00  0.00000000000E+00  0.18578090256E+03  0.18578090256E+03  0.00000000000E+00 0. -1.
         21   -1    0    0  502  503 -0.00000000000E+00 -0.00000000000E+00 -0.24694815718E+03  0.24694815718E+03  0.00000000000E+00 0.  1.
          6    1    1    2  501    0 -0.12143566307E+03 -0.28534476958E+02 -0.10675492731E+02  0.21355046895E+03  0.17300000000E+03 0.  1.
         -6    1    1    2    0  503  0.12143566307E+03  0.28534476958E+02 -0.50491761894E+02  0.21917859079E+03  0.17300000000E+03 0.  1.
<mgrwt>
<rscale>  2 0.21328347E+03</rscale>
<asrwt>0</asrwt>
<pdfrwt beam="1">  1       21 0.28581677E-01 0.21328347E+03</pdfrwt>
<pdfrwt beam="2">  1       21 0.37992024E-01 0.21328347E+03</pdfrwt>
<totfact> 0.77539833E+04</totfact>
</mgrwt>
</event>
<event>
 4    1  0.4374784E+000  0.2392039E+03  0.7546771E-02  0.1120324E+00
         21   -1    0    0  503  502  0.00000000000E+00  0.00000000000E+00  0.26349577863E+03  0.26349577863E+03  0.00000000000E+00 0. -1.
         21   -1    0    0  501  503 -0.00000000000E+00 -0.00000000000E+00 -0.36238743855E+03  0.36238743855E+03  0.00000000000E+00 0. -1.
          6    1    1    2  501    0 -0.48809111916E+02 -0.15782000808E+03 -0.24755925205E+03  0.34424419768E+03  0.17300000000E+03 0. -1.
         -6    1    1    2    0  502  0.48809111916E+02  0.15782000808E+03  0.14866759213E+03  0.28163901951E+03  0.17300000000E+03 0. -1.
<mgrwt>
<rscale>  2 0.23920386E+03</rscale>
<asrwt>0</asrwt>
<pdfrwt beam="1">  1       21 0.40537812E-01 0.23920386E+03</pdfrwt>
<pdfrwt beam="2">  1       21 0.55751914E-01 0.23920386E+03</pdfrwt>
<totfact> 0.17299812E+04</totfact>
</mgrwt>
</event>
<event>
 4    1  0.4374784E+000  0.2170433E+03  0.7546771E-02  0.1136107E+00
         21   -1    0    0  503  502  0.00000000000E+00  0.00000000000E+00  0.24361154133E+03  0.24361154133E+03  0.00000000000E+00 0. -1.
         21   -1    0    0  501  503 -0.00000000000E+00 -0.00000000000E+00 -0.20078607520E+03  0.20078607520E+03  0.00000000000E+00 0.  1.
          6    1    1    2  501    0  0.27503764358E+02 -0.12814958354E+03 -0.21283422683E+02  0.21808428851E+03  0.17300000000E+03 0.  1.
         -6    1    1    2    0  502 -0.27503764358E+02  0.12814958354E+03  0.64108888815E+02  0.22631332802E+03  0.17300000000E+03 0. -1.
<mgrwt>
<rscale>  2 0.21704325E+03</rscale>
<asrwt>0</asrwt>
<pdfrwt beam="1">  1       21 0.37478699E-01 0.21704325E+03</pdfrwt>
<pdfrwt beam="2">  1       21 0.30890165E-01 0.21704325E+03</pdfrwt>
<totfact> 0.68370418E+04</totfact>
</mgrwt>
</event>
<event>
 4    1  0.4374784E+000  0.2199522E+03  0.7546771E-02  0.1133919E+00
         21   -1    0    0  501  502  0.00000000000E+00  0.00000000000E+00  0.88235743066E+03  0.88235743066E+03  0.00000000000E+00 0.  1.
         21   -1    0    0  502  503 -0.00000000000E+00 -0.00000000000E+00 -0.14696664984E+03  0.14696664984E+03  0.00000000000E+00 0. -1.
          6    1    1    2  501    0 -0.46470916921E+02  0.12763389155E+03  0.77519840174E+03  0.80579868357E+03  0.17300000000E+03 0.  1.
         -6    1    1    2    0  503  0.46470916921E+02 -0.12763389155E+03 -0.39807620912E+02  0.22352539693E+03  0.17300000000E+03 0. -1.
<mgrwt>
<rscale>  2 0.21995217E+03</rscale>
<asrwt>0</asrwt>
<pdfrwt beam="1">  1       21 0.13574729E+00 0.21995217E+03</pdfrwt>
<pdfrwt beam="2">  1       21 0.22610254E-01 0.21995217E+03</pdfrwt>
<totfact> 0.69558608E+03</totfact>
</mgrwt>
</event>
<event>
 4    1  0.4374784E+000  0.1747566E+03  0.7546771E-02  0.1172976E+00
         21   -1    0    0  503  502  0.00000000000E+00  0.00000000000E+00  0.12023801026E+03  0.12023801026E+03  0.00000000000E+00 0.  1.
         21   -1    0    0  501  503 -0.00000000000E+00 -0.00000000000E+00 -0.25720448417E+03  0.25720448417E+03  0.00000000000E+00 0.  1.
          6    1    1    2  501    0  0.16735258919E+02 -0.18188214860E+02 -0.47402579029E+02  0.18107149016E+03  0.17300000000E+03 0.  1.
         -6    1    1    2    0  502 -0.16735258919E+02  0.18188214860E+02 -0.89563894886E+02  0.19637100427E+03  0.17300000000E+03 0.  1.
<mgrwt>
<rscale>  2 0.17475663E+03</rscale>
<asrwt>0</asrwt>
<pdfrwt beam="1">  1       21 0.18498156E-01 0.17475663E+03</pdfrwt>
<pdfrwt beam="2">  1       21 0.39569920E-01 0.17475663E+03</pdfrwt>
<totfact> 0.16524985E+05</totfact>
</mgrwt>
</event>
<event>
 4    1  0.4374784E+000  0.2092356E+03  0.7546771E-02  0.1142173E+00
         21   -1    0    0  503  502  0.00000000000E+00  0.00000000000E+00  0.28666121441E+03  0.28666121441E+03  0.00000000000E+00 0.  1.
         21   -1    0    0  501  503 -0.00000000000E+00 -0.00000000000E+00 -0.51726898521E+03  0.51726898521E+03  0.00000000000E+00 0.  1.
          6    1    1    2  501    0 -0.11187733508E+03  0.36523691559E+02 -0.45275183340E+03  0.49876220867E+03  0.17300000000E+03 0.  1.
         -6    1    1    2    0  502  0.11187733508E+03 -0.36523691559E+02  0.22214406260E+03  0.30516799095E+03  0.17300000000E+03 0.  1.
<mgrwt>
<rscale>  2 0.20923556E+03</rscale>
<asrwt>0</asrwt>
<pdfrwt beam="1">  1       21 0.44101726E-01 0.20923556E+03</pdfrwt>
<pdfrwt beam="2">  1       21 0.79579843E-01 0.20923556E+03</pdfrwt>
<totfact> 0.67906416E+03</totfact>
</mgrwt>
</event>
<event>
 4    1  0.4374784E+000  0.2216605E+03  0.7546771E-02  0.1132651E+00
         21   -1    0    0  503  502  0.00000000000E+00  0.00000000000E+00  0.44162793124E+03  0.44162793124E+03  0.00000000000E+00 0.  1.
         21   -1    0    0  501  503 -0.00000000000E+00 -0.00000000000E+00 -0.11140062977E+03  0.11140062977E+03  0.00000000000E+00 0.  1.
          6    1    1    2  501    0 -0.31890993806E+02 -0.13486052019E+03  0.17510510920E+03  0.28248043235E+03  0.17300000000E+03 0.  1.
         -6    1    1    2    0  502  0.31890993806E+02  0.13486052019E+03  0.15512219226E+03  0.27054812866E+03  0.17300000000E+03 0.  1.
<mgrwt>
<rscale>  2 0.22166054E+03</rscale>
<asrwt>0</asrwt>
<pdfrwt beam="1">  1       21 0.67942758E-01 0.22166054E+03</pdfrwt>
<pdfrwt beam="2">  1       21 0.17138559E-01 0.22166054E+03</pdfrwt>
<totfact> 0.60007378E+04</totfact>
</mgrwt>
</event>
<event>
 4    1  0.4374784E+000  0.1924708E+03  0.7546771E-02  0.1156252E+00
         21   -1    0    0  501  502  0.00000000000E+00  0.00000000000E+00  0.60229536861E+03  0.60229536861E+03  0.00000000000E+00 0.  1.
         21   -1    0    0  502  503 -0.00000000000E+00 -0.00000000000E+00 -0.72051788621E+02  0.72051788621E+02  0.00000000000E+00 0. -1.
          6    1    1    2  501    0  0.35198527296E+02 -0.76662017567E+02  0.39411388094E+03  0.43860090334E+03  0.17300000000E+03 0.  1.
         -6    1    1    2    0  503 -0.35198527296E+02  0.76662017567E+02  0.13612969905E+03  0.23574625390E+03  0.17300000000E+03 0. -1.
<mgrwt>
<rscale>  2 0.19247078E+03</rscale>
<asrwt>0</asrwt>
<pdfrwt beam="1">  1       21 0.92660823E-01 0.19247078E+03</pdfrwt>
<pdfrwt beam="2">  1       21 0.11084891E-01 0.19247078E+03</pdfrwt>
<totfact> 0.66386144E+04</totfact>
</mgrwt>
</event>
<event>
 4    1  0.4374784E+000  0.1803808E+03  0.7546771E-02  0.1167435E+00
         21   -1    0    0  501  502  0.00000000000E+00  0.00000000000E+00  0.42435351183E+03  0.42435351183E+03  0.00000000000E+00 0. -1.
         21   -1    0    0  502  503 -0.00000000000E+00 -0.00000000000E+00 -0.96356220952E+02  0.96356220952E+02  0.00000000000E+00 0. -1.
          6    1    1    2  501    0 -0.41933959530E+02 -0.29150843727E+02  0.28166541686E+03  0.33447366968E+03  0.17300000000E+03 0. -1.
         -6    1    1    2    0  503  0.41933959530E+02  0.29150843727E+02  0.46331874020E+02  0.18623606311E+03  0.17300000000E+03 0. -1.
<mgrwt>
<rscale>  2 0.18038079E+03</rscale>
<asrwt>0</asrwt>
<pdfrwt beam="1">  1       21 0.65285155E-01 0.18038079E+03</pdfrwt>
<pdfrwt beam="2">  1       21 0.14824034E-01 0.18038079E+03</pdfrwt>
<totfact> 0.86954693E+04</totfact>
</mgrwt>
</event>
<event>
 4    1  0.4374784E+000  0.2483550E+03  0.7546771E-02  0.1114349E+00
         21   -1    0    0  503  502  0.00000000000E+00  0.00000000000E+00  0.17690340008E+04  0.17690340008E+04  0.00000000000E+00 0.  1.
         21   -1    0    0  501  503 -0.00000000000E+00 -0.00000000000E+00 -0.10525683486E+03  0.10525683486E+03  0.00000000000E+00 0.  1.
          6    1    1    2  501    0 -0.12633248418E+02 -0.17774033208E+03  0.65519460128E+02  0.25685214477E+03  0.17300000000E+03 0.  1.
         -6    1    1    2    0  502  0.12633248418E+02  0.17774033208E+03  0.15982577058E+04  0.16174386909E+04  0.17300000000E+03 0.  1.
<mgrwt>
<rscale>  2 0.24835504E+03</rscale>
<asrwt>0</asrwt>
<pdfrwt beam="1">  1       21 0.27215906E+00 0.24835504E+03</pdfrwt>
<pdfrwt beam="2">  1       21 0.16193360E-01 0.24835504E+03</pdfrwt>
<totfact> 0.15855553E+03</totfact>
</mgrwt>
</event>
<event>
 4    1  0.4374784E+000  0.2038974E+03  0.7546771E-02  0.1146492E+00
         21   -1    0    0  501  502  0.00000000000E+00  0.00000000000E+00  0.62291086295E+02  0.62291086295E+02  0.00000000000E+00 0. -1.
         21   -1    0    0  502  503 -0.00000000000E+00 -0.00000000000E+00 -0.66814752919E+03  0.66814752919E+03  0.00000000000E+00 0.  1.
          6    1    1    2  501    0 -0.10640576646E+03  0.17971117471E+02 -0.31500216637E+03  0.37523394438E+03  0.17300000000E+03 0. -1.
         -6    1    1    2    0  503  0.10640576646E+03 -0.17971117471E+02 -0.29085427652E+03  0.35520467110E+03  0.17300000000E+03 0. -1.
<mgrwt>
<rscale>  2 0.20389740E+03</rscale>
<asrwt>0</asrwt>
<pdfrwt beam="1">  1       21 0.95832439E-02 0.20389740E+03</pdfrwt>
<pdfrwt beam="2">  1       21 0.10279193E+00 0.20389740E+03</pdfrwt>
<totfact> 0.66885173E+04</totfact>
</mgrwt>
</event>
<event>
 4    1  0.4374784E+000  0.2404902E+03  0.7546771E-02  0.1119467E+00
         21   -1    0    0  503  502  0.00000000000E+00  0.00000000000E+00  0.43689546392E+03  0.43689546392E+03  0.00000000000E+00 0.  1.
         21   -1    0    0  501  503 -0.00000000000E+00 -0.00000000000E+00 -0.20792891788E+03  0.20792891788E+03  0.00000000000E+00 0.  1.
          6    1    1    2  501    0  0.86443400130E+01 -0.16682874006E+03 -0.79861349965E+02  0.25340360759E+03  0.17300000000E+03 0.  1.
         -6    1    1    2    0  502 -0.86443400130E+01  0.16682874006E+03  0.30882789601E+03  0.39142077420E+03  0.17300000000E+03 0.  1.
<mgrwt>
<rscale>  2 0.24049023E+03</rscale>
<asrwt>0</asrwt>
<pdfrwt beam="1">  1       21 0.67214687E-01 0.24049023E+03</pdfrwt>
<pdfrwt beam="2">  1       21 0.31989064E-01 0.24049023E+03</pdfrwt>
<totfact> 0.18528872E+04</totfact>
</mgrwt>
</event>
<event>
 4    1  0.4374784E+000  0.2096813E+03  0.7546771E-02  0.1141819E+00
         21   -1    0    0  503  502  0.00000000000E+00  0.00000000000E+00  0.76149317083E+03  0.76149317083E+03  0.00000000000E+00 0.  1.
         21   -1    0    0  501  503 -0.00000000000E+00 -0.00000000000E+00 -0.71238478158E+02  0.71238478158E+02  0.00000000000E+00 0.  1.
          6    1    1    2  501    0  0.15107512518E+02  0.11751177910E+03  0.16386398730E+03  0.26611587982E+03  0.17300000000E+03 0.  1.
         -6    1    1    2    0  502 -0.15107512518E+02 -0.11751177910E+03  0.52639070538E+03  0.56661576917E+03  0.17300000000E+03 0.  1.
<mgrwt>
<rscale>  2 0.20968132E+03</rscale>
<asrwt>0</asrwt>
<pdfrwt beam="1">  1       21 0.11715279E+00 0.20968132E+03</pdfrwt>
<pdfrwt beam="2">  1       21 0.10959766E-01 0.20968132E+03</pdfrwt>
<totfact> 0.38287234E+04</totfact>
</mgrwt>
</event>
<event>
 4    1  0.4374784E+000  0.2375289E+03  0.7546771E-02  0.1121450E+00
         21   -1    0    0  501  502  0.00000000000E+00  0.00000000000E+00  0.10980715082E+03  0.10980715082E+03  0.00000000000E+00 0.  1.
         21   -1    0    0  502  503 -0.00000000000E+00 -0.00000000000E+00 -0.66062635111E+03  0.66062635111E+03  0.00000000000E+00 0.  1.
          6    1    1    2  501    0  0.15604175020E+03  0.46281464989E+02 -0.93810132930E+02  0.25538273796E+03  0.17300000000E+03 0.  1.
         -6    1    1    2    0  503 -0.15604175020E+03 -0.46281464989E+02 -0.45700906736E+03  0.51505076396E+03  0.17300000000E+03 0.  1.
<mgrwt>
<rscale>  2 0.23752895E+03</rscale>
<asrwt>0</asrwt>
<pdfrwt beam="1">  1       21 0.16893408E-01 0.23752895E+03</pdfrwt>
<pdfrwt beam="2">  1       21 0.10163482E+00 0.23752895E+03</pdfrwt>
<totfact> 0.24309509E+04</totfact>
</mgrwt>
</event>
<event>
 4    1  0.4374784E+000  0.2115362E+03  0.7546771E-02  0.1140355E+00
         21   -1    0    0  503  502  0.00000000000E+00  0.00000000000E+00  0.41059993700E+03  0.41059993700E+03  0.00000000000E+00 0.  1.
         21   -1    0    0  501  503 -0.00000000000E+00 -0.00000000000E+00 -0.30488084014E+03  0.30488084014E+03  0.00000000000E+00 0.  1.
          6    1    1    2  501    0 -0.74660737679E+02  0.96147561473E+02 -0.23390138303E+03  0.31536873072E+03  0.17300000000E+03 0.  1.
         -6    1    1    2    0  502  0.74660737679E+02 -0.96147561473E+02  0.33962047990E+03  0.40011204643E+03  0.17300000000E+03 0.  1.
<mgrwt>
<rscale>  2 0.21153624E+03</rscale>
<asrwt>0</asrwt>
<pdfrwt beam="1">  1       21 0.63169221E-01 0.21153624E+03</pdfrwt>
<pdfrwt beam="2">  1       21 0.46904745E-01 0.21153624E+03</pdfrwt>
<totfact> 0.99608346E+03</totfact>
</mgrwt>
</event>
<event>
 4    1  0.4374784E+000  0.1867381E+03  0.7546771E-02  0.1161437E+00
         21   -1    0    0  501  502  0.00000000000E+00  0.00000000000E+00  0.82640025431E+02  0.82640025431E+02  0.00000000000E+00 0. -1.
         21   -1    0    0  502  503 -0.00000000000E+00 -0.00000000000E+00 -0.46013624555E+03  0.46013624555E+03  0.00000000000E+00 0. -1.
          6    1    1    2  501    0 -0.58477970750E+02 -0.39018589318E+02 -0.11058155712E+03  0.21702397137E+03  0.17300000000E+03 0. -1.
         -6    1    1    2    0  503  0.58477970750E+02  0.39018589318E+02 -0.26691466299E+03  0.32575229960E+03  0.17300000000E+03 0. -1.
<mgrwt>
<rscale>  2 0.18673811E+03</rscale>
<asrwt>0</asrwt>
<pdfrwt beam="1">  1       21 0.12713850E-01 0.18673811E+03</pdfrwt>
<pdfrwt beam="2">  1       21 0.70790190E-01 0.18673811E+03</pdfrwt>
<totfact> 0.95855163E+04</totfact>
</mgrwt>
</event>
<event>
 4    1  0.4374784E+000  0.2269685E+03  0.7546771E-02  0.1128792E+00
         21   -1    0    0  501  502  0.00000000000E+00  0.00000000000E+00  0.93721879036E+03  0.93721879036E+03  0.00000000000E+00 0. -1.
         21   -1    0    0  502  503 -0.00000000000E+00 -0.00000000000E+00 -0.56449652533E+02  0.56449652533E+02  0.00000000000E+00 0. -1.
          6    1    1    2  501    0 -0.11055207887E+03  0.96767550269E+02  0.52094407170E+03  0.56824065920E+03  0.17300000000E+03 0. -1.
         -6    1    1    2    0  503  0.11055207887E+03 -0.96767550269E+02  0.35982506612E+03  0.42542778369E+03  0.17300000000E+03 0. -1.
<mgrwt>
<rscale>  2 0.22696855E+03</rscale>
<asrwt>0</asrwt>
<pdfrwt beam="1">  1       21 0.14418749E+00 0.22696855E+03</pdfrwt>
<pdfrwt beam="2">  1       21 0.86845626E-02 0.22696855E+03</pdfrwt>
<totfact> 0.33790470E+04</totfact>
</mgrwt>
</event>
<event>
 4    1  0.4374784E+000  0.2011876E+03  0.7546771E-02  0.1148741E+00
         21   -1    0    0  503  502  0.00000000000E+00  0.00000000000E+00  0.32816535834E+03  0.32816535834E+03  0.00000000000E+00 0. -1.
         21   -1    0    0  501  503 -0.00000000000E+00 -0.00000000000E+00 -0.13044717634E+03  0.13044717634E+03  0.00000000000E+00 0. -1.
          6    1    1    2  501    0  0.99659277613E+02 -0.24808646843E+02  0.15237688686E+03  0.25237899323E+03  0.17300000000E+03 0. -1.
         -6    1    1    2    0  502 -0.99659277613E+02  0.24808646843E+02  0.45341295137E+02  0.20623354145E+03  0.17300000000E+03 0. -1.
<mgrwt>
<rscale>  2 0.20118758E+03</rscale>
<asrwt>0</asrwt>
<pdfrwt beam="1">  1       21 0.50486978E-01 0.20118758E+03</pdfrwt>
<pdfrwt beam="2">  1       21 0.20068796E-01 0.20118758E+03</pdfrwt>
<totfact> 0.85334186E+04</totfact>
</mgrwt>
</event>
<event>
 4    1  0.4374784E+000  0.1776294E+03  0.7546771E-02  0.1170117E+00
         21   -1    0    0  501  502  0.00000000000E+00  0.00000000000E+00  0.12681701089E+03  0.12681701089E+03  0.00000000000E+00 0.  1.
         21   -1    0    0  502  503 -0.00000000000E+00 -0.00000000000E+00 -0.92324253012E+03  0.92324253012E+03  0.00000000000E+00 0.  1.
          6    1    1    2  501    0  0.38834164676E+02 -0.10728558300E+02  0.50530763386E+02  0.18467688637E+03  0.17300000000E+03 0.  1.
         -6    1    1    2    0  503 -0.38834164676E+02  0.10728558300E+02 -0.84695628261E+03  0.86538265465E+03  0.17300000000E+03 0.  1.
<mgrwt>
<rscale>  2 0.17762937E+03</rscale>
<asrwt>0</asrwt>
<pdfrwt beam="1">  1       21 0.19510309E-01 0.17762937E+03</pdfrwt>
<pdfrwt beam="2">  1       21 0.14203731E+00 0.17762937E+03</pdfrwt>
<totfact> 0.84317569E+03</totfact>
</mgrwt>
</event>
<event>
 4    1  0.4374784E+000  0.1820244E+03  0.7546771E-02  0.1165858E+00
         21   -1    0    0  501  502  0.00000000000E+00  0.00000000000E+00  0.79259892760E+02  0.79259892760E+02  0.00000000000E+00 0. -1.
         21   -1    0    0  502  503 -0.00000000000E+00 -0.00000000000E+00 -0.47799695715E+03  0.47799695715E+03  0.00000000000E+00 0. -1.
          6    1    1    2  501    0 -0.18763708671E+02 -0.53402262728E+02 -0.10067811000E+03  0.20801192336E+03  0.17300000000E+03 0. -1.
         -6    1    1    2    0  503  0.18763708671E+02  0.53402262728E+02 -0.29805895439E+03  0.34924492655E+03  0.17300000000E+03 0. -1.
<mgrwt>
<rscale>  2 0.18202439E+03</rscale>
<asrwt>0</asrwt>
<pdfrwt beam="1">  1       21 0.12193830E-01 0.18202439E+03</pdfrwt>
<pdfrwt beam="2">  1       21 0.73537994E-01 0.18202439E+03</pdfrwt>
<totfact> 0.95126691E+04</totfact>
</mgrwt>
</event>
<event>
 4    1  0.4374784E+000  0.1839270E+03  0.7546771E-02  0.1164056E+00
         21   -1    0    0  501  502  0.00000000000E+00  0.00000000000E+00  0.35761742679E+03  0.35761742679E+03  0.00000000000E+00 0.  1.
         21   -1    0    0  502  503 -0.00000000000E+00 -0.00000000000E+00 -0.20640796008E+03  0.20640796008E+03  0.00000000000E+00 0.  1.
          6    1    1    2  501    0  0.57527464226E+02  0.24304683937E+02  0.28316768815E+03  0.33765820946E+03  0.17300000000E+03 0.  1.
         -6    1    1    2    0  503 -0.57527464226E+02 -0.24304683937E+02 -0.13195822144E+03  0.22636717741E+03  0.17300000000E+03 0.  1.
<mgrwt>
<rscale>  2 0.18392696E+03</rscale>
<asrwt>0</asrwt>
<pdfrwt beam="1">  1       21 0.55018065E-01 0.18392696E+03</pdfrwt>
<pdfrwt beam="2">  1       21 0.31755071E-01 0.18392696E+03</pdfrwt>
<totfact> 0.29860748E+04</totfact>
</mgrwt>
</event>
<event>
 4    1  0.4374784E+000  0.1782101E+03  0.7546771E-02  0.1169547E+00
         21   -1    0    0  503  502  0.00000000000E+00  0.00000000000E+00  0.42974531184E+02  0.42974531184E+02  0.00000000000E+00 0.  1.
         21   -1    0    0  501  503 -0.00000000000E+00 -0.00000000000E+00 -0.74563710197E+03  0.74563710197E+03  0.00000000000E+00 0.  1.
          6    1    1    2  501    0 -0.32659006773E+02 -0.27626554392E+02 -0.31417291786E+03  0.36119725850E+03  0.17300000000E+03 0.  1.
         -6    1    1    2    0  502  0.32659006773E+02  0.27626554392E+02 -0.38848965293E+03  0.42741437466E+03  0.17300000000E+03 0.  1.
<mgrwt>
<rscale>  2 0.17821009E+03</rscale>
<asrwt>0</asrwt>
<pdfrwt beam="1">  1       21 0.66114667E-02 0.17821009E+03</pdfrwt>
<pdfrwt beam="2">  1       21 0.11471339E+00 0.17821009E+03</pdfrwt>
<totfact> 0.99067512E+04</totfact>
</mgrwt>
</event>
<event>
 4    1  0.4374784E+000  0.1833210E+03  0.7546771E-02  0.1164627E+00
         21   -1    0    0  503  502  0.00000000000E+00  0.00000000000E+00  0.12261708004E+04  0.12261708004E+04  0.00000000000E+00 0. -1.
         21   -1    0    0  501  503 -0.00000000000E+00 -0.00000000000E+00 -0.16528867103E+03  0.16528867103E+03  0.00000000000E+00 0. -1.
          6    1    1    2  501    0  0.58600724292E+02 -0.15605775087E+02 -0.10499389779E+03  0.21125885467E+03  0.17300000000E+03 0. -1.
         -6    1    1    2    0  502 -0.58600724292E+02  0.15605775087E+02  0.11658760272E+04  0.11802006168E+04  0.17300000000E+03 0. -1.
<mgrwt>
<rscale>  2 0.18332099E+03</rscale>
<asrwt>0</asrwt>
<pdfrwt beam="1">  1       21 0.18864166E+00 0.18332099E+03</pdfrwt>
<pdfrwt beam="2">  1       21 0.25429027E-01 0.18332099E+03</pdfrwt>
<totfact> 0.23568797E+03</totfact>
</mgrwt>
</event>
<event>
 4    1  0.4374784E+000  0.2464356E+03  0.7546771E-02  0.1115578E+00
         21   -1    0    0  501  502  0.00000000000E+00  0.00000000000E+00  0.11533903466E+04  0.11533903466E+04  0.00000000000E+00 0. -1.
         21   -1    0    0  502  503 -0.00000000000E+00 -0.00000000000E+00 -0.92739892657E+02  0.92739892657E+02  0.00000000000E+00 0. -1.
          6    1    1    2  501    0 -0.16896831882E+03 -0.47447154684E+02  0.93995955812E+03  0.97172758331E+03  0.17300000000E+03 0. -1.
         -6    1    1    2    0  503  0.16896831882E+03  0.47447154684E+02  0.12069089580E+03  0.27440265593E+03  0.17300000000E+03 0. -1.
<mgrwt>
<rscale>  2 0.24643564E+03</rscale>
<asrwt>0</asrwt>
<pdfrwt beam="1">  1       21 0.17744466E+00 0.24643564E+03</pdfrwt>
<pdfrwt beam="2">  1       21 0.14267677E-01 0.24643564E+03</pdfrwt>
<totfact> 0.78157580E+03</totfact>
</mgrwt>
</event>
<event>
 4    1  0.4374784E+000  0.2186275E+03  0.7546771E-02  0.1134910E+00
         21   -1    0    0  503  502  0.00000000000E+00  0.00000000000E+00  0.17043412057E+03  0.17043412057E+03  0.00000000000E+00 0.  1.
         21   -1    0    0  501  503 -0.00000000000E+00 -0.00000000000E+00 -0.29043751927E+03  0.29043751927E+03  0.00000000000E+00 0. -1.
          6    1    1    2  501    0  0.11511469058E+03 -0.67952775241E+02 -0.17266293084E+02  0.21930822266E+03  0.17300000000E+03 0. -1.
         -6    1    1    2    0  502 -0.11511469058E+03  0.67952775241E+02 -0.10273710562E+03  0.24156341718E+03  0.17300000000E+03 0.  1.
<mgrwt>
<rscale>  2 0.21862747E+03</rscale>
<asrwt>0</asrwt>
<pdfrwt beam="1">  1       21 0.26220634E-01 0.21862747E+03</pdfrwt>
<pdfrwt beam="2">  1       21 0.44682695E-01 0.21862747E+03</pdfrwt>
<totfact> 0.65714706E+04</totfact>
</mgrwt>
</event>
<event>
 4    1  0.4374784E+000  0.1830604E+03  0.7546771E-02  0.1164874E+00
         21   -1    0    0  503  502  0.00000000000E+00  0.00000000000E+00  0.66885560538E+02  0.66885560538E+02  0.00000000000E+00 0.  1.
         21   -1    0    0  501  503 -0.00000000000E+00 -0.00000000000E+00 -0.53403905358E+03  0.53403905358E+03  0.00000000000E+00 0. -1.
          6    1    1    2  501    0  0.29484153265E+02 -0.52084359478E+02 -0.30828640107E+03  0.35854093334E+03  0.17300000000E+03 0. -1.
         -6    1    1    2    0  502 -0.29484153265E+02  0.52084359478E+02 -0.15886709197E+03  0.24238368078E+03  0.17300000000E+03 0.  1.
<mgrwt>
<rscale>  2 0.18306036E+03</rscale>
<asrwt>0</asrwt>
<pdfrwt beam="1">  1       21 0.10290086E-01 0.18306036E+03</pdfrwt>
<pdfrwt beam="2">  1       21 0.82159857E-01 0.18306036E+03</pdfrwt>
<totfact> 0.10026277E+05</totfact>
</mgrwt>
</event>
<event>
 4    1  0.4374784E+000  0.1947895E+03  0.7546771E-02  0.1154211E+00
         21   -1    0    0  503  502  0.00000000000E+00  0.00000000000E+00  0.99844916538E+02  0.99844916538E+02  0.00000000000E+00 0. -1.
         21   -1    0    0  501  503 -0.00000000000E+00 -0.00000000000E+00 -0.38229298295E+03  0.38229298295E+03  0.00000000000E+00 0. -1.
          6    1    1    2  501    0  0.49559370387E+02  0.74550795558E+02 -0.15981702049E+03  0.25196117231E+03  0.17300000000E+03 0. -1.
         -6    1    1    2    0  502 -0.49559370387E+02 -0.74550795558E+02 -0.12263104592E+03  0.23017672718E+03  0.17300000000E+03 0. -1.
<mgrwt>
<rscale>  2 0.19478951E+03</rscale>
<asrwt>0</asrwt>
<pdfrwt beam="1">  1       21 0.15360756E-01 0.19478951E+03</pdfrwt>
<pdfrwt beam="2">  1       21 0.58814305E-01 0.19478951E+03</pdfrwt>
<totfact> 0.10151171E+05</totfact>
</mgrwt>
</event>
<event>
 4    1  0.4374784E+000  0.2228933E+03  0.7546771E-02  0.1131744E+00
         21   -1    0    0  501  502  0.00000000000E+00  0.00000000000E+00  0.95004865861E+02  0.95004865861E+02  0.00000000000E+00 0. -1.
         21   -1    0    0  502  503 -0.00000000000E+00 -0.00000000000E+00 -0.54085675125E+03  0.54085675125E+03  0.00000000000E+00 0. -1.
          6    1    1    2  501    0  0.13122419804E+03 -0.50325417351E+02 -0.16505334128E+03  0.27735184018E+03  0.17300000000E+03 0. -1.
         -6    1    1    2    0  503 -0.13122419804E+03  0.50325417351E+02 -0.28079854411E+03  0.35850977693E+03  0.17300000000E+03 0. -1.
<mgrwt>
<rscale>  2 0.22289333E+03</rscale>
<asrwt>0</asrwt>
<pdfrwt beam="1">  1       21 0.14616133E-01 0.22289333E+03</pdfrwt>
<pdfrwt beam="2">  1       21 0.83208730E-01 0.22289333E+03</pdfrwt>
<totfact> 0.50981656E+04</totfact>
</mgrwt>
</event>
<event>
 4    1  0.4374784E+000  0.1836293E+03  0.7546771E-02  0.1164336E+00
         21   -1    0    0  503  502  0.00000000000E+00  0.00000000000E+00  0.16581252453E+04  0.16581252453E+04  0.00000000000E+00 0. -1.
         21   -1    0    0  501  503 -0.00000000000E+00 -0.00000000000E+00 -0.22689779132E+02  0.22689779132E+02  0.00000000000E+00 0. -1.
          6    1    1    2  501    0 -0.28672373801E+02 -0.54484870580E+02  0.54703927938E+03  0.57703698264E+03  0.17300000000E+03 0. -1.
         -6    1    1    2    0  502  0.28672373801E+02  0.54484870580E+02  0.10883961868E+04  0.11037780418E+04  0.17300000000E+03 0. -1.
<mgrwt>
<rscale>  2 0.18362926E+03</rscale>
<asrwt>0</asrwt>
<pdfrwt beam="1">  1       21 0.25509610E+00 0.18362926E+03</pdfrwt>
<pdfrwt beam="2">  1       21 0.34907365E-02 0.18362926E+03</pdfrwt>
<totfact> 0.30773435E+04</totfact>
</mgrwt>
</event>
<event>
 4    1  0.4374784E+000  0.1795782E+03  0.7546771E-02  0.1168212E+00
         21   -1    0    0  501  502  0.00000000000E+00  0.00000000000E+00  0.84097521790E+02  0.84097521790E+02  0.00000000000E+00 0. -1.
         21   -1    0    0  502  503 -0.00000000000E+00 -0.00000000000E+00 -0.60381968833E+03  0.60381968833E+03  0.00000000000E+00 0. -1.
          6    1    1    2  501    0 -0.39618703249E+02  0.27380269261E+02 -0.52075563830E+02  0.18697642937E+03  0.17300000000E+03 0.  1.
         -6    1    1    2    0  503  0.39618703249E+02 -0.27380269261E+02 -0.46764660271E+03  0.50094078075E+03  0.17300000000E+03 0.  1.
<mgrwt>
<rscale>  2 0.17957817E+03</rscale>
<asrwt>0</asrwt>
<pdfrwt beam="1">  1       21 0.12938080E-01 0.17957817E+03</pdfrwt>
<pdfrwt beam="2">  1       21 0.92895338E-01 0.17957817E+03</pdfrwt>
<totfact> 0.50368293E+04</totfact>
</mgrwt>
</event>
<event>
 4    1  0.4374784E+000  0.3086746E+03  0.7546771E-02  0.1080983E+00
         21   -1    0    0  501  502  0.00000000000E+00  0.00000000000E+00  0.25890713814E+03  0.25890713814E+03  0.00000000000E+00 0.  1.
         21   -1    0    0  502  503 -0.00000000000E+00 -0.00000000000E+00 -0.42916472075E+03  0.42916472075E+03  0.00000000000E+00 0. -1.
          6    1    1    2  501    0 -0.13129354744E+03  0.21934680468E+03  0.44742233456E+02  0.31190043889E+03  0.17300000000E+03 0.  1.
         -6    1    1    2    0  503  0.13129354744E+03 -0.21934680468E+03 -0.21499981607E+03  0.37617142001E+03  0.17300000000E+03 0. -1.
<mgrwt>
<rscale>  2 0.30867461E+03</rscale>
<asrwt>0</asrwt>
<pdfrwt beam="1">  1       21 0.39831868E-01 0.30867461E+03</pdfrwt>
<pdfrwt beam="2">  1       21 0.66025341E-01 0.30867461E+03</pdfrwt>
<totfact> 0.12025000E+04</totfact>
</mgrwt>
</event>
<event>
 4    1  0.4374784E+000  0.1985221E+03  0.7546771E-02  0.1150992E+00
         21   -1    0    0  501  502  0.00000000000E+00  0.00000000000E+00  0.42617791630E+03  0.42617791630E+03  0.00000000000E+00 0. -1.
         21   -1    0    0  502  503 -0.00000000000E+00 -0.00000000000E+00 -0.27092577311E+03  0.27092577311E+03  0.00000000000E+00 0. -1.
          6    1    1    2  501    0  0.38406633937E+02 -0.89481683060E+02  0.36050510629E+03  0.41155190778E+03  0.17300000000E+03 0. -1.
         -6    1    1    2    0  503 -0.38406633937E+02  0.89481683060E+02 -0.20525296310E+03  0.28555178163E+03  0.17300000000E+03 0. -1.
<mgrwt>
<rscale>  2 0.19852214E+03</rscale>
<asrwt>0</asrwt>
<pdfrwt beam="1">  1       21 0.65565833E-01 0.19852214E+03</pdfrwt>
<pdfrwt beam="2">  1       21 0.41680888E-01 0.19852214E+03</pdfrwt>
<totfact> 0.11805266E+04</totfact>
</mgrwt>
</event>
<event>
 4    1  0.4374784E+000  0.2257721E+03  0.7546771E-02  0.1129651E+00
         21   -1    0    0  501  502  0.00000000000E+00  0.00000000000E+00  0.19126679273E+04  0.19126679273E+04  0.00000000000E+00 0.  1.
         21   -1    0    0  502  503 -0.00000000000E+00 -0.00000000000E+00 -0.27316621121E+02  0.27316621121E+02  0.00000000000E+00 0.  1.
          6    1    1    2  501    0 -0.12897195372E+03 -0.66409978811E+02  0.10941774176E+04  0.11172274930E+04  0.17300000000E+03 0.  1.
         -6    1    1    2    0  503  0.12897195372E+03  0.66409978811E+02  0.79117388866E+03  0.82275705541E+03  0.17300000000E+03 0.  1.
<mgrwt>
<rscale>  2 0.22577212E+03</rscale>
<asrwt>0</asrwt>
<pdfrwt beam="1">  1       21 0.29425650E+00 0.22577212E+03</pdfrwt>
<pdfrwt beam="2">  1       21 0.42025586E-02 0.22577212E+03</pdfrwt>
<totfact> 0.12864488E+04</totfact>
</mgrwt>
</event>
<event>
 4    1  0.4374784E+000  0.2203717E+03  0.7546771E-02  0.1133606E+00
         21   -1    0    0  501  502  0.00000000000E+00  0.00000000000E+00  0.12904991943E+03  0.12904991943E+03  0.00000000000E+00 0.  1.
         21   -1    0    0  502  503 -0.00000000000E+00 -0.00000000000E+00 -0.43688141477E+03  0.43688141477E+03  0.00000000000E+00 0. -1.
          6    1    1    2  501    0 -0.12723366716E+03 -0.49459861282E+02 -0.48559432693E+02  0.22565837552E+03  0.17300000000E+03 0.  1.
         -6    1    1    2    0  503  0.12723366716E+03  0.49459861282E+02 -0.25927206264E+03  0.34027295868E+03  0.17300000000E+03 0. -1.
<mgrwt>
<rscale>  2 0.22037169E+03</rscale>
<asrwt>0</asrwt>
<pdfrwt beam="1">  1       21 0.19853834E-01 0.22037169E+03</pdfrwt>
<pdfrwt beam="2">  1       21 0.67212524E-01 0.22037169E+03</pdfrwt>
<totfact> 0.46774332E+04</totfact>
</mgrwt>
</event>
<event>
 4    1  0.4374784E+000  0.2831510E+03  0.7546771E-02  0.1093980E+00
         21   -1    0    0  501  502  0.00000000000E+00  0.00000000000E+00  0.16355798155E+03  0.16355798155E+03  0.00000000000E+00 0. -1.
         21   -1    0    0  502  503 -0.00000000000E+00 -0.00000000000E+00 -0.52841188397E+03  0.52841188397E+03  0.00000000000E+00 0. -1.
          6    1    1    2  501    0 -0.17101975620E+03  0.14490589075E+03 -0.89374592292E+02  0.29692135648E+03  0.17300000000E+03 0. -1.
         -6    1    1    2    0  503  0.17101975620E+03 -0.14490589075E+03 -0.27547931013E+03  0.39504850904E+03  0.17300000000E+03 0. -1.
<mgrwt>
<rscale>  2 0.28315097E+03</rscale>
<asrwt>0</asrwt>
<pdfrwt beam="1">  1       21 0.25162766E-01 0.28315097E+03</pdfrwt>
<pdfrwt beam="2">  1       21 0.81294136E-01 0.28315097E+03</pdfrwt>
<totfact> 0.18925021E+04</totfact>
</mgrwt>
</event>
<event>
 4    1  0.4374784E+000  0.2177220E+03  0.7546771E-02  0.1135593E+00
         21   -1    0    0  503  502  0.00000000000E+00  0.00000000000E+00  0.61627225435E+03  0.61627225435E+03  0.00000000000E+00 0. -1.
         21   -1    0    0  501  503 -0.00000000000E+00 -0.00000000000E+00 -0.92142696212E+02  0.92142696212E+02  0.00000000000E+00 0.  1.
          6    1    1    2  501    0  0.54508542525E+01 -0.13207625329E+03  0.11808819041E+03  0.24768461642E+03  0.17300000000E+03 0.  1.
         -6    1    1    2    0  502 -0.54508542525E+01  0.13207625329E+03  0.40604136772E+03  0.46073033414E+03  0.17300000000E+03 0. -1.
<mgrwt>
<rscale>  2 0.21772195E+03</rscale>
<asrwt>0</asrwt>
<pdfrwt beam="1">  1       21 0.94811114E-01 0.21772195E+03</pdfrwt>
<pdfrwt beam="2">  1       21 0.14175800E-01 0.21772195E+03</pdfrwt>
<totfact> 0.39930047E+04</totfact>
</mgrwt>
</event>
<event>
 4    1  0.4374784E+000  0.2054343E+03  0.7546771E-02  0.1145233E+00
         21   -1    0    0  501  502  0.00000000000E+00  0.00000000000E+00  0.21656373563E+03  0.21656373563E+03  0.00000000000E+00 0.  1.
         21   -1    0    0  502  503 -0.00000000000E+00 -0.00000000000E+00 -0.20030251232E+03  0.20030251232E+03  0.00000000000E+00 0. -1.
          6    1    1    2  501    0  0.28394962449E+02 -0.10708861577E+03  0.42435210210E+02  0.20977128637E+03  0.17300000000E+03 0.  1.
         -6    1    1    2    0  503 -0.28394962449E+02  0.10708861577E+03 -0.26173986893E+02  0.20709496158E+03  0.17300000000E+03 0.  1.
<mgrwt>
<rscale>  2 0.20543429E+03</rscale>
<asrwt>0</asrwt>
<pdfrwt beam="1">  1       21 0.33317498E-01 0.20543429E+03</pdfrwt>
<pdfrwt beam="2">  1       21 0.30815771E-01 0.20543429E+03</pdfrwt>
<totfact> 0.87260539E+04</totfact>
</mgrwt>
</event>
<event>
 4    1  0.4374784E+000  0.2100386E+03  0.7546771E-02  0.1141535E+00
         21   -1    0    0  501  502  0.00000000000E+00  0.00000000000E+00  0.10549293639E+04  0.10549293639E+04  0.00000000000E+00 0.  1.
         21   -1    0    0  502  503 -0.00000000000E+00 -0.00000000000E+00 -0.44903054104E+02  0.44903054104E+02  0.00000000000E+00 0. -1.
          6    1    1    2  501    0  0.85281770686E+02 -0.83151935086E+02  0.36089766770E+03  0.41756837916E+03  0.17300000000E+03 0.  1.
         -6    1    1    2    0  503 -0.85281770686E+02  0.83151935086E+02  0.64912864214E+03  0.68226403889E+03  0.17300000000E+03 0.  1.
<mgrwt>
<rscale>  2 0.21003863E+03</rscale>
<asrwt>0</asrwt>
<pdfrwt beam="1">  1       21 0.16229681E+00 0.21003863E+03</pdfrwt>
<pdfrwt beam="2">  1       21 0.69081630E-02 0.21003863E+03</pdfrwt>
<totfact> 0.37080798E+04</totfact>
</mgrwt>
</event>
<event>
 4    1  0.4374784E+000  0.2061040E+03  0.7546771E-02  0.1144689E+00
         21   -1    0    0  503  502  0.00000000000E+00  0.00000000000E+00  0.14899459458E+04  0.14899459458E+04  0.00000000000E+00 0.  1.
         21   -1    0    0  501  503 -0.00000000000E+00 -0.00000000000E+00 -0.67419608469E+02  0.67419608469E+02  0.00000000000E+00 0.  1.
          6    1    1    2  501    0 -0.11186392030E+03 -0.60267907346E+01  0.11970968844E+03  0.23834694959E+03  0.17300000000E+03 0.  1.
         -6    1    1    2    0  502  0.11186392030E+03  0.60267907346E+01  0.13028166489E+04  0.13190186047E+04  0.17300000000E+03 0.  1.
<mgrwt>
<rscale>  2 0.20610400E+03</rscale>
<asrwt>0</asrwt>
<pdfrwt beam="1">  1       21 0.22922243E+00 0.20610400E+03</pdfrwt>
<pdfrwt beam="2">  1       21 0.10372249E-01 0.20610400E+03</pdfrwt>
<totfact> 0.66403544E+03</totfact>
</mgrwt>
</event>
<event>
 4    1  0.4374784E+000  0.1915180E+03  0.7546771E-02  0.1157099E+00
         21   -1    0    0  503  502  0.00000000000E+00  0.00000000000E+00  0.20082578241E+03  0.20082578241E+03  0.00000000000E+00 0.  1.
         21   -1    0    0  501  503 -0.00000000000E+00 -0.00000000000E+00 -0.26703755958E+03  0.26703755958E+03  0.00000000000E+00 0.  1.
          6    1    1    2  501    0  0.74805424607E+02  0.33974978709E+02 -0.16461733870E+03  0.25254310311E+03  0.17300000000E+03 0.  1.
         -6    1    1    2    0  502 -0.74805424607E+02 -0.33974978709E+02  0.98405561534E+02  0.21532023888E+03  0.17300000000E+03 0.  1.
<mgrwt>
<rscale>  2 0.19151802E+03</rscale>
<asrwt>0</asrwt>
<pdfrwt beam="1">  1       21 0.30896274E-01 0.19151802E+03</pdfrwt>
<pdfrwt beam="2">  1       21 0.41082701E-01 0.19151802E+03</pdfrwt>
<totfact> 0.57445349E+04</totfact>
</mgrwt>
</event>
<event>
 4    1  0.4374784E+000  0.2180812E+03  0.7546771E-02  0.1135322E+00
         21   -1    0    0  501  502  0.00000000000E+00  0.00000000000E+00  0.81218163821E+02  0.81218163821E+02  0.00000000000E+00 0.  1.
         21   -1    0    0  502  503 -0.00000000000E+00 -0.00000000000E+00 -0.65388652845E+03  0.65388652845E+03  0.00000000000E+00 0.  1.
          6    1    1    2  501    0  0.24243507786E+02 -0.13054752285E+03 -0.40513296417E+03  0.46010012177E+03  0.17300000000E+03 0.  1.
         -6    1    1    2    0  503 -0.24243507786E+02  0.13054752285E+03 -0.16753540046E+03  0.27500457050E+03  0.17300000000E+03 0.  1.
<mgrwt>
<rscale>  2 0.21808119E+03</rscale>
<asrwt>0</asrwt>
<pdfrwt beam="1">  1       21 0.12495103E-01 0.21808119E+03</pdfrwt>
<pdfrwt beam="2">  1       21 0.10059792E+00 0.21808119E+03</pdfrwt>
<totfact> 0.43602437E+04</totfact>
</mgrwt>
</event>
<event>
 4    1  0.4374784E+000  0.1979784E+03  0.7546771E-02  0.1151456E+00
         21   -1    0    0  501  502  0.00000000000E+00  0.00000000000E+00  0.93613210271E+03  0.93613210271E+03  0.00000000000E+00 0.  1.
         21   -1    0    0  502  503 -0.00000000000E+00 -0.00000000000E+00 -0.56892096532E+02  0.56892096532E+02  0.00000000000E+00 0. -1.
          6    1    1    2  501    0 -0.54304211286E+01  0.96109135046E+02  0.69475806577E+03  0.72241554888E+03  0.17300000000E+03 0.  1.
         -6    1    1    2    0  503  0.54304211286E+01 -0.96109135046E+02  0.18448194041E+03  0.27060865036E+03  0.17300000000E+03 0. -1.
<mgrwt>
<rscale>  2 0.19797842E+03</rscale>
<asrwt>0</asrwt>
<pdfrwt beam="1">  1       21 0.14402031E+00 0.19797842E+03</pdfrwt>
<pdfrwt beam="2">  1       21 0.87526309E-02 0.19797842E+03</pdfrwt>
<totfact> 0.33994283E+04</totfact>
</mgrwt>
</event>
<event>
 4    1  0.4374784E+000  0.1810956E+03  0.7546771E-02  0.1166747E+00
         21   -1    0    0  503  502  0.00000000000E+00  0.00000000000E+00  0.26944189663E+03  0.26944189663E+03  0.00000000000E+00 0. -1.
         21   -1    0    0  501  503 -0.00000000000E+00 -0.00000000000E+00 -0.19067309984E+03  0.19067309984E+03  0.00000000000E+00 0. -1.
          6    1    1    2  501    0  0.48318056188E+02 -0.23064551190E+02 -0.98965429468E+02  0.20637287686E+03  0.17300000000E+03 0. -1.
         -6    1    1    2    0  502 -0.48318056188E+02  0.23064551190E+02  0.17773422626E+03  0.25374211960E+03  0.17300000000E+03 0. -1.
<mgrwt>
<rscale>  2 0.18109558E+03</rscale>
<asrwt>0</asrwt>
<pdfrwt beam="1">  1       21 0.41452599E-01 0.18109558E+03</pdfrwt>
<pdfrwt beam="2">  1       21 0.29334323E-01 0.18109558E+03</pdfrwt>
<totfact> 0.62696437E+04</totfact>
</mgrwt>
</event>
<event>
 4    1  0.4374784E+000  0.1777557E+03  0.7546771E-02  0.1169993E+00
         21   -1    0    0  503  502  0.00000000000E+00  0.00000000000E+00  0.80545603755E+02  0.80545603755E+02  0.00000000000E+00 0. -1.
         21   -1    0    0  501  503 -0.00000000000E+00 -0.00000000000E+00 -0.11473759614E+04  0.11473759614E+04  0.00000000000E+00 0. -1.
          6    1    1    2  501    0  0.11791684111E+02 -0.39102945034E+02 -0.10314807176E+04  0.10466850314E+04  0.17300000000E+03 0. -1.
         -6    1    1    2    0  502 -0.11791684111E+02  0.39102945034E+02 -0.35349640043E+02  0.18123653378E+03  0.17300000000E+03 0. -1.
<mgrwt>
<rscale>  2 0.17775569E+03</rscale>
<asrwt>0</asrwt>
<pdfrwt beam="1">  1       21 0.12391632E-01 0.17775569E+03</pdfrwt>
<pdfrwt beam="2">  1       21 0.17651937E+00 0.17775569E+03</pdfrwt>
<totfact> 0.10778319E+04</totfact>
</mgrwt>
</event>
<event>
 4    1  0.4374784E+000  0.1748531E+03  0.7546771E-02  0.1172879E+00
         21   -1    0    0  503  502  0.00000000000E+00  0.00000000000E+00  0.55119882244E+03  0.55119882244E+03  0.00000000000E+00 0.  1.
         21   -1    0    0  501  503 -0.00000000000E+00 -0.00000000000E+00 -0.66631568660E+02  0.66631568660E+02  0.00000000000E+00 0.  1.
          6    1    1    2  501    0  0.21062761831E+02  0.14176575375E+02  0.11583599656E+03  0.20974173005E+03  0.17300000000E+03 0.  1.
         -6    1    1    2    0  502 -0.21062761831E+02 -0.14176575375E+02  0.36873125722E+03  0.40808866105E+03  0.17300000000E+03 0.  1.
<mgrwt>
<rscale>  2 0.17485312E+03</rscale>
<asrwt>0</asrwt>
<pdfrwt beam="1">  1       21 0.84799816E-01 0.17485312E+03</pdfrwt>
<pdfrwt beam="2">  1       21 0.10251011E-01 0.17485312E+03</pdfrwt>
<totfact> 0.94250054E+04</totfact>
</mgrwt>
</event>
<event>
 4    1  0.4374784E+000  0.1733813E+03  0.7546771E-02  0.1174367E+00
         21   -1    0    0  501  502  0.00000000000E+00  0.00000000000E+00  0.19615223033E+03  0.19615223033E+03  0.00000000000E+00 0.  1.
         21   -1    0    0  502  503 -0.00000000000E+00 -0.00000000000E+00 -0.14225041950E+04  0.14225041950E+04  0.00000000000E+00 0.  1.
          6    1    1    2  501    0  0.76562160772E+01 -0.85712422486E+01  0.15131355762E+03  0.23012361148E+03  0.17300000000E+03 0.  1.
         -6    1    1    2    0  503 -0.76562160772E+01  0.85712422486E+01 -0.13776655223E+04  0.13885328139E+04  0.17300000000E+03 0.  1.
<mgrwt>
<rscale>  2 0.17338132E+03</rscale>
<asrwt>0</asrwt>
<pdfrwt beam="1">  1       21 0.30177267E-01 0.17338132E+03</pdfrwt>
<pdfrwt beam="2">  1       21 0.21884680E+00 0.17338132E+03</pdfrwt>
<totfact> 0.11026092E+03</totfact>
</mgrwt>
</event>
<event>
 4    1  0.4374784E+000  0.1895099E+03  0.7546771E-02  0.1158904E+00
         21   -1    0    0  503  502  0.00000000000E+00  0.00000000000E+00  0.17529660262E+03  0.17529660262E+03  0.00000000000E+00 0. -1.
         21   -1    0    0  501  503 -0.00000000000E+00 -0.00000000000E+00 -0.24102322524E+03  0.24102322524E+03  0.00000000000E+00 0. -1.
          6    1    1    2  501    0 -0.74936904025E+02 -0.19221745832E+02 -0.11347664954E+03  0.22088676984E+03  0.17300000000E+03 0.  1.
         -6    1    1    2    0  502  0.74936904025E+02  0.19221745832E+02  0.47750026921E+02  0.19543305802E+03  0.17300000000E+03 0.  1.
<mgrwt>
<rscale>  2 0.18950993E+03</rscale>
<asrwt>0</asrwt>
<pdfrwt beam="1">  1       21 0.26968708E-01 0.18950993E+03</pdfrwt>
<pdfrwt beam="2">  1       21 0.37080496E-01 0.18950993E+03</pdfrwt>
<totfact> 0.91990527E+04</totfact>
</mgrwt>
</event>
<event>
 4    1  0.4374784E+000  0.2379033E+03  0.7546771E-02  0.1121197E+00
         21   -1    0    0  503  502  0.00000000000E+00  0.00000000000E+00  0.15321551540E+03  0.15321551540E+03  0.00000000000E+00 0.  1.
         21   -1    0    0  501  503 -0.00000000000E+00 -0.00000000000E+00 -0.38132363555E+03  0.38132363555E+03  0.00000000000E+00 0.  1.
          6    1    1    2  501    0 -0.16328555781E+03  0.26102650280E+01 -0.16131323643E+03  0.28743685763E+03  0.17300000000E+03 0.  1.
         -6    1    1    2    0  502  0.16328555781E+03 -0.26102650280E+01 -0.66794883719E+02  0.24710229332E+03  0.17300000000E+03 0.  1.
<mgrwt>
<rscale>  2 0.23790331E+03</rscale>
<asrwt>0</asrwt>
<pdfrwt beam="1">  1       21 0.23571618E-01 0.23790331E+03</pdfrwt>
<pdfrwt beam="2">  1       21 0.58665175E-01 0.23790331E+03</pdfrwt>
<totfact> 0.45097764E+04</totfact>
</mgrwt>
</event>
<event>
 4    1  0.4374784E+000  0.1897175E+03  0.7546771E-02  0.1158716E+00
         21   -1    0    0  501  502  0.00000000000E+00  0.00000000000E+00  0.30080730456E+03  0.30080730456E+03  0.00000000000E+00 0.  1.
         21   -1    0    0  502  503 -0.00000000000E+00 -0.00000000000E+00 -0.17659354066E+03  0.17659354066E+03  0.00000000000E+00 0.  1.
          6    1    1    2  501    0  0.71584323824E+02 -0.30650102527E+02  0.19764873934E+03  0.27396672857E+03  0.17300000000E+03 0.  1.
         -6    1    1    2    0  503 -0.71584323824E+02  0.30650102527E+02 -0.73434975437E+02  0.20343411666E+03  0.17300000000E+03 0.  1.
<mgrwt>
<rscale>  2 0.18971754E+03</rscale>
<asrwt>0</asrwt>
<pdfrwt beam="1">  1       21 0.46278047E-01 0.18971754E+03</pdfrwt>
<pdfrwt beam="2">  1       21 0.27168237E-01 0.18971754E+03</pdfrwt>
<totfact> 0.57845159E+04</totfact>
</mgrwt>
</event>
<event>
 4    1  0.4374784E+000  0.1841994E+03  0.7546771E-02  0.1163800E+00
         21   -1    0    0  503  502  0.00000000000E+00  0.00000000000E+00  0.18615536459E+02  0.18615536459E+02  0.00000000000E+00 0.  1.
         21   -1    0    0  501  503 -0.00000000000E+00 -0.00000000000E+00 -0.27761622562E+04  0.27761622562E+04  0.00000000000E+00 0.  1.
          6    1    1    2  501    0  0.62858349744E+02 -0.70185048245E+01 -0.21977285849E+04  0.22054342802E+04  0.17300000000E+03 0.  1.
         -6    1    1    2    0  502 -0.62858349744E+02  0.70185048245E+01 -0.55981813489E+03  0.58934351247E+03  0.17300000000E+03 0.  1.
<mgrwt>
<rscale>  2 0.18419943E+03</rscale>
<asrwt>0</asrwt>
<pdfrwt beam="1">  1       21 0.28639296E-02 0.18419943E+03</pdfrwt>
<pdfrwt beam="2">  1       21 0.42710175E+00 0.18419943E+03</pdfrwt>
<totfact> 0.40612461E+03</totfact>
</mgrwt>
</event>
<event>
 4    1  0.4374784E+000  0.1810996E+03  0.7546771E-02  0.1166743E+00
         21   -1    0    0  503  502  0.00000000000E+00  0.00000000000E+00  0.39848842287E+02  0.39848842287E+02  0.00000000000E+00 0. -1.
         21   -1    0    0  501  503 -0.00000000000E+00 -0.00000000000E+00 -0.97523007217E+03  0.97523007217E+03  0.00000000000E+00 0. -1.
          6    1    1    2  501    0 -0.49308436700E+02  0.20898162871E+02 -0.66819057945E+03  0.69229741124E+03  0.17300000000E+03 0. -1.
         -6    1    1    2    0  502  0.49308436700E+02 -0.20898162871E+02 -0.26719065043E+03  0.32278150321E+03  0.17300000000E+03 0. -1.
<mgrwt>
<rscale>  2 0.18109957E+03</rscale>
<asrwt>0</asrwt>
<pdfrwt beam="1">  1       21 0.61305910E-02 0.18109957E+03</pdfrwt>
<pdfrwt beam="2">  1       21 0.15003540E+00 0.18109957E+03</pdfrwt>
<totfact> 0.57126392E+04</totfact>
</mgrwt>
</event>
<event>
 4    1  0.4374784E+000  0.1897605E+03  0.7546771E-02  0.1158678E+00
         21   -1    0    0  503  502  0.00000000000E+00  0.00000000000E+00  0.34281866743E+02  0.34281866743E+02  0.00000000000E+00 0. -1.
         21   -1    0    0  501  503 -0.00000000000E+00 -0.00000000000E+00 -0.11462311805E+04  0.11462311805E+04  0.00000000000E+00 0.  1.
          6    1    1    2  501    0  0.74518171643E+02  0.22958627136E+02 -0.72666102658E+03  0.75102949611E+03  0.17300000000E+03 0.  1.
         -6    1    1    2    0  502 -0.74518171643E+02 -0.22958627136E+02 -0.38528828718E+03  0.42948355114E+03  0.17300000000E+03 0.  1.
<mgrwt>
<rscale>  2 0.18976052E+03</rscale>
<asrwt>0</asrwt>
<pdfrwt beam="1">  1       21 0.52741331E-02 0.18976052E+03</pdfrwt>
<pdfrwt beam="2">  1       21 0.17634327E+00 0.18976052E+03</pdfrwt>
<totfact> 0.47442705E+04</totfact>
</mgrwt>
</event>
<event>
 4    1  0.4374784E+000  0.2512738E+03  0.7546771E-02  0.1112502E+00
         21   -1    0    0  503  502  0.00000000000E+00  0.00000000000E+00  0.75770110512E+03  0.75770110512E+03  0.00000000000E+00 0. -1.
         21   -1    0    0  501  503 -0.00000000000E+00 -0.00000000000E+00 -0.15597499013E+03  0.15597499013E+03  0.00000000000E+00 0.  1.
          6    1    1    2  501    0  0.14676970208E+03  0.10801922466E+03 -0.10911388747E+02  0.25151054998E+03  0.17300000000E+03 0. -1.
         -6    1    1    2    0  502 -0.14676970208E+03 -0.10801922466E+03  0.61263750374E+03  0.66216554527E+03  0.17300000000E+03 0.  1.
<mgrwt>
<rscale>  2 0.25127375E+03</rscale>
<asrwt>0</asrwt>
<pdfrwt beam="1">  1       21 0.11656940E+00 0.25127375E+03</pdfrwt>
<pdfrwt beam="2">  1       21 0.23996153E-01 0.25127375E+03</pdfrwt>
<totfact> 0.89361446E+03</totfact>
</mgrwt>
</event>
<event>
 4    1  0.4374784E+000  0.2775863E+03  0.7546771E-02  0.1097015E+00
         21   -1    0    0  501  502  0.00000000000E+00  0.00000000000E+00  0.30957344686E+03  0.30957344686E+03  0.00000000000E+00 0.  1.
         21   -1    0    0  502  503 -0.00000000000E+00 -0.00000000000E+00 -0.24931236756E+03  0.24931236756E+03  0.00000000000E+00 0. -1.
          6    1    1    2  501    0 -0.20039118659E+03  0.83477675032E+02  0.41436518735E+02  0.28066195855E+03  0.17300000000E+03 0.  1.
         -6    1    1    2    0  503  0.20039118659E+03 -0.83477675032E+02  0.18824560568E+02  0.27822385587E+03  0.17300000000E+03 0. -1.
<mgrwt>
<rscale>  2 0.27758629E+03</rscale>
<asrwt>0</asrwt>
<pdfrwt beam="1">  1       21 0.47626684E-01 0.27758629E+03</pdfrwt>
<pdfrwt beam="2">  1       21 0.38355749E-01 0.27758629E+03</pdfrwt>
<totfact> 0.26516206E+04</totfact>
</mgrwt>
</event>
<event>
 4    1  0.4374784E+000  0.1730557E+03  0.7546771E-02  0.1174698E+00
         21   -1    0    0  501  502  0.00000000000E+00  0.00000000000E+00  0.63223188289E+03  0.63223188289E+03  0.00000000000E+00 0.  1.
         21   -1    0    0  502  503 -0.00000000000E+00 -0.00000000000E+00 -0.47369438496E+02  0.47369438496E+02  0.00000000000E+00 0.  1.
          6    1    1    2  501    0  0.19889326538E+00 -0.43842378226E+01  0.29153530403E+03  0.33902963675E+03  0.17300000000E+03 0.  1.
         -6    1    1    2    0  503 -0.19889326538E+00  0.43842378226E+01  0.29332714036E+03  0.34057168463E+03  0.17300000000E+03 0.  1.
<mgrwt>
<rscale>  2 0.17305566E+03</rscale>
<asrwt>0</asrwt>
<pdfrwt beam="1">  1       21 0.97266437E-01 0.17305566E+03</pdfrwt>
<pdfrwt beam="2">  1       21 0.72876064E-02 0.17305566E+03</pdfrwt>
<totfact> 0.12460341E+05</totfact>
</mgrwt>
</event>
<event>
 4    1  0.4374784E+000  0.1859106E+03  0.7546771E-02  0.1162202E+00
         21   -1    0    0  503  502  0.00000000000E+00  0.00000000000E+00  0.28614556003E+03  0.28614556003E+03  0.00000000000E+00 0. -1.
         21   -1    0    0  501  503 -0.00000000000E+00 -0.00000000000E+00 -0.12359802804E+03  0.12359802804E+03  0.00000000000E+00 0. -1.
          6    1    1    2  501    0  0.52477729112E+02 -0.43356931216E+02  0.50378665615E+02  0.19261553802E+03  0.17300000000E+03 0. -1.
         -6    1    1    2    0  502 -0.52477729112E+02  0.43356931216E+02  0.11216886638E+03  0.21712805006E+03  0.17300000000E+03 0. -1.
<mgrwt>
<rscale>  2 0.18591056E+03</rscale>
<asrwt>0</asrwt>
<pdfrwt beam="1">  1       21 0.44022394E-01 0.18591056E+03</pdfrwt>
<pdfrwt beam="2">  1       21 0.19015081E-01 0.18591056E+03</pdfrwt>
<totfact> 0.12600547E+05</totfact>
</mgrwt>
</event>
<event>
 4    1  0.4374784E+000  0.2168812E+03  0.7546771E-02  0.1136230E+00
         21   -1    0    0  501  502  0.00000000000E+00  0.00000000000E+00  0.21836745258E+02  0.21836745258E+02  0.00000000000E+00 0.  1.
         21   -1    0    0  502  503 -0.00000000000E+00 -0.00000000000E+00 -0.22937842011E+04  0.22937842011E+04  0.00000000000E+00 0.  1.
          6    1    1    2  501    0 -0.60616039021E+02  0.11590584755E+03 -0.85020775085E+03  0.87743415097E+03  0.17300000000E+03 0.  1.
         -6    1    1    2    0  503  0.60616039021E+02 -0.11590584755E+03 -0.14217397050E+04  0.14381867954E+04  0.17300000000E+03 0.  1.
<mgrwt>
<rscale>  2 0.21688123E+03</rscale>
<asrwt>0</asrwt>
<pdfrwt beam="1">  1       21 0.33595012E-02 0.21688123E+03</pdfrwt>
<pdfrwt beam="2">  1       21 0.35288968E+00 0.21688123E+03</pdfrwt>
<totfact> 0.85738349E+03</totfact>
</mgrwt>
</event>
<event>
 4    1  0.4374784E+000  0.2159675E+03  0.7546771E-02  0.1136926E+00
         21   -1    0    0  503  502  0.00000000000E+00  0.00000000000E+00  0.47221268749E+03  0.47221268749E+03  0.00000000000E+00 0.  1.
         21   -1    0    0  501  503 -0.00000000000E+00 -0.00000000000E+00 -0.11974822931E+03  0.11974822931E+03  0.00000000000E+00 0.  1.
          6    1    1    2  501    0 -0.12579038199E+03  0.29828667431E+02  0.52358410072E+02  0.22222369970E+03  0.17300000000E+03 0.  1.
         -6    1    1    2    0  502  0.12579038199E+03 -0.29828667431E+02  0.30010604810E+03  0.36973721710E+03  0.17300000000E+03 0.  1.
<mgrwt>
<rscale>  2 0.21596752E+03</rscale>
<asrwt>0</asrwt>
<pdfrwt beam="1">  1       21 0.72648105E-01 0.21596752E+03</pdfrwt>
<pdfrwt beam="2">  1       21 0.18422805E-01 0.21596752E+03</pdfrwt>
<totfact> 0.45375072E+04</totfact>
</mgrwt>
</event>
<event>
 4    1  0.4374784E+000  0.2173611E+03  0.7546771E-02  0.1135866E+00
         21   -1    0    0  501  502  0.00000000000E+00  0.00000000000E+00  0.86432266183E+03  0.86432266183E+03  0.00000000000E+00 0.  1.
         21   -1    0    0  502  503 -0.00000000000E+00 -0.00000000000E+00 -0.54975489105E+02  0.54975489105E+02  0.00000000000E+00 0. -1.
          6    1    1    2  501    0 -0.23404646177E+02 -0.12949539920E+03  0.36997847922E+03  0.42910361332E+03  0.17300000000E+03 0.  1.
         -6    1    1    2    0  503  0.23404646177E+02  0.12949539920E+03  0.43936869351E+03  0.49019453762E+03  0.17300000000E+03 0. -1.
<mgrwt>
<rscale>  2 0.21736107E+03</rscale>
<asrwt>0</asrwt>
<pdfrwt beam="1">  1       21 0.13297271E+00 0.21736107E+03</pdfrwt>
<pdfrwt beam="2">  1       21 0.84577682E-02 0.21736107E+03</pdfrwt>
<totfact> 0.43860996E+04</totfact>
</mgrwt>
</event>
<event>
 4    1  0.4374784E+000  0.1806665E+03  0.7546771E-02  0.1167160E+00
         21   -1    0    0  501  502  0.00000000000E+00  0.00000000000E+00  0.30565757524E+03  0.30565757524E+03  0.00000000000E+00 0. -1.
         21   -1    0    0  502  503 -0.00000000000E+00 -0.00000000000E+00 -0.15930999573E+03  0.15930999573E+03  0.00000000000E+00 0. -1.
          6    1    1    2  501    0 -0.38287180725E+02 -0.35291223043E+02  0.20666240696E+03  0.27449905115E+03  0.17300000000E+03 0. -1.
         -6    1    1    2    0  503  0.38287180725E+02  0.35291223043E+02 -0.60314827457E+02  0.19046851982E+03  0.17300000000E+03 0. -1.
<mgrwt>
<rscale>  2 0.18066648E+03</rscale>
<asrwt>0</asrwt>
<pdfrwt beam="1">  1       21 0.47024242E-01 0.18066648E+03</pdfrwt>
<pdfrwt beam="2">  1       21 0.24509230E-01 0.18066648E+03</pdfrwt>
<totfact> 0.68431791E+04</totfact>
</mgrwt>
</event>
<event>
 4    1  0.4374784E+000  0.2005796E+03  0.7546771E-02  0.1149251E+00
         21   -1    0    0  503  502  0.00000000000E+00  0.00000000000E+00  0.34386774885E+03  0.34386774885E+03  0.00000000000E+00 0.  1.
         21   -1    0    0  501  503 -0.00000000000E+00 -0.00000000000E+00 -0.35331708584E+03  0.35331708584E+03  0.00000000000E+00 0.  1.
          6    1    1    2  501    0  0.98684022425E+02 -0.23762086321E+02 -0.28981607214E+03  0.35245642099E+03  0.17300000000E+03 0. -1.
         -6    1    1    2    0  502 -0.98684022425E+02  0.23762086321E+02  0.28036673515E+03  0.34472841369E+03  0.17300000000E+03 0. -1.
<mgrwt>
<rscale>  2 0.20057959E+03</rscale>
<asrwt>0</asrwt>
<pdfrwt beam="1">  1       21 0.52902731E-01 0.20057959E+03</pdfrwt>
<pdfrwt beam="2">  1       21 0.54356475E-01 0.20057959E+03</pdfrwt>
<totfact> 0.10768507E+04</totfact>
</mgrwt>
</event>
<event>
 4    1  0.4374784E+000  0.1946677E+03  0.7546771E-02  0.1154317E+00
         21   -1    0    0  503  502  0.00000000000E+00  0.00000000000E+00  0.89933070424E+03  0.89933070424E+03  0.00000000000E+00 0.  1.
         21   -1    0    0  501  503 -0.00000000000E+00 -0.00000000000E+00 -0.18438351892E+03  0.18438351892E+03  0.00000000000E+00 0.  1.
          6    1    1    2  501    0 -0.88083967777E+02 -0.14413139677E+02 -0.11845722610E+03  0.22787636646E+03  0.17300000000E+03 0.  1.
         -6    1    1    2    0  502  0.88083967777E+02  0.14413139677E+02  0.83340441142E+03  0.85583785670E+03  0.17300000000E+03 0.  1.
<mgrwt>
<rscale>  2 0.19466773E+03</rscale>
<asrwt>0</asrwt>
<pdfrwt beam="1">  1       21 0.13835857E+00 0.19466773E+03</pdfrwt>
<pdfrwt beam="2">  1       21 0.28366696E-01 0.19466773E+03</pdfrwt>
<totfact> 0.43752715E+03</totfact>
</mgrwt>
</event>
<event>
 4    1  0.4374784E+000  0.1994529E+03  0.7546771E-02  0.1150201E+00
         21   -1    0    0  503  502  0.00000000000E+00  0.00000000000E+00  0.27389702273E+03  0.27389702273E+03  0.00000000000E+00 0.  1.
         21   -1    0    0  501  503 -0.00000000000E+00 -0.00000000000E+00 -0.19732733833E+03  0.19732733833E+03  0.00000000000E+00 0. -1.
          6    1    1    2  501    0 -0.38815427239E+02 -0.91355488340E+02 -0.82763866457E+02  0.21594286335E+03  0.17300000000E+03 0. -1.
         -6    1    1    2    0  502  0.38815427239E+02  0.91355488340E+02  0.15933355086E+03  0.25528149771E+03  0.17300000000E+03 0. -1.
<mgrwt>
<rscale>  2 0.19945291E+03</rscale>
<asrwt>0</asrwt>
<pdfrwt beam="1">  1       21 0.42138004E-01 0.19945291E+03</pdfrwt>
<pdfrwt beam="2">  1       21 0.30358052E-01 0.19945291E+03</pdfrwt>
<totfact> 0.56253652E+04</totfact>
</mgrwt>
</event>
<event>
 4    1  0.4374784E+000  0.1966121E+03  0.7546771E-02  0.1152629E+00
         21   -1    0    0  503  502  0.00000000000E+00  0.00000000000E+00  0.10343456625E+04  0.10343456625E+04  0.00000000000E+00 0. -1.
         21   -1    0    0  501  503 -0.00000000000E+00 -0.00000000000E+00 -0.76446141357E+02  0.76446141357E+02  0.00000000000E+00 0. -1.
          6    1    1    2  501    0 -0.12246167142E+02 -0.92614016811E+02  0.81881172055E+02  0.21298087017E+03  0.17300000000E+03 0. -1.
         -6    1    1    2    0  502  0.12246167142E+02  0.92614016811E+02  0.87601834913E+03  0.89781093374E+03  0.17300000000E+03 0. -1.
<mgrwt>
<rscale>  2 0.19661212E+03</rscale>
<asrwt>0</asrwt>
<pdfrwt beam="1">  1       21 0.15913009E+00 0.19661212E+03</pdfrwt>
<pdfrwt beam="2">  1       21 0.11760946E-01 0.19661212E+03</pdfrwt>
<totfact> 0.15493485E+04</totfact>
</mgrwt>
</event>
<event>
 4    1  0.4374784E+000  0.2092432E+03  0.7546771E-02  0.1142167E+00
         21   -1    0    0  503  502  0.00000000000E+00  0.00000000000E+00  0.13492813137E+04  0.13492813137E+04  0.00000000000E+00 0.  1.
         21   -1    0    0  501  503 -0.00000000000E+00 -0.00000000000E+00 -0.45384101456E+02  0.45384101456E+02  0.00000000000E+00 0.  1.
          6    1    1    2  501    0 -0.10367626107E+03 -0.55721926171E+02  0.27966433140E+03  0.34927759508E+03  0.17300000000E+03 0.  1.
         -6    1    1    2    0  502  0.10367626107E+03  0.55721926171E+02  0.10242328808E+04  0.10453878201E+04  0.17300000000E+03 0.  1.
<mgrwt>
<rscale>  2 0.20924316E+03</rscale>
<asrwt>0</asrwt>
<pdfrwt beam="1">  1       21 0.20758171E+00 0.20924316E+03</pdfrwt>
<pdfrwt beam="2">  1       21 0.69821705E-02 0.20924316E+03</pdfrwt>
<totfact> 0.18024527E+04</totfact>
</mgrwt>
</event>
<event>
 4    1  0.4374784E+000  0.2103973E+03  0.7546771E-02  0.1141252E+00
         21   -1    0    0  503  502  0.00000000000E+00  0.00000000000E+00  0.16286684176E+03  0.16286684176E+03  0.00000000000E+00 0.  1.
         21   -1    0    0  501  503 -0.00000000000E+00 -0.00000000000E+00 -0.27249357681E+03  0.27249357681E+03  0.00000000000E+00 0.  1.
          6    1    1    2  501    0  0.11489412911E+03  0.33724893585E+02 -0.65804196735E+02  0.22044777535E+03  0.17300000000E+03 0.  1.
         -6    1    1    2    0  502 -0.11489412911E+03 -0.33724893585E+02 -0.43822538308E+02  0.21491264322E+03  0.17300000000E+03 0.  1.
<mgrwt>
<rscale>  2 0.21039731E+03</rscale>
<asrwt>0</asrwt>
<pdfrwt beam="1">  1       21 0.25056438E-01 0.21039731E+03</pdfrwt>
<pdfrwt beam="2">  1       21 0.41922088E-01 0.21039731E+03</pdfrwt>
<totfact> 0.81982299E+04</totfact>
</mgrwt>
</event>
<event>
 4    1  0.4374784E+000  0.1974339E+03  0.7546771E-02  0.1151922E+00
         21   -1    0    0  501  502  0.00000000000E+00  0.00000000000E+00  0.97677311248E+03  0.97677311248E+03  0.00000000000E+00 0.  1.
         21   -1    0    0  502  503 -0.00000000000E+00 -0.00000000000E+00 -0.42584345440E+02  0.42584345440E+02  0.00000000000E+00 0.  1.
          6    1    1    2  501    0 -0.13413744013E+02 -0.94187229254E+02  0.59489037795E+03  0.62679719564E+03  0.17300000000E+03 0.  1.
         -6    1    1    2    0  503  0.13413744013E+02  0.94187229254E+02  0.33929838909E+03  0.39256026228E+03  0.17300000000E+03 0.  1.
<mgrwt>
<rscale>  2 0.19743395E+03</rscale>
<asrwt>0</asrwt>
<pdfrwt beam="1">  1       21 0.15027277E+00 0.19743395E+03</pdfrwt>
<pdfrwt beam="2">  1       21 0.65514385E-02 0.19743395E+03</pdfrwt>
<totfact> 0.50303034E+04</totfact>
</mgrwt>
</event>
<event>
 4    1  0.4374784E+000  0.1957169E+03  0.7546771E-02  0.1153404E+00
         21   -1    0    0  503  502  0.00000000000E+00  0.00000000000E+00  0.30353321024E+03  0.30353321024E+03  0.00000000000E+00 0. -1.
         21   -1    0    0  501  503 -0.00000000000E+00 -0.00000000000E+00 -0.17696404767E+03  0.17696404767E+03  0.00000000000E+00 0. -1.
          6    1    1    2  501    0  0.91470262249E+02 -0.30491455251E+01 -0.65394389876E+02  0.20635293163E+03  0.17300000000E+03 0. -1.
         -6    1    1    2    0  502 -0.91470262249E+02  0.30491455251E+01  0.19196355244E+03  0.27414432628E+03  0.17300000000E+03 0. -1.
<mgrwt>
<rscale>  2 0.19571690E+03</rscale>
<asrwt>0</asrwt>
<pdfrwt beam="1">  1       21 0.46697417E-01 0.19571690E+03</pdfrwt>
<pdfrwt beam="2">  1       21 0.27225238E-01 0.19571690E+03</pdfrwt>
<totfact> 0.56394095E+04</totfact>
</mgrwt>
</event>
<event>
 4    1  0.4374784E+000  0.1934848E+03  0.7546771E-02  0.1155355E+00
         21   -1    0    0  501  502  0.00000000000E+00  0.00000000000E+00  0.13372145098E+03  0.13372145098E+03  0.00000000000E+00 0. -1.
         21   -1    0    0  502  503 -0.00000000000E+00 -0.00000000000E+00 -0.31282434437E+03  0.31282434437E+03  0.00000000000E+00 0. -1.
          6    1    1    2  501    0  0.43187573484E+02 -0.75114528593E+02 -0.17180713467E+02  0.19424607029E+03  0.17300000000E+03 0. -1.
         -6    1    1    2    0  503 -0.43187573484E+02  0.75114528593E+02 -0.16192217992E+03  0.25229972505E+03  0.17300000000E+03 0. -1.
<mgrwt>
<rscale>  2 0.19348478E+03</rscale>
<asrwt>0</asrwt>
<pdfrwt beam="1">  1       21 0.20572531E-01 0.19348478E+03</pdfrwt>
<pdfrwt beam="2">  1       21 0.48126822E-01 0.19348478E+03</pdfrwt>
<totfact> 0.90303019E+04</totfact>
</mgrwt>
</event>
<event>
 4    1  0.4374784E+000  0.2235306E+03  0.7546771E-02  0.1131278E+00
         21   -1    0    0  501  502  0.00000000000E+00  0.00000000000E+00  0.20541222040E+03  0.20541222040E+03  0.00000000000E+00 0. -1.
         21   -1    0    0  502  503 -0.00000000000E+00 -0.00000000000E+00 -0.30615749545E+03  0.30615749545E+03  0.00000000000E+00 0.  1.
          6    1    1    2  501    0  0.82116090446E+02  0.11529898892E+03  0.65575529954E+02  0.23295076579E+03  0.17300000000E+03 0. -1.
         -6    1    1    2    0  503 -0.82116090446E+02 -0.11529898892E+03 -0.16632080500E+03  0.27861895006E+03  0.17300000000E+03 0.  1.
<mgrwt>
<rscale>  2 0.22353056E+03</rscale>
<asrwt>0</asrwt>
<pdfrwt beam="1">  1       21 0.31601880E-01 0.22353056E+03</pdfrwt>
<pdfrwt beam="2">  1       21 0.47101153E-01 0.22353056E+03</pdfrwt>
<totfact> 0.40892072E+04</totfact>
</mgrwt>
</event>
<event>
 4    1  0.4374784E+000  0.2317105E+03  0.7546771E-02  0.1125442E+00
         21   -1    0    0  503  502  0.00000000000E+00  0.00000000000E+00  0.22529795464E+04  0.22529795464E+04  0.00000000000E+00 0.  1.
         21   -1    0    0  501  503 -0.00000000000E+00 -0.00000000000E+00 -0.26574032890E+02  0.26574032890E+02  0.00000000000E+00 0. -1.
          6    1    1    2  501    0  0.13477754930E+03 -0.74804767767E+02  0.74698261562E+03  0.78209511513E+03  0.17300000000E+03 0. -1.
         -6    1    1    2    0  502 -0.13477754930E+03  0.74804767767E+02  0.14794228979E+04  0.14974584641E+04  0.17300000000E+03 0.  1.
<mgrwt>
<rscale>  2 0.23171047E+03</rscale>
<asrwt>0</asrwt>
<pdfrwt beam="1">  1       21 0.34661209E+00 0.23171047E+03</pdfrwt>
<pdfrwt beam="2">  1       21 0.40883145E-02 0.23171047E+03</pdfrwt>
<totfact> 0.66155124E+03</totfact>
</mgrwt>
</event>
<event>
 4    1  0.4374784E+000  0.2127235E+03  0.7546771E-02  0.1139427E+00
         21   -1    0    0  503  502  0.00000000000E+00  0.00000000000E+00  0.15342830901E+03  0.15342830901E+03  0.00000000000E+00 0.  1.
         21   -1    0    0  501  503 -0.00000000000E+00 -0.00000000000E+00 -0.36090489036E+03  0.36090489036E+03  0.00000000000E+00 0.  1.
          6    1    1    2  501    0  0.62891805117E+02 -0.10661575805E+03 -0.21368766480E+03  0.30151901616E+03  0.17300000000E+03 0.  1.
         -6    1    1    2    0  502 -0.62891805117E+02  0.10661575805E+03  0.62110834545E+01  0.21281418320E+03  0.17300000000E+03 0.  1.
<mgrwt>
<rscale>  2 0.21272353E+03</rscale>
<asrwt>0</asrwt>
<pdfrwt beam="1">  1       21 0.23604355E-01 0.21272353E+03</pdfrwt>
<pdfrwt beam="2">  1       21 0.55523829E-01 0.21272353E+03</pdfrwt>
<totfact> 0.51162177E+04</totfact>
</mgrwt>
</event>
<event>
 4    1  0.4374784E+000  0.2455904E+03  0.7546771E-02  0.1116124E+00
         21   -1    0    0  503  502  0.00000000000E+00  0.00000000000E+00  0.79870327760E+02  0.79870327760E+02  0.00000000000E+00 0.  1.
         21   -1    0    0  501  503 -0.00000000000E+00 -0.00000000000E+00 -0.13775877350E+04  0.13775877350E+04  0.00000000000E+00 0. -1.
          6    1    1    2  501    0 -0.32408793002E+02 -0.17127560237E+03 -0.11386959945E+04  0.11648790623E+04  0.17300000000E+03 0. -1.
         -6    1    1    2    0  502  0.32408793002E+02  0.17127560237E+03 -0.15902141279E+03  0.29257900054E+03  0.17300000000E+03 0.  1.
<mgrwt>
<rscale>  2 0.24559044E+03</rscale>
<asrwt>0</asrwt>
<pdfrwt beam="1">  1       21 0.12287743E-01 0.24559044E+03</pdfrwt>
<pdfrwt beam="2">  1       21 0.21193657E+00 0.24559044E+03</pdfrwt>
<totfact> 0.60718534E+03</totfact>
</mgrwt>
</event>
<event>
 4    1  0.4374784E+000  0.2230582E+03  0.7546771E-02  0.1131623E+00
         21   -1    0    0  501  502  0.00000000000E+00  0.00000000000E+00  0.70158648280E+03  0.70158648280E+03  0.00000000000E+00 0.  1.
         21   -1    0    0  502  503 -0.00000000000E+00 -0.00000000000E+00 -0.86752335534E+02  0.86752335534E+02  0.00000000000E+00 0.  1.
          6    1    1    2  501    0  0.84088645764E+02  0.11293820705E+03  0.47581843470E+03  0.52550748973E+03  0.17300000000E+03 0.  1.
         -6    1    1    2    0  503 -0.84088645764E+02 -0.11293820705E+03  0.13901571256E+03  0.26283132861E+03  0.17300000000E+03 0.  1.
<mgrwt>
<rscale>  2 0.22305815E+03</rscale>
<asrwt>0</asrwt>
<pdfrwt beam="1">  1       21 0.10793638E+00 0.22305815E+03</pdfrwt>
<pdfrwt beam="2">  1       21 0.13346514E-01 0.22305815E+03</pdfrwt>
<totfact> 0.32593724E+04</totfact>
</mgrwt>
</event>
<event>
 4    1  0.4374784E+000  0.2473038E+03  0.7546771E-02  0.1115021E+00
         21   -1    0    0  503  502  0.00000000000E+00  0.00000000000E+00  0.66775975718E+03  0.66775975718E+03  0.00000000000E+00 0.  1.
         21   -1    0    0  501  503 -0.00000000000E+00 -0.00000000000E+00 -0.12700299429E+03  0.12700299429E+03  0.00000000000E+00 0.  1.
          6    1    1    2  501    0  0.13543854352E+03 -0.11351901845E+03  0.60537272498E+02  0.25460543589E+03  0.17300000000E+03 0.  1.
         -6    1    1    2    0  502 -0.13543854352E+03  0.11351901845E+03  0.48021949039E+03  0.54015731558E+03  0.17300000000E+03 0.  1.
<mgrwt>
<rscale>  2 0.24730379E+03</rscale>
<asrwt>0</asrwt>
<pdfrwt beam="1">  1       21 0.10273227E+00 0.24730379E+03</pdfrwt>
<pdfrwt beam="2">  1       21 0.19538923E-01 0.24730379E+03</pdfrwt>
<totfact> 0.17981527E+04</totfact>
</mgrwt>
</event>
<event>
 4    1  0.4374784E+000  0.1962216E+03  0.7546771E-02  0.1152967E+00
         21   -1    0    0  503  502  0.00000000000E+00  0.00000000000E+00  0.13988395854E+03  0.13988395854E+03  0.00000000000E+00 0. -1.
         21   -1    0    0  501  503 -0.00000000000E+00 -0.00000000000E+00 -0.68881910278E+03  0.68881910278E+03  0.00000000000E+00 0. -1.
          6    1    1    2  501    0  0.60733074911E+02 -0.69895695975E+02 -0.59553107735E+03  0.62702486298E+03  0.17300000000E+03 0. -1.
         -6    1    1    2    0  502 -0.60733074911E+02  0.69895695975E+02  0.46595933110E+02  0.20167819834E+03  0.17300000000E+03 0. -1.
<mgrwt>
<rscale>  2 0.19622160E+03</rscale>
<asrwt>0</asrwt>
<pdfrwt beam="1">  1       21 0.21520609E-01 0.19622160E+03</pdfrwt>
<pdfrwt beam="2">  1       21 0.10597217E+00 0.19622160E+03</pdfrwt>
<totfact> 0.14344494E+04</totfact>
</mgrwt>
</event>
<event>
 4    1  0.4374784E+000  0.1805887E+03  0.7546771E-02  0.1167234E+00
         21   -1    0    0  503  502  0.00000000000E+00  0.00000000000E+00  0.27362314261E+02  0.27362314261E+02  0.00000000000E+00 0.  1.
         21   -1    0    0  501  503 -0.00000000000E+00 -0.00000000000E+00 -0.12059081263E+04  0.12059081263E+04  0.00000000000E+00 0.  1.
          6    1    1    2  501    0 -0.38428771783E+02 -0.34735036374E+02 -0.65580661829E+03  0.68021659333E+03  0.17300000000E+03 0.  1.
         -6    1    1    2    0  502  0.38428771783E+02  0.34735036374E+02 -0.52273919375E+03  0.55305384723E+03  0.17300000000E+03 0.  1.
<mgrwt>
<rscale>  2 0.18058874E+03</rscale>
<asrwt>0</asrwt>
<pdfrwt beam="1">  1       21 0.42095880E-02 0.18058874E+03</pdfrwt>
<pdfrwt beam="2">  1       21 0.18552427E+00 0.18058874E+03</pdfrwt>
<totfact> 0.60505266E+04</totfact>
</mgrwt>
</event>
<event>
 4    1  0.4374784E+000  0.2447094E+03  0.7546771E-02  0.1116695E+00
         21   -1    0    0  503  502  0.00000000000E+00  0.00000000000E+00  0.61133546000E+03  0.61133546000E+03  0.00000000000E+00 0. -1.
         21   -1    0    0  501  503 -0.00000000000E+00 -0.00000000000E+00 -0.99332593959E+02  0.99332593959E+02  0.00000000000E+00 0. -1.
          6    1    1    2  501    0  0.17222812592E+03  0.17063707872E+02  0.21413908673E+03  0.32517417786E+03  0.17300000000E+03 0. -1.
         -6    1    1    2    0  502 -0.17222812592E+03 -0.17063707872E+02  0.29786377932E+03  0.38549387610E+03  0.17300000000E+03 0. -1.
<mgrwt>
<rscale>  2 0.24470941E+03</rscale>
<asrwt>0</asrwt>
<pdfrwt beam="1">  1       21 0.94051607E-01 0.24470941E+03</pdfrwt>
<pdfrwt beam="2">  1       21 0.15281938E-01 0.24470941E+03</pdfrwt>
<totfact> 0.35024657E+04</totfact>
</mgrwt>
</event>
<event>
 4    1  0.4374784E+000  0.1740574E+03  0.7546771E-02  0.1173682E+00
         21   -1    0    0  503  502  0.00000000000E+00  0.00000000000E+00  0.24873696030E+02  0.24873696030E+02  0.00000000000E+00 0.  1.
         21   -1    0    0  501  503 -0.00000000000E+00 -0.00000000000E+00 -0.12484783299E+04  0.12484783299E+04  0.00000000000E+00 0.  1.
          6    1    1    2  501    0 -0.17232951919E+02  0.83661459067E+01 -0.71129229563E+03  0.73227911131E+03  0.17300000000E+03 0.  1.
         -6    1    1    2    0  502  0.17232951919E+02 -0.83661459067E+01 -0.51231233825E+03  0.54107291463E+03  0.17300000000E+03 0.  1.
<mgrwt>
<rscale>  2 0.17405737E+03</rscale>
<asrwt>0</asrwt>
<pdfrwt beam="1">  1       21 0.38267229E-02 0.17405737E+03</pdfrwt>
<pdfrwt beam="2">  1       21 0.19207356E+00 0.17405737E+03</pdfrwt>
<totfact> 0.64528034E+04</totfact>
</mgrwt>
</event>
<event>
 4    1  0.4374784E+000  0.1851100E+03  0.7546771E-02  0.1162947E+00
         21   -1    0    0  501  502  0.00000000000E+00  0.00000000000E+00  0.11112782855E+03  0.11112782855E+03  0.00000000000E+00 0.  1.
         21   -1    0    0  502  503 -0.00000000000E+00 -0.00000000000E+00 -0.33586280006E+03  0.33586280006E+03  0.00000000000E+00 0.  1.
          6    1    1    2  501    0  0.47917185858E+02  0.45173487629E+02 -0.48394737571E+02  0.19133152200E+03  0.17300000000E+03 0. -1.
         -6    1    1    2    0  503 -0.47917185858E+02 -0.45173487629E+02 -0.17634023395E+03  0.25565910661E+03  0.17300000000E+03 0. -1.
<mgrwt>
<rscale>  2 0.18510997E+03</rscale>
<asrwt>0</asrwt>
<pdfrwt beam="1">  1       21 0.17096589E-01 0.18510997E+03</pdfrwt>
<pdfrwt beam="2">  1       21 0.51671199E-01 0.18510997E+03</pdfrwt>
<totfact> 0.11013076E+05</totfact>
</mgrwt>
</event>
<event>
 4    1  0.4374784E+000  0.1740968E+03  0.7546771E-02  0.1173642E+00
         21   -1    0    0  501  502  0.00000000000E+00  0.00000000000E+00  0.72049875110E+03  0.72049875110E+03  0.00000000000E+00 0. -1.
         21   -1    0    0  502  503 -0.00000000000E+00 -0.00000000000E+00 -0.15691984938E+03  0.15691984938E+03  0.00000000000E+00 0. -1.
          6    1    1    2  501    0  0.16477919802E+02  0.10448063444E+02  0.65711451904E+03  0.67978612446E+03  0.17300000000E+03 0. -1.
         -6    1    1    2    0  503 -0.16477919802E+02 -0.10448063444E+02 -0.93535617316E+02  0.19763247602E+03  0.17300000000E+03 0. -1.
<mgrwt>
<rscale>  2 0.17409677E+03</rscale>
<asrwt>0</asrwt>
<pdfrwt beam="1">  1       21 0.11084596E+00 0.17409677E+03</pdfrwt>
<pdfrwt beam="2">  1       21 0.24141516E-01 0.17409677E+03</pdfrwt>
<totfact> 0.10519623E+04</totfact>
</mgrwt>
</event>
<event>
 4    1  0.4374784E+000  0.1968126E+03  0.7546771E-02  0.1152456E+00
         21   -1    0    0  501  502  0.00000000000E+00  0.00000000000E+00  0.32943461488E+03  0.32943461488E+03  0.00000000000E+00 0.  1.
         21   -1    0    0  502  503 -0.00000000000E+00 -0.00000000000E+00 -0.14941458900E+03  0.14941458900E+03  0.00000000000E+00 0.  1.
          6    1    1    2  501    0  0.80706365674E+02 -0.47881765559E+02  0.20052381856E+03  0.28097149810E+03  0.17300000000E+03 0.  1.
         -6    1    1    2    0  503 -0.80706365674E+02  0.47881765559E+02 -0.20503792682E+02  0.19787770579E+03  0.17300000000E+03 0.  1.
<mgrwt>
<rscale>  2 0.19681255E+03</rscale>
<asrwt>0</asrwt>
<pdfrwt beam="1">  1       21 0.50682248E-01 0.19681255E+03</pdfrwt>
<pdfrwt beam="2">  1       21 0.22986860E-01 0.19681255E+03</pdfrwt>
<totfact> 0.65690837E+04</totfact>
</mgrwt>
</event>
<event>
 4    1  0.4374784E+000  0.1980513E+03  0.7546771E-02  0.1151394E+00
         21   -1    0    0  501  502  0.00000000000E+00  0.00000000000E+00  0.13235870846E+04  0.13235870846E+04  0.00000000000E+00 0. -1.
         21   -1    0    0  502  503 -0.00000000000E+00 -0.00000000000E+00 -0.39502359549E+02  0.39502359549E+02  0.00000000000E+00 0. -1.
          6    1    1    2  501    0  0.77264293086E+02 -0.57667607158E+02  0.98267503256E+03  0.10024343088E+04  0.17300000000E+03 0. -1.
         -6    1    1    2    0  503 -0.77264293086E+02  0.57667607158E+02  0.30140969246E+03  0.36065513529E+03  0.17300000000E+03 0. -1.
<mgrwt>
<rscale>  2 0.19805132E+03</rscale>
<asrwt>0</asrwt>
<pdfrwt beam="1">  1       21 0.20362875E+00 0.19805132E+03</pdfrwt>
<pdfrwt beam="2">  1       21 0.60772871E-02 0.19805132E+03</pdfrwt>
<totfact> 0.24456287E+04</totfact>
</mgrwt>
</event>
<event>
 4    1  0.4374784E+000  0.2561624E+03  0.7546771E-02  0.1109471E+00
         21   -1    0    0  501  502  0.00000000000E+00  0.00000000000E+00  0.24036436467E+03  0.24036436467E+03  0.00000000000E+00 0. -1.
         21   -1    0    0  502  503 -0.00000000000E+00 -0.00000000000E+00 -0.30030127602E+03  0.30030127602E+03  0.00000000000E+00 0. -1.
          6    1    1    2  501    0  0.52319704312E+02 -0.18152916360E+03  0.51543444828E+02  0.26129660427E+03  0.17300000000E+03 0. -1.
         -6    1    1    2    0  503 -0.52319704312E+02  0.18152916360E+03 -0.11148035617E+03  0.27936903642E+03  0.17300000000E+03 0. -1.
<mgrwt>
<rscale>  2 0.25616243E+03</rscale>
<asrwt>0</asrwt>
<pdfrwt beam="1">  1       21 0.36979133E-01 0.25616243E+03</pdfrwt>
<pdfrwt beam="2">  1       21 0.46200197E-01 0.25616243E+03</pdfrwt>
<totfact> 0.30687089E+04</totfact>
</mgrwt>
</event>
<event>
 4    1  0.4374784E+000  0.1850550E+03  0.7546771E-02  0.1162999E+00
         21   -1    0    0  503  502  0.00000000000E+00  0.00000000000E+00  0.41322257393E+03  0.41322257393E+03  0.00000000000E+00 0.  1.
         21   -1    0    0  501  503 -0.00000000000E+00 -0.00000000000E+00 -0.10118287027E+03  0.10118287027E+03  0.00000000000E+00 0. -1.
          6    1    1    2  501    0 -0.20273975324E+02 -0.62492499515E+02  0.46610463963E+02  0.19083469790E+03  0.17300000000E+03 0. -1.
         -6    1    1    2    0  502  0.20273975324E+02  0.62492499515E+02  0.26542923970E+03  0.32357074629E+03  0.17300000000E+03 0.  1.
<mgrwt>
<rscale>  2 0.18505498E+03</rscale>
<asrwt>0</asrwt>
<pdfrwt beam="1">  1       21 0.63572703E-01 0.18505498E+03</pdfrwt>
<pdfrwt beam="2">  1       21 0.15566596E-01 0.18505498E+03</pdfrwt>
<totfact> 0.84115048E+04</totfact>
</mgrwt>
</event>
<event>
 4    1  0.4374784E+000  0.2210007E+03  0.7546771E-02  0.1133139E+00
         21   -1    0    0  503  502  0.00000000000E+00  0.00000000000E+00  0.65970564333E+03  0.65970564333E+03  0.00000000000E+00 0.  1.
         21   -1    0    0  501  503 -0.00000000000E+00 -0.00000000000E+00 -0.42779392156E+03  0.42779392156E+03  0.00000000000E+00 0. -1.
          6    1    1    2  501    0 -0.10906754793E+02 -0.13708887772E+03 -0.37850905524E+03  0.43830402986E+03  0.17300000000E+03 0. -1.
         -6    1    1    2    0  502  0.10906754793E+02  0.13708887772E+03  0.61042077701E+03  0.64919553503E+03  0.17300000000E+03 0.  1.
<mgrwt>
<rscale>  2 0.22100072E+03</rscale>
<asrwt>0</asrwt>
<pdfrwt beam="1">  1       21 0.10149318E+00 0.22100072E+03</pdfrwt>
<pdfrwt beam="2">  1       21 0.65814449E-01 0.22100072E+03</pdfrwt>
<totfact> 0.16387246E+03</totfact>
</mgrwt>
</event>
<event>
 4    1  0.4374784E+000  0.1756524E+03  0.7546771E-02  0.1172078E+00
         21   -1    0    0  503  502  0.00000000000E+00  0.00000000000E+00  0.20875255780E+04  0.20875255780E+04  0.00000000000E+00 0. -1.
         21   -1    0    0  501  503 -0.00000000000E+00 -0.00000000000E+00 -0.36661112352E+02  0.36661112352E+02  0.00000000000E+00 0. -1.
          6    1    1    2  501    0 -0.29967191947E+02 -0.51707044092E+01  0.20490330324E+03  0.26988725879E+03  0.17300000000E+03 0. -1.
         -6    1    1    2    0  502  0.29967191947E+02  0.51707044092E+01  0.18459611624E+04  0.18542994316E+04  0.17300000000E+03 0. -1.
<mgrwt>
<rscale>  2 0.17565241E+03</rscale>
<asrwt>0</asrwt>
<pdfrwt beam="1">  1       21 0.32115769E+00 0.17565241E+03</pdfrwt>
<pdfrwt beam="2">  1       21 0.56401728E-02 0.17565241E+03</pdfrwt>
<totfact> 0.57691518E+03</totfact>
</mgrwt>
</event>
<event>
 4    1  0.4374784E+000  0.2586494E+03  0.7546771E-02  0.1107957E+00
         21   -1    0    0  503  502  0.00000000000E+00  0.00000000000E+00  0.18196953760E+03  0.18196953760E+03  0.00000000000E+00 0. -1.
         21   -1    0    0  501  503 -0.00000000000E+00 -0.00000000000E+00 -0.45062951565E+03  0.45062951565E+03  0.00000000000E+00 0. -1.
          6    1    1    2  501    0 -0.16456574561E+03  0.99441611006E+02 -0.27006657453E+03  0.37394581600E+03  0.17300000000E+03 0. -1.
         -6    1    1    2    0  502  0.16456574561E+03 -0.99441611006E+02  0.14065964830E+01  0.25865323725E+03  0.17300000000E+03 0. -1.
<mgrwt>
<rscale>  2 0.25864941E+03</rscale>
<asrwt>0</asrwt>
<pdfrwt beam="1">  1       21 0.27995314E-01 0.25864941E+03</pdfrwt>
<pdfrwt beam="2">  1       21 0.69327617E-01 0.25864941E+03</pdfrwt>
<totfact> 0.22278811E+04</totfact>
</mgrwt>
</event>
<event>
 4    1  0.4374784E+000  0.1805225E+03  0.7546771E-02  0.1167298E+00
         21   -1    0    0  503  502  0.00000000000E+00  0.00000000000E+00  0.97720782505E+03  0.97720782505E+03  0.00000000000E+00 0.  1.
         21   -1    0    0  501  503 -0.00000000000E+00 -0.00000000000E+00 -0.34010980779E+02  0.34010980779E+02  0.00000000000E+00 0.  1.
          6    1    1    2  501    0  0.49596339044E+01  0.51330126517E+02  0.54216581042E+03  0.57142991333E+03  0.17300000000E+03 0.  1.
         -6    1    1    2    0  502 -0.49596339044E+01 -0.51330126517E+02  0.40103103385E+03  0.43978889250E+03  0.17300000000E+03 0.  1.
<mgrwt>
<rscale>  2 0.18052252E+03</rscale>
<asrwt>0</asrwt>
<pdfrwt beam="1">  1       21 0.15033964E+00 0.18052252E+03</pdfrwt>
<pdfrwt beam="2">  1       21 0.52324593E-02 0.18052252E+03</pdfrwt>
<totfact> 0.74453003E+04</totfact>
</mgrwt>
</event>
<event>
 4    1  0.4374784E+000  0.2002009E+03  0.7546771E-02  0.1149570E+00
         21   -1    0    0  501  502  0.00000000000E+00  0.00000000000E+00  0.10360796574E+03  0.10360796574E+03  0.00000000000E+00 0. -1.
         21   -1    0    0  502  503 -0.00000000000E+00 -0.00000000000E+00 -0.38684682843E+03  0.38684682843E+03  0.00000000000E+00 0.  1.
          6    1    1    2  501    0 -0.24269413458E+02  0.97787557455E+02 -0.14167590373E+03  0.24526001003E+03  0.17300000000E+03 0.  1.
         -6    1    1    2    0  503  0.24269413458E+02 -0.97787557455E+02 -0.14156295895E+03  0.24519478414E+03  0.17300000000E+03 0. -1.
<mgrwt>
<rscale>  2 0.20020093E+03</rscale>
<asrwt>0</asrwt>
<pdfrwt beam="1">  1       21 0.15939687E-01 0.20020093E+03</pdfrwt>
<pdfrwt beam="2">  1       21 0.59514896E-01 0.20020093E+03</pdfrwt>
<totfact> 0.92284129E+04</totfact>
</mgrwt>
</event>
<event>
 4    1  0.4374784E+000  0.2040035E+03  0.7546771E-02  0.1146405E+00
         21   -1    0    0  503  502  0.00000000000E+00  0.00000000000E+00  0.78101993101E+02  0.78101993101E+02  0.00000000000E+00 0.  1.
         21   -1    0    0  501  503 -0.00000000000E+00 -0.00000000000E+00 -0.64448841484E+03  0.64448841484E+03  0.00000000000E+00 0.  1.
          6    1    1    2  501    0  0.65933046338E+02  0.85681176445E+02 -0.43355654749E+03  0.47915416149E+03  0.17300000000E+03 0.  1.
         -6    1    1    2    0  502 -0.65933046338E+02 -0.85681176445E+02 -0.13282987425E+03  0.24343624646E+03  0.17300000000E+03 0.  1.
<mgrwt>
<rscale>  2 0.20400351E+03</rscale>
<asrwt>0</asrwt>
<pdfrwt beam="1">  1       21 0.12015691E-01 0.20400351E+03</pdfrwt>
<pdfrwt beam="2">  1       21 0.99152064E-01 0.20400351E+03</pdfrwt>
<totfact> 0.48755831E+04</totfact>
</mgrwt>
</event>
<event>
 4    1  0.4374784E+000  0.1976516E+03  0.7546771E-02  0.1151736E+00
         21   -1    0    0  503  502  0.00000000000E+00  0.00000000000E+00  0.35607678274E+03  0.35607678274E+03  0.00000000000E+00 0. -1.
         21   -1    0    0  501  503 -0.00000000000E+00 -0.00000000000E+00 -0.21570879930E+03  0.21570879930E+03  0.00000000000E+00 0. -1.
          6    1    1    2  501    0 -0.84590055520E+02  0.44516075713E+02 -0.13022358617E+03  0.23669461524E+03  0.17300000000E+03 0. -1.
         -6    1    1    2    0  502  0.84590055520E+02 -0.44516075713E+02  0.27059156960E+03  0.33509096680E+03  0.17300000000E+03 0. -1.
<mgrwt>
<rscale>  2 0.19765161E+03</rscale>
<asrwt>0</asrwt>
<pdfrwt beam="1">  1       21 0.54781043E-01 0.19765161E+03</pdfrwt>
<pdfrwt beam="2">  1       21 0.33185969E-01 0.19765161E+03</pdfrwt>
<totfact> 0.27425576E+04</totfact>
</mgrwt>
</event>
<event>
 4    1  0.4374784E+000  0.1922600E+03  0.7546771E-02  0.1156439E+00
         21   -1    0    0  503  502  0.00000000000E+00  0.00000000000E+00  0.70892025287E+02  0.70892025287E+02  0.00000000000E+00 0. -1.
         21   -1    0    0  501  503 -0.00000000000E+00 -0.00000000000E+00 -0.52142867963E+03  0.52142867963E+03  0.00000000000E+00 0.  1.
          6    1    1    2  501    0 -0.56476549627E+02 -0.62010570724E+02 -0.22697225396E+03  0.29745640959E+03  0.17300000000E+03 0. -1.
         -6    1    1    2    0  502  0.56476549627E+02  0.62010570724E+02 -0.22356440039E+03  0.29486429533E+03  0.17300000000E+03 0.  1.
<mgrwt>
<rscale>  2 0.19226001E+03</rscale>
<asrwt>0</asrwt>
<pdfrwt beam="1">  1       21 0.10906465E-01 0.19226001E+03</pdfrwt>
<pdfrwt beam="2">  1       21 0.80219800E-01 0.19226001E+03</pdfrwt>
<totfact> 0.95127376E+04</totfact>
</mgrwt>
</event>
<event>
 4    1  0.4374784E+000  0.2211675E+03  0.7546771E-02  0.1133016E+00
         21   -1    0    0  501  502  0.00000000000E+00  0.00000000000E+00  0.19355151463E+03  0.19355151463E+03  0.00000000000E+00 0.  1.
         21   -1    0    0  502  503 -0.00000000000E+00 -0.00000000000E+00 -0.31708484869E+03  0.31708484869E+03  0.00000000000E+00 0.  1.
          6    1    1    2  501    0 -0.71318541492E+01 -0.13760530168E+03  0.53261821134E+02  0.22749044812E+03  0.17300000000E+03 0.  1.
         -6    1    1    2    0  503  0.71318541492E+01  0.13760530168E+03 -0.17679515520E+03  0.28314591520E+03  0.17300000000E+03 0.  1.
<mgrwt>
<rscale>  2 0.22116754E+03</rscale>
<asrwt>0</asrwt>
<pdfrwt beam="1">  1       21 0.29777156E-01 0.22116754E+03</pdfrwt>
<pdfrwt beam="2">  1       21 0.48782284E-01 0.22116754E+03</pdfrwt>
<totfact> 0.42764803E+04</totfact>
</mgrwt>
</event>
<event>
 4    1  0.4374784E+000  0.3230063E+03  0.7546771E-02  0.1074274E+00
         21   -1    0    0  503  502  0.00000000000E+00  0.00000000000E+00  0.39707743617E+03  0.39707743617E+03  0.00000000000E+00 0.  1.
         21   -1    0    0  501  503 -0.00000000000E+00 -0.00000000000E+00 -0.28467253741E+03  0.28467253741E+03  0.00000000000E+00 0.  1.
          6    1    1    2  501    0 -0.15637548982E+03  0.22349669822E+03 -0.38387179217E+02  0.32527933144E+03  0.17300000000E+03 0.  1.
         -6    1    1    2    0  502  0.15637548982E+03 -0.22349669822E+03  0.15079207798E+03  0.35647064215E+03  0.17300000000E+03 0.  1.
<mgrwt>
<rscale>  2 0.32300630E+03</rscale>
<asrwt>0</asrwt>
<pdfrwt beam="1">  1       21 0.61088836E-01 0.32300630E+03</pdfrwt>
<pdfrwt beam="2">  1       21 0.43795775E-01 0.32300630E+03</pdfrwt>
<totfact> 0.11663433E+04</totfact>
</mgrwt>
</event>
<event>
 4    1  0.4374784E+000  0.2234089E+03  0.7546771E-02  0.1131367E+00
         21   -1    0    0  501  502  0.00000000000E+00  0.00000000000E+00  0.20156993477E+03  0.20156993477E+03  0.00000000000E+00 0. -1.
         21   -1    0    0  502  503 -0.00000000000E+00 -0.00000000000E+00 -0.24909307669E+03  0.24909307669E+03  0.00000000000E+00 0. -1.
          6    1    1    2  501    0  0.12780766036E+03 -0.60396685501E+02 -0.63986819709E+01  0.22350056107E+03  0.17300000000E+03 0. -1.
         -6    1    1    2    0  503 -0.12780766036E+03  0.60396685501E+02 -0.41124459952E+02  0.22716245040E+03  0.17300000000E+03 0. -1.
<mgrwt>
<rscale>  2 0.22340895E+03</rscale>
<asrwt>0</asrwt>
<pdfrwt beam="1">  1       21 0.31010759E-01 0.22340895E+03</pdfrwt>
<pdfrwt beam="2">  1       21 0.38322012E-01 0.22340895E+03</pdfrwt>
<totfact> 0.64708556E+04</totfact>
</mgrwt>
</event>
<event>
 4    1  0.4374784E+000  0.2686592E+03  0.7546771E-02  0.1102049E+00
         21   -1    0    0  503  502  0.00000000000E+00  0.00000000000E+00  0.70708545905E+03  0.70708545905E+03  0.00000000000E+00 0.  1.
         21   -1    0    0  501  503 -0.00000000000E+00 -0.00000000000E+00 -0.13523689157E+03  0.13523689157E+03  0.00000000000E+00 0. -1.
          6    1    1    2  501    0 -0.16128751403E+03  0.12741713409E+03  0.77378461664E+02  0.27958042594E+03  0.17300000000E+03 0. -1.
         -6    1    1    2    0  502  0.16128751403E+03 -0.12741713409E+03  0.49447010582E+03  0.56274192468E+03  0.17300000000E+03 0.  1.
<mgrwt>
<rscale>  2 0.26865924E+03</rscale>
<asrwt>0</asrwt>
<pdfrwt beam="1">  1       21 0.10878238E+00 0.26865924E+03</pdfrwt>
<pdfrwt beam="2">  1       21 0.20805676E-01 0.26865924E+03</pdfrwt>
<totfact> 0.13756523E+04</totfact>
</mgrwt>
</event>
<event>
 4    1  0.4374784E+000  0.2184008E+03  0.7546771E-02  0.1135081E+00
         21   -1    0    0  501  502  0.00000000000E+00  0.00000000000E+00  0.13565537275E+03  0.13565537275E+03  0.00000000000E+00 0.  1.
         21   -1    0    0  502  503 -0.00000000000E+00 -0.00000000000E+00 -0.40367507867E+03  0.40367507867E+03  0.00000000000E+00 0. -1.
          6    1    1    2  501    0  0.44124321937E+02 -0.12578939616E+03 -0.37171561817E+02  0.22154153782E+03  0.17300000000E+03 0.  1.
         -6    1    1    2    0  503 -0.44124321937E+02  0.12578939616E+03 -0.23084814410E+03  0.31778891360E+03  0.17300000000E+03 0. -1.
<mgrwt>
<rscale>  2 0.21840084E+03</rscale>
<asrwt>0</asrwt>
<pdfrwt beam="1">  1       21 0.20870057E-01 0.21840084E+03</pdfrwt>
<pdfrwt beam="2">  1       21 0.62103859E-01 0.21840084E+03</pdfrwt>
<totfact> 0.50653392E+04</totfact>
</mgrwt>
</event>
<event>
 4    1  0.4374784E+000  0.1997901E+03  0.7546771E-02  0.1149916E+00
         21   -1    0    0  501  502  0.00000000000E+00  0.00000000000E+00  0.24991015011E+03  0.24991015011E+03  0.00000000000E+00 0.  1.
         21   -1    0    0  502  503 -0.00000000000E+00 -0.00000000000E+00 -0.16346656879E+03  0.16346656879E+03  0.00000000000E+00 0.  1.
          6    1    1    2  501    0 -0.69927159257E+02  0.71395260697E+02  0.11938246926E+02  0.20014647784E+03  0.17300000000E+03 0.  1.
         -6    1    1    2    0  503  0.69927159257E+02 -0.71395260697E+02  0.74505334397E+02  0.21323024107E+03  0.17300000000E+03 0.  1.
<mgrwt>
<rscale>  2 0.19979012E+03</rscale>
<asrwt>0</asrwt>
<pdfrwt beam="1">  1       21 0.38447715E-01 0.19979012E+03</pdfrwt>
<pdfrwt beam="2">  1       21 0.25148703E-01 0.19979012E+03</pdfrwt>
<totfact> 0.97413650E+04</totfact>
</mgrwt>
</event>
<event>
 4    1  0.4374784E+000  0.1948174E+03  0.7546771E-02  0.1154187E+00
         21   -1    0    0  501  502  0.00000000000E+00  0.00000000000E+00  0.35005619627E+03  0.35005619627E+03  0.00000000000E+00 0.  1.
         21   -1    0    0  502  503 -0.00000000000E+00 -0.00000000000E+00 -0.24272658589E+03  0.24272658589E+03  0.00000000000E+00 0.  1.
          6    1    1    2  501    0  0.67269714970E+02  0.59157470513E+02  0.27413617648E+03  0.33631007140E+03  0.17300000000E+03 0.  1.
         -6    1    1    2    0  503 -0.67269714970E+02 -0.59157470513E+02 -0.16680656610E+03  0.25647271076E+03  0.17300000000E+03 0.  1.
<mgrwt>
<rscale>  2 0.19481740E+03</rscale>
<asrwt>0</asrwt>
<pdfrwt beam="1">  1       21 0.53854799E-01 0.19481740E+03</pdfrwt>
<pdfrwt beam="2">  1       21 0.37342552E-01 0.19481740E+03</pdfrwt>
<totfact> 0.22525692E+04</totfact>
</mgrwt>
</event>
<event>
 4    1  0.4374784E+000  0.1926948E+03  0.7546771E-02  0.1156053E+00
         21   -1    0    0  503  502  0.00000000000E+00  0.00000000000E+00  0.94291142591E+03  0.94291142591E+03  0.00000000000E+00 0. -1.
         21   -1    0    0  501  503 -0.00000000000E+00 -0.00000000000E+00 -0.58072564256E+02  0.58072564256E+02  0.00000000000E+00 0. -1.
          6    1    1    2  501    0 -0.43691440599E+02 -0.72755429345E+02  0.15846219281E+03  0.24948258663E+03  0.17300000000E+03 0. -1.
         -6    1    1    2    0  502  0.43691440599E+02  0.72755429345E+02  0.72637666884E+03  0.75150140354E+03  0.17300000000E+03 0. -1.
<mgrwt>
<rscale>  2 0.19269482E+03</rscale>
<asrwt>0</asrwt>
<pdfrwt beam="1">  1       21 0.14506329E+00 0.19269482E+03</pdfrwt>
<pdfrwt beam="2">  1       21 0.89342413E-02 0.19269482E+03</pdfrwt>
<totfact> 0.32286697E+04</totfact>
</mgrwt>
</event>
<event>
 4    1  0.4374784E+000  0.2419484E+03  0.7546771E-02  0.1118502E+00
         21   -1    0    0  501  502  0.00000000000E+00  0.00000000000E+00  0.11232523996E+03  0.11232523996E+03  0.00000000000E+00 0.  1.
         21   -1    0    0  502  503 -0.00000000000E+00 -0.00000000000E+00 -0.67156047039E+03  0.67156047039E+03  0.00000000000E+00 0.  1.
          6    1    1    2  501    0  0.16543871904E+03  0.35214494375E+02 -0.94132176536E+02  0.25961490140E+03  0.17300000000E+03 0.  1.
         -6    1    1    2    0  503 -0.16543871904E+03 -0.35214494375E+02 -0.46510305389E+03  0.52427080894E+03  0.17300000000E+03 0.  1.
<mgrwt>
<rscale>  2 0.24194840E+03</rscale>
<asrwt>0</asrwt>
<pdfrwt beam="1">  1       21 0.17280807E-01 0.24194840E+03</pdfrwt>
<pdfrwt beam="2">  1       21 0.10331699E+00 0.24194840E+03</pdfrwt>
<totfact> 0.22358429E+04</totfact>
</mgrwt>
</event>
<event>
 4    1  0.4374784E+000  0.2301075E+03  0.7546771E-02  0.1126564E+00
         21   -1    0    0  503  502  0.00000000000E+00  0.00000000000E+00  0.16744004619E+03  0.16744004619E+03  0.00000000000E+00 0.  1.
         21   -1    0    0  501  503 -0.00000000000E+00 -0.00000000000E+00 -0.33894996491E+03  0.33894996491E+03  0.00000000000E+00 0.  1.
          6    1    1    2  501    0  0.12800952582E+02 -0.15118398004E+03 -0.20201261728E+02  0.23099253491E+03  0.17300000000E+03 0.  1.
         -6    1    1    2    0  502 -0.12800952582E+02  0.15118398004E+03 -0.15130865699E+03  0.27539747619E+03  0.17300000000E+03 0.  1.
<mgrwt>
<rscale>  2 0.23010750E+03</rscale>
<asrwt>0</asrwt>
<pdfrwt beam="1">  1       21 0.25760007E-01 0.23010750E+03</pdfrwt>
<pdfrwt beam="2">  1       21 0.52146148E-01 0.23010750E+03</pdfrwt>
<totfact> 0.49050932E+04</totfact>
</mgrwt>
</event>
<event>
 4    1  0.4374784E+000  0.1885665E+03  0.7546771E-02  0.1159761E+00
         21   -1    0    0  503  502  0.00000000000E+00  0.00000000000E+00  0.97207447192E+03  0.97207447192E+03  0.00000000000E+00 0.  1.
         21   -1    0    0  501  503 -0.00000000000E+00 -0.00000000000E+00 -0.45859617892E+02  0.45859617892E+02  0.00000000000E+00 0. -1.
          6    1    1    2  501    0  0.71370038087E+02 -0.23122672837E+02  0.69207133431E+03  0.71730054517E+03  0.17300000000E+03 0.  1.
         -6    1    1    2    0  502 -0.71370038087E+02  0.23122672837E+02  0.23414351972E+03  0.30063354464E+03  0.17300000000E+03 0. -1.
<mgrwt>
<rscale>  2 0.18856654E+03</rscale>
<asrwt>0</asrwt>
<pdfrwt beam="1">  1       21 0.14954990E+00 0.18856654E+03</pdfrwt>
<pdfrwt beam="2">  1       21 0.70553266E-02 0.18856654E+03</pdfrwt>
<totfact> 0.45061859E+04</totfact>
</mgrwt>
</event>
<event>
 4    1  0.4374784E+000  0.3034736E+03  0.7546771E-02  0.1083517E+00
         21   -1    0    0  501  502  0.00000000000E+00  0.00000000000E+00  0.10694634545E+04  0.10694634545E+04  0.00000000000E+00 0. -1.
         21   -1    0    0  502  503 -0.00000000000E+00 -0.00000000000E+00 -0.11117513604E+03  0.11117513604E+03  0.00000000000E+00 0.  1.
          6    1    1    2  501    0 -0.24922825768E+03 -0.72448129546E+01  0.75941633824E+03  0.81780767087E+03  0.17300000000E+03 0.  1.
         -6    1    1    2    0  503  0.24922825768E+03  0.72448129546E+01  0.19887198019E+03  0.36283091964E+03  0.17300000000E+03 0.  1.
<mgrwt>
<rscale>  2 0.30347358E+03</rscale>
<asrwt>0</asrwt>
<pdfrwt beam="1">  1       21 0.16453283E+00 0.30347358E+03</pdfrwt>
<pdfrwt beam="2">  1       21 0.17103868E-01 0.30347358E+03</pdfrwt>
<totfact> 0.66854834E+03</totfact>
</mgrwt>
</event>
<event>
 4    1  0.4374784E+000  0.2456082E+03  0.7546771E-02  0.1116112E+00
         21   -1    0    0  503  502  0.00000000000E+00  0.00000000000E+00  0.93785415031E+02  0.93785415031E+02  0.00000000000E+00 0. -1.
         21   -1    0    0  501  503 -0.00000000000E+00 -0.00000000000E+00 -0.69795337768E+03  0.69795337768E+03  0.00000000000E+00 0.  1.
          6    1    1    2  501    0  0.15468214311E+03 -0.80422752865E+02 -0.19121282723E+03  0.31126472635E+03  0.17300000000E+03 0. -1.
         -6    1    1    2    0  502 -0.15468214311E+03  0.80422752865E+02 -0.41295513542E+03  0.48047406636E+03  0.17300000000E+03 0.  1.
<mgrwt>
<rscale>  2 0.24560819E+03</rscale>
<asrwt>0</asrwt>
<pdfrwt beam="1">  1       21 0.14428525E-01 0.24560819E+03</pdfrwt>
<pdfrwt beam="2">  1       21 0.10737744E+00 0.24560819E+03</pdfrwt>
<totfact> 0.28326742E+04</totfact>
</mgrwt>
</event>
<event>
 4    1  0.4374784E+000  0.2115562E+03  0.7546771E-02  0.1140340E+00
         21   -1    0    0  503  502  0.00000000000E+00  0.00000000000E+00  0.47905302557E+03  0.47905302557E+03  0.00000000000E+00 0.  1.
         21   -1    0    0  501  503 -0.00000000000E+00 -0.00000000000E+00 -0.17367331750E+03  0.17367331750E+03  0.00000000000E+00 0. -1.
          6    1    1    2  501    0  0.13035795066E+02 -0.12106649020E+03 -0.69155199181E+02  0.22257238952E+03  0.17300000000E+03 0. -1.
         -6    1    1    2    0  502 -0.13035795066E+02  0.12106649020E+03  0.37453490726E+03  0.43015395355E+03  0.17300000000E+03 0.  1.
<mgrwt>
<rscale>  2 0.21155620E+03</rscale>
<asrwt>0</asrwt>
<pdfrwt beam="1">  1       21 0.73700465E-01 0.21155620E+03</pdfrwt>
<pdfrwt beam="2">  1       21 0.26718972E-01 0.21155620E+03</pdfrwt>
<totfact> 0.21800379E+04</totfact>
</mgrwt>
</event>
<event>
 4    1  0.4374784E+000  0.2659301E+03  0.7546771E-02  0.1103632E+00
         21   -1    0    0  503  502  0.00000000000E+00  0.00000000000E+00  0.15195988036E+03  0.15195988036E+03  0.00000000000E+00 0. -1.
         21   -1    0    0  501  503 -0.00000000000E+00 -0.00000000000E+00 -0.62749255365E+03  0.62749255365E+03  0.00000000000E+00 0.  1.
          6    1    1    2  501    0  0.59205722373E+02 -0.19309191358E+03 -0.43585798446E+03  0.51057907053E+03  0.17300000000E+03 0.  1.
         -6    1    1    2    0  502 -0.59205722373E+02  0.19309191358E+03 -0.39674688837E+02  0.26887336347E+03  0.17300000000E+03 0. -1.
<mgrwt>
<rscale>  2 0.26593007E+03</rscale>
<asrwt>0</asrwt>
<pdfrwt beam="1">  1       21 0.23378443E-01 0.26593007E+03</pdfrwt>
<pdfrwt beam="2">  1       21 0.96537316E-01 0.26593007E+03</pdfrwt>
<totfact> 0.14718695E+04</totfact>
</mgrwt>
</event>
<event>
 4    1  0.4374784E+000  0.1841319E+03  0.7546771E-02  0.1163863E+00
         21   -1    0    0  501  502  0.00000000000E+00  0.00000000000E+00  0.70922576243E+03  0.70922576243E+03  0.00000000000E+00 0. -1.
         21   -1    0    0  502  503 -0.00000000000E+00 -0.00000000000E+00 -0.69792078513E+02  0.69792078513E+02  0.00000000000E+00 0. -1.
          6    1    1    2  501    0  0.60547774930E+02 -0.17593145363E+02  0.53834087787E+03  0.56895997452E+03  0.17300000000E+03 0. -1.
         -6    1    1    2    0  503 -0.60547774930E+02  0.17593145363E+02  0.10109280604E+03  0.21005786642E+03  0.17300000000E+03 0. -1.
<mgrwt>
<rscale>  2 0.18413189E+03</rscale>
<asrwt>0</asrwt>
<pdfrwt beam="1">  1       21 0.10911165E+00 0.18413189E+03</pdfrwt>
<pdfrwt beam="2">  1       21 0.10737243E-01 0.18413189E+03</pdfrwt>
<totfact> 0.47857031E+04</totfact>
</mgrwt>
</event>
<event>
 4    1  0.4374784E+000  0.1842407E+03  0.7546771E-02  0.1163761E+00
         21   -1    0    0  503  502  0.00000000000E+00  0.00000000000E+00  0.32711511663E+02  0.32711511663E+02  0.00000000000E+00 0. -1.
         21   -1    0    0  501  503 -0.00000000000E+00 -0.00000000000E+00 -0.15026236794E+04  0.15026236794E+04  0.00000000000E+00 0. -1.
          6    1    1    2  501    0 -0.13428449086E+02  0.61929918336E+02 -0.11619683214E+04  0.11764841767E+04  0.17300000000E+03 0. -1.
         -6    1    1    2    0  502  0.13428449086E+02 -0.61929918336E+02 -0.30794384633E+03  0.35885101438E+03  0.17300000000E+03 0. -1.
<mgrwt>
<rscale>  2 0.18424071E+03</rscale>
<asrwt>0</asrwt>
<pdfrwt beam="1">  1       21 0.50325411E-02 0.18424071E+03</pdfrwt>
<pdfrwt beam="2">  1       21 0.23117284E+00 0.18424071E+03</pdfrwt>
<totfact> 0.23049988E+04</totfact>
</mgrwt>
</event>
<event>
 4    1  0.4374784E+000  0.1973289E+03  0.7546771E-02  0.1152012E+00
         21   -1    0    0  501  502  0.00000000000E+00  0.00000000000E+00  0.28116471700E+03  0.28116471700E+03  0.00000000000E+00 0. -1.
         21   -1    0    0  502  503 -0.00000000000E+00 -0.00000000000E+00 -0.18462389250E+03  0.18462389250E+03  0.00000000000E+00 0. -1.
          6    1    1    2  501    0  0.88783961551E+02 -0.33572457429E+02  0.16468880980E+03  0.25702355106E+03  0.17300000000E+03 0. -1.
         -6    1    1    2    0  503 -0.88783961551E+02  0.33572457429E+02 -0.68147985297E+02  0.20876505844E+03  0.17300000000E+03 0. -1.
<mgrwt>
<rscale>  2 0.19732892E+03</rscale>
<asrwt>0</asrwt>
<pdfrwt beam="1">  1       21 0.43256110E-01 0.19732892E+03</pdfrwt>
<pdfrwt beam="2">  1       21 0.28403676E-01 0.19732892E+03</pdfrwt>
<totfact> 0.60759552E+04</totfact>
</mgrwt>
</event>
<event>
 4    1  0.4374784E+000  0.1856837E+03  0.7546771E-02  0.1162413E+00
         21   -1    0    0  501  502  0.00000000000E+00  0.00000000000E+00  0.20050057778E+03  0.20050057778E+03  0.00000000000E+00 0. -1.
         21   -1    0    0  502  503 -0.00000000000E+00 -0.00000000000E+00 -0.26375607637E+03  0.26375607637E+03  0.00000000000E+00 0. -1.
          6    1    1    2  501    0 -0.35115697842E+02 -0.57587392747E+02  0.10531370778E+03  0.21346989737E+03  0.17300000000E+03 0. -1.
         -6    1    1    2    0  503  0.35115697842E+02  0.57587392747E+02 -0.16856920637E+03  0.25078675677E+03  0.17300000000E+03 0. -1.
<mgrwt>
<rscale>  2 0.18568366E+03</rscale>
<asrwt>0</asrwt>
<pdfrwt beam="1">  1       21 0.30846243E-01 0.18568366E+03</pdfrwt>
<pdfrwt beam="2">  1       21 0.40577858E-01 0.18568366E+03</pdfrwt>
<totfact> 0.59239952E+04</totfact>
</mgrwt>
</event>
<event>
 4    1  0.4374784E+000  0.1907214E+03  0.7546771E-02  0.1157812E+00
         21   -1    0    0  501  502  0.00000000000E+00  0.00000000000E+00  0.25938156062E+04  0.25938156062E+04  0.00000000000E+00 0.  1.
         21   -1    0    0  502  503 -0.00000000000E+00 -0.00000000000E+00 -0.15704262633E+02  0.15704262633E+02  0.00000000000E+00 0.  1.
          6    1    1    2  501    0  0.80277233903E+02 -0.11068709366E+01  0.17158914041E+04  0.17264582156E+04  0.17300000000E+03 0. -1.
         -6    1    1    2    0  503 -0.80277233903E+02  0.11068709366E+01  0.86221993945E+03  0.88306165324E+03  0.17300000000E+03 0. -1.
<mgrwt>
<rscale>  2 0.19072142E+03</rscale>
<asrwt>0</asrwt>
<pdfrwt beam="1">  1       21 0.39904822E+00 0.19072142E+03</pdfrwt>
<pdfrwt beam="2">  1       21 0.24160425E-02 0.19072142E+03</pdfrwt>
<totfact> 0.80027194E+03</totfact>
</mgrwt>
</event>
<event>
 4    1  0.4374784E+000  0.1865250E+03  0.7546771E-02  0.1161633E+00
         21   -1    0    0  503  502  0.00000000000E+00  0.00000000000E+00  0.35530184305E+03  0.35530184305E+03  0.00000000000E+00 0. -1.
         21   -1    0    0  501  503 -0.00000000000E+00 -0.00000000000E+00 -0.12621109310E+03  0.12621109310E+03  0.00000000000E+00 0.  1.
          6    1    1    2  501    0  0.49193014385E+02 -0.49422729279E+02  0.56098714765E+00  0.18652579859E+03  0.17300000000E+03 0.  1.
         -6    1    1    2    0  502 -0.49193014385E+02  0.49422729279E+02  0.22852976280E+03  0.29498713755E+03  0.17300000000E+03 0. -1.
<mgrwt>
<rscale>  2 0.18652495E+03</rscale>
<asrwt>0</asrwt>
<pdfrwt beam="1">  1       21 0.54661822E-01 0.18652495E+03</pdfrwt>
<pdfrwt beam="2">  1       21 0.19417091E-01 0.18652495E+03</pdfrwt>
<totfact> 0.77278445E+04</totfact>
</mgrwt>
</event>
<event>
 4    1  0.4374784E+000  0.1923509E+03  0.7546771E-02  0.1156358E+00
         21   -1    0    0  501  502  0.00000000000E+00  0.00000000000E+00  0.19055431028E+03  0.19055431028E+03  0.00000000000E+00 0. -1.
         21   -1    0    0  502  503 -0.00000000000E+00 -0.00000000000E+00 -0.21440205930E+03  0.21440205930E+03  0.00000000000E+00 0. -1.
          6    1    1    2  501    0  0.30604839007E+02  0.78314803455E+02  0.50283780461E+02  0.19881479620E+03  0.17300000000E+03 0. -1.
         -6    1    1    2    0  503 -0.30604839007E+02 -0.78314803455E+02 -0.74131529484E+02  0.20614157338E+03  0.17300000000E+03 0. -1.
<mgrwt>
<rscale>  2 0.19235089E+03</rscale>
<asrwt>0</asrwt>
<pdfrwt beam="1">  1       21 0.29316048E-01 0.19235089E+03</pdfrwt>
<pdfrwt beam="2">  1       21 0.32984932E-01 0.19235089E+03</pdfrwt>
<totfact> 0.98638237E+04</totfact>
</mgrwt>
</event>
<event>
 4    1  0.4374784E+000  0.2214098E+03  0.7546771E-02  0.1132836E+00
         21   -1    0    0  501  502  0.00000000000E+00  0.00000000000E+00  0.11248694976E+03  0.11248694976E+03  0.00000000000E+00 0. -1.
         21   -1    0    0  502  503 -0.00000000000E+00 -0.00000000000E+00 -0.44839844236E+03  0.44839844236E+03  0.00000000000E+00 0.  1.
          6    1    1    2  501    0  0.48193825707E+02 -0.12950155235E+03 -0.12095591396E+03  0.25229472848E+03  0.17300000000E+03 0. -1.
         -6    1    1    2    0  503 -0.48193825707E+02  0.12950155235E+03 -0.21495557864E+03  0.30859066364E+03  0.17300000000E+03 0.  1.
<mgrwt>
<rscale>  2 0.22140979E+03</rscale>
<asrwt>0</asrwt>
<pdfrwt beam="1">  1       21 0.17305685E-01 0.22140979E+03</pdfrwt>
<pdfrwt beam="2">  1       21 0.68984376E-01 0.22140979E+03</pdfrwt>
<totfact> 0.57003250E+04</totfact>
</mgrwt>
</event>
<event>
 4    1  0.4374784E+000  0.1955348E+03  0.7546771E-02  0.1153562E+00
         21   -1    0    0  501  502  0.00000000000E+00  0.00000000000E+00  0.50119295599E+02  0.50119295599E+02  0.00000000000E+00 0. -1.
         21   -1    0    0  502  503 -0.00000000000E+00 -0.00000000000E+00 -0.11342444705E+04  0.11342444705E+04  0.00000000000E+00 0. -1.
          6    1    1    2  501    0 -0.90677659902E+02  0.90791926252E+01 -0.20320654150E+03  0.28200490820E+03  0.17300000000E+03 0. -1.
         -6    1    1    2    0  503  0.90677659902E+02 -0.90791926252E+01 -0.88091863345E+03  0.90235885794E+03  0.17300000000E+03 0. -1.
<mgrwt>
<rscale>  2 0.19553483E+03</rscale>
<asrwt>0</asrwt>
<pdfrwt beam="1">  1       21 0.77106611E-02 0.19553483E+03</pdfrwt>
<pdfrwt beam="2">  1       21 0.17449914E+00 0.19553483E+03</pdfrwt>
<totfact> 0.25346855E+04</totfact>
</mgrwt>
</event>
<event>
 4    1  0.4374784E+000  0.1805571E+03  0.7546771E-02  0.1167265E+00
         21   -1    0    0  503  502  0.00000000000E+00  0.00000000000E+00  0.64127885826E+03  0.64127885826E+03  0.00000000000E+00 0.  1.
         21   -1    0    0  501  503 -0.00000000000E+00 -0.00000000000E+00 -0.54065329895E+02  0.54065329895E+02  0.00000000000E+00 0.  1.
          6    1    1    2  501    0  0.94846557018E+01 -0.50812498537E+02  0.20865332561E+03  0.27592948191E+03  0.17300000000E+03 0.  1.
         -6    1    1    2    0  502 -0.94846557018E+01  0.50812498537E+02  0.37856020276E+03  0.41941470624E+03  0.17300000000E+03 0.  1.
<mgrwt>
<rscale>  2 0.18055711E+03</rscale>
<asrwt>0</asrwt>
<pdfrwt beam="1">  1       21 0.98658281E-01 0.18055711E+03</pdfrwt>
<pdfrwt beam="2">  1       21 0.83177435E-02 0.18055711E+03</pdfrwt>
<totfact> 0.95518536E+04</totfact>
</mgrwt>
</event>
<event>
 4    1  0.4374784E+000  0.2185975E+03  0.7546771E-02  0.1134933E+00
         21   -1    0    0  501  502  0.00000000000E+00  0.00000000000E+00  0.25091238424E+03  0.25091238424E+03  0.00000000000E+00 0.  1.
         21   -1    0    0  502  503 -0.00000000000E+00 -0.00000000000E+00 -0.20441821211E+03  0.20441821211E+03  0.00000000000E+00 0. -1.
          6    1    1    2  501    0  0.61100842618E+02  0.11883830202E+03 -0.36277270632E+02  0.22158721840E+03  0.17300000000E+03 0. -1.
         -6    1    1    2    0  503 -0.61100842618E+02 -0.11883830202E+03  0.82771442769E+02  0.23374337795E+03  0.17300000000E+03 0.  1.
<mgrwt>
<rscale>  2 0.21859747E+03</rscale>
<asrwt>0</asrwt>
<pdfrwt beam="1">  1       21 0.38601905E-01 0.21859747E+03</pdfrwt>
<pdfrwt beam="2">  1       21 0.31448956E-01 0.21859747E+03</pdfrwt>
<totfact> 0.62157986E+04</totfact>
</mgrwt>
</event>
<event>
 4    1  0.4374784E+000  0.2012015E+03  0.7546771E-02  0.1148729E+00
         21   -1    0    0  503  502  0.00000000000E+00  0.00000000000E+00  0.11945752514E+03  0.11945752514E+03  0.00000000000E+00 0. -1.
         21   -1    0    0  501  503 -0.00000000000E+00 -0.00000000000E+00 -0.35355402591E+03  0.35355402591E+03  0.00000000000E+00 0. -1.
          6    1    1    2  501    0 -0.98422601754E+02  0.29428573469E+02 -0.16522676367E+03  0.26034963588E+03  0.17300000000E+03 0. -1.
         -6    1    1    2    0  502  0.98422601754E+02 -0.29428573469E+02 -0.68869737107E+02  0.21266191517E+03  0.17300000000E+03 0. -1.
<mgrwt>
<rscale>  2 0.20120151E+03</rscale>
<asrwt>0</asrwt>
<pdfrwt beam="1">  1       21 0.18378081E-01 0.20120151E+03</pdfrwt>
<pdfrwt beam="2">  1       21 0.54392926E-01 0.20120151E+03</pdfrwt>
<totfact> 0.85955949E+04</totfact>
</mgrwt>
</event>
<event>
 4    1  0.4374784E+000  0.2694290E+03  0.7546771E-02  0.1101607E+00
         21   -1    0    0  501  502  0.00000000000E+00  0.00000000000E+00  0.68485853103E+03  0.68485853103E+03  0.00000000000E+00 0. -1.
         21   -1    0    0  502  503 -0.00000000000E+00 -0.00000000000E+00 -0.21103156504E+03  0.21103156504E+03  0.00000000000E+00 0.  1.
          6    1    1    2  501    0 -0.59381043075E+01  0.20646488050E+03  0.55293743044E+03  0.61508683122E+03  0.17300000000E+03 0. -1.
         -6    1    1    2    0  503  0.59381043075E+01 -0.20646488050E+03 -0.79110464446E+02  0.28080326484E+03  0.17300000000E+03 0.  1.
<mgrwt>
<rscale>  2 0.26942904E+03</rscale>
<asrwt>0</asrwt>
<pdfrwt beam="1">  1       21 0.10536285E+00 0.26942904E+03</pdfrwt>
<pdfrwt beam="2">  1       21 0.32466395E-01 0.26942904E+03</pdfrwt>
<totfact> 0.62860444E+03</totfact>
</mgrwt>
</event>
<event>
 4    1  0.4374784E+000  0.2017672E+03  0.7546771E-02  0.1148257E+00
         21   -1    0    0  503  502  0.00000000000E+00  0.00000000000E+00  0.29840355857E+03  0.29840355857E+03  0.00000000000E+00 0. -1.
         21   -1    0    0  501  503 -0.00000000000E+00 -0.00000000000E+00 -0.16560679736E+03  0.16560679736E+03  0.00000000000E+00 0.  1.
          6    1    1    2  501    0  0.79585615589E+02 -0.66686696663E+02 -0.30990108620E+02  0.20413322256E+03  0.17300000000E+03 0.  1.
         -6    1    1    2    0  502 -0.79585615589E+02  0.66686696663E+02  0.16378686983E+03  0.25987713337E+03  0.17300000000E+03 0. -1.
<mgrwt>
<rscale>  2 0.20176716E+03</rscale>
<asrwt>0</asrwt>
<pdfrwt beam="1">  1       21 0.45908240E-01 0.20176716E+03</pdfrwt>
<pdfrwt beam="2">  1       21 0.25477969E-01 0.20176716E+03</pdfrwt>
<totfact> 0.66162407E+04</totfact>
</mgrwt>
</event>
<event>
 4    1  0.4374784E+000  0.2507135E+03  0.7546771E-02  0.1112855E+00
         21   -1    0    0  501  502  0.00000000000E+00  0.00000000000E+00  0.19526676618E+03  0.19526676618E+03  0.00000000000E+00 0. -1.
         21   -1    0    0  502  503 -0.00000000000E+00 -0.00000000000E+00 -0.39891443048E+03  0.39891443048E+03  0.00000000000E+00 0. -1.
          6    1    1    2  501    0  0.17663753499E+03 -0.41562648989E+02  0.28709698667E+02  0.25235197514E+03  0.17300000000E+03 0. -1.
         -6    1    1    2    0  503 -0.17663753499E+03  0.41562648989E+02 -0.23235736297E+03  0.34182922152E+03  0.17300000000E+03 0. -1.
<mgrwt>
<rscale>  2 0.25071353E+03</rscale>
<asrwt>0</asrwt>
<pdfrwt beam="1">  1       21 0.30041041E-01 0.25071353E+03</pdfrwt>
<pdfrwt beam="2">  1       21 0.61371450E-01 0.25071353E+03</pdfrwt>
<totfact> 0.25452531E+04</totfact>
</mgrwt>
</event>
<event>
 4    1  0.4374784E+000  0.1837114E+03  0.7546771E-02  0.1164259E+00
         21   -1    0    0  503  502  0.00000000000E+00  0.00000000000E+00  0.71847718117E+02  0.71847718117E+02  0.00000000000E+00 0.  1.
         21   -1    0    0  501  503 -0.00000000000E+00 -0.00000000000E+00 -0.50677672205E+03  0.50677672205E+03  0.00000000000E+00 0.  1.
          6    1    1    2  501    0 -0.61809640151E+02 -0.66597492624E+00 -0.29567485965E+03  0.34809983879E+03  0.17300000000E+03 0.  1.
         -6    1    1    2    0  502  0.61809640151E+02  0.66597492624E+00 -0.13925414428E+03  0.23052460137E+03  0.17300000000E+03 0.  1.
<mgrwt>
<rscale>  2 0.18371139E+03</rscale>
<asrwt>0</asrwt>
<pdfrwt beam="1">  1       21 0.11053495E-01 0.18371139E+03</pdfrwt>
<pdfrwt beam="2">  1       21 0.77965650E-01 0.18371139E+03</pdfrwt>
<totfact> 0.99383026E+04</totfact>
</mgrwt>
</event>
<event>
 4    1  0.4374784E+000  0.2675324E+03  0.7546771E-02  0.1102700E+00
         21   -1    0    0  503  502  0.00000000000E+00  0.00000000000E+00  0.84664257588E+03  0.84664257588E+03  0.00000000000E+00 0. -1.
         21   -1    0    0  501  503 -0.00000000000E+00 -0.00000000000E+00 -0.15798974828E+03  0.15798974828E+03  0.00000000000E+00 0.  1.
          6    1    1    2  501    0  0.25469010650E+02 -0.20247443392E+03  0.18241638164E+01  0.26753858501E+03  0.17300000000E+03 0.  1.
         -6    1    1    2    0  502 -0.25469010650E+02  0.20247443392E+03  0.68682866378E+03  0.73709373915E+03  0.17300000000E+03 0. -1.
<mgrwt>
<rscale>  2 0.26753237E+03</rscale>
<asrwt>0</asrwt>
<pdfrwt beam="1">  1       21 0.13025270E+00 0.26753237E+03</pdfrwt>
<pdfrwt beam="2">  1       21 0.24306116E-01 0.26753237E+03</pdfrwt>
<totfact> 0.65324551E+03</totfact>
</mgrwt>
</event>
<event>
 4    1  0.4374784E+000  0.4331671E+03  0.7546771E-02  0.1032864E+00
         21   -1    0    0  503  502  0.00000000000E+00  0.00000000000E+00  0.19268679222E+03  0.19268679222E+03  0.00000000000E+00 0. -1.
         21   -1    0    0  501  503 -0.00000000000E+00 -0.00000000000E+00 -0.10776239690E+04  0.10776239690E+04  0.00000000000E+00 0.  1.
          6    1    1    2  501    0  0.26582958911E+03 -0.29502439520E+03 -0.63964069107E+03  0.77251147427E+03  0.17300000000E+03 0.  1.
         -6    1    1    2    0  502 -0.26582958911E+03  0.29502439520E+03 -0.24529648574E+03  0.49779928699E+03  0.17300000000E+03 0. -1.
<mgrwt>
<rscale>  2 0.43316713E+03</rscale>
<asrwt>0</asrwt>
<pdfrwt beam="1">  1       21 0.29644122E-01 0.43316713E+03</pdfrwt>
<pdfrwt beam="2">  1       21 0.16578830E+00 0.43316713E+03</pdfrwt>
<totfact> 0.21441432E+03</totfact>
</mgrwt>
</event>
<event>
 4    1  0.4374784E+000  0.1735969E+03  0.7546771E-02  0.1174148E+00
         21   -1    0    0  501  502  0.00000000000E+00  0.00000000000E+00  0.48681782592E+03  0.48681782592E+03  0.00000000000E+00 0.  1.
         21   -1    0    0  502  503 -0.00000000000E+00 -0.00000000000E+00 -0.73907344486E+02  0.73907344486E+02  0.00000000000E+00 0.  1.
          6    1    1    2  501    0 -0.58194621439E+01  0.13153678609E+02  0.31944278289E+03  0.36356509313E+03  0.17300000000E+03 0.  1.
         -6    1    1    2    0  503  0.58194621439E+01 -0.13153678609E+02  0.93467698539E+02  0.19716007727E+03  0.17300000000E+03 0.  1.
<mgrwt>
<rscale>  2 0.17359690E+03</rscale>
<asrwt>0</asrwt>
<pdfrwt beam="1">  1       21 0.74895048E-01 0.17359690E+03</pdfrwt>
<pdfrwt beam="2">  1       21 0.11370361E-01 0.17359690E+03</pdfrwt>
<totfact> 0.10381740E+05</totfact>
</mgrwt>
</event>
<event>
 4    1  0.4374784E+000  0.2202503E+03  0.7546771E-02  0.1133697E+00
         21   -1    0    0  503  502  0.00000000000E+00  0.00000000000E+00  0.78918951892E+03  0.78918951892E+03  0.00000000000E+00 0. -1.
         21   -1    0    0  501  503 -0.00000000000E+00 -0.00000000000E+00 -0.12288281538E+03  0.12288281538E+03  0.00000000000E+00 0.  1.
          6    1    1    2  501    0 -0.11104585585E+03 -0.79057090706E+02  0.10757888202E+02  0.22051289724E+03  0.17300000000E+03 0.  1.
         -6    1    1    2    0  502  0.11104585585E+03  0.79057090706E+02  0.65554881534E+03  0.69155943706E+03  0.17300000000E+03 0. -1.
<mgrwt>
<rscale>  2 0.22025033E+03</rscale>
<asrwt>0</asrwt>
<pdfrwt beam="1">  1       21 0.12141377E+00 0.22025033E+03</pdfrwt>
<pdfrwt beam="2">  1       21 0.18905049E-01 0.22025033E+03</pdfrwt>
<totfact> 0.12909423E+04</totfact>
</mgrwt>
</event>
<event>
 4    1  0.4374784E+000  0.2563502E+03  0.7546771E-02  0.1109356E+00
         21   -1    0    0  503  502  0.00000000000E+00  0.00000000000E+00  0.11369194291E+04  0.11369194291E+04  0.00000000000E+00 0.  1.
         21   -1    0    0  501  503 -0.00000000000E+00 -0.00000000000E+00 -0.62392097698E+02  0.62392097698E+02  0.00000000000E+00 0.  1.
          6    1    1    2  501    0 -0.38717350260E+02  0.18516860029E+03  0.37460382236E+03  0.45392011133E+03  0.17300000000E+03 0.  1.
         -6    1    1    2    0  502  0.38717350260E+02 -0.18516860029E+03  0.69992350905E+03  0.74539141547E+03  0.17300000000E+03 0.  1.
<mgrwt>
<rscale>  2 0.25635024E+03</rscale>
<asrwt>0</asrwt>
<pdfrwt beam="1">  1       21 0.17491067E+00 0.25635024E+03</pdfrwt>
<pdfrwt beam="2">  1       21 0.95987851E-02 0.25635024E+03</pdfrwt>
<totfact> 0.16497007E+04</totfact>
</mgrwt>
</event>
<event>
 4    1  0.4374784E+000  0.1832945E+03  0.7546771E-02  0.1164652E+00
         21   -1    0    0  503  502  0.00000000000E+00  0.00000000000E+00  0.61202275262E+03  0.61202275262E+03  0.00000000000E+00 0. -1.
         21   -1    0    0  501  503 -0.00000000000E+00 -0.00000000000E+00 -0.55461295815E+02  0.55461295815E+02  0.00000000000E+00 0. -1.
          6    1    1    2  501    0  0.52237398004E+02  0.30645063272E+02  0.24455084532E+03  0.30561737778E+03  0.17300000000E+03 0. -1.
         -6    1    1    2    0  502 -0.52237398004E+02 -0.30645063272E+02  0.31201061148E+03  0.36186667065E+03  0.17300000000E+03 0. -1.
<mgrwt>
<rscale>  2 0.18329448E+03</rscale>
<asrwt>0</asrwt>
<pdfrwt beam="1">  1       21 0.94157342E-01 0.18329448E+03</pdfrwt>
<pdfrwt beam="2">  1       21 0.85325075E-02 0.18329448E+03</pdfrwt>
<totfact> 0.10181967E+05</totfact>
</mgrwt>
</event>
<event>
 4    1  0.4374784E+000  0.3083314E+03  0.7546771E-02  0.1081148E+00
         21   -1    0    0  501  502  0.00000000000E+00  0.00000000000E+00  0.87362006529E+03  0.87362006529E+03  0.00000000000E+00 0.  1.
         21   -1    0    0  502  503 -0.00000000000E+00 -0.00000000000E+00 -0.15389036768E+03  0.15389036768E+03  0.00000000000E+00 0. -1.
          6    1    1    2  501    0  0.12554767574E+03  0.22220940985E+03  0.63789448040E+03  0.70850378180E+03  0.17300000000E+03 0.  1.
         -6    1    1    2    0  503 -0.12554767574E+03 -0.22220940985E+03  0.81835217212E+02  0.31900665116E+03  0.17300000000E+03 0. -1.
<mgrwt>
<rscale>  2 0.30833138E+03</rscale>
<asrwt>0</asrwt>
<pdfrwt beam="1">  1       21 0.13440308E+00 0.30833138E+03</pdfrwt>
<pdfrwt beam="2">  1       21 0.23675442E-01 0.30833138E+03</pdfrwt>
<totfact> 0.62009345E+03</totfact>
</mgrwt>
</event>
<event>
 4    1  0.4374784E+000  0.1807036E+03  0.7546771E-02  0.1167124E+00
         21   -1    0    0  503  502  0.00000000000E+00  0.00000000000E+00  0.96009456949E+02  0.96009456949E+02  0.00000000000E+00 0. -1.
         21   -1    0    0  501  503 -0.00000000000E+00 -0.00000000000E+00 -0.39664096974E+03  0.39664096974E+03  0.00000000000E+00 0. -1.
          6    1    1    2  501    0 -0.21942317948E+02  0.47363830292E+02 -0.57322287952E+02  0.18957753673E+03  0.17300000000E+03 0. -1.
         -6    1    1    2    0  502  0.21942317948E+02 -0.47363830292E+02 -0.24330922484E+03  0.30307288996E+03  0.17300000000E+03 0. -1.
<mgrwt>
<rscale>  2 0.18070362E+03</rscale>
<asrwt>0</asrwt>
<pdfrwt beam="1">  1       21 0.14770686E-01 0.18070362E+03</pdfrwt>
<pdfrwt beam="2">  1       21 0.61021688E-01 0.18070362E+03</pdfrwt>
<totfact> 0.10127131E+05</totfact>
</mgrwt>
</event>
<event>
 4    1  0.4374784E+000  0.3203190E+03  0.7546771E-02  0.1075503E+00
         21   -1    0    0  501  502  0.00000000000E+00  0.00000000000E+00  0.91609226011E+03  0.91609226011E+03  0.00000000000E+00 0.  1.
         21   -1    0    0  502  503 -0.00000000000E+00 -0.00000000000E+00 -0.11492596968E+03  0.11492596968E+03  0.00000000000E+00 0. -1.
          6    1    1    2  501    0  0.18344457111E+02 -0.26895867146E+03  0.48280814935E+03  0.57940313698E+03  0.17300000000E+03 0.  1.
         -6    1    1    2    0  503 -0.18344457111E+02  0.26895867146E+03  0.31835814107E+03  0.45161509280E+03  0.17300000000E+03 0. -1.
<mgrwt>
<rscale>  2 0.32031904E+03</rscale>
<asrwt>0</asrwt>
<pdfrwt beam="1">  1       21 0.14093727E+00 0.32031904E+03</pdfrwt>
<pdfrwt beam="2">  1       21 0.17680919E-01 0.32031904E+03</pdfrwt>
<totfact> 0.94653768E+03</totfact>
</mgrwt>
</event>
<event>
 4    1  0.4374784E+000  0.2047621E+03  0.7546771E-02  0.1145782E+00
         21   -1    0    0  501  502  0.00000000000E+00  0.00000000000E+00  0.22950784037E+03  0.22950784037E+03  0.00000000000E+00 0. -1.
         21   -1    0    0  502  503 -0.00000000000E+00 -0.00000000000E+00 -0.26928759813E+03  0.26928759813E+03  0.00000000000E+00 0.  1.
          6    1    1    2  501    0 -0.91724302544E+01 -0.10915295897E+03  0.12154328876E+03  0.23811819118E+03  0.17300000000E+03 0. -1.
         -6    1    1    2    0  503  0.91724302544E+01  0.10915295897E+03 -0.16132304652E+03  0.26067724731E+03  0.17300000000E+03 0.  1.
<mgrwt>
<rscale>  2 0.20476206E+03</rscale>
<asrwt>0</asrwt>
<pdfrwt beam="1">  1       21 0.35308899E-01 0.20476206E+03</pdfrwt>
<pdfrwt beam="2">  1       21 0.41428861E-01 0.20476206E+03</pdfrwt>
<totfact> 0.43120598E+04</totfact>
</mgrwt>
</event>
<event>
 4    1  0.4374784E+000  0.5843430E+03  0.7546771E-02  0.9938433E-01
         21   -1    0    0  501  502  0.00000000000E+00  0.00000000000E+00  0.95539970935E+03  0.95539970935E+03  0.00000000000E+00 0. -1.
         21   -1    0    0  502  503 -0.00000000000E+00 -0.00000000000E+00 -0.37880131420E+03  0.37880131420E+03  0.00000000000E+00 0.  1.
          6    1    1    2  501    0  0.30982270809E+03 -0.46426026904E+03  0.12972256574E+03  0.59856883641E+03  0.17300000000E+03 0.  1.
         -6    1    1    2    0  503 -0.30982270809E+03  0.46426026904E+03  0.44687582941E+03  0.73563218715E+03  0.17300000000E+03 0.  1.
<mgrwt>
<rscale>  2 0.58434297E+03</rscale>
<asrwt>0</asrwt>
<pdfrwt beam="1">  1       21 0.14698457E+00 0.58434297E+03</pdfrwt>
<pdfrwt beam="2">  1       21 0.58277126E-01 0.58434297E+03</pdfrwt>
<totfact> 0.69344706E+02</totfact>
</mgrwt>
</event>
<event>
 4    1  0.4374784E+000  0.2693104E+03  0.7546771E-02  0.1101675E+00
         21   -1    0    0  503  502  0.00000000000E+00  0.00000000000E+00  0.16932489124E+03  0.16932489124E+03  0.00000000000E+00 0.  1.
         21   -1    0    0  501  503 -0.00000000000E+00 -0.00000000000E+00 -0.43132139002E+03  0.43132139002E+03  0.00000000000E+00 0. -1.
          6    1    1    2  501    0  0.26657419979E+02  0.20466680193E+03 -0.15597956275E+03  0.31121976455E+03  0.17300000000E+03 0.  1.
         -6    1    1    2    0  502 -0.26657419979E+02 -0.20466680193E+03 -0.10601693604E+03  0.28942651672E+03  0.17300000000E+03 0. -1.
<mgrwt>
<rscale>  2 0.26931045E+03</rscale>
<asrwt>0</asrwt>
<pdfrwt beam="1">  1       21 0.26049983E-01 0.26931045E+03</pdfrwt>
<pdfrwt beam="2">  1       21 0.66357137E-01 0.26931045E+03</pdfrwt>
<totfact> 0.28091492E+04</totfact>
</mgrwt>
</event>
<event>
 4    1  0.4374784E+000  0.2123458E+03  0.7546771E-02  0.1139722E+00
         21   -1    0    0  501  502  0.00000000000E+00  0.00000000000E+00  0.49176566915E+03  0.49176566915E+03  0.00000000000E+00 0.  1.
         21   -1    0    0  502  503 -0.00000000000E+00 -0.00000000000E+00 -0.14794526068E+03  0.14794526068E+03  0.00000000000E+00 0.  1.
          6    1    1    2  501    0 -0.12296888042E+03 -0.63541723870E+01  0.36914299139E+03  0.42586062175E+03  0.17300000000E+03 0.  1.
         -6    1    1    2    0  503  0.12296888042E+03  0.63541723870E+01 -0.25322582928E+02  0.21385030808E+03  0.17300000000E+03 0.  1.
<mgrwt>
<rscale>  2 0.21234576E+03</rscale>
<asrwt>0</asrwt>
<pdfrwt beam="1">  1       21 0.75656256E-01 0.21234576E+03</pdfrwt>
<pdfrwt beam="2">  1       21 0.22760810E-01 0.21234576E+03</pdfrwt>
<totfact> 0.27918724E+04</totfact>
</mgrwt>
</event>
<event>
 4    1  0.4374784E+000  0.2213022E+03  0.7546771E-02  0.1132916E+00
         21   -1    0    0  503  502  0.00000000000E+00  0.00000000000E+00  0.11543844659E+03  0.11543844659E+03  0.00000000000E+00 0.  1.
         21   -1    0    0  501  503 -0.00000000000E+00 -0.00000000000E+00 -0.51199025137E+03  0.51199025137E+03  0.00000000000E+00 0.  1.
          6    1    1    2  501    0  0.70284673215E+01  0.13782687871E+03 -0.32814487348E+03  0.39579503008E+03  0.17300000000E+03 0.  1.
         -6    1    1    2    0  502 -0.70284673215E+01 -0.13782687871E+03 -0.68406931307E+02  0.23163366788E+03  0.17300000000E+03 0.  1.
<mgrwt>
<rscale>  2 0.22130216E+03</rscale>
<asrwt>0</asrwt>
<pdfrwt beam="1">  1       21 0.17759761E-01 0.22130216E+03</pdfrwt>
<pdfrwt beam="2">  1       21 0.78767732E-01 0.22130216E+03</pdfrwt>
<totfact> 0.40404271E+04</totfact>
</mgrwt>
</event>
<event>
 4    1  0.4374784E+000  0.1874194E+03  0.7546771E-02  0.1160810E+00
         21   -1    0    0  501  502  0.00000000000E+00  0.00000000000E+00  0.92480734355E+02  0.92480734355E+02  0.00000000000E+00 0. -1.
         21   -1    0    0  502  503 -0.00000000000E+00 -0.00000000000E+00 -0.52405075864E+03  0.52405075864E+03  0.00000000000E+00 0. -1.
          6    1    1    2  501    0 -0.34087494217E+01 -0.72009687249E+02 -0.54063487066E+02  0.19506120902E+03  0.17300000000E+03 0. -1.
         -6    1    1    2    0  503  0.34087494217E+01  0.72009687249E+02 -0.37750653721E+03  0.42147028397E+03  0.17300000000E+03 0. -1.
<mgrwt>
<rscale>  2 0.18741936E+03</rscale>
<asrwt>0</asrwt>
<pdfrwt beam="1">  1       21 0.14227805E-01 0.18741936E+03</pdfrwt>
<pdfrwt beam="2">  1       21 0.80623193E-01 0.18741936E+03</pdfrwt>
<totfact> 0.58499091E+04</totfact>
</mgrwt>
</event>
<event>
 4    1  0.4374784E+000  0.1958775E+03  0.7546771E-02  0.1153265E+00
         21   -1    0    0  503  502  0.00000000000E+00  0.00000000000E+00  0.60521987332E+03  0.60521987332E+03  0.00000000000E+00 0.  1.
         21   -1    0    0  501  503 -0.00000000000E+00 -0.00000000000E+00 -0.16009201296E+03  0.16009201296E+03  0.00000000000E+00 0.  1.
          6    1    1    2  501    0 -0.36864996953E+01  0.91790022612E+02 -0.74828455876E+02  0.20968380085E+03  0.17300000000E+03 0.  1.
         -6    1    1    2    0  502  0.36864996953E+01 -0.91790022612E+02  0.51995631623E+03  0.55562808543E+03  0.17300000000E+03 0.  1.
<mgrwt>
<rscale>  2 0.19587751E+03</rscale>
<asrwt>0</asrwt>
<pdfrwt beam="1">  1       21 0.93110749E-01 0.19587751E+03</pdfrwt>
<pdfrwt beam="2">  1       21 0.24629541E-01 0.19587751E+03</pdfrwt>
<totfact> 0.15098677E+04</totfact>
</mgrwt>
</event>
<event>
 4    1  0.4374784E+000  0.2297635E+03  0.7546771E-02  0.1126806E+00
         21   -1    0    0  503  502  0.00000000000E+00  0.00000000000E+00  0.16969958033E+03  0.16969958033E+03  0.00000000000E+00 0.  1.
         21   -1    0    0  501  503 -0.00000000000E+00 -0.00000000000E+00 -0.78282705389E+03  0.78282705389E+03  0.00000000000E+00 0.  1.
          6    1    1    2  501    0 -0.14162954755E+03  0.52946432439E+02 -0.67627766520E+03  0.71424276958E+03  0.17300000000E+03 0.  1.
         -6    1    1    2    0  502  0.14162954755E+03 -0.52946432439E+02  0.63150191643E+02  0.23828386465E+03  0.17300000000E+03 0.  1.
<mgrwt>
<rscale>  2 0.22976347E+03</rscale>
<asrwt>0</asrwt>
<pdfrwt beam="1">  1       21 0.26107628E-01 0.22976347E+03</pdfrwt>
<pdfrwt beam="2">  1       21 0.12043493E+00 0.22976347E+03</pdfrwt>
<totfact> 0.71032591E+03</totfact>
</mgrwt>
</event>
<event>
 4    1  0.4374784E+000  0.4777130E+03  0.7546771E-02  0.1019766E+00
         21   -1    0    0  503  502  0.00000000000E+00  0.00000000000E+00  0.79606908827E+03  0.79606908827E+03  0.00000000000E+00 0.  1.
         21   -1    0    0  501  503 -0.00000000000E+00 -0.00000000000E+00 -0.29736214184E+03  0.29736214184E+03  0.00000000000E+00 0. -1.
          6    1    1    2  501    0 -0.16714824565E+03 -0.41272533190E+03  0.35301925589E+03  0.59399691131E+03  0.17300000000E+03 0.  1.
         -6    1    1    2    0  502  0.16714824565E+03  0.41272533190E+03  0.14568769053E+03  0.49943431879E+03  0.17300000000E+03 0. -1.
<mgrwt>
<rscale>  2 0.47771303E+03</rscale>
<asrwt>0</asrwt>
<pdfrwt beam="1">  1       21 0.12247217E+00 0.47771303E+03</pdfrwt>
<pdfrwt beam="2">  1       21 0.45748022E-01 0.47771303E+03</pdfrwt>
<totfact> 0.19573353E+03</totfact>
</mgrwt>
</event>
<event>
 4    1  0.4374784E+000  0.1833807E+03  0.7546771E-02  0.1164571E+00
         21   -1    0    0  501  502  0.00000000000E+00  0.00000000000E+00  0.56387680594E+03  0.56387680594E+03  0.00000000000E+00 0. -1.
         21   -1    0    0  502  503 -0.00000000000E+00 -0.00000000000E+00 -0.59638425274E+02  0.59638425274E+02  0.00000000000E+00 0. -1.
          6    1    1    2  501    0  0.24771574523E+02  0.55550269515E+02  0.25298839278E+03  0.31246054188E+03  0.17300000000E+03 0.  1.
         -6    1    1    2    0  503 -0.24771574523E+02 -0.55550269515E+02  0.25124998789E+03  0.31105468934E+03  0.17300000000E+03 0.  1.
<mgrwt>
<rscale>  2 0.18338065E+03</rscale>
<asrwt>0</asrwt>
<pdfrwt beam="1">  1       21 0.86750274E-01 0.18338065E+03</pdfrwt>
<pdfrwt beam="2">  1       21 0.91751427E-02 0.18338065E+03</pdfrwt>
<totfact> 0.10837775E+05</totfact>
</mgrwt>
</event>
<event>
 4    1  0.4374784E+000  0.2146786E+03  0.7546771E-02  0.1137914E+00
         21   -1    0    0  503  502  0.00000000000E+00  0.00000000000E+00  0.38052495759E+03  0.38052495759E+03  0.00000000000E+00 0. -1.
         21   -1    0    0  501  503 -0.00000000000E+00 -0.00000000000E+00 -0.13415030273E+03  0.13415030273E+03  0.00000000000E+00 0. -1.
          6    1    1    2  501    0 -0.31216702524E+02 -0.12322103819E+03  0.42967009594E+02  0.21893622515E+03  0.17300000000E+03 0. -1.
         -6    1    1    2    0  502  0.31216702524E+02  0.12322103819E+03  0.20340764527E+03  0.29573903517E+03  0.17300000000E+03 0. -1.
<mgrwt>
<rscale>  2 0.21467861E+03</rscale>
<asrwt>0</asrwt>
<pdfrwt beam="1">  1       21 0.58542301E-01 0.21467861E+03</pdfrwt>
<pdfrwt beam="2">  1       21 0.20638508E-01 0.21467861E+03</pdfrwt>
<totfact> 0.58847376E+04</totfact>
</mgrwt>
</event>
<event>
 4    1  0.4374784E+000  0.2182645E+03  0.7546771E-02  0.1135184E+00
         21   -1    0    0  503  502  0.00000000000E+00  0.00000000000E+00  0.14726504403E+03  0.14726504403E+03  0.00000000000E+00 0. -1.
         21   -1    0    0  501  503 -0.00000000000E+00 -0.00000000000E+00 -0.32586110969E+03  0.32586110969E+03  0.00000000000E+00 0.  1.
          6    1    1    2  501    0 -0.88695025647E+02 -0.99214754523E+02 -0.69136231316E+02  0.22895238276E+03  0.17300000000E+03 0. -1.
         -6    1    1    2    0  502  0.88695025647E+02  0.99214754523E+02 -0.10945983435E+03  0.24417377096E+03  0.17300000000E+03 0. -1.
<mgrwt>
<rscale>  2 0.21826446E+03</rscale>
<asrwt>0</asrwt>
<pdfrwt beam="1">  1       21 0.22656161E-01 0.21826446E+03</pdfrwt>
<pdfrwt beam="2">  1       21 0.50132478E-01 0.21826446E+03</pdfrwt>
<totfact> 0.68425911E+04</totfact>
</mgrwt>
</event>
<event>
 4    1  0.4374784E+000  0.2648673E+03  0.7546771E-02  0.1104254E+00
         21   -1    0    0  503  502  0.00000000000E+00  0.00000000000E+00  0.38538990900E+02  0.38538990900E+02  0.00000000000E+00 0.  1.
         21   -1    0    0  501  503 -0.00000000000E+00 -0.00000000000E+00 -0.20608797724E+04  0.20608797724E+04  0.00000000000E+00 0. -1.
          6    1    1    2  501    0  0.17157121551E+03 -0.10387004911E+03 -0.13697801356E+04  0.13951531418E+04  0.17300000000E+03 0. -1.
         -6    1    1    2    0  502 -0.17157121551E+03  0.10387004911E+03 -0.65256064582E+03  0.70426562146E+03  0.17300000000E+03 0.  1.
<mgrwt>
<rscale>  2 0.26486727E+03</rscale>
<asrwt>0</asrwt>
<pdfrwt beam="1">  1       21 0.59290757E-02 0.26486727E+03</pdfrwt>
<pdfrwt beam="2">  1       21 0.31705842E+00 0.26486727E+03</pdfrwt>
<totfact> 0.50882088E+03</totfact>
</mgrwt>
</event>
<event>
 4    1  0.4374784E+000  0.1886590E+03  0.7546771E-02  0.1159676E+00
         21   -1    0    0  501  502  0.00000000000E+00  0.00000000000E+00  0.27309591151E+02  0.27309591151E+02  0.00000000000E+00 0.  1.
         21   -1    0    0  502  503 -0.00000000000E+00 -0.00000000000E+00 -0.13400598502E+04  0.13400598502E+04  0.00000000000E+00 0.  1.
          6    1    1    2  501    0  0.71968775817E+01  0.74909500330E+02 -0.54311973399E+03  0.57495327961E+03  0.17300000000E+03 0.  1.
         -6    1    1    2    0  503 -0.71968775817E+01 -0.74909500330E+02 -0.76963052511E+03  0.79241616179E+03  0.17300000000E+03 0.  1.
<mgrwt>
<rscale>  2 0.18865903E+03</rscale>
<asrwt>0</asrwt>
<pdfrwt beam="1">  1       21 0.42014763E-02 0.18865903E+03</pdfrwt>
<pdfrwt beam="2">  1       21 0.20616302E+00 0.18865903E+03</pdfrwt>
<totfact> 0.44383085E+04</totfact>
</mgrwt>
</event>
<event>
 4    1  0.4374784E+000  0.2307554E+03  0.7546771E-02  0.1126109E+00
         21   -1    0    0  501  502  0.00000000000E+00  0.00000000000E+00  0.38472017389E+03  0.38472017389E+03  0.00000000000E+00 0.  1.
         21   -1    0    0  502  503 -0.00000000000E+00 -0.00000000000E+00 -0.31496382467E+03  0.31496382467E+03  0.00000000000E+00 0.  1.
          6    1    1    2  501    0  0.21215596209E+01  0.15269099476E+03  0.29680719638E+03  0.37595551960E+03  0.17300000000E+03 0.  1.
         -6    1    1    2    0  503 -0.21215596209E+01 -0.15269099476E+03 -0.22705084716E+03  0.32372847896E+03  0.17300000000E+03 0.  1.
<mgrwt>
<rscale>  2 0.23075537E+03</rscale>
<asrwt>0</asrwt>
<pdfrwt beam="1">  1       21 0.59187719E-01 0.23075537E+03</pdfrwt>
<pdfrwt beam="2">  1       21 0.48455973E-01 0.23075537E+03</pdfrwt>
<totfact> 0.10588725E+04</totfact>
</mgrwt>
</event>
<event>
 4    1  0.4374784E+000  0.1736415E+03  0.7546771E-02  0.1174103E+00
         21   -1    0    0  501  502  0.00000000000E+00  0.00000000000E+00  0.52034834535E+03  0.52034834535E+03  0.00000000000E+00 0. -1.
         21   -1    0    0  502  503 -0.00000000000E+00 -0.00000000000E+00 -0.12723264957E+03  0.12723264957E+03  0.00000000000E+00 0. -1.
          6    1    1    2  501    0  0.10923396819E+02  0.10152033745E+02  0.43550064066E+03  0.46884132966E+03  0.17300000000E+03 0. -1.
         -6    1    1    2    0  503 -0.10923396819E+02 -0.10152033745E+02 -0.42384944878E+02  0.17873966527E+03  0.17300000000E+03 0. -1.
<mgrwt>
<rscale>  2 0.17364154E+03</rscale>
<asrwt>0</asrwt>
<pdfrwt beam="1">  1       21 0.80053591E-01 0.17364154E+03</pdfrwt>
<pdfrwt beam="2">  1       21 0.19574254E-01 0.17364154E+03</pdfrwt>
<totfact> 0.33341768E+04</totfact>
</mgrwt>
</event>
<event>
 4    1  0.4374784E+000  0.1966360E+03  0.7546771E-02  0.1152609E+00
         21   -1    0    0  501  502  0.00000000000E+00  0.00000000000E+00  0.68325716595E+02  0.68325716595E+02  0.00000000000E+00 0. -1.
         21   -1    0    0  502  503 -0.00000000000E+00 -0.00000000000E+00 -0.62377732507E+03  0.62377732507E+03  0.00000000000E+00 0. -1.
          6    1    1    2  501    0  0.79853865095E+02 -0.48580602923E+02 -0.17231875218E+03  0.26145643442E+03  0.17300000000E+03 0. -1.
         -6    1    1    2    0  503 -0.79853865095E+02  0.48580602923E+02 -0.38313285630E+03  0.43064660724E+03  0.17300000000E+03 0. -1.
<mgrwt>
<rscale>  2 0.19663600E+03</rscale>
<asrwt>0</asrwt>
<pdfrwt beam="1">  1       21 0.10511649E-01 0.19663600E+03</pdfrwt>
<pdfrwt beam="2">  1       21 0.95965738E-01 0.19663600E+03</pdfrwt>
<totfact> 0.67077644E+04</totfact>
</mgrwt>
</event>
<event>
 4    1  0.4374784E+000  0.1805146E+03  0.7546771E-02  0.1167306E+00
         21   -1    0    0  501  502  0.00000000000E+00  0.00000000000E+00  0.23701042670E+02  0.23701042670E+02  0.00000000000E+00 0. -1.
         21   -1    0    0  502  503 -0.00000000000E+00 -0.00000000000E+00 -0.13820349336E+04  0.13820349336E+04  0.00000000000E+00 0. -1.
          6    1    1    2  501    0  0.49996974232E+02  0.12523213823E+02 -0.62851052141E+03  0.65391972278E+03  0.17300000000E+03 0. -1.
         -6    1    1    2    0  503 -0.49996974232E+02 -0.12523213823E+02 -0.72982336954E+03  0.75181625351E+03  0.17300000000E+03 0. -1.
<mgrwt>
<rscale>  2 0.18051462E+03</rscale>
<asrwt>0</asrwt>
<pdfrwt beam="1">  1       21 0.36463140E-02 0.18051462E+03</pdfrwt>
<pdfrwt beam="2">  1       21 0.21262078E+00 0.18051462E+03</pdfrwt>
<totfact> 0.51549065E+04</totfact>
</mgrwt>
</event>
<event>
 4    1  0.4374784E+000  0.2893832E+03  0.7546771E-02  0.1090672E+00
         21   -1    0    0  501  502  0.00000000000E+00  0.00000000000E+00  0.26518096511E+03  0.26518096511E+03  0.00000000000E+00 0.  1.
         21   -1    0    0  502  503 -0.00000000000E+00 -0.00000000000E+00 -0.34209568345E+03  0.34209568345E+03  0.00000000000E+00 0. -1.
          6    1    1    2  501    0  0.18722057964E+03  0.13697473037E+03  0.45734975719E+02  0.29297493102E+03  0.17300000000E+03 0. -1.
         -6    1    1    2    0  503 -0.18722057964E+03 -0.13697473037E+03 -0.12264969406E+03  0.31430171755E+03  0.17300000000E+03 0.  1.
<mgrwt>
<rscale>  2 0.28938318E+03</rscale>
<asrwt>0</asrwt>
<pdfrwt beam="1">  1       21 0.40797072E-01 0.28938318E+03</pdfrwt>
<pdfrwt beam="2">  1       21 0.52630105E-01 0.28938318E+03</pdfrwt>
<totfact> 0.18858293E+04</totfact>
</mgrwt>
</event>
<event>
 4    1  0.4374784E+000  0.2066276E+03  0.7546771E-02  0.1144265E+00
         21   -1    0    0  501  502  0.00000000000E+00  0.00000000000E+00  0.12010817159E+03  0.12010817159E+03  0.00000000000E+00 0.  1.
         21   -1    0    0  502  503 -0.00000000000E+00 -0.00000000000E+00 -0.96606461923E+03  0.96606461923E+03  0.00000000000E+00 0. -1.
          6    1    1    2  501    0  0.10529291959E+03 -0.40979883320E+02  0.87814046999E+01  0.20681407791E+03  0.17300000000E+03 0.  1.
         -6    1    1    2    0  503 -0.10529291959E+03  0.40979883320E+02 -0.85473785233E+03  0.87935871291E+03  0.17300000000E+03 0. -1.
<mgrwt>
<rscale>  2 0.20662756E+03</rscale>
<asrwt>0</asrwt>
<pdfrwt beam="1">  1       21 0.18478180E-01 0.20662756E+03</pdfrwt>
<pdfrwt beam="2">  1       21 0.14862532E+00 0.20662756E+03</pdfrwt>
<totfact> 0.81021120E+03</totfact>
</mgrwt>
</event>
<event>
 4    1  0.4374784E+000  0.2032482E+03  0.7546771E-02  0.1147027E+00
         21   -1    0    0  503  502  0.00000000000E+00  0.00000000000E+00  0.46851456688E+03  0.46851456688E+03  0.00000000000E+00 0.  1.
         21   -1    0    0  501  503 -0.00000000000E+00 -0.00000000000E+00 -0.90615799710E+02  0.90615799710E+02  0.00000000000E+00 0.  1.
          6    1    1    2  501    0  0.64131690984E+02 -0.85252340907E+02  0.14303806154E+03  0.24853515339E+03  0.17300000000E+03 0.  1.
         -6    1    1    2    0  502 -0.64131690984E+02  0.85252340907E+02  0.23486070563E+03  0.31059521321E+03  0.17300000000E+03 0.  1.
<mgrwt>
<rscale>  2 0.20324821E+03</rscale>
<asrwt>0</asrwt>
<pdfrwt beam="1">  1       21 0.72079163E-01 0.20324821E+03</pdfrwt>
<pdfrwt beam="2">  1       21 0.13940893E-01 0.20324821E+03</pdfrwt>
<totfact> 0.77454426E+04</totfact>
</mgrwt>
</event>
<event>
 4    1  0.4374784E+000  0.1754296E+03  0.7546771E-02  0.1172301E+00
         21   -1    0    0  503  502  0.00000000000E+00  0.00000000000E+00  0.16098175982E+03  0.16098175982E+03  0.00000000000E+00 0. -1.
         21   -1    0    0  501  503 -0.00000000000E+00 -0.00000000000E+00 -0.19128748539E+03  0.19128748539E+03  0.00000000000E+00 0. -1.
          6    1    1    2  501    0  0.27409287871E+02  0.97616450978E+01 -0.10866461514E+02  0.17576586347E+03  0.17300000000E+03 0.  1.
         -6    1    1    2    0  502 -0.27409287871E+02 -0.97616450978E+01 -0.19439264054E+02  0.17650338173E+03  0.17300000000E+03 0.  1.
<mgrwt>
<rscale>  2 0.17542964E+03</rscale>
<asrwt>0</asrwt>
<pdfrwt beam="1">  1       21 0.24766425E-01 0.17542964E+03</pdfrwt>
<pdfrwt beam="2">  1       21 0.29428844E-01 0.17542964E+03</pdfrwt>
<totfact> 0.17148860E+05</totfact>
</mgrwt>
</event>
<event>
 4    1  0.4374784E+000  0.1787727E+03  0.7546771E-02  0.1168996E+00
         21   -1    0    0  501  502  0.00000000000E+00  0.00000000000E+00  0.66694786935E+02  0.66694786935E+02  0.00000000000E+00 0. -1.
         21   -1    0    0  502  503 -0.00000000000E+00 -0.00000000000E+00 -0.10878776757E+04  0.10878776757E+04  0.00000000000E+00 0. -1.
          6    1    1    2  501    0 -0.39483557318E+02 -0.21719642835E+02 -0.78776917407E+02  0.19535991631E+03  0.17300000000E+03 0. -1.
         -6    1    1    2    0  503  0.39483557318E+02  0.21719642835E+02 -0.94240597135E+03  0.95921254633E+03  0.17300000000E+03 0. -1.
<mgrwt>
<rscale>  2 0.17877274E+03</rscale>
<asrwt>0</asrwt>
<pdfrwt beam="1">  1       21 0.10260738E-01 0.17877274E+03</pdfrwt>
<pdfrwt beam="2">  1       21 0.16736578E+00 0.17877274E+03</pdfrwt>
<totfact> 0.17443869E+04</totfact>
</mgrwt>
</event>
<event>
 4    1  0.4374784E+000  0.3306768E+03  0.7546771E-02  0.1070838E+00
         21   -1    0    0  501  502  0.00000000000E+00  0.00000000000E+00  0.33465365828E+03  0.33465365828E+03  0.00000000000E+00 0. -1.
         21   -1    0    0  502  503 -0.00000000000E+00 -0.00000000000E+00 -0.35113431951E+03  0.35113431951E+03  0.00000000000E+00 0.  1.
          6    1    1    2  501    0 -0.60397512162E+02  0.27526399199E+03  0.82125458540E+02  0.34072234400E+03  0.17300000000E+03 0. -1.
         -6    1    1    2    0  503  0.60397512162E+02 -0.27526399199E+03 -0.98606119776E+02  0.34506563379E+03  0.17300000000E+03 0.  1.
<mgrwt>
<rscale>  2 0.33067677E+03</rscale>
<asrwt>0</asrwt>
<pdfrwt beam="1">  1       21 0.51485178E-01 0.33067677E+03</pdfrwt>
<pdfrwt beam="2">  1       21 0.54020665E-01 0.33067677E+03</pdfrwt>
<totfact> 0.10802544E+04</totfact>
</mgrwt>
</event>
<event>
 4    1  0.4374784E+000  0.2035952E+03  0.7546771E-02  0.1146741E+00
         21   -1    0    0  503  502  0.00000000000E+00  0.00000000000E+00  0.97847959393E+02  0.97847959393E+02  0.00000000000E+00 0. -1.
         21   -1    0    0  501  503 -0.00000000000E+00 -0.00000000000E+00 -0.45563265243E+03  0.45563265243E+03  0.00000000000E+00 0.  1.
          6    1    1    2  501    0 -0.10558581331E+03  0.19330321694E+02 -0.10554588212E+03  0.22932718666E+03  0.17300000000E+03 0. -1.
         -6    1    1    2    0  502  0.10558581331E+03 -0.19330321694E+02 -0.25223881091E+03  0.32415342516E+03  0.17300000000E+03 0. -1.
<mgrwt>
<rscale>  2 0.20359525E+03</rscale>
<asrwt>0</asrwt>
<pdfrwt beam="1">  1       21 0.15053532E-01 0.20359525E+03</pdfrwt>
<pdfrwt beam="2">  1       21 0.70097330E-01 0.20359525E+03</pdfrwt>
<totfact> 0.71640097E+04</totfact>
</mgrwt>
</event>
<event>
 4    1  0.4374784E+000  0.1805768E+03  0.7546771E-02  0.1167246E+00
         21   -1    0    0  503  502  0.00000000000E+00  0.00000000000E+00  0.74491135872E+02  0.74491135872E+02  0.00000000000E+00 0.  1.
         21   -1    0    0  501  503 -0.00000000000E+00 -0.00000000000E+00 -0.81143569109E+03  0.81143569109E+03  0.00000000000E+00 0.  1.
          6    1    1    2  501    0 -0.69142357928E+01 -0.51294812752E+02 -0.66907864445E+03  0.69301817937E+03  0.17300000000E+03 0.  1.
         -6    1    1    2    0  502  0.69142357928E+01  0.51294812752E+02 -0.67865910763E+02  0.19290864759E+03  0.17300000000E+03 0.  1.
<mgrwt>
<rscale>  2 0.18057676E+03</rscale>
<asrwt>0</asrwt>
<pdfrwt beam="1">  1       21 0.11460174E-01 0.18057676E+03</pdfrwt>
<pdfrwt beam="2">  1       21 0.12483626E+00 0.18057676E+03</pdfrwt>
<totfact> 0.30708271E+04</totfact>
</mgrwt>
</event>
<event>
 4    1  0.4374784E+000  0.2336525E+03  0.7546771E-02  0.1124095E+00
         21   -1    0    0  503  502  0.00000000000E+00  0.00000000000E+00  0.38355065667E+03  0.38355065667E+03  0.00000000000E+00 0. -1.
         21   -1    0    0  501  503 -0.00000000000E+00 -0.00000000000E+00 -0.16167269235E+03  0.16167269235E+03  0.00000000000E+00 0. -1.
          6    1    1    2  501    0 -0.66594932977E+02 -0.14223074458E+03  0.16662060464E+02  0.23424579839E+03  0.17300000000E+03 0. -1.
         -6    1    1    2    0  502  0.66594932977E+02  0.14223074458E+03  0.20521590386E+03  0.31097755063E+03  0.17300000000E+03 0. -1.
<mgrwt>
<rscale>  2 0.23365246E+03</rscale>
<asrwt>0</asrwt>
<pdfrwt beam="1">  1       21 0.59007793E-01 0.23365246E+03</pdfrwt>
<pdfrwt beam="2">  1       21 0.24872722E-01 0.23365246E+03</pdfrwt>
<totfact> 0.40262369E+04</totfact>
</mgrwt>
</event>
<event>
 4    1  0.4374784E+000  0.1776016E+03  0.7546771E-02  0.1170145E+00
         21   -1    0    0  503  502  0.00000000000E+00  0.00000000000E+00  0.63384442755E+03  0.63384442755E+03  0.00000000000E+00 0.  1.
         21   -1    0    0  501  503 -0.00000000000E+00 -0.00000000000E+00 -0.50224259022E+02  0.50224259022E+02  0.00000000000E+00 0.  1.
          6    1    1    2  501    0  0.37583149908E+02  0.14172254024E+02  0.32456892144E+03  0.36998287893E+03  0.17300000000E+03 0.  1.
         -6    1    1    2    0  502 -0.37583149908E+02 -0.14172254024E+02  0.25905124709E+03  0.31408580764E+03  0.17300000000E+03 0.  1.
<mgrwt>
<rscale>  2 0.17760165E+03</rscale>
<asrwt>0</asrwt>
<pdfrwt beam="1">  1       21 0.97514522E-01 0.17760165E+03</pdfrwt>
<pdfrwt beam="2">  1       21 0.77268095E-02 0.17760165E+03</pdfrwt>
<totfact> 0.11172707E+05</totfact>
</mgrwt>
</event>
<event>
 4    1  0.4374784E+000  0.1852822E+03  0.7546771E-02  0.1162787E+00
         21   -1    0    0  503  502  0.00000000000E+00  0.00000000000E+00  0.34430788497E+03  0.34430788497E+03  0.00000000000E+00 0.  1.
         21   -1    0    0  501  503 -0.00000000000E+00 -0.00000000000E+00 -0.11225269459E+03  0.11225269459E+03  0.00000000000E+00 0.  1.
          6    1    1    2  501    0  0.45118644702E+02 -0.48629340924E+02  0.39707736045E+02  0.18948933796E+03  0.17300000000E+03 0.  1.
         -6    1    1    2    0  502 -0.45118644702E+02  0.48629340924E+02  0.19234745434E+03  0.26707124160E+03  0.17300000000E+03 0.  1.
<mgrwt>
<rscale>  2 0.18528223E+03</rscale>
<asrwt>0</asrwt>
<pdfrwt beam="1">  1       21 0.52970444E-01 0.18528223E+03</pdfrwt>
<pdfrwt beam="2">  1       21 0.17269645E-01 0.18528223E+03</pdfrwt>
<totfact> 0.10261622E+05</totfact>
</mgrwt>
</event>
<event>
 4    1  0.4374784E+000  0.1845994E+03  0.7546771E-02  0.1163424E+00
         21   -1    0    0  503  502  0.00000000000E+00  0.00000000000E+00  0.12839015129E+04  0.12839015129E+04  0.00000000000E+00 0. -1.
         21   -1    0    0  501  503 -0.00000000000E+00 -0.00000000000E+00 -0.29848390565E+02  0.29848390565E+02  0.00000000000E+00 0. -1.
          6    1    1    2  501    0  0.58685306600E+02  0.26532715231E+02  0.40839244793E+03  0.44817557019E+03  0.17300000000E+03 0. -1.
         -6    1    1    2    0  502 -0.58685306600E+02 -0.26532715231E+02  0.84566067437E+03  0.86557433324E+03  0.17300000000E+03 0. -1.
<mgrwt>
<rscale>  2 0.18459943E+03</rscale>
<asrwt>0</asrwt>
<pdfrwt beam="1">  1       21 0.19752327E+00 0.18459943E+03</pdfrwt>
<pdfrwt beam="2">  1       21 0.45920611E-02 0.18459943E+03</pdfrwt>
<totfact> 0.43503650E+04</totfact>
</mgrwt>
</event>
<event>
 4    1  0.4374784E+000  0.1860165E+03  0.7546771E-02  0.1162104E+00
         21   -1    0    0  501  502  0.00000000000E+00  0.00000000000E+00  0.50348610260E+02  0.50348610260E+02  0.00000000000E+00 0.  1.
         21   -1    0    0  502  503 -0.00000000000E+00 -0.00000000000E+00 -0.71358359066E+03  0.71358359066E+03  0.00000000000E+00 0.  1.
          6    1    1    2  501    0 -0.60612665359E+02 -0.31610966876E+02 -0.25824274270E+03  0.31826319703E+03  0.17300000000E+03 0.  1.
         -6    1    1    2    0  503  0.60612665359E+02  0.31610966876E+02 -0.40499223770E+03  0.44566900389E+03  0.17300000000E+03 0.  1.
<mgrwt>
<rscale>  2 0.18601653E+03</rscale>
<asrwt>0</asrwt>
<pdfrwt beam="1">  1       21 0.77459399E-02 0.18601653E+03</pdfrwt>
<pdfrwt beam="2">  1       21 0.10978209E+00 0.18601653E+03</pdfrwt>
<totfact> 0.83541598E+04</totfact>
</mgrwt>
</event>
<event>
 4    1  0.4374784E+000  0.2682165E+03  0.7546771E-02  0.1102305E+00
         21   -1    0    0  501  502  0.00000000000E+00  0.00000000000E+00  0.27373810654E+03  0.27373810654E+03  0.00000000000E+00 0.  1.
         21   -1    0    0  502  503 -0.00000000000E+00 -0.00000000000E+00 -0.26282458980E+03  0.26282458980E+03  0.00000000000E+00 0. -1.
          6    1    1    2  501    0  0.92201454035E+02  0.18305733716E+03  0.32182714619E+01  0.26823581805E+03  0.17300000000E+03 0. -1.
         -6    1    1    2    0  503 -0.92201454035E+02 -0.18305733716E+03  0.76952452776E+01  0.26832687830E+03  0.17300000000E+03 0.  1.
<mgrwt>
<rscale>  2 0.26821651E+03</rscale>
<asrwt>0</asrwt>
<pdfrwt beam="1">  1       21 0.42113555E-01 0.26821651E+03</pdfrwt>
<pdfrwt beam="2">  1       21 0.40434552E-01 0.26821651E+03</pdfrwt>
<totfact> 0.30844312E+04</totfact>
</mgrwt>
</event>
<event>
 4    1  0.4374784E+000  0.2498569E+03  0.7546771E-02  0.1113395E+00
         21   -1    0    0  501  502  0.00000000000E+00  0.00000000000E+00  0.75718405459E+03  0.75718405459E+03  0.00000000000E+00 0.  1.
         21   -1    0    0  502  503 -0.00000000000E+00 -0.00000000000E+00 -0.98247096470E+02  0.98247096470E+02  0.00000000000E+00 0.  1.
          6    1    1    2  501    0  0.13987464422E+03 -0.11373028479E+03  0.50098581006E+03  0.55983504326E+03  0.17300000000E+03 0.  1.
         -6    1    1    2    0  503 -0.13987464422E+03  0.11373028479E+03  0.15795114806E+03  0.29559610780E+03  0.17300000000E+03 0.  1.
<mgrwt>
<rscale>  2 0.24985695E+03</rscale>
<asrwt>0</asrwt>
<pdfrwt beam="1">  1       21 0.11648985E+00 0.24985695E+03</pdfrwt>
<pdfrwt beam="2">  1       21 0.15114938E-01 0.24985695E+03</pdfrwt>
<totfact> 0.21274028E+04</totfact>
</mgrwt>
</event>
<event>
 4    1  0.4374784E+000  0.2201198E+03  0.7546771E-02  0.1133794E+00
         21   -1    0    0  501  502  0.00000000000E+00  0.00000000000E+00  0.51555978221E+03  0.51555978221E+03  0.00000000000E+00 0.  1.
         21   -1    0    0  502  503 -0.00000000000E+00 -0.00000000000E+00 -0.94770019954E+02  0.94770019954E+02  0.00000000000E+00 0. -1.
          6    1    1    2  501    0 -0.12851911787E+03 -0.44794790435E+02  0.23824259299E+03  0.32436440930E+03  0.17300000000E+03 0.  1.
         -6    1    1    2    0  503  0.12851911787E+03  0.44794790435E+02  0.18254716926E+03  0.28596539286E+03  0.17300000000E+03 0.  1.
<mgrwt>
<rscale>  2 0.22011982E+03</rscale>
<asrwt>0</asrwt>
<pdfrwt beam="1">  1       21 0.79316888E-01 0.22011982E+03</pdfrwt>
<pdfrwt beam="2">  1       21 0.14580003E-01 0.22011982E+03</pdfrwt>
<totfact> 0.57181477E+04</totfact>
</mgrwt>
</event>
<event>
 4    1  0.4374784E+000  0.2166438E+03  0.7546771E-02  0.1136410E+00
         21   -1    0    0  503  502  0.00000000000E+00  0.00000000000E+00  0.10410065887E+03  0.10410065887E+03  0.00000000000E+00 0.  1.
         21   -1    0    0  501  503 -0.00000000000E+00 -0.00000000000E+00 -0.48098161235E+03  0.48098161235E+03  0.00000000000E+00 0. -1.
          6    1    1    2  501    0  0.54481076310E+02  0.11847936382E+03 -0.26165224681E+03  0.33970052339E+03  0.17300000000E+03 0. -1.
         -6    1    1    2    0  502 -0.54481076310E+02 -0.11847936382E+03 -0.11522870667E+03  0.24538174783E+03  0.17300000000E+03 0.  1.
<mgrwt>
<rscale>  2 0.21664383E+03</rscale>
<asrwt>0</asrwt>
<pdfrwt beam="1">  1       21 0.16015486E-01 0.21664383E+03</pdfrwt>
<pdfrwt beam="2">  1       21 0.73997171E-01 0.21664383E+03</pdfrwt>
<totfact> 0.56383988E+04</totfact>
</mgrwt>
</event>
<event>
 4    1  0.4374784E+000  0.1921817E+03  0.7546771E-02  0.1156508E+00
         21   -1    0    0  503  502  0.00000000000E+00  0.00000000000E+00  0.41663590559E+03  0.41663590559E+03  0.00000000000E+00 0.  1.
         21   -1    0    0  501  503 -0.00000000000E+00 -0.00000000000E+00 -0.88716961157E+02  0.88716961157E+02  0.00000000000E+00 0.  1.
          6    1    1    2  501    0  0.83688522320E+02  0.10232516457E+01  0.17101937023E+03  0.25725753790E+03  0.17300000000E+03 0.  1.
         -6    1    1    2    0  502 -0.83688522320E+02 -0.10232516457E+01  0.15689957421E+03  0.24809532886E+03  0.17300000000E+03 0.  1.
<mgrwt>
<rscale>  2 0.19218173E+03</rscale>
<asrwt>0</asrwt>
<pdfrwt beam="1">  1       21 0.64097831E-01 0.19218173E+03</pdfrwt>
<pdfrwt beam="2">  1       21 0.13648763E-01 0.19218173E+03</pdfrwt>
<totfact> 0.10462243E+05</totfact>
</mgrwt>
</event>
<event>
 4    1  0.4374784E+000  0.2205411E+03  0.7546771E-02  0.1133480E+00
         21   -1    0    0  503  502  0.00000000000E+00  0.00000000000E+00  0.60996255258E+02  0.60996255258E+02  0.00000000000E+00 0.  1.
         21   -1    0    0  501  503 -0.00000000000E+00 -0.00000000000E+00 -0.82623245105E+03  0.82623245105E+03  0.00000000000E+00 0.  1.
          6    1    1    2  501    0  0.13542087979E+03  0.19249656852E+02 -0.46548887605E+03  0.51509053349E+03  0.17300000000E+03 0.  1.
         -6    1    1    2    0  502 -0.13542087979E+03 -0.19249656852E+02 -0.29974731975E+03  0.37213817282E+03  0.17300000000E+03 0.  1.
<mgrwt>
<rscale>  2 0.22054107E+03</rscale>
<asrwt>0</asrwt>
<pdfrwt beam="1">  1       21 0.93840397E-02 0.22054107E+03</pdfrwt>
<pdfrwt beam="2">  1       21 0.12711268E+00 0.22054107E+03</pdfrwt>
<totfact> 0.40890623E+04</totfact>
</mgrwt>
</event>
<event>
 4    1  0.4374784E+000  0.1920365E+03  0.7546771E-02  0.1156637E+00
         21   -1    0    0  503  502  0.00000000000E+00  0.00000000000E+00  0.84661170120E+02  0.84661170120E+02  0.00000000000E+00 0. -1.
         21   -1    0    0  501  503 -0.00000000000E+00 -0.00000000000E+00 -0.43795846246E+03  0.43795846246E+03  0.00000000000E+00 0. -1.
          6    1    1    2  501    0 -0.76490861744E+02  0.33138493435E+02 -0.15745392353E+03  0.24833394797E+03  0.17300000000E+03 0.  1.
         -6    1    1    2    0  502  0.76490861744E+02 -0.33138493435E+02 -0.19584336881E+03  0.27428568461E+03  0.17300000000E+03 0.  1.
<mgrwt>
<rscale>  2 0.19203649E+03</rscale>
<asrwt>0</asrwt>
<pdfrwt beam="1">  1       21 0.13024795E-01 0.19203649E+03</pdfrwt>
<pdfrwt beam="2">  1       21 0.67378226E-01 0.19203649E+03</pdfrwt>
<totfact> 0.10210494E+05</totfact>
</mgrwt>
</event>
<event>
 4    1  0.4374784E+000  0.2572483E+03  0.7546771E-02  0.1108808E+00
         21   -1    0    0  501  502  0.00000000000E+00  0.00000000000E+00  0.34126414961E+03  0.34126414961E+03  0.00000000000E+00 0. -1.
         21   -1    0    0  502  503 -0.00000000000E+00 -0.00000000000E+00 -0.20175772651E+03  0.20175772651E+03  0.00000000000E+00 0.  1.
          6    1    1    2  501    0 -0.18895877673E+03  0.23286735205E+02  0.16226697673E+02  0.25775957220E+03  0.17300000000E+03 0. -1.
         -6    1    1    2    0  503  0.18895877673E+03 -0.23286735205E+02  0.12327972543E+03  0.28526230393E+03  0.17300000000E+03 0. -1.
<mgrwt>
<rscale>  2 0.25724831E+03</rscale>
<asrwt>0</asrwt>
<pdfrwt beam="1">  1       21 0.52502177E-01 0.25724831E+03</pdfrwt>
<pdfrwt beam="2">  1       21 0.31039650E-01 0.25724831E+03</pdfrwt>
<totfact> 0.33248764E+04</totfact>
</mgrwt>
</event>
<event>
 4    1  0.4374784E+000  0.1970973E+03  0.7546771E-02  0.1152211E+00
         21   -1    0    0  503  502  0.00000000000E+00  0.00000000000E+00  0.66218275204E+03  0.66218275204E+03  0.00000000000E+00 0.  1.
         21   -1    0    0  501  503 -0.00000000000E+00 -0.00000000000E+00 -0.12176877285E+03  0.12176877285E+03  0.00000000000E+00 0.  1.
          6    1    1    2  501    0  0.48266842098E+02 -0.81170502460E+02 -0.11966948054E+02  0.19746023995E+03  0.17300000000E+03 0.  1.
         -6    1    1    2    0  502 -0.48266842098E+02  0.81170502460E+02  0.55238092725E+03  0.58649128493E+03  0.17300000000E+03 0.  1.
<mgrwt>
<rscale>  2 0.19709728E+03</rscale>
<asrwt>0</asrwt>
<pdfrwt beam="1">  1       21 0.10187427E+00 0.19709728E+03</pdfrwt>
<pdfrwt beam="2">  1       21 0.18733658E-01 0.19709728E+03</pdfrwt>
<totfact> 0.20422656E+04</totfact>
</mgrwt>
</event>
<event>
 4    1  0.4374784E+000  0.2152873E+03  0.7546771E-02  0.1137446E+00
         21   -1    0    0  503  502  0.00000000000E+00  0.00000000000E+00  0.28172645561E+03  0.28172645561E+03  0.00000000000E+00 0.  1.
         21   -1    0    0  501  503 -0.00000000000E+00 -0.00000000000E+00 -0.73430229218E+03  0.73430229218E+03  0.00000000000E+00 0.  1.
          6    1    1    2  501    0 -0.10363336814E+03  0.75364087538E+02 -0.67378932688E+03  0.70734763568E+03  0.17300000000E+03 0.  1.
         -6    1    1    2    0  502  0.10363336814E+03 -0.75364087538E+02  0.22121349031E+03  0.30868111212E+03  0.17300000000E+03 0.  1.
<mgrwt>
<rscale>  2 0.21528730E+03</rscale>
<asrwt>0</asrwt>
<pdfrwt beam="1">  1       21 0.43342532E-01 0.21528730E+03</pdfrwt>
<pdfrwt beam="2">  1       21 0.11296958E+00 0.21528730E+03</pdfrwt>
<totfact> 0.30740783E+03</totfact>
</mgrwt>
</event>
<event>
 4    1  0.4374784E+000  0.1915139E+03  0.7546771E-02  0.1157103E+00
         21   -1    0    0  503  502  0.00000000000E+00  0.00000000000E+00  0.28349449890E+03  0.28349449890E+03  0.00000000000E+00 0.  1.
         21   -1    0    0  501  503 -0.00000000000E+00 -0.00000000000E+00 -0.14973522496E+03  0.14973522496E+03  0.00000000000E+00 0. -1.
          6    1    1    2  501    0  0.67924304728E+02 -0.46204588459E+02 -0.12993308411E+02  0.19195416440E+03  0.17300000000E+03 0. -1.
         -6    1    1    2    0  502 -0.67924304728E+02  0.46204588459E+02  0.14675258235E+03  0.24127555946E+03  0.17300000000E+03 0.  1.
<mgrwt>
<rscale>  2 0.19151390E+03</rscale>
<asrwt>0</asrwt>
<pdfrwt beam="1">  1       21 0.43614538E-01 0.19151390E+03</pdfrwt>
<pdfrwt beam="2">  1       21 0.23036188E-01 0.19151390E+03</pdfrwt>
<totfact> 0.89447016E+04</totfact>
</mgrwt>
</event>
<event>
 4    1  0.4374784E+000  0.1791709E+03  0.7546771E-02  0.1168608E+00
         21   -1    0    0  503  502  0.00000000000E+00  0.00000000000E+00  0.60108434973E+03  0.60108434973E+03  0.00000000000E+00 0. -1.
         21   -1    0    0  501  503 -0.00000000000E+00 -0.00000000000E+00 -0.69836185096E+03  0.69836185096E+03  0.00000000000E+00 0. -1.
          6    1    1    2  501    0 -0.17770941567E+02 -0.43097756963E+02 -0.67302402044E+03  0.69646504227E+03  0.17300000000E+03 0. -1.
         -6    1    1    2    0  502  0.17770941567E+02  0.43097756963E+02  0.57574651922E+03  0.60298115842E+03  0.17300000000E+03 0. -1.
<mgrwt>
<rscale>  2 0.17917093E+03</rscale>
<asrwt>0</asrwt>
<pdfrwt beam="1">  1       21 0.92474516E-01 0.17917093E+03</pdfrwt>
<pdfrwt beam="2">  1       21 0.10744028E+00 0.17917093E+03</pdfrwt>
<totfact> 0.69217874E+02</totfact>
</mgrwt>
</event>
<event>
 4    1  0.4374784E+000  0.2347304E+03  0.7546771E-02  0.1123354E+00
         21   -1    0    0  503  502  0.00000000000E+00  0.00000000000E+00  0.29989226671E+03  0.29989226671E+03  0.00000000000E+00 0. -1.
         21   -1    0    0  501  503 -0.00000000000E+00 -0.00000000000E+00 -0.44399693788E+03  0.44399693788E+03  0.00000000000E+00 0.  1.
          6    1    1    2  501    0 -0.54475522218E+02 -0.14900253315E+03 -0.35682624104E+03  0.42711041160E+03  0.17300000000E+03 0.  1.
         -6    1    1    2    0  502  0.54475522218E+02  0.14900253315E+03  0.21272156986E+03  0.31677879299E+03  0.17300000000E+03 0. -1.
<mgrwt>
<rscale>  2 0.23473035E+03</rscale>
<asrwt>0</asrwt>
<pdfrwt beam="1">  1       21 0.46137272E-01 0.23473035E+03</pdfrwt>
<pdfrwt beam="2">  1       21 0.68307220E-01 0.23473035E+03</pdfrwt>
<totfact> 0.85594583E+03</totfact>
</mgrwt>
</event>
<event>
 4    1  0.4374784E+000  0.1949005E+03  0.7546771E-02  0.1154114E+00
         21   -1    0    0  503  502  0.00000000000E+00  0.00000000000E+00  0.17246030480E+03  0.17246030480E+03  0.00000000000E+00 0. -1.
         21   -1    0    0  501  503 -0.00000000000E+00 -0.00000000000E+00 -0.39395435217E+03  0.39395435217E+03  0.00000000000E+00 0.  1.
          6    1    1    2  501    0  0.27440030937E+01 -0.89719875528E+02 -0.29879722935E+03  0.35674356320E+03  0.17300000000E+03 0.  1.
         -6    1    1    2    0  502 -0.27440030937E+01  0.89719875528E+02  0.77303181978E+02  0.20967109377E+03  0.17300000000E+03 0. -1.
<mgrwt>
<rscale>  2 0.19490045E+03</rscale>
<asrwt>0</asrwt>
<pdfrwt beam="1">  1       21 0.26532355E-01 0.19490045E+03</pdfrwt>
<pdfrwt beam="2">  1       21 0.60608361E-01 0.19490045E+03</pdfrwt>
<totfact> 0.34231236E+04</totfact>
</mgrwt>
</event>
<event>
 4    1  0.4374784E+000  0.1851171E+03  0.7546771E-02  0.1162941E+00
         21   -1    0    0  503  502  0.00000000000E+00  0.00000000000E+00  0.51798770265E+02  0.51798770265E+02  0.00000000000E+00 0.  1.
         21   -1    0    0  501  503 -0.00000000000E+00 -0.00000000000E+00 -0.75936985601E+03  0.75936985601E+03  0.00000000000E+00 0. -1.
          6    1    1    2  501    0  0.18651433600E+02  0.63178085122E+02 -0.49934173883E+03  0.53255095395E+03  0.17300000000E+03 0. -1.
         -6    1    1    2    0  502 -0.18651433600E+02 -0.63178085122E+02 -0.20822934691E+03  0.27861767232E+03  0.17300000000E+03 0.  1.
<mgrwt>
<rscale>  2 0.18511712E+03</rscale>
<asrwt>0</asrwt>
<pdfrwt beam="1">  1       21 0.79690415E-02 0.18511712E+03</pdfrwt>
<pdfrwt beam="2">  1       21 0.11682613E+00 0.18511712E+03</pdfrwt>
<totfact> 0.68399845E+04</totfact>
</mgrwt>
</event>
<event>
 4    1  0.4374784E+000  0.2808334E+03  0.7546771E-02  0.1095235E+00
         21   -1    0    0  501  502  0.00000000000E+00  0.00000000000E+00  0.64836505474E+03  0.64836505474E+03  0.00000000000E+00 0. -1.
         21   -1    0    0  502  503 -0.00000000000E+00 -0.00000000000E+00 -0.15638174453E+03  0.15638174453E+03  0.00000000000E+00 0.  1.
          6    1    1    2  501    0  0.14887592690E+03 -0.16362865771E+03  0.43564460336E+03  0.51831804876E+03  0.17300000000E+03 0. -1.
         -6    1    1    2    0  503 -0.14887592690E+03  0.16362865771E+03  0.56338706849E+02  0.28642875052E+03  0.17300000000E+03 0.  1.
<mgrwt>
<rscale>  2 0.28083337E+03</rscale>
<asrwt>0</asrwt>
<pdfrwt beam="1">  1       21 0.99748468E-01 0.28083337E+03</pdfrwt>
<pdfrwt beam="2">  1       21 0.24058730E-01 0.28083337E+03</pdfrwt>
<totfact> 0.12794259E+04</totfact>
</mgrwt>
</event>
<event>
 4    1  0.4374784E+000  0.3073145E+03  0.7546771E-02  0.1081640E+00
         21   -1    0    0  501  502  0.00000000000E+00  0.00000000000E+00  0.20644679655E+03  0.20644679655E+03  0.00000000000E+00 0. -1.
         21   -1    0    0  502  503 -0.00000000000E+00 -0.00000000000E+00 -0.46028669169E+03  0.46028669169E+03  0.00000000000E+00 0. -1.
          6    1    1    2  501    0  0.24350741739E+02 -0.25282447948E+03 -0.15302146327E+03  0.34330415709E+03  0.17300000000E+03 0. -1.
         -6    1    1    2    0  503 -0.24350741739E+02  0.25282447948E+03 -0.10081843186E+03  0.32342933116E+03  0.17300000000E+03 0. -1.
<mgrwt>
<rscale>  2 0.30731446E+03</rscale>
<asrwt>0</asrwt>
<pdfrwt beam="1">  1       21 0.31761046E-01 0.30731446E+03</pdfrwt>
<pdfrwt beam="2">  1       21 0.70813336E-01 0.30731446E+03</pdfrwt>
<totfact> 0.16239113E+04</totfact>
</mgrwt>
</event>
<event>
 4    1  0.4374784E+000  0.2126837E+03  0.7546771E-02  0.1139458E+00
         21   -1    0    0  501  502  0.00000000000E+00  0.00000000000E+00  0.11093030786E+03  0.11093030786E+03  0.00000000000E+00 0.  1.
         21   -1    0    0  502  503 -0.00000000000E+00 -0.00000000000E+00 -0.65123713025E+03  0.65123713025E+03  0.00000000000E+00 0.  1.
          6    1    1    2  501    0  0.11055342373E+03  0.55527429587E+02 -0.37146636805E+02  0.21590328289E+03  0.17300000000E+03 0.  1.
         -6    1    1    2    0  503 -0.11055342373E+03 -0.55527429587E+02 -0.50316018558E+03  0.54626415523E+03  0.17300000000E+03 0.  1.
<mgrwt>
<rscale>  2 0.21268370E+03</rscale>
<asrwt>0</asrwt>
<pdfrwt beam="1">  1       21 0.17066201E-01 0.21268370E+03</pdfrwt>
<pdfrwt beam="2">  1       21 0.10019033E+00 0.21268370E+03</pdfrwt>
<totfact> 0.25019486E+04</totfact>
</mgrwt>
</event>
<event>
 4    1  0.4374784E+000  0.2492252E+03  0.7546771E-02  0.1113795E+00
         21   -1    0    0  503  502  0.00000000000E+00  0.00000000000E+00  0.20059404142E+03  0.20059404142E+03  0.00000000000E+00 0.  1.
         21   -1    0    0  501  503 -0.00000000000E+00 -0.00000000000E+00 -0.42528268856E+03  0.42528268856E+03  0.00000000000E+00 0.  1.
          6    1    1    2  501    0  0.50482011332E+02  0.17215039128E+03 -0.27552447409E+03  0.37151975251E+03  0.17300000000E+03 0.  1.
         -6    1    1    2    0  502 -0.50482011332E+02 -0.17215039128E+03  0.50835826950E+02  0.25435697747E+03  0.17300000000E+03 0.  1.
<mgrwt>
<rscale>  2 0.24922518E+03</rscale>
<asrwt>0</asrwt>
<pdfrwt beam="1">  1       21 0.30860622E-01 0.24922518E+03</pdfrwt>
<pdfrwt beam="2">  1       21 0.65428105E-01 0.24922518E+03</pdfrwt>
<totfact> 0.21010013E+04</totfact>
</mgrwt>
</event>
<event>
 4    1  0.4374784E+000  0.1955825E+03  0.7546771E-02  0.1153520E+00
         21   -1    0    0  501  502  0.00000000000E+00  0.00000000000E+00  0.66743109259E+03  0.66743109259E+03  0.00000000000E+00 0.  1.
         21   -1    0    0  502  503 -0.00000000000E+00 -0.00000000000E+00 -0.11291636626E+03  0.11291636626E+03  0.00000000000E+00 0.  1.
          6    1    1    2  501    0  0.64831546274E+02 -0.64190240450E+02  0.55105512716E+03  0.58473435809E+03  0.17300000000E+03 0.  1.
         -6    1    1    2    0  503 -0.64831546274E+02  0.64190240450E+02  0.34595991755E+01  0.19561310076E+03  0.17300000000E+03 0.  1.
<mgrwt>
<rscale>  2 0.19558251E+03</rscale>
<asrwt>0</asrwt>
<pdfrwt beam="1">  1       21 0.10268170E+00 0.19558251E+03</pdfrwt>
<pdfrwt beam="2">  1       21 0.17371749E-01 0.19558251E+03</pdfrwt>
<totfact> 0.23065978E+04</totfact>
</mgrwt>
</event>
<event>
 4    1  0.4374784E+000  0.1764686E+03  0.7546771E-02  0.1171265E+00
         21   -1    0    0  501  502  0.00000000000E+00  0.00000000000E+00  0.28216809605E+03  0.28216809605E+03  0.00000000000E+00 0. -1.
         21   -1    0    0  502  503 -0.00000000000E+00 -0.00000000000E+00 -0.16142190262E+03  0.16142190262E+03  0.00000000000E+00 0. -1.
          6    1    1    2  501    0 -0.33351641466E+02 -0.99924844326E+01  0.18511210190E+03  0.25574923657E+03  0.17300000000E+03 0. -1.
         -6    1    1    2    0  503  0.33351641466E+02  0.99924844326E+01 -0.64365908469E+02  0.18784076210E+03  0.17300000000E+03 0. -1.
<mgrwt>
<rscale>  2 0.17646864E+03</rscale>
<asrwt>0</asrwt>
<pdfrwt beam="1">  1       21 0.43410476E-01 0.17646864E+03</pdfrwt>
<pdfrwt beam="2">  1       21 0.24834139E-01 0.17646864E+03</pdfrwt>
<totfact> 0.78773108E+04</totfact>
</mgrwt>
</event>
<event>
 4    1  0.4374784E+000  0.2230135E+03  0.7546771E-02  0.1131656E+00
         21   -1    0    0  501  502  0.00000000000E+00  0.00000000000E+00  0.38729838431E+03  0.38729838431E+03  0.00000000000E+00 0.  1.
         21   -1    0    0  502  503 -0.00000000000E+00 -0.00000000000E+00 -0.19205442101E+03  0.19205442101E+03  0.00000000000E+00 0. -1.
          6    1    1    2  501    0  0.48954517151E+02  0.13194495620E+03  0.26437098396E+03  0.34587141162E+03  0.17300000000E+03 0.  1.
         -6    1    1    2    0  503 -0.48954517151E+02 -0.13194495620E+03 -0.69127020659E+02  0.23348139370E+03  0.17300000000E+03 0. -1.
<mgrwt>
<rscale>  2 0.22301349E+03</rscale>
<asrwt>0</asrwt>
<pdfrwt beam="1">  1       21 0.59584367E-01 0.22301349E+03</pdfrwt>
<pdfrwt beam="2">  1       21 0.29546834E-01 0.22301349E+03</pdfrwt>
<totfact> 0.28401847E+04</totfact>
</mgrwt>
</event>
<event>
 4    1  0.4374784E+000  0.2342345E+03  0.7546771E-02  0.1123694E+00
         21   -1    0    0  501  502  0.00000000000E+00  0.00000000000E+00  0.43990001984E+03  0.43990001984E+03  0.00000000000E+00 0. -1.
         21   -1    0    0  502  503 -0.00000000000E+00 -0.00000000000E+00 -0.12769256482E+03  0.12769256482E+03  0.00000000000E+00 0. -1.
          6    1    1    2  501    0 -0.15616776937E+03 -0.23418294121E+02  0.19937974531E+03  0.30760050639E+03  0.17300000000E+03 0. -1.
         -6    1    1    2    0  503  0.15616776937E+03  0.23418294121E+02  0.11282770971E+03  0.25999207828E+03  0.17300000000E+03 0. -1.
<mgrwt>
<rscale>  2 0.23423447E+03</rscale>
<asrwt>0</asrwt>
<pdfrwt beam="1">  1       21 0.67676925E-01 0.23423447E+03</pdfrwt>
<pdfrwt beam="2">  1       21 0.19645010E-01 0.23423447E+03</pdfrwt>
<totfact> 0.46702371E+04</totfact>
</mgrwt>
</event>
<event>
 4    1  0.4374784E+000  0.1830802E+03  0.7546771E-02  0.1164855E+00
         21   -1    0    0  501  502  0.00000000000E+00  0.00000000000E+00  0.11414625889E+03  0.11414625889E+03  0.00000000000E+00 0.  1.
         21   -1    0    0  502  503 -0.00000000000E+00 -0.00000000000E+00 -0.66706062770E+03  0.66706062770E+03  0.00000000000E+00 0.  1.
          6    1    1    2  501    0  0.41625629276E+02 -0.43089105420E+02  0.15789935535E+02  0.18375985982E+03  0.17300000000E+03 0.  1.
         -6    1    1    2    0  503 -0.41625629276E+02  0.43089105420E+02 -0.56870430435E+03  0.59744702677E+03  0.17300000000E+03 0.  1.
<mgrwt>
<rscale>  2 0.18308021E+03</rscale>
<asrwt>0</asrwt>
<pdfrwt beam="1">  1       21 0.17560963E-01 0.18308021E+03</pdfrwt>
<pdfrwt beam="2">  1       21 0.10262471E+00 0.18308021E+03</pdfrwt>
<totfact> 0.22810348E+04</totfact>
</mgrwt>
</event>
<event>
 4    1  0.4374784E+000  0.2266974E+03  0.7546771E-02  0.1128986E+00
         21   -1    0    0  501  502  0.00000000000E+00  0.00000000000E+00  0.26321863098E+03  0.26321863098E+03  0.00000000000E+00 0.  1.
         21   -1    0    0  502  503 -0.00000000000E+00 -0.00000000000E+00 -0.42983110121E+03  0.42983110121E+03  0.00000000000E+00 0.  1.
          6    1    1    2  501    0 -0.93737455316E+02  0.11258766978E+03  0.17269268240E+03  0.28498150198E+03  0.17300000000E+03 0.  1.
         -6    1    1    2    0  503  0.93737455316E+02 -0.11258766978E+03 -0.33930515262E+03  0.40806823021E+03  0.17300000000E+03 0.  1.
<mgrwt>
<rscale>  2 0.22669736E+03</rscale>
<asrwt>0</asrwt>
<pdfrwt beam="1">  1       21 0.40495174E-01 0.22669736E+03</pdfrwt>
<pdfrwt beam="2">  1       21 0.66127862E-01 0.22669736E+03</pdfrwt>
<totfact> 0.12070211E+04</totfact>
</mgrwt>
</event>
<event>
 4    1  0.4374784E+000  0.2111355E+03  0.7546771E-02  0.1140670E+00
         21   -1    0    0  501  502  0.00000000000E+00  0.00000000000E+00  0.17477445218E+04  0.17477445218E+04  0.00000000000E+00 0. -1.
         21   -1    0    0  502  503 -0.00000000000E+00 -0.00000000000E+00 -0.88327895518E+02  0.88327895518E+02  0.00000000000E+00 0. -1.
          6    1    1    2  501    0 -0.96550386677E+02  0.72987715797E+02  0.16039311331E+04  0.16177679882E+04  0.17300000000E+03 0. -1.
         -6    1    1    2    0  503  0.96550386677E+02 -0.72987715797E+02  0.55485493160E+02  0.21830442913E+03  0.17300000000E+03 0. -1.
<mgrwt>
<rscale>  2 0.21113546E+03</rscale>
<asrwt>0</asrwt>
<pdfrwt beam="1">  1       21 0.26888375E+00 0.21113546E+03</pdfrwt>
<pdfrwt beam="2">  1       21 0.13588908E-01 0.21113546E+03</pdfrwt>
<totfact> 0.23712142E+03</totfact>
</mgrwt>
</event>
<event>
 4    1  0.4374784E+000  0.1743988E+03  0.7546771E-02  0.1173337E+00
         21   -1    0    0  501  502  0.00000000000E+00  0.00000000000E+00  0.49479652139E+02  0.49479652139E+02  0.00000000000E+00 0.  1.
         21   -1    0    0  502  503 -0.00000000000E+00 -0.00000000000E+00 -0.10103553891E+04  0.10103553891E+04  0.00000000000E+00 0.  1.
          6    1    1    2  501    0 -0.58901889449E+01 -0.21242292296E+02 -0.14882444554E+03  0.22926762724E+03  0.17300000000E+03 0.  1.
         -6    1    1    2    0  503  0.58901889449E+01  0.21242292296E+02 -0.81205129144E+03  0.83056741402E+03  0.17300000000E+03 0.  1.
<mgrwt>
<rscale>  2 0.17439877E+03</rscale>
<asrwt>0</asrwt>
<pdfrwt beam="1">  1       21 0.76122543E-02 0.17439877E+03</pdfrwt>
<pdfrwt beam="2">  1       21 0.15543929E+00 0.17439877E+03</pdfrwt>
<totfact> 0.35991185E+04</totfact>
</mgrwt>
</event>
<event>
 4    1  0.4374784E+000  0.1943151E+03  0.7546771E-02  0.1154626E+00
         21   -1    0    0  501  502  0.00000000000E+00  0.00000000000E+00  0.14155132935E+03  0.14155132935E+03  0.00000000000E+00 0. -1.
         21   -1    0    0  502  503 -0.00000000000E+00 -0.00000000000E+00 -0.29680572123E+03  0.29680572123E+03  0.00000000000E+00 0. -1.
          6    1    1    2  501    0  0.86835555540E+02 -0.16998132848E+02 -0.78763833001E+01  0.19447464524E+03  0.17300000000E+03 0. -1.
         -6    1    1    2    0  503 -0.86835555540E+02  0.16998132848E+02 -0.14737800858E+03  0.24388240535E+03  0.17300000000E+03 0. -1.
<mgrwt>
<rscale>  2 0.19431508E+03</rscale>
<asrwt>0</asrwt>
<pdfrwt beam="1">  1       21 0.21777128E-01 0.19431508E+03</pdfrwt>
<pdfrwt beam="2">  1       21 0.45662418E-01 0.19431508E+03</pdfrwt>
<totfact> 0.90425806E+04</totfact>
</mgrwt>
</event>
<event>
 4    1  0.4374784E+000  0.1902169E+03  0.7546771E-02  0.1158266E+00
         21   -1    0    0  501  502  0.00000000000E+00  0.00000000000E+00  0.10132397284E+04  0.10132397284E+04  0.00000000000E+00 0. -1.
         21   -1    0    0  502  503 -0.00000000000E+00 -0.00000000000E+00 -0.42500886272E+02  0.42500886272E+02  0.00000000000E+00 0. -1.
          6    1    1    2  501    0 -0.69874081844E+02 -0.37028342545E+02  0.69637848045E+03  0.72189020876E+03  0.17300000000E+03 0. -1.
         -6    1    1    2    0  503  0.69874081844E+02  0.37028342545E+02  0.27436036164E+03  0.33385040588E+03  0.17300000000E+03 0. -1.
<mgrwt>
<rscale>  2 0.19021694E+03</rscale>
<asrwt>0</asrwt>
<pdfrwt beam="1">  1       21 0.15588302E+00 0.19021694E+03</pdfrwt>
<pdfrwt beam="2">  1       21 0.65385986E-02 0.19021694E+03</pdfrwt>
<totfact> 0.45992654E+04</totfact>
</mgrwt>
</event>
<event>
 4    1  0.4374784E+000  0.2560537E+03  0.7546771E-02  0.1109538E+00
         21   -1    0    0  503  502  0.00000000000E+00  0.00000000000E+00  0.24739353215E+03  0.24739353215E+03  0.00000000000E+00 0. -1.
         21   -1    0    0  501  503 -0.00000000000E+00 -0.00000000000E+00 -0.26761507358E+03  0.26761507358E+03  0.00000000000E+00 0.  1.
          6    1    1    2  501    0  0.10269345758E+03  0.15839370507E+03 -0.35482382692E+02  0.25850050584E+03  0.17300000000E+03 0.  1.
         -6    1    1    2    0  502 -0.10269345758E+03 -0.15839370507E+03  0.15260841270E+02  0.25650809990E+03  0.17300000000E+03 0. -1.
<mgrwt>
<rscale>  2 0.25605373E+03</rscale>
<asrwt>0</asrwt>
<pdfrwt beam="1">  1       21 0.38060543E-01 0.25605373E+03</pdfrwt>
<pdfrwt beam="2">  1       21 0.41171550E-01 0.25605373E+03</pdfrwt>
<totfact> 0.36710265E+04</totfact>
</mgrwt>
</event>
<event>
 4    1  0.4374784E+000  0.2303873E+03  0.7546771E-02  0.1126367E+00
         21   -1    0    0  501  502  0.00000000000E+00  0.00000000000E+00  0.78000876789E+03  0.78000876789E+03  0.00000000000E+00 0. -1.
         21   -1    0    0  502  503 -0.00000000000E+00 -0.00000000000E+00 -0.78117452398E+02  0.78117452398E+02  0.00000000000E+00 0. -1.
          6    1    1    2  501    0  0.15214109726E+03 -0.15529350509E+01  0.50498870194E+03  0.55506027976E+03  0.17300000000E+03 0. -1.
         -6    1    1    2    0  503 -0.15214109726E+03  0.15529350509E+01  0.19690261355E+03  0.30306594053E+03  0.17300000000E+03 0. -1.
<mgrwt>
<rscale>  2 0.23038734E+03</rscale>
<asrwt>0</asrwt>
<pdfrwt beam="1">  1       21 0.12000134E+00 0.23038734E+03</pdfrwt>
<pdfrwt beam="2">  1       21 0.12018070E-01 0.23038734E+03</pdfrwt>
<totfact> 0.30259258E+04</totfact>
</mgrwt>
</event>
<event>
 4    1  0.4374784E+000  0.1887828E+03  0.7546771E-02  0.1159564E+00
         21   -1    0    0  503  502  0.00000000000E+00  0.00000000000E+00  0.54916228814E+02  0.54916228814E+02  0.00000000000E+00 0. -1.
         21   -1    0    0  501  503 -0.00000000000E+00 -0.00000000000E+00 -0.66494940745E+03  0.66494940745E+03  0.00000000000E+00 0. -1.
          6    1    1    2  501    0  0.72775636630E+02  0.20338816035E+02 -0.36081392869E+03  0.40721695920E+03  0.17300000000E+03 0. -1.
         -6    1    1    2    0  502 -0.72775636630E+02 -0.20338816035E+02 -0.24921924995E+03  0.31264867706E+03  0.17300000000E+03 0. -1.
<mgrwt>
<rscale>  2 0.18878284E+03</rscale>
<asrwt>0</asrwt>
<pdfrwt beam="1">  1       21 0.84486509E-02 0.18878284E+03</pdfrwt>
<pdfrwt beam="2">  1       21 0.10229991E+00 0.18878284E+03</pdfrwt>
<totfact> 0.84993683E+04</totfact>
</mgrwt>
</event>
<event>
 4    1  0.4374784E+000  0.1742438E+03  0.7546771E-02  0.1173493E+00
         21   -1    0    0  501  502  0.00000000000E+00  0.00000000000E+00  0.21093645506E+03  0.21093645506E+03  0.00000000000E+00 0. -1.
         21   -1    0    0  502  503 -0.00000000000E+00 -0.00000000000E+00 -0.28932871706E+03  0.28932871706E+03  0.00000000000E+00 0. -1.
          6    1    1    2  501    0  0.17853751700E+02  0.10636802937E+02  0.13812031831E+03  0.22234684697E+03  0.17300000000E+03 0. -1.
         -6    1    1    2    0  503 -0.17853751700E+02 -0.10636802937E+02 -0.21651258030E+03  0.27791832515E+03  0.17300000000E+03 0. -1.
<mgrwt>
<rscale>  2 0.17424379E+03</rscale>
<asrwt>0</asrwt>
<pdfrwt beam="1">  1       21 0.32451762E-01 0.17424379E+03</pdfrwt>
<pdfrwt beam="2">  1       21 0.44512110E-01 0.17424379E+03</pdfrwt>
<totfact> 0.44679360E+04</totfact>
</mgrwt>
</event>
<event>
 4    1  0.4374784E+000  0.3148898E+03  0.7546771E-02  0.1078025E+00
         21   -1    0    0  503  502  0.00000000000E+00  0.00000000000E+00  0.23041281442E+03  0.23041281442E+03  0.00000000000E+00 0. -1.
         21   -1    0    0  501  503 -0.00000000000E+00 -0.00000000000E+00 -0.67417916972E+03  0.67417916972E+03  0.00000000000E+00 0.  1.
          6    1    1    2  501    0 -0.18781494779E+03 -0.18426103507E+03 -0.49389503844E+03  0.58573705077E+03  0.17300000000E+03 0.  1.
         -6    1    1    2    0  502  0.18781494779E+03  0.18426103507E+03  0.50128683135E+02  0.31885493336E+03  0.17300000000E+03 0. -1.
<mgrwt>
<rscale>  2 0.31488980E+03</rscale>
<asrwt>0</asrwt>
<pdfrwt beam="1">  1       21 0.35448126E-01 0.31488980E+03</pdfrwt>
<pdfrwt beam="2">  1       21 0.10371987E+00 0.31488980E+03</pdfrwt>
<totfact> 0.53513506E+03</totfact>
</mgrwt>
</event>
<event>
 4    1  0.4374784E+000  0.1730955E+03  0.7546771E-02  0.1174658E+00
         21   -1    0    0  501  502  0.00000000000E+00  0.00000000000E+00  0.23582478484E+03  0.23582478484E+03  0.00000000000E+00 0.  1.
         21   -1    0    0  502  503 -0.00000000000E+00 -0.00000000000E+00 -0.13216658226E+03  0.13216658226E+03  0.00000000000E+00 0.  1.
          6    1    1    2  501    0 -0.57021590808E+01 -0.72589569881E+00  0.15634290420E+02  0.17380009373E+03  0.17300000000E+03 0.  1.
         -6    1    1    2    0  503  0.57021590808E+01  0.72589569881E+00  0.88023912155E+02  0.19419127337E+03  0.17300000000E+03 0.  1.
<mgrwt>
<rscale>  2 0.17309547E+03</rscale>
<asrwt>0</asrwt>
<pdfrwt beam="1">  1       21 0.36280736E-01 0.17309547E+03</pdfrwt>
<pdfrwt beam="2">  1       21 0.20333320E-01 0.17309547E+03</pdfrwt>
<totfact> 0.16497759E+05</totfact>
</mgrwt>
</event>
<event>
 4    1  0.4374784E+000  0.2178621E+03  0.7546771E-02  0.1135487E+00
         21   -1    0    0  503  502  0.00000000000E+00  0.00000000000E+00  0.12769710420E+04  0.12769710420E+04  0.00000000000E+00 0. -1.
         21   -1    0    0  501  503 -0.00000000000E+00 -0.00000000000E+00 -0.71830313939E+02  0.71830313939E+02  0.00000000000E+00 0. -1.
          6    1    1    2  501    0  0.83329759166E+02  0.10291286965E+03  0.13409604485E+03  0.25582348748E+03  0.17300000000E+03 0. -1.
         -6    1    1    2    0  502 -0.83329759166E+02 -0.10291286965E+03  0.10710446832E+04  0.10929778685E+04  0.17300000000E+03 0. -1.
<mgrwt>
<rscale>  2 0.21786213E+03</rscale>
<asrwt>0</asrwt>
<pdfrwt beam="1">  1       21 0.19645707E+00 0.21786213E+03</pdfrwt>
<pdfrwt beam="2">  1       21 0.11050818E-01 0.21786213E+03</pdfrwt>
<totfact> 0.94247243E+03</totfact>
</mgrwt>
</event>
<event>
 4    1  0.4374784E+000  0.1737333E+03  0.7546771E-02  0.1174010E+00
         21   -1    0    0  503  502  0.00000000000E+00  0.00000000000E+00  0.12447347021E+03  0.12447347021E+03  0.00000000000E+00 0. -1.
         21   -1    0    0  501  503 -0.00000000000E+00 -0.00000000000E+00 -0.32742477326E+03  0.32742477326E+03  0.00000000000E+00 0. -1.
          6    1    1    2  501    0 -0.76781091815E+00 -0.15927165262E+02 -0.21655674371E+03  0.27763300843E+03  0.17300000000E+03 0. -1.
         -6    1    1    2    0  502  0.76781091815E+00  0.15927165262E+02  0.13605440656E+02  0.17426523504E+03  0.17300000000E+03 0. -1.
<mgrwt>
<rscale>  2 0.17373331E+03</rscale>
<asrwt>0</asrwt>
<pdfrwt beam="1">  1       21 0.19149765E-01 0.17373331E+03</pdfrwt>
<pdfrwt beam="2">  1       21 0.50373041E-01 0.17373331E+03</pdfrwt>
<totfact> 0.94605755E+04</totfact>
</mgrwt>
</event>
<event>
 4    1  0.4374784E+000  0.1884656E+03  0.7546771E-02  0.1159853E+00
         21   -1    0    0  501  502  0.00000000000E+00  0.00000000000E+00  0.10984775746E+03  0.10984775746E+03  0.00000000000E+00 0. -1.
         21   -1    0    0  502  503 -0.00000000000E+00 -0.00000000000E+00 -0.62802579388E+03  0.62802579388E+03  0.00000000000E+00 0. -1.
          6    1    1    2  501    0  0.29006613788E+02  0.68912136660E+02 -0.21191374763E+01  0.18847747071E+03  0.17300000000E+03 0. -1.
         -6    1    1    2    0  503 -0.29006613788E+02 -0.68912136660E+02 -0.51605889895E+03  0.54939608063E+03  0.17300000000E+03 0. -1.
<mgrwt>
<rscale>  2 0.18846556E+03</rscale>
<asrwt>0</asrwt>
<pdfrwt beam="1">  1       21 0.16899655E-01 0.18846556E+03</pdfrwt>
<pdfrwt beam="2">  1       21 0.96619354E-01 0.18846556E+03</pdfrwt>
<totfact> 0.28147080E+04</totfact>
</mgrwt>
</event>
<event>
 4    1  0.4374784E+000  0.1997742E+03  0.7546771E-02  0.1149930E+00
         21   -1    0    0  501  502  0.00000000000E+00  0.00000000000E+00  0.34624369227E+03  0.34624369227E+03  0.00000000000E+00 0.  1.
         21   -1    0    0  502  503 -0.00000000000E+00 -0.00000000000E+00 -0.67848214167E+03  0.67848214167E+03  0.00000000000E+00 0.  1.
          6    1    1    2  501    0 -0.81706489697E+02  0.57487057464E+02  0.30069758432E+03  0.36101073315E+03  0.17300000000E+03 0.  1.
         -6    1    1    2    0  503  0.81706489697E+02 -0.57487057464E+02 -0.63293603372E+03  0.66371510079E+03  0.17300000000E+03 0.  1.
<mgrwt>
<rscale>  2 0.19977415E+03</rscale>
<asrwt>0</asrwt>
<pdfrwt beam="1">  1       21 0.53268260E-01 0.19977415E+03</pdfrwt>
<pdfrwt beam="2">  1       21 0.10438187E+00 0.19977415E+03</pdfrwt>
<totfact> 0.24573392E+03</totfact>
</mgrwt>
</event>
<event>
 4    1  0.4374784E+000  0.1999174E+03  0.7546771E-02  0.1149809E+00
         21   -1    0    0  501  502  0.00000000000E+00  0.00000000000E+00  0.12398885763E+04  0.12398885763E+04  0.00000000000E+00 0. -1.
         21   -1    0    0  502  503 -0.00000000000E+00 -0.00000000000E+00 -0.10716500669E+03  0.10716500669E+03  0.00000000000E+00 0. -1.
          6    1    1    2  501    0  0.82026121044E+01  0.99853332089E+02  0.11295560465E+04  0.11471110813E+04  0.17300000000E+03 0. -1.
         -6    1    1    2    0  503 -0.82026121044E+01 -0.99853332089E+02  0.31675231581E+01  0.19994250168E+03  0.17300000000E+03 0. -1.
<mgrwt>
<rscale>  2 0.19991741E+03</rscale>
<asrwt>0</asrwt>
<pdfrwt beam="1">  1       21 0.19075208E+00 0.19991741E+03</pdfrwt>
<pdfrwt beam="2">  1       21 0.16486925E-01 0.19991741E+03</pdfrwt>
<totfact> 0.50560165E+03</totfact>
</mgrwt>
</event>
<event>
 4    1  0.4374784E+000  0.2090507E+03  0.7546771E-02  0.1142320E+00
         21   -1    0    0  503  502  0.00000000000E+00  0.00000000000E+00  0.60096675273E+02  0.60096675273E+02  0.00000000000E+00 0.  1.
         21   -1    0    0  501  503 -0.00000000000E+00 -0.00000000000E+00 -0.72732629856E+03  0.72732629856E+03  0.00000000000E+00 0. -1.
          6    1    1    2  501    0 -0.76621374155E+01  0.11710888450E+03 -0.33883807345E+03  0.39813746269E+03  0.17300000000E+03 0.  1.
         -6    1    1    2    0  502  0.76621374155E+01 -0.11710888450E+03 -0.32839154984E+03  0.38928551114E+03  0.17300000000E+03 0. -1.
<mgrwt>
<rscale>  2 0.20905071E+03</rscale>
<asrwt>0</asrwt>
<pdfrwt beam="1">  1       21 0.92456418E-02 0.20905071E+03</pdfrwt>
<pdfrwt beam="2">  1       21 0.11189636E+00 0.20905071E+03</pdfrwt>
<totfact> 0.57902261E+04</totfact>
</mgrwt>
</event>
<event>
 4    1  0.4374784E+000  0.2013970E+03  0.7546771E-02  0.1148566E+00
         21   -1    0    0  503  502  0.00000000000E+00  0.00000000000E+00  0.12605191352E+03  0.12605191352E+03  0.00000000000E+00 0.  1.
         21   -1    0    0  501  503 -0.00000000000E+00 -0.00000000000E+00 -0.70230196982E+03  0.70230196982E+03  0.00000000000E+00 0.  1.
          6    1    1    2  501    0 -0.49161567177E+02  0.90636122142E+02 -0.59299512627E+03  0.62626191494E+03  0.17300000000E+03 0.  1.
         -6    1    1    2    0  502  0.49161567177E+02 -0.90636122142E+02  0.16745069969E+02  0.20209196840E+03  0.17300000000E+03 0.  1.
<mgrwt>
<rscale>  2 0.20139704E+03</rscale>
<asrwt>0</asrwt>
<pdfrwt beam="1">  1       21 0.19392603E-01 0.20139704E+03</pdfrwt>
<pdfrwt beam="2">  1       21 0.10804645E+00 0.20139704E+03</pdfrwt>
<totfact> 0.16580247E+04</totfact>
</mgrwt>
</event>
<event>
 4    1  0.4374784E+000  0.2175373E+03  0.7546771E-02  0.1135733E+00
         21   -1    0    0  503  502  0.00000000000E+00  0.00000000000E+00  0.15891816690E+03  0.15891816690E+03  0.00000000000E+00 0. -1.
         21   -1    0    0  501  503 -0.00000000000E+00 -0.00000000000E+00 -0.33808306570E+03  0.33808306570E+03  0.00000000000E+00 0.  1.
          6    1    1    2  501    0  0.38278624835E+02  0.12620698493E+03 -0.17538326835E+03  0.27943111312E+03  0.17300000000E+03 0.  1.
         -6    1    1    2    0  502 -0.38278624835E+02 -0.12620698493E+03 -0.37816304516E+01  0.21757011948E+03  0.17300000000E+03 0. -1.
<mgrwt>
<rscale>  2 0.21753725E+03</rscale>
<asrwt>0</asrwt>
<pdfrwt beam="1">  1       21 0.24448949E-01 0.21753725E+03</pdfrwt>
<pdfrwt beam="2">  1       21 0.52012779E-01 0.21753725E+03</pdfrwt>
<totfact> 0.54810553E+04</totfact>
</mgrwt>
</event>
<event>
 4    1  0.4374784E+000  0.1734182E+03  0.7546771E-02  0.1174329E+00
         21   -1    0    0  501  502  0.00000000000E+00  0.00000000000E+00  0.13781433193E+03  0.13781433193E+03  0.00000000000E+00 0. -1.
         21   -1    0    0  502  503 -0.00000000000E+00 -0.00000000000E+00 -0.33056444448E+03  0.33056444448E+03  0.00000000000E+00 0. -1.
          6    1    1    2  501    0 -0.10753022076E+02 -0.54062925861E+01  0.40150757925E+02  0.17800544611E+03  0.17300000000E+03 0. -1.
         -6    1    1    2    0  503  0.10753022076E+02  0.54062925861E+01 -0.23290087047E+03  0.29037333030E+03  0.17300000000E+03 0. -1.
<mgrwt>
<rscale>  2 0.17341815E+03</rscale>
<asrwt>0</asrwt>
<pdfrwt beam="1">  1       21 0.21202205E-01 0.17341815E+03</pdfrwt>
<pdfrwt beam="2">  1       21 0.50856069E-01 0.17341815E+03</pdfrwt>
<totfact> 0.76718651E+04</totfact>
</mgrwt>
</event>
<event>
 4    1  0.4374784E+000  0.1825081E+03  0.7546771E-02  0.1165398E+00
         21   -1    0    0  501  502  0.00000000000E+00  0.00000000000E+00  0.26650027676E+04  0.26650027676E+04  0.00000000000E+00 0.  1.
         21   -1    0    0  502  503 -0.00000000000E+00 -0.00000000000E+00 -0.28237826097E+02  0.28237826097E+02  0.00000000000E+00 0.  1.
          6    1    1    2  501    0  0.25028625764E+02 -0.52476453962E+02  0.31302824475E+03  0.36234775056E+03  0.17300000000E+03 0.  1.
         -6    1    1    2    0  503 -0.25028625764E+02  0.52476453962E+02  0.23237366968E+04  0.23308928431E+04  0.17300000000E+03 0.  1.
<mgrwt>
<rscale>  2 0.18250811E+03</rscale>
<asrwt>0</asrwt>
<pdfrwt beam="1">  1       21 0.41000023E+00 0.18250811E+03</pdfrwt>
<pdfrwt beam="2">  1       21 0.43442830E-02 0.18250811E+03</pdfrwt>
<totfact> 0.26126048E+03</totfact>
</mgrwt>
</event>
<event>
 4    1  0.4374784E+000  0.2274603E+03  0.7546771E-02  0.1128440E+00
         21   -1    0    0  501  502  0.00000000000E+00  0.00000000000E+00  0.28717480803E+03  0.28717480803E+03  0.00000000000E+00 0. -1.
         21   -1    0    0  502  503 -0.00000000000E+00 -0.00000000000E+00 -0.24528578042E+03  0.24528578042E+03  0.00000000000E+00 0.  1.
          6    1    1    2  501    0 -0.11987511306E+03  0.86250551314E+02  0.15812382553E+03  0.27702228166E+03  0.17300000000E+03 0. -1.
         -6    1    1    2    0  503  0.11987511306E+03 -0.86250551314E+02 -0.11623479791E+03  0.25543830680E+03  0.17300000000E+03 0.  1.
<mgrwt>
<rscale>  2 0.22746033E+03</rscale>
<asrwt>0</asrwt>
<pdfrwt beam="1">  1       21 0.44180740E-01 0.22746033E+03</pdfrwt>
<pdfrwt beam="2">  1       21 0.37736274E-01 0.22746033E+03</pdfrwt>
<totfact> 0.32732681E+04</totfact>
</mgrwt>
</event>
<event>
 4    1  0.4374784E+000  0.1953076E+03  0.7546771E-02  0.1153759E+00
         21   -1    0    0  501  502  0.00000000000E+00  0.00000000000E+00  0.17018015358E+03  0.17018015358E+03  0.00000000000E+00 0. -1.
         21   -1    0    0  502  503 -0.00000000000E+00 -0.00000000000E+00 -0.22878703114E+03  0.22878703114E+03  0.00000000000E+00 0. -1.
          6    1    1    2  501    0  0.19506759230E+02  0.88518717269E+02 -0.88941505605E+00  0.19530967212E+03  0.17300000000E+03 0. -1.
         -6    1    1    2    0  503 -0.19506759230E+02 -0.88518717269E+02 -0.57717462499E+02  0.20365751260E+03  0.17300000000E+03 0. -1.
<mgrwt>
<rscale>  2 0.19530765E+03</rscale>
<asrwt>0</asrwt>
<pdfrwt beam="1">  1       21 0.26181562E-01 0.19530765E+03</pdfrwt>
<pdfrwt beam="2">  1       21 0.35198005E-01 0.19530765E+03</pdfrwt>
<totfact> 0.10779087E+05</totfact>
</mgrwt>
</event>
<event>
 4    1  0.4374784E+000  0.2590086E+03  0.7546771E-02  0.1107740E+00
         21   -1    0    0  501  502  0.00000000000E+00  0.00000000000E+00  0.87097807616E+02  0.87097807616E+02  0.00000000000E+00 0.  1.
         21   -1    0    0  502  503 -0.00000000000E+00 -0.00000000000E+00 -0.15822034765E+04  0.15822034765E+04  0.00000000000E+00 0. -1.
          6    1    1    2  501    0  0.11281086916E+03  0.15630144050E+03 -0.14963127188E+03  0.29912363669E+03  0.17300000000E+03 0.  1.
         -6    1    1    2    0  503 -0.11281086916E+03 -0.15630144050E+03 -0.13454743970E+04  0.13701776474E+04  0.17300000000E+03 0. -1.
<mgrwt>
<rscale>  2 0.25900856E+03</rscale>
<asrwt>0</asrwt>
<pdfrwt beam="1">  1       21 0.13399663E-01 0.25900856E+03</pdfrwt>
<pdfrwt beam="2">  1       21 0.24341592E+00 0.25900856E+03</pdfrwt>
<totfact> 0.32897609E+03</totfact>
</mgrwt>
</event>
<event>
 4    1  0.4374784E+000  0.2450924E+03  0.7546771E-02  0.1116446E+00
         21   -1    0    0  503  502  0.00000000000E+00  0.00000000000E+00  0.10362013035E+03  0.10362013035E+03  0.00000000000E+00 0. -1.
         21   -1    0    0  501  503 -0.00000000000E+00 -0.00000000000E+00 -0.63575031552E+03  0.63575031552E+03  0.00000000000E+00 0. -1.
          6    1    1    2  501    0 -0.17317319909E+03 -0.12341460341E+02 -0.37581775084E+03  0.44867499414E+03  0.17300000000E+03 0. -1.
         -6    1    1    2    0  502  0.17317319909E+03  0.12341460341E+02 -0.15631243433E+03  0.29069545172E+03  0.17300000000E+03 0. -1.
<mgrwt>
<rscale>  2 0.24509237E+03</rscale>
<asrwt>0</asrwt>
<pdfrwt beam="1">  1       21 0.15941559E-01 0.24509237E+03</pdfrwt>
<pdfrwt beam="2">  1       21 0.97807738E-01 0.24509237E+03</pdfrwt>
<totfact> 0.29539706E+04</totfact>
</mgrwt>
</event>
<event>
 4    1  0.4374784E+000  0.1926206E+03  0.7546771E-02  0.1156119E+00
         21   -1    0    0  503  502  0.00000000000E+00  0.00000000000E+00  0.35952854614E+02  0.35952854614E+02  0.00000000000E+00 0.  1.
         21   -1    0    0  501  503 -0.00000000000E+00 -0.00000000000E+00 -0.13892837632E+04  0.13892837632E+04  0.00000000000E+00 0.  1.
          6    1    1    2  501    0 -0.38719795211E+02  0.75329114655E+02 -0.10380579154E+04  0.10557778809E+04  0.17300000000E+03 0.  1.
         -6    1    1    2    0  502  0.38719795211E+02 -0.75329114655E+02 -0.31527299319E+03  0.36945873692E+03  0.17300000000E+03 0.  1.
<mgrwt>
<rscale>  2 0.19262061E+03</rscale>
<asrwt>0</asrwt>
<pdfrwt beam="1">  1       21 0.55312074E-02 0.19262061E+03</pdfrwt>
<pdfrwt beam="2">  1       21 0.21373600E+00 0.19262061E+03</pdfrwt>
<totfact> 0.24917439E+04</totfact>
</mgrwt>
</event>
<event>
 4    1  0.4374784E+000  0.2020590E+03  0.7546771E-02  0.1148013E+00
         21   -1    0    0  503  502  0.00000000000E+00  0.00000000000E+00  0.13425141491E+04  0.13425141491E+04  0.00000000000E+00 0. -1.
         21   -1    0    0  501  503 -0.00000000000E+00 -0.00000000000E+00 -0.31489208579E+02  0.31489208579E+02  0.00000000000E+00 0.  1.
          6    1    1    2  501    0 -0.10250154110E+03  0.19805757342E+02  0.52841618350E+03  0.56573094041E+03  0.17300000000E+03 0.  1.
         -6    1    1    2    0  502  0.10250154110E+03 -0.19805757342E+02  0.78260875705E+03  0.80827241729E+03  0.17300000000E+03 0.  1.
<mgrwt>
<rscale>  2 0.20205899E+03</rscale>
<asrwt>0</asrwt>
<pdfrwt beam="1">  1       21 0.20654059E+00 0.20205899E+03</pdfrwt>
<pdfrwt beam="2">  1       21 0.48444947E-02 0.20205899E+03</pdfrwt>
<totfact> 0.34390160E+04</totfact>
</mgrwt>
</event>
<event>
 4    1  0.4374784E+000  0.1776031E+03  0.7546771E-02  0.1170143E+00
         21   -1    0    0  501  502  0.00000000000E+00  0.00000000000E+00  0.17317672897E+03  0.17317672897E+03  0.00000000000E+00 0. -1.
         21   -1    0    0  502  503 -0.00000000000E+00 -0.00000000000E+00 -0.48593830864E+03  0.48593830864E+03  0.00000000000E+00 0. -1.
          6    1    1    2  501    0 -0.28784838071E+02  0.28023212213E+02  0.10419342715E+03  0.20591050869E+03  0.17300000000E+03 0. -1.
         -6    1    1    2    0  503  0.28784838071E+02 -0.28023212213E+02 -0.41695500683E+03  0.45320452893E+03  0.17300000000E+03 0. -1.
<mgrwt>
<rscale>  2 0.17760312E+03</rscale>
<asrwt>0</asrwt>
<pdfrwt beam="1">  1       21 0.26642574E-01 0.17760312E+03</pdfrwt>
<pdfrwt beam="2">  1       21 0.74759738E-01 0.17760312E+03</pdfrwt>
<totfact> 0.21665050E+04</totfact>
</mgrwt>
</event>
<event>
 4    1  0.4374784E+000  0.1826997E+03  0.7546771E-02  0.1165216E+00
         21   -1    0    0  503  502  0.00000000000E+00  0.00000000000E+00  0.12294415519E+03  0.12294415519E+03  0.00000000000E+00 0. -1.
         21   -1    0    0  501  503 -0.00000000000E+00 -0.00000000000E+00 -0.34047220116E+03  0.34047220116E+03  0.00000000000E+00 0. -1.
          6    1    1    2  501    0  0.10419897691E+02  0.57806516124E+02 -0.21305384926E+03  0.28066191451E+03  0.17300000000E+03 0. -1.
         -6    1    1    2    0  502 -0.10419897691E+02 -0.57806516124E+02 -0.44741967096E+01  0.18275444184E+03  0.17300000000E+03 0. -1.
<mgrwt>
<rscale>  2 0.18269966E+03</rscale>
<asrwt>0</asrwt>
<pdfrwt beam="1">  1       21 0.18914486E-01 0.18269966E+03</pdfrwt>
<pdfrwt beam="2">  1       21 0.52380338E-01 0.18269966E+03</pdfrwt>
<totfact> 0.88891151E+04</totfact>
</mgrwt>
</event>
<event>
 4    1  0.4374784E+000  0.2205150E+03  0.7546771E-02  0.1133500E+00
         21   -1    0    0  503  502  0.00000000000E+00  0.00000000000E+00  0.53556565626E+03  0.53556565626E+03  0.00000000000E+00 0. -1.
         21   -1    0    0  501  503 -0.00000000000E+00 -0.00000000000E+00 -0.21168843691E+03  0.21168843691E+03  0.00000000000E+00 0. -1.
          6    1    1    2  501    0  0.13608024564E+03  0.13417033742E+02 -0.12041317907E+03  0.25124924625E+03  0.17300000000E+03 0. -1.
         -6    1    1    2    0  502 -0.13608024564E+03 -0.13417033742E+02  0.44429039841E+03  0.49600484692E+03  0.17300000000E+03 0. -1.
<mgrwt>
<rscale>  2 0.22051497E+03</rscale>
<asrwt>0</asrwt>
<pdfrwt beam="1">  1       21 0.82394716E-01 0.22051497E+03</pdfrwt>
<pdfrwt beam="2">  1       21 0.32567452E-01 0.22051497E+03</pdfrwt>
<totfact> 0.11460689E+04</totfact>
</mgrwt>
</event>
<event>
 4    1  0.4374784E+000  0.1868342E+03  0.7546771E-02  0.1161348E+00
         21   -1    0    0  503  502  0.00000000000E+00  0.00000000000E+00  0.16391461464E+04  0.16391461464E+04  0.00000000000E+00 0. -1.
         21   -1    0    0  501  503 -0.00000000000E+00 -0.00000000000E+00 -0.52002584827E+02  0.52002584827E+02  0.00000000000E+00 0. -1.
          6    1    1    2  501    0 -0.91275408722E+01 -0.69962213734E+02  0.14380709126E+03  0.23577002110E+03  0.17300000000E+03 0. -1.
         -6    1    1    2    0  502  0.91275408722E+01  0.69962213734E+02  0.14433364703E+04  0.14553787101E+04  0.17300000000E+03 0. -1.
<mgrwt>
<rscale>  2 0.18683421E+03</rscale>
<asrwt>0</asrwt>
<pdfrwt beam="1">  1       21 0.25217629E+00 0.18683421E+03</pdfrwt>
<pdfrwt beam="2">  1       21 0.80003989E-02 0.18683421E+03</pdfrwt>
<totfact> 0.77924999E+03</totfact>
</mgrwt>
</event>
<event>
 4    1  0.4374784E+000  0.1900166E+03  0.7546771E-02  0.1158446E+00
         21   -1    0    0  503  502  0.00000000000E+00  0.00000000000E+00  0.30600845485E+02  0.30600845485E+02  0.00000000000E+00 0.  1.
         21   -1    0    0  501  503 -0.00000000000E+00 -0.00000000000E+00 -0.16988463270E+04  0.16988463270E+04  0.00000000000E+00 0.  1.
          6    1    1    2  501    0  0.51439879328E+02  0.59424425359E+02 -0.13120438367E+04  0.13257320065E+04  0.17300000000E+03 0.  1.
         -6    1    1    2    0  502 -0.51439879328E+02 -0.59424425359E+02 -0.35620164482E+03  0.40371516603E+03  0.17300000000E+03 0.  1.
<mgrwt>
<rscale>  2 0.19001664E+03</rscale>
<asrwt>0</asrwt>
<pdfrwt beam="1">  1       21 0.47078232E-02 0.19001664E+03</pdfrwt>
<pdfrwt beam="2">  1       21 0.26136093E+00 0.19001664E+03</pdfrwt>
<totfact> 0.17036406E+04</totfact>
</mgrwt>
</event>
<event>
 4    1  0.4374784E+000  0.3238217E+03  0.7546771E-02  0.1073904E+00
         21   -1    0    0  503  502  0.00000000000E+00  0.00000000000E+00  0.32992338295E+03  0.32992338295E+03  0.00000000000E+00 0.  1.
         21   -1    0    0  501  503 -0.00000000000E+00 -0.00000000000E+00 -0.36425123039E+03  0.36425123039E+03  0.00000000000E+00 0. -1.
          6    1    1    2  501    0  0.18730952620E+03 -0.19961617772E+03  0.10673952091E+03  0.34096011840E+03  0.17300000000E+03 0.  1.
         -6    1    1    2    0  502 -0.18730952620E+03  0.19961617772E+03 -0.14106736836E+03  0.35321449493E+03  0.17300000000E+03 0. -1.
<mgrwt>
<rscale>  2 0.32382167E+03</rscale>
<asrwt>0</asrwt>
<pdfrwt beam="1">  1       21 0.50757444E-01 0.32382167E+03</pdfrwt>
<pdfrwt beam="2">  1       21 0.56038651E-01 0.32382167E+03</pdfrwt>
<totfact> 0.10320735E+04</totfact>
</mgrwt>
</event>
<event>
 4    1  0.4374784E+000  0.2724755E+03  0.7546771E-02  0.1099871E+00
         21   -1    0    0  501  502  0.00000000000E+00  0.00000000000E+00  0.43526406187E+03  0.43526406187E+03  0.00000000000E+00 0. -1.
         21   -1    0    0  502  503 -0.00000000000E+00 -0.00000000000E+00 -0.22788081430E+03  0.22788081430E+03  0.00000000000E+00 0.  1.
          6    1    1    2  501    0  0.42541230519E+02 -0.20616532590E+03  0.26997301205E+03  0.38357310272E+03  0.17300000000E+03 0. -1.
         -6    1    1    2    0  503 -0.42541230519E+02  0.20616532590E+03 -0.62589764474E+02  0.27957177346E+03  0.17300000000E+03 0.  1.
<mgrwt>
<rscale>  2 0.27247550E+03</rscale>
<asrwt>0</asrwt>
<pdfrwt beam="1">  1       21 0.66963702E-01 0.27247550E+03</pdfrwt>
<pdfrwt beam="2">  1       21 0.35058587E-01 0.27247550E+03</pdfrwt>
<totfact> 0.15330820E+04</totfact>
</mgrwt>
</event>
<event>
 4    1  0.4374784E+000  0.2137886E+03  0.7546771E-02  0.1138600E+00
         21   -1    0    0  501  502  0.00000000000E+00  0.00000000000E+00  0.44495851964E+02  0.44495851964E+02  0.00000000000E+00 0.  1.
         21   -1    0    0  502  503 -0.00000000000E+00 -0.00000000000E+00 -0.10769580377E+04  0.10769580377E+04  0.00000000000E+00 0.  1.
          6    1    1    2  501    0 -0.89735694695E+02 -0.87886688810E+02 -0.39568865703E+03  0.44975001754E+03  0.17300000000E+03 0.  1.
         -6    1    1    2    0  503  0.89735694695E+02  0.87886688810E+02 -0.63677352873E+03  0.67170387215E+03  0.17300000000E+03 0.  1.
<mgrwt>
<rscale>  2 0.21378860E+03</rscale>
<asrwt>0</asrwt>
<pdfrwt beam="1">  1       21 0.68455155E-02 0.21378860E+03</pdfrwt>
<pdfrwt beam="2">  1       21 0.16568586E+00 0.21378860E+03</pdfrwt>
<totfact> 0.35523916E+04</totfact>
</mgrwt>
</event>
<event>
 4    1  0.4374784E+000  0.1884583E+03  0.7546771E-02  0.1159859E+00
         21   -1    0    0  501  502  0.00000000000E+00  0.00000000000E+00  0.67073823396E+03  0.67073823396E+03  0.00000000000E+00 0.  1.
         21   -1    0    0  502  503 -0.00000000000E+00 -0.00000000000E+00 -0.58450601570E+02  0.58450601570E+02  0.00000000000E+00 0.  1.
          6    1    1    2  501    0 -0.74082844833E+02  0.99627856744E+01  0.41797567646E+03  0.45849775475E+03  0.17300000000E+03 0.  1.
         -6    1    1    2    0  503  0.74082844833E+02 -0.99627856744E+01  0.19431195593E+03  0.27069108078E+03  0.17300000000E+03 0.  1.
<mgrwt>
<rscale>  2 0.18845828E+03</rscale>
<asrwt>0</asrwt>
<pdfrwt beam="1">  1       21 0.10319049E+00 0.18845828E+03</pdfrwt>
<pdfrwt beam="2">  1       21 0.89924007E-02 0.18845828E+03</pdfrwt>
<totfact> 0.74656366E+04</totfact>
</mgrwt>
</event>
<event>
 4    1  0.4374784E+000  0.2323815E+03  0.7546771E-02  0.1124975E+00
         21   -1    0    0  501  502  0.00000000000E+00  0.00000000000E+00  0.21268062852E+03  0.21268062852E+03  0.00000000000E+00 0. -1.
         21   -1    0    0  502  503 -0.00000000000E+00 -0.00000000000E+00 -0.33327549916E+03  0.33327549916E+03  0.00000000000E+00 0. -1.
          6    1    1    2  501    0 -0.13096184402E+03 -0.83193585837E+02  0.72916343888E+02  0.24355280848E+03  0.17300000000E+03 0. -1.
         -6    1    1    2    0  503  0.13096184402E+03  0.83193585837E+02 -0.19351121453E+03  0.30240331920E+03  0.17300000000E+03 0. -1.
<mgrwt>
<rscale>  2 0.23238153E+03</rscale>
<asrwt>0</asrwt>
<pdfrwt beam="1">  1       21 0.32720097E-01 0.23238153E+03</pdfrwt>
<pdfrwt beam="2">  1       21 0.51273154E-01 0.23238153E+03</pdfrwt>
<totfact> 0.31846583E+04</totfact>
</mgrwt>
</event>
<event>
 4    1  0.4374784E+000  0.2044178E+03  0.7546771E-02  0.1146064E+00
         21   -1    0    0  501  502  0.00000000000E+00  0.00000000000E+00  0.61283125916E+02  0.61283125916E+02  0.00000000000E+00 0. -1.
         21   -1    0    0  502  503 -0.00000000000E+00 -0.00000000000E+00 -0.76274294413E+03  0.76274294413E+03  0.00000000000E+00 0. -1.
          6    1    1    2  501    0 -0.57912142876E+01  0.10873869925E+03 -0.21656324888E+03  0.29780242384E+03  0.17300000000E+03 0. -1.
         -6    1    1    2    0  503  0.57912142876E+01 -0.10873869925E+03 -0.48489656933E+03  0.52622364620E+03  0.17300000000E+03 0. -1.
<mgrwt>
<rscale>  2 0.20441781E+03</rscale>
<asrwt>0</asrwt>
<pdfrwt beam="1">  1       21 0.94281733E-02 0.20441781E+03</pdfrwt>
<pdfrwt beam="2">  1       21 0.11734507E+00 0.20441781E+03</pdfrwt>
<totfact> 0.49926199E+04</totfact>
</mgrwt>
</event>
<event>
 4    1  0.4374784E+000  0.1855111E+03  0.7546771E-02  0.1162574E+00
         21   -1    0    0  503  502  0.00000000000E+00  0.00000000000E+00  0.12199039131E+04  0.12199039131E+04  0.00000000000E+00 0. -1.
         21   -1    0    0  501  503 -0.00000000000E+00 -0.00000000000E+00 -0.28890945857E+02  0.28890945857E+02  0.00000000000E+00 0. -1.
          6    1    1    2  501    0  0.57976589608E+01  0.66721390343E+02  0.49969674453E+03  0.53302081880E+03  0.17300000000E+03 0.  1.
         -6    1    1    2    0  502 -0.57976589608E+01 -0.66721390343E+02  0.69131622271E+03  0.71577404015E+03  0.17300000000E+03 0.  1.
<mgrwt>
<rscale>  2 0.18551107E+03</rscale>
<asrwt>0</asrwt>
<pdfrwt beam="1">  1       21 0.18767749E+00 0.18551107E+03</pdfrwt>
<pdfrwt beam="2">  1       21 0.44447618E-02 0.18551107E+03</pdfrwt>
<totfact> 0.53268616E+04</totfact>
</mgrwt>
</event>
<event>
 4    1  0.4374784E+000  0.2167634E+03  0.7546771E-02  0.1136319E+00
         21   -1    0    0  501  502  0.00000000000E+00  0.00000000000E+00  0.19644649888E+03  0.19644649888E+03  0.00000000000E+00 0. -1.
         21   -1    0    0  502  503 -0.00000000000E+00 -0.00000000000E+00 -0.28351114881E+03  0.28351114881E+03  0.00000000000E+00 0.  1.
          6    1    1    2  501    0  0.86046382917E+02 -0.98251739773E+02  0.51360766015E+02  0.22276515138E+03  0.17300000000E+03 0. -1.
         -6    1    1    2    0  503 -0.86046382917E+02  0.98251739773E+02 -0.13842541594E+03  0.25719249631E+03  0.17300000000E+03 0.  1.
<mgrwt>
<rscale>  2 0.21676343E+03</rscale>
<asrwt>0</asrwt>
<pdfrwt beam="1">  1       21 0.30222539E-01 0.21676343E+03</pdfrwt>
<pdfrwt beam="2">  1       21 0.43617099E-01 0.21676343E+03</pdfrwt>
<totfact> 0.52462058E+04</totfact>
</mgrwt>
</event>
<event>
 4    1  0.4374784E+000  0.1852620E+03  0.7546771E-02  0.1162805E+00
         21   -1    0    0  501  502  0.00000000000E+00  0.00000000000E+00  0.84425519657E+02  0.84425519657E+02  0.00000000000E+00 0.  1.
         21   -1    0    0  502  503 -0.00000000000E+00 -0.00000000000E+00 -0.42707063957E+03  0.42707063957E+03  0.00000000000E+00 0.  1.
          6    1    1    2  501    0  0.29312238804E+02  0.59445733571E+02 -0.22740247899E+03  0.29331534231E+03  0.17300000000E+03 0.  1.
         -6    1    1    2    0  503 -0.29312238804E+02 -0.59445733571E+02 -0.11524264092E+03  0.21818081692E+03  0.17300000000E+03 0.  1.
<mgrwt>
<rscale>  2 0.18526198E+03</rscale>
<asrwt>0</asrwt>
<pdfrwt beam="1">  1       21 0.12988541E-01 0.18526198E+03</pdfrwt>
<pdfrwt beam="2">  1       21 0.65703176E-01 0.18526198E+03</pdfrwt>
<totfact> 0.10869037E+05</totfact>
</mgrwt>
</event>
<event>
 4    1  0.4374784E+000  0.2187520E+03  0.7546771E-02  0.1134817E+00
         21   -1    0    0  501  502  0.00000000000E+00  0.00000000000E+00  0.86265931473E+03  0.86265931473E+03  0.00000000000E+00 0. -1.
         21   -1    0    0  502  503 -0.00000000000E+00 -0.00000000000E+00 -0.16586711114E+03  0.16586711114E+03  0.00000000000E+00 0. -1.
          6    1    1    2  501    0  0.47076882497E+02 -0.12532840844E+03  0.76794492471E+03  0.79849348790E+03  0.17300000000E+03 0. -1.
         -6    1    1    2    0  503 -0.47076882497E+02  0.12532840844E+03 -0.71152721121E+02  0.23003293797E+03  0.17300000000E+03 0. -1.
<mgrwt>
<rscale>  2 0.21875201E+03</rscale>
<asrwt>0</asrwt>
<pdfrwt beam="1">  1       21 0.13271681E+00 0.21875201E+03</pdfrwt>
<pdfrwt beam="2">  1       21 0.25518018E-01 0.21875201E+03</pdfrwt>
<totfact> 0.58552370E+03</totfact>
</mgrwt>
</event>
<event>
 4    1  0.4374784E+000  0.1998119E+03  0.7546771E-02  0.1149898E+00
         21   -1    0    0  501  502  0.00000000000E+00  0.00000000000E+00  0.29836920920E+03  0.29836920920E+03  0.00000000000E+00 0.  1.
         21   -1    0    0  502  503 -0.00000000000E+00 -0.00000000000E+00 -0.13437346963E+03  0.13437346963E+03  0.00000000000E+00 0.  1.
          6    1    1    2  501    0  0.67377204687E+02 -0.73865369937E+02  0.96009300474E+02  0.22168122691E+03  0.17300000000E+03 0.  1.
         -6    1    1    2    0  503 -0.67377204687E+02  0.73865369937E+02  0.67986439098E+02  0.21106145193E+03  0.17300000000E+03 0.  1.
<mgrwt>
<rscale>  2 0.19981186E+03</rscale>
<asrwt>0</asrwt>
<pdfrwt beam="1">  1       21 0.45902955E-01 0.19981186E+03</pdfrwt>
<pdfrwt beam="2">  1       21 0.20672841E-01 0.19981186E+03</pdfrwt>
<totfact> 0.98414518E+04</totfact>
</mgrwt>
</event>
<event>
 4    1  0.4374784E+000  0.2750736E+03  0.7546771E-02  0.1098410E+00
         21   -1    0    0  501  502  0.00000000000E+00  0.00000000000E+00  0.22706601156E+03  0.22706601156E+03  0.00000000000E+00 0.  1.
         21   -1    0    0  502  503 -0.00000000000E+00 -0.00000000000E+00 -0.35732631386E+03  0.35732631386E+03  0.00000000000E+00 0.  1.
          6    1    1    2  501    0  0.17952893856E+03 -0.11621473701E+03  0.10746034979E+02  0.27528345782E+03  0.17300000000E+03 0.  1.
         -6    1    1    2    0  503 -0.17952893856E+03  0.11621473701E+03 -0.14100633728E+03  0.30910886760E+03  0.17300000000E+03 0.  1.
<mgrwt>
<rscale>  2 0.27507364E+03</rscale>
<asrwt>0</asrwt>
<pdfrwt beam="1">  1       21 0.34933233E-01 0.27507364E+03</pdfrwt>
<pdfrwt beam="2">  1       21 0.54973279E-01 0.27507364E+03</pdfrwt>
<totfact> 0.23667895E+04</totfact>
</mgrwt>
</event>
<event>
 4    1  0.4374784E+000  0.2269921E+03  0.7546771E-02  0.1128775E+00
         21   -1    0    0  501  502  0.00000000000E+00  0.00000000000E+00  0.43073351131E+03  0.43073351131E+03  0.00000000000E+00 0.  1.
         21   -1    0    0  502  503 -0.00000000000E+00 -0.00000000000E+00 -0.23377639099E+03  0.23377639099E+03  0.00000000000E+00 0.  1.
          6    1    1    2  501    0 -0.10797149241E+03  0.99692476751E+02  0.33065408495E+03  0.40107051374E+03  0.17300000000E+03 0.  1.
         -6    1    1    2    0  503  0.10797149241E+03 -0.99692476751E+02 -0.13369696463E+03  0.26343938856E+03  0.17300000000E+03 0.  1.
<mgrwt>
<rscale>  2 0.22699214E+03</rscale>
<asrwt>0</asrwt>
<pdfrwt beam="1">  1       21 0.66266694E-01 0.22699214E+03</pdfrwt>
<pdfrwt beam="2">  1       21 0.35965599E-01 0.22699214E+03</pdfrwt>
<totfact> 0.15256477E+04</totfact>
</mgrwt>
</event>
<event>
 4    1  0.4374784E+000  0.1895818E+03  0.7546771E-02  0.1158839E+00
         21   -1    0    0  503  502  0.00000000000E+00  0.00000000000E+00  0.25006286951E+03  0.25006286951E+03  0.00000000000E+00 0.  1.
         21   -1    0    0  501  503 -0.00000000000E+00 -0.00000000000E+00 -0.14914744465E+03  0.14914744465E+03  0.00000000000E+00 0.  1.
          6    1    1    2  501    0  0.75019429572E+02  0.19604266205E+02  0.12411779489E+02  0.18998761627E+03  0.17300000000E+03 0.  1.
         -6    1    1    2    0  502 -0.75019429572E+02 -0.19604266205E+02  0.88503645365E+02  0.20922269788E+03  0.17300000000E+03 0.  1.
<mgrwt>
<rscale>  2 0.18958176E+03</rscale>
<asrwt>0</asrwt>
<pdfrwt beam="1">  1       21 0.38471211E-01 0.18958176E+03</pdfrwt>
<pdfrwt beam="2">  1       21 0.22945761E-01 0.18958176E+03</pdfrwt>
<totfact> 0.11628615E+05</totfact>
</mgrwt>
</event>
<event>
 4    1  0.4374784E+000  0.2330920E+03  0.7546771E-02  0.1124482E+00
         21   -1    0    0  501  502  0.00000000000E+00  0.00000000000E+00  0.37229100895E+03  0.37229100895E+03  0.00000000000E+00 0.  1.
         21   -1    0    0  502  503 -0.00000000000E+00 -0.00000000000E+00 -0.14972473777E+03  0.14972473777E+03  0.00000000000E+00 0. -1.
          6    1    1    2  501    0 -0.11918764867E+03  0.10098099956E+03  0.15278520168E+03  0.27870266544E+03  0.17300000000E+03 0.  1.
         -6    1    1    2    0  503  0.11918764867E+03 -0.10098099956E+03  0.69781069490E+02  0.24331308129E+03  0.17300000000E+03 0. -1.
<mgrwt>
<rscale>  2 0.23309195E+03</rscale>
<asrwt>0</asrwt>
<pdfrwt beam="1">  1       21 0.57275539E-01 0.23309195E+03</pdfrwt>
<pdfrwt beam="2">  1       21 0.23034575E-01 0.23309195E+03</pdfrwt>
<totfact> 0.49710560E+04</totfact>
</mgrwt>
</event>
<event>
 4    1  0.4374784E+000  0.3156517E+03  0.7546771E-02  0.1077668E+00
         21   -1    0    0  501  502  0.00000000000E+00  0.00000000000E+00  0.46410957212E+03  0.46410957212E+03  0.00000000000E+00 0.  1.
         21   -1    0    0  502  503 -0.00000000000E+00 -0.00000000000E+00 -0.28274225180E+03  0.28274225180E+03  0.00000000000E+00 0. -1.
          6    1    1    2  501    0 -0.13789140445E+03  0.22515101162E+03  0.27389635030E+03  0.41791772894E+03  0.17300000000E+03 0.  1.
         -6    1    1    2    0  503  0.13789140445E+03 -0.22515101162E+03 -0.92529029976E+02  0.32893409498E+03  0.17300000000E+03 0. -1.
<mgrwt>
<rscale>  2 0.31565173E+03</rscale>
<asrwt>0</asrwt>
<pdfrwt beam="1">  1       21 0.71401473E-01 0.31565173E+03</pdfrwt>
<pdfrwt beam="2">  1       21 0.43498808E-01 0.31565173E+03</pdfrwt>
<totfact> 0.84048720E+03</totfact>
</mgrwt>
</event>
<event>
 4    1  0.4374784E+000  0.3203413E+03  0.7546771E-02  0.1075492E+00
         21   -1    0    0  503  502  0.00000000000E+00  0.00000000000E+00  0.23709980832E+04  0.23709980832E+04  0.00000000000E+00 0. -1.
         21   -1    0    0  501  503 -0.00000000000E+00 -0.00000000000E+00 -0.12831451548E+03  0.12831451548E+03  0.00000000000E+00 0.  1.
          6    1    1    2  501    0 -0.22010509646E+03  0.15570262245E+03  0.10404326920E+03  0.33681383877E+03  0.17300000000E+03 0.  1.
         -6    1    1    2    0  502  0.22010509646E+03 -0.15570262245E+03  0.21386402985E+04  0.21624987599E+04  0.17300000000E+03 0. -1.
<mgrwt>
<rscale>  2 0.32034132E+03</rscale>
<asrwt>0</asrwt>
<pdfrwt beam="1">  1       21 0.36476890E+00 0.32034132E+03</pdfrwt>
<pdfrwt beam="2">  1       21 0.19740696E-01 0.32034132E+03</pdfrwt>
<totfact> 0.28865334E+02</totfact>
</mgrwt>
</event>
<event>
 4    1  0.4374784E+000  0.1787665E+03  0.7546771E-02  0.1169002E+00
         21   -1    0    0  501  502  0.00000000000E+00  0.00000000000E+00  0.69012150737E+03  0.69012150737E+03  0.00000000000E+00 0.  1.
         21   -1    0    0  502  503 -0.00000000000E+00 -0.00000000000E+00 -0.65076794551E+02  0.65076794551E+02  0.00000000000E+00 0.  1.
          6    1    1    2  501    0  0.46069962268E+01 -0.44802142898E+02  0.51531289832E+03  0.54544004217E+03  0.17300000000E+03 0.  1.
         -6    1    1    2    0  503 -0.46069962268E+01  0.44802142898E+02  0.10973181450E+03  0.20975825976E+03  0.17300000000E+03 0.  1.
<mgrwt>
<rscale>  2 0.17876649E+03</rscale>
<asrwt>0</asrwt>
<pdfrwt beam="1">  1       21 0.10617253E+00 0.17876649E+03</pdfrwt>
<pdfrwt beam="2">  1       21 0.10011815E-01 0.17876649E+03</pdfrwt>
<totfact> 0.57995245E+04</totfact>
</mgrwt>
</event>
<event>
 4    1  0.4374784E+000  0.1732257E+03  0.7546771E-02  0.1174525E+00
         21   -1    0    0  501  502  0.00000000000E+00  0.00000000000E+00  0.40233012226E+03  0.40233012226E+03  0.00000000000E+00 0.  1.
         21   -1    0    0  502  503 -0.00000000000E+00 -0.00000000000E+00 -0.75660736861E+02  0.75660736861E+02  0.00000000000E+00 0.  1.
          6    1    1    2  501    0  0.88223232484E+01 -0.56139948922E+00  0.19185341170E+03  0.25848574455E+03  0.17300000000E+03 0. -1.
         -6    1    1    2    0  503 -0.88223232484E+01  0.56139948922E+00  0.13481597370E+03  0.21950511457E+03  0.17300000000E+03 0. -1.
<mgrwt>
<rscale>  2 0.17322572E+03</rscale>
<asrwt>0</asrwt>
<pdfrwt beam="1">  1       21 0.61896941E-01 0.17322572E+03</pdfrwt>
<pdfrwt beam="2">  1       21 0.11640114E-01 0.17322572E+03</pdfrwt>
<totfact> 0.15113285E+05</totfact>
</mgrwt>
</event>
<event>
 4    1  0.4374784E+000  0.1752422E+03  0.7546771E-02  0.1172489E+00
         21   -1    0    0  503  502  0.00000000000E+00  0.00000000000E+00  0.14271019066E+04  0.14271019066E+04  0.00000000000E+00 0. -1.
         21   -1    0    0  501  503 -0.00000000000E+00 -0.00000000000E+00 -0.22052219676E+02  0.22052219676E+02  0.00000000000E+00 0. -1.
          6    1    1    2  501    0  0.18962352178E+02 -0.20524438326E+02  0.58985530025E+03  0.61533657343E+03  0.17300000000E+03 0. -1.
         -6    1    1    2    0  502 -0.18962352178E+02  0.20524438326E+02  0.81519438666E+03  0.83381755283E+03  0.17300000000E+03 0. -1.
<mgrwt>
<rscale>  2 0.17524218E+03</rscale>
<asrwt>0</asrwt>
<pdfrwt beam="1">  1       21 0.21955407E+00 0.17524218E+03</pdfrwt>
<pdfrwt beam="2">  1       21 0.33926503E-02 0.17524218E+03</pdfrwt>
<totfact> 0.52873683E+04</totfact>
</mgrwt>
</event>
<event>
 4    1  0.4374784E+000  0.1874830E+03  0.7546771E-02  0.1160751E+00
         21   -1    0    0  501  502  0.00000000000E+00  0.00000000000E+00  0.76355477961E+02  0.76355477961E+02  0.00000000000E+00 0. -1.
         21   -1    0    0  502  503 -0.00000000000E+00 -0.00000000000E+00 -0.49025756056E+03  0.49025756056E+03  0.00000000000E+00 0.  1.
          6    1    1    2  501    0  0.37026238825E+02  0.62047830462E+02 -0.13697168135E+03  0.23218767650E+03  0.17300000000E+03 0. -1.
         -6    1    1    2    0  503 -0.37026238825E+02 -0.62047830462E+02 -0.27693040126E+03  0.33442536203E+03  0.17300000000E+03 0.  1.
<mgrwt>
<rscale>  2 0.18748300E+03</rscale>
<asrwt>0</asrwt>
<pdfrwt beam="1">  1       21 0.11746996E-01 0.18748300E+03</pdfrwt>
<pdfrwt beam="2">  1       21 0.75424243E-01 0.18748300E+03</pdfrwt>
<totfact> 0.95905008E+04</totfact>
</mgrwt>
</event>
<event>
 4    1  0.4374784E+000  0.1864337E+03  0.7546771E-02  0.1161718E+00
         21   -1    0    0  503  502  0.00000000000E+00  0.00000000000E+00  0.34354588242E+03  0.34354588242E+03  0.00000000000E+00 0. -1.
         21   -1    0    0  501  503 -0.00000000000E+00 -0.00000000000E+00 -0.10971075190E+03  0.10971075190E+03  0.00000000000E+00 0. -1.
          6    1    1    2  501    0 -0.62517880107E+01  0.69205707706E+02  0.53695999568E+02  0.19401230683E+03  0.17300000000E+03 0. -1.
         -6    1    1    2    0  502  0.62517880107E+01 -0.69205707706E+02  0.18013913096E+03  0.25924432749E+03  0.17300000000E+03 0. -1.
<mgrwt>
<rscale>  2 0.18643367E+03</rscale>
<asrwt>0</asrwt>
<pdfrwt beam="1">  1       21 0.52853212E-01 0.18643367E+03</pdfrwt>
<pdfrwt beam="2">  1       21 0.16878577E-01 0.18643367E+03</pdfrwt>
<totfact> 0.10748432E+05</totfact>
</mgrwt>
</event>
<event>
 4    1  0.4374784E+000  0.1957649E+03  0.7546771E-02  0.1153362E+00
         21   -1    0    0  501  502  0.00000000000E+00  0.00000000000E+00  0.11330600171E+03  0.11330600171E+03  0.00000000000E+00 0. -1.
         21   -1    0    0  502  503 -0.00000000000E+00 -0.00000000000E+00 -0.51957476061E+03  0.51957476061E+03  0.00000000000E+00 0.  1.
          6    1    1    2  501    0  0.86169155258E+02 -0.31141087542E+02 -0.39008036214E+03  0.43644768252E+03  0.17300000000E+03 0.  1.
         -6    1    1    2    0  503 -0.86169155258E+02  0.31141087542E+02 -0.16188396767E+02  0.19643307980E+03  0.17300000000E+03 0. -1.
<mgrwt>
<rscale>  2 0.19576489E+03</rscale>
<asrwt>0</asrwt>
<pdfrwt beam="1">  1       21 0.17431692E-01 0.19576489E+03</pdfrwt>
<pdfrwt beam="2">  1       21 0.79934580E-01 0.19576489E+03</pdfrwt>
<totfact> 0.40980590E+04</totfact>
</mgrwt>
</event>
<event>
 4    1  0.4374784E+000  0.1919380E+03  0.7546771E-02  0.1156725E+00
         21   -1    0    0  501  502  0.00000000000E+00  0.00000000000E+00  0.31435163927E+02  0.31435163927E+02  0.00000000000E+00 0.  1.
         21   -1    0    0  502  503 -0.00000000000E+00 -0.00000000000E+00 -0.12098384278E+04  0.12098384278E+04  0.00000000000E+00 0. -1.
          6    1    1    2  501    0 -0.36043108294E+02  0.74914011607E+02 -0.69904358516E+03  0.72491527004E+03  0.17300000000E+03 0. -1.
         -6    1    1    2    0  503  0.36043108294E+02 -0.74914011607E+02 -0.47935967867E+03  0.51635832164E+03  0.17300000000E+03 0.  1.
<mgrwt>
<rscale>  2 0.19193805E+03</rscale>
<asrwt>0</asrwt>
<pdfrwt beam="1">  1       21 0.48361782E-02 0.19193805E+03</pdfrwt>
<pdfrwt beam="2">  1       21 0.18612902E+00 0.19193805E+03</pdfrwt>
<totfact> 0.47113256E+04</totfact>
</mgrwt>
</event>
<event>
 4    1  0.4374784E+000  0.2340173E+03  0.7546771E-02  0.1123844E+00
         21   -1    0    0  501  502  0.00000000000E+00  0.00000000000E+00  0.39569788220E+03  0.39569788220E+03  0.00000000000E+00 0. -1.
         21   -1    0    0  502  503 -0.00000000000E+00 -0.00000000000E+00 -0.15004321735E+03  0.15004321735E+03  0.00000000000E+00 0.  1.
          6    1    1    2  501    0  0.15653327922E+03  0.18232223740E+02  0.19884399596E+03  0.30708796169E+03  0.17300000000E+03 0.  1.
         -6    1    1    2    0  503 -0.15653327922E+03 -0.18232223740E+02  0.46810668886E+02  0.23865313786E+03  0.17300000000E+03 0.  1.
<mgrwt>
<rscale>  2 0.23401727E+03</rscale>
<asrwt>0</asrwt>
<pdfrwt beam="1">  1       21 0.60876597E-01 0.23401727E+03</pdfrwt>
<pdfrwt beam="2">  1       21 0.23083572E-01 0.23401727E+03</pdfrwt>
<totfact> 0.43403728E+04</totfact>
</mgrwt>
</event>
<event>
 4    1  0.4374784E+000  0.1932299E+03  0.7546771E-02  0.1155580E+00
         21   -1    0    0  501  502  0.00000000000E+00  0.00000000000E+00  0.97032133322E+02  0.97032133322E+02  0.00000000000E+00 0. -1.
         21   -1    0    0  502  503 -0.00000000000E+00 -0.00000000000E+00 -0.38527094000E+03  0.38527094000E+03  0.00000000000E+00 0.  1.
          6    1    1    2  501    0  0.21789025083E+02  0.83270779229E+02 -0.13567155166E+03  0.23610284669E+03  0.17300000000E+03 0.  1.
         -6    1    1    2    0  503 -0.21789025083E+02 -0.83270779229E+02 -0.15256725502E+03  0.24620022663E+03  0.17300000000E+03 0.  1.
<mgrwt>
<rscale>  2 0.19322987E+03</rscale>
<asrwt>0</asrwt>
<pdfrwt beam="1">  1       21 0.14928021E-01 0.19322987E+03</pdfrwt>
<pdfrwt beam="2">  1       21 0.59272452E-01 0.19322987E+03</pdfrwt>
<totfact> 0.10524510E+05</totfact>
</mgrwt>
</event>
<event>
 4    1  0.4374784E+000  0.2053874E+03  0.7546771E-02  0.1145272E+00
         21   -1    0    0  503  502  0.00000000000E+00  0.00000000000E+00  0.18778481253E+03  0.18778481253E+03  0.00000000000E+00 0. -1.
         21   -1    0    0  501  503 -0.00000000000E+00 -0.00000000000E+00 -0.44607009354E+03  0.44607009354E+03  0.00000000000E+00 0.  1.
          6    1    1    2  501    0 -0.95033594825E+02 -0.56776730940E+02 -0.35243641923E+03  0.40791593609E+03  0.17300000000E+03 0.  1.
         -6    1    1    2    0  502  0.95033594825E+02  0.56776730940E+02  0.94151138219E+02  0.22593896997E+03  0.17300000000E+03 0. -1.
<mgrwt>
<rscale>  2 0.20538739E+03</rscale>
<asrwt>0</asrwt>
<pdfrwt beam="1">  1       21 0.28889971E-01 0.20538739E+03</pdfrwt>
<pdfrwt beam="2">  1       21 0.68626168E-01 0.20538739E+03</pdfrwt>
<totfact> 0.22028140E+04</totfact>
</mgrwt>
</event>
<event>
 4    1  0.4374784E+000  0.2234079E+03  0.7546771E-02  0.1131368E+00
         21   -1    0    0  501  502  0.00000000000E+00  0.00000000000E+00  0.25713642317E+03  0.25713642317E+03  0.00000000000E+00 0. -1.
         21   -1    0    0  502  503 -0.00000000000E+00 -0.00000000000E+00 -0.19427856359E+03  0.19427856359E+03  0.00000000000E+00 0.  1.
          6    1    1    2  501    0 -0.89817522180E+02 -0.10915532223E+03  0.24652978289E+02  0.22476396731E+03  0.17300000000E+03 0.  1.
         -6    1    1    2    0  503  0.89817522180E+02  0.10915532223E+03  0.38204881297E+02  0.22665101945E+03  0.17300000000E+03 0.  1.
<mgrwt>
<rscale>  2 0.22340786E+03</rscale>
<asrwt>0</asrwt>
<pdfrwt beam="1">  1       21 0.39559450E-01 0.22340786E+03</pdfrwt>
<pdfrwt beam="2">  1       21 0.29889010E-01 0.22340786E+03</pdfrwt>
<totfact> 0.65229231E+04</totfact>
</mgrwt>
</event>
<event>
 4    1  0.4374784E+000  0.2362257E+03  0.7546771E-02  0.1122333E+00
         21   -1    0    0  501  502  0.00000000000E+00  0.00000000000E+00  0.59331213416E+03  0.59331213416E+03  0.00000000000E+00 0. -1.
         21   -1    0    0  502  503 -0.00000000000E+00 -0.00000000000E+00 -0.95116283598E+02  0.95116283598E+02  0.00000000000E+00 0. -1.
          6    1    1    2  501    0 -0.11988725934E+03 -0.10724094423E+03  0.28549768858E+03  0.37055567092E+03  0.17300000000E+03 0. -1.
         -6    1    1    2    0  503  0.11988725934E+03  0.10724094423E+03  0.21269816198E+03  0.31787274683E+03  0.17300000000E+03 0. -1.
<mgrwt>
<rscale>  2 0.23622569E+03</rscale>
<asrwt>0</asrwt>
<pdfrwt beam="1">  1       21 0.91278788E-01 0.23622569E+03</pdfrwt>
<pdfrwt beam="2">  1       21 0.14633275E-01 0.23622569E+03</pdfrwt>
<totfact> 0.40828215E+04</totfact>
</mgrwt>
</event>
<event>
 4    1  0.4374784E+000  0.1769672E+03  0.7546771E-02  0.1170771E+00
         21   -1    0    0  501  502  0.00000000000E+00  0.00000000000E+00  0.23172453921E+03  0.23172453921E+03  0.00000000000E+00 0. -1.
         21   -1    0    0  502  503 -0.00000000000E+00 -0.00000000000E+00 -0.34198851157E+03  0.34198851157E+03  0.00000000000E+00 0. -1.
          6    1    1    2  501    0 -0.29062718546E+01 -0.37147380866E+02  0.16795568519E+03  0.24398050436E+03  0.17300000000E+03 0. -1.
         -6    1    1    2    0  503  0.29062718546E+01  0.37147380866E+02 -0.27821965755E+03  0.32973254642E+03  0.17300000000E+03 0. -1.
<mgrwt>
<rscale>  2 0.17696716E+03</rscale>
<asrwt>0</asrwt>
<pdfrwt beam="1">  1       21 0.35649929E-01 0.17696716E+03</pdfrwt>
<pdfrwt beam="2">  1       21 0.52613617E-01 0.17696716E+03</pdfrwt>
<totfact> 0.26215295E+04</totfact>
</mgrwt>
</event>
<event>
 4    1  0.4374784E+000  0.1834226E+03  0.7546771E-02  0.1164531E+00
         21   -1    0    0  501  502  0.00000000000E+00  0.00000000000E+00  0.25078684253E+02  0.25078684253E+02  0.00000000000E+00 0. -1.
         21   -1    0    0  502  503 -0.00000000000E+00 -0.00000000000E+00 -0.13598908379E+04  0.13598908379E+04  0.00000000000E+00 0. -1.
          6    1    1    2  501    0 -0.33123145359E+02  0.51163634844E+02 -0.58694618419E+03  0.61493876396E+03  0.17300000000E+03 0. -1.
         -6    1    1    2    0  503  0.33123145359E+02 -0.51163634844E+02 -0.74786596949E+03  0.77003075822E+03  0.17300000000E+03 0. -1.
<mgrwt>
<rscale>  2 0.18342263E+03</rscale>
<asrwt>0</asrwt>
<pdfrwt beam="1">  1       21 0.38582585E-02 0.18342263E+03</pdfrwt>
<pdfrwt beam="2">  1       21 0.20921401E+00 0.18342263E+03</pdfrwt>
<totfact> 0.49161541E+04</totfact>
</mgrwt>
</event>
<event>
 4    1  0.4374784E+000  0.2103910E+03  0.7546771E-02  0.1141257E+00
         21   -1    0    0  501  502  0.00000000000E+00  0.00000000000E+00  0.88957229126E+02  0.88957229126E+02  0.00000000000E+00 0. -1.
         21   -1    0    0  502  503 -0.00000000000E+00 -0.00000000000E+00 -0.54964160363E+03  0.54964160363E+03  0.00000000000E+00 0. -1.
          6    1    1    2  501    0 -0.25808981483E+02  0.11691571480E+03 -0.13208419916E+03  0.24841623047E+03  0.17300000000E+03 0. -1.
         -6    1    1    2    0  503  0.25808981483E+02 -0.11691571480E+03 -0.32860017534E+03  0.39018260229E+03  0.17300000000E+03 0. -1.
<mgrwt>
<rscale>  2 0.21039104E+03</rscale>
<asrwt>0</asrwt>
<pdfrwt beam="1">  1       21 0.13685728E-01 0.21039104E+03</pdfrwt>
<pdfrwt beam="2">  1       21 0.84560245E-01 0.21039104E+03</pdfrwt>
<totfact> 0.55695159E+04</totfact>
</mgrwt>
</event>
<event>
 4    1  0.4374784E+000  0.2450583E+03  0.7546771E-02  0.1116468E+00
         21   -1    0    0  503  502  0.00000000000E+00  0.00000000000E+00  0.45792915480E+03  0.45792915480E+03  0.00000000000E+00 0. -1.
         21   -1    0    0  501  503 -0.00000000000E+00 -0.00000000000E+00 -0.34073277216E+03  0.34073277216E+03  0.00000000000E+00 0.  1.
          6    1    1    2  501    0  0.17067214692E+03 -0.31553057491E+02 -0.25459512951E+03  0.35337268873E+03  0.17300000000E+03 0.  1.
         -6    1    1    2    0  502 -0.17067214692E+03  0.31553057491E+02  0.37179151215E+03  0.44528923823E+03  0.17300000000E+03 0. -1.
<mgrwt>
<rscale>  2 0.24505831E+03</rscale>
<asrwt>0</asrwt>
<pdfrwt beam="1">  1       21 0.70450639E-01 0.24505831E+03</pdfrwt>
<pdfrwt beam="2">  1       21 0.52420427E-01 0.24505831E+03</pdfrwt>
<totfact> 0.60822233E+03</totfact>
</mgrwt>
</event>
<event>
 4    1  0.4374784E+000  0.2063173E+03  0.7546771E-02  0.1144516E+00
         21   -1    0    0  501  502  0.00000000000E+00  0.00000000000E+00  0.28328640616E+03  0.28328640616E+03  0.00000000000E+00 0. -1.
         21   -1    0    0  502  503 -0.00000000000E+00 -0.00000000000E+00 -0.16510622008E+03  0.16510622008E+03  0.00000000000E+00 0. -1.
          6    1    1    2  501    0 -0.45806921474E+02 -0.10266233437E+03  0.12631708343E+03  0.24191493241E+03  0.17300000000E+03 0. -1.
         -6    1    1    2    0  503  0.45806921474E+02  0.10266233437E+03 -0.81368973544E+01  0.20647769384E+03  0.17300000000E+03 0. -1.
<mgrwt>
<rscale>  2 0.20631730E+03</rscale>
<asrwt>0</asrwt>
<pdfrwt beam="1">  1       21 0.43582524E-01 0.20631730E+03</pdfrwt>
<pdfrwt beam="2">  1       21 0.25400957E-01 0.20631730E+03</pdfrwt>
<totfact> 0.73900740E+04</totfact>
</mgrwt>
</event>
<event>
 4    1  0.4374784E+000  0.3910462E+03  0.7546771E-02  0.1046925E+00
         21   -1    0    0  503  502  0.00000000000E+00  0.00000000000E+00  0.33962750578E+03  0.33962750578E+03  0.00000000000E+00 0. -1.
         21   -1    0    0  501  503 -0.00000000000E+00 -0.00000000000E+00 -0.85689832277E+03  0.85689832277E+03  0.00000000000E+00 0.  1.
          6    1    1    2  501    0 -0.34175147485E+03 -0.78702143356E+02 -0.67076824849E+03  0.77643231586E+03  0.17300000000E+03 0.  1.
         -6    1    1    2    0  502  0.34175147485E+03  0.78702143356E+02  0.15349743150E+03  0.42009351269E+03  0.17300000000E+03 0. -1.
<mgrwt>
<rscale>  2 0.39104616E+03</rscale>
<asrwt>0</asrwt>
<pdfrwt beam="1">  1       21 0.52250386E-01 0.39104616E+03</pdfrwt>
<pdfrwt beam="2">  1       21 0.13183051E+00 0.39104616E+03</pdfrwt>
<totfact> 0.12664372E+03</totfact>
</mgrwt>
</event>
<event>
 4    1  0.4374784E+000  0.2204532E+03  0.7546771E-02  0.1133546E+00
         21   -1    0    0  503  502  0.00000000000E+00  0.00000000000E+00  0.61670905456E+03  0.61670905456E+03  0.00000000000E+00 0.  1.
         21   -1    0    0  501  503 -0.00000000000E+00 -0.00000000000E+00 -0.15596382238E+03  0.15596382238E+03  0.00000000000E+00 0. -1.
          6    1    1    2  501    0  0.10632238660E+03 -0.85826353293E+02 -0.41363391394E+02  0.22430011806E+03  0.17300000000E+03 0. -1.
         -6    1    1    2    0  502 -0.10632238660E+03  0.85826353293E+02  0.50210862358E+03  0.54837275888E+03  0.17300000000E+03 0.  1.
<mgrwt>
<rscale>  2 0.22045320E+03</rscale>
<asrwt>0</asrwt>
<pdfrwt beam="1">  1       21 0.94878314E-01 0.22045320E+03</pdfrwt>
<pdfrwt beam="2">  1       21 0.23994435E-01 0.22045320E+03</pdfrwt>
<totfact> 0.14953244E+04</totfact>
</mgrwt>
</event>
<event>
 4    1  0.4374784E+000  0.2205030E+03  0.7546771E-02  0.1133509E+00
         21   -1    0    0  501  502  0.00000000000E+00  0.00000000000E+00  0.17786620409E+03  0.17786620409E+03  0.00000000000E+00 0. -1.
         21   -1    0    0  502  503 -0.00000000000E+00 -0.00000000000E+00 -0.27337338483E+03  0.27337338483E+03  0.00000000000E+00 0.  1.
          6    1    1    2  501    0 -0.19956174862E+02  0.13525656126E+03 -0.46201867054E+02  0.22529136423E+03  0.17300000000E+03 0. -1.
         -6    1    1    2    0  503  0.19956174862E+02 -0.13525656126E+03 -0.49305313690E+02  0.22594822468E+03  0.17300000000E+03 0.  1.
<mgrwt>
<rscale>  2 0.22050303E+03</rscale>
<asrwt>0</asrwt>
<pdfrwt beam="1">  1       21 0.27364031E-01 0.22050303E+03</pdfrwt>
<pdfrwt beam="2">  1       21 0.42057444E-01 0.22050303E+03</pdfrwt>
<totfact> 0.68463087E+04</totfact>
</mgrwt>
</event>
<event>
 4    1  0.4374784E+000  0.2189459E+03  0.7546771E-02  0.1134671E+00
         21   -1    0    0  503  502  0.00000000000E+00  0.00000000000E+00  0.43728712871E+03  0.43728712871E+03  0.00000000000E+00 0. -1.
         21   -1    0    0  501  503 -0.00000000000E+00 -0.00000000000E+00 -0.18836005293E+03  0.18836005293E+03  0.00000000000E+00 0.  1.
          6    1    1    2  501    0 -0.60023983957E+02 -0.12002263223E+03 -0.77787607392E+02  0.23235365881E+03  0.17300000000E+03 0.  1.
         -6    1    1    2    0  502  0.60023983957E+02  0.12002263223E+03  0.32671468318E+03  0.39329352283E+03  0.17300000000E+03 0. -1.
<mgrwt>
<rscale>  2 0.21894591E+03</rscale>
<asrwt>0</asrwt>
<pdfrwt beam="1">  1       21 0.67274943E-01 0.21894591E+03</pdfrwt>
<pdfrwt beam="2">  1       21 0.28978470E-01 0.21894591E+03</pdfrwt>
<totfact> 0.22702773E+04</totfact>
</mgrwt>
</event>
<event>
 4    1  0.4374784E+000  0.3760257E+03  0.7546771E-02  0.1052413E+00
         21   -1    0    0  503  502  0.00000000000E+00  0.00000000000E+00  0.12870780559E+03  0.12870780559E+03  0.00000000000E+00 0.  1.
         21   -1    0    0  501  503 -0.00000000000E+00 -0.00000000000E+00 -0.11625169221E+04  0.11625169221E+04  0.00000000000E+00 0. -1.
          6    1    1    2  501    0 -0.31068528967E+03 -0.12223336112E+03 -0.66831668291E+03  0.76683931332E+03  0.17300000000E+03 0. -1.
         -6    1    1    2    0  502  0.31068528967E+03  0.12223336112E+03 -0.36549243358E+03  0.52438541436E+03  0.17300000000E+03 0.  1.
<mgrwt>
<rscale>  2 0.37602572E+03</rscale>
<asrwt>0</asrwt>
<pdfrwt beam="1">  1       21 0.19801202E-01 0.37602572E+03</pdfrwt>
<pdfrwt beam="2">  1       21 0.17884875E+00 0.37602572E+03</pdfrwt>
<totfact> 0.38687933E+03</totfact>
</mgrwt>
</event>
<event>
 4    1  0.4374784E+000  0.2106594E+03  0.7546771E-02  0.1141045E+00
         21   -1    0    0  503  502  0.00000000000E+00  0.00000000000E+00  0.71880143696E+02  0.71880143696E+02  0.00000000000E+00 0.  1.
         21   -1    0    0  501  503 -0.00000000000E+00 -0.00000000000E+00 -0.61809098698E+03  0.61809098698E+03  0.00000000000E+00 0.  1.
          6    1    1    2  501    0  0.10010487634E+03  0.66538592813E+02 -0.28480509506E+03  0.35424753037E+03  0.17300000000E+03 0.  1.
         -6    1    1    2    0  502 -0.10010487634E+03 -0.66538592813E+02 -0.26140574822E+03  0.33572360031E+03  0.17300000000E+03 0.  1.
<mgrwt>
<rscale>  2 0.21065937E+03</rscale>
<asrwt>0</asrwt>
<pdfrwt beam="1">  1       21 0.11058483E-01 0.21065937E+03</pdfrwt>
<pdfrwt beam="2">  1       21 0.95090923E-01 0.21065937E+03</pdfrwt>
<totfact> 0.62210283E+04</totfact>
</mgrwt>
</event>
<event>
 4    1  0.4374784E+000  0.1971425E+03  0.7546771E-02  0.1152173E+00
         21   -1    0    0  503  502  0.00000000000E+00  0.00000000000E+00  0.79583266026E+02  0.79583266026E+02  0.00000000000E+00 0.  1.
         21   -1    0    0  501  503 -0.00000000000E+00 -0.00000000000E+00 -0.50291416373E+03  0.50291416373E+03  0.00000000000E+00 0. -1.
          6    1    1    2  501    0  0.60074617930E+01  0.94340197200E+02 -0.26121428629E+03  0.32725840825E+03  0.17300000000E+03 0.  1.
         -6    1    1    2    0  502 -0.60074617930E+01 -0.94340197200E+02 -0.16211661141E+03  0.25523902151E+03  0.17300000000E+03 0. -1.
<mgrwt>
<rscale>  2 0.19714249E+03</rscale>
<asrwt>0</asrwt>
<pdfrwt beam="1">  1       21 0.12243579E-01 0.19714249E+03</pdfrwt>
<pdfrwt beam="2">  1       21 0.77371409E-01 0.19714249E+03</pdfrwt>
<totfact> 0.83779643E+04</totfact>
</mgrwt>
</event>
<event>
 4    1  0.4374784E+000  0.2122887E+03  0.7546771E-02  0.1139766E+00
         21   -1    0    0  503  502  0.00000000000E+00  0.00000000000E+00  0.57427598553E+03  0.57427598553E+03  0.00000000000E+00 0.  1.
         21   -1    0    0  501  503 -0.00000000000E+00 -0.00000000000E+00 -0.11229934337E+03  0.11229934337E+03  0.00000000000E+00 0. -1.
          6    1    1    2  501    0 -0.10803561360E+03  0.58870890898E+02  0.42587668530E+02  0.21651832512E+03  0.17300000000E+03 0. -1.
         -6    1    1    2    0  502  0.10803561360E+03 -0.58870890898E+02  0.41938897363E+03  0.47005700378E+03  0.17300000000E+03 0.  1.
<mgrwt>
<rscale>  2 0.21228866E+03</rscale>
<asrwt>0</asrwt>
<pdfrwt beam="1">  1       21 0.88350150E-01 0.21228866E+03</pdfrwt>
<pdfrwt beam="2">  1       21 0.17276822E-01 0.21228866E+03</pdfrwt>
<totfact> 0.32849785E+04</totfact>
</mgrwt>
</event>
<event>
 4    1  0.4374784E+000  0.2567143E+03  0.7546771E-02  0.1109134E+00
         21   -1    0    0  501  502  0.00000000000E+00  0.00000000000E+00  0.60781554577E+03  0.60781554577E+03  0.00000000000E+00 0. -1.
         21   -1    0    0  502  503 -0.00000000000E+00 -0.00000000000E+00 -0.10996641758E+03  0.10996641758E+03  0.00000000000E+00 0.  1.
          6    1    1    2  501    0  0.16721864816E+03  0.89504940478E+02  0.29141944992E+03  0.38836517152E+03  0.17300000000E+03 0.  1.
         -6    1    1    2    0  503 -0.16721864816E+03 -0.89504940478E+02  0.20642967828E+03  0.32941679182E+03  0.17300000000E+03 0.  1.
<mgrwt>
<rscale>  2 0.25671426E+03</rscale>
<asrwt>0</asrwt>
<pdfrwt beam="1">  1       21 0.93510082E-01 0.25671426E+03</pdfrwt>
<pdfrwt beam="2">  1       21 0.16917911E-01 0.25671426E+03</pdfrwt>
<totfact> 0.29278898E+04</totfact>
</mgrwt>
</event>
<event>
 4    1  0.4374784E+000  0.2135203E+03  0.7546771E-02  0.1138808E+00
         21   -1    0    0  503  502  0.00000000000E+00  0.00000000000E+00  0.37732139986E+03  0.37732139986E+03  0.00000000000E+00 0.  1.
         21   -1    0    0  501  503 -0.00000000000E+00 -0.00000000000E+00 -0.12140141973E+03  0.12140141973E+03  0.00000000000E+00 0. -1.
          6    1    1    2  501    0  0.12384612149E+03  0.18001719577E+02  0.11081961603E+03  0.24056581431E+03  0.17300000000E+03 0.  1.
         -6    1    1    2    0  502 -0.12384612149E+03 -0.18001719577E+02  0.14510036410E+03  0.25815700528E+03  0.17300000000E+03 0.  1.
<mgrwt>
<rscale>  2 0.21352031E+03</rscale>
<asrwt>0</asrwt>
<pdfrwt beam="1">  1       21 0.58049446E-01 0.21352031E+03</pdfrwt>
<pdfrwt beam="2">  1       21 0.18677142E-01 0.21352031E+03</pdfrwt>
<totfact> 0.72257530E+04</totfact>
</mgrwt>
</event>
<event>
 4    1  0.4374784E+000  0.2177418E+03  0.7546771E-02  0.1135578E+00
         21   -1    0    0  501  502  0.00000000000E+00  0.00000000000E+00  0.69282224131E+03  0.69282224131E+03  0.00000000000E+00 0.  1.
         21   -1    0    0  502  503 -0.00000000000E+00 -0.00000000000E+00 -0.15057196715E+03  0.15057196715E+03  0.00000000000E+00 0. -1.
          6    1    1    2  501    0 -0.80019184325E+02 -0.10525874882E+03 -0.40336683324E+02  0.22144643164E+03  0.17300000000E+03 0. -1.
         -6    1    1    2    0  503  0.80019184325E+02  0.10525874882E+03  0.58258695748E+03  0.62194777682E+03  0.17300000000E+03 0.  1.
<mgrwt>
<rscale>  2 0.21774176E+03</rscale>
<asrwt>0</asrwt>
<pdfrwt beam="1">  1       21 0.10658804E+00 0.21774176E+03</pdfrwt>
<pdfrwt beam="2">  1       21 0.23164918E-01 0.21774176E+03</pdfrwt>
<totfact> 0.12134449E+04</totfact>
</mgrwt>
</event>
<event>
 4    1  0.4374784E+000  0.2119772E+03  0.7546771E-02  0.1140010E+00
         21   -1    0    0  503  502  0.00000000000E+00  0.00000000000E+00  0.14786201457E+03  0.14786201457E+03  0.00000000000E+00 0. -1.
         21   -1    0    0  501  503 -0.00000000000E+00 -0.00000000000E+00 -0.41177022098E+03  0.41177022098E+03  0.00000000000E+00 0. -1.
          6    1    1    2  501    0  0.12055367861E+03  0.21728758387E+02 -0.27517579888E+03  0.34735579548E+03  0.17300000000E+03 0. -1.
         -6    1    1    2    0  502 -0.12055367861E+03 -0.21728758387E+02  0.11267592471E+02  0.21227644007E+03  0.17300000000E+03 0. -1.
<mgrwt>
<rscale>  2 0.21197719E+03</rscale>
<asrwt>0</asrwt>
<pdfrwt beam="1">  1       21 0.22748002E-01 0.21197719E+03</pdfrwt>
<pdfrwt beam="2">  1       21 0.63349265E-01 0.21197719E+03</pdfrwt>
<totfact> 0.41358597E+04</totfact>
</mgrwt>
</event>
<event>
 4    1  0.4374784E+000  0.2603310E+03  0.7546771E-02  0.1106945E+00
         21   -1    0    0  501  502  0.00000000000E+00  0.00000000000E+00  0.95144832788E+02  0.95144832788E+02  0.00000000000E+00 0.  1.
         21   -1    0    0  502  503 -0.00000000000E+00 -0.00000000000E+00 -0.25150755891E+04  0.25150755891E+04  0.00000000000E+00 0.  1.
          6    1    1    2  501    0  0.18685687770E+03 -0.54108688663E+02 -0.10501756055E+03  0.28071503515E+03  0.17300000000E+03 0.  1.
         -6    1    1    2    0  503 -0.18685687770E+03  0.54108688663E+02 -0.23149131957E+04  0.23295053867E+04  0.17300000000E+03 0.  1.
<mgrwt>
<rscale>  2 0.26033103E+03</rscale>
<asrwt>0</asrwt>
<pdfrwt beam="1">  1       21 0.14637667E-01 0.26033103E+03</pdfrwt>
<pdfrwt beam="2">  1       21 0.38693469E+00 0.26033103E+03</pdfrwt>
<totfact> 0.39141889E+02</totfact>
</mgrwt>
</event>
<event>
 4    1  0.4374784E+000  0.3938607E+03  0.7546771E-02  0.1045926E+00
         21   -1    0    0  501  502  0.00000000000E+00  0.00000000000E+00  0.56575211145E+03  0.56575211145E+03  0.00000000000E+00 0.  1.
         21   -1    0    0  502  503 -0.00000000000E+00 -0.00000000000E+00 -0.30827941993E+03  0.30827941993E+03  0.00000000000E+00 0. -1.
          6    1    1    2  501    0 -0.18380545417E+03 -0.30234551839E+03 -0.16576630879E+02  0.39420938873E+03  0.17300000000E+03 0.  1.
         -6    1    1    2    0  503  0.18380545417E+03  0.30234551839E+03  0.27404932240E+03  0.47982214265E+03  0.17300000000E+03 0. -1.
<mgrwt>
<rscale>  2 0.39386071E+03</rscale>
<asrwt>0</asrwt>
<pdfrwt beam="1">  1       21 0.87038786E-01 0.39386071E+03</pdfrwt>
<pdfrwt beam="2">  1       21 0.47427603E-01 0.39386071E+03</pdfrwt>
<totfact> 0.43160063E+03</totfact>
</mgrwt>
</event>
<event>
 4    1  0.4374784E+000  0.1766981E+03  0.7546771E-02  0.1171037E+00
         21   -1    0    0  501  502  0.00000000000E+00  0.00000000000E+00  0.53958826213E+03  0.53958826213E+03  0.00000000000E+00 0. -1.
         21   -1    0    0  502  503 -0.00000000000E+00 -0.00000000000E+00 -0.58776700941E+02  0.58776700941E+02  0.00000000000E+00 0. -1.
          6    1    1    2  501    0 -0.35846061122E+02  0.28762752390E+01  0.27770741913E+03  0.32915592612E+03  0.17300000000E+03 0. -1.
         -6    1    1    2    0  503  0.35846061122E+02 -0.28762752390E+01  0.20310414206E+03  0.26920903696E+03  0.17300000000E+03 0. -1.
<mgrwt>
<rscale>  2 0.17669808E+03</rscale>
<asrwt>0</asrwt>
<pdfrwt beam="1">  1       21 0.83013576E-01 0.17669808E+03</pdfrwt>
<pdfrwt beam="2">  1       21 0.90425697E-02 0.17669808E+03</pdfrwt>
<totfact> 0.12324956E+05</totfact>
</mgrwt>
</event>
<event>
 4    1  0.4374784E+000  0.1911822E+03  0.7546771E-02  0.1157399E+00
         21   -1    0    0  503  502  0.00000000000E+00  0.00000000000E+00  0.15210501280E+04  0.15210501280E+04  0.00000000000E+00 0.  1.
         21   -1    0    0  501  503 -0.00000000000E+00 -0.00000000000E+00 -0.47017789832E+02  0.47017789832E+02  0.00000000000E+00 0.  1.
          6    1    1    2  501    0 -0.78893070674E+02 -0.19937354728E+02  0.18879759854E+03  0.26869154793E+03  0.17300000000E+03 0.  1.
         -6    1    1    2    0  502  0.78893070674E+02  0.19937354728E+02  0.12852347397E+04  0.12993763699E+04  0.17300000000E+03 0.  1.
<mgrwt>
<rscale>  2 0.19118215E+03</rscale>
<asrwt>0</asrwt>
<pdfrwt beam="1">  1       21 0.23400767E+00 0.19118215E+03</pdfrwt>
<pdfrwt beam="2">  1       21 0.72335073E-02 0.19118215E+03</pdfrwt>
<totfact> 0.11839940E+04</totfact>
</mgrwt>
</event>
<event>
 4    1  0.4374784E+000  0.2608357E+03  0.7546771E-02  0.1106642E+00
         21   -1    0    0  503  502  0.00000000000E+00  0.00000000000E+00  0.98685163279E+02  0.98685163279E+02  0.00000000000E+00 0.  1.
         21   -1    0    0  501  503 -0.00000000000E+00 -0.00000000000E+00 -0.75126415659E+03  0.75126415659E+03  0.00000000000E+00 0. -1.
          6    1    1    2  501    0  0.18106882325E+03  0.72940702396E+02 -0.44822363195E+03  0.51859395393E+03  0.17300000000E+03 0. -1.
         -6    1    1    2    0  502 -0.18106882325E+03 -0.72940702396E+02 -0.20435536136E+03  0.33135536594E+03  0.17300000000E+03 0.  1.
<mgrwt>
<rscale>  2 0.26083570E+03</rscale>
<asrwt>0</asrwt>
<pdfrwt beam="1">  1       21 0.15182332E-01 0.26083570E+03</pdfrwt>
<pdfrwt beam="2">  1       21 0.11557910E+00 0.26083570E+03</pdfrwt>
<totfact> 0.21397431E+04</totfact>
</mgrwt>
</event>
<event>
 4    1  0.4374784E+000  0.2067313E+03  0.7546771E-02  0.1144181E+00
         21   -1    0    0  503  502  0.00000000000E+00  0.00000000000E+00  0.56447783161E+02  0.56447783161E+02  0.00000000000E+00 0.  1.
         21   -1    0    0  501  503 -0.00000000000E+00 -0.00000000000E+00 -0.75854845789E+03  0.75854845789E+03  0.00000000000E+00 0.  1.
          6    1    1    2  501    0  0.61074851680E+02 -0.95282223901E+02 -0.36872349179E+03  0.42272314001E+03  0.17300000000E+03 0.  1.
         -6    1    1    2    0  502 -0.61074851680E+02  0.95282223901E+02 -0.33337718294E+03  0.39227310105E+03  0.17300000000E+03 0.  1.
<mgrwt>
<rscale>  2 0.20673132E+03</rscale>
<asrwt>0</asrwt>
<pdfrwt beam="1">  1       21 0.86842742E-02 0.20673132E+03</pdfrwt>
<pdfrwt beam="2">  1       21 0.11669976E+00 0.20673132E+03</pdfrwt>
<totfact> 0.58400308E+04</totfact>
</mgrwt>
</event>
<event>
 4    1  0.4374784E+000  0.1854951E+03  0.7546771E-02  0.1162588E+00
         21   -1    0    0  501  502  0.00000000000E+00  0.00000000000E+00  0.45634342835E+02  0.45634342835E+02  0.00000000000E+00 0. -1.
         21   -1    0    0  502  503 -0.00000000000E+00 -0.00000000000E+00 -0.81635280247E+03  0.81635280247E+03  0.00000000000E+00 0. -1.
          6    1    1    2  501    0 -0.58743946598E+02  0.32071283276E+02 -0.50446982018E+03  0.53749252827E+03  0.17300000000E+03 0. -1.
         -6    1    1    2    0  503  0.58743946598E+02 -0.32071283276E+02 -0.26624863945E+03  0.32449461703E+03  0.17300000000E+03 0. -1.
<mgrwt>
<rscale>  2 0.18549506E+03</rscale>
<asrwt>0</asrwt>
<pdfrwt beam="1">  1       21 0.70206683E-02 0.18549506E+03</pdfrwt>
<pdfrwt beam="2">  1       21 0.12559274E+00 0.18549506E+03</pdfrwt>
<totfact> 0.71189549E+04</totfact>
</mgrwt>
</event>
<event>
 4    1  0.4374784E+000  0.1860250E+03  0.7546771E-02  0.1162096E+00
         21   -1    0    0  503  502  0.00000000000E+00  0.00000000000E+00  0.57649053766E+03  0.57649053766E+03  0.00000000000E+00 0.  1.
         21   -1    0    0  501  503 -0.00000000000E+00 -0.00000000000E+00 -0.63897109839E+02  0.63897109839E+02  0.00000000000E+00 0. -1.
          6    1    1    2  501    0  0.36972787715E+02 -0.57526516456E+02  0.17750041875E+03  0.25712192786E+03  0.17300000000E+03 0. -1.
         -6    1    1    2    0  502 -0.36972787715E+02  0.57526516456E+02  0.33509300907E+03  0.38326571964E+03  0.17300000000E+03 0. -1.
<mgrwt>
<rscale>  2 0.18602496E+03</rscale>
<asrwt>0</asrwt>
<pdfrwt beam="1">  1       21 0.88690848E-01 0.18602496E+03</pdfrwt>
<pdfrwt beam="2">  1       21 0.98303250E-02 0.18602496E+03</pdfrwt>
<totfact> 0.91138819E+04</totfact>
</mgrwt>
</event>
<event>
 4    1  0.4374784E+000  0.1752385E+03  0.7546771E-02  0.1172492E+00
         21   -1    0    0  503  502  0.00000000000E+00  0.00000000000E+00  0.69158546111E+02  0.69158546111E+02  0.00000000000E+00 0. -1.
         21   -1    0    0  501  503 -0.00000000000E+00 -0.00000000000E+00 -0.46489567821E+03  0.46489567821E+03  0.00000000000E+00 0. -1.
          6    1    1    2  501    0  0.11049035272E+02 -0.25640472887E+02 -0.14129846363E+03  0.22510835358E+03  0.17300000000E+03 0.  1.
         -6    1    1    2    0  502 -0.11049035272E+02  0.25640472887E+02 -0.25443866847E+03  0.30894587074E+03  0.17300000000E+03 0.  1.
<mgrwt>
<rscale>  2 0.17523845E+03</rscale>
<asrwt>0</asrwt>
<pdfrwt beam="1">  1       21 0.10639776E-01 0.17523845E+03</pdfrwt>
<pdfrwt beam="2">  1       21 0.71522411E-01 0.17523845E+03</pdfrwt>
<totfact> 0.12927381E+05</totfact>
</mgrwt>
</event>
<event>
 4    1  0.4374784E+000  0.1766107E+03  0.7546771E-02  0.1171124E+00
         21   -1    0    0  503  502  0.00000000000E+00  0.00000000000E+00  0.29337624019E+02  0.29337624019E+02  0.00000000000E+00 0. -1.
         21   -1    0    0  501  503 -0.00000000000E+00 -0.00000000000E+00 -0.12137974594E+04  0.12137974594E+04  0.00000000000E+00 0. -1.
          6    1    1    2  501    0  0.20050231365E+02  0.29331091431E+02 -0.81118020663E+03  0.83018350522E+03  0.17300000000E+03 0. -1.
         -6    1    1    2    0  502 -0.20050231365E+02 -0.29331091431E+02 -0.37327962876E+03  0.41295157821E+03  0.17300000000E+03 0. -1.
<mgrwt>
<rscale>  2 0.17661066E+03</rscale>
<asrwt>0</asrwt>
<pdfrwt beam="1">  1       21 0.45134810E-02 0.17661066E+03</pdfrwt>
<pdfrwt beam="2">  1       21 0.18673806E+00 0.17661066E+03</pdfrwt>
<totfact> 0.52958056E+04</totfact>
</mgrwt>
</event>
<event>
 4    1  0.4374784E+000  0.2664492E+03  0.7546771E-02  0.1103329E+00
         21   -1    0    0  501  502  0.00000000000E+00  0.00000000000E+00  0.66737232236E+03  0.66737232236E+03  0.00000000000E+00 0.  1.
         21   -1    0    0  502  503 -0.00000000000E+00 -0.00000000000E+00 -0.10777405853E+03  0.10777405853E+03  0.00000000000E+00 0.  1.
          6    1    1    2  501    0  0.18945832877E+03 -0.71914508799E+02  0.32387661066E+03  0.41939386482E+03  0.17300000000E+03 0.  1.
         -6    1    1    2    0  503 -0.18945832877E+03  0.71914508799E+02  0.23572165317E+03  0.35575251607E+03  0.17300000000E+03 0.  1.
<mgrwt>
<rscale>  2 0.26644916E+03</rscale>
<asrwt>0</asrwt>
<pdfrwt beam="1">  1       21 0.10267266E+00 0.26644916E+03</pdfrwt>
<pdfrwt beam="2">  1       21 0.16580625E-01 0.26644916E+03</pdfrwt>
<totfact> 0.24219572E+04</totfact>
</mgrwt>
</event>
<event>
 4    1  0.4374784E+000  0.1941236E+03  0.7546771E-02  0.1154794E+00
         21   -1    0    0  501  502  0.00000000000E+00  0.00000000000E+00  0.36515065413E+03  0.36515065413E+03  0.00000000000E+00 0. -1.
         21   -1    0    0  502  503 -0.00000000000E+00 -0.00000000000E+00 -0.27096442228E+03  0.27096442228E+03  0.00000000000E+00 0. -1.
          6    1    1    2  501    0 -0.47088804677E+02 -0.74415190450E+02  0.29735687923E+03  0.35511278451E+03  0.17300000000E+03 0. -1.
         -6    1    1    2    0  503  0.47088804677E+02  0.74415190450E+02 -0.20317064738E+03  0.28100229190E+03  0.17300000000E+03 0. -1.
<mgrwt>
<rscale>  2 0.19412361E+03</rscale>
<asrwt>0</asrwt>
<pdfrwt beam="1">  1       21 0.56177023E-01 0.19412361E+03</pdfrwt>
<pdfrwt beam="2">  1       21 0.41686834E-01 0.19412361E+03</pdfrwt>
<totfact> 0.16507362E+04</totfact>
</mgrwt>
</event>
<event>
 4    1  0.4374784E+000  0.1732170E+03  0.7546771E-02  0.1174534E+00
         21   -1    0    0  501  502  0.00000000000E+00  0.00000000000E+00  0.33626603121E+02  0.33626603121E+02  0.00000000000E+00 0.  1.
         21   -1    0    0  502  503 -0.00000000000E+00 -0.00000000000E+00 -0.14246738130E+04  0.14246738130E+04  0.00000000000E+00 0.  1.
          6    1    1    2  501    0 -0.68810485276E+01  0.52716672854E+01 -0.24978701793E+03  0.30396988935E+03  0.17300000000E+03 0. -1.
         -6    1    1    2    0  503  0.68810485276E+01 -0.52716672854E+01 -0.11412601919E+04  0.11543305267E+04  0.17300000000E+03 0. -1.
<mgrwt>
<rscale>  2 0.17321703E+03</rscale>
<asrwt>0</asrwt>
<pdfrwt beam="1">  1       21 0.51733237E-02 0.17321703E+03</pdfrwt>
<pdfrwt beam="2">  1       21 0.21918058E+00 0.17321703E+03</pdfrwt>
<totfact> 0.26239090E+04</totfact>
</mgrwt>
</event>
<event>
 4    1  0.4374784E+000  0.1807442E+03  0.7546771E-02  0.1167085E+00
         21   -1    0    0  501  502  0.00000000000E+00  0.00000000000E+00  0.77265946892E+02  0.77265946892E+02  0.00000000000E+00 0. -1.
         21   -1    0    0  502  503 -0.00000000000E+00 -0.00000000000E+00 -0.42355695002E+03  0.42355695002E+03  0.00000000000E+00 0. -1.
          6    1    1    2  501    0 -0.35640306166E+02 -0.38330721228E+02 -0.16259878529E+03  0.24311898443E+03  0.17300000000E+03 0. -1.
         -6    1    1    2    0  503  0.35640306166E+02  0.38330721228E+02 -0.18369221783E+03  0.25770391248E+03  0.17300000000E+03 0. -1.
<mgrwt>
<rscale>  2 0.18074423E+03</rscale>
<asrwt>0</asrwt>
<pdfrwt beam="1">  1       21 0.11887069E-01 0.18074423E+03</pdfrwt>
<pdfrwt beam="2">  1       21 0.65162608E-01 0.18074423E+03</pdfrwt>
<totfact> 0.12991458E+05</totfact>
</mgrwt>
</event>
<event>
 4    1  0.4374784E+000  0.1953899E+03  0.7546771E-02  0.1153688E+00
         21   -1    0    0  501  502  0.00000000000E+00  0.00000000000E+00  0.33275563948E+02  0.33275563948E+02  0.00000000000E+00 0. -1.
         21   -1    0    0  502  503 -0.00000000000E+00 -0.00000000000E+00 -0.12328330826E+04  0.12328330826E+04  0.00000000000E+00 0. -1.
          6    1    1    2  501    0  0.16532969232E+02  0.89302078755E+02 -0.43303684808E+03  0.47507695391E+03  0.17300000000E+03 0. -1.
         -6    1    1    2    0  503 -0.16532969232E+02 -0.89302078755E+02 -0.76652067057E+03  0.79103169263E+03  0.17300000000E+03 0. -1.
<mgrwt>
<rscale>  2 0.19538987E+03</rscale>
<asrwt>0</asrwt>
<pdfrwt beam="1">  1       21 0.51193171E-02 0.19538987E+03</pdfrwt>
<pdfrwt beam="2">  1       21 0.18966665E+00 0.19538987E+03</pdfrwt>
<totfact> 0.40440652E+04</totfact>
</mgrwt>
</event>
<event>
 4    1  0.4374784E+000  0.1977529E+03  0.7546771E-02  0.1151649E+00
         21   -1    0    0  501  502  0.00000000000E+00  0.00000000000E+00  0.84714451381E+02  0.84714451381E+02  0.00000000000E+00 0. -1.
         21   -1    0    0  502  503 -0.00000000000E+00 -0.00000000000E+00 -0.81923602444E+03  0.81923602444E+03  0.00000000000E+00 0.  1.
          6    1    1    2  501    0 -0.39796878689E+02 -0.87140130194E+02 -0.68642503943E+02  0.20932746402E+03  0.17300000000E+03 0. -1.
         -6    1    1    2    0  503  0.39796878689E+02  0.87140130194E+02 -0.66587906912E+03  0.69462301181E+03  0.17300000000E+03 0.  1.
<mgrwt>
<rscale>  2 0.19775286E+03</rscale>
<asrwt>0</asrwt>
<pdfrwt beam="1">  1       21 0.13032992E-01 0.19775286E+03</pdfrwt>
<pdfrwt beam="2">  1       21 0.12603631E+00 0.19775286E+03</pdfrwt>
<totfact> 0.23567811E+04</totfact>
</mgrwt>
</event>
<event>
 4    1  0.4374784E+000  0.1973718E+03  0.7546771E-02  0.1151976E+00
         21   -1    0    0  501  502  0.00000000000E+00  0.00000000000E+00  0.96270039996E+03  0.96270039996E+03  0.00000000000E+00 0.  1.
         21   -1    0    0  502  503 -0.00000000000E+00 -0.00000000000E+00 -0.10569427101E+03  0.10569427101E+03  0.00000000000E+00 0.  1.
          6    1    1    2  501    0 -0.80698727865E+02 -0.50143169127E+02  0.84816292080E+03  0.87082487465E+03  0.17300000000E+03 0.  1.
         -6    1    1    2    0  503  0.80698727865E+02  0.50143169127E+02  0.88432081512E+01  0.19756979632E+03  0.17300000000E+03 0.  1.
<mgrwt>
<rscale>  2 0.19737179E+03</rscale>
<asrwt>0</asrwt>
<pdfrwt beam="1">  1       21 0.14810775E+00 0.19737179E+03</pdfrwt>
<pdfrwt beam="2">  1       21 0.16260658E-01 0.19737179E+03</pdfrwt>
<totfact> 0.10424420E+04</totfact>
</mgrwt>
</event>
<event>
 4    1  0.4374784E+000  0.2503690E+03  0.7546771E-02  0.1113072E+00
         21   -1    0    0  503  502  0.00000000000E+00  0.00000000000E+00  0.58898248479E+02  0.58898248479E+02  0.00000000000E+00 0. -1.
         21   -1    0    0  501  503 -0.00000000000E+00 -0.00000000000E+00 -0.14648669079E+04  0.14648669079E+04  0.00000000000E+00 0.  1.
          6    1    1    2  501    0 -0.16785114012E+03  0.67687863752E+02 -0.11013972646E+04  0.11294957222E+04  0.17300000000E+03 0.  1.
         -6    1    1    2    0  502  0.16785114012E+03 -0.67687863752E+02 -0.30457139486E+03  0.39426943415E+03  0.17300000000E+03 0. -1.
<mgrwt>
<rscale>  2 0.25036903E+03</rscale>
<asrwt>0</asrwt>
<pdfrwt beam="1">  1       21 0.90612687E-02 0.25036903E+03</pdfrwt>
<pdfrwt beam="2">  1       21 0.22536415E+00 0.25036903E+03</pdfrwt>
<totfact> 0.85902031E+03</totfact>
</mgrwt>
</event>
<event>
 4    1  0.4374784E+000  0.2224248E+03  0.7546771E-02  0.1132088E+00
         21   -1    0    0  503  502  0.00000000000E+00  0.00000000000E+00  0.12309430844E+04  0.12309430844E+04  0.00000000000E+00 0.  1.
         21   -1    0    0  501  503 -0.00000000000E+00 -0.00000000000E+00 -0.84385867619E+02  0.84385867619E+02  0.00000000000E+00 0.  1.
          6    1    1    2  501    0  0.11213611471E+03  0.83482283430E+02  0.97334914570E+02  0.24278979687E+03  0.17300000000E+03 0.  1.
         -6    1    1    2    0  502 -0.11213611471E+03 -0.83482283430E+02  0.10492223022E+04  0.10725391551E+04  0.17300000000E+03 0.  1.
<mgrwt>
<rscale>  2 0.22242482E+03</rscale>
<asrwt>0</asrwt>
<pdfrwt beam="1">  1       21 0.18937585E+00 0.22242482E+03</pdfrwt>
<pdfrwt beam="2">  1       21 0.12982442E-01 0.22242482E+03</pdfrwt>
<totfact> 0.78309661E+03</totfact>
</mgrwt>
</event>
<event>
 4    1  0.4374784E+000  0.3063563E+03  0.7546771E-02  0.1082106E+00
         21   -1    0    0  501  502  0.00000000000E+00  0.00000000000E+00  0.17294857642E+04  0.17294857642E+04  0.00000000000E+00 0. -1.
         21   -1    0    0  502  503 -0.00000000000E+00 -0.00000000000E+00 -0.71699435259E+02  0.71699435259E+02  0.00000000000E+00 0.  1.
          6    1    1    2  501    0 -0.22089279524E+03  0.12301048492E+03  0.12729597335E+04  0.13093054225E+04  0.17300000000E+03 0. -1.
         -6    1    1    2    0  503  0.22089279524E+03 -0.12301048492E+03  0.38482659549E+03  0.49187977697E+03  0.17300000000E+03 0.  1.
<mgrwt>
<rscale>  2 0.30635634E+03</rscale>
<asrwt>0</asrwt>
<pdfrwt beam="1">  1       21 0.26607470E+00 0.30635634E+03</pdfrwt>
<pdfrwt beam="2">  1       21 0.11030684E-01 0.30635634E+03</pdfrwt>
<totfact> 0.33033206E+03</totfact>
</mgrwt>
</event>
<event>
 4    1  0.4374784E+000  0.1769340E+03  0.7546771E-02  0.1170804E+00
         21   -1    0    0  501  502  0.00000000000E+00  0.00000000000E+00  0.18596297022E+03  0.18596297022E+03  0.00000000000E+00 0.  1.
         21   -1    0    0  502  503 -0.00000000000E+00 -0.00000000000E+00 -0.16936917050E+03  0.16936917050E+03  0.00000000000E+00 0.  1.
          6    1    1    2  501    0 -0.35554504283E+02  0.10608102344E+02  0.22122827688E+02  0.17831173297E+03  0.17300000000E+03 0.  1.
         -6    1    1    2    0  503  0.35554504283E+02 -0.10608102344E+02 -0.55290279609E+01  0.17702040775E+03  0.17300000000E+03 0.  1.
<mgrwt>
<rscale>  2 0.17693404E+03</rscale>
<asrwt>0</asrwt>
<pdfrwt beam="1">  1       21 0.28609688E-01 0.17693404E+03</pdfrwt>
<pdfrwt beam="2">  1       21 0.26056795E-01 0.17693404E+03</pdfrwt>
<totfact> 0.16432047E+05</totfact>
</mgrwt>
</event>
<event>
 4    1  0.4374784E+000  0.1770723E+03  0.7546771E-02  0.1170667E+00
         21   -1    0    0  503  502  0.00000000000E+00  0.00000000000E+00  0.18307247279E+04  0.18307247279E+04  0.00000000000E+00 0.  1.
         21   -1    0    0  501  503 -0.00000000000E+00 -0.00000000000E+00 -0.34255238255E+02  0.34255238255E+02  0.00000000000E+00 0.  1.
          6    1    1    2  501    0  0.37756578405E+02  0.19027549969E+00  0.23885045043E+03  0.29732832540E+03  0.17300000000E+03 0.  1.
         -6    1    1    2    0  502 -0.37756578405E+02 -0.19027549969E+00  0.15576190392E+04  0.15676516407E+04  0.17300000000E+03 0.  1.
<mgrwt>
<rscale>  2 0.17707229E+03</rscale>
<asrwt>0</asrwt>
<pdfrwt beam="1">  1       21 0.28164988E+00 0.17707229E+03</pdfrwt>
<pdfrwt beam="2">  1       21 0.52700381E-02 0.17707229E+03</pdfrwt>
<totfact> 0.10889119E+04</totfact>
</mgrwt>
</event>
<event>
 4    1  0.4374784E+000  0.2212596E+03  0.7546771E-02  0.1132947E+00
         21   -1    0    0  501  502  0.00000000000E+00  0.00000000000E+00  0.47125041093E+02  0.47125041093E+02  0.00000000000E+00 0. -1.
         21   -1    0    0  502  503 -0.00000000000E+00 -0.00000000000E+00 -0.10928461901E+04  0.10928461901E+04  0.00000000000E+00 0. -1.
          6    1    1    2  501    0  0.18299946698E+02  0.13671843467E+03 -0.39616293101E+03  0.45376302883E+03  0.17300000000E+03 0. -1.
         -6    1    1    2    0  503 -0.18299946698E+02 -0.13671843467E+03 -0.64955821804E+03  0.68620820241E+03  0.17300000000E+03 0. -1.
<mgrwt>
<rscale>  2 0.22125962E+03</rscale>
<asrwt>0</asrwt>
<pdfrwt beam="1">  1       21 0.72500064E-02 0.22125962E+03</pdfrwt>
<pdfrwt beam="2">  1       21 0.16813018E+00 0.22125962E+03</pdfrwt>
<totfact> 0.30754347E+04</totfact>
</mgrwt>
</event>
<event>
 4    1  0.4374784E+000  0.1988340E+03  0.7546771E-02  0.1150726E+00
         21   -1    0    0  501  502  0.00000000000E+00  0.00000000000E+00  0.37414555476E+03  0.37414555476E+03  0.00000000000E+00 0. -1.
         21   -1    0    0  502  503 -0.00000000000E+00 -0.00000000000E+00 -0.15285009309E+03  0.15285009309E+03  0.00000000000E+00 0. -1.
          6    1    1    2  501    0  0.52958680878E+01 -0.97866838080E+02  0.25704596374E+03  0.32497321688E+03  0.17300000000E+03 0. -1.
         -6    1    1    2    0  503 -0.52958680878E+01  0.97866838080E+02 -0.35750502075E+02  0.20202243097E+03  0.17300000000E+03 0. -1.
<mgrwt>
<rscale>  2 0.19883401E+03</rscale>
<asrwt>0</asrwt>
<pdfrwt beam="1">  1       21 0.57560854E-01 0.19883401E+03</pdfrwt>
<pdfrwt beam="2">  1       21 0.23515399E-01 0.19883401E+03</pdfrwt>
<totfact> 0.48046662E+04</totfact>
</mgrwt>
</event>
<event>
 4    1  0.4374784E+000  0.2286078E+03  0.7546771E-02  0.1127624E+00
         21   -1    0    0  501  502  0.00000000000E+00  0.00000000000E+00  0.58303753126E+02  0.58303753126E+02  0.00000000000E+00 0. -1.
         21   -1    0    0  502  503 -0.00000000000E+00 -0.00000000000E+00 -0.10263502912E+04  0.10263502912E+04  0.00000000000E+00 0.  1.
          6    1    1    2  501    0 -0.94878544892E+02  0.11545807944E+03 -0.29102262951E+03  0.37007523192E+03  0.17300000000E+03 0. -1.
         -6    1    1    2    0  503  0.94878544892E+02 -0.11545807944E+03 -0.67702390859E+03  0.71457881245E+03  0.17300000000E+03 0.  1.
<mgrwt>
<rscale>  2 0.22860776E+03</rscale>
<asrwt>0</asrwt>
<pdfrwt beam="1">  1       21 0.89698084E-02 0.22860776E+03</pdfrwt>
<pdfrwt beam="2">  1       21 0.15790004E+00 0.22860776E+03</pdfrwt>
<totfact> 0.25054371E+04</totfact>
</mgrwt>
</event>
<event>
 4    1  0.4374784E+000  0.2121694E+03  0.7546771E-02  0.1139860E+00
         21   -1    0    0  503  502  0.00000000000E+00  0.00000000000E+00  0.63727936781E+03  0.63727936781E+03  0.00000000000E+00 0.  1.
         21   -1    0    0  501  503 -0.00000000000E+00 -0.00000000000E+00 -0.75887296428E+02  0.75887296428E+02  0.00000000000E+00 0.  1.
          6    1    1    2  501    0 -0.27348923016E+01 -0.12279806757E+03  0.18690826945E+03  0.28275527621E+03  0.17300000000E+03 0.  1.
         -6    1    1    2    0  502  0.27348923016E+01  0.12279806757E+03  0.37448380193E+03  0.43041138803E+03  0.17300000000E+03 0.  1.
<mgrwt>
<rscale>  2 0.21216938E+03</rscale>
<asrwt>0</asrwt>
<pdfrwt beam="1">  1       21 0.98042976E-01 0.21216938E+03</pdfrwt>
<pdfrwt beam="2">  1       21 0.11674969E-01 0.21216938E+03</pdfrwt>
<totfact> 0.52504386E+04</totfact>
</mgrwt>
</event>
<event>
 4    1  0.4374784E+000  0.3200777E+03  0.7546771E-02  0.1075614E+00
         21   -1    0    0  503  502  0.00000000000E+00  0.00000000000E+00  0.52312958906E+03  0.52312958906E+03  0.00000000000E+00 0. -1.
         21   -1    0    0  501  503 -0.00000000000E+00 -0.00000000000E+00 -0.24297812634E+03  0.24297812634E+03  0.00000000000E+00 0.  1.
          6    1    1    2  501    0 -0.21137713280E+03  0.16685457572E+03 -0.28642506363E+02  0.32135670972E+03  0.17300000000E+03 0. -1.
         -6    1    1    2    0  502  0.21137713280E+03 -0.16685457572E+03  0.30879396909E+03  0.44475100568E+03  0.17300000000E+03 0. -1.
<mgrwt>
<rscale>  2 0.32007771E+03</rscale>
<asrwt>0</asrwt>
<pdfrwt beam="1">  1       21 0.80481475E-01 0.32007771E+03</pdfrwt>
<pdfrwt beam="2">  1       21 0.37381250E-01 0.32007771E+03</pdfrwt>
<totfact> 0.87209352E+03</totfact>
</mgrwt>
</event>
<event>
 4    1  0.4374784E+000  0.1812440E+03  0.7546771E-02  0.1166605E+00
         21   -1    0    0  503  502  0.00000000000E+00  0.00000000000E+00  0.16397171355E+03  0.16397171355E+03  0.00000000000E+00 0. -1.
         21   -1    0    0  501  503 -0.00000000000E+00 -0.00000000000E+00 -0.20203375572E+03  0.20203375572E+03  0.00000000000E+00 0. -1.
          6    1    1    2  501    0  0.34371853720E+02 -0.41700804614E+02 -0.35808500412E+02  0.18474747667E+03  0.17300000000E+03 0.  1.
         -6    1    1    2    0  502 -0.34371853720E+02  0.41700804614E+02 -0.22535417574E+01  0.18125799261E+03  0.17300000000E+03 0.  1.
<mgrwt>
<rscale>  2 0.18124398E+03</rscale>
<asrwt>0</asrwt>
<pdfrwt beam="1">  1       21 0.25226417E-01 0.18124398E+03</pdfrwt>
<pdfrwt beam="2">  1       21 0.31082116E-01 0.18124398E+03</pdfrwt>
<totfact> 0.14858695E+05</totfact>
</mgrwt>
</event>
<event>
 4    1  0.4374784E+000  0.4515177E+03  0.7546771E-02  0.1027270E+00
         21   -1    0    0  503  502  0.00000000000E+00  0.00000000000E+00  0.84072187921E+02  0.84072187921E+02  0.00000000000E+00 0. -1.
         21   -1    0    0  501  503 -0.00000000000E+00 -0.00000000000E+00 -0.34684467612E+04  0.34684467612E+04  0.00000000000E+00 0.  1.
          6    1    1    2  501    0 -0.18704578726E+03  0.37276418447E+03 -0.26664831315E+04  0.27044408950E+04  0.17300000000E+03 0.  1.
         -6    1    1    2    0  502  0.18704578726E+03 -0.37276418447E+03 -0.71789144172E+03  0.84807805410E+03  0.17300000000E+03 0. -1.
<mgrwt>
<rscale>  2 0.45151773E+03</rscale>
<asrwt>0</asrwt>
<pdfrwt beam="1">  1       21 0.12934183E-01 0.45151773E+03</pdfrwt>
<pdfrwt beam="2">  1       21 0.53360719E+00 0.45151773E+03</pdfrwt>
<totfact> 0.41266719E+01</totfact>
</mgrwt>
</event>
<event>
 4    1  0.4374784E+000  0.2353686E+03  0.7546771E-02  0.1122917E+00
         21   -1    0    0  503  502  0.00000000000E+00  0.00000000000E+00  0.10324941636E+04  0.10324941636E+04  0.00000000000E+00 0. -1.
         21   -1    0    0  501  503 -0.00000000000E+00 -0.00000000000E+00 -0.54284436374E+02  0.54284436374E+02  0.00000000000E+00 0. -1.
          6    1    1    2  501    0 -0.11111082544E+02  0.15920398557E+03  0.54762236979E+03  0.59606092396E+03  0.17300000000E+03 0. -1.
         -6    1    1    2    0  502  0.11111082544E+02 -0.15920398557E+03  0.43058735748E+03  0.49071767606E+03  0.17300000000E+03 0. -1.
<mgrwt>
<rscale>  2 0.23536857E+03</rscale>
<asrwt>0</asrwt>
<pdfrwt beam="1">  1       21 0.15884524E+00 0.23536857E+03</pdfrwt>
<pdfrwt beam="2">  1       21 0.83514525E-02 0.23536857E+03</pdfrwt>
<totfact> 0.27841125E+04</totfact>
</mgrwt>
</event>
<event>
 4    1  0.4374784E+000  0.1773447E+03  0.7546771E-02  0.1170398E+00
         21   -1    0    0  503  502  0.00000000000E+00  0.00000000000E+00  0.46265770261E+03  0.46265770261E+03  0.00000000000E+00 0. -1.
         21   -1    0    0  501  503 -0.00000000000E+00 -0.00000000000E+00 -0.16292204845E+03  0.16292204845E+03  0.00000000000E+00 0.  1.
          6    1    1    2  501    0  0.38982880443E+02  0.15726603131E+01 -0.88909836505E+02  0.19838371217E+03  0.17300000000E+03 0.  1.
         -6    1    1    2    0  502 -0.38982880443E+02 -0.15726603131E+01  0.38864549067E+03  0.42719603889E+03  0.17300000000E+03 0. -1.
<mgrwt>
<rscale>  2 0.17734469E+03</rscale>
<asrwt>0</asrwt>
<pdfrwt beam="1">  1       21 0.71178108E-01 0.17734469E+03</pdfrwt>
<pdfrwt beam="2">  1       21 0.25064931E-01 0.17734469E+03</pdfrwt>
<totfact> 0.27149635E+04</totfact>
</mgrwt>
</event>
<event>
 4    1  0.4374784E+000  0.2177476E+03  0.7546771E-02  0.1135574E+00
         21   -1    0    0  501  502  0.00000000000E+00  0.00000000000E+00  0.76765851233E+03  0.76765851233E+03  0.00000000000E+00 0. -1.
         21   -1    0    0  502  503 -0.00000000000E+00 -0.00000000000E+00 -0.62199699182E+02  0.62199699182E+02  0.00000000000E+00 0. -1.
          6    1    1    2  501    0  0.12017419653E+03  0.55165049404E+02  0.38743818993E+03  0.44443488972E+03  0.17300000000E+03 0. -1.
         -6    1    1    2    0  503 -0.12017419653E+03 -0.55165049404E+02  0.31802062321E+03  0.38542332178E+03  0.17300000000E+03 0. -1.
<mgrwt>
<rscale>  2 0.21774761E+03</rscale>
<asrwt>0</asrwt>
<pdfrwt beam="1">  1       21 0.11810130E+00 0.21774761E+03</pdfrwt>
<pdfrwt beam="2">  1       21 0.95691850E-02 0.21774761E+03</pdfrwt>
<totfact> 0.47550416E+04</totfact>
</mgrwt>
</event>
<event>
 4    1  0.4374784E+000  0.2165808E+03  0.7546771E-02  0.1136458E+00
         21   -1    0    0  501  502  0.00000000000E+00  0.00000000000E+00  0.13851872036E+03  0.13851872036E+03  0.00000000000E+00 0.  1.
         21   -1    0    0  502  503 -0.00000000000E+00 -0.00000000000E+00 -0.37584529739E+03  0.37584529739E+03  0.00000000000E+00 0. -1.
          6    1    1    2  501    0  0.12108129727E+03 -0.48141087810E+02 -0.37740775125E+02  0.21984451549E+03  0.17300000000E+03 0.  1.
         -6    1    1    2    0  503 -0.12108129727E+03  0.48141087810E+02 -0.19958580191E+03  0.29451950226E+03  0.17300000000E+03 0. -1.
<mgrwt>
<rscale>  2 0.21658080E+03</rscale>
<asrwt>0</asrwt>
<pdfrwt beam="1">  1       21 0.21310573E-01 0.21658080E+03</pdfrwt>
<pdfrwt beam="2">  1       21 0.57822353E-01 0.21658080E+03</pdfrwt>
<totfact> 0.56845120E+04</totfact>
</mgrwt>
</event>
<event>
 4    1  0.4374784E+000  0.1786963E+03  0.7546771E-02  0.1169071E+00
         21   -1    0    0  501  502  0.00000000000E+00  0.00000000000E+00  0.96191727807E+03  0.96191727807E+03  0.00000000000E+00 0. -1.
         21   -1    0    0  502  503 -0.00000000000E+00 -0.00000000000E+00 -0.35647065106E+02  0.35647065106E+02  0.00000000000E+00 0. -1.
          6    1    1    2  501    0 -0.44535768287E+02 -0.44639316745E+01  0.59391027818E+03  0.62021107687E+03  0.17300000000E+03 0. -1.
         -6    1    1    2    0  503  0.44535768287E+02  0.44639316745E+01  0.33235993479E+03  0.37735326631E+03  0.17300000000E+03 0. -1.
<mgrwt>
<rscale>  2 0.17869628E+03</rscale>
<asrwt>0</asrwt>
<pdfrwt beam="1">  1       21 0.14798725E+00 0.17869628E+03</pdfrwt>
<pdfrwt beam="2">  1       21 0.54841646E-02 0.17869628E+03</pdfrwt>
<totfact> 0.71711400E+04</totfact>
</mgrwt>
</event>
<event>
 4    1  0.4374784E+000  0.1969154E+03  0.7546771E-02  0.1152368E+00
         21   -1    0    0  503  502  0.00000000000E+00  0.00000000000E+00  0.35544153484E+02  0.35544153484E+02  0.00000000000E+00 0. -1.
         21   -1    0    0  501  503 -0.00000000000E+00 -0.00000000000E+00 -0.10909173742E+04  0.10909173742E+04  0.00000000000E+00 0. -1.
          6    1    1    2  501    0  0.21061219874E+02  0.91668404338E+02 -0.52696725653E+03  0.56255680672E+03  0.17300000000E+03 0. -1.
         -6    1    1    2    0  502 -0.21061219874E+02 -0.91668404338E+02 -0.52840596422E+03  0.56390472100E+03  0.17300000000E+03 0. -1.
<mgrwt>
<rscale>  2 0.19691539E+03</rscale>
<asrwt>0</asrwt>
<pdfrwt beam="1">  1       21 0.54683309E-02 0.19691539E+03</pdfrwt>
<pdfrwt beam="2">  1       21 0.16783346E+00 0.19691539E+03</pdfrwt>
<totfact> 0.50933997E+04</totfact>
</mgrwt>
</event>
<event>
 4    1  0.4374784E+000  0.1854783E+03  0.7546771E-02  0.1162604E+00
         21   -1    0    0  501  502  0.00000000000E+00  0.00000000000E+00  0.94015369448E+02  0.94015369448E+02  0.00000000000E+00 0.  1.
         21   -1    0    0  502  503 -0.00000000000E+00 -0.00000000000E+00 -0.40610089105E+03  0.40610089105E+03  0.00000000000E+00 0.  1.
          6    1    1    2  501    0  0.43064247815E+02  0.51173005202E+02 -0.77387471688E+02  0.20097518920E+03  0.17300000000E+03 0.  1.
         -6    1    1    2    0  503 -0.43064247815E+02 -0.51173005202E+02 -0.23469804991E+03  0.29914107129E+03  0.17300000000E+03 0.  1.
<mgrwt>
<rscale>  2 0.18547832E+03</rscale>
<asrwt>0</asrwt>
<pdfrwt beam="1">  1       21 0.14463903E-01 0.18547832E+03</pdfrwt>
<pdfrwt beam="2">  1       21 0.62477060E-01 0.18547832E+03</pdfrwt>
<totfact> 0.99810899E+04</totfact>
</mgrwt>
</event>
<event>
 4    1  0.4374784E+000  0.1799810E+03  0.7546771E-02  0.1167821E+00
         21   -1    0    0  501  502  0.00000000000E+00  0.00000000000E+00  0.75284071164E+02  0.75284071164E+02  0.00000000000E+00 0.  1.
         21   -1    0    0  502  503 -0.00000000000E+00 -0.00000000000E+00 -0.45436220324E+03  0.45436220324E+03  0.00000000000E+00 0.  1.
          6    1    1    2  501    0  0.28129030727E+02  0.40901153176E+02 -0.12856952444E+03  0.22118605136E+03  0.17300000000E+03 0. -1.
         -6    1    1    2    0  503 -0.28129030727E+02 -0.40901153176E+02 -0.25050860764E+03  0.30846022305E+03  0.17300000000E+03 0. -1.
<mgrwt>
<rscale>  2 0.17998096E+03</rscale>
<asrwt>0</asrwt>
<pdfrwt beam="1">  1       21 0.11582165E-01 0.17998096E+03</pdfrwt>
<pdfrwt beam="2">  1       21 0.69901877E-01 0.17998096E+03</pdfrwt>
<totfact> 0.11674230E+05</totfact>
</mgrwt>
</event>
<event>
 4    1  0.4374784E+000  0.1733352E+03  0.7546771E-02  0.1174414E+00
         21   -1    0    0  503  502  0.00000000000E+00  0.00000000000E+00  0.93970126087E+02  0.93970126087E+02  0.00000000000E+00 0.  1.
         21   -1    0    0  501  503 -0.00000000000E+00 -0.00000000000E+00 -0.33949492153E+03  0.33949492153E+03  0.00000000000E+00 0.  1.
          6    1    1    2  501    0  0.61195478178E+01  0.88681609500E+01 -0.17505642669E+03  0.24635309146E+03  0.17300000000E+03 0. -1.
         -6    1    1    2    0  502 -0.61195478178E+01 -0.88681609500E+01 -0.70468368753E+02  0.18711195616E+03  0.17300000000E+03 0. -1.
<mgrwt>
<rscale>  2 0.17333520E+03</rscale>
<asrwt>0</asrwt>
<pdfrwt beam="1">  1       21 0.14456943E-01 0.17333520E+03</pdfrwt>
<pdfrwt beam="2">  1       21 0.52229986E-01 0.17333520E+03</pdfrwt>
<totfact> 0.14684113E+05</totfact>
</mgrwt>
</event>
<event>
 4    1  0.4374784E+000  0.2031992E+03  0.7546771E-02  0.1147068E+00
         21   -1    0    0  501  502  0.00000000000E+00  0.00000000000E+00  0.67870314857E+03  0.67870314857E+03  0.00000000000E+00 0. -1.
         21   -1    0    0  502  503 -0.00000000000E+00 -0.00000000000E+00 -0.74494372118E+02  0.74494372118E+02  0.00000000000E+00 0.  1.
          6    1    1    2  501    0  0.85701181383E+02 -0.63373785963E+02  0.46335766728E+03  0.50595479745E+03  0.17300000000E+03 0. -1.
         -6    1    1    2    0  503 -0.85701181383E+02  0.63373785963E+02  0.14085110917E+03  0.24724272323E+03  0.17300000000E+03 0.  1.
<mgrwt>
<rscale>  2 0.20319924E+03</rscale>
<asrwt>0</asrwt>
<pdfrwt beam="1">  1       21 0.10441586E+00 0.20319924E+03</pdfrwt>
<pdfrwt beam="2">  1       21 0.11460673E-01 0.20319924E+03</pdfrwt>
<totfact> 0.46910951E+04</totfact>
</mgrwt>
</event>
<event>
 4    1  0.4374784E+000  0.2161414E+03  0.7546771E-02  0.1136793E+00
         21   -1    0    0  503  502  0.00000000000E+00  0.00000000000E+00  0.25973163329E+03  0.25973163329E+03  0.00000000000E+00 0.  1.
         21   -1    0    0  501  503 -0.00000000000E+00 -0.00000000000E+00 -0.22800612349E+03  0.22800612349E+03  0.00000000000E+00 0.  1.
          6    1    1    2  501    0  0.12956863219E+03  0.29837684149E+00 -0.96192631950E+02  0.23658009620E+03  0.17300000000E+03 0.  1.
         -6    1    1    2    0  502 -0.12956863219E+03 -0.29837684149E+00  0.12791814175E+03  0.25115766058E+03  0.17300000000E+03 0.  1.
<mgrwt>
<rscale>  2 0.21614143E+03</rscale>
<asrwt>0</asrwt>
<pdfrwt beam="1">  1       21 0.39958713E-01 0.21614143E+03</pdfrwt>
<pdfrwt beam="2">  1       21 0.35077865E-01 0.21614143E+03</pdfrwt>
<totfact> 0.46755948E+04</totfact>
</mgrwt>
</event>
<event>
 4    1  0.4374784E+000  0.1764322E+03  0.7546771E-02  0.1171301E+00
         21   -1    0    0  501  502  0.00000000000E+00  0.00000000000E+00  0.24139825498E+03  0.24139825498E+03  0.00000000000E+00 0.  1.
         21   -1    0    0  502  503 -0.00000000000E+00 -0.00000000000E+00 -0.12901821731E+03  0.12901821731E+03  0.00000000000E+00 0.  1.
          6    1    1    2  501    0  0.29933518619E+02 -0.17416058618E+02  0.51935105774E+02  0.18391734515E+03  0.17300000000E+03 0. -1.
         -6    1    1    2    0  503 -0.29933518619E+02  0.17416058618E+02  0.60444931892E+02  0.18649912715E+03  0.17300000000E+03 0. -1.
<mgrwt>
<rscale>  2 0.17643224E+03</rscale>
<asrwt>0</asrwt>
<pdfrwt beam="1">  1       21 0.37138193E-01 0.17643224E+03</pdfrwt>
<pdfrwt beam="2">  1       21 0.19848957E-01 0.17643224E+03</pdfrwt>
<totfact> 0.16453935E+05</totfact>
</mgrwt>
</event>
<event>
 4    1  0.4374784E+000  0.2222349E+03  0.7546771E-02  0.1132228E+00
         21   -1    0    0  503  502  0.00000000000E+00  0.00000000000E+00  0.12419419252E+03  0.12419419252E+03  0.00000000000E+00 0. -1.
         21   -1    0    0  501  503 -0.00000000000E+00 -0.00000000000E+00 -0.91485803064E+03  0.91485803064E+03  0.00000000000E+00 0.  1.
          6    1    1    2  501    0  0.23305480293E+02  0.13753623925E+03 -0.78595199904E+03  0.81676735201E+03  0.17300000000E+03 0.  1.
         -6    1    1    2    0  502 -0.23305480293E+02 -0.13753623925E+03 -0.47118390853E+01  0.22228487116E+03  0.17300000000E+03 0. -1.
<mgrwt>
<rscale>  2 0.22223493E+03</rscale>
<asrwt>0</asrwt>
<pdfrwt beam="1">  1       21 0.19106799E-01 0.22223493E+03</pdfrwt>
<pdfrwt beam="2">  1       21 0.14074739E+00 0.22223493E+03</pdfrwt>
<totfact> 0.86809304E+03</totfact>
</mgrwt>
</event>
<event>
 4    1  0.4374784E+000  0.2801623E+03  0.7546771E-02  0.1095600E+00
         21   -1    0    0  501  502  0.00000000000E+00  0.00000000000E+00  0.13937347307E+03  0.13937347307E+03  0.00000000000E+00 0.  1.
         21   -1    0    0  502  503 -0.00000000000E+00 -0.00000000000E+00 -0.62751550413E+03  0.62751550413E+03  0.00000000000E+00 0. -1.
          6    1    1    2  501    0 -0.20089282811E+03  0.90575705930E+02 -0.12128437549E+03  0.30528803879E+03  0.17300000000E+03 0.  1.
         -6    1    1    2    0  503  0.20089282811E+03 -0.90575705930E+02 -0.36685765557E+03  0.46160093841E+03  0.17300000000E+03 0. -1.
<mgrwt>
<rscale>  2 0.28016225E+03</rscale>
<asrwt>0</asrwt>
<pdfrwt beam="1">  1       21 0.21442073E-01 0.28016225E+03</pdfrwt>
<pdfrwt beam="2">  1       21 0.96540845E-01 0.28016225E+03</pdfrwt>
<totfact> 0.17233681E+04</totfact>
</mgrwt>
</event>
<event>
 4    1  0.4374784E+000  0.2102772E+03  0.7546771E-02  0.1141347E+00
         21   -1    0    0  501  502  0.00000000000E+00  0.00000000000E+00  0.71501403117E+02  0.71501403117E+02  0.00000000000E+00 0.  1.
         21   -1    0    0  502  503 -0.00000000000E+00 -0.00000000000E+00 -0.62154120157E+03  0.62154120157E+03  0.00000000000E+00 0.  1.
          6    1    1    2  501    0 -0.97884840227E+02 -0.68600715918E+02 -0.25038723018E+03  0.32697135227E+03  0.17300000000E+03 0.  1.
         -6    1    1    2    0  503  0.97884840227E+02  0.68600715918E+02 -0.29965256828E+03  0.36607125242E+03  0.17300000000E+03 0.  1.
<mgrwt>
<rscale>  2 0.21027720E+03</rscale>
<asrwt>0</asrwt>
<pdfrwt beam="1">  1       21 0.11000216E-01 0.21027720E+03</pdfrwt>
<pdfrwt beam="2">  1       21 0.95621720E-01 0.21027720E+03</pdfrwt>
<totfact> 0.61993931E+04</totfact>
</mgrwt>
</event>
<event>
 4    1  0.4374784E+000  0.2927157E+03  0.7546771E-02  0.1088940E+00
         21   -1    0    0  503  502  0.00000000000E+00  0.00000000000E+00  0.37787167073E+03  0.37787167073E+03  0.00000000000E+00 0.  1.
         21   -1    0    0  501  503 -0.00000000000E+00 -0.00000000000E+00 -0.27699702535E+03  0.27699702535E+03  0.00000000000E+00 0.  1.
          6    1    1    2  501    0  0.20996734727E+03 -0.10801475328E+03 -0.89019906311E+02  0.30595263941E+03  0.17300000000E+03 0.  1.
         -6    1    1    2    0  502 -0.20996734727E+03  0.10801475328E+03  0.18989455169E+03  0.34891605668E+03  0.17300000000E+03 0.  1.
<mgrwt>
<rscale>  2 0.29271569E+03</rscale>
<asrwt>0</asrwt>
<pdfrwt beam="1">  1       21 0.58134103E-01 0.29271569E+03</pdfrwt>
<pdfrwt beam="2">  1       21 0.42614927E-01 0.29271569E+03</pdfrwt>
<totfact> 0.13918921E+04</totfact>
</mgrwt>
</event>
<event>
 4    1  0.4374784E+000  0.2237054E+03  0.7546771E-02  0.1131150E+00
         21   -1    0    0  501  502  0.00000000000E+00  0.00000000000E+00  0.73285890093E+03  0.73285890093E+03  0.00000000000E+00 0. -1.
         21   -1    0    0  502  503 -0.00000000000E+00 -0.00000000000E+00 -0.21125614019E+03  0.21125614019E+03  0.00000000000E+00 0.  1.
          6    1    1    2  501    0  0.10931190822E+03  0.90366091965E+02  0.64914186790E+03  0.68660708452E+03  0.17300000000E+03 0. -1.
         -6    1    1    2    0  503 -0.10931190822E+03 -0.90366091965E+02 -0.12753910717E+03  0.25750795660E+03  0.17300000000E+03 0.  1.
<mgrwt>
<rscale>  2 0.22370544E+03</rscale>
<asrwt>0</asrwt>
<pdfrwt beam="1">  1       21 0.11274752E+00 0.22370544E+03</pdfrwt>
<pdfrwt beam="2">  1       21 0.32500945E-01 0.22370544E+03</pdfrwt>
<totfact> 0.54741128E+03</totfact>
</mgrwt>
</event>
<event>
 4    1  0.4374784E+000  0.2281530E+03  0.7546771E-02  0.1127947E+00
         21   -1    0    0  501  502  0.00000000000E+00  0.00000000000E+00  0.21372885280E+03  0.21372885280E+03  0.00000000000E+00 0.  1.
         21   -1    0    0  502  503 -0.00000000000E+00 -0.00000000000E+00 -0.32337086452E+03  0.32337086452E+03  0.00000000000E+00 0.  1.
          6    1    1    2  501    0 -0.12753203367E+03 -0.76553063750E+02  0.78602102700E+02  0.24131324400E+03  0.17300000000E+03 0.  1.
         -6    1    1    2    0  503  0.12753203367E+03  0.76553063750E+02 -0.18824411442E+03  0.29578647331E+03  0.17300000000E+03 0.  1.
<mgrwt>
<rscale>  2 0.22815300E+03</rscale>
<asrwt>0</asrwt>
<pdfrwt beam="1">  1       21 0.32881362E-01 0.22815300E+03</pdfrwt>
<pdfrwt beam="2">  1       21 0.49749364E-01 0.22815300E+03</pdfrwt>
<totfact> 0.33666228E+04</totfact>
</mgrwt>
</event>
<event>
 4    1  0.4374784E+000  0.2153564E+03  0.7546771E-02  0.1137393E+00
         21   -1    0    0  503  502  0.00000000000E+00  0.00000000000E+00  0.81159980874E+03  0.81159980874E+03  0.00000000000E+00 0.  1.
         21   -1    0    0  501  503 -0.00000000000E+00 -0.00000000000E+00 -0.73659256978E+02  0.73659256978E+02  0.00000000000E+00 0.  1.
          6    1    1    2  501    0 -0.12198176477E+03  0.39621247697E+02  0.15938345728E+03  0.26792066113E+03  0.17300000000E+03 0.  1.
         -6    1    1    2    0  502  0.12198176477E+03 -0.39621247697E+02  0.57855709448E+03  0.61733840459E+03  0.17300000000E+03 0.  1.
<mgrwt>
<rscale>  2 0.21535644E+03</rscale>
<asrwt>0</asrwt>
<pdfrwt beam="1">  1       21 0.12486150E+00 0.21535644E+03</pdfrwt>
<pdfrwt beam="2">  1       21 0.11332194E-01 0.21535644E+03</pdfrwt>
<totfact> 0.30684761E+04</totfact>
</mgrwt>
</event>
<event>
 4    1  0.4374784E+000  0.2281359E+03  0.7546771E-02  0.1127959E+00
         21   -1    0    0  503  502  0.00000000000E+00  0.00000000000E+00  0.12531839476E+03  0.12531839476E+03  0.00000000000E+00 0. -1.
         21   -1    0    0  501  503 -0.00000000000E+00 -0.00000000000E+00 -0.11818998142E+04  0.11818998142E+04  0.00000000000E+00 0.  1.
          6    1    1    2  501    0  0.99603615736E+00  0.14871440752E+03 -0.10546827553E+04  0.10790744560E+04  0.17300000000E+03 0.  1.
         -6    1    1    2    0  502 -0.99603615736E+00 -0.14871440752E+03 -0.18986640739E+01  0.22814375297E+03  0.17300000000E+03 0. -1.
<mgrwt>
<rscale>  2 0.22813585E+03</rscale>
<asrwt>0</asrwt>
<pdfrwt beam="1">  1       21 0.19279753E-01 0.22813585E+03</pdfrwt>
<pdfrwt beam="2">  1       21 0.18183074E+00 0.22813585E+03</pdfrwt>
<totfact> 0.42391925E+03</totfact>
</mgrwt>
</event>
<event>
 4    1  0.4374784E+000  0.1968933E+03  0.7546771E-02  0.1152387E+00
         21   -1    0    0  501  502  0.00000000000E+00  0.00000000000E+00  0.15038113225E+03  0.15038113225E+03  0.00000000000E+00 0.  1.
         21   -1    0    0  502  503 -0.00000000000E+00 -0.00000000000E+00 -0.56289557607E+03  0.56289557607E+03  0.00000000000E+00 0.  1.
          6    1    1    2  501    0 -0.51039234081E+02  0.78949108475E+02  0.56308599848E+02  0.20478677585E+03  0.17300000000E+03 0.  1.
         -6    1    1    2    0  503  0.51039234081E+02 -0.78949108475E+02 -0.46882304367E+03  0.50848993247E+03  0.17300000000E+03 0.  1.
<mgrwt>
<rscale>  2 0.19689328E+03</rscale>
<asrwt>0</asrwt>
<pdfrwt beam="1">  1       21 0.23135558E-01 0.19689328E+03</pdfrwt>
<pdfrwt beam="2">  1       21 0.86599321E-01 0.19689328E+03</pdfrwt>
<totfact> 0.20100130E+04</totfact>
</mgrwt>
</event>
<event>
 4    1  0.4374784E+000  0.1982291E+03  0.7546771E-02  0.1151242E+00
         21   -1    0    0  503  502  0.00000000000E+00  0.00000000000E+00  0.38694778441E+03  0.38694778441E+03  0.00000000000E+00 0.  1.
         21   -1    0    0  501  503 -0.00000000000E+00 -0.00000000000E+00 -0.10157771920E+03  0.10157771920E+03  0.00000000000E+00 0.  1.
          6    1    1    2  501    0 -0.96230301106E+02 -0.10272356582E+02  0.14667379314E+03  0.24659276906E+03  0.17300000000E+03 0.  1.
         -6    1    1    2    0  502  0.96230301106E+02  0.10272356582E+02  0.13869627207E+03  0.24193273455E+03  0.17300000000E+03 0.  1.
<mgrwt>
<rscale>  2 0.19822914E+03</rscale>
<asrwt>0</asrwt>
<pdfrwt beam="1">  1       21 0.59530427E-01 0.19822914E+03</pdfrwt>
<pdfrwt beam="2">  1       21 0.15627342E-01 0.19822914E+03</pdfrwt>
<totfact> 0.95713231E+04</totfact>
</mgrwt>
</event>
<event>
 4    1  0.4374784E+000  0.2044405E+03  0.7546771E-02  0.1146046E+00
         21   -1    0    0  501  502  0.00000000000E+00  0.00000000000E+00  0.60795098205E+03  0.60795098205E+03  0.00000000000E+00 0.  1.
         21   -1    0    0  502  503 -0.00000000000E+00 -0.00000000000E+00 -0.22895943153E+03  0.22895943153E+03  0.00000000000E+00 0.  1.
          6    1    1    2  501    0  0.80357469672E+02 -0.73549919841E+02  0.53953389624E+03  0.57696857699E+03  0.17300000000E+03 0.  1.
         -6    1    1    2    0  503 -0.80357469672E+02  0.73549919841E+02 -0.16054234573E+03  0.25994183659E+03  0.17300000000E+03 0.  1.
<mgrwt>
<rscale>  2 0.20444049E+03</rscale>
<asrwt>0</asrwt>
<pdfrwt beam="1">  1       21 0.93530920E-01 0.20444049E+03</pdfrwt>
<pdfrwt beam="2">  1       21 0.35224528E-01 0.20444049E+03</pdfrwt>
<totfact> 0.74003366E+03</totfact>
</mgrwt>
</event>
<event>
 4    1  0.4374784E+000  0.2636234E+03  0.7546771E-02  0.1104986E+00
         21   -1    0    0  503  502  0.00000000000E+00  0.00000000000E+00  0.13157710766E+04  0.13157710766E+04  0.00000000000E+00 0.  1.
         21   -1    0    0  501  503 -0.00000000000E+00 -0.00000000000E+00 -0.53259545753E+02  0.53259545753E+02  0.00000000000E+00 0. -1.
          6    1    1    2  501    0  0.61810087496E+02  0.18907092587E+03  0.56897790321E+03  0.62708305373E+03  0.17300000000E+03 0. -1.
         -6    1    1    2    0  502 -0.61810087496E+02 -0.18907092587E+03  0.69353362761E+03  0.74194756860E+03  0.17300000000E+03 0. -1.
<mgrwt>
<rscale>  2 0.26362341E+03</rscale>
<asrwt>0</asrwt>
<pdfrwt beam="1">  1       21 0.20242630E+00 0.26362341E+03</pdfrwt>
<pdfrwt beam="2">  1       21 0.81937773E-02 0.26362341E+03</pdfrwt>
<totfact> 0.14184966E+04</totfact>
</mgrwt>
</event>
<event>
 4    1  0.4374784E+000  0.2020733E+03  0.7546771E-02  0.1148001E+00
         21   -1    0    0  501  502  0.00000000000E+00  0.00000000000E+00  0.43723262200E+02  0.43723262200E+02  0.00000000000E+00 0. -1.
         21   -1    0    0  502  503 -0.00000000000E+00 -0.00000000000E+00 -0.17223428469E+04  0.17223428469E+04  0.00000000000E+00 0. -1.
          6    1    1    2  501    0 -0.83866930139E+02  0.62216904698E+02 -0.24186273265E+03  0.31516850517E+03  0.17300000000E+03 0. -1.
         -6    1    1    2    0  503  0.83866930139E+02 -0.62216904698E+02 -0.14367568520E+04  0.14508976039E+04  0.17300000000E+03 0. -1.
<mgrwt>
<rscale>  2 0.20207327E+03</rscale>
<asrwt>0</asrwt>
<pdfrwt beam="1">  1       21 0.67266552E-02 0.20207327E+03</pdfrwt>
<pdfrwt beam="2">  1       21 0.26497584E+00 0.20207327E+03</pdfrwt>
<totfact> 0.87262921E+03</totfact>
</mgrwt>
</event>
<event>
 4    1  0.4374784E+000  0.2141661E+03  0.7546771E-02  0.1138309E+00
         21   -1    0    0  503  502  0.00000000000E+00  0.00000000000E+00  0.52156570583E+03  0.52156570583E+03  0.00000000000E+00 0.  1.
         21   -1    0    0  501  503 -0.00000000000E+00 -0.00000000000E+00 -0.88083603166E+02  0.88083603166E+02  0.00000000000E+00 0. -1.
          6    1    1    2  501    0 -0.11637531682E+03  0.48937708674E+02  0.20448463768E+03  0.29610991328E+03  0.17300000000E+03 0. -1.
         -6    1    1    2    0  502  0.11637531682E+03 -0.48937708674E+02  0.22899746498E+03  0.31353939572E+03  0.17300000000E+03 0. -1.
<mgrwt>
<rscale>  2 0.21416609E+03</rscale>
<asrwt>0</asrwt>
<pdfrwt beam="1">  1       21 0.80240876E-01 0.21416609E+03</pdfrwt>
<pdfrwt beam="2">  1       21 0.13551324E-01 0.21416609E+03</pdfrwt>
<totfact> 0.63786911E+04</totfact>
</mgrwt>
</event>
<event>
 4    1  0.4374784E+000  0.4411549E+03  0.7546771E-02  0.1030393E+00
         21   -1    0    0  503  502  0.00000000000E+00  0.00000000000E+00  0.35114429921E+03  0.35114429921E+03  0.00000000000E+00 0. -1.
         21   -1    0    0  501  503 -0.00000000000E+00 -0.00000000000E+00 -0.57515703749E+03  0.57515703749E+03  0.00000000000E+00 0.  1.
          6    1    1    2  501    0 -0.30773771462E+03  0.26454901351E+03 -0.20033367324E+03  0.48451136435E+03  0.17300000000E+03 0. -1.
         -6    1    1    2    0  502  0.30773771462E+03 -0.26454901351E+03 -0.23679065039E+02  0.44178997235E+03  0.17300000000E+03 0.  1.
<mgrwt>
<rscale>  2 0.44115494E+03</rscale>
<asrwt>0</asrwt>
<pdfrwt beam="1">  1       21 0.54022199E-01 0.44115494E+03</pdfrwt>
<pdfrwt beam="2">  1       21 0.88485699E-01 0.44115494E+03</pdfrwt>
<totfact> 0.30920583E+03</totfact>
</mgrwt>
</event>
<event>
 4    1  0.4374784E+000  0.1747043E+03  0.7546771E-02  0.1173029E+00
         21   -1    0    0  503  502  0.00000000000E+00  0.00000000000E+00  0.28426285044E+03  0.28426285044E+03  0.00000000000E+00 0. -1.
         21   -1    0    0  501  503 -0.00000000000E+00 -0.00000000000E+00 -0.15486660360E+03  0.15486660360E+03  0.00000000000E+00 0. -1.
          6    1    1    2  501    0 -0.21325942392E+02  0.11738662140E+02 -0.56895360604E+02  0.18373533701E+03  0.17300000000E+03 0. -1.
         -6    1    1    2    0  502  0.21325942392E+02 -0.11738662140E+02  0.18629160744E+03  0.25539411703E+03  0.17300000000E+03 0. -1.
<mgrwt>
<rscale>  2 0.17470430E+03</rscale>
<asrwt>0</asrwt>
<pdfrwt beam="1">  1       21 0.43732746E-01 0.17470430E+03</pdfrwt>
<pdfrwt beam="2">  1       21 0.23825631E-01 0.17470430E+03</pdfrwt>
<totfact> 0.84013441E+04</totfact>
</mgrwt>
</event>
<event>
 4    1  0.4374784E+000  0.2126175E+03  0.7546771E-02  0.1139510E+00
         21   -1    0    0  503  502  0.00000000000E+00  0.00000000000E+00  0.50647365208E+03  0.50647365208E+03  0.00000000000E+00 0.  1.
         21   -1    0    0  501  503 -0.00000000000E+00 -0.00000000000E+00 -0.96355871945E+02  0.96355871945E+02  0.00000000000E+00 0.  1.
          6    1    1    2  501    0  0.10062142280E+03 -0.71781245595E+02  0.12324516153E+03  0.24575513786E+03  0.17300000000E+03 0.  1.
         -6    1    1    2    0  502 -0.10062142280E+03  0.71781245595E+02  0.28687261861E+03  0.35707438617E+03  0.17300000000E+03 0.  1.
<mgrwt>
<rscale>  2 0.21261754E+03</rscale>
<asrwt>0</asrwt>
<pdfrwt beam="1">  1       21 0.77919022E-01 0.21261754E+03</pdfrwt>
<pdfrwt beam="2">  1       21 0.14823981E-01 0.21261754E+03</pdfrwt>
<totfact> 0.57947825E+04</totfact>
</mgrwt>
</event>
<event>
 4    1  0.4374784E+000  0.2593989E+03  0.7546771E-02  0.1107505E+00
         21   -1    0    0  503  502  0.00000000000E+00  0.00000000000E+00  0.89358095857E+02  0.89358095857E+02  0.00000000000E+00 0.  1.
         21   -1    0    0  501  503 -0.00000000000E+00 -0.00000000000E+00 -0.10829735411E+04  0.10829735411E+04  0.00000000000E+00 0. -1.
          6    1    1    2  501    0  0.15595257854E+03 -0.11418229788E+03 -0.82035861279E+03  0.86039296690E+03  0.17300000000E+03 0. -1.
         -6    1    1    2    0  502 -0.15595257854E+03  0.11418229788E+03 -0.17325683250E+03  0.31193867011E+03  0.17300000000E+03 0.  1.
<mgrwt>
<rscale>  2 0.25939893E+03</rscale>
<asrwt>0</asrwt>
<pdfrwt beam="1">  1       21 0.13747399E-01 0.25939893E+03</pdfrwt>
<pdfrwt beam="2">  1       21 0.16661132E+00 0.25939893E+03</pdfrwt>
<totfact> 0.98945606E+03</totfact>
</mgrwt>
</event>
<event>
 4    1  0.4374784E+000  0.1849802E+03  0.7546771E-02  0.1163068E+00
         21   -1    0    0  501  502  0.00000000000E+00  0.00000000000E+00  0.18612216193E+03  0.18612216193E+03  0.00000000000E+00 0. -1.
         21   -1    0    0  502  503 -0.00000000000E+00 -0.00000000000E+00 -0.22152839797E+03  0.22152839797E+03  0.00000000000E+00 0.  1.
          6    1    1    2  501    0  0.59051170701E+02 -0.28313406523E+02  0.66362127817E+02  0.19652384527E+03  0.17300000000E+03 0. -1.
         -6    1    1    2    0  503 -0.59051170701E+02  0.28313406523E+02 -0.10176836386E+03  0.21112671464E+03  0.17300000000E+03 0.  1.
<mgrwt>
<rscale>  2 0.18498024E+03</rscale>
<asrwt>0</asrwt>
<pdfrwt beam="1">  1       21 0.28634179E-01 0.18498024E+03</pdfrwt>
<pdfrwt beam="2">  1       21 0.34081292E-01 0.18498024E+03</pdfrwt>
<totfact> 0.97057730E+04</totfact>
</mgrwt>
</event>
<event>
 4    1  0.4374784E+000  0.1805609E+03  0.7546771E-02  0.1167261E+00
         21   -1    0    0  501  502  0.00000000000E+00  0.00000000000E+00  0.66372298193E+02  0.66372298193E+02  0.00000000000E+00 0.  1.
         21   -1    0    0  502  503 -0.00000000000E+00 -0.00000000000E+00 -0.93890276496E+03  0.93890276496E+03  0.00000000000E+00 0.  1.
          6    1    1    2  501    0 -0.33900445964E+02 -0.39038504332E+02 -0.89178323485E+02  0.20138276599E+03  0.17300000000E+03 0.  1.
         -6    1    1    2    0  503  0.33900445964E+02  0.39038504332E+02 -0.78335214329E+03  0.80389229717E+03  0.17300000000E+03 0.  1.
<mgrwt>
<rscale>  2 0.18056092E+03</rscale>
<asrwt>0</asrwt>
<pdfrwt beam="1">  1       21 0.10211123E-01 0.18056092E+03</pdfrwt>
<pdfrwt beam="2">  1       21 0.14444657E+00 0.18056092E+03</pdfrwt>
<totfact> 0.26001154E+04</totfact>
</mgrwt>
</event>
<event>
 4    1  0.4374784E+000  0.2039445E+03  0.7546771E-02  0.1146453E+00
         21   -1    0    0  503  502  0.00000000000E+00  0.00000000000E+00  0.19918279875E+03  0.19918279875E+03  0.00000000000E+00 0. -1.
         21   -1    0    0  501  503 -0.00000000000E+00 -0.00000000000E+00 -0.29285207816E+03  0.29285207816E+03  0.00000000000E+00 0. -1.
          6    1    1    2  501    0 -0.15161535308E+02  0.10693223001E+03 -0.17861904001E+03  0.27110539542E+03  0.17300000000E+03 0. -1.
         -6    1    1    2    0  502  0.15161535308E+02 -0.10693223001E+03  0.84949760603E+02  0.22092948150E+03  0.17300000000E+03 0. -1.
<mgrwt>
<rscale>  2 0.20394454E+03</rscale>
<asrwt>0</asrwt>
<pdfrwt beam="1">  1       21 0.30643508E-01 0.20394454E+03</pdfrwt>
<pdfrwt beam="2">  1       21 0.45054166E-01 0.20394454E+03</pdfrwt>
<totfact> 0.48059954E+04</totfact>
</mgrwt>
</event>
<event>
 4    1  0.4374784E+000  0.3070869E+03  0.7546771E-02  0.1081751E+00
         21   -1    0    0  503  502  0.00000000000E+00  0.00000000000E+00  0.15170376135E+03  0.15170376135E+03  0.00000000000E+00 0. -1.
         21   -1    0    0  501  503 -0.00000000000E+00 -0.00000000000E+00 -0.70412429942E+03  0.70412429942E+03  0.00000000000E+00 0. -1.
          6    1    1    2  501    0 -0.58201774520E+02  0.24695323887E+03 -0.42268600830E+03  0.52246130035E+03  0.17300000000E+03 0. -1.
         -6    1    1    2    0  502  0.58201774520E+02 -0.24695323887E+03 -0.12973452977E+03  0.33336676043E+03  0.17300000000E+03 0. -1.
<mgrwt>
<rscale>  2 0.30708687E+03</rscale>
<asrwt>0</asrwt>
<pdfrwt beam="1">  1       21 0.23339040E-01 0.30708687E+03</pdfrwt>
<pdfrwt beam="2">  1       21 0.10832681E+00 0.30708687E+03</pdfrwt>
<totfact> 0.10967970E+04</totfact>
</mgrwt>
</event>
<event>
 4    1  0.4374784E+000  0.1867107E+03  0.7546771E-02  0.1161462E+00
         21   -1    0    0  503  502  0.00000000000E+00  0.00000000000E+00  0.53918007619E+02  0.53918007619E+02  0.00000000000E+00 0. -1.
         21   -1    0    0  501  503 -0.00000000000E+00 -0.00000000000E+00 -0.10409001381E+04  0.10409001381E+04  0.00000000000E+00 0. -1.
          6    1    1    2  501    0  0.55794107792E+02  0.42648546237E+02 -0.83042634262E+03  0.85115732475E+03  0.17300000000E+03 0. -1.
         -6    1    1    2    0  502 -0.55794107792E+02 -0.42648546237E+02 -0.15655578785E+03  0.24366082096E+03  0.17300000000E+03 0. -1.
<mgrwt>
<rscale>  2 0.18671069E+03</rscale>
<asrwt>0</asrwt>
<pdfrwt beam="1">  1       21 0.82950781E-02 0.18671069E+03</pdfrwt>
<pdfrwt beam="2">  1       21 0.16013848E+00 0.18671069E+03</pdfrwt>
<totfact> 0.28398672E+04</totfact>
</mgrwt>
</event>
<event>
 4    1  0.4374784E+000  0.1775600E+03  0.7546771E-02  0.1170186E+00
         21   -1    0    0  501  502  0.00000000000E+00  0.00000000000E+00  0.31573824250E+03  0.31573824250E+03  0.00000000000E+00 0. -1.
         21   -1    0    0  502  503 -0.00000000000E+00 -0.00000000000E+00 -0.10714310839E+03  0.10714310839E+03  0.00000000000E+00 0. -1.
          6    1    1    2  501    0 -0.73325209777E+01 -0.39303910854E+02  0.15944928155E+03  0.23864542036E+03  0.17300000000E+03 0. -1.
         -6    1    1    2    0  503  0.73325209777E+01  0.39303910854E+02  0.49145852566E+02  0.18423593053E+03  0.17300000000E+03 0. -1.
<mgrwt>
<rscale>  2 0.17756003E+03</rscale>
<asrwt>0</asrwt>
<pdfrwt beam="1">  1       21 0.48575114E-01 0.17756003E+03</pdfrwt>
<pdfrwt beam="2">  1       21 0.16483555E-01 0.17756003E+03</pdfrwt>
<totfact> 0.13429636E+05</totfact>
</mgrwt>
</event>
<event>
 4    1  0.4374784E+000  0.2109354E+03  0.7546771E-02  0.1140827E+00
         21   -1    0    0  503  502  0.00000000000E+00  0.00000000000E+00  0.40834851965E+03  0.40834851965E+03  0.00000000000E+00 0.  1.
         21   -1    0    0  501  503 -0.00000000000E+00 -0.00000000000E+00 -0.11411693788E+03  0.11411693788E+03  0.00000000000E+00 0.  1.
          6    1    1    2  501    0 -0.37427557808E+02 -0.11473412060E+03  0.91584261633E+02  0.22995959970E+03  0.17300000000E+03 0. -1.
         -6    1    1    2    0  502  0.37427557808E+02  0.11473412060E+03  0.20264732013E+03  0.29250585784E+03  0.17300000000E+03 0. -1.
<mgrwt>
<rscale>  2 0.21093539E+03</rscale>
<asrwt>0</asrwt>
<pdfrwt beam="1">  1       21 0.62822848E-01 0.21093539E+03</pdfrwt>
<pdfrwt beam="2">  1       21 0.17556452E-01 0.21093539E+03</pdfrwt>
<totfact> 0.68428165E+04</totfact>
</mgrwt>
</event>
<event>
 4    1  0.4374784E+000  0.1875787E+03  0.7546771E-02  0.1160663E+00
         21   -1    0    0  503  502  0.00000000000E+00  0.00000000000E+00  0.15617187731E+04  0.15617187731E+04  0.00000000000E+00 0.  1.
         21   -1    0    0  501  503 -0.00000000000E+00 -0.00000000000E+00 -0.63466985178E+02  0.63466985178E+02  0.00000000000E+00 0.  1.
          6    1    1    2  501    0  0.60879196340E+02 -0.39376313423E+02  0.96512221882E+02  0.21095113078E+03  0.17300000000E+03 0.  1.
         -6    1    1    2    0  502 -0.60879196340E+02  0.39376313423E+02  0.14017395661E+04  0.14142346275E+04  0.17300000000E+03 0.  1.
<mgrwt>
<rscale>  2 0.18757871E+03</rscale>
<asrwt>0</asrwt>
<pdfrwt beam="1">  1       21 0.24026440E+00 0.18757871E+03</pdfrwt>
<pdfrwt beam="2">  1       21 0.97641527E-02 0.18757871E+03</pdfrwt>
<totfact> 0.64575224E+03</totfact>
</mgrwt>
</event>
<event>
 4    1  0.4374784E+000  0.3103308E+03  0.7546771E-02  0.1080187E+00
         21   -1    0    0  501  502  0.00000000000E+00  0.00000000000E+00  0.93127390175E+03  0.93127390175E+03  0.00000000000E+00 0.  1.
         21   -1    0    0  502  503 -0.00000000000E+00 -0.00000000000E+00 -0.34439347665E+03  0.34439347665E+03  0.00000000000E+00 0. -1.
          6    1    1    2  501    0  0.15801476677E+03 -0.20348838362E+03  0.82698581391E+03  0.88329537823E+03  0.17300000000E+03 0.  1.
         -6    1    1    2    0  503 -0.15801476677E+03  0.20348838362E+03 -0.24010538881E+03  0.39237200017E+03  0.17300000000E+03 0. -1.
<mgrwt>
<rscale>  2 0.31033077E+03</rscale>
<asrwt>0</asrwt>
<pdfrwt beam="1">  1       21 0.14327291E+00 0.31033077E+03</pdfrwt>
<pdfrwt beam="2">  1       21 0.52983612E-01 0.31033077E+03</pdfrwt>
<totfact> 0.10335812E+03</totfact>
</mgrwt>
</event>
<event>
 4    1  0.4374784E+000  0.2299733E+03  0.7546771E-02  0.1126659E+00
         21   -1    0    0  501  502  0.00000000000E+00  0.00000000000E+00  0.32344412840E+03  0.32344412840E+03  0.00000000000E+00 0.  1.
         21   -1    0    0  502  503 -0.00000000000E+00 -0.00000000000E+00 -0.23605940885E+03  0.23605940885E+03  0.00000000000E+00 0. -1.
          6    1    1    2  501    0 -0.19776628501E+02  0.15022510479E+03  0.19877623710E+03  0.30397317247E+03  0.17300000000E+03 0.  1.
         -6    1    1    2    0  503  0.19776628501E+02 -0.15022510479E+03 -0.11139151755E+03  0.25553036478E+03  0.17300000000E+03 0. -1.
<mgrwt>
<rscale>  2 0.22997325E+03</rscale>
<asrwt>0</asrwt>
<pdfrwt beam="1">  1       21 0.49760635E-01 0.22997325E+03</pdfrwt>
<pdfrwt beam="2">  1       21 0.36316832E-01 0.22997325E+03</pdfrwt>
<totfact> 0.27587521E+04</totfact>
</mgrwt>
</event>
<event>
 4    1  0.4374784E+000  0.1748420E+03  0.7546771E-02  0.1172890E+00
         21   -1    0    0  501  502  0.00000000000E+00  0.00000000000E+00  0.30888921378E+03  0.30888921378E+03  0.00000000000E+00 0.  1.
         21   -1    0    0  502  503 -0.00000000000E+00 -0.00000000000E+00 -0.11831362023E+03  0.11831362023E+03  0.00000000000E+00 0.  1.
          6    1    1    2  501    0  0.25124064752E+02 -0.30845657589E+01  0.89117845505E+01  0.17506899520E+03  0.17300000000E+03 0.  1.
         -6    1    1    2    0  503 -0.25124064752E+02  0.30845657589E+01  0.18166380899E+03  0.25213383881E+03  0.17300000000E+03 0.  1.
<mgrwt>
<rscale>  2 0.17484202E+03</rscale>
<asrwt>0</asrwt>
<pdfrwt beam="1">  1       21 0.47521417E-01 0.17484202E+03</pdfrwt>
<pdfrwt beam="2">  1       21 0.18202096E-01 0.17484202E+03</pdfrwt>
<totfact> 0.11721785E+05</totfact>
</mgrwt>
</event>
<event>
 4    1  0.4374784E+000  0.4257226E+03  0.7546771E-02  0.1035220E+00
         21   -1    0    0  501  502  0.00000000000E+00  0.00000000000E+00  0.34657970950E+03  0.34657970950E+03  0.00000000000E+00 0. -1.
         21   -1    0    0  502  503 -0.00000000000E+00 -0.00000000000E+00 -0.68754817879E+03  0.68754817879E+03  0.00000000000E+00 0.  1.
          6    1    1    2  501    0  0.35006243078E+03 -0.16960850497E+03  0.82515950256E+02  0.43364574534E+03  0.17300000000E+03 0. -1.
         -6    1    1    2    0  503 -0.35006243078E+03  0.16960850497E+03 -0.42348441955E+03  0.60048214295E+03  0.17300000000E+03 0.  1.
<mgrwt>
<rscale>  2 0.42572262E+03</rscale>
<asrwt>0</asrwt>
<pdfrwt beam="1">  1       21 0.53319956E-01 0.42572262E+03</pdfrwt>
<pdfrwt beam="2">  1       21 0.10577664E+00 0.42572262E+03</pdfrwt>
<totfact> 0.20812547E+03</totfact>
</mgrwt>
</event>
<event>
 4    1  0.4374784E+000  0.2374797E+03  0.7546771E-02  0.1121483E+00
         21   -1    0    0  501  502  0.00000000000E+00  0.00000000000E+00  0.41591685490E+03  0.41591685490E+03  0.00000000000E+00 0. -1.
         21   -1    0    0  502  503 -0.00000000000E+00 -0.00000000000E+00 -0.14967466658E+03  0.14967466658E+03  0.00000000000E+00 0.  1.
          6    1    1    2  501    0  0.42206514567E+02  0.15711842428E+03  0.21985366199E+03  0.32362358043E+03  0.17300000000E+03 0.  1.
         -6    1    1    2    0  503 -0.42206514567E+02 -0.15711842428E+03  0.46388526331E+02  0.24196794105E+03  0.17300000000E+03 0.  1.
<mgrwt>
<rscale>  2 0.23747966E+03</rscale>
<asrwt>0</asrwt>
<pdfrwt beam="1">  1       21 0.63987208E-01 0.23747966E+03</pdfrwt>
<pdfrwt beam="2">  1       21 0.23026872E-01 0.23747966E+03</pdfrwt>
<totfact> 0.39072918E+04</totfact>
</mgrwt>
</event>
<event>
 4    1  0.4374784E+000  0.2214354E+03  0.7546771E-02  0.1132817E+00
         21   -1    0    0  501  502  0.00000000000E+00  0.00000000000E+00  0.87093813917E+02  0.87093813917E+02  0.00000000000E+00 0.  1.
         21   -1    0    0  502  503 -0.00000000000E+00 -0.00000000000E+00 -0.77956673445E+03  0.77956673445E+03  0.00000000000E+00 0. -1.
          6    1    1    2  501    0 -0.13396901979E+03  0.34013495861E+02 -0.11783936771E+03  0.25083806080E+03  0.17300000000E+03 0.  1.
         -6    1    1    2    0  503  0.13396901979E+03 -0.34013495861E+02 -0.57463355282E+03  0.61582248756E+03  0.17300000000E+03 0. -1.
<mgrwt>
<rscale>  2 0.22143535E+03</rscale>
<asrwt>0</asrwt>
<pdfrwt beam="1">  1       21 0.13399049E-01 0.22143535E+03</pdfrwt>
<pdfrwt beam="2">  1       21 0.11993334E+00 0.22143535E+03</pdfrwt>
<totfact> 0.25025218E+04</totfact>
</mgrwt>
</event>
<event>
 4    1  0.4374784E+000  0.1968175E+03  0.7546771E-02  0.1152452E+00
         21   -1    0    0  501  502  0.00000000000E+00  0.00000000000E+00  0.57201899172E+03  0.57201899172E+03  0.00000000000E+00 0. -1.
         21   -1    0    0  502  503 -0.00000000000E+00 -0.00000000000E+00 -0.21005590695E+03  0.21005590695E+03  0.00000000000E+00 0.  1.
          6    1    1    2  501    0 -0.28691299071E+02 -0.89358560362E+02  0.50287199357E+03  0.54001609686E+03  0.17300000000E+03 0. -1.
         -6    1    1    2    0  503  0.28691299071E+02  0.89358560362E+02 -0.14090890881E+03  0.24205880181E+03  0.17300000000E+03 0.  1.
<mgrwt>
<rscale>  2 0.19681754E+03</rscale>
<asrwt>0</asrwt>
<pdfrwt beam="1">  1       21 0.88002921E-01 0.19681754E+03</pdfrwt>
<pdfrwt beam="2">  1       21 0.32316294E-01 0.19681754E+03</pdfrwt>
<totfact> 0.10163806E+04</totfact>
</mgrwt>
</event>
<event>
 4    1  0.4374784E+000  0.2164274E+03  0.7546771E-02  0.1136575E+00
         21   -1    0    0  501  502  0.00000000000E+00  0.00000000000E+00  0.13712526553E+03  0.13712526553E+03  0.00000000000E+00 0.  1.
         21   -1    0    0  502  503 -0.00000000000E+00 -0.00000000000E+00 -0.34396260883E+03  0.34396260883E+03  0.00000000000E+00 0.  1.
          6    1    1    2  501    0 -0.12031518181E+03 -0.49356498234E+02 -0.83446433763E+02  0.23195713871E+03  0.17300000000E+03 0.  1.
         -6    1    1    2    0  503  0.12031518181E+03  0.49356498234E+02 -0.12339090953E+03  0.24913073565E+03  0.17300000000E+03 0.  1.
<mgrwt>
<rscale>  2 0.21642737E+03</rscale>
<asrwt>0</asrwt>
<pdfrwt beam="1">  1       21 0.21096195E-01 0.21642737E+03</pdfrwt>
<pdfrwt beam="2">  1       21 0.52917324E-01 0.21642737E+03</pdfrwt>
<totfact> 0.69945962E+04</totfact>
</mgrwt>
</event>
<event>
 4    1  0.4374784E+000  0.2029953E+03  0.7546771E-02  0.1147236E+00
         21   -1    0    0  503  502  0.00000000000E+00  0.00000000000E+00  0.27547360725E+03  0.27547360725E+03  0.00000000000E+00 0. -1.
         21   -1    0    0  501  503 -0.00000000000E+00 -0.00000000000E+00 -0.71343809410E+03  0.71343809410E+03  0.00000000000E+00 0. -1.
          6    1    1    2  501    0  0.10493441287E+03 -0.16335858573E+02 -0.65855608163E+03  0.68913221078E+03  0.17300000000E+03 0. -1.
         -6    1    1    2    0  502 -0.10493441287E+03  0.16335858573E+02  0.22059159478E+03  0.29977949057E+03  0.17300000000E+03 0. -1.
<mgrwt>
<rscale>  2 0.20299530E+03</rscale>
<asrwt>0</asrwt>
<pdfrwt beam="1">  1       21 0.42380555E-01 0.20299530E+03</pdfrwt>
<pdfrwt beam="2">  1       21 0.10975971E+00 0.20299530E+03</pdfrwt>
<totfact> 0.34867590E+03</totfact>
</mgrwt>
</event>
<event>
 4    1  0.4374784E+000  0.1945887E+03  0.7546771E-02  0.1154387E+00
         21   -1    0    0  501  502  0.00000000000E+00  0.00000000000E+00  0.54820633251E+03  0.54820633251E+03  0.00000000000E+00 0. -1.
         21   -1    0    0  502  503 -0.00000000000E+00 -0.00000000000E+00 -0.97735577963E+02  0.97735577963E+02  0.00000000000E+00 0.  1.
          6    1    1    2  501    0 -0.82199216458E+02 -0.34337501044E+02  0.40014560830E+03  0.44495087707E+03  0.17300000000E+03 0. -1.
         -6    1    1    2    0  503  0.82199216458E+02  0.34337501044E+02  0.50325146248E+02  0.20099103340E+03  0.17300000000E+03 0.  1.
<mgrwt>
<rscale>  2 0.19458873E+03</rscale>
<asrwt>0</asrwt>
<pdfrwt beam="1">  1       21 0.84339434E-01 0.19458873E+03</pdfrwt>
<pdfrwt beam="2">  1       21 0.15036243E-01 0.19458873E+03</pdfrwt>
<totfact> 0.47596863E+04</totfact>
</mgrwt>
</event>
<event>
 4    1  0.4374784E+000  0.2179217E+03  0.7546771E-02  0.1135442E+00
         21   -1    0    0  501  502  0.00000000000E+00  0.00000000000E+00  0.77123920333E+03  0.77123920333E+03  0.00000000000E+00 0. -1.
         21   -1    0    0  502  503 -0.00000000000E+00 -0.00000000000E+00 -0.17544065255E+03  0.17544065255E+03  0.00000000000E+00 0. -1.
          6    1    1    2  501    0 -0.82790891082E+02 -0.10347243954E+03  0.67923049009E+03  0.71333297699E+03  0.17300000000E+03 0. -1.
         -6    1    1    2    0  503  0.82790891082E+02  0.10347243954E+03 -0.83431939311E+02  0.23334687889E+03  0.17300000000E+03 0. -1.
<mgrwt>
<rscale>  2 0.21792172E+03</rscale>
<asrwt>0</asrwt>
<pdfrwt beam="1">  1       21 0.11865218E+00 0.21792172E+03</pdfrwt>
<pdfrwt beam="2">  1       21 0.26990870E-01 0.21792172E+03</pdfrwt>
<totfact> 0.69705019E+03</totfact>
</mgrwt>
</event>
<event>
 4    1  0.4374784E+000  0.2400366E+03  0.7546771E-02  0.1119768E+00
         21   -1    0    0  501  502  0.00000000000E+00  0.00000000000E+00  0.15428933771E+03  0.15428933771E+03  0.00000000000E+00 0.  1.
         21   -1    0    0  502  503 -0.00000000000E+00 -0.00000000000E+00 -0.68150620883E+03  0.68150620883E+03  0.00000000000E+00 0.  1.
          6    1    1    2  501    0 -0.50119203703E+02  0.15867141350E+03  0.17360535091E+02  0.24066354153E+03  0.17300000000E+03 0.  1.
         -6    1    1    2    0  503  0.50119203703E+02 -0.15867141350E+03 -0.54457740620E+03  0.59513200501E+03  0.17300000000E+03 0.  1.
<mgrwt>
<rscale>  2 0.24003656E+03</rscale>
<asrwt>0</asrwt>
<pdfrwt beam="1">  1       21 0.23736821E-01 0.24003656E+03</pdfrwt>
<pdfrwt beam="2">  1       21 0.10484711E+00 0.24003656E+03</pdfrwt>
<totfact> 0.11893011E+04</totfact>
</mgrwt>
</event>
<event>
 4    1  0.4374784E+000  0.1865618E+03  0.7546771E-02  0.1161599E+00
         21   -1    0    0  501  502  0.00000000000E+00  0.00000000000E+00  0.47317507110E+03  0.47317507110E+03  0.00000000000E+00 0.  1.
         21   -1    0    0  502  503 -0.00000000000E+00 -0.00000000000E+00 -0.74145613155E+02  0.74145613155E+02  0.00000000000E+00 0.  1.
          6    1    1    2  501    0 -0.40028890085E+02  0.57218952029E+02  0.17513110231E+03  0.25588322241E+03  0.17300000000E+03 0.  1.
         -6    1    1    2    0  503  0.40028890085E+02 -0.57218952029E+02  0.22389835563E+03  0.29143746184E+03  0.17300000000E+03 0.  1.
<mgrwt>
<rscale>  2 0.18656184E+03</rscale>
<asrwt>0</asrwt>
<pdfrwt beam="1">  1       21 0.72796163E-01 0.18656184E+03</pdfrwt>
<pdfrwt beam="2">  1       21 0.11407018E-01 0.18656184E+03</pdfrwt>
<totfact> 0.10940119E+05</totfact>
</mgrwt>
</event>
<event>
 4    1  0.4374784E+000  0.2720891E+03  0.7546771E-02  0.1100090E+00
         21   -1    0    0  501  502  0.00000000000E+00  0.00000000000E+00  0.98205843793E+03  0.98205843793E+03  0.00000000000E+00 0.  1.
         21   -1    0    0  502  503 -0.00000000000E+00 -0.00000000000E+00 -0.90638664248E+02  0.90638664248E+02  0.00000000000E+00 0. -1.
          6    1    1    2  501    0 -0.14249257324E+03 -0.15427041125E+03  0.66573750412E+03  0.71919324080E+03  0.17300000000E+03 0.  1.
         -6    1    1    2    0  503  0.14249257324E+03  0.15427041125E+03  0.22568226956E+03  0.35350386138E+03  0.17300000000E+03 0. -1.
<mgrwt>
<rscale>  2 0.27208913E+03</rscale>
<asrwt>0</asrwt>
<pdfrwt beam="1">  1       21 0.15108591E+00 0.27208913E+03</pdfrwt>
<pdfrwt beam="2">  1       21 0.13944411E-01 0.27208913E+03</pdfrwt>
<totfact> 0.12491560E+04</totfact>
</mgrwt>
</event>
<event>
 4    1  0.4374784E+000  0.2588814E+03  0.7546771E-02  0.1107817E+00
         21   -1    0    0  503  502  0.00000000000E+00  0.00000000000E+00  0.38813996375E+03  0.38813996375E+03  0.00000000000E+00 0.  1.
         21   -1    0    0  501  503 -0.00000000000E+00 -0.00000000000E+00 -0.21240441575E+03  0.21240441575E+03  0.00000000000E+00 0. -1.
          6    1    1    2  501    0  0.53998692533E+02 -0.18486410058E+03 -0.42006837553E+02  0.26226736144E+03  0.17300000000E+03 0. -1.
         -6    1    1    2    0  502 -0.53998692533E+02  0.18486410058E+03  0.21774238555E+03  0.33827701806E+03  0.17300000000E+03 0.  1.
<mgrwt>
<rscale>  2 0.25888143E+03</rscale>
<asrwt>0</asrwt>
<pdfrwt beam="1">  1       21 0.59713841E-01 0.25888143E+03</pdfrwt>
<pdfrwt beam="2">  1       21 0.32677602E-01 0.25888143E+03</pdfrwt>
<totfact> 0.22794173E+04</totfact>
</mgrwt>
</event>
<event>
 4    1  0.4374784E+000  0.1997098E+03  0.7546771E-02  0.1149984E+00
         21   -1    0    0  501  502  0.00000000000E+00  0.00000000000E+00  0.22722839701E+03  0.22722839701E+03  0.00000000000E+00 0. -1.
         21   -1    0    0  502  503 -0.00000000000E+00 -0.00000000000E+00 -0.36184500622E+03  0.36184500622E+03  0.00000000000E+00 0. -1.
          6    1    1    2  501    0  0.98451577976E+02 -0.16195337152E+02  0.14404508505E+03  0.24623766706E+03  0.17300000000E+03 0. -1.
         -6    1    1    2    0  503 -0.98451577976E+02  0.16195337152E+02 -0.27866169426E+03  0.34283573618E+03  0.17300000000E+03 0. -1.
<mgrwt>
<rscale>  2 0.19970979E+03</rscale>
<asrwt>0</asrwt>
<pdfrwt beam="1">  1       21 0.34958215E-01 0.19970979E+03</pdfrwt>
<pdfrwt beam="2">  1       21 0.55668462E-01 0.19970979E+03</pdfrwt>
<totfact> 0.23884768E+04</totfact>
</mgrwt>
</event>
<event>
 4    1  0.4374784E+000  0.1811888E+03  0.7546771E-02  0.1166657E+00
         21   -1    0    0  501  502  0.00000000000E+00  0.00000000000E+00  0.33509958712E+03  0.33509958712E+03  0.00000000000E+00 0.  1.
         21   -1    0    0  502  503 -0.00000000000E+00 -0.00000000000E+00 -0.19597344843E+03  0.19597344843E+03  0.00000000000E+00 0.  1.
          6    1    1    2  501    0 -0.53580681780E+02  0.54298880357E+01  0.25734271772E+03  0.31472948306E+03  0.17300000000E+03 0.  1.
         -6    1    1    2    0  503  0.53580681780E+02 -0.54298880357E+01 -0.11821657903E+03  0.21634355249E+03  0.17300000000E+03 0.  1.
<mgrwt>
<rscale>  2 0.18118878E+03</rscale>
<asrwt>0</asrwt>
<pdfrwt beam="1">  1       21 0.51553783E-01 0.18118878E+03</pdfrwt>
<pdfrwt beam="2">  1       21 0.30149761E-01 0.18118878E+03</pdfrwt>
<totfact> 0.37941278E+04</totfact>
</mgrwt>
</event>
<event>
 4    1  0.4374784E+000  0.1959182E+03  0.7546771E-02  0.1153229E+00
         21   -1    0    0  501  502  0.00000000000E+00  0.00000000000E+00  0.10996480472E+03  0.10996480472E+03  0.00000000000E+00 0. -1.
         21   -1    0    0  502  503 -0.00000000000E+00 -0.00000000000E+00 -0.47593573516E+03  0.47593573516E+03  0.00000000000E+00 0. -1.
          6    1    1    2  501    0  0.33316249333E+02 -0.85702830759E+02 -0.31728722388E+02  0.19847080262E+03  0.17300000000E+03 0. -1.
         -6    1    1    2    0  503 -0.33316249333E+02  0.85702830759E+02 -0.33424220805E+03  0.38742973726E+03  0.17300000000E+03 0. -1.
<mgrwt>
<rscale>  2 0.19591822E+03</rscale>
<asrwt>0</asrwt>
<pdfrwt beam="1">  1       21 0.16917662E-01 0.19591822E+03</pdfrwt>
<pdfrwt beam="2">  1       21 0.73220883E-01 0.19591822E+03</pdfrwt>
<totfact> 0.52712392E+04</totfact>
</mgrwt>
</event>
<event>
 4    1  0.4374784E+000  0.2170316E+03  0.7546771E-02  0.1136116E+00
         21   -1    0    0  501  502  0.00000000000E+00  0.00000000000E+00  0.50065184774E+03  0.50065184774E+03  0.00000000000E+00 0.  1.
         21   -1    0    0  502  503 -0.00000000000E+00 -0.00000000000E+00 -0.94104107119E+02  0.94104107119E+02  0.00000000000E+00 0.  1.
          6    1    1    2  501    0  0.12923878630E+03  0.21703222517E+02  0.20775570686E+03  0.30044155419E+03  0.17300000000E+03 0.  1.
         -6    1    1    2    0  503 -0.12923878630E+03 -0.21703222517E+02  0.19879203376E+03  0.29431440066E+03  0.17300000000E+03 0.  1.
<mgrwt>
<rscale>  2 0.21703155E+03</rscale>
<asrwt>0</asrwt>
<pdfrwt beam="1">  1       21 0.77023360E-01 0.21703155E+03</pdfrwt>
<pdfrwt beam="2">  1       21 0.14477555E-01 0.21703155E+03</pdfrwt>
<totfact> 0.61972615E+04</totfact>
</mgrwt>
</event>
<event>
 4    1  0.4374784E+000  0.2235255E+03  0.7546771E-02  0.1131282E+00
         21   -1    0    0  503  502  0.00000000000E+00  0.00000000000E+00  0.16153275672E+03  0.16153275672E+03  0.00000000000E+00 0.  1.
         21   -1    0    0  501  503 -0.00000000000E+00 -0.00000000000E+00 -0.35625596830E+03  0.35625596830E+03  0.00000000000E+00 0.  1.
          6    1    1    2  501    0  0.52386694315E+01  0.14144681500E+03 -0.19134305866E+03  0.29423767813E+03  0.17300000000E+03 0.  1.
         -6    1    1    2    0  502 -0.52386694315E+01 -0.14144681500E+03 -0.33801529130E+01  0.22355104689E+03  0.17300000000E+03 0.  1.
<mgrwt>
<rscale>  2 0.22352549E+03</rscale>
<asrwt>0</asrwt>
<pdfrwt beam="1">  1       21 0.24851193E-01 0.22352549E+03</pdfrwt>
<pdfrwt beam="2">  1       21 0.54808611E-01 0.22352549E+03</pdfrwt>
<totfact> 0.47435120E+04</totfact>
</mgrwt>
</event>
<event>
 4    1  0.4374784E+000  0.2065782E+03  0.7546771E-02  0.1144305E+00
         21   -1    0    0  503  502  0.00000000000E+00  0.00000000000E+00  0.33117525182E+03  0.33117525182E+03  0.00000000000E+00 0. -1.
         21   -1    0    0  501  503 -0.00000000000E+00 -0.00000000000E+00 -0.13284693234E+03  0.13284693234E+03  0.00000000000E+00 0. -1.
          6    1    1    2  501    0 -0.11016425244E+03 -0.24685933806E+02  0.58960549076E+02  0.21482761506E+03  0.17300000000E+03 0. -1.
         -6    1    1    2    0  502  0.11016425244E+03  0.24685933806E+02  0.13936777041E+03  0.24919456911E+03  0.17300000000E+03 0. -1.
<mgrwt>
<rscale>  2 0.20657821E+03</rscale>
<asrwt>0</asrwt>
<pdfrwt beam="1">  1       21 0.50950038E-01 0.20657821E+03</pdfrwt>
<pdfrwt beam="2">  1       21 0.20437990E-01 0.20657821E+03</pdfrwt>
<totfact> 0.80724891E+04</totfact>
</mgrwt>
</event>
<event>
 4    1  0.4374784E+000  0.1929670E+03  0.7546771E-02  0.1155812E+00
         21   -1    0    0  503  502  0.00000000000E+00  0.00000000000E+00  0.57735633316E+03  0.57735633316E+03  0.00000000000E+00 0. -1.
         21   -1    0    0  501  503 -0.00000000000E+00 -0.00000000000E+00 -0.47627535014E+03  0.47627535014E+03  0.00000000000E+00 0. -1.
          6    1    1    2  501    0  0.15352068998E+02  0.84092650182E+02 -0.43930925816E+03  0.47982172121E+03  0.17300000000E+03 0. -1.
         -6    1    1    2    0  502 -0.15352068998E+02 -0.84092650182E+02  0.54039024118E+03  0.57380996210E+03  0.17300000000E+03 0. -1.
<mgrwt>
<rscale>  2 0.19296699E+03</rscale>
<asrwt>0</asrwt>
<pdfrwt beam="1">  1       21 0.88824051E-01 0.19296699E+03</pdfrwt>
<pdfrwt beam="2">  1       21 0.73273131E-01 0.19296699E+03</pdfrwt>
<totfact> 0.18132198E+03</totfact>
</mgrwt>
</event>
<event>
 4    1  0.4374784E+000  0.2581264E+03  0.7546771E-02  0.1108274E+00
         21   -1    0    0  503  502  0.00000000000E+00  0.00000000000E+00  0.61721885188E+03  0.61721885188E+03  0.00000000000E+00 0. -1.
         21   -1    0    0  501  503 -0.00000000000E+00 -0.00000000000E+00 -0.12439215801E+03  0.12439215801E+03  0.00000000000E+00 0.  1.
          6    1    1    2  501    0  0.23854882107E+02  0.19008203606E+03  0.38122245063E+03  0.46039091291E+03  0.17300000000E+03 0. -1.
         -6    1    1    2    0  502 -0.23854882107E+02 -0.19008203606E+03  0.11160424324E+03  0.28122009697E+03  0.17300000000E+03 0.  1.
<mgrwt>
<rscale>  2 0.25812640E+03</rscale>
<asrwt>0</asrwt>
<pdfrwt beam="1">  1       21 0.94956745E-01 0.25812640E+03</pdfrwt>
<pdfrwt beam="2">  1       21 0.19137255E-01 0.25812640E+03</pdfrwt>
<totfact> 0.22433874E+04</totfact>
</mgrwt>
</event>
<event>
 4    1  0.4374784E+000  0.1969030E+03  0.7546771E-02  0.1152379E+00
         21   -1    0    0  503  502  0.00000000000E+00  0.00000000000E+00  0.42586961133E+02  0.42586961133E+02  0.00000000000E+00 0. -1.
         21   -1    0    0  501  503 -0.00000000000E+00 -0.00000000000E+00 -0.12035939070E+04  0.12035939070E+04  0.00000000000E+00 0. -1.
          6    1    1    2  501    0  0.42908088301E+01 -0.93932859967E+02 -0.88803886734E+03  0.90960641111E+03  0.17300000000E+03 0. -1.
         -6    1    1    2    0  502 -0.42908088301E+01  0.93932859967E+02 -0.27296807848E+03  0.33657445698E+03  0.17300000000E+03 0. -1.
<mgrwt>
<rscale>  2 0.19690300E+03</rscale>
<asrwt>0</asrwt>
<pdfrwt beam="1">  1       21 0.65518396E-02 0.19690300E+03</pdfrwt>
<pdfrwt beam="2">  1       21 0.18516831E+00 0.19690300E+03</pdfrwt>
<totfact> 0.28386373E+04</totfact>
</mgrwt>
</event>
<event>
 4    1  0.4374784E+000  0.2817452E+03  0.7546771E-02  0.1094740E+00
         21   -1    0    0  503  502  0.00000000000E+00  0.00000000000E+00  0.10875609418E+04  0.10875609418E+04  0.00000000000E+00 0. -1.
         21   -1    0    0  501  503 -0.00000000000E+00 -0.00000000000E+00 -0.73166987903E+02  0.73166987903E+02  0.00000000000E+00 0.  1.
          6    1    1    2  501    0  0.21934153138E+03  0.36614540647E+02  0.53579586656E+03  0.60535736768E+03  0.17300000000E+03 0.  1.
         -6    1    1    2    0  502 -0.21934153138E+03 -0.36614540647E+02  0.47859808738E+03  0.55537056208E+03  0.17300000000E+03 0.  1.
<mgrwt>
<rscale>  2 0.28174515E+03</rscale>
<asrwt>0</asrwt>
<pdfrwt beam="1">  1       21 0.16731706E+00 0.28174515E+03</pdfrwt>
<pdfrwt beam="2">  1       21 0.11256460E-01 0.28174515E+03</pdfrwt>
<totfact> 0.13861547E+04</totfact>
</mgrwt>
</event>
<event>
 4    1  0.4374784E+000  0.2003069E+03  0.7546771E-02  0.1149480E+00
         21   -1    0    0  501  502  0.00000000000E+00  0.00000000000E+00  0.55334054326E+03  0.55334054326E+03  0.00000000000E+00 0. -1.
         21   -1    0    0  502  503 -0.00000000000E+00 -0.00000000000E+00 -0.22403891956E+03  0.22403891956E+03  0.00000000000E+00 0. -1.
          6    1    1    2  501    0  0.26983748526E+02  0.97292044883E+02  0.48431113079E+03  0.52409935707E+03  0.17300000000E+03 0. -1.
         -6    1    1    2    0  503 -0.26983748526E+02 -0.97292044883E+02 -0.15500950709E+03  0.25328010575E+03  0.17300000000E+03 0. -1.
<mgrwt>
<rscale>  2 0.20030693E+03</rscale>
<asrwt>0</asrwt>
<pdfrwt beam="1">  1       21 0.85129314E-01 0.20030693E+03</pdfrwt>
<pdfrwt beam="2">  1       21 0.34467526E-01 0.20030693E+03</pdfrwt>
<totfact> 0.96348917E+03</totfact>
</mgrwt>
</event>
<event>
 4    1  0.4374784E+000  0.1941510E+03  0.7546771E-02  0.1154770E+00
         21   -1    0    0  501  502  0.00000000000E+00  0.00000000000E+00  0.35028575590E+03  0.35028575590E+03  0.00000000000E+00 0.  1.
         21   -1    0    0  502  503 -0.00000000000E+00 -0.00000000000E+00 -0.18303927930E+03  0.18303927930E+03  0.00000000000E+00 0.  1.
          6    1    1    2  501    0 -0.24899703557E+02 -0.84531686185E+02  0.25480477501E+03  0.32034368196E+03  0.17300000000E+03 0.  1.
         -6    1    1    2    0  503  0.24899703557E+02  0.84531686185E+02 -0.87558298414E+02  0.21298135324E+03  0.17300000000E+03 0.  1.
<mgrwt>
<rscale>  2 0.19415098E+03</rscale>
<asrwt>0</asrwt>
<pdfrwt beam="1">  1       21 0.53890116E-01 0.19415098E+03</pdfrwt>
<pdfrwt beam="2">  1       21 0.28159889E-01 0.19415098E+03</pdfrwt>
<totfact> 0.39211907E+04</totfact>
</mgrwt>
</event>
<event>
 4    1  0.4374784E+000  0.1911456E+03  0.7546771E-02  0.1157432E+00
         21   -1    0    0  501  502  0.00000000000E+00  0.00000000000E+00  0.32184556390E+02  0.32184556390E+02  0.00000000000E+00 0.  1.
         21   -1    0    0  502  503 -0.00000000000E+00 -0.00000000000E+00 -0.22688489583E+04  0.22688489583E+04  0.00000000000E+00 0.  1.
          6    1    1    2  501    0  0.52005954326E+02  0.62474083232E+02 -0.30508017102E+03  0.36001464013E+03  0.17300000000E+03 0.  1.
         -6    1    1    2    0  503 -0.52005954326E+02 -0.62474083232E+02 -0.19315842309E+04  0.19410188746E+04  0.17300000000E+03 0.  1.
<mgrwt>
<rscale>  2 0.19114557E+03</rscale>
<asrwt>0</asrwt>
<pdfrwt beam="1">  1       21 0.49514704E-02 0.19114557E+03</pdfrwt>
<pdfrwt beam="2">  1       21 0.34905367E+00 0.19114557E+03</pdfrwt>
<totfact> 0.48532469E+03</totfact>
</mgrwt>
</event>
<event>
 4    1  0.4374784E+000  0.1944436E+03  0.7546771E-02  0.1154513E+00
         21   -1    0    0  501  502  0.00000000000E+00  0.00000000000E+00  0.27017929115E+02  0.27017929115E+02  0.00000000000E+00 0.  1.
         21   -1    0    0  502  503 -0.00000000000E+00 -0.00000000000E+00 -0.14022731636E+04  0.14022731636E+04  0.00000000000E+00 0. -1.
          6    1    1    2  501    0 -0.65827640540E+02 -0.59548524492E+02 -0.72009780408E+03  0.74588816351E+03  0.17300000000E+03 0. -1.
         -6    1    1    2    0  503  0.65827640540E+02  0.59548524492E+02 -0.65515743043E+03  0.68340292923E+03  0.17300000000E+03 0.  1.
<mgrwt>
<rscale>  2 0.19444358E+03</rscale>
<asrwt>0</asrwt>
<pdfrwt beam="1">  1       21 0.41566036E-02 0.19444358E+03</pdfrwt>
<pdfrwt beam="2">  1       21 0.21573438E+00 0.19444358E+03</pdfrwt>
<totfact> 0.39216137E+04</totfact>
</mgrwt>
</event>
<event>
 4    1  0.4374784E+000  0.2316185E+03  0.7546771E-02  0.1125506E+00
         21   -1    0    0  503  502  0.00000000000E+00  0.00000000000E+00  0.53986953254E+02  0.53986953254E+02  0.00000000000E+00 0.  1.
         21   -1    0    0  501  503 -0.00000000000E+00 -0.00000000000E+00 -0.10326699220E+04  0.10326699220E+04  0.00000000000E+00 0. -1.
          6    1    1    2  501    0 -0.83852394080E+02  0.12917784846E+03 -0.59488096447E+03  0.63838115763E+03  0.17300000000E+03 0. -1.
         -6    1    1    2    0  502  0.83852394080E+02 -0.12917784846E+03 -0.38380200428E+03  0.44827571763E+03  0.17300000000E+03 0.  1.
<mgrwt>
<rscale>  2 0.23161852E+03</rscale>
<asrwt>0</asrwt>
<pdfrwt beam="1">  1       21 0.83056851E-02 0.23161852E+03</pdfrwt>
<pdfrwt beam="2">  1       21 0.15887230E+00 0.23161852E+03</pdfrwt>
<totfact> 0.28156187E+04</totfact>
</mgrwt>
</event>
<event>
 4    1  0.4374784E+000  0.1845707E+03  0.7546771E-02  0.1163451E+00
         21   -1    0    0  501  502  0.00000000000E+00  0.00000000000E+00  0.63214133197E+02  0.63214133197E+02  0.00000000000E+00 0.  1.
         21   -1    0    0  502  503 -0.00000000000E+00 -0.00000000000E+00 -0.55024789284E+03  0.55024789284E+03  0.00000000000E+00 0. -1.
          6    1    1    2  501    0  0.56115526584E+02 -0.31438591461E+02 -0.19947527358E+03  0.27176593261E+03  0.17300000000E+03 0.  1.
         -6    1    1    2    0  503 -0.56115526584E+02  0.31438591461E+02 -0.28755848606E+03  0.34169609343E+03  0.17300000000E+03 0.  1.
<mgrwt>
<rscale>  2 0.18457068E+03</rscale>
<asrwt>0</asrwt>
<pdfrwt beam="1">  1       21 0.97252511E-02 0.18457068E+03</pdfrwt>
<pdfrwt beam="2">  1       21 0.84653524E-01 0.18457068E+03</pdfrwt>
<totfact> 0.10341797E+05</totfact>
</mgrwt>
</event>
<event>
 4    1  0.4374784E+000  0.1902485E+03  0.7546771E-02  0.1158237E+00
         21   -1    0    0  503  502  0.00000000000E+00  0.00000000000E+00  0.77059008418E+02  0.77059008418E+02  0.00000000000E+00 0. -1.
         21   -1    0    0  501  503 -0.00000000000E+00 -0.00000000000E+00 -0.58288249626E+03  0.58288249626E+03  0.00000000000E+00 0. -1.
          6    1    1    2  501    0 -0.71022474660E+02  0.34947357961E+02 -0.39831603593E+03  0.44141836643E+03  0.17300000000E+03 0. -1.
         -6    1    1    2    0  502  0.71022474660E+02 -0.34947357961E+02 -0.10750745190E+03  0.21852313825E+03  0.17300000000E+03 0. -1.
<mgrwt>
<rscale>  2 0.19024855E+03</rscale>
<asrwt>0</asrwt>
<pdfrwt beam="1">  1       21 0.11855232E-01 0.19024855E+03</pdfrwt>
<pdfrwt beam="2">  1       21 0.89674232E-01 0.19024855E+03</pdfrwt>
<totfact> 0.63605347E+04</totfact>
</mgrwt>
</event>
<event>
 4    1  0.4374784E+000  0.2099825E+03  0.7546771E-02  0.1141580E+00
         21   -1    0    0  501  502  0.00000000000E+00  0.00000000000E+00  0.29889416763E+03  0.29889416763E+03  0.00000000000E+00 0.  1.
         21   -1    0    0  502  503 -0.00000000000E+00 -0.00000000000E+00 -0.34301588071E+03  0.34301588071E+03  0.00000000000E+00 0. -1.
          6    1    1    2  501    0  0.16864045962E+02 -0.11781019130E+03  0.22024099144E+03  0.30430039687E+03  0.17300000000E+03 0.  1.
         -6    1    1    2    0  503 -0.16864045962E+02  0.11781019130E+03 -0.26436270453E+03  0.33760965147E+03  0.17300000000E+03 0. -1.
<mgrwt>
<rscale>  2 0.20998247E+03</rscale>
<asrwt>0</asrwt>
<pdfrwt beam="1">  1       21 0.45983718E-01 0.20998247E+03</pdfrwt>
<pdfrwt beam="2">  1       21 0.52771674E-01 0.20998247E+03</pdfrwt>
<totfact> 0.15259242E+04</totfact>
</mgrwt>
</event>
<event>
 4    1  0.4374784E+000  0.2482379E+03  0.7546771E-02  0.1114423E+00
         21   -1    0    0  501  502  0.00000000000E+00  0.00000000000E+00  0.15700979531E+03  0.15700979531E+03  0.00000000000E+00 0.  1.
         21   -1    0    0  502  503 -0.00000000000E+00 -0.00000000000E+00 -0.45745103690E+03  0.45745103690E+03  0.00000000000E+00 0. -1.
          6    1    1    2  501    0 -0.10820441329E+03  0.14136788064E+03 -0.34429331601E+02  0.25061414885E+03  0.17300000000E+03 0.  1.
         -6    1    1    2    0  503  0.10820441329E+03 -0.14136788064E+03 -0.26601191000E+03  0.36384668336E+03  0.17300000000E+03 0. -1.
<mgrwt>
<rscale>  2 0.24823794E+03</rscale>
<asrwt>0</asrwt>
<pdfrwt beam="1">  1       21 0.24155353E-01 0.24823794E+03</pdfrwt>
<pdfrwt beam="2">  1       21 0.70377082E-01 0.24823794E+03</pdfrwt>
<totfact> 0.28781894E+04</totfact>
</mgrwt>
</event>
<event>
 4    1  0.4374784E+000  0.2021964E+03  0.7546771E-02  0.1147899E+00
         21   -1    0    0  501  502  0.00000000000E+00  0.00000000000E+00  0.22023205239E+03  0.22023205239E+03  0.00000000000E+00 0. -1.
         21   -1    0    0  502  503 -0.00000000000E+00 -0.00000000000E+00 -0.33909444025E+03  0.33909444025E+03  0.00000000000E+00 0. -1.
          6    1    1    2  501    0 -0.10198194987E+03 -0.23538939038E+02  0.12870305499E+03  0.23968286571E+03  0.17300000000E+03 0. -1.
         -6    1    1    2    0  503  0.10198194987E+03  0.23538939038E+02 -0.24756544285E+03  0.31964362694E+03  0.17300000000E+03 0. -1.
<mgrwt>
<rscale>  2 0.20219644E+03</rscale>
<asrwt>0</asrwt>
<pdfrwt beam="1">  1       21 0.33881854E-01 0.20219644E+03</pdfrwt>
<pdfrwt beam="2">  1       21 0.52168375E-01 0.20219644E+03</pdfrwt>
<totfact> 0.29105706E+04</totfact>
</mgrwt>
</event>
<event>
 4    1  0.4374784E+000  0.1817249E+03  0.7546771E-02  0.1166144E+00
         21   -1    0    0  501  502  0.00000000000E+00  0.00000000000E+00  0.30920085511E+03  0.30920085511E+03  0.00000000000E+00 0. -1.
         21   -1    0    0  502  503 -0.00000000000E+00 -0.00000000000E+00 -0.11337952403E+03  0.11337952403E+03  0.00000000000E+00 0. -1.
          6    1    1    2  501    0  0.40078441789E+02  0.38583016990E+02  0.14879365939E+03  0.23486907793E+03  0.17300000000E+03 0. -1.
         -6    1    1    2    0  503 -0.40078441789E+02 -0.38583016990E+02  0.47027671693E+02  0.18771130121E+03  0.17300000000E+03 0. -1.
<mgrwt>
<rscale>  2 0.18172488E+03</rscale>
<asrwt>0</asrwt>
<pdfrwt beam="1">  1       21 0.47569362E-01 0.18172488E+03</pdfrwt>
<pdfrwt beam="2">  1       21 0.17443004E-01 0.18172488E+03</pdfrwt>
<totfact> 0.12621655E+05</totfact>
</mgrwt>
</event>
<event>
 4    1  0.4374784E+000  0.2127705E+03  0.7546771E-02  0.1139391E+00
         21   -1    0    0  501  502  0.00000000000E+00  0.00000000000E+00  0.19536456108E+03  0.19536456108E+03  0.00000000000E+00 0. -1.
         21   -1    0    0  502  503 -0.00000000000E+00 -0.00000000000E+00 -0.37586038889E+03  0.37586038889E+03  0.00000000000E+00 0.  1.
          6    1    1    2  501    0  0.11563516576E+03 -0.44393770387E+02  0.86618662752E+02  0.22972612204E+03  0.17300000000E+03 0. -1.
         -6    1    1    2    0  503 -0.11563516576E+03  0.44393770387E+02 -0.26711449057E+03  0.34149882793E+03  0.17300000000E+03 0. -1.
<mgrwt>
<rscale>  2 0.21277053E+03</rscale>
<asrwt>0</asrwt>
<pdfrwt beam="1">  1       21 0.30056087E-01 0.21277053E+03</pdfrwt>
<pdfrwt beam="2">  1       21 0.57824675E-01 0.21277053E+03</pdfrwt>
<totfact> 0.29450099E+04</totfact>
</mgrwt>
</event>
<event>
 4    1  0.4374784E+000  0.1789643E+03  0.7546771E-02  0.1168809E+00
         21   -1    0    0  503  502  0.00000000000E+00  0.00000000000E+00  0.15870248433E+03  0.15870248433E+03  0.00000000000E+00 0. -1.
         21   -1    0    0  501  503 -0.00000000000E+00 -0.00000000000E+00 -0.21787807338E+03  0.21787807338E+03  0.00000000000E+00 0. -1.
          6    1    1    2  501    0 -0.23930722505E+02 -0.39070781075E+02 -0.80716419754E+02  0.19632459304E+03  0.17300000000E+03 0. -1.
         -6    1    1    2    0  502  0.23930722505E+02  0.39070781075E+02  0.21540830697E+02  0.18025596467E+03  0.17300000000E+03 0. -1.
<mgrwt>
<rscale>  2 0.17896426E+03</rscale>
<asrwt>0</asrwt>
<pdfrwt beam="1">  1       21 0.24415767E-01 0.17896426E+03</pdfrwt>
<pdfrwt beam="2">  1       21 0.33519704E-01 0.17896426E+03</pdfrwt>
<totfact> 0.13645301E+05</totfact>
</mgrwt>
</event>
<event>
 4    1  0.4374784E+000  0.2968626E+03  0.7546771E-02  0.1086820E+00
         21   -1    0    0  501  502  0.00000000000E+00  0.00000000000E+00  0.21069417964E+03  0.21069417964E+03  0.00000000000E+00 0. -1.
         21   -1    0    0  502  503 -0.00000000000E+00 -0.00000000000E+00 -0.74553497457E+03  0.74553497457E+03  0.00000000000E+00 0.  1.
          6    1    1    2  501    0 -0.20048319396E+03 -0.13418239503E+03  0.49351442596E+02  0.30093685564E+03  0.17300000000E+03 0. -1.
         -6    1    1    2    0  503  0.20048319396E+03  0.13418239503E+03 -0.58419223753E+03  0.65529229858E+03  0.17300000000E+03 0.  1.
<mgrwt>
<rscale>  2 0.29686264E+03</rscale>
<asrwt>0</asrwt>
<pdfrwt beam="1">  1       21 0.32414488E-01 0.29686264E+03</pdfrwt>
<pdfrwt beam="2">  1       21 0.11469769E+00 0.29686264E+03</pdfrwt>
<totfact> 0.50467441E+03</totfact>
</mgrwt>
</event>
<event>
 4    1  0.4374784E+000  0.2448670E+03  0.7546771E-02  0.1116592E+00
         21   -1    0    0  501  502  0.00000000000E+00  0.00000000000E+00  0.34085667118E+03  0.34085667118E+03  0.00000000000E+00 0. -1.
         21   -1    0    0  502  503 -0.00000000000E+00 -0.00000000000E+00 -0.19924599224E+03  0.19924599224E+03  0.00000000000E+00 0. -1.
          6    1    1    2  501    0  0.98824749546E+02 -0.14235356037E+03  0.16322639709E+03  0.29428340758E+03  0.17300000000E+03 0. -1.
         -6    1    1    2    0  503 -0.98824749546E+02  0.14235356037E+03 -0.21615718151E+02  0.24581925584E+03  0.17300000000E+03 0. -1.
<mgrwt>
<rscale>  2 0.24486704E+03</rscale>
<asrwt>0</asrwt>
<pdfrwt beam="1">  1       21 0.52439488E-01 0.24486704E+03</pdfrwt>
<pdfrwt beam="2">  1       21 0.30653230E-01 0.24486704E+03</pdfrwt>
<totfact> 0.34346637E+04</totfact>
</mgrwt>
</event>
<event>
 4    1  0.4374784E+000  0.1988868E+03  0.7546771E-02  0.1150682E+00
         21   -1    0    0  503  502  0.00000000000E+00  0.00000000000E+00  0.40286552656E+03  0.40286552656E+03  0.00000000000E+00 0. -1.
         21   -1    0    0  501  503 -0.00000000000E+00 -0.00000000000E+00 -0.10839952696E+03  0.10839952696E+03  0.00000000000E+00 0.  1.
          6    1    1    2  501    0  0.98100196765E+02 -0.18241080182E+01  0.68767525284E+02  0.21043989286E+03  0.17300000000E+03 0. -1.
         -6    1    1    2    0  502 -0.98100196765E+02  0.18241080182E+01  0.22569847432E+03  0.30082516066E+03  0.17300000000E+03 0. -1.
<mgrwt>
<rscale>  2 0.19888684E+03</rscale>
<asrwt>0</asrwt>
<pdfrwt beam="1">  1       21 0.61979311E-01 0.19888684E+03</pdfrwt>
<pdfrwt beam="2">  1       21 0.16676850E-01 0.19888684E+03</pdfrwt>
<totfact> 0.77875565E+04</totfact>
</mgrwt>
</event>
<event>
 4    1  0.4374784E+000  0.1924506E+03  0.7546771E-02  0.1156269E+00
         21   -1    0    0  503  502  0.00000000000E+00  0.00000000000E+00  0.17915899296E+03  0.17915899296E+03  0.00000000000E+00 0.  1.
         21   -1    0    0  501  503 -0.00000000000E+00 -0.00000000000E+00 -0.52188590519E+03  0.52188590519E+03  0.00000000000E+00 0.  1.
          6    1    1    2  501    0 -0.55573152561E+02  0.63402463018E+02 -0.44375391870E+03  0.48368873045E+03  0.17300000000E+03 0.  1.
         -6    1    1    2    0  502  0.55573152561E+02 -0.63402463018E+02  0.10102700647E+03  0.21735616770E+03  0.17300000000E+03 0.  1.
<mgrwt>
<rscale>  2 0.19245064E+03</rscale>
<asrwt>0</asrwt>
<pdfrwt beam="1">  1       21 0.27562922E-01 0.19245064E+03</pdfrwt>
<pdfrwt beam="2">  1       21 0.80290139E-01 0.19245064E+03</pdfrwt>
<totfact> 0.17136228E+04</totfact>
</mgrwt>
</event>
<event>
 4    1  0.4374784E+000  0.1883049E+03  0.7546771E-02  0.1159999E+00
         21   -1    0    0  501  502  0.00000000000E+00  0.00000000000E+00  0.24223336174E+03  0.24223336174E+03  0.00000000000E+00 0.  1.
         21   -1    0    0  502  503 -0.00000000000E+00 -0.00000000000E+00 -0.15811600723E+03  0.15811600723E+03  0.00000000000E+00 0.  1.
          6    1    1    2  501    0  0.51259012876E+02  0.53872512876E+02  0.96588548284E+02  0.21163194868E+03  0.17300000000E+03 0.  1.
         -6    1    1    2    0  503 -0.51259012876E+02 -0.53872512876E+02 -0.12471193772E+02  0.18871742028E+03  0.17300000000E+03 0.  1.
<mgrwt>
<rscale>  2 0.18830490E+03</rscale>
<asrwt>0</asrwt>
<pdfrwt beam="1">  1       21 0.37266671E-01 0.18830490E+03</pdfrwt>
<pdfrwt beam="2">  1       21 0.24325540E-01 0.18830490E+03</pdfrwt>
<totfact> 0.11099068E+05</totfact>
</mgrwt>
</event>
<event>
 4    1  0.4374784E+000  0.2017297E+03  0.7546771E-02  0.1148288E+00
         21   -1    0    0  503  502  0.00000000000E+00  0.00000000000E+00  0.12668719445E+03  0.12668719445E+03  0.00000000000E+00 0.  1.
         21   -1    0    0  501  503 -0.00000000000E+00 -0.00000000000E+00 -0.36080468034E+03  0.36080468034E+03  0.00000000000E+00 0.  1.
          6    1    1    2  501    0 -0.97016606185E+02  0.36791849450E+02 -0.36326412057E+02  0.20497431613E+03  0.17300000000E+03 0.  1.
         -6    1    1    2    0  502  0.97016606185E+02 -0.36791849450E+02 -0.19779107383E+03  0.28251755866E+03  0.17300000000E+03 0.  1.
<mgrwt>
<rscale>  2 0.20172968E+03</rscale>
<asrwt>0</asrwt>
<pdfrwt beam="1">  1       21 0.19490338E-01 0.20172968E+03</pdfrwt>
<pdfrwt beam="2">  1       21 0.55508412E-01 0.20172968E+03</pdfrwt>
<totfact> 0.73797301E+04</totfact>
</mgrwt>
</event>
<event>
 4    1  0.4374784E+000  0.1808881E+03  0.7546771E-02  0.1166946E+00
         21   -1    0    0  503  502  0.00000000000E+00  0.00000000000E+00  0.45483572938E+03  0.45483572938E+03  0.00000000000E+00 0. -1.
         21   -1    0    0  501  503 -0.00000000000E+00 -0.00000000000E+00 -0.19860366238E+03  0.19860366238E+03  0.00000000000E+00 0. -1.
          6    1    1    2  501    0 -0.80597275331E+01 -0.52216378358E+02 -0.13280501567E+03  0.22440517277E+03  0.17300000000E+03 0. -1.
         -6    1    1    2    0  502  0.80597275331E+01  0.52216378358E+02  0.38903708267E+03  0.42903421900E+03  0.17300000000E+03 0. -1.
<mgrwt>
<rscale>  2 0.18088811E+03</rscale>
<asrwt>0</asrwt>
<pdfrwt beam="1">  1       21 0.69974727E-01 0.18088811E+03</pdfrwt>
<pdfrwt beam="2">  1       21 0.30554410E-01 0.18088811E+03</pdfrwt>
<totfact> 0.19203496E+04</totfact>
</mgrwt>
</event>
<event>
 4    1  0.4374784E+000  0.1841272E+03  0.7546771E-02  0.1163867E+00
         21   -1    0    0  501  502  0.00000000000E+00  0.00000000000E+00  0.27984925706E+03  0.27984925706E+03  0.00000000000E+00 0. -1.
         21   -1    0    0  502  503 -0.00000000000E+00 -0.00000000000E+00 -0.13264323187E+03  0.13264323187E+03  0.00000000000E+00 0. -1.
          6    1    1    2  501    0 -0.41228984184E+02  0.47686603759E+02  0.12883946766E+02  0.18457745637E+03  0.17300000000E+03 0. -1.
         -6    1    1    2    0  503  0.41228984184E+02 -0.47686603759E+02  0.13432207843E+03  0.22791503256E+03  0.17300000000E+03 0. -1.
<mgrwt>
<rscale>  2 0.18412724E+03</rscale>
<asrwt>0</asrwt>
<pdfrwt beam="1">  1       21 0.43053732E-01 0.18412724E+03</pdfrwt>
<pdfrwt beam="2">  1       21 0.20406651E-01 0.18412724E+03</pdfrwt>
<totfact> 0.11567346E+05</totfact>
</mgrwt>
</event>
<event>
 4    1  0.4374784E+000  0.1930215E+03  0.7546771E-02  0.1155764E+00
         21   -1    0    0  501  502  0.00000000000E+00  0.00000000000E+00  0.23085540065E+02  0.23085540065E+02  0.00000000000E+00 0.  1.
         21   -1    0    0  502  503 -0.00000000000E+00 -0.00000000000E+00 -0.20095857787E+04  0.20095857787E+04  0.00000000000E+00 0.  1.
          6    1    1    2  501    0  0.81944546749E+02  0.24766865781E+02 -0.54225719380E+03  0.57558680545E+03  0.17300000000E+03 0. -1.
         -6    1    1    2    0  503 -0.81944546749E+02 -0.24766865781E+02 -0.14442430449E+04  0.14570845133E+04  0.17300000000E+03 0. -1.
<mgrwt>
<rscale>  2 0.19302152E+03</rscale>
<asrwt>0</asrwt>
<pdfrwt beam="1">  1       21 0.35516228E-02 0.19302152E+03</pdfrwt>
<pdfrwt beam="2">  1       21 0.30916693E+00 0.19302152E+03</pdfrwt>
<totfact> 0.14443226E+04</totfact>
</mgrwt>
</event>
<event>
 4    1  0.4374784E+000  0.1848632E+03  0.7546771E-02  0.1163178E+00
         21   -1    0    0  503  502  0.00000000000E+00  0.00000000000E+00  0.50575561442E+03  0.50575561442E+03  0.00000000000E+00 0. -1.
         21   -1    0    0  501  503 -0.00000000000E+00 -0.00000000000E+00 -0.99920410387E+02  0.99920410387E+02  0.00000000000E+00 0. -1.
          6    1    1    2  501    0 -0.44878464348E+02 -0.47237011208E+02  0.30605223058E+02  0.18737953855E+03  0.17300000000E+03 0. -1.
         -6    1    1    2    0  502  0.44878464348E+02  0.47237011208E+02  0.37522998098E+03  0.41829648626E+03  0.17300000000E+03 0. -1.
<mgrwt>
<rscale>  2 0.18486322E+03</rscale>
<asrwt>0</asrwt>
<pdfrwt beam="1">  1       21 0.77808554E-01 0.18486322E+03</pdfrwt>
<pdfrwt beam="2">  1       21 0.15372371E-01 0.18486322E+03</pdfrwt>
<totfact> 0.55128265E+04</totfact>
</mgrwt>
</event>
<event>
 4    1  0.4374784E+000  0.1773073E+03  0.7546771E-02  0.1170435E+00
         21   -1    0    0  501  502  0.00000000000E+00  0.00000000000E+00  0.93715506091E+03  0.93715506091E+03  0.00000000000E+00 0. -1.
         21   -1    0    0  502  503 -0.00000000000E+00 -0.00000000000E+00 -0.39168672232E+02  0.39168672232E+02  0.00000000000E+00 0. -1.
          6    1    1    2  501    0  0.13433271920E+02  0.36447483255E+02  0.63394688463E+03  0.65827541680E+03  0.17300000000E+03 0.  1.
         -6    1    1    2    0  503 -0.13433271920E+02 -0.36447483255E+02  0.26403950404E+03  0.31804831633E+03  0.17300000000E+03 0.  1.
<mgrwt>
<rscale>  2 0.17730728E+03</rscale>
<asrwt>0</asrwt>
<pdfrwt beam="1">  1       21 0.14417768E+00 0.17730728E+03</pdfrwt>
<pdfrwt beam="2">  1       21 0.60259503E-02 0.17730728E+03</pdfrwt>
<totfact> 0.65414660E+04</totfact>
</mgrwt>
</event>
<event>
 4    1  0.4374784E+000  0.2332208E+03  0.7546771E-02  0.1124393E+00
         21   -1    0    0  503  502  0.00000000000E+00  0.00000000000E+00  0.31553155725E+03  0.31553155725E+03  0.00000000000E+00 0.  1.
         21   -1    0    0  501  503 -0.00000000000E+00 -0.00000000000E+00 -0.17581871396E+03  0.17581871396E+03  0.00000000000E+00 0.  1.
          6    1    1    2  501    0 -0.70496801358E+02 -0.13961784466E+03  0.35508202629E+02  0.23590840172E+03  0.17300000000E+03 0.  1.
         -6    1    1    2    0  502  0.70496801358E+02  0.13961784466E+03  0.10420464067E+03  0.25544186949E+03  0.17300000000E+03 0.  1.
<mgrwt>
<rscale>  2 0.23322080E+03</rscale>
<asrwt>0</asrwt>
<pdfrwt beam="1">  1       21 0.48543317E-01 0.23322080E+03</pdfrwt>
<pdfrwt beam="2">  1       21 0.27049033E-01 0.23322080E+03</pdfrwt>
<totfact> 0.51804683E+04</totfact>
</mgrwt>
</event>
<event>
 4    1  0.4374784E+000  0.3129265E+03  0.7546771E-02  0.1078952E+00
         21   -1    0    0  503  502  0.00000000000E+00  0.00000000000E+00  0.82895243231E+03  0.82895243231E+03  0.00000000000E+00 0.  1.
         21   -1    0    0  501  503 -0.00000000000E+00 -0.00000000000E+00 -0.12107513869E+03  0.12107513869E+03  0.00000000000E+00 0. -1.
          6    1    1    2  501    0  0.69053077319E+02  0.25144720620E+03  0.27983634220E+03  0.41979924180E+03  0.17300000000E+03 0. -1.
         -6    1    1    2    0  502 -0.69053077319E+02 -0.25144720620E+03  0.42804095142E+03  0.53022832920E+03  0.17300000000E+03 0.  1.
<mgrwt>
<rscale>  2 0.31292655E+03</rscale>
<asrwt>0</asrwt>
<pdfrwt beam="1">  1       21 0.12753114E+00 0.31292655E+03</pdfrwt>
<pdfrwt beam="2">  1       21 0.18626945E-01 0.31292655E+03</pdfrwt>
<totfact> 0.11160472E+04</totfact>
</mgrwt>
</event>
<event>
 4    1  0.4374784E+000  0.2498278E+03  0.7546771E-02  0.1113414E+00
         21   -1    0    0  503  502  0.00000000000E+00  0.00000000000E+00  0.20104427268E+03  0.20104427268E+03  0.00000000000E+00 0. -1.
         21   -1    0    0  501  503 -0.00000000000E+00 -0.00000000000E+00 -0.33015114823E+03  0.33015114823E+03  0.00000000000E+00 0.  1.
          6    1    1    2  501    0 -0.18004302947E+03  0.83341517946E+01 -0.12943586103E+03  0.28136736248E+03  0.17300000000E+03 0.  1.
         -6    1    1    2    0  502  0.18004302947E+03 -0.83341517946E+01  0.32898547840E+00  0.24982805843E+03  0.17300000000E+03 0.  1.
<mgrwt>
<rscale>  2 0.24982784E+03</rscale>
<asrwt>0</asrwt>
<pdfrwt beam="1">  1       21 0.30929888E-01 0.24982784E+03</pdfrwt>
<pdfrwt beam="2">  1       21 0.50792484E-01 0.24982784E+03</pdfrwt>
<totfact> 0.36016154E+04</totfact>
</mgrwt>
</event>
<event>
 4    1  0.4374784E+000  0.1735485E+03  0.7546771E-02  0.1174197E+00
         21   -1    0    0  501  502  0.00000000000E+00  0.00000000000E+00  0.13690970271E+03  0.13690970271E+03  0.00000000000E+00 0. -1.
         21   -1    0    0  502  503 -0.00000000000E+00 -0.00000000000E+00 -0.15377452507E+04  0.15377452507E+04  0.00000000000E+00 0. -1.
          6    1    1    2  501    0  0.92586810954E+01  0.10216021027E+02  0.74704348864E+02  0.18894398641E+03  0.17300000000E+03 0. -1.
         -6    1    1    2    0  503 -0.92586810954E+01 -0.10216021027E+02 -0.14755398968E+04  0.14857109670E+04  0.17300000000E+03 0. -1.
<mgrwt>
<rscale>  2 0.17354852E+03</rscale>
<asrwt>0</asrwt>
<pdfrwt beam="1">  1       21 0.21063030E-01 0.17354852E+03</pdfrwt>
<pdfrwt beam="2">  1       21 0.23657620E+00 0.17354852E+03</pdfrwt>
<totfact> 0.17114586E+03</totfact>
</mgrwt>
</event>
<event>
 4    1  0.4374784E+000  0.3116770E+03  0.7546771E-02  0.1079545E+00
         21   -1    0    0  503  502  0.00000000000E+00  0.00000000000E+00  0.31198478742E+03  0.31198478742E+03  0.00000000000E+00 0.  1.
         21   -1    0    0  501  503 -0.00000000000E+00 -0.00000000000E+00 -0.31150682049E+03  0.31150682049E+03  0.00000000000E+00 0.  1.
          6    1    1    2  501    0  0.54820662463E+02  0.25339349167E+03  0.67828771199E+01  0.31175082049E+03  0.17300000000E+03 0.  1.
         -6    1    1    2    0  502 -0.54820662463E+02 -0.25339349167E+03 -0.63049101908E+01  0.31174078743E+03  0.17300000000E+03 0.  1.
<mgrwt>
<rscale>  2 0.31167702E+03</rscale>
<asrwt>0</asrwt>
<pdfrwt beam="1">  1       21 0.47997660E-01 0.31167702E+03</pdfrwt>
<pdfrwt beam="2">  1       21 0.47924126E-01 0.31167702E+03</pdfrwt>
<totfact> 0.16262074E+04</totfact>
</mgrwt>
</event>
<event>
 4    1  0.4374784E+000  0.2401867E+03  0.7546771E-02  0.1119669E+00
         21   -1    0    0  503  502  0.00000000000E+00  0.00000000000E+00  0.16673208042E+03  0.16673208042E+03  0.00000000000E+00 0.  1.
         21   -1    0    0  501  503 -0.00000000000E+00 -0.00000000000E+00 -0.44405713812E+03  0.44405713812E+03  0.00000000000E+00 0. -1.
          6    1    1    2  501    0  0.13443135506E+02  0.16607208388E+03 -0.28217076590E+03  0.37055363453E+03  0.17300000000E+03 0. -1.
         -6    1    1    2    0  502 -0.13443135506E+02 -0.16607208388E+03  0.48457081903E+01  0.24023558401E+03  0.17300000000E+03 0.  1.
<mgrwt>
<rscale>  2 0.24018671E+03</rscale>
<asrwt>0</asrwt>
<pdfrwt beam="1">  1       21 0.25651090E-01 0.24018671E+03</pdfrwt>
<pdfrwt beam="2">  1       21 0.68316481E-01 0.24018671E+03</pdfrwt>
<totfact> 0.27494447E+04</totfact>
</mgrwt>
</event>
<event>
 4    1  0.4374784E+000  0.2342220E+03  0.7546771E-02  0.1123703E+00
         21   -1    0    0  503  502  0.00000000000E+00  0.00000000000E+00  0.56404222398E+03  0.56404222398E+03  0.00000000000E+00 0. -1.
         21   -1    0    0  501  503 -0.00000000000E+00 -0.00000000000E+00 -0.99200520360E+02  0.99200520360E+02  0.00000000000E+00 0. -1.
          6    1    1    2  501    0  0.14069088094E+03  0.71672939112E+02  0.18606453470E+03  0.29913198634E+03  0.17300000000E+03 0. -1.
         -6    1    1    2    0  502 -0.14069088094E+03 -0.71672939112E+02  0.27877716892E+03  0.36411075800E+03  0.17300000000E+03 0. -1.
<mgrwt>
<rscale>  2 0.23422198E+03</rscale>
<asrwt>0</asrwt>
<pdfrwt beam="1">  1       21 0.86775725E-01 0.23422198E+03</pdfrwt>
<pdfrwt beam="2">  1       21 0.15261619E-01 0.23422198E+03</pdfrwt>
<totfact> 0.42558274E+04</totfact>
</mgrwt>
</event>
<event>
 4    1  0.4374784E+000  0.2280710E+03  0.7546771E-02  0.1128005E+00
         21   -1    0    0  503  502  0.00000000000E+00  0.00000000000E+00  0.24854091880E+03  0.24854091880E+03  0.00000000000E+00 0.  1.
         21   -1    0    0  501  503 -0.00000000000E+00 -0.00000000000E+00 -0.25095800932E+03  0.25095800932E+03  0.00000000000E+00 0.  1.
          6    1    1    2  501    0  0.10746811398E+03 -0.10265480160E+03 -0.10297874192E+03  0.25024193314E+03  0.17300000000E+03 0.  1.
         -6    1    1    2    0  502 -0.10746811398E+03  0.10265480160E+03  0.10056165141E+03  0.24925699498E+03  0.17300000000E+03 0.  1.
<mgrwt>
<rscale>  2 0.22807105E+03</rscale>
<asrwt>0</asrwt>
<pdfrwt beam="1">  1       21 0.38237065E-01 0.22807105E+03</pdfrwt>
<pdfrwt beam="2">  1       21 0.38608924E-01 0.22807105E+03</pdfrwt>
<totfact> 0.41939715E+04</totfact>
</mgrwt>
</event>
<event>
 4    1  0.4374784E+000  0.2203063E+03  0.7546771E-02  0.1133655E+00
         21   -1    0    0  501  502  0.00000000000E+00  0.00000000000E+00  0.42071656536E+03  0.42071656536E+03  0.00000000000E+00 0.  1.
         21   -1    0    0  502  503 -0.00000000000E+00 -0.00000000000E+00 -0.11755472166E+03  0.11755472166E+03  0.00000000000E+00 0. -1.
          6    1    1    2  501    0  0.80911963283E+02  0.10981401487E+03  0.11482685138E+03  0.24843524199E+03  0.17300000000E+03 0. -1.
         -6    1    1    2    0  503 -0.80911963283E+02 -0.10981401487E+03  0.18833499232E+03  0.28983604502E+03  0.17300000000E+03 0.  1.
<mgrwt>
<rscale>  2 0.22030630E+03</rscale>
<asrwt>0</asrwt>
<pdfrwt beam="1">  1       21 0.64725624E-01 0.22030630E+03</pdfrwt>
<pdfrwt beam="2">  1       21 0.18085342E-01 0.22030630E+03</pdfrwt>
<totfact> 0.60450688E+04</totfact>
</mgrwt>
</event>
<event>
 4    1  0.4374784E+000  0.2757495E+03  0.7546771E-02  0.1098033E+00
         21   -1    0    0  503  502  0.00000000000E+00  0.00000000000E+00  0.90040588263E+02  0.90040588263E+02  0.00000000000E+00 0.  1.
         21   -1    0    0  501  503 -0.00000000000E+00 -0.00000000000E+00 -0.86533292108E+03  0.86533292108E+03  0.00000000000E+00 0. -1.
          6    1    1    2  501    0  0.21443579519E+03  0.11227260619E+02 -0.46179460258E+03  0.53785873296E+03  0.17300000000E+03 0. -1.
         -6    1    1    2    0  502 -0.21443579519E+03 -0.11227260619E+02 -0.31349773024E+03  0.41751477639E+03  0.17300000000E+03 0.  1.
<mgrwt>
<rscale>  2 0.27574945E+03</rscale>
<asrwt>0</asrwt>
<pdfrwt beam="1">  1       21 0.13852398E-01 0.27574945E+03</pdfrwt>
<pdfrwt beam="2">  1       21 0.13312815E+00 0.27574945E+03</pdfrwt>
<totfact> 0.17588780E+04</totfact>
</mgrwt>
</event>
<event>
 4    1  0.4374784E+000  0.2188197E+03  0.7546771E-02  0.1134766E+00
         21   -1    0    0  501  502  0.00000000000E+00  0.00000000000E+00  0.92699800113E+02  0.92699800113E+02  0.00000000000E+00 0.  1.
         21   -1    0    0  502  503 -0.00000000000E+00 -0.00000000000E+00 -0.57369639833E+03  0.57369639833E+03  0.00000000000E+00 0. -1.
          6    1    1    2  501    0  0.94532565815E+01 -0.13365510212E+03 -0.13531685312E+03  0.25727942226E+03  0.17300000000E+03 0.  1.
         -6    1    1    2    0  503 -0.94532565815E+01  0.13365510212E+03 -0.34567974509E+03  0.40911677618E+03  0.17300000000E+03 0. -1.
<mgrwt>
<rscale>  2 0.21881968E+03</rscale>
<asrwt>0</asrwt>
<pdfrwt beam="1">  1       21 0.14261508E-01 0.21881968E+03</pdfrwt>
<pdfrwt beam="2">  1       21 0.88260986E-01 0.21881968E+03</pdfrwt>
<totfact> 0.46641664E+04</totfact>
</mgrwt>
</event>
<event>
 4    1  0.4374784E+000  0.1746130E+03  0.7546771E-02  0.1173121E+00
         21   -1    0    0  503  502  0.00000000000E+00  0.00000000000E+00  0.13589502926E+04  0.13589502926E+04  0.00000000000E+00 0.  1.
         21   -1    0    0  501  503 -0.00000000000E+00 -0.00000000000E+00 -0.83328014964E+02  0.83328014964E+02  0.00000000000E+00 0.  1.
          6    1    1    2  501    0  0.16771517437E+02  0.16715751163E+02  0.21353886868E+02  0.17591386704E+03  0.17300000000E+03 0.  1.
         -6    1    1    2    0  502 -0.16771517437E+02 -0.16715751163E+02  0.12542683907E+04  0.12663644405E+04  0.17300000000E+03 0.  1.
<mgrwt>
<rscale>  2 0.17461300E+03</rscale>
<asrwt>0</asrwt>
<pdfrwt beam="1">  1       21 0.20906926E+00 0.17461300E+03</pdfrwt>
<pdfrwt beam="2">  1       21 0.12819696E-01 0.17461300E+03</pdfrwt>
<totfact> 0.62365427E+03</totfact>
</mgrwt>
</event>
<event>
 4    1  0.4374784E+000  0.1923783E+03  0.7546771E-02  0.1156334E+00
         21   -1    0    0  501  502  0.00000000000E+00  0.00000000000E+00  0.20519655119E+03  0.20519655119E+03  0.00000000000E+00 0. -1.
         21   -1    0    0  502  503 -0.00000000000E+00 -0.00000000000E+00 -0.29375735047E+03  0.29375735047E+03  0.00000000000E+00 0. -1.
          6    1    1    2  501    0 -0.78134879228E+02  0.31230512342E+02  0.11072116069E+03  0.22196526683E+03  0.17300000000E+03 0. -1.
         -6    1    1    2    0  503  0.78134879228E+02 -0.31230512342E+02 -0.19928195997E+03  0.27698863483E+03  0.17300000000E+03 0. -1.
<mgrwt>
<rscale>  2 0.19237828E+03</rscale>
<asrwt>0</asrwt>
<pdfrwt beam="1">  1       21 0.31568700E-01 0.19237828E+03</pdfrwt>
<pdfrwt beam="2">  1       21 0.45193439E-01 0.19237828E+03</pdfrwt>
<totfact> 0.45315362E+04</totfact>
</mgrwt>
</event>
<event>
 4    1  0.4374784E+000  0.1802160E+03  0.7546771E-02  0.1167594E+00
         21   -1    0    0  503  502  0.00000000000E+00  0.00000000000E+00  0.28403042148E+03  0.28403042148E+03  0.00000000000E+00 0. -1.
         21   -1    0    0  501  503 -0.00000000000E+00 -0.00000000000E+00 -0.11452148761E+03  0.11452148761E+03  0.00000000000E+00 0. -1.
          6    1    1    2  501    0 -0.46130335870E+01  0.50274488400E+02  0.76958576603E+02  0.19596026836E+03  0.17300000000E+03 0. -1.
         -6    1    1    2    0  502  0.46130335870E+01 -0.50274488400E+02  0.92550357269E+02  0.20259164073E+03  0.17300000000E+03 0. -1.
<mgrwt>
<rscale>  2 0.18021599E+03</rscale>
<asrwt>0</asrwt>
<pdfrwt beam="1">  1       21 0.43696988E-01 0.18021599E+03</pdfrwt>
<pdfrwt beam="2">  1       21 0.17618690E-01 0.18021599E+03</pdfrwt>
<totfact> 0.14759494E+05</totfact>
</mgrwt>
</event>
<event>
 4    1  0.4374784E+000  0.1823986E+03  0.7546771E-02  0.1165502E+00
         21   -1    0    0  503  502  0.00000000000E+00  0.00000000000E+00  0.20779248394E+03  0.20779248394E+03  0.00000000000E+00 0. -1.
         21   -1    0    0  501  503 -0.00000000000E+00 -0.00000000000E+00 -0.25961056050E+03  0.25961056050E+03  0.00000000000E+00 0.  1.
          6    1    1    2  501    0  0.40771010972E+02 -0.40963095580E+02 -0.17059199359E+03  0.24974162411E+03  0.17300000000E+03 0.  1.
         -6    1    1    2    0  502 -0.40771010972E+02  0.40963095580E+02  0.11877391703E+03  0.21766142033E+03  0.17300000000E+03 0. -1.
<mgrwt>
<rscale>  2 0.18239860E+03</rscale>
<asrwt>0</asrwt>
<pdfrwt beam="1">  1       21 0.31968074E-01 0.18239860E+03</pdfrwt>
<pdfrwt beam="2">  1       21 0.39940086E-01 0.18239860E+03</pdfrwt>
<totfact> 0.57120416E+04</totfact>
</mgrwt>
</event>
<event>
 4    1  0.4374784E+000  0.2140542E+03  0.7546771E-02  0.1138395E+00
         21   -1    0    0  503  502  0.00000000000E+00  0.00000000000E+00  0.51180588478E+03  0.51180588478E+03  0.00000000000E+00 0.  1.
         21   -1    0    0  501  503 -0.00000000000E+00 -0.00000000000E+00 -0.15062766665E+03  0.15062766665E+03  0.00000000000E+00 0. -1.
          6    1    1    2  501    0 -0.11458589945E+03  0.52538093489E+02 -0.30366809676E+02  0.21619741615E+03  0.17300000000E+03 0. -1.
         -6    1    1    2    0  502  0.11458589945E+03 -0.52538093489E+02  0.39154502781E+03  0.44623613527E+03  0.17300000000E+03 0.  1.
<mgrwt>
<rscale>  2 0.21405415E+03</rscale>
<asrwt>0</asrwt>
<pdfrwt beam="1">  1       21 0.78739366E-01 0.21405415E+03</pdfrwt>
<pdfrwt beam="2">  1       21 0.23173487E-01 0.21405415E+03</pdfrwt>
<totfact> 0.24639911E+04</totfact>
</mgrwt>
</event>
<event>
 4    1  0.4374784E+000  0.1861539E+03  0.7546771E-02  0.1161977E+00
         21   -1    0    0  501  502  0.00000000000E+00  0.00000000000E+00  0.51077086437E+03  0.51077086437E+03  0.00000000000E+00 0.  1.
         21   -1    0    0  502  503 -0.00000000000E+00 -0.00000000000E+00 -0.73298571650E+02  0.73298571650E+02  0.00000000000E+00 0.  1.
          6    1    1    2  501    0  0.68649145437E+02  0.34034514451E+01  0.29839318785E+03  0.35169842651E+03  0.17300000000E+03 0.  1.
         -6    1    1    2    0  503 -0.68649145437E+02 -0.34034514451E+01  0.13907910487E+03  0.23237100951E+03  0.17300000000E+03 0.  1.
<mgrwt>
<rscale>  2 0.18615394E+03</rscale>
<asrwt>0</asrwt>
<pdfrwt beam="1">  1       21 0.78580131E-01 0.18615394E+03</pdfrwt>
<pdfrwt beam="2">  1       21 0.11276704E-01 0.18615394E+03</pdfrwt>
<totfact> 0.94143271E+04</totfact>
</mgrwt>
</event>
<event>
 4    1  0.4374784E+000  0.2361089E+03  0.7546771E-02  0.1122412E+00
         21   -1    0    0  503  502  0.00000000000E+00  0.00000000000E+00  0.36613816277E+03  0.36613816277E+03  0.00000000000E+00 0. -1.
         21   -1    0    0  501  503 -0.00000000000E+00 -0.00000000000E+00 -0.15232447017E+03  0.15232447017E+03  0.00000000000E+00 0. -1.
          6    1    1    2  501    0 -0.14665913096E+03 -0.65646758003E+02  0.11232949828E+03  0.26146761504E+03  0.17300000000E+03 0. -1.
         -6    1    1    2    0  502  0.14665913096E+03  0.65646758003E+02  0.10148419432E+03  0.25699501790E+03  0.17300000000E+03 0. -1.
<mgrwt>
<rscale>  2 0.23610887E+03</rscale>
<asrwt>0</asrwt>
<pdfrwt beam="1">  1       21 0.56328948E-01 0.23610887E+03</pdfrwt>
<pdfrwt beam="2">  1       21 0.23434534E-01 0.23610887E+03</pdfrwt>
<totfact> 0.49788734E+04</totfact>
</mgrwt>
</event>
<event>
 4    1  0.4374784E+000  0.2210547E+03  0.7546771E-02  0.1133099E+00
         21   -1    0    0  501  502  0.00000000000E+00  0.00000000000E+00  0.25184673874E+03  0.25184673874E+03  0.00000000000E+00 0.  1.
         21   -1    0    0  502  503 -0.00000000000E+00 -0.00000000000E+00 -0.19424660655E+03  0.19424660655E+03  0.00000000000E+00 0. -1.
          6    1    1    2  501    0  0.66867022194E+02 -0.12027050371E+03  0.21308921026E+02  0.22207940660E+03  0.17300000000E+03 0. -1.
         -6    1    1    2    0  503 -0.66867022194E+02  0.12027050371E+03  0.36291211168E+02  0.22401393869E+03  0.17300000000E+03 0. -1.
<mgrwt>
<rscale>  2 0.22105473E+03</rscale>
<asrwt>0</asrwt>
<pdfrwt beam="1">  1       21 0.38745652E-01 0.22105473E+03</pdfrwt>
<pdfrwt beam="2">  1       21 0.29884093E-01 0.22105473E+03</pdfrwt>
<totfact> 0.68114991E+04</totfact>
</mgrwt>
</event>
<event>
 4    1  0.4374784E+000  0.2047823E+03  0.7546771E-02  0.1145766E+00
         21   -1    0    0  503  502  0.00000000000E+00  0.00000000000E+00  0.28308729674E+03  0.28308729674E+03  0.00000000000E+00 0. -1.
         21   -1    0    0  501  503 -0.00000000000E+00 -0.00000000000E+00 -0.17200295396E+03  0.17200295396E+03  0.00000000000E+00 0. -1.
          6    1    1    2  501    0  0.89495650333E+01 -0.10920935666E+03 -0.29216971954E+02  0.20685601211E+03  0.17300000000E+03 0. -1.
         -6    1    1    2    0  502 -0.89495650333E+01  0.10920935666E+03  0.14030131473E+03  0.24823423860E+03  0.17300000000E+03 0. -1.
<mgrwt>
<rscale>  2 0.20478227E+03</rscale>
<asrwt>0</asrwt>
<pdfrwt beam="1">  1       21 0.43551892E-01 0.20478227E+03</pdfrwt>
<pdfrwt beam="2">  1       21 0.26461993E-01 0.20478227E+03</pdfrwt>
<totfact> 0.68462662E+04</totfact>
</mgrwt>
</event>
<event>
 4    1  0.4374784E+000  0.1797532E+03  0.7546771E-02  0.1168042E+00
         21   -1    0    0  503  502  0.00000000000E+00  0.00000000000E+00  0.14184325572E+04  0.14184325572E+04  0.00000000000E+00 0.  1.
         21   -1    0    0  501  503 -0.00000000000E+00 -0.00000000000E+00 -0.43624867264E+02  0.43624867264E+02  0.00000000000E+00 0.  1.
          6    1    1    2  501    0 -0.10956292663E+02 -0.47562119331E+02  0.18207734991E+03  0.25585807960E+03  0.17300000000E+03 0.  1.
         -6    1    1    2    0  502  0.10956292663E+02  0.47562119331E+02  0.11927303401E+04  0.12061993449E+04  0.17300000000E+03 0.  1.
<mgrwt>
<rscale>  2 0.17975315E+03</rscale>
<asrwt>0</asrwt>
<pdfrwt beam="1">  1       21 0.21822036E+00 0.17975315E+03</pdfrwt>
<pdfrwt beam="2">  1       21 0.67115191E-02 0.17975315E+03</pdfrwt>
<totfact> 0.16962079E+04</totfact>
</mgrwt>
</event>
<event>
 4    1  0.4374784E+000  0.2267230E+03  0.7546771E-02  0.1128968E+00
         21   -1    0    0  503  502  0.00000000000E+00  0.00000000000E+00  0.18191836769E+04  0.18191836769E+04  0.00000000000E+00 0. -1.
         21   -1    0    0  501  503 -0.00000000000E+00 -0.00000000000E+00 -0.49466697484E+02  0.49466697484E+02  0.00000000000E+00 0. -1.
          6    1    1    2  501    0  0.53803399896E+02 -0.13630667334E+03  0.27304862044E+03  0.35490683871E+03  0.17300000000E+03 0. -1.
         -6    1    1    2    0  502 -0.53803399896E+02  0.13630667334E+03  0.14966683590E+04  0.15137435357E+04  0.17300000000E+03 0. -1.
<mgrwt>
<rscale>  2 0.22672299E+03</rscale>
<asrwt>0</asrwt>
<pdfrwt beam="1">  1       21 0.27987436E+00 0.22672299E+03</pdfrwt>
<pdfrwt beam="2">  1       21 0.76102625E-02 0.22672299E+03</pdfrwt>
<totfact> 0.56338021E+03</totfact>
</mgrwt>
</event>
<event>
 4    1  0.4374784E+000  0.1915339E+03  0.7546771E-02  0.1157085E+00
         21   -1    0    0  501  502  0.00000000000E+00  0.00000000000E+00  0.42248592956E+03  0.42248592956E+03  0.00000000000E+00 0. -1.
         21   -1    0    0  502  503 -0.00000000000E+00 -0.00000000000E+00 -0.87342654220E+02  0.87342654220E+02  0.00000000000E+00 0. -1.
          6    1    1    2  501    0 -0.72959391425E+02  0.37857223547E+02  0.18706563384E+03  0.26772895535E+03  0.17300000000E+03 0. -1.
         -6    1    1    2    0  503  0.72959391425E+02 -0.37857223547E+02  0.14807764151E+03  0.24209962843E+03  0.17300000000E+03 0. -1.
<mgrwt>
<rscale>  2 0.19153392E+03</rscale>
<asrwt>0</asrwt>
<pdfrwt beam="1">  1       21 0.64997834E-01 0.19153392E+03</pdfrwt>
<pdfrwt beam="2">  1       21 0.13437332E-01 0.19153392E+03</pdfrwt>
<totfact> 0.10442656E+05</totfact>
</mgrwt>
</event>
<event>
 4    1  0.4374784E+000  0.1943192E+03  0.7546771E-02  0.1154622E+00
         21   -1    0    0  501  502  0.00000000000E+00  0.00000000000E+00  0.12761247543E+03  0.12761247543E+03  0.00000000000E+00 0.  1.
         21   -1    0    0  502  503 -0.00000000000E+00 -0.00000000000E+00 -0.30921422425E+03  0.30921422425E+03  0.00000000000E+00 0.  1.
          6    1    1    2  501    0 -0.49314779171E+02 -0.73477882123E+02 -0.45471250280E+02  0.19956848751E+03  0.17300000000E+03 0. -1.
         -6    1    1    2    0  503  0.49314779171E+02  0.73477882123E+02 -0.13613049854E+03  0.23725821216E+03  0.17300000000E+03 0. -1.
<mgrwt>
<rscale>  2 0.19431919E+03</rscale>
<asrwt>0</asrwt>
<pdfrwt beam="1">  1       21 0.19632689E-01 0.19431919E+03</pdfrwt>
<pdfrwt beam="2">  1       21 0.47571419E-01 0.19431919E+03</pdfrwt>
<totfact> 0.10091342E+05</totfact>
</mgrwt>
</event>
<event>
 4    1  0.4374784E+000  0.1850304E+03  0.7546771E-02  0.1163022E+00
         21   -1    0    0  503  502  0.00000000000E+00  0.00000000000E+00  0.14639545470E+03  0.14639545470E+03  0.00000000000E+00 0. -1.
         21   -1    0    0  501  503 -0.00000000000E+00 -0.00000000000E+00 -0.25563743644E+03  0.25563743644E+03  0.00000000000E+00 0. -1.
          6    1    1    2  501    0  0.64653921649E+02 -0.11273930593E+02 -0.11329014062E+03  0.21695826109E+03  0.17300000000E+03 0. -1.
         -6    1    1    2    0  502 -0.64653921649E+02  0.11273930593E+02  0.40481588715E+01  0.18507463004E+03  0.17300000000E+03 0. -1.
<mgrwt>
<rscale>  2 0.18503035E+03</rscale>
<asrwt>0</asrwt>
<pdfrwt beam="1">  1       21 0.22522378E-01 0.18503035E+03</pdfrwt>
<pdfrwt beam="2">  1       21 0.39328836E-01 0.18503035E+03</pdfrwt>
<totfact> 0.11541274E+05</totfact>
</mgrwt>
</event>
<event>
 4    1  0.4374784E+000  0.3220909E+03  0.7546771E-02  0.1074691E+00
         21   -1    0    0  501  502  0.00000000000E+00  0.00000000000E+00  0.19796546457E+03  0.19796546457E+03  0.00000000000E+00 0. -1.
         21   -1    0    0  502  503 -0.00000000000E+00 -0.00000000000E+00 -0.63132576221E+03  0.63132576221E+03  0.00000000000E+00 0.  1.
          6    1    1    2  501    0  0.24747590205E+03 -0.11211245191E+03 -0.45751764177E+02  0.32532406596E+03  0.17300000000E+03 0.  1.
         -6    1    1    2    0  503 -0.24747590205E+03  0.11211245191E+03 -0.38760853347E+03  0.50396716082E+03  0.17300000000E+03 0. -1.
<mgrwt>
<rscale>  2 0.32209086E+03</rscale>
<asrwt>0</asrwt>
<pdfrwt beam="1">  1       21 0.30456226E-01 0.32209086E+03</pdfrwt>
<pdfrwt beam="2">  1       21 0.97127040E-01 0.32209086E+03</pdfrwt>
<totfact> 0.84557626E+03</totfact>
</mgrwt>
</event>
<event>
 4    1  0.4374784E+000  0.2811097E+03  0.7546771E-02  0.1095084E+00
         21   -1    0    0  503  502  0.00000000000E+00  0.00000000000E+00  0.14999631094E+03  0.14999631094E+03  0.00000000000E+00 0.  1.
         21   -1    0    0  501  503 -0.00000000000E+00 -0.00000000000E+00 -0.57421389545E+03  0.57421389545E+03  0.00000000000E+00 0.  1.
          6    1    1    2  501    0 -0.21324071752E+03  0.60183661166E+02 -0.31612703321E+03  0.42303543327E+03  0.17300000000E+03 0.  1.
         -6    1    1    2    0  502  0.21324071752E+03 -0.60183661166E+02 -0.10809055130E+03  0.30117477312E+03  0.17300000000E+03 0.  1.
<mgrwt>
<rscale>  2 0.28110972E+03</rscale>
<asrwt>0</asrwt>
<pdfrwt beam="1">  1       21 0.23076355E-01 0.28110972E+03</pdfrwt>
<pdfrwt beam="2">  1       21 0.88340601E-01 0.28110972E+03</pdfrwt>
<totfact> 0.18456491E+04</totfact>
</mgrwt>
</event>
<event>
 4    1  0.4374784E+000  0.1958853E+03  0.7546771E-02  0.1153258E+00
         21   -1    0    0  503  502  0.00000000000E+00  0.00000000000E+00  0.52087465821E+02  0.52087465821E+02  0.00000000000E+00 0.  1.
         21   -1    0    0  501  503 -0.00000000000E+00 -0.00000000000E+00 -0.74153320552E+03  0.74153320552E+03  0.00000000000E+00 0. -1.
          6    1    1    2  501    0 -0.23381354559E+02  0.88855905229E+02 -0.37687147939E+03  0.42473894525E+03  0.17300000000E+03 0.  1.
         -6    1    1    2    0  502  0.23381354559E+02 -0.88855905229E+02 -0.31257426030E+03  0.36888172609E+03  0.17300000000E+03 0.  1.
<mgrwt>
<rscale>  2 0.19588532E+03</rscale>
<asrwt>0</asrwt>
<pdfrwt beam="1">  1       21 0.80134565E-02 0.19588532E+03</pdfrwt>
<pdfrwt beam="2">  1       21 0.11408203E+00 0.19588532E+03</pdfrwt>
<totfact> 0.71419954E+04</totfact>
</mgrwt>
</event>
<event>
 4    1  0.4374784E+000  0.1763915E+03  0.7546771E-02  0.1171342E+00
         21   -1    0    0  503  502  0.00000000000E+00  0.00000000000E+00  0.59934893480E+02  0.59934893480E+02  0.00000000000E+00 0. -1.
         21   -1    0    0  501  503 -0.00000000000E+00 -0.00000000000E+00 -0.52085987442E+03  0.52085987442E+03  0.00000000000E+00 0. -1.
          6    1    1    2  501    0 -0.76941823937E+01 -0.33552566060E+02 -0.24720013100E+03  0.30368055568E+03  0.17300000000E+03 0. -1.
         -6    1    1    2    0  502  0.76941823937E+01  0.33552566060E+02 -0.21372484994E+03  0.27711421222E+03  0.17300000000E+03 0. -1.
<mgrwt>
<rscale>  2 0.17639154E+03</rscale>
<asrwt>0</asrwt>
<pdfrwt beam="1">  1       21 0.92207528E-02 0.17639154E+03</pdfrwt>
<pdfrwt beam="2">  1       21 0.80132289E-01 0.17639154E+03</pdfrwt>
<totfact> 0.12903368E+05</totfact>
</mgrwt>
</event>
<event>
 4    1  0.4374784E+000  0.1772156E+03  0.7546771E-02  0.1170525E+00
         21   -1    0    0  501  502  0.00000000000E+00  0.00000000000E+00  0.14825465387E+03  0.14825465387E+03  0.00000000000E+00 0. -1.
         21   -1    0    0  502  503 -0.00000000000E+00 -0.00000000000E+00 -0.25628193973E+03  0.25628193973E+03  0.00000000000E+00 0. -1.
          6    1    1    2  501    0  0.27580705310E+02 -0.26752363979E+02  0.30221704672E+02  0.17977412416E+03  0.17300000000E+03 0. -1.
         -6    1    1    2    0  503 -0.27580705310E+02  0.26752363979E+02 -0.13824899053E+03  0.22476246944E+03  0.17300000000E+03 0. -1.
<mgrwt>
<rscale>  2 0.17721564E+03</rscale>
<asrwt>0</asrwt>
<pdfrwt beam="1">  1       21 0.22808409E-01 0.17721564E+03</pdfrwt>
<pdfrwt beam="2">  1       21 0.39427990E-01 0.17721564E+03</pdfrwt>
<totfact> 0.11244538E+05</totfact>
</mgrwt>
</event>
<event>
 4    1  0.4374784E+000  0.1969792E+03  0.7546771E-02  0.1152313E+00
         21   -1    0    0  503  502  0.00000000000E+00  0.00000000000E+00  0.12655425792E+03  0.12655425792E+03  0.00000000000E+00 0. -1.
         21   -1    0    0  501  503 -0.00000000000E+00 -0.00000000000E+00 -0.30665967782E+03  0.30665967782E+03  0.00000000000E+00 0. -1.
          6    1    1    2  501    0 -0.45598144649E+02  0.82417343421E+02 -0.86889078275E+02  0.21529171191E+03  0.17300000000E+03 0. -1.
         -6    1    1    2    0  502  0.45598144649E+02 -0.82417343421E+02 -0.93216341625E+02  0.21792222383E+03  0.17300000000E+03 0. -1.
<mgrwt>
<rscale>  2 0.19697921E+03</rscale>
<asrwt>0</asrwt>
<pdfrwt beam="1">  1       21 0.19469886E-01 0.19697921E+03</pdfrwt>
<pdfrwt beam="2">  1       21 0.47178411E-01 0.19697921E+03</pdfrwt>
<totfact> 0.10415224E+05</totfact>
</mgrwt>
</event>
<event>
 4    1  0.4374784E+000  0.2922129E+03  0.7546771E-02  0.1089199E+00
         21   -1    0    0  501  502  0.00000000000E+00  0.00000000000E+00  0.52904492138E+03  0.52904492138E+03  0.00000000000E+00 0. -1.
         21   -1    0    0  502  503 -0.00000000000E+00 -0.00000000000E+00 -0.23579644515E+03  0.23579644515E+03  0.00000000000E+00 0.  1.
          6    1    1    2  501    0 -0.15696332287E+03  0.17556166795E+03  0.36142998402E+03  0.46477953626E+03  0.17300000000E+03 0. -1.
         -6    1    1    2    0  503  0.15696332287E+03 -0.17556166795E+03 -0.68181507795E+02  0.30006183027E+03  0.17300000000E+03 0.  1.
<mgrwt>
<rscale>  2 0.29221291E+03</rscale>
<asrwt>0</asrwt>
<pdfrwt beam="1">  1       21 0.81391526E-01 0.29221291E+03</pdfrwt>
<pdfrwt beam="2">  1       21 0.36276376E-01 0.29221291E+03</pdfrwt>
<totfact> 0.91447681E+03</totfact>
</mgrwt>
</event>
<event>
 4    1  0.4374784E+000  0.2347505E+03  0.7546771E-02  0.1123340E+00
         21   -1    0    0  501  502  0.00000000000E+00  0.00000000000E+00  0.10917019232E+03  0.10917019232E+03  0.00000000000E+00 0. -1.
         21   -1    0    0  502  503 -0.00000000000E+00 -0.00000000000E+00 -0.68923173541E+03  0.68923173541E+03  0.00000000000E+00 0. -1.
          6    1    1    2  501    0  0.14612782541E+03 -0.61850376146E+02 -0.83520896712E+02  0.24916570907E+03  0.17300000000E+03 0. -1.
         -6    1    1    2    0  503 -0.14612782541E+03  0.61850376146E+02 -0.49654064638E+03  0.54923621867E+03  0.17300000000E+03 0. -1.
<mgrwt>
<rscale>  2 0.23475053E+03</rscale>
<asrwt>0</asrwt>
<pdfrwt beam="1">  1       21 0.16795414E-01 0.23475053E+03</pdfrwt>
<pdfrwt beam="2">  1       21 0.10603565E+00 0.23475053E+03</pdfrwt>
<totfact> 0.22216579E+04</totfact>
</mgrwt>
</event>
<event>
 4    1  0.4374784E+000  0.1954930E+03  0.7546771E-02  0.1153598E+00
         21   -1    0    0  503  502  0.00000000000E+00  0.00000000000E+00  0.12006723600E+03  0.12006723600E+03  0.00000000000E+00 0.  1.
         21   -1    0    0  501  503 -0.00000000000E+00 -0.00000000000E+00 -0.65305834757E+03  0.65305834757E+03  0.00000000000E+00 0. -1.
          6    1    1    2  501    0 -0.89351117328E+02 -0.17461447938E+02 -0.54325923744E+03  0.57736307761E+03  0.17300000000E+03 0. -1.
         -6    1    1    2    0  502  0.89351117328E+02  0.17461447938E+02  0.10268125867E+02  0.19576250596E+03  0.17300000000E+03 0.  1.
<mgrwt>
<rscale>  2 0.19549303E+03</rscale>
<asrwt>0</asrwt>
<pdfrwt beam="1">  1       21 0.18471883E-01 0.19549303E+03</pdfrwt>
<pdfrwt beam="2">  1       21 0.10047051E+00 0.19549303E+03</pdfrwt>
<totfact> 0.21690111E+04</totfact>
</mgrwt>
</event>
<event>
 4    1  0.4374784E+000  0.2104109E+03  0.7546771E-02  0.1141241E+00
         21   -1    0    0  503  502  0.00000000000E+00  0.00000000000E+00  0.47740503947E+03  0.47740503947E+03  0.00000000000E+00 0. -1.
         21   -1    0    0  501  503 -0.00000000000E+00 -0.00000000000E+00 -0.11470000426E+03  0.11470000426E+03  0.00000000000E+00 0. -1.
          6    1    1    2  501    0  0.81949987439E+02 -0.87338174114E+02  0.51801671746E+02  0.21669372463E+03  0.17300000000E+03 0. -1.
         -6    1    1    2    0  502 -0.81949987439E+02  0.87338174114E+02  0.31090336346E+03  0.37541131911E+03  0.17300000000E+03 0. -1.
<mgrwt>
<rscale>  2 0.21041092E+03</rscale>
<asrwt>0</asrwt>
<pdfrwt beam="1">  1       21 0.73446928E-01 0.21041092E+03</pdfrwt>
<pdfrwt beam="2">  1       21 0.17646155E-01 0.21041092E+03</pdfrwt>
<totfact> 0.48090796E+04</totfact>
</mgrwt>
</event>
<event>
 4    1  0.4374784E+000  0.1855561E+03  0.7546771E-02  0.1162532E+00
         21   -1    0    0  503  502  0.00000000000E+00  0.00000000000E+00  0.11053234226E+03  0.11053234226E+03  0.00000000000E+00 0.  1.
         21   -1    0    0  501  503 -0.00000000000E+00 -0.00000000000E+00 -0.68420611453E+03  0.68420611453E+03  0.00000000000E+00 0.  1.
          6    1    1    2  501    0 -0.23612512018E+01 -0.67055767607E+02 -0.58011713801E+03  0.60907055854E+03  0.17300000000E+03 0.  1.
         -6    1    1    2    0  502  0.23612512018E+01  0.67055767607E+02  0.64433657440E+01  0.18566789824E+03  0.17300000000E+03 0.  1.
<mgrwt>
<rscale>  2 0.18555606E+03</rscale>
<asrwt>0</asrwt>
<pdfrwt beam="1">  1       21 0.17004976E-01 0.18555606E+03</pdfrwt>
<pdfrwt beam="2">  1       21 0.10526248E+00 0.18555606E+03</pdfrwt>
<totfact> 0.22741418E+04</totfact>
</mgrwt>
</event>
<event>
 4    1  0.4374784E+000  0.3602677E+03  0.7546771E-02  0.1058478E+00
         21   -1    0    0  501  502  0.00000000000E+00  0.00000000000E+00  0.58751587859E+03  0.58751587859E+03  0.00000000000E+00 0.  1.
         21   -1    0    0  502  503 -0.00000000000E+00 -0.00000000000E+00 -0.57173659558E+03  0.57173659558E+03  0.00000000000E+00 0. -1.
          6    1    1    2  501    0 -0.20430152107E+03  0.24109067221E+03  0.46192675349E+03  0.58580640943E+03  0.17300000000E+03 0.  1.
         -6    1    1    2    0  503  0.20430152107E+03 -0.24109067221E+03 -0.44614747048E+03  0.57344606473E+03  0.17300000000E+03 0. -1.
<mgrwt>
<rscale>  2 0.36026771E+03</rscale>
<asrwt>0</asrwt>
<pdfrwt beam="1">  1       21 0.90387058E-01 0.36026771E+03</pdfrwt>
<pdfrwt beam="2">  1       21 0.87959476E-01 0.36026771E+03</pdfrwt>
<totfact> 0.10211414E+03</totfact>
</mgrwt>
</event>
<event>
 4    1  0.4374784E+000  0.2035328E+03  0.7546771E-02  0.1146792E+00
         21   -1    0    0  503  502  0.00000000000E+00  0.00000000000E+00  0.96767111111E+02  0.96767111111E+02  0.00000000000E+00 0. -1.
         21   -1    0    0  501  503 -0.00000000000E+00 -0.00000000000E+00 -0.62318349978E+03  0.62318349978E+03  0.00000000000E+00 0. -1.
          6    1    1    2  501    0  0.22137839472E+02  0.10491192864E+03 -0.46461755324E+03  0.50724261206E+03  0.17300000000E+03 0. -1.
         -6    1    1    2    0  502 -0.22137839472E+02 -0.10491192864E+03 -0.61798835424E+02  0.21270799883E+03  0.17300000000E+03 0. -1.
<mgrwt>
<rscale>  2 0.20353279E+03</rscale>
<asrwt>0</asrwt>
<pdfrwt beam="1">  1       21 0.14887248E-01 0.20353279E+03</pdfrwt>
<pdfrwt beam="2">  1       21 0.95874383E-01 0.20353279E+03</pdfrwt>
<totfact> 0.35844251E+04</totfact>
</mgrwt>
</event>
<event>
 4    1  0.4374784E+000  0.3231067E+03  0.7546771E-02  0.1074228E+00
         21   -1    0    0  503  502  0.00000000000E+00  0.00000000000E+00  0.24899172414E+03  0.24899172414E+03  0.00000000000E+00 0. -1.
         21   -1    0    0  501  503 -0.00000000000E+00 -0.00000000000E+00 -0.44862773603E+03  0.44862773603E+03  0.00000000000E+00 0.  1.
          6    1    1    2  501    0 -0.62980701974E+02  0.26552280310E+03 -0.18902783226E+03  0.37433868242E+03  0.17300000000E+03 0. -1.
         -6    1    1    2    0  502  0.62980701974E+02 -0.26552280310E+03 -0.10608179629E+02  0.32328077775E+03  0.17300000000E+03 0.  1.
<mgrwt>
<rscale>  2 0.32310668E+03</rscale>
<asrwt>0</asrwt>
<pdfrwt beam="1">  1       21 0.38306420E-01 0.32310668E+03</pdfrwt>
<pdfrwt beam="2">  1       21 0.69019651E-01 0.32310668E+03</pdfrwt>
<totfact> 0.11729565E+04</totfact>
</mgrwt>
</event>
<event>
 4    1  0.4374784E+000  0.1798390E+03  0.7546771E-02  0.1167959E+00
         21   -1    0    0  503  502  0.00000000000E+00  0.00000000000E+00  0.13868118927E+03  0.13868118927E+03  0.00000000000E+00 0.  1.
         21   -1    0    0  501  503 -0.00000000000E+00 -0.00000000000E+00 -0.23360579183E+03  0.23360579183E+03  0.00000000000E+00 0.  1.
          6    1    1    2  501    0  0.36748575539E+02  0.32597641163E+02 -0.55108613357E+02  0.18809312396E+03  0.17300000000E+03 0. -1.
         -6    1    1    2    0  502 -0.36748575539E+02 -0.32597641163E+02 -0.39815989205E+02  0.18419385715E+03  0.17300000000E+03 0. -1.
<mgrwt>
<rscale>  2 0.17983899E+03</rscale>
<asrwt>0</asrwt>
<pdfrwt beam="1">  1       21 0.21335568E-01 0.17983899E+03</pdfrwt>
<pdfrwt beam="2">  1       21 0.35939352E-01 0.17983899E+03</pdfrwt>
<totfact> 0.15329925E+05</totfact>
</mgrwt>
</event>
<event>
 4    1  0.4374784E+000  0.1955719E+03  0.7546771E-02  0.1153530E+00
         21   -1    0    0  503  502  0.00000000000E+00  0.00000000000E+00  0.34994784440E+03  0.34994784440E+03  0.00000000000E+00 0. -1.
         21   -1    0    0  501  503 -0.00000000000E+00 -0.00000000000E+00 -0.10942204015E+03  0.10942204015E+03  0.00000000000E+00 0. -1.
          6    1    1    2  501    0  0.57797418387E+02 -0.70560710952E+02  0.11250796217E+03  0.22562446023E+03  0.17300000000E+03 0. -1.
         -6    1    1    2    0  502 -0.57797418387E+02  0.70560710952E+02  0.12801784208E+03  0.23374542433E+03  0.17300000000E+03 0. -1.
<mgrwt>
<rscale>  2 0.19557187E+03</rscale>
<asrwt>0</asrwt>
<pdfrwt beam="1">  1       21 0.53838129E-01 0.19557187E+03</pdfrwt>
<pdfrwt beam="2">  1       21 0.16834160E-01 0.19557187E+03</pdfrwt>
<totfact> 0.10353218E+05</totfact>
</mgrwt>
</event>
<event>
 4    1  0.4374784E+000  0.2391176E+03  0.7546771E-02  0.1120382E+00
         21   -1    0    0  501  502  0.00000000000E+00  0.00000000000E+00  0.99194638678E+03  0.99194638678E+03  0.00000000000E+00 0.  1.
         21   -1    0    0  502  503 -0.00000000000E+00 -0.00000000000E+00 -0.60559388926E+02  0.60559388926E+02  0.00000000000E+00 0.  1.
          6    1    1    2  501    0 -0.81685384971E+02 -0.14344248696E+03  0.35017799853E+03  0.42403051758E+03  0.17300000000E+03 0.  1.
         -6    1    1    2    0  503  0.81685384971E+02  0.14344248696E+03  0.58120899932E+03  0.62847525813E+03  0.17300000000E+03 0.  1.
<mgrwt>
<rscale>  2 0.23911765E+03</rscale>
<asrwt>0</asrwt>
<pdfrwt beam="1">  1       21 0.15260712E+00 0.23911765E+03</pdfrwt>
<pdfrwt beam="2">  1       21 0.93168298E-02 0.23911765E+03</pdfrwt>
<totfact> 0.25527849E+04</totfact>
</mgrwt>
</event>
<event>
 4    1  0.4374784E+000  0.1997632E+03  0.7546771E-02  0.1149939E+00
         21   -1    0    0  501  502  0.00000000000E+00  0.00000000000E+00  0.20883747860E+03  0.20883747860E+03  0.00000000000E+00 0.  1.
         21   -1    0    0  502  503 -0.00000000000E+00 -0.00000000000E+00 -0.41615608589E+03  0.41615608589E+03  0.00000000000E+00 0. -1.
          6    1    1    2  501    0 -0.54313214471E+02 -0.83823662676E+02  0.12615604141E+03  0.23626400165E+03  0.17300000000E+03 0.  1.
         -6    1    1    2    0  503  0.54313214471E+02  0.83823662676E+02 -0.33347464870E+03  0.38872956283E+03  0.17300000000E+03 0. -1.
<mgrwt>
<rscale>  2 0.19976319E+03</rscale>
<asrwt>0</asrwt>
<pdfrwt beam="1">  1       21 0.32128843E-01 0.19976319E+03</pdfrwt>
<pdfrwt beam="2">  1       21 0.64024013E-01 0.19976319E+03</pdfrwt>
<totfact> 0.20899219E+04</totfact>
</mgrwt>
</event>
<event>
 4    1  0.4374784E+000  0.1884055E+03  0.7546771E-02  0.1159907E+00
         21   -1    0    0  503  502  0.00000000000E+00  0.00000000000E+00  0.98071039514E+02  0.98071039514E+02  0.00000000000E+00 0.  1.
         21   -1    0    0  501  503 -0.00000000000E+00 -0.00000000000E+00 -0.54192014877E+03  0.54192014877E+03  0.00000000000E+00 0.  1.
          6    1    1    2  501    0 -0.74489641900E+02  0.43487129147E+01 -0.40633222555E+03  0.44788669948E+03  0.17300000000E+03 0.  1.
         -6    1    1    2    0  502  0.74489641900E+02 -0.43487129147E+01 -0.37516883708E+02  0.19210448880E+03  0.17300000000E+03 0.  1.
<mgrwt>
<rscale>  2 0.18840546E+03</rscale>
<asrwt>0</asrwt>
<pdfrwt beam="1">  1       21 0.15087852E-01 0.18840546E+03</pdfrwt>
<pdfrwt beam="2">  1       21 0.83372330E-01 0.18840546E+03</pdfrwt>
<totfact> 0.48708320E+04</totfact>
</mgrwt>
</event>
<event>
 4    1  0.4374784E+000  0.2339845E+03  0.7546771E-02  0.1123866E+00
         21   -1    0    0  501  502  0.00000000000E+00  0.00000000000E+00  0.24692640746E+03  0.24692640746E+03  0.00000000000E+00 0. -1.
         21   -1    0    0  502  503 -0.00000000000E+00 -0.00000000000E+00 -0.34209856691E+03  0.34209856691E+03  0.00000000000E+00 0. -1.
          6    1    1    2  501    0  0.12263402868E+03  0.98897024375E+02  0.12711725093E+03  0.26628466330E+03  0.17300000000E+03 0. -1.
         -6    1    1    2    0  503 -0.12263402868E+03 -0.98897024375E+02 -0.22228941038E+03  0.32274031107E+03  0.17300000000E+03 0. -1.
<mgrwt>
<rscale>  2 0.23398446E+03</rscale>
<asrwt>0</asrwt>
<pdfrwt beam="1">  1       21 0.37988678E-01 0.23398446E+03</pdfrwt>
<pdfrwt beam="2">  1       21 0.52630548E-01 0.23398446E+03</pdfrwt>
<totfact> 0.22355736E+04</totfact>
</mgrwt>
</event>
<event>
 4    1  0.4374784E+000  0.1846943E+03  0.7546771E-02  0.1163336E+00
         21   -1    0    0  501  502  0.00000000000E+00  0.00000000000E+00  0.93201585080E+03  0.93201585080E+03  0.00000000000E+00 0. -1.
         21   -1    0    0  502  503 -0.00000000000E+00 -0.00000000000E+00 -0.53797948102E+02  0.53797948102E+02  0.00000000000E+00 0. -1.
          6    1    1    2  501    0 -0.58918612604E+02 -0.26675158635E+02  0.71779666777E+03  0.74117745733E+03  0.17300000000E+03 0. -1.
         -6    1    1    2    0  503  0.58918612604E+02  0.26675158635E+02  0.16042123493E+03  0.24463634157E+03  0.17300000000E+03 0. -1.
<mgrwt>
<rscale>  2 0.18469425E+03</rscale>
<asrwt>0</asrwt>
<pdfrwt beam="1">  1       21 0.14338704E+00 0.18469425E+03</pdfrwt>
<pdfrwt beam="2">  1       21 0.82766081E-02 0.18469425E+03</pdfrwt>
<totfact> 0.38214869E+04</totfact>
</mgrwt>
</event>
<event>
 4    1  0.4374784E+000  0.2348229E+03  0.7546771E-02  0.1123291E+00
         21   -1    0    0  501  502  0.00000000000E+00  0.00000000000E+00  0.13338478703E+03  0.13338478703E+03  0.00000000000E+00 0. -1.
         21   -1    0    0  502  503 -0.00000000000E+00 -0.00000000000E+00 -0.43731273878E+03  0.43731273878E+03  0.00000000000E+00 0.  1.
          6    1    1    2  501    0  0.27640311879E+02 -0.15636109297E+03 -0.85243359237E+02  0.24981634961E+03  0.17300000000E+03 0.  1.
         -6    1    1    2    0  503 -0.27640311879E+02  0.15636109297E+03 -0.21868459252E+03  0.32088117620E+03  0.17300000000E+03 0. -1.
<mgrwt>
<rscale>  2 0.23482287E+03</rscale>
<asrwt>0</asrwt>
<pdfrwt beam="1">  1       21 0.20520737E-01 0.23482287E+03</pdfrwt>
<pdfrwt beam="2">  1       21 0.67278882E-01 0.23482287E+03</pdfrwt>
<totfact> 0.43582424E+04</totfact>
</mgrwt>
</event>
<event>
 4    1  0.4374784E+000  0.1975454E+03  0.7546771E-02  0.1151827E+00
         21   -1    0    0  501  502  0.00000000000E+00  0.00000000000E+00  0.37443597587E+03  0.37443597587E+03  0.00000000000E+00 0.  1.
         21   -1    0    0  502  503 -0.00000000000E+00 -0.00000000000E+00 -0.16099157415E+03  0.16099157415E+03  0.00000000000E+00 0. -1.
          6    1    1    2  501    0 -0.82420945379E+02  0.47978689748E+02  0.26569763550E+03  0.33108820640E+03  0.17300000000E+03 0.  1.
         -6    1    1    2    0  503  0.82420945379E+02 -0.47978689748E+02 -0.52253233779E+02  0.20433934361E+03  0.17300000000E+03 0. -1.
<mgrwt>
<rscale>  2 0.19754535E+03</rscale>
<asrwt>0</asrwt>
<pdfrwt beam="1">  1       21 0.57605535E-01 0.19754535E+03</pdfrwt>
<pdfrwt beam="2">  1       21 0.24767935E-01 0.19754535E+03</pdfrwt>
<totfact> 0.43483856E+04</totfact>
</mgrwt>
</event>
<event>
 4    1  0.4374784E+000  0.1856682E+03  0.7546771E-02  0.1162427E+00
         21   -1    0    0  503  502  0.00000000000E+00  0.00000000000E+00  0.11216867953E+03  0.11216867953E+03  0.00000000000E+00 0.  1.
         21   -1    0    0  501  503 -0.00000000000E+00 -0.00000000000E+00 -0.54004218561E+03  0.54004218561E+03  0.00000000000E+00 0.  1.
          6    1    1    2  501    0  0.30348051463E+01  0.67338346746E+02 -0.42800630263E+03  0.46654266479E+03  0.17300000000E+03 0.  1.
         -6    1    1    2    0  502 -0.30348051463E+01 -0.67338346746E+02  0.13279654048E+00  0.18566820035E+03  0.17300000000E+03 0.  1.
<mgrwt>
<rscale>  2 0.18566815E+03</rscale>
<asrwt>0</asrwt>
<pdfrwt beam="1">  1       21 0.17256720E-01 0.18566815E+03</pdfrwt>
<pdfrwt beam="2">  1       21 0.83083415E-01 0.18566815E+03</pdfrwt>
<totfact> 0.38446160E+04</totfact>
</mgrwt>
</event>
<event>
 4    1  0.4374784E+000  0.2819059E+03  0.7546771E-02  0.1094652E+00
         21   -1    0    0  503  502  0.00000000000E+00  0.00000000000E+00  0.14997866282E+03  0.14997866282E+03  0.00000000000E+00 0.  1.
         21   -1    0    0  501  503 -0.00000000000E+00 -0.00000000000E+00 -0.90312882717E+03  0.90312882717E+03  0.00000000000E+00 0. -1.
          6    1    1    2  501    0 -0.15087154709E+03 -0.16364513282E+03 -0.71508085018E+03  0.76864268390E+03  0.17300000000E+03 0. -1.
         -6    1    1    2    0  502  0.15087154709E+03  0.16364513282E+03 -0.38069314170E+02  0.28446480608E+03  0.17300000000E+03 0.  1.
<mgrwt>
<rscale>  2 0.28190593E+03</rscale>
<asrwt>0</asrwt>
<pdfrwt beam="1">  1       21 0.23073640E-01 0.28190593E+03</pdfrwt>
<pdfrwt beam="2">  1       21 0.13894290E+00 0.28190593E+03</pdfrwt>
<totfact> 0.60594166E+03</totfact>
</mgrwt>
</event>
<event>
 4    1  0.4374784E+000  0.1912179E+03  0.7546771E-02  0.1157367E+00
         21   -1    0    0  501  502  0.00000000000E+00  0.00000000000E+00  0.30219300095E+03  0.30219300095E+03  0.00000000000E+00 0.  1.
         21   -1    0    0  502  503 -0.00000000000E+00 -0.00000000000E+00 -0.12122375466E+03  0.12122375466E+03  0.00000000000E+00 0. -1.
          6    1    1    2  501    0  0.79380703117E+02  0.18275290218E+02  0.99651940210E+02  0.21562650915E+03  0.17300000000E+03 0.  1.
         -6    1    1    2    0  503 -0.79380703117E+02 -0.18275290218E+02  0.81317306080E+02  0.20779024647E+03  0.17300000000E+03 0. -1.
<mgrwt>
<rscale>  2 0.19121789E+03</rscale>
<asrwt>0</asrwt>
<pdfrwt beam="1">  1       21 0.46491230E-01 0.19121789E+03</pdfrwt>
<pdfrwt beam="2">  1       21 0.18649809E-01 0.19121789E+03</pdfrwt>
<totfact> 0.11656321E+05</totfact>
</mgrwt>
</event>
<event>
 4    1  0.4374784E+000  0.2878710E+03  0.7546771E-02  0.1091466E+00
         21   -1    0    0  501  502  0.00000000000E+00  0.00000000000E+00  0.90995951297E+02  0.90995951297E+02  0.00000000000E+00 0. -1.
         21   -1    0    0  502  503 -0.00000000000E+00 -0.00000000000E+00 -0.97390716075E+03  0.97390716075E+03  0.00000000000E+00 0.  1.
          6    1    1    2  501    0  0.23007313538E+03 -0.26536044850E+01 -0.30580657882E+03  0.41998494365E+03  0.17300000000E+03 0.  1.
         -6    1    1    2    0  503 -0.23007313538E+03  0.26536044850E+01 -0.57710463063E+03  0.64491816840E+03  0.17300000000E+03 0. -1.
<mgrwt>
<rscale>  2 0.28787096E+03</rscale>
<asrwt>0</asrwt>
<pdfrwt beam="1">  1       21 0.13999377E-01 0.28787096E+03</pdfrwt>
<pdfrwt beam="2">  1       21 0.14983188E+00 0.28787096E+03</pdfrwt>
<totfact> 0.12578326E+04</totfact>
</mgrwt>
</event>
<event>
 4    1  0.4374784E+000  0.2516340E+03  0.7546771E-02  0.1112276E+00
         21   -1    0    0  501  502  0.00000000000E+00  0.00000000000E+00  0.46619281235E+02  0.46619281235E+02  0.00000000000E+00 0. -1.
         21   -1    0    0  502  503 -0.00000000000E+00 -0.00000000000E+00 -0.13949712872E+04  0.13949712872E+04  0.00000000000E+00 0.  1.
          6    1    1    2  501    0 -0.18239510548E+03 -0.11077727857E+02 -0.55719684573E+03  0.61138205359E+03  0.17300000000E+03 0.  1.
         -6    1    1    2    0  503  0.18239510548E+03  0.11077727857E+02 -0.79115516023E+03  0.83020851484E+03  0.17300000000E+03 0.  1.
<mgrwt>
<rscale>  2 0.25163404E+03</rscale>
<asrwt>0</asrwt>
<pdfrwt beam="1">  1       21 0.71721985E-02 0.25163404E+03</pdfrwt>
<pdfrwt beam="2">  1       21 0.21461092E+00 0.25163404E+03</pdfrwt>
<totfact> 0.15081530E+04</totfact>
</mgrwt>
</event>
<event>
 4    1  0.4374784E+000  0.2199767E+03  0.7546771E-02  0.1133900E+00
         21   -1    0    0  503  502  0.00000000000E+00  0.00000000000E+00  0.98487029402E+02  0.98487029402E+02  0.00000000000E+00 0.  1.
         21   -1    0    0  501  503 -0.00000000000E+00 -0.00000000000E+00 -0.50967302977E+03  0.50967302977E+03  0.00000000000E+00 0. -1.
          6    1    1    2  501    0  0.12007041776E+03  0.63591382164E+02 -0.26327776760E+03  0.34308155301E+03  0.17300000000E+03 0. -1.
         -6    1    1    2    0  502 -0.12007041776E+03 -0.63591382164E+02 -0.14790823277E+03  0.26507850616E+03  0.17300000000E+03 0.  1.
<mgrwt>
<rscale>  2 0.21997675E+03</rscale>
<asrwt>0</asrwt>
<pdfrwt beam="1">  1       21 0.15151851E-01 0.21997675E+03</pdfrwt>
<pdfrwt beam="2">  1       21 0.78411233E-01 0.21997675E+03</pdfrwt>
<totfact> 0.54710303E+04</totfact>
</mgrwt>
</event>
<event>
 4    1  0.4374784E+000  0.2035622E+03  0.7546771E-02  0.1146768E+00
         21   -1    0    0  503  502  0.00000000000E+00  0.00000000000E+00  0.91679463522E+02  0.91679463522E+02  0.00000000000E+00 0.  1.
         21   -1    0    0  501  503 -0.00000000000E+00 -0.00000000000E+00 -0.49908710049E+03  0.49908710049E+03  0.00000000000E+00 0. -1.
          6    1    1    2  501    0 -0.10385614454E+03 -0.26878692007E+02 -0.11295794167E+03  0.23280261903E+03  0.17300000000E+03 0. -1.
         -6    1    1    2    0  502  0.10385614454E+03  0.26878692007E+02 -0.29444969530E+03  0.35796394498E+03  0.17300000000E+03 0. -1.
<mgrwt>
<rscale>  2 0.20356218E+03</rscale>
<asrwt>0</asrwt>
<pdfrwt beam="1">  1       21 0.14104533E-01 0.20356218E+03</pdfrwt>
<pdfrwt beam="2">  1       21 0.76782630E-01 0.20356218E+03</pdfrwt>
<totfact> 0.65841638E+04</totfact>
</mgrwt>
</event>
<event>
 4    1  0.4374784E+000  0.2784979E+03  0.7546771E-02  0.1096512E+00
         21   -1    0    0  503  502  0.00000000000E+00  0.00000000000E+00  0.82487039532E+03  0.82487039532E+03  0.00000000000E+00 0.  1.
         21   -1    0    0  501  503 -0.00000000000E+00 -0.00000000000E+00 -0.15987769440E+03  0.15987769440E+03  0.00000000000E+00 0.  1.
          6    1    1    2  501    0 -0.54603166514E+02 -0.21130687499E+03  0.16503435925E+02  0.27898649539E+03  0.17300000000E+03 0.  1.
         -6    1    1    2    0  502  0.54603166514E+02  0.21130687499E+03  0.64848926500E+03  0.70576159433E+03  0.17300000000E+03 0.  1.
<mgrwt>
<rscale>  2 0.27849794E+03</rscale>
<asrwt>0</asrwt>
<pdfrwt beam="1">  1       21 0.12690314E+00 0.27849794E+03</pdfrwt>
<pdfrwt beam="2">  1       21 0.24596569E-01 0.27849794E+03</pdfrwt>
<totfact> 0.67808130E+03</totfact>
</mgrwt>
</event>
<event>
 4    1  0.4374784E+000  0.2513488E+03  0.7546771E-02  0.1112455E+00
         21   -1    0    0  501  502  0.00000000000E+00  0.00000000000E+00  0.27220961195E+03  0.27220961195E+03  0.00000000000E+00 0.  1.
         21   -1    0    0  502  503 -0.00000000000E+00 -0.00000000000E+00 -0.50586571519E+03  0.50586571519E+03  0.00000000000E+00 0. -1.
          6    1    1    2  501    0 -0.34786678345E+02 -0.17898911136E+03  0.16937492682E+03  0.30309087880E+03  0.17300000000E+03 0.  1.
         -6    1    1    2    0  503  0.34786678345E+02  0.17898911136E+03 -0.40303103006E+03  0.47498444834E+03  0.17300000000E+03 0. -1.
<mgrwt>
<rscale>  2 0.25134879E+03</rscale>
<asrwt>0</asrwt>
<pdfrwt beam="1">  1       21 0.41878401E-01 0.25134879E+03</pdfrwt>
<pdfrwt beam="2">  1       21 0.77825495E-01 0.25134879E+03</pdfrwt>
<totfact> 0.77302884E+03</totfact>
</mgrwt>
</event>
<event>
 4    1  0.4374784E+000  0.1934211E+03  0.7546771E-02  0.1155411E+00
         21   -1    0    0  503  502  0.00000000000E+00  0.00000000000E+00  0.70550336074E+02  0.70550336074E+02  0.00000000000E+00 0. -1.
         21   -1    0    0  501  503 -0.00000000000E+00 -0.00000000000E+00 -0.53915325992E+03  0.53915325992E+03  0.00000000000E+00 0. -1.
          6    1    1    2  501    0  0.78535160713E+02  0.36262304272E+02 -0.27340105625E+03  0.33490276759E+03  0.17300000000E+03 0. -1.
         -6    1    1    2    0  502 -0.78535160713E+02 -0.36262304272E+02 -0.19520186759E+03  0.27480082840E+03  0.17300000000E+03 0. -1.
<mgrwt>
<rscale>  2 0.19342111E+03</rscale>
<asrwt>0</asrwt>
<pdfrwt beam="1">  1       21 0.10853898E-01 0.19342111E+03</pdfrwt>
<pdfrwt beam="2">  1       21 0.82946657E-01 0.19342111E+03</pdfrwt>
<totfact> 0.88897958E+04</totfact>
</mgrwt>
</event>
<event>
 4    1  0.4374784E+000  0.2208040E+03  0.7546771E-02  0.1133285E+00
         21   -1    0    0  503  502  0.00000000000E+00  0.00000000000E+00  0.34118598256E+03  0.34118598256E+03  0.00000000000E+00 0.  1.
         21   -1    0    0  501  503 -0.00000000000E+00 -0.00000000000E+00 -0.15184910199E+03  0.15184910199E+03  0.00000000000E+00 0.  1.
          6    1    1    2  501    0  0.34890001370E+02  0.13269554210E+03  0.34812582124E+02  0.22353150776E+03  0.17300000000E+03 0.  1.
         -6    1    1    2    0  502 -0.34890001370E+02 -0.13269554210E+03  0.15452429844E+03  0.26950357678E+03  0.17300000000E+03 0.  1.
<mgrwt>
<rscale>  2 0.22080403E+03</rscale>
<asrwt>0</asrwt>
<pdfrwt beam="1">  1       21 0.52490151E-01 0.22080403E+03</pdfrwt>
<pdfrwt beam="2">  1       21 0.23361400E-01 0.22080403E+03</pdfrwt>
<totfact> 0.58554197E+04</totfact>
</mgrwt>
</event>
<event>
 4    1  0.4374784E+000  0.1841914E+03  0.7546771E-02  0.1163807E+00
         21   -1    0    0  501  502  0.00000000000E+00  0.00000000000E+00  0.12633750222E+04  0.12633750222E+04  0.00000000000E+00 0. -1.
         21   -1    0    0  502  503 -0.00000000000E+00 -0.00000000000E+00 -0.27364679107E+02  0.27364679107E+02  0.00000000000E+00 0. -1.
          6    1    1    2  501    0  0.60092356910E+02 -0.19656333929E+02  0.70618275930E+03  0.72980857240E+03  0.17300000000E+03 0. -1.
         -6    1    1    2    0  503 -0.60092356910E+02  0.19656333929E+02  0.52982758375E+03  0.56093112886E+03  0.17300000000E+03 0. -1.
<mgrwt>
<rscale>  2 0.18419138E+03</rscale>
<asrwt>0</asrwt>
<pdfrwt beam="1">  1       21 0.19436534E+00 0.18419138E+03</pdfrwt>
<pdfrwt beam="2">  1       21 0.42099516E-02 0.18419138E+03</pdfrwt>
<totfact> 0.52795533E+04</totfact>
</mgrwt>
</event>
<event>
 4    1  0.4374784E+000  0.1780476E+03  0.7546771E-02  0.1169706E+00
         21   -1    0    0  503  502  0.00000000000E+00  0.00000000000E+00  0.24600066020E+03  0.24600066020E+03  0.00000000000E+00 0. -1.
         21   -1    0    0  501  503 -0.00000000000E+00 -0.00000000000E+00 -0.16917711574E+03  0.16917711574E+03  0.00000000000E+00 0. -1.
          6    1    1    2  501    0 -0.12596996411E+02  0.40165492428E+02 -0.62920883683E+02  0.18883852548E+03  0.17300000000E+03 0. -1.
         -6    1    1    2    0  502  0.12596996411E+02 -0.40165492428E+02  0.13974442815E+03  0.22633925046E+03  0.17300000000E+03 0. -1.
<mgrwt>
<rscale>  2 0.17804761E+03</rscale>
<asrwt>0</asrwt>
<pdfrwt beam="1">  1       21 0.37846255E-01 0.17804761E+03</pdfrwt>
<pdfrwt beam="2">  1       21 0.26027249E-01 0.17804761E+03</pdfrwt>
<totfact> 0.94954146E+04</totfact>
</mgrwt>
</event>
<event>
 4    1  0.4374784E+000  0.1906305E+03  0.7546771E-02  0.1157894E+00
         21   -1    0    0  503  502  0.00000000000E+00  0.00000000000E+00  0.11919053446E+04  0.11919053446E+04  0.00000000000E+00 0. -1.
         21   -1    0    0  501  503 -0.00000000000E+00 -0.00000000000E+00 -0.30820319492E+02  0.30820319492E+02  0.00000000000E+00 0. -1.
          6    1    1    2  501    0  0.26468097906E+02  0.75567477356E+02  0.51715510747E+03  0.55117094356E+03  0.17300000000E+03 0.  1.
         -6    1    1    2    0  502 -0.26468097906E+02 -0.75567477356E+02  0.64392991760E+03  0.67155472049E+03  0.17300000000E+03 0.  1.
<mgrwt>
<rscale>  2 0.19063054E+03</rscale>
<asrwt>0</asrwt>
<pdfrwt beam="1">  1       21 0.18337002E+00 0.19063054E+03</pdfrwt>
<pdfrwt beam="2">  1       21 0.47415885E-02 0.19063054E+03</pdfrwt>
<totfact> 0.50871569E+04</totfact>
</mgrwt>
</event>
<event>
 4    1  0.4374784E+000  0.3916335E+03  0.7546771E-02  0.1046716E+00
         21   -1    0    0  503  502  0.00000000000E+00  0.00000000000E+00  0.44561761392E+03  0.44561761392E+03  0.00000000000E+00 0. -1.
         21   -1    0    0  501  503 -0.00000000000E+00 -0.00000000000E+00 -0.35935759219E+03  0.35935759219E+03  0.00000000000E+00 0.  1.
          6    1    1    2  501    0  0.33773753505E+03  0.96856376858E+02 -0.39560923238E+02  0.39362655775E+03  0.17300000000E+03 0.  1.
         -6    1    1    2    0  502 -0.33773753505E+03 -0.96856376858E+02  0.12582094497E+03  0.41134864836E+03  0.17300000000E+03 0. -1.
<mgrwt>
<rscale>  2 0.39163350E+03</rscale>
<asrwt>0</asrwt>
<pdfrwt beam="1">  1       21 0.68556556E-01 0.39163350E+03</pdfrwt>
<pdfrwt beam="2">  1       21 0.55285784E-01 0.39163350E+03</pdfrwt>
<totfact> 0.53813077E+03</totfact>
</mgrwt>
</event>
<event>
 4    1  0.4374784E+000  0.1996529E+03  0.7546771E-02  0.1150032E+00
         21   -1    0    0  503  502  0.00000000000E+00  0.00000000000E+00  0.11362118707E+04  0.11362118707E+04  0.00000000000E+00 0. -1.
         21   -1    0    0  501  503 -0.00000000000E+00 -0.00000000000E+00 -0.38749733299E+02  0.38749733299E+02  0.00000000000E+00 0. -1.
          6    1    1    2  501    0  0.88323348874E+02 -0.46165449336E+02  0.36800413836E+03  0.41867446605E+03  0.17300000000E+03 0. -1.
         -6    1    1    2    0  502 -0.88323348874E+02  0.46165449336E+02  0.72945799902E+03  0.75628713793E+03  0.17300000000E+03 0. -1.
<mgrwt>
<rscale>  2 0.19965286E+03</rscale>
<asrwt>0</asrwt>
<pdfrwt beam="1">  1       21 0.17480180E+00 0.19965286E+03</pdfrwt>
<pdfrwt beam="2">  1       21 0.59614983E-02 0.19965286E+03</pdfrwt>
<totfact> 0.39208431E+04</totfact>
</mgrwt>
</event>
<event>
 4    1  0.4374784E+000  0.2657932E+03  0.7546771E-02  0.1103712E+00
         21   -1    0    0  503  502  0.00000000000E+00  0.00000000000E+00  0.50284199231E+03  0.50284199231E+03  0.00000000000E+00 0. -1.
         21   -1    0    0  501  503 -0.00000000000E+00 -0.00000000000E+00 -0.21995901207E+03  0.21995901207E+03  0.00000000000E+00 0.  1.
          6    1    1    2  501    0 -0.25778631191E+02 -0.20013117886E+03 -0.75782227035E+02  0.27638555048E+03  0.17300000000E+03 0. -1.
         -6    1    1    2    0  502  0.25778631191E+02  0.20013117886E+03  0.35866520727E+03  0.44641545390E+03  0.17300000000E+03 0. -1.
<mgrwt>
<rscale>  2 0.26579320E+03</rscale>
<asrwt>0</asrwt>
<pdfrwt beam="1">  1       21 0.77360306E-01 0.26579320E+03</pdfrwt>
<pdfrwt beam="2">  1       21 0.33839848E-01 0.26579320E+03</pdfrwt>
<totfact> 0.11954490E+04</totfact>
</mgrwt>
</event>
<event>
 4    1  0.4374784E+000  0.1812890E+03  0.7546771E-02  0.1166561E+00
         21   -1    0    0  501  502  0.00000000000E+00  0.00000000000E+00  0.52241638138E+02  0.52241638138E+02  0.00000000000E+00 0. -1.
         21   -1    0    0  502  503 -0.00000000000E+00 -0.00000000000E+00 -0.66536409967E+03  0.66536409967E+03  0.00000000000E+00 0. -1.
          6    1    1    2  501    0  0.40938614529E+02 -0.35506781649E+02 -0.39031586188E+03  0.43036283963E+03  0.17300000000E+03 0.  1.
         -6    1    1    2    0  503 -0.40938614529E+02  0.35506781649E+02 -0.22280659965E+03  0.28724289817E+03  0.17300000000E+03 0.  1.
<mgrwt>
<rscale>  2 0.18128900E+03</rscale>
<asrwt>0</asrwt>
<pdfrwt beam="1">  1       21 0.80371756E-02 0.18128900E+03</pdfrwt>
<pdfrwt beam="2">  1       21 0.10236370E+00 0.18128900E+03</pdfrwt>
<totfact> 0.92876773E+04</totfact>
</mgrwt>
</event>
<event>
 4    1  0.4374784E+000  0.2033016E+03  0.7546771E-02  0.1146983E+00
         21   -1    0    0  501  502  0.00000000000E+00  0.00000000000E+00  0.79931039267E+02  0.79931039267E+02  0.00000000000E+00 0.  1.
         21   -1    0    0  502  503 -0.00000000000E+00 -0.00000000000E+00 -0.52333628617E+03  0.52333628617E+03  0.00000000000E+00 0.  1.
          6    1    1    2  501    0 -0.15511397783E+01 -0.10677135132E+03 -0.18874876768E+03  0.27741237319E+03  0.17300000000E+03 0.  1.
         -6    1    1    2    0  503  0.15511397783E+01  0.10677135132E+03 -0.25465647922E+03  0.32585495225E+03  0.17300000000E+03 0.  1.
<mgrwt>
<rscale>  2 0.20330157E+03</rscale>
<asrwt>0</asrwt>
<pdfrwt beam="1">  1       21 0.12297083E-01 0.20330157E+03</pdfrwt>
<pdfrwt beam="2">  1       21 0.80513274E-01 0.20330157E+03</pdfrwt>
<totfact> 0.75776350E+04</totfact>
</mgrwt>
</event>
<event>
 4    1  0.4374784E+000  0.1810618E+03  0.7546771E-02  0.1166779E+00
         21   -1    0    0  503  502  0.00000000000E+00  0.00000000000E+00  0.92912501775E+02  0.92912501775E+02  0.00000000000E+00 0.  1.
         21   -1    0    0  501  503 -0.00000000000E+00 -0.00000000000E+00 -0.43728624477E+03  0.43728624477E+03  0.00000000000E+00 0.  1.
          6    1    1    2  501    0 -0.48597562800E+02 -0.22195514500E+02 -0.28868333183E+03  0.34076594614E+03  0.17300000000E+03 0.  1.
         -6    1    1    2    0  502  0.48597562800E+02  0.22195514500E+02 -0.55690411170E+02  0.18943280041E+03  0.17300000000E+03 0.  1.
<mgrwt>
<rscale>  2 0.18106177E+03</rscale>
<asrwt>0</asrwt>
<pdfrwt beam="1">  1       21 0.14294231E-01 0.18106177E+03</pdfrwt>
<pdfrwt beam="2">  1       21 0.67274808E-01 0.18106177E+03</pdfrwt>
<totfact> 0.86979400E+04</totfact>
</mgrwt>
</event>
<event>
 4    1  0.4374784E+000  0.2694709E+03  0.7546771E-02  0.1101583E+00
         21   -1    0    0  503  502  0.00000000000E+00  0.00000000000E+00  0.48677268589E+03  0.48677268589E+03  0.00000000000E+00 0. -1.
         21   -1    0    0  501  503 -0.00000000000E+00 -0.00000000000E+00 -0.29266247635E+03  0.29266247635E+03  0.00000000000E+00 0.  1.
          6    1    1    2  501    0 -0.20646220787E+03 -0.76755602340E+01 -0.17582553389E+03  0.32175950005E+03  0.17300000000E+03 0.  1.
         -6    1    1    2    0  502  0.20646220787E+03  0.76755602340E+01  0.36993574343E+03  0.45767566220E+03  0.17300000000E+03 0. -1.
<mgrwt>
<rscale>  2 0.26947088E+03</rscale>
<asrwt>0</asrwt>
<pdfrwt beam="1">  1       21 0.74888106E-01 0.26947088E+03</pdfrwt>
<pdfrwt beam="2">  1       21 0.45024996E-01 0.26947088E+03</pdfrwt>
<totfact> 0.71908811E+03</totfact>
</mgrwt>
</event>
<event>
 4    1  0.4374784E+000  0.1970717E+03  0.7546771E-02  0.1152233E+00
         21   -1    0    0  503  502  0.00000000000E+00  0.00000000000E+00  0.35921808032E+03  0.35921808032E+03  0.00000000000E+00 0. -1.
         21   -1    0    0  501  503 -0.00000000000E+00 -0.00000000000E+00 -0.25006672338E+03  0.25006672338E+03  0.00000000000E+00 0. -1.
          6    1    1    2  501    0 -0.77446549532E+02 -0.53946998020E+02 -0.17494990442E+03  0.26352365299E+03  0.17300000000E+03 0. -1.
         -6    1    1    2    0  502  0.77446549532E+02  0.53946998020E+02  0.28410126136E+03  0.34576115071E+03  0.17300000000E+03 0. -1.
<mgrwt>
<rscale>  2 0.19707168E+03</rscale>
<asrwt>0</asrwt>
<pdfrwt beam="1">  1       21 0.55264320E-01 0.19707168E+03</pdfrwt>
<pdfrwt beam="2">  1       21 0.38471804E-01 0.19707168E+03</pdfrwt>
<totfact> 0.20063832E+04</totfact>
</mgrwt>
</event>
<event>
 4    1  0.4374784E+000  0.1751148E+03  0.7546771E-02  0.1172617E+00
         21   -1    0    0  503  502  0.00000000000E+00  0.00000000000E+00  0.67597505981E+02  0.67597505981E+02  0.00000000000E+00 0.  1.
         21   -1    0    0  501  503 -0.00000000000E+00 -0.00000000000E+00 -0.48541698931E+03  0.48541698931E+03  0.00000000000E+00 0.  1.
          6    1    1    2  501    0  0.84764742632E+01  0.25774752900E+02 -0.27965210059E+03  0.32995527858E+03  0.17300000000E+03 0.  1.
         -6    1    1    2    0  502 -0.84764742632E+01 -0.25774752900E+02 -0.13816738274E+03  0.22305921670E+03  0.17300000000E+03 0.  1.
<mgrwt>
<rscale>  2 0.17511479E+03</rscale>
<asrwt>0</asrwt>
<pdfrwt beam="1">  1       21 0.10399617E-01 0.17511479E+03</pdfrwt>
<pdfrwt beam="2">  1       21 0.74679534E-01 0.17511479E+03</pdfrwt>
<totfact> 0.12231811E+05</totfact>
</mgrwt>
</event>
<event>
 4    1  0.4374784E+000  0.2462914E+03  0.7546771E-02  0.1115671E+00
         21   -1    0    0  503  502  0.00000000000E+00  0.00000000000E+00  0.22362133084E+03  0.22362133084E+03  0.00000000000E+00 0. -1.
         21   -1    0    0  501  503 -0.00000000000E+00 -0.00000000000E+00 -0.52482617284E+03  0.52482617284E+03  0.00000000000E+00 0. -1.
          6    1    1    2  501    0  0.16957319357E+03 -0.44445161087E+02 -0.41071992469E+03  0.47890531096E+03  0.17300000000E+03 0. -1.
         -6    1    1    2    0  502 -0.16957319357E+03  0.44445161087E+02  0.10951508270E+03  0.26954219273E+03  0.17300000000E+03 0. -1.
<mgrwt>
<rscale>  2 0.24629137E+03</rscale>
<asrwt>0</asrwt>
<pdfrwt beam="1">  1       21 0.34403282E-01 0.24629137E+03</pdfrwt>
<pdfrwt beam="2">  1       21 0.80742487E-01 0.24629137E+03</pdfrwt>
<totfact> 0.10604432E+04</totfact>
</mgrwt>
</event>
<event>
 4    1  0.4374784E+000  0.1972410E+03  0.7546771E-02  0.1152088E+00
         21   -1    0    0  501  502  0.00000000000E+00  0.00000000000E+00  0.15835467667E+04  0.15835467667E+04  0.00000000000E+00 0.  1.
         21   -1    0    0  502  503 -0.00000000000E+00 -0.00000000000E+00 -0.29845843154E+02  0.29845843154E+02  0.00000000000E+00 0.  1.
          6    1    1    2  501    0 -0.94187015755E+02 -0.10189174578E+02  0.11160935656E+04  0.11333882214E+04  0.17300000000E+03 0.  1.
         -6    1    1    2    0  503  0.94187015755E+02  0.10189174578E+02  0.43760735795E+03  0.48000438847E+03  0.17300000000E+03 0.  1.
<mgrwt>
<rscale>  2 0.19724100E+03</rscale>
<asrwt>0</asrwt>
<pdfrwt beam="1">  1       21 0.24362251E+00 0.19724100E+03</pdfrwt>
<pdfrwt beam="2">  1       21 0.45916694E-02 0.19724100E+03</pdfrwt>
<totfact> 0.22441384E+04</totfact>
</mgrwt>
</event>
<event>
 4    1  0.4374784E+000  0.2310723E+03  0.7546771E-02  0.1125887E+00
         21   -1    0    0  503  502  0.00000000000E+00  0.00000000000E+00  0.12679444551E+04  0.12679444551E+04  0.00000000000E+00 0.  1.
         21   -1    0    0  501  503 -0.00000000000E+00 -0.00000000000E+00 -0.44684666676E+02  0.44684666676E+02  0.00000000000E+00 0.  1.
          6    1    1    2  501    0  0.91005031299E+02  0.12322125470E+03  0.76914055994E+03  0.80310123538E+03  0.17300000000E+03 0.  1.
         -6    1    1    2    0  502 -0.91005031299E+02 -0.12322125470E+03  0.45411922849E+03  0.50952788639E+03  0.17300000000E+03 0.  1.
<mgrwt>
<rscale>  2 0.23107227E+03</rscale>
<asrwt>0</asrwt>
<pdfrwt beam="1">  1       21 0.19506835E+00 0.23107227E+03</pdfrwt>
<pdfrwt beam="2">  1       21 0.68745651E-02 0.23107227E+03</pdfrwt>
<totfact> 0.21952118E+04</totfact>
</mgrwt>
</event>
<event>
 4    1  0.4374784E+000  0.2319747E+03  0.7546771E-02  0.1125258E+00
         21   -1    0    0  501  502  0.00000000000E+00  0.00000000000E+00  0.39446263033E+03  0.39446263033E+03  0.00000000000E+00 0. -1.
         21   -1    0    0  502  503 -0.00000000000E+00 -0.00000000000E+00 -0.15694519391E+03  0.15694519391E+03  0.00000000000E+00 0.  1.
          6    1    1    2  501    0 -0.71985786497E+02  0.13675265664E+03  0.19052573194E+02  0.23275575847E+03  0.17300000000E+03 0.  1.
         -6    1    1    2    0  503  0.71985786497E+02 -0.13675265664E+03  0.21846486323E+03  0.31865206577E+03  0.17300000000E+03 0. -1.
<mgrwt>
<rscale>  2 0.23197466E+03</rscale>
<asrwt>0</asrwt>
<pdfrwt beam="1">  1       21 0.60686558E-01 0.23197466E+03</pdfrwt>
<pdfrwt beam="2">  1       21 0.24145415E-01 0.23197466E+03</pdfrwt>
<totfact> 0.40143626E+04</totfact>
</mgrwt>
</event>
<event>
 4    1  0.4374784E+000  0.1760227E+03  0.7546771E-02  0.1171709E+00
         21   -1    0    0  501  502  0.00000000000E+00  0.00000000000E+00  0.31955555238E+03  0.31955555238E+03  0.00000000000E+00 0.  1.
         21   -1    0    0  502  503 -0.00000000000E+00 -0.00000000000E+00 -0.14464974316E+03  0.14464974316E+03  0.00000000000E+00 0.  1.
          6    1    1    2  501    0 -0.31169925530E+02 -0.91345742591E+01  0.22072376502E+03  0.28231717119E+03  0.17300000000E+03 0.  1.
         -6    1    1    2    0  503  0.31169925530E+02  0.91345742591E+01 -0.45817955801E+02  0.18188812435E+03  0.17300000000E+03 0.  1.
<mgrwt>
<rscale>  2 0.17602274E+03</rscale>
<asrwt>0</asrwt>
<pdfrwt beam="1">  1       21 0.49162392E-01 0.17602274E+03</pdfrwt>
<pdfrwt beam="2">  1       21 0.22253807E-01 0.17602274E+03</pdfrwt>
<totfact> 0.75079123E+04</totfact>
</mgrwt>
</event>
<event>
 4    1  0.4374784E+000  0.1850891E+03  0.7546771E-02  0.1162967E+00
         21   -1    0    0  503  502  0.00000000000E+00  0.00000000000E+00  0.52759426589E+03  0.52759426589E+03  0.00000000000E+00 0. -1.
         21   -1    0    0  501  503 -0.00000000000E+00 -0.00000000000E+00 -0.78362343267E+02  0.78362343267E+02  0.00000000000E+00 0. -1.
          6    1    1    2  501    0  0.63682981661E+02 -0.16536542199E+02  0.99187995915E+02  0.20999104246E+03  0.17300000000E+03 0. -1.
         -6    1    1    2    0  502 -0.63682981661E+02  0.16536542199E+02  0.35004392670E+03  0.39596556669E+03  0.17300000000E+03 0. -1.
<mgrwt>
<rscale>  2 0.18508911E+03</rscale>
<asrwt>0</asrwt>
<pdfrwt beam="1">  1       21 0.81168346E-01 0.18508911E+03</pdfrwt>
<pdfrwt beam="2">  1       21 0.12055745E-01 0.18508911E+03</pdfrwt>
<totfact> 0.77707441E+04</totfact>
</mgrwt>
</event>
<event>
 4    1  0.4374784E+000  0.1868616E+03  0.7546771E-02  0.1161323E+00
         21   -1    0    0  501  502  0.00000000000E+00  0.00000000000E+00  0.87811561483E+02  0.87811561483E+02  0.00000000000E+00 0. -1.
         21   -1    0    0  502  503 -0.00000000000E+00 -0.00000000000E+00 -0.41026221620E+03  0.41026221620E+03  0.00000000000E+00 0. -1.
          6    1    1    2  501    0  0.58124502309E+02 -0.40122124772E+02 -0.20491003728E+03  0.27731816753E+03  0.17300000000E+03 0.  1.
         -6    1    1    2    0  503 -0.58124502309E+02  0.40122124772E+02 -0.11754061744E+03  0.22075561015E+03  0.17300000000E+03 0.  1.
<mgrwt>
<rscale>  2 0.18686156E+03</rscale>
<asrwt>0</asrwt>
<pdfrwt beam="1">  1       21 0.13509471E-01 0.18686156E+03</pdfrwt>
<pdfrwt beam="2">  1       21 0.63117263E-01 0.18686156E+03</pdfrwt>
<totfact> 0.11041357E+05</totfact>
</mgrwt>
</event>
<event>
 4    1  0.4374784E+000  0.2397298E+03  0.7546771E-02  0.1119973E+00
         21   -1    0    0  501  502  0.00000000000E+00  0.00000000000E+00  0.22125229496E+04  0.22125229496E+04  0.00000000000E+00 0.  1.
         21   -1    0    0  502  503 -0.00000000000E+00 -0.00000000000E+00 -0.26383019874E+02  0.26383019874E+02  0.00000000000E+00 0. -1.
          6    1    1    2  501    0  0.13780832947E+03 -0.92467417442E+02  0.12322785889E+04  0.12553807707E+04  0.17300000000E+03 0. -1.
         -6    1    1    2    0  503 -0.13780832947E+03  0.92467417442E+02  0.95386134084E+03  0.98352519871E+03  0.17300000000E+03 0.  1.
<mgrwt>
<rscale>  2 0.23972976E+03</rscale>
<asrwt>0</asrwt>
<pdfrwt beam="1">  1       21 0.34038800E+00 0.23972976E+03</pdfrwt>
<pdfrwt beam="2">  1       21 0.40589279E-02 0.23972976E+03</pdfrwt>
<totfact> 0.72336193E+03</totfact>
</mgrwt>
</event>
<event>
 4    1  0.4374784E+000  0.2346743E+03  0.7546771E-02  0.1123392E+00
         21   -1    0    0  501  502  0.00000000000E+00  0.00000000000E+00  0.96855607310E+02  0.96855607310E+02  0.00000000000E+00 0.  1.
         21   -1    0    0  502  503 -0.00000000000E+00 -0.00000000000E+00 -0.68578976334E+03  0.68578976334E+03  0.00000000000E+00 0. -1.
          6    1    1    2  501    0  0.14832350995E+03 -0.56063821811E+02 -0.13270156300E+03  0.26959547574E+03  0.17300000000E+03 0.  1.
         -6    1    1    2    0  503 -0.14832350995E+03  0.56063821811E+02 -0.45623259304E+03  0.51304989491E+03  0.17300000000E+03 0. -1.
<mgrwt>
<rscale>  2 0.23467428E+03</rscale>
<asrwt>0</asrwt>
<pdfrwt beam="1">  1       21 0.14900863E-01 0.23467428E+03</pdfrwt>
<pdfrwt beam="2">  1       21 0.10550612E+00 0.23467428E+03</pdfrwt>
<totfact> 0.28019056E+04</totfact>
</mgrwt>
</event>
<event>
 4    1  0.4374784E+000  0.1771186E+03  0.7546771E-02  0.1170621E+00
         21   -1    0    0  501  502  0.00000000000E+00  0.00000000000E+00  0.23901096592E+04  0.23901096592E+04  0.00000000000E+00 0.  1.
         21   -1    0    0  502  503 -0.00000000000E+00 -0.00000000000E+00 -0.14342816128E+02  0.14342816128E+02  0.00000000000E+00 0.  1.
          6    1    1    2  501    0 -0.36606755707E+02 -0.10097509941E+02  0.15381496706E+04  0.15483137355E+04  0.17300000000E+03 0.  1.
         -6    1    1    2    0  503  0.36606755707E+02  0.10097509941E+02  0.83761717246E+03  0.85613873985E+03  0.17300000000E+03 0.  1.
<mgrwt>
<rscale>  2 0.17711864E+03</rscale>
<asrwt>0</asrwt>
<pdfrwt beam="1">  1       21 0.36770886E+00 0.17711864E+03</pdfrwt>
<pdfrwt beam="2">  1       21 0.22065890E-02 0.17711864E+03</pdfrwt>
<totfact> 0.14665744E+04</totfact>
</mgrwt>
</event>
<event>
 4    1  0.4374784E+000  0.2086951E+03  0.7546771E-02  0.1142603E+00
         21   -1    0    0  501  502  0.00000000000E+00  0.00000000000E+00  0.13753367704E+03  0.13753367704E+03  0.00000000000E+00 0. -1.
         21   -1    0    0  502  503 -0.00000000000E+00 -0.00000000000E+00 -0.31779673013E+03  0.31779673013E+03  0.00000000000E+00 0.  1.
          6    1    1    2  501    0 -0.11663190530E+03  0.46533327838E+01 -0.10364963509E+03  0.23301695581E+03  0.17300000000E+03 0. -1.
         -6    1    1    2    0  503  0.11663190530E+03 -0.46533327838E+01 -0.76613417995E+02  0.22231345136E+03  0.17300000000E+03 0. -1.
<mgrwt>
<rscale>  2 0.20869512E+03</rscale>
<asrwt>0</asrwt>
<pdfrwt beam="1">  1       21 0.21159028E-01 0.20869512E+03</pdfrwt>
<pdfrwt beam="2">  1       21 0.48891804E-01 0.20869512E+03</pdfrwt>
<totfact> 0.82365359E+04</totfact>
</mgrwt>
</event>
<event>
 4    1  0.4374784E+000  0.2548243E+03  0.7546771E-02  0.1110293E+00
         21   -1    0    0  501  502  0.00000000000E+00  0.00000000000E+00  0.71187182186E+03  0.71187182186E+03  0.00000000000E+00 0.  1.
         21   -1    0    0  502  503 -0.00000000000E+00 -0.00000000000E+00 -0.14981535265E+03  0.14981535265E+03  0.00000000000E+00 0. -1.
          6    1    1    2  501    0  0.21119202682E+02 -0.18590426700E+03  0.11576473971E+02  0.25508710661E+03  0.17300000000E+03 0. -1.
         -6    1    1    2    0  503 -0.21119202682E+02  0.18590426700E+03  0.55047999524E+03  0.60660006790E+03  0.17300000000E+03 0.  1.
<mgrwt>
<rscale>  2 0.25482429E+03</rscale>
<asrwt>0</asrwt>
<pdfrwt beam="1">  1       21 0.10951874E+00 0.25482429E+03</pdfrwt>
<pdfrwt beam="2">  1       21 0.23048516E-01 0.25482429E+03</pdfrwt>
<totfact> 0.11223506E+04</totfact>
</mgrwt>
</event>
<event>
 4    1  0.4374784E+000  0.1869948E+03  0.7546771E-02  0.1161200E+00
         21   -1    0    0  501  502  0.00000000000E+00  0.00000000000E+00  0.19928624520E+04  0.19928624520E+04  0.00000000000E+00 0. -1.
         21   -1    0    0  502  503 -0.00000000000E+00 -0.00000000000E+00 -0.18257679888E+02  0.18257679888E+02  0.00000000000E+00 0. -1.
          6    1    1    2  501    0  0.39335160529E+02 -0.59082938756E+02  0.11858131659E+04  0.12004665397E+04  0.17300000000E+03 0. -1.
         -6    1    1    2    0  503 -0.39335160529E+02  0.59082938756E+02  0.78879160625E+03  0.81065359223E+03  0.17300000000E+03 0. -1.
<mgrwt>
<rscale>  2 0.18699478E+03</rscale>
<asrwt>0</asrwt>
<pdfrwt beam="1">  1       21 0.30659405E+00 0.18699478E+03</pdfrwt>
<pdfrwt beam="2">  1       21 0.28088754E-02 0.18699478E+03</pdfrwt>
<totfact> 0.22192713E+04</totfact>
</mgrwt>
</event>
<event>
 4    1  0.4374784E+000  0.1766315E+03  0.7546771E-02  0.1171104E+00
         21   -1    0    0  503  502  0.00000000000E+00  0.00000000000E+00  0.22367590034E+02  0.22367590034E+02  0.00000000000E+00 0.  1.
         21   -1    0    0  501  503 -0.00000000000E+00 -0.00000000000E+00 -0.21340888665E+04  0.21340888665E+04  0.00000000000E+00 0.  1.
          6    1    1    2  501    0 -0.33049787721E+02 -0.13318770843E+02 -0.16904704120E+04  0.16996731721E+04  0.17300000000E+03 0.  1.
         -6    1    1    2    0  502  0.33049787721E+02  0.13318770843E+02 -0.42125086453E+03  0.45678328449E+03  0.17300000000E+03 0.  1.
<mgrwt>
<rscale>  2 0.17663148E+03</rscale>
<asrwt>0</asrwt>
<pdfrwt beam="1">  1       21 0.34411683E-02 0.17663148E+03</pdfrwt>
<pdfrwt beam="2">  1       21 0.32832130E+00 0.17663148E+03</pdfrwt>
<totfact> 0.12024494E+04</totfact>
</mgrwt>
</event>
<event>
 4    1  0.4374784E+000  0.1775414E+03  0.7546771E-02  0.1170204E+00
         21   -1    0    0  501  502  0.00000000000E+00  0.00000000000E+00  0.41224095004E+03  0.41224095004E+03  0.00000000000E+00 0.  1.
         21   -1    0    0  502  503 -0.00000000000E+00 -0.00000000000E+00 -0.83899439994E+02  0.83899439994E+02  0.00000000000E+00 0.  1.
          6    1    1    2  501    0 -0.39467365488E+02  0.58542234672E+01  0.23802819217E+03  0.29694842168E+03  0.17300000000E+03 0.  1.
         -6    1    1    2    0  503  0.39467365488E+02 -0.58542234672E+01  0.90313317876E+02  0.19919196835E+03  0.17300000000E+03 0.  1.
<mgrwt>
<rscale>  2 0.17754139E+03</rscale>
<asrwt>0</asrwt>
<pdfrwt beam="1">  1       21 0.63421683E-01 0.17754139E+03</pdfrwt>
<pdfrwt beam="2">  1       21 0.12907606E-01 0.17754139E+03</pdfrwt>
<totfact> 0.11902280E+05</totfact>
</mgrwt>
</event>
<event>
 4    1  0.4374784E+000  0.2368363E+03  0.7546771E-02  0.1121918E+00
         21   -1    0    0  501  502  0.00000000000E+00  0.00000000000E+00  0.73310984116E+03  0.73310984116E+03  0.00000000000E+00 0. -1.
         21   -1    0    0  502  503 -0.00000000000E+00 -0.00000000000E+00 -0.95488304304E+02  0.95488304304E+02  0.00000000000E+00 0.  1.
          6    1    1    2  501    0  0.15463580387E+03 -0.47436472440E+02  0.50350298001E+03  0.55642313183E+03  0.17300000000E+03 0.  1.
         -6    1    1    2    0  503 -0.15463580387E+03  0.47436472440E+02  0.13411855684E+03  0.27217501363E+03  0.17300000000E+03 0.  1.
<mgrwt>
<rscale>  2 0.23683634E+03</rscale>
<asrwt>0</asrwt>
<pdfrwt beam="1">  1       21 0.11278613E+00 0.23683634E+03</pdfrwt>
<pdfrwt beam="2">  1       21 0.14690509E-01 0.23683634E+03</pdfrwt>
<totfact> 0.24422613E+04</totfact>
</mgrwt>
</event>
<event>
 4    1  0.4374784E+000  0.1885628E+03  0.7546771E-02  0.1159764E+00
         21   -1    0    0  503  502  0.00000000000E+00  0.00000000000E+00  0.85726573198E+02  0.85726573198E+02  0.00000000000E+00 0. -1.
         21   -1    0    0  501  503 -0.00000000000E+00 -0.00000000000E+00 -0.52297705524E+03  0.52297705524E+03  0.00000000000E+00 0. -1.
          6    1    1    2  501    0  0.71464855187E+02 -0.22796673277E+02 -0.35707218110E+03  0.40380249671E+03  0.17300000000E+03 0. -1.
         -6    1    1    2    0  502 -0.71464855187E+02  0.22796673277E+02 -0.80178300945E+02  0.20490113172E+03  0.17300000000E+03 0. -1.
<mgrwt>
<rscale>  2 0.18856276E+03</rscale>
<asrwt>0</asrwt>
<pdfrwt beam="1">  1       21 0.13188704E-01 0.18856276E+03</pdfrwt>
<pdfrwt beam="2">  1       21 0.80458007E-01 0.18856276E+03</pdfrwt>
<totfact> 0.67367740E+04</totfact>
</mgrwt>
</event>
<event>
 4    1  0.4374784E+000  0.2324877E+03  0.7546771E-02  0.1124901E+00
         21   -1    0    0  501  502  0.00000000000E+00  0.00000000000E+00  0.93081411024E+03  0.93081411024E+03  0.00000000000E+00 0.  1.
         21   -1    0    0  502  503 -0.00000000000E+00 -0.00000000000E+00 -0.58427613230E+02  0.58427613230E+02  0.00000000000E+00 0.  1.
          6    1    1    2  501    0  0.15482942634E+03 -0.12221422445E+02  0.47499762857E+03  0.52884143330E+03  0.17300000000E+03 0.  1.
         -6    1    1    2    0  503 -0.15482942634E+03  0.12221422445E+02  0.39738886844E+03  0.46040029017E+03  0.17300000000E+03 0.  1.
<mgrwt>
<rscale>  2 0.23248767E+03</rscale>
<asrwt>0</asrwt>
<pdfrwt beam="1">  1       21 0.14320216E+00 0.23248767E+03</pdfrwt>
<pdfrwt beam="2">  1       21 0.89888642E-02 0.23248767E+03</pdfrwt>
<totfact> 0.32284837E+04</totfact>
</mgrwt>
</event>
<event>
 4    1  0.4374784E+000  0.2073015E+03  0.7546771E-02  0.1143721E+00
         21   -1    0    0  503  502  0.00000000000E+00  0.00000000000E+00  0.17723086279E+03  0.17723086279E+03  0.00000000000E+00 0. -1.
         21   -1    0    0  501  503 -0.00000000000E+00 -0.00000000000E+00 -0.55071257596E+03  0.55071257596E+03  0.00000000000E+00 0. -1.
          6    1    1    2  501    0  0.57762461286E+02  0.98531193062E+02 -0.45904142738E+03  0.50367939206E+03  0.17300000000E+03 0. -1.
         -6    1    1    2    0  502 -0.57762461286E+02 -0.98531193062E+02  0.85559714205E+02  0.22426404668E+03  0.17300000000E+03 0. -1.
<mgrwt>
<rscale>  2 0.20730147E+03</rscale>
<asrwt>0</asrwt>
<pdfrwt beam="1">  1       21 0.27266287E-01 0.20730147E+03</pdfrwt>
<pdfrwt beam="2">  1       21 0.84725010E-01 0.20730147E+03</pdfrwt>
<totfact> 0.15337008E+04</totfact>
</mgrwt>
</event>
<event>
 4    1  0.4374784E+000  0.2023165E+03  0.7546771E-02  0.1147799E+00
         21   -1    0    0  501  502  0.00000000000E+00  0.00000000000E+00  0.72695007211E+03  0.72695007211E+03  0.00000000000E+00 0. -1.
         21   -1    0    0  502  503 -0.00000000000E+00 -0.00000000000E+00 -0.57144480102E+02  0.57144480102E+02  0.00000000000E+00 0. -1.
          6    1    1    2  501    0 -0.87839425495E+02  0.57333983850E+02  0.38238063175E+03  0.43260478258E+03  0.17300000000E+03 0.  1.
         -6    1    1    2    0  503  0.87839425495E+02 -0.57333983850E+02  0.28742496025E+03  0.35148976963E+03  0.17300000000E+03 0.  1.
<mgrwt>
<rscale>  2 0.20231646E+03</rscale>
<asrwt>0</asrwt>
<pdfrwt beam="1">  1       21 0.11183847E+00 0.20231646E+03</pdfrwt>
<pdfrwt beam="2">  1       21 0.87914590E-02 0.20231646E+03</pdfrwt>
<totfact> 0.63550164E+04</totfact>
</mgrwt>
</event>
<event>
 4    1  0.4374784E+000  0.1756737E+03  0.7546771E-02  0.1172057E+00
         21   -1    0    0  503  502  0.00000000000E+00  0.00000000000E+00  0.19734452213E+03  0.19734452213E+03  0.00000000000E+00 0.  1.
         21   -1    0    0  501  503 -0.00000000000E+00 -0.00000000000E+00 -0.19878713619E+03  0.19878713619E+03  0.00000000000E+00 0.  1.
          6    1    1    2  501    0  0.30365407163E+02 -0.31941144711E+01 -0.92200283100E+02  0.19839897309E+03  0.17300000000E+03 0.  1.
         -6    1    1    2    0  502 -0.30365407163E+02  0.31941144711E+01  0.90757669035E+02  0.19773268523E+03  0.17300000000E+03 0.  1.
<mgrwt>
<rscale>  2 0.17567373E+03</rscale>
<asrwt>0</asrwt>
<pdfrwt beam="1">  1       21 0.30360696E-01 0.17567373E+03</pdfrwt>
<pdfrwt beam="2">  1       21 0.30582636E-01 0.17567373E+03</pdfrwt>
<totfact> 0.10752271E+05</totfact>
</mgrwt>
</event>
<event>
 4    1  0.4374784E+000  0.2417226E+03  0.7546771E-02  0.1118651E+00
         21   -1    0    0  501  502  0.00000000000E+00  0.00000000000E+00  0.17481613294E+03  0.17481613294E+03  0.00000000000E+00 0.  1.
         21   -1    0    0  502  503 -0.00000000000E+00 -0.00000000000E+00 -0.33602869996E+03  0.33602869996E+03  0.00000000000E+00 0. -1.
          6    1    1    2  501    0 -0.16469113409E+03  0.37116406599E+02 -0.61948601218E+02  0.24953441943E+03  0.17300000000E+03 0.  1.
         -6    1    1    2    0  503  0.16469113409E+03 -0.37116406599E+02 -0.99263965798E+02  0.26131041348E+03  0.17300000000E+03 0. -1.
<mgrwt>
<rscale>  2 0.24172256E+03</rscale>
<asrwt>0</asrwt>
<pdfrwt beam="1">  1       21 0.26894790E-01 0.24172256E+03</pdfrwt>
<pdfrwt beam="2">  1       21 0.51696722E-01 0.24172256E+03</pdfrwt>
<totfact> 0.45743068E+04</totfact>
</mgrwt>
</event>
<event>
 4    1  0.4374784E+000  0.2545167E+03  0.7546771E-02  0.1110483E+00
         21   -1    0    0  501  502  0.00000000000E+00  0.00000000000E+00  0.11783541177E+04  0.11783541177E+04  0.00000000000E+00 0. -1.
         21   -1    0    0  502  503 -0.00000000000E+00 -0.00000000000E+00 -0.19410588118E+03  0.19410588118E+03  0.00000000000E+00 0.  1.
          6    1    1    2  501    0  0.10048222403E+03  0.15733111968E+03  0.10731076045E+04  0.11028774589E+04  0.17300000000E+03 0. -1.
         -6    1    1    2    0  503 -0.10048222403E+03 -0.15733111968E+03 -0.88859367988E+02  0.26958253995E+03  0.17300000000E+03 0.  1.
<mgrwt>
<rscale>  2 0.25451672E+03</rscale>
<asrwt>0</asrwt>
<pdfrwt beam="1">  1       21 0.18128524E+00 0.25451672E+03</pdfrwt>
<pdfrwt beam="2">  1       21 0.29862444E-01 0.25451672E+03</pdfrwt>
<totfact> 0.18138888E+03</totfact>
</mgrwt>
</event>
<event>
 4    1  0.4374784E+000  0.2033088E+03  0.7546771E-02  0.1146977E+00
         21   -1    0    0  501  502  0.00000000000E+00  0.00000000000E+00  0.29389381688E+03  0.29389381688E+03  0.00000000000E+00 0. -1.
         21   -1    0    0  502  503 -0.00000000000E+00 -0.00000000000E+00 -0.14796064386E+03  0.14796064386E+03  0.00000000000E+00 0. -1.
          6    1    1    2  501    0 -0.55894697331E+02  0.91001411536E+02  0.12209410388E+03  0.23715278681E+03  0.17300000000E+03 0. -1.
         -6    1    1    2    0  503  0.55894697331E+02 -0.91001411536E+02  0.23839069147E+02  0.20470167393E+03  0.17300000000E+03 0. -1.
<mgrwt>
<rscale>  2 0.20330881E+03</rscale>
<asrwt>0</asrwt>
<pdfrwt beam="1">  1       21 0.45214433E-01 0.20330881E+03</pdfrwt>
<pdfrwt beam="2">  1       21 0.22763176E-01 0.20330881E+03</pdfrwt>
<totfact> 0.84550277E+04</totfact>
</mgrwt>
</event>
<event>
 4    1  0.4374784E+000  0.1955933E+03  0.7546771E-02  0.1153511E+00
         21   -1    0    0  503  502  0.00000000000E+00  0.00000000000E+00  0.22911665961E+03  0.22911665961E+03  0.00000000000E+00 0. -1.
         21   -1    0    0  501  503 -0.00000000000E+00 -0.00000000000E+00 -0.31736956197E+03  0.31736956197E+03  0.00000000000E+00 0.  1.
          6    1    1    2  501    0  0.34541720515E+02  0.84466617675E+02 -0.23222382902E+03  0.30361924630E+03  0.17300000000E+03 0.  1.
         -6    1    1    2    0  502 -0.34541720515E+02 -0.84466617675E+02  0.14397092666E+03  0.24286697528E+03  0.17300000000E+03 0. -1.
<mgrwt>
<rscale>  2 0.19559330E+03</rscale>
<asrwt>0</asrwt>
<pdfrwt beam="1">  1       21 0.35248717E-01 0.19559330E+03</pdfrwt>
<pdfrwt beam="2">  1       21 0.48826086E-01 0.19559330E+03</pdfrwt>
<totfact> 0.31017048E+04</totfact>
</mgrwt>
</event>
<event>
 4    1  0.4374784E+000  0.1872613E+03  0.7546771E-02  0.1160955E+00
         21   -1    0    0  501  502  0.00000000000E+00  0.00000000000E+00  0.33536538815E+02  0.33536538815E+02  0.00000000000E+00 0.  1.
         21   -1    0    0  502  503 -0.00000000000E+00 -0.00000000000E+00 -0.10472125472E+04  0.10472125472E+04  0.00000000000E+00 0. -1.
          6    1    1    2  501    0  0.22830117234E+02 -0.67945296540E+02 -0.48582477255E+03  0.52066542731E+03  0.17300000000E+03 0. -1.
         -6    1    1    2    0  503 -0.22830117234E+02  0.67945296540E+02 -0.52785123587E+03  0.56008365873E+03  0.17300000000E+03 0.  1.
<mgrwt>
<rscale>  2 0.18726125E+03</rscale>
<asrwt>0</asrwt>
<pdfrwt beam="1">  1       21 0.51594682E-02 0.18726125E+03</pdfrwt>
<pdfrwt beam="2">  1       21 0.16110960E+00 0.18726125E+03</pdfrwt>
<totfact> 0.63190681E+04</totfact>
</mgrwt>
</event>
<event>
 4    1  0.4374784E+000  0.2130812E+03  0.7546771E-02  0.1139149E+00
         21   -1    0    0  501  502  0.00000000000E+00  0.00000000000E+00  0.16239751013E+03  0.16239751013E+03  0.00000000000E+00 0.  1.
         21   -1    0    0  502  503 -0.00000000000E+00 -0.00000000000E+00 -0.27984692123E+03  0.27984692123E+03  0.00000000000E+00 0.  1.
          6    1    1    2  501    0 -0.10213193165E+02  0.12397703173E+03 -0.51936515438E+02  0.21931943677E+03  0.17300000000E+03 0.  1.
         -6    1    1    2    0  503  0.10213193165E+02 -0.12397703173E+03 -0.65512895664E+02  0.22292499458E+03  0.17300000000E+03 0.  1.
<mgrwt>
<rscale>  2 0.21308124E+03</rscale>
<asrwt>0</asrwt>
<pdfrwt beam="1">  1       21 0.24984233E-01 0.21308124E+03</pdfrwt>
<pdfrwt beam="2">  1       21 0.43053372E-01 0.21308124E+03</pdfrwt>
<totfact> 0.77987409E+04</totfact>
</mgrwt>
</event>
<event>
 4    1  0.4374784E+000  0.1736066E+03  0.7546771E-02  0.1174138E+00
         21   -1    0    0  503  502  0.00000000000E+00  0.00000000000E+00  0.88869762892E+02  0.88869762892E+02  0.00000000000E+00 0. -1.
         21   -1    0    0  501  503 -0.00000000000E+00 -0.00000000000E+00 -0.34557088168E+03  0.34557088168E+03  0.00000000000E+00 0. -1.
          6    1    1    2  501    0  0.12781867257E+02  0.68458701542E+01 -0.15798425943E+03  0.23473020321E+03  0.17300000000E+03 0.  1.
         -6    1    1    2    0  502 -0.12781867257E+02 -0.68458701542E+01 -0.98716859352E+02  0.19971044136E+03  0.17300000000E+03 0.  1.
<mgrwt>
<rscale>  2 0.17360657E+03</rscale>
<asrwt>0</asrwt>
<pdfrwt beam="1">  1       21 0.13672271E-01 0.17360657E+03</pdfrwt>
<pdfrwt beam="2">  1       21 0.53164750E-01 0.17360657E+03</pdfrwt>
<totfact> 0.15647828E+05</totfact>
</mgrwt>
</event>
<event>
 4    1  0.4374784E+000  0.1918689E+03  0.7546771E-02  0.1156786E+00
         21   -1    0    0  503  502  0.00000000000E+00  0.00000000000E+00  0.18191137833E+04  0.18191137833E+04  0.00000000000E+00 0.  1.
         21   -1    0    0  501  503 -0.00000000000E+00 -0.00000000000E+00 -0.21883207131E+02  0.21883207131E+02  0.00000000000E+00 0.  1.
          6    1    1    2  501    0  0.35017537704E+02  0.75222631807E+02  0.64615649570E+03  0.67404145957E+03  0.17300000000E+03 0.  1.
         -6    1    1    2    0  502 -0.35017537704E+02 -0.75222631807E+02  0.11510740805E+04  0.11669555309E+04  0.17300000000E+03 0.  1.
<mgrwt>
<rscale>  2 0.19186889E+03</rscale>
<asrwt>0</asrwt>
<pdfrwt beam="1">  1       21 0.27986354E+00 0.19186889E+03</pdfrwt>
<pdfrwt beam="2">  1       21 0.33666487E-02 0.19186889E+03</pdfrwt>
<totfact> 0.23313416E+04</totfact>
</mgrwt>
</event>
<event>
 4    1  0.4374784E+000  0.1812352E+03  0.7546771E-02  0.1166613E+00
         21   -1    0    0  501  502  0.00000000000E+00  0.00000000000E+00  0.14928335431E+03  0.14928335431E+03  0.00000000000E+00 0. -1.
         21   -1    0    0  502  503 -0.00000000000E+00 -0.00000000000E+00 -0.25295592304E+03  0.25295592304E+03  0.00000000000E+00 0. -1.
          6    1    1    2  501    0  0.22591120020E+02 -0.49059518554E+02 -0.12440149874E+03  0.21982249192E+03  0.17300000000E+03 0. -1.
         -6    1    1    2    0  503 -0.22591120020E+02  0.49059518554E+02  0.20728930012E+02  0.18241678542E+03  0.17300000000E+03 0. -1.
<mgrwt>
<rscale>  2 0.18123519E+03</rscale>
<asrwt>0</asrwt>
<pdfrwt beam="1">  1       21 0.22966670E-01 0.18123519E+03</pdfrwt>
<pdfrwt beam="2">  1       21 0.38916296E-01 0.18123519E+03</pdfrwt>
<totfact> 0.11377028E+05</totfact>
</mgrwt>
</event>
<event>
 4    1  0.4374784E+000  0.2064468E+03  0.7546771E-02  0.1144411E+00
         21   -1    0    0  503  502  0.00000000000E+00  0.00000000000E+00  0.22210008066E+02  0.22210008066E+02  0.00000000000E+00 0. -1.
         21   -1    0    0  501  503 -0.00000000000E+00 -0.00000000000E+00 -0.19292191380E+04  0.19292191380E+04  0.00000000000E+00 0. -1.
          6    1    1    2  501    0 -0.11249755193E+03 -0.59661561148E+01 -0.10246289581E+04  0.10452199750E+04  0.17300000000E+03 0. -1.
         -6    1    1    2    0  502  0.11249755193E+03  0.59661561148E+01 -0.88238017178E+03  0.90620917109E+03  0.17300000000E+03 0. -1.
<mgrwt>
<rscale>  2 0.20644683E+03</rscale>
<asrwt>0</asrwt>
<pdfrwt beam="1">  1       21 0.34169247E-02 0.20644683E+03</pdfrwt>
<pdfrwt beam="2">  1       21 0.29680291E+00 0.20644683E+03</pdfrwt>
<totfact> 0.17913417E+04</totfact>
</mgrwt>
</event>
<event>
 4    1  0.4374784E+000  0.2016238E+03  0.7546771E-02  0.1148376E+00
         21   -1    0    0  503  502  0.00000000000E+00  0.00000000000E+00  0.48847741345E+03  0.48847741345E+03  0.00000000000E+00 0.  1.
         21   -1    0    0  501  503 -0.00000000000E+00 -0.00000000000E+00 -0.29984319213E+03  0.29984319213E+03  0.00000000000E+00 0. -1.
          6    1    1    2  501    0 -0.97496148009E+02 -0.34894959824E+02 -0.24070700773E+03  0.31399366342E+03  0.17300000000E+03 0. -1.
         -6    1    1    2    0  502  0.97496148009E+02  0.34894959824E+02  0.42934122905E+03  0.47432694216E+03  0.17300000000E+03 0.  1.
<mgrwt>
<rscale>  2 0.20162380E+03</rscale>
<asrwt>0</asrwt>
<pdfrwt beam="1">  1       21 0.75150371E-01 0.20162380E+03</pdfrwt>
<pdfrwt beam="2">  1       21 0.46129722E-01 0.20162380E+03</pdfrwt>
<totfact> 0.70805481E+03</totfact>
</mgrwt>
</event>
<event>
 4    1  0.4374784E+000  0.2662375E+03  0.7546771E-02  0.1103453E+00
         21   -1    0    0  501  502  0.00000000000E+00  0.00000000000E+00  0.37547097363E+03  0.37547097363E+03  0.00000000000E+00 0. -1.
         21   -1    0    0  502  503 -0.00000000000E+00 -0.00000000000E+00 -0.18933563697E+03  0.18933563697E+03  0.00000000000E+00 0.  1.
          6    1    1    2  501    0 -0.11118004615E+03  0.16909283954E+03  0.10833018153E+03  0.28743315619E+03  0.17300000000E+03 0.  1.
         -6    1    1    2    0  503  0.11118004615E+03 -0.16909283954E+03  0.77805155124E+02  0.27737345441E+03  0.17300000000E+03 0. -1.
<mgrwt>
<rscale>  2 0.26623747E+03</rscale>
<asrwt>0</asrwt>
<pdfrwt beam="1">  1       21 0.57764765E-01 0.26623747E+03</pdfrwt>
<pdfrwt beam="2">  1       21 0.29128560E-01 0.26623747E+03</pdfrwt>
<totfact> 0.30610784E+04</totfact>
</mgrwt>
</event>
<event>
 4    1  0.4374784E+000  0.2168187E+03  0.7546771E-02  0.1136277E+00
         21   -1    0    0  501  502  0.00000000000E+00  0.00000000000E+00  0.57750532659E+03  0.57750532659E+03  0.00000000000E+00 0. -1.
         21   -1    0    0  502  503 -0.00000000000E+00 -0.00000000000E+00 -0.81925481851E+02  0.81925481851E+02  0.00000000000E+00 0.  1.
          6    1    1    2  501    0 -0.12174838883E+03 -0.47525666713E+02  0.22144565613E+03  0.30991698533E+03  0.17300000000E+03 0. -1.
         -6    1    1    2    0  503  0.12174838883E+03  0.47525666713E+02  0.27413418861E+03  0.34951382311E+03  0.17300000000E+03 0.  1.
<mgrwt>
<rscale>  2 0.21681872E+03</rscale>
<asrwt>0</asrwt>
<pdfrwt beam="1">  1       21 0.88846971E-01 0.21681872E+03</pdfrwt>
<pdfrwt beam="2">  1       21 0.12603921E-01 0.21681872E+03</pdfrwt>
<totfact> 0.57497057E+04</totfact>
</mgrwt>
</event>
<event>
 4    1  0.4374784E+000  0.3149733E+03  0.7546771E-02  0.1077986E+00
         21   -1    0    0  501  502  0.00000000000E+00  0.00000000000E+00  0.53047429764E+03  0.53047429764E+03  0.00000000000E+00 0.  1.
         21   -1    0    0  502  503 -0.00000000000E+00 -0.00000000000E+00 -0.58507084993E+03  0.58507084993E+03  0.00000000000E+00 0. -1.
          6    1    1    2  501    0 -0.24437245834E+03  0.97781905892E+02  0.43277111282E+03  0.53525604677E+03  0.17300000000E+03 0.  1.
         -6    1    1    2    0  503  0.24437245834E+03 -0.97781905892E+02 -0.48736766511E+03  0.58028910080E+03  0.17300000000E+03 0. -1.
<mgrwt>
<rscale>  2 0.31497333E+03</rscale>
<asrwt>0</asrwt>
<pdfrwt beam="1">  1       21 0.81611430E-01 0.31497333E+03</pdfrwt>
<pdfrwt beam="2">  1       21 0.90010900E-01 0.31497333E+03</pdfrwt>
<totfact> 0.12583712E+03</totfact>
</mgrwt>
</event>
<event>
 4    1  0.4374784E+000  0.1870280E+03  0.7546771E-02  0.1161170E+00
         21   -1    0    0  503  502  0.00000000000E+00  0.00000000000E+00  0.18952224944E+03  0.18952224944E+03  0.00000000000E+00 0. -1.
         21   -1    0    0  501  503 -0.00000000000E+00 -0.00000000000E+00 -0.24666004058E+03  0.24666004058E+03  0.00000000000E+00 0. -1.
          6    1    1    2  501    0 -0.57702473675E+02 -0.41483543993E+02 -0.13799270124E+03  0.23242513953E+03  0.17300000000E+03 0. -1.
         -6    1    1    2    0  502  0.57702473675E+02  0.41483543993E+02  0.80854910101E+02  0.20375715049E+03  0.17300000000E+03 0. -1.
<mgrwt>
<rscale>  2 0.18702797E+03</rscale>
<asrwt>0</asrwt>
<pdfrwt beam="1">  1       21 0.29157269E-01 0.18702797E+03</pdfrwt>
<pdfrwt beam="2">  1       21 0.37947699E-01 0.18702797E+03</pdfrwt>
<totfact> 0.75608791E+04</totfact>
</mgrwt>
</event>
<event>
 4    1  0.4374784E+000  0.2352589E+03  0.7546771E-02  0.1122992E+00
         21   -1    0    0  501  502  0.00000000000E+00  0.00000000000E+00  0.11833300016E+03  0.11833300016E+03  0.00000000000E+00 0. -1.
         21   -1    0    0  502  503 -0.00000000000E+00 -0.00000000000E+00 -0.53944311307E+03  0.53944311307E+03  0.00000000000E+00 0.  1.
          6    1    1    2  501    0  0.11660979944E+03 -0.10871933489E+03 -0.90631605167E+02  0.25211272669E+03  0.17300000000E+03 0. -1.
         -6    1    1    2    0  503 -0.11660979944E+03  0.10871933489E+03 -0.33047850773E+03  0.40566338654E+03  0.17300000000E+03 0.  1.
<mgrwt>
<rscale>  2 0.23525888E+03</rscale>
<asrwt>0</asrwt>
<pdfrwt beam="1">  1       21 0.18205077E-01 0.23525888E+03</pdfrwt>
<pdfrwt beam="2">  1       21 0.82991250E-01 0.23525888E+03</pdfrwt>
<totfact> 0.34038837E+04</totfact>
</mgrwt>
</event>
<event>
 4    1  0.4374784E+000  0.1856651E+03  0.7546771E-02  0.1162430E+00
         21   -1    0    0  501  502  0.00000000000E+00  0.00000000000E+00  0.14316497498E+03  0.14316497498E+03  0.00000000000E+00 0. -1.
         21   -1    0    0  502  503 -0.00000000000E+00 -0.00000000000E+00 -0.41120364610E+03  0.41120364610E+03  0.00000000000E+00 0. -1.
          6    1    1    2  501    0  0.23655044222E+02  0.63110826189E+02  0.44424950554E+02  0.19090603377E+03  0.17300000000E+03 0. -1.
         -6    1    1    2    0  503 -0.23655044222E+02 -0.63110826189E+02 -0.31246362168E+03  0.36346258731E+03  0.17300000000E+03 0. -1.
<mgrwt>
<rscale>  2 0.18566512E+03</rscale>
<asrwt>0</asrwt>
<pdfrwt beam="1">  1       21 0.22025381E-01 0.18566512E+03</pdfrwt>
<pdfrwt beam="2">  1       21 0.63262100E-01 0.18566512E+03</pdfrwt>
<totfact> 0.44676055E+04</totfact>
</mgrwt>
</event>
<event>
 4    1  0.4374784E+000  0.2752934E+03  0.7546771E-02  0.1098288E+00
         21   -1    0    0  501  502  0.00000000000E+00  0.00000000000E+00  0.10446267449E+03  0.10446267449E+03  0.00000000000E+00 0.  1.
         21   -1    0    0  502  503 -0.00000000000E+00 -0.00000000000E+00 -0.84104392372E+03  0.84104392372E+03  0.00000000000E+00 0.  1.
          6    1    1    2  501    0  0.21413178993E+03  0.22437396489E+01 -0.19305572744E+03  0.33623945593E+03  0.17300000000E+03 0.  1.
         -6    1    1    2    0  503 -0.21413178993E+03 -0.22437396489E+01 -0.54352552180E+03  0.60926714228E+03  0.17300000000E+03 0.  1.
<mgrwt>
<rscale>  2 0.27529340E+03</rscale>
<asrwt>0</asrwt>
<pdfrwt beam="1">  1       21 0.16071181E-01 0.27529340E+03</pdfrwt>
<pdfrwt beam="2">  1       21 0.12939137E+00 0.27529340E+03</pdfrwt>
<totfact> 0.14406864E+04</totfact>
</mgrwt>
</event>
<event>
 4    1  0.4374784E+000  0.1773714E+03  0.7546771E-02  0.1170372E+00
         21   -1    0    0  501  502  0.00000000000E+00  0.00000000000E+00  0.41199420661E+02  0.41199420661E+02  0.00000000000E+00 0. -1.
         21   -1    0    0  502  503 -0.00000000000E+00 -0.00000000000E+00 -0.13240666014E+04  0.13240666014E+04  0.00000000000E+00 0. -1.
          6    1    1    2  501    0  0.21612373256E+02  0.32626926876E+02 -0.19731357879E+03  0.26531728065E+03  0.17300000000E+03 0. -1.
         -6    1    1    2    0  503 -0.21612373256E+02 -0.32626926876E+02 -0.10855536019E+04  0.10999487414E+04  0.17300000000E+03 0. -1.
<mgrwt>
<rscale>  2 0.17737139E+03</rscale>
<asrwt>0</asrwt>
<pdfrwt beam="1">  1       21 0.63383725E-02 0.17737139E+03</pdfrwt>
<pdfrwt beam="2">  1       21 0.20370255E+00 0.17737139E+03</pdfrwt>
<totfact> 0.23089927E+04</totfact>
</mgrwt>
</event>
<event>
 4    1  0.4374784E+000  0.2264434E+03  0.7546771E-02  0.1129168E+00
         21   -1    0    0  501  502  0.00000000000E+00  0.00000000000E+00  0.20263280692E+03  0.20263280692E+03  0.00000000000E+00 0. -1.
         21   -1    0    0  502  503 -0.00000000000E+00 -0.00000000000E+00 -0.27273281984E+03  0.27273281984E+03  0.00000000000E+00 0.  1.
          6    1    1    2  501    0 -0.10106682104E+03  0.10551352804E+03  0.28798730728E+02  0.22826732970E+03  0.17300000000E+03 0. -1.
         -6    1    1    2    0  503  0.10106682104E+03 -0.10551352804E+03 -0.98898743647E+02  0.24709829706E+03  0.17300000000E+03 0.  1.
<mgrwt>
<rscale>  2 0.22644339E+03</rscale>
<asrwt>0</asrwt>
<pdfrwt beam="1">  1       21 0.31174278E-01 0.22644339E+03</pdfrwt>
<pdfrwt beam="2">  1       21 0.41958895E-01 0.22644339E+03</pdfrwt>
<totfact> 0.53216103E+04</totfact>
</mgrwt>
</event>
<event>
 4    1  0.4374784E+000  0.1791941E+03  0.7546771E-02  0.1168585E+00
         21   -1    0    0  501  502  0.00000000000E+00  0.00000000000E+00  0.61826511471E+03  0.61826511471E+03  0.00000000000E+00 0. -1.
         21   -1    0    0  502  503 -0.00000000000E+00 -0.00000000000E+00 -0.52015512299E+02  0.52015512299E+02  0.00000000000E+00 0. -1.
          6    1    1    2  501    0  0.45885798837E+02  0.87179060869E+01  0.27006049699E+03  0.32410365696E+03  0.17300000000E+03 0. -1.
         -6    1    1    2    0  503 -0.45885798837E+02 -0.87179060869E+01  0.29618910543E+03  0.34617697006E+03  0.17300000000E+03 0. -1.
<mgrwt>
<rscale>  2 0.17919405E+03</rscale>
<asrwt>0</asrwt>
<pdfrwt beam="1">  1       21 0.95117705E-01 0.17919405E+03</pdfrwt>
<pdfrwt beam="2">  1       21 0.80023869E-02 0.17919405E+03</pdfrwt>
<totfact> 0.11137271E+05</totfact>
</mgrwt>
</event>
<event>
 4    1  0.4374784E+000  0.2111367E+03  0.7546771E-02  0.1140669E+00
         21   -1    0    0  503  502  0.00000000000E+00  0.00000000000E+00  0.54402754728E+02  0.54402754728E+02  0.00000000000E+00 0. -1.
         21   -1    0    0  501  503 -0.00000000000E+00 -0.00000000000E+00 -0.93944042700E+03  0.93944042700E+03  0.00000000000E+00 0.  1.
          6    1    1    2  501    0  0.51639995826E+02  0.10946697554E+03 -0.26490338600E+03  0.33875140120E+03  0.17300000000E+03 0. -1.
         -6    1    1    2    0  502 -0.51639995826E+02 -0.10946697554E+03 -0.62013428628E+03  0.65509178053E+03  0.17300000000E+03 0.  1.
<mgrwt>
<rscale>  2 0.21113670E+03</rscale>
<asrwt>0</asrwt>
<pdfrwt beam="1">  1       21 0.83696561E-02 0.21113670E+03</pdfrwt>
<pdfrwt beam="2">  1       21 0.14452927E+00 0.21113670E+03</pdfrwt>
<totfact> 0.36144599E+04</totfact>
</mgrwt>
</event>
<event>
 4    1  0.4374784E+000  0.1946002E+03  0.7546771E-02  0.1154376E+00
         21   -1    0    0  503  502  0.00000000000E+00  0.00000000000E+00  0.52285552405E+03  0.52285552405E+03  0.00000000000E+00 0. -1.
         21   -1    0    0  501  503 -0.00000000000E+00 -0.00000000000E+00 -0.85535368002E+02  0.85535368002E+02  0.00000000000E+00 0. -1.
          6    1    1    2  501    0  0.85312283538E+02  0.25730690192E+02  0.99579324256E+02  0.21859848115E+03  0.17300000000E+03 0. -1.
         -6    1    1    2    0  502 -0.85312283538E+02 -0.25730690192E+02  0.33774083180E+03  0.38979241091E+03  0.17300000000E+03 0. -1.
<mgrwt>
<rscale>  2 0.19460024E+03</rscale>
<asrwt>0</asrwt>
<pdfrwt beam="1">  1       21 0.80439310E-01 0.19460024E+03</pdfrwt>
<pdfrwt beam="2">  1       21 0.13159288E-01 0.19460024E+03</pdfrwt>
<totfact> 0.67493964E+04</totfact>
</mgrwt>
</event>
<event>
 4    1  0.4374784E+000  0.2838519E+03  0.7546771E-02  0.1093604E+00
         21   -1    0    0  503  502  0.00000000000E+00  0.00000000000E+00  0.13226411281E+04  0.13226411281E+04  0.00000000000E+00 0. -1.
         21   -1    0    0  501  503 -0.00000000000E+00 -0.00000000000E+00 -0.78394202144E+02  0.78394202144E+02  0.00000000000E+00 0. -1.
          6    1    1    2  501    0  0.18768176714E+03  0.12417104250E+03  0.29136742836E+03  0.40677619378E+03  0.17300000000E+03 0. -1.
         -6    1    1    2    0  502 -0.18768176714E+03 -0.12417104250E+03  0.95287949763E+03  0.99425913650E+03  0.17300000000E+03 0. -1.
<mgrwt>
<rscale>  2 0.28385189E+03</rscale>
<asrwt>0</asrwt>
<pdfrwt beam="1">  1       21 0.20348323E+00 0.28385189E+03</pdfrwt>
<pdfrwt beam="2">  1       21 0.12060648E-01 0.28385189E+03</pdfrwt>
<totfact> 0.69300700E+03</totfact>
</mgrwt>
</event>
<event>
 4    1  0.4374784E+000  0.1777315E+03  0.7546771E-02  0.1170017E+00
         21   -1    0    0  501  502  0.00000000000E+00  0.00000000000E+00  0.79483435088E+03  0.79483435088E+03  0.00000000000E+00 0.  1.
         21   -1    0    0  502  503 -0.00000000000E+00 -0.00000000000E+00 -0.47306852794E+02  0.47306852794E+02  0.00000000000E+00 0.  1.
          6    1    1    2  501    0 -0.22103836026E+02  0.34218291344E+02  0.54214246815E+03  0.57053214353E+03  0.17300000000E+03 0.  1.
         -6    1    1    2    0  503  0.22103836026E+02 -0.34218291344E+02  0.20538502993E+03  0.27160906014E+03  0.17300000000E+03 0.  1.
<mgrwt>
<rscale>  2 0.17773146E+03</rscale>
<asrwt>0</asrwt>
<pdfrwt beam="1">  1       21 0.12228220E+00 0.17773146E+03</pdfrwt>
<pdfrwt beam="2">  1       21 0.72779779E-02 0.17773146E+03</pdfrwt>
<totfact> 0.71776230E+04</totfact>
</mgrwt>
</event>
<event>
 4    1  0.4374784E+000  0.2351055E+03  0.7546771E-02  0.1123097E+00
         21   -1    0    0  503  502  0.00000000000E+00  0.00000000000E+00  0.15413900260E+04  0.15413900260E+04  0.00000000000E+00 0.  1.
         21   -1    0    0  501  503 -0.00000000000E+00 -0.00000000000E+00 -0.37242140347E+02  0.37242140347E+02  0.00000000000E+00 0.  1.
          6    1    1    2  501    0 -0.13528769168E+03  0.83921746537E+02  0.60002909306E+03  0.64444513466E+03  0.17300000000E+03 0.  1.
         -6    1    1    2    0  502  0.13528769168E+03 -0.83921746537E+02  0.90411879255E+03  0.93418703165E+03  0.17300000000E+03 0.  1.
<mgrwt>
<rscale>  2 0.23510555E+03</rscale>
<asrwt>0</asrwt>
<pdfrwt beam="1">  1       21 0.23713688E+00 0.23510555E+03</pdfrwt>
<pdfrwt beam="2">  1       21 0.57295612E-02 0.23510555E+03</pdfrwt>
<totfact> 0.16337455E+04</totfact>
</mgrwt>
</event>
<event>
 4    1  0.4374784E+000  0.2258527E+03  0.7546771E-02  0.1129593E+00
         21   -1    0    0  503  502  0.00000000000E+00  0.00000000000E+00  0.24424517954E+03  0.24424517954E+03  0.00000000000E+00 0. -1.
         21   -1    0    0  501  503 -0.00000000000E+00 -0.00000000000E+00 -0.22841718745E+03  0.22841718745E+03  0.00000000000E+00 0.  1.
          6    1    1    2  501    0  0.14312868225E+03  0.24384613421E+02 -0.61265007202E+02  0.23401459391E+03  0.17300000000E+03 0.  1.
         -6    1    1    2    0  502 -0.14312868225E+03 -0.24384613421E+02  0.77092999288E+02  0.23864777308E+03  0.17300000000E+03 0.  1.
<mgrwt>
<rscale>  2 0.22585267E+03</rscale>
<asrwt>0</asrwt>
<pdfrwt beam="1">  1       21 0.37576181E-01 0.22585267E+03</pdfrwt>
<pdfrwt beam="2">  1       21 0.35141106E-01 0.22585267E+03</pdfrwt>
<totfact> 0.52512768E+04</totfact>
</mgrwt>
</event>
<event>
 4    1  0.4374784E+000  0.2278788E+03  0.7546771E-02  0.1128142E+00
         21   -1    0    0  501  502  0.00000000000E+00  0.00000000000E+00  0.17820075885E+03  0.17820075885E+03  0.00000000000E+00 0.  1.
         21   -1    0    0  502  503 -0.00000000000E+00 -0.00000000000E+00 -0.41156727917E+03  0.41156727917E+03  0.00000000000E+00 0. -1.
          6    1    1    2  501    0 -0.18062796963E+02 -0.14721923713E+03  0.42652445468E+02  0.23183614800E+03  0.17300000000E+03 0.  1.
         -6    1    1    2    0  503  0.18062796963E+02  0.14721923713E+03 -0.27601896579E+03  0.35793189002E+03  0.17300000000E+03 0. -1.
<mgrwt>
<rscale>  2 0.22787885E+03</rscale>
<asrwt>0</asrwt>
<pdfrwt beam="1">  1       21 0.27415502E-01 0.22787885E+03</pdfrwt>
<pdfrwt beam="2">  1       21 0.63318043E-01 0.22787885E+03</pdfrwt>
<totfact> 0.28733776E+04</totfact>
</mgrwt>
</event>
<event>
 4    1  0.4374784E+000  0.2524554E+03  0.7546771E-02  0.1111763E+00
         21   -1    0    0  503  502  0.00000000000E+00  0.00000000000E+00  0.63400928457E+03  0.63400928457E+03  0.00000000000E+00 0. -1.
         21   -1    0    0  501  503 -0.00000000000E+00 -0.00000000000E+00 -0.35532177378E+03  0.35532177378E+03  0.00000000000E+00 0.  1.
          6    1    1    2  501    0 -0.17508668242E+03 -0.56119397014E+02 -0.27954409755E+03  0.37666780531E+03  0.17300000000E+03 0.  1.
         -6    1    1    2    0  502  0.17508668242E+03  0.56119397014E+02  0.55823160834E+03  0.61266325304E+03  0.17300000000E+03 0. -1.
<mgrwt>
<rscale>  2 0.25245541E+03</rscale>
<asrwt>0</asrwt>
<pdfrwt beam="1">  1       21 0.97539890E-01 0.25245541E+03</pdfrwt>
<pdfrwt beam="2">  1       21 0.54664888E-01 0.25245541E+03</pdfrwt>
<totfact> 0.26259058E+03</totfact>
</mgrwt>
</event>
<event>
 4    1  0.4374784E+000  0.1895425E+03  0.7546771E-02  0.1158875E+00
         21   -1    0    0  503  502  0.00000000000E+00  0.00000000000E+00  0.30177185503E+02  0.30177185503E+02  0.00000000000E+00 0.  1.
         21   -1    0    0  501  503 -0.00000000000E+00 -0.00000000000E+00 -0.11952341779E+04  0.11952341779E+04  0.00000000000E+00 0. -1.
          6    1    1    2  501    0  0.21296400269E+02 -0.74456976882E+02 -0.62103018815E+03  0.64931107542E+03  0.17300000000E+03 0.  1.
         -6    1    1    2    0  502 -0.21296400269E+02  0.74456976882E+02 -0.54402680420E+03  0.57610028793E+03  0.17300000000E+03 0.  1.
<mgrwt>
<rscale>  2 0.18954255E+03</rscale>
<asrwt>0</asrwt>
<pdfrwt beam="1">  1       21 0.46426444E-02 0.18954255E+03</pdfrwt>
<pdfrwt beam="2">  1       21 0.18388216E+00 0.18954255E+03</pdfrwt>
<totfact> 0.52335353E+04</totfact>
</mgrwt>
</event>
<event>
 4    1  0.4374784E+000  0.2434095E+03  0.7546771E-02  0.1117542E+00
         21   -1    0    0  503  502  0.00000000000E+00  0.00000000000E+00  0.74690060445E+03  0.74690060445E+03  0.00000000000E+00 0. -1.
         21   -1    0    0  501  503 -0.00000000000E+00 -0.00000000000E+00 -0.92387280743E+02  0.92387280743E+02  0.00000000000E+00 0.  1.
          6    1    1    2  501    0 -0.12651419501E+03 -0.11538352527E+03  0.16946738143E+03  0.29659297499E+03  0.17300000000E+03 0.  1.
         -6    1    1    2    0  502  0.12651419501E+03  0.11538352527E+03  0.48504594228E+03  0.54269491021E+03  0.17300000000E+03 0. -1.
<mgrwt>
<rscale>  2 0.24340953E+03</rscale>
<asrwt>0</asrwt>
<pdfrwt beam="1">  1       21 0.11490778E+00 0.24340953E+03</pdfrwt>
<pdfrwt beam="2">  1       21 0.14213428E-01 0.24340953E+03</pdfrwt>
<totfact> 0.24698968E+04</totfact>
</mgrwt>
</event>
<event>
 4    1  0.4374784E+000  0.1813365E+03  0.7546771E-02  0.1166516E+00
         21   -1    0    0  501  502  0.00000000000E+00  0.00000000000E+00  0.77071075976E+03  0.77071075976E+03  0.00000000000E+00 0. -1.
         21   -1    0    0  502  503 -0.00000000000E+00 -0.00000000000E+00 -0.72234287225E+02  0.72234287225E+02  0.00000000000E+00 0. -1.
          6    1    1    2  501    0  0.50301225002E+02 -0.20584582938E+02  0.61889581340E+03  0.64491469679E+03  0.17300000000E+03 0. -1.
         -6    1    1    2    0  503 -0.50301225002E+02  0.20584582938E+02  0.79580659141E+02  0.19803035020E+03  0.17300000000E+03 0. -1.
<mgrwt>
<rscale>  2 0.18133653E+03</rscale>
<asrwt>0</asrwt>
<pdfrwt beam="1">  1       21 0.11857088E+00 0.18133653E+03</pdfrwt>
<pdfrwt beam="2">  1       21 0.11112968E-01 0.18133653E+03</pdfrwt>
<totfact> 0.36842170E+04</totfact>
</mgrwt>
</event>
<event>
 4    1  0.4374784E+000  0.1946595E+03  0.7546771E-02  0.1154325E+00
         21   -1    0    0  503  502  0.00000000000E+00  0.00000000000E+00  0.33181201449E+02  0.33181201449E+02  0.00000000000E+00 0.  1.
         21   -1    0    0  501  503 -0.00000000000E+00 -0.00000000000E+00 -0.13653530624E+04  0.13653530624E+04  0.00000000000E+00 0.  1.
          6    1    1    2  501    0  0.83301441173E+02  0.32002819541E+02 -0.94892200163E+03  0.96868223672E+03  0.17300000000E+03 0.  1.
         -6    1    1    2    0  502 -0.83301441173E+02 -0.32002819541E+02 -0.38324985934E+03  0.42985202715E+03  0.17300000000E+03 0.  1.
<mgrwt>
<rscale>  2 0.19465947E+03</rscale>
<asrwt>0</asrwt>
<pdfrwt beam="1">  1       21 0.51048010E-02 0.19465947E+03</pdfrwt>
<pdfrwt beam="2">  1       21 0.21005428E+00 0.19465947E+03</pdfrwt>
<totfact> 0.30066989E+04</totfact>
</mgrwt>
</event>
<event>
 4    1  0.4374784E+000  0.1744911E+03  0.7546771E-02  0.1173244E+00
         21   -1    0    0  503  502  0.00000000000E+00  0.00000000000E+00  0.66542796899E+02  0.66542796899E+02  0.00000000000E+00 0. -1.
         21   -1    0    0  501  503 -0.00000000000E+00 -0.00000000000E+00 -0.49866674141E+03  0.49866674141E+03  0.00000000000E+00 0. -1.
          6    1    1    2  501    0  0.84685066177E+01  0.21128869025E+02 -0.29720382048E+03  0.34464076314E+03  0.17300000000E+03 0. -1.
         -6    1    1    2    0  502 -0.84685066177E+01 -0.21128869025E+02 -0.13492012403E+03  0.22056877517E+03  0.17300000000E+03 0. -1.
<mgrwt>
<rscale>  2 0.17449110E+03</rscale>
<asrwt>0</asrwt>
<pdfrwt beam="1">  1       21 0.10237353E-01 0.17449110E+03</pdfrwt>
<pdfrwt beam="2">  1       21 0.76717961E-01 0.17449110E+03</pdfrwt>
<totfact> 0.11845983E+05</totfact>
</mgrwt>
</event>
<event>
 4    1  0.4374784E+000  0.1834908E+03  0.7546771E-02  0.1164467E+00
         21   -1    0    0  501  502  0.00000000000E+00  0.00000000000E+00  0.64061907090E+03  0.64061907090E+03  0.00000000000E+00 0. -1.
         21   -1    0    0  502  503 -0.00000000000E+00 -0.00000000000E+00 -0.65273076840E+02  0.65273076840E+02  0.00000000000E+00 0. -1.
          6    1    1    2  501    0  0.53335782484E+02 -0.29919263268E+02  0.44345663552E+03  0.47991942615E+03  0.17300000000E+03 0. -1.
         -6    1    1    2    0  503 -0.53335782484E+02  0.29919263268E+02  0.13188935854E+03  0.22597272159E+03  0.17300000000E+03 0. -1.
<mgrwt>
<rscale>  2 0.18349078E+03</rscale>
<asrwt>0</asrwt>
<pdfrwt beam="1">  1       21 0.98556776E-01 0.18349078E+03</pdfrwt>
<pdfrwt beam="2">  1       21 0.10042012E-01 0.18349078E+03</pdfrwt>
<totfact> 0.68724023E+04</totfact>
</mgrwt>
</event>
<event>
 4    1  0.4374784E+000  0.1886709E+03  0.7546771E-02  0.1159666E+00
         21   -1    0    0  503  502  0.00000000000E+00  0.00000000000E+00  0.55970054880E+02  0.55970054880E+02  0.00000000000E+00 0. -1.
         21   -1    0    0  501  503 -0.00000000000E+00 -0.00000000000E+00 -0.16125746199E+04  0.16125746199E+04  0.00000000000E+00 0. -1.
          6    1    1    2  501    0 -0.68200545913E+02 -0.31881051407E+02 -0.14275367969E+04  0.14399507014E+04  0.17300000000E+03 0. -1.
         -6    1    1    2    0  502  0.68200545913E+02  0.31881051407E+02 -0.12906776809E+03  0.22859397337E+03  0.17300000000E+03 0. -1.
<mgrwt>
<rscale>  2 0.18867092E+03</rscale>
<asrwt>0</asrwt>
<pdfrwt beam="1">  1       21 0.86107781E-02 0.18867092E+03</pdfrwt>
<pdfrwt beam="2">  1       21 0.24808839E+00 0.18867092E+03</pdfrwt>
<totfact> 0.72311227E+03</totfact>
</mgrwt>
</event>
<event>
 4    1  0.4374784E+000  0.2085638E+03  0.7546771E-02  0.1142708E+00
         21   -1    0    0  501  502  0.00000000000E+00  0.00000000000E+00  0.37856037258E+03  0.37856037258E+03  0.00000000000E+00 0.  1.
         21   -1    0    0  502  503 -0.00000000000E+00 -0.00000000000E+00 -0.12756078614E+03  0.12756078614E+03  0.00000000000E+00 0.  1.
          6    1    1    2  501    0  0.10307659915E+03  0.54268468788E+02  0.45793320732E+02  0.21353191851E+03  0.17300000000E+03 0.  1.
         -6    1    1    2    0  503 -0.10307659915E+03 -0.54268468788E+02  0.20520626571E+03  0.29258924021E+03  0.17300000000E+03 0.  1.
<mgrwt>
<rscale>  2 0.20856378E+03</rscale>
<asrwt>0</asrwt>
<pdfrwt beam="1">  1       21 0.58240057E-01 0.20856378E+03</pdfrwt>
<pdfrwt beam="2">  1       21 0.19624737E-01 0.20856378E+03</pdfrwt>
<totfact> 0.65568798E+04</totfact>
</mgrwt>
</event>
<event>
 4    1  0.4374784E+000  0.1778928E+03  0.7546771E-02  0.1169858E+00
         21   -1    0    0  501  502  0.00000000000E+00  0.00000000000E+00  0.27957300599E+02  0.27957300599E+02  0.00000000000E+00 0. -1.
         21   -1    0    0  502  503 -0.00000000000E+00 -0.00000000000E+00 -0.11377767606E+04  0.11377767606E+04  0.00000000000E+00 0. -1.
          6    1    1    2  501    0 -0.36528466532E+02 -0.19557946912E+02 -0.51314406956E+03  0.54310466605E+03  0.17300000000E+03 0. -1.
         -6    1    1    2    0  503  0.36528466532E+02  0.19557946912E+02 -0.59667539048E+03  0.62262939519E+03  0.17300000000E+03 0. -1.
<mgrwt>
<rscale>  2 0.17789278E+03</rscale>
<asrwt>0</asrwt>
<pdfrwt beam="1">  1       21 0.43011239E-02 0.17789278E+03</pdfrwt>
<pdfrwt beam="2">  1       21 0.17504255E+00 0.17789278E+03</pdfrwt>
<totfact> 0.68840445E+04</totfact>
</mgrwt>
</event>
<event>
 4    1  0.4374784E+000  0.2995636E+03  0.7546771E-02  0.1085459E+00
         21   -1    0    0  501  502  0.00000000000E+00  0.00000000000E+00  0.85437068182E+02  0.85437068182E+02  0.00000000000E+00 0.  1.
         21   -1    0    0  502  503 -0.00000000000E+00 -0.00000000000E+00 -0.10534588583E+04  0.10534588583E+04  0.00000000000E+00 0. -1.
          6    1    1    2  501    0  0.82457688691E+02  0.23023918384E+03 -0.51497307650E+03  0.59576473689E+03  0.17300000000E+03 0.  1.
         -6    1    1    2    0  503 -0.82457688691E+02 -0.23023918384E+03 -0.45304871364E+03  0.54313118962E+03  0.17300000000E+03 0. -1.
<mgrwt>
<rscale>  2 0.29956360E+03</rscale>
<asrwt>0</asrwt>
<pdfrwt beam="1">  1       21 0.13144164E-01 0.29956360E+03</pdfrwt>
<pdfrwt beam="2">  1       21 0.16207060E+00 0.29956360E+03</pdfrwt>
<totfact> 0.11337018E+04</totfact>
</mgrwt>
</event>
<event>
 4    1  0.4374784E+000  0.1768262E+03  0.7546771E-02  0.1170911E+00
         21   -1    0    0  503  502  0.00000000000E+00  0.00000000000E+00  0.89917151748E+03  0.89917151748E+03  0.00000000000E+00 0.  1.
         21   -1    0    0  501  503 -0.00000000000E+00 -0.00000000000E+00 -0.35079671250E+02  0.35079671250E+02  0.00000000000E+00 0.  1.
          6    1    1    2  501    0  0.35788119918E+02 -0.75964753530E+01  0.38841788765E+03  0.42677388792E+03  0.17300000000E+03 0.  1.
         -6    1    1    2    0  502 -0.35788119918E+02  0.75964753530E+01  0.47567395858E+03  0.50747730081E+03  0.17300000000E+03 0.  1.
<mgrwt>
<rscale>  2 0.17682617E+03</rscale>
<asrwt>0</asrwt>
<pdfrwt beam="1">  1       21 0.13833406E+00 0.17682617E+03</pdfrwt>
<pdfrwt beam="2">  1       21 0.53968732E-02 0.17682617E+03</pdfrwt>
<totfact> 0.87852749E+04</totfact>
</mgrwt>
</event>
<event>
 4    1  0.4374784E+000  0.1837661E+03  0.7546771E-02  0.1164207E+00
         21   -1    0    0  501  502  0.00000000000E+00  0.00000000000E+00  0.18838099535E+04  0.18838099535E+04  0.00000000000E+00 0. -1.
         21   -1    0    0  502  503 -0.00000000000E+00 -0.00000000000E+00 -0.19049116526E+02  0.19049116526E+02  0.00000000000E+00 0. -1.
          6    1    1    2  501    0 -0.14241806274E+02  0.60317017977E+02  0.70140271301E+03  0.72507636668E+03  0.17300000000E+03 0. -1.
         -6    1    1    2    0  503  0.14241806274E+02 -0.60317017977E+02  0.11633581240E+04  0.11777827034E+04  0.17300000000E+03 0. -1.
<mgrwt>
<rscale>  2 0.18376608E+03</rscale>
<asrwt>0</asrwt>
<pdfrwt beam="1">  1       21 0.28981677E+00 0.18376608E+03</pdfrwt>
<pdfrwt beam="2">  1       21 0.29306348E-02 0.18376608E+03</pdfrwt>
<totfact> 0.25916157E+04</totfact>
</mgrwt>
</event>
<event>
 4    1  0.4374784E+000  0.2698653E+03  0.7546771E-02  0.1101357E+00
         21   -1    0    0  501  502  0.00000000000E+00  0.00000000000E+00  0.13725388115E+03  0.13725388115E+03  0.00000000000E+00 0.  1.
         21   -1    0    0  502  503 -0.00000000000E+00 -0.00000000000E+00 -0.81701628074E+03  0.81701628074E+03  0.00000000000E+00 0. -1.
          6    1    1    2  501    0  0.20435943117E+03  0.33696932219E+02 -0.57378303296E+02  0.27589768038E+03  0.17300000000E+03 0.  1.
         -6    1    1    2    0  503 -0.20435943117E+03 -0.33696932219E+02 -0.62238409629E+03  0.67837248151E+03  0.17300000000E+03 0. -1.
<mgrwt>
<rscale>  2 0.26986526E+03</rscale>
<asrwt>0</asrwt>
<pdfrwt beam="1">  1       21 0.21115982E-01 0.26986526E+03</pdfrwt>
<pdfrwt beam="2">  1       21 0.12569481E+00 0.26986526E+03</pdfrwt>
<totfact> 0.93382594E+03</totfact>
</mgrwt>
</event>
<event>
 4    1  0.4374784E+000  0.2425614E+03  0.7546771E-02  0.1118098E+00
         21   -1    0    0  501  502  0.00000000000E+00  0.00000000000E+00  0.20426029414E+03  0.20426029414E+03  0.00000000000E+00 0. -1.
         21   -1    0    0  502  503 -0.00000000000E+00 -0.00000000000E+00 -0.35211609506E+03  0.35211609506E+03  0.00000000000E+00 0. -1.
          6    1    1    2  501    0 -0.15955529938E+03 -0.58729471348E+02  0.44738751731E+02  0.24665279295E+03  0.17300000000E+03 0. -1.
         -6    1    1    2    0  503  0.15955529938E+03  0.58729471348E+02 -0.19259455265E+03  0.30972359625E+03  0.17300000000E+03 0. -1.
<mgrwt>
<rscale>  2 0.24256142E+03</rscale>
<asrwt>0</asrwt>
<pdfrwt beam="1">  1       21 0.31424661E-01 0.24256142E+03</pdfrwt>
<pdfrwt beam="2">  1       21 0.54171707E-01 0.24256142E+03</pdfrwt>
<totfact> 0.30563300E+04</totfact>
</mgrwt>
</event>
<event>
 4    1  0.4374784E+000  0.1927738E+03  0.7546771E-02  0.1155983E+00
         21   -1    0    0  501  502  0.00000000000E+00  0.00000000000E+00  0.16403811335E+03  0.16403811335E+03  0.00000000000E+00 0.  1.
         21   -1    0    0  502  503 -0.00000000000E+00 -0.00000000000E+00 -0.26458263156E+03  0.26458263156E+03  0.00000000000E+00 0.  1.
          6    1    1    2  501    0  0.76922601223E+02  0.36272120501E+02  0.30988026576E+02  0.19524858795E+03  0.17300000000E+03 0. -1.
         -6    1    1    2    0  503 -0.76922601223E+02 -0.36272120501E+02 -0.13153254479E+03  0.23337215696E+03  0.17300000000E+03 0. -1.
<mgrwt>
<rscale>  2 0.19277384E+03</rscale>
<asrwt>0</asrwt>
<pdfrwt beam="1">  1       21 0.25236633E-01 0.19277384E+03</pdfrwt>
<pdfrwt beam="2">  1       21 0.40705020E-01 0.19277384E+03</pdfrwt>
<totfact> 0.86499380E+04</totfact>
</mgrwt>
</event>
<event>
 4    1  0.4374784E+000  0.2131252E+03  0.7546771E-02  0.1139115E+00
         21   -1    0    0  503  502  0.00000000000E+00  0.00000000000E+00  0.43881607671E+02  0.43881607671E+02  0.00000000000E+00 0. -1.
         21   -1    0    0  501  503 -0.00000000000E+00 -0.00000000000E+00 -0.10503570586E+04  0.10503570586E+04  0.00000000000E+00 0. -1.
          6    1    1    2  501    0  0.10502122582E+03 -0.66812373640E+02 -0.56915315221E+03  0.60774802494E+03  0.17300000000E+03 0. -1.
         -6    1    1    2    0  502 -0.10502122582E+03  0.66812373640E+02 -0.43732229868E+03  0.48649064129E+03  0.17300000000E+03 0. -1.
<mgrwt>
<rscale>  2 0.21312520E+03</rscale>
<asrwt>0</asrwt>
<pdfrwt beam="1">  1       21 0.67510169E-02 0.21312520E+03</pdfrwt>
<pdfrwt beam="2">  1       21 0.16159339E+00 0.21312520E+03</pdfrwt>
<totfact> 0.38972594E+04</totfact>
</mgrwt>
</event>
<event>
 4    1  0.4374784E+000  0.2158785E+03  0.7546771E-02  0.1136994E+00
         21   -1    0    0  503  502  0.00000000000E+00  0.00000000000E+00  0.16761219977E+03  0.16761219977E+03  0.00000000000E+00 0.  1.
         21   -1    0    0  501  503 -0.00000000000E+00 -0.00000000000E+00 -0.68960967292E+03  0.68960967292E+03  0.00000000000E+00 0. -1.
          6    1    1    2  501    0 -0.12365907397E+03  0.37188233376E+02 -0.59211556925E+03  0.63024152404E+03  0.17300000000E+03 0. -1.
         -6    1    1    2    0  502  0.12365907397E+03 -0.37188233376E+02  0.70118096101E+02  0.22698034866E+03  0.17300000000E+03 0.  1.
<mgrwt>
<rscale>  2 0.21587851E+03</rscale>
<asrwt>0</asrwt>
<pdfrwt beam="1">  1       21 0.25786493E-01 0.21587851E+03</pdfrwt>
<pdfrwt beam="2">  1       21 0.10609379E+00 0.21587851E+03</pdfrwt>
<totfact> 0.10011085E+04</totfact>
</mgrwt>
</event>
<event>
 4    1  0.4374784E+000  0.1803737E+03  0.7546771E-02  0.1167442E+00
         21   -1    0    0  503  502  0.00000000000E+00  0.00000000000E+00  0.51100326096E+02  0.51100326096E+02  0.00000000000E+00 0.  1.
         21   -1    0    0  501  503 -0.00000000000E+00 -0.00000000000E+00 -0.13261802649E+04  0.13261802649E+04  0.00000000000E+00 0.  1.
          6    1    1    2  501    0  0.16842968543E+02 -0.48186915035E+02 -0.11340839251E+04  0.11483383707E+04  0.17300000000E+03 0.  1.
         -6    1    1    2    0  502 -0.16842968543E+02  0.48186915035E+02 -0.14099601370E+03  0.22894222033E+03  0.17300000000E+03 0.  1.
<mgrwt>
<rscale>  2 0.18037368E+03</rscale>
<asrwt>0</asrwt>
<pdfrwt beam="1">  1       21 0.78615904E-02 0.18037368E+03</pdfrwt>
<pdfrwt beam="2">  1       21 0.20402769E+00 0.18037368E+03</pdfrwt>
<totfact> 0.15810898E+04</totfact>
</mgrwt>
</event>
<event>
 4    1  0.4374784E+000  0.2397563E+03  0.7546771E-02  0.1119955E+00
         21   -1    0    0  503  502  0.00000000000E+00  0.00000000000E+00  0.58452436877E+02  0.58452436877E+02  0.00000000000E+00 0.  1.
         21   -1    0    0  501  503 -0.00000000000E+00 -0.00000000000E+00 -0.10100126744E+04  0.10100126744E+04  0.00000000000E+00 0.  1.
          6    1    1    2  501    0 -0.14729887679E+03 -0.76531835919E+02 -0.56247189551E+03  0.61143905195E+03  0.17300000000E+03 0.  1.
         -6    1    1    2    0  502  0.14729887679E+03  0.76531835919E+02 -0.38908834200E+03  0.45702605931E+03  0.17300000000E+03 0.  1.
<mgrwt>
<rscale>  2 0.23975630E+03</rscale>
<asrwt>0</asrwt>
<pdfrwt beam="1">  1       21 0.89926831E-02 0.23975630E+03</pdfrwt>
<pdfrwt beam="2">  1       21 0.15538656E+00 0.23975630E+03</pdfrwt>
<totfact> 0.25884099E+04</totfact>
</mgrwt>
</event>
<event>
 4    1  0.4374784E+000  0.1757005E+03  0.7546771E-02  0.1172030E+00
         21   -1    0    0  501  502  0.00000000000E+00  0.00000000000E+00  0.89320324002E+03  0.89320324002E+03  0.00000000000E+00 0.  1.
         21   -1    0    0  502  503 -0.00000000000E+00 -0.00000000000E+00 -0.50567548072E+02  0.50567548072E+02  0.00000000000E+00 0.  1.
          6    1    1    2  501    0  0.39904516832E+01  0.30426007615E+02  0.68680241037E+03  0.70892045854E+03  0.17300000000E+03 0.  1.
         -6    1    1    2    0  503 -0.39904516832E+01 -0.30426007615E+02  0.15583328158E+03  0.23485032955E+03  0.17300000000E+03 0.  1.
<mgrwt>
<rscale>  2 0.17570050E+03</rscale>
<asrwt>0</asrwt>
<pdfrwt beam="1">  1       21 0.13741587E+00 0.17570050E+03</pdfrwt>
<pdfrwt beam="2">  1       21 0.77796235E-02 0.17570050E+03</pdfrwt>
<totfact> 0.47741774E+04</totfact>
</mgrwt>
</event>
<event>
 4    1  0.4374784E+000  0.2430616E+03  0.7546771E-02  0.1117770E+00
         21   -1    0    0  503  502  0.00000000000E+00  0.00000000000E+00  0.23577829670E+03  0.23577829670E+03  0.00000000000E+00 0.  1.
         21   -1    0    0  501  503 -0.00000000000E+00 -0.00000000000E+00 -0.25707989357E+03  0.25707989357E+03  0.00000000000E+00 0. -1.
          6    1    1    2  501    0  0.11595561736E+03  0.12531651763E+03 -0.49865556667E+02  0.24812397814E+03  0.17300000000E+03 0.  1.
         -6    1    1    2    0  502 -0.11595561736E+03 -0.12531651763E+03  0.28563959799E+02  0.24473421213E+03  0.17300000000E+03 0. -1.
<mgrwt>
<rscale>  2 0.24306159E+03</rscale>
<asrwt>0</asrwt>
<pdfrwt beam="1">  1       21 0.36273584E-01 0.24306159E+03</pdfrwt>
<pdfrwt beam="2">  1       21 0.39550753E-01 0.24306159E+03</pdfrwt>
<totfact> 0.44122331E+04</totfact>
</mgrwt>
</event>
<event>
 4    1  0.4374784E+000  0.2118978E+03  0.7546771E-02  0.1140072E+00
         21   -1    0    0  503  502  0.00000000000E+00  0.00000000000E+00  0.13478408023E+03  0.13478408023E+03  0.00000000000E+00 0. -1.
         21   -1    0    0  501  503 -0.00000000000E+00 -0.00000000000E+00 -0.40682236956E+03  0.40682236956E+03  0.00000000000E+00 0.  1.
          6    1    1    2  501    0  0.10195677465E+03 -0.67649867164E+02 -0.20763766958E+02  0.21291271085E+03  0.17300000000E+03 0. -1.
         -6    1    1    2    0  502 -0.10195677465E+03  0.67649867164E+02 -0.25127452237E+03  0.32869373894E+03  0.17300000000E+03 0.  1.
<mgrwt>
<rscale>  2 0.21189783E+03</rscale>
<asrwt>0</asrwt>
<pdfrwt beam="1">  1       21 0.20736012E-01 0.21189783E+03</pdfrwt>
<pdfrwt beam="2">  1       21 0.62588057E-01 0.21189783E+03</pdfrwt>
<totfact> 0.50566227E+04</totfact>
</mgrwt>
</event>
<event>
 4    1  0.4374784E+000  0.2183951E+03  0.7546771E-02  0.1135085E+00
         21   -1    0    0  503  502  0.00000000000E+00  0.00000000000E+00  0.35727093480E+03  0.35727093480E+03  0.00000000000E+00 0.  1.
         21   -1    0    0  501  503 -0.00000000000E+00 -0.00000000000E+00 -0.13968941665E+03  0.13968941665E+03  0.00000000000E+00 0. -1.
          6    1    1    2  501    0  0.85230930195E+02  0.10248469708E+03  0.16108582559E+03  0.27137624768E+03  0.17300000000E+03 0.  1.
         -6    1    1    2    0  502 -0.85230930195E+02 -0.10248469708E+03  0.56495692557E+02  0.22558410377E+03  0.17300000000E+03 0. -1.
<mgrwt>
<rscale>  2 0.21839511E+03</rscale>
<asrwt>0</asrwt>
<pdfrwt beam="1">  1       21 0.54964759E-01 0.21839511E+03</pdfrwt>
<pdfrwt beam="2">  1       21 0.21490680E-01 0.21839511E+03</pdfrwt>
<totfact> 0.62281570E+04</totfact>
</mgrwt>
</event>
<event>
 4    1  0.4374784E+000  0.1764847E+03  0.7546771E-02  0.1171249E+00
         21   -1    0    0  501  502  0.00000000000E+00  0.00000000000E+00  0.21742467948E+02  0.21742467948E+02  0.00000000000E+00 0.  1.
         21   -1    0    0  502  503 -0.00000000000E+00 -0.00000000000E+00 -0.17908142923E+04  0.17908142923E+04  0.00000000000E+00 0.  1.
          6    1    1    2  501    0 -0.33571105903E+02 -0.95313537623E+01 -0.12899012902E+04  0.13019186627E+04  0.17300000000E+03 0.  1.
         -6    1    1    2    0  503  0.33571105903E+02  0.95313537623E+01 -0.47917053415E+03  0.51063809753E+03  0.17300000000E+03 0.  1.
<mgrwt>
<rscale>  2 0.17648475E+03</rscale>
<asrwt>0</asrwt>
<pdfrwt beam="1">  1       21 0.33449960E-02 0.17648475E+03</pdfrwt>
<pdfrwt beam="2">  1       21 0.27550982E+00 0.17648475E+03</pdfrwt>
<totfact> 0.25333423E+04</totfact>
</mgrwt>
</event>
<event>
 4    1  0.4374784E+000  0.3118784E+03  0.7546771E-02  0.1079449E+00
         21   -1    0    0  503  502  0.00000000000E+00  0.00000000000E+00  0.65876642420E+02  0.65876642420E+02  0.00000000000E+00 0. -1.
         21   -1    0    0  501  503 -0.00000000000E+00 -0.00000000000E+00 -0.17460781552E+04  0.17460781552E+04  0.00000000000E+00 0.  1.
          6    1    1    2  501    0  0.88403444713E+02  0.24397530079E+03 -0.11960700526E+04  0.12360629786E+04  0.17300000000E+03 0.  1.
         -6    1    1    2    0  502 -0.88403444713E+02 -0.24397530079E+03 -0.48413146017E+03  0.57589181897E+03  0.17300000000E+03 0.  1.
<mgrwt>
<rscale>  2 0.31187837E+03</rscale>
<asrwt>0</asrwt>
<pdfrwt beam="1">  1       21 0.10134871E-01 0.31187837E+03</pdfrwt>
<pdfrwt beam="2">  1       21 0.26862734E+00 0.31187837E+03</pdfrwt>
<totfact> 0.36984596E+03</totfact>
</mgrwt>
</event>
<event>
 4    1  0.4374784E+000  0.2682001E+03  0.7546771E-02  0.1102314E+00
         21   -1    0    0  503  502  0.00000000000E+00  0.00000000000E+00  0.13850222093E+03  0.13850222093E+03  0.00000000000E+00 0.  1.
         21   -1    0    0  501  503 -0.00000000000E+00 -0.00000000000E+00 -0.52394008872E+03  0.52394008872E+03  0.00000000000E+00 0. -1.
          6    1    1    2  501    0 -0.18398409836E+03 -0.90289161531E+02 -0.16172079445E+03  0.31318508345E+03  0.17300000000E+03 0.  1.
         -6    1    1    2    0  502  0.18398409836E+03  0.90289161531E+02 -0.22371707334E+03  0.34925722619E+03  0.17300000000E+03 0. -1.
<mgrwt>
<rscale>  2 0.26820008E+03</rscale>
<asrwt>0</asrwt>
<pdfrwt beam="1">  1       21 0.21308034E-01 0.26820008E+03</pdfrwt>
<pdfrwt beam="2">  1       21 0.80606166E-01 0.26820008E+03</pdfrwt>
<totfact> 0.26684224E+04</totfact>
</mgrwt>
</event>
<event>
 4    1  0.4374784E+000  0.4034250E+03  0.7546771E-02  0.1042600E+00
         21   -1    0    0  501  502  0.00000000000E+00  0.00000000000E+00  0.25778864105E+03  0.25778864105E+03  0.00000000000E+00 0.  1.
         21   -1    0    0  502  503 -0.00000000000E+00 -0.00000000000E+00 -0.67215527963E+03  0.67215527963E+03  0.00000000000E+00 0. -1.
          6    1    1    2  501    0  0.35781715396E+03 -0.69207062738E+02 -0.92601782496E+02  0.41391644486E+03  0.17300000000E+03 0.  1.
         -6    1    1    2    0  503 -0.35781715396E+03  0.69207062738E+02 -0.32176485608E+03  0.51602747582E+03  0.17300000000E+03 0. -1.
<mgrwt>
<rscale>  2 0.40342500E+03</rscale>
<asrwt>0</asrwt>
<pdfrwt beam="1">  1       21 0.39659790E-01 0.40342500E+03</pdfrwt>
<pdfrwt beam="2">  1       21 0.10340851E+00 0.40342500E+03</pdfrwt>
<totfact> 0.41300409E+03</totfact>
</mgrwt>
</event>
<event>
 4    1  0.4374784E+000  0.2108341E+03  0.7546771E-02  0.1140907E+00
         21   -1    0    0  501  502  0.00000000000E+00  0.00000000000E+00  0.34662026826E+03  0.34662026826E+03  0.00000000000E+00 0.  1.
         21   -1    0    0  502  503 -0.00000000000E+00 -0.00000000000E+00 -0.14304348547E+03  0.14304348547E+03  0.00000000000E+00 0.  1.
          6    1    1    2  501    0 -0.48932743519E+02  0.11012538111E+03  0.18054694350E+03  0.27757559648E+03  0.17300000000E+03 0.  1.
         -6    1    1    2    0  503  0.48932743519E+02 -0.11012538111E+03  0.23029839292E+02  0.21208815726E+03  0.17300000000E+03 0.  1.
<mgrwt>
<rscale>  2 0.21083409E+03</rscale>
<asrwt>0</asrwt>
<pdfrwt beam="1">  1       21 0.53326195E-01 0.21083409E+03</pdfrwt>
<pdfrwt beam="2">  1       21 0.22006690E-01 0.21083409E+03</pdfrwt>
<totfact> 0.63701786E+04</totfact>
</mgrwt>
</event>
<event>
 4    1  0.4374784E+000  0.2193482E+03  0.7546771E-02  0.1134370E+00
         21   -1    0    0  501  502  0.00000000000E+00  0.00000000000E+00  0.59364291742E+03  0.59364291742E+03  0.00000000000E+00 0.  1.
         21   -1    0    0  502  503 -0.00000000000E+00 -0.00000000000E+00 -0.89987387816E+02  0.89987387816E+02  0.00000000000E+00 0. -1.
          6    1    1    2  501    0 -0.77388275181E+02 -0.11043404840E+03  0.35956162186E+03  0.42118663808E+03  0.17300000000E+03 0. -1.
         -6    1    1    2    0  503  0.77388275181E+02  0.11043404840E+03  0.14409390775E+03  0.26244366716E+03  0.17300000000E+03 0.  1.
<mgrwt>
<rscale>  2 0.21934818E+03</rscale>
<asrwt>0</asrwt>
<pdfrwt beam="1">  1       21 0.91329677E-01 0.21934818E+03</pdfrwt>
<pdfrwt beam="2">  1       21 0.13844214E-01 0.21934818E+03</pdfrwt>
<totfact> 0.45460504E+04</totfact>
</mgrwt>
</event>
<event>
 4    1  0.4374784E+000  0.2026119E+03  0.7546771E-02  0.1147554E+00
         21   -1    0    0  503  502  0.00000000000E+00  0.00000000000E+00  0.35187135614E+03  0.35187135614E+03  0.00000000000E+00 0.  1.
         21   -1    0    0  501  503 -0.00000000000E+00 -0.00000000000E+00 -0.23352810684E+03  0.23352810684E+03  0.00000000000E+00 0.  1.
          6    1    1    2  501    0  0.12157893518E+02 -0.10476050169E+03 -0.14788483799E+03  0.25084158825E+03  0.17300000000E+03 0.  1.
         -6    1    1    2    0  502 -0.12157893518E+02  0.10476050169E+03  0.26622808729E+03  0.33455787474E+03  0.17300000000E+03 0.  1.
<mgrwt>
<rscale>  2 0.20261189E+03</rscale>
<asrwt>0</asrwt>
<pdfrwt beam="1">  1       21 0.54134055E-01 0.20261189E+03</pdfrwt>
<pdfrwt beam="2">  1       21 0.35927401E-01 0.20261189E+03</pdfrwt>
<totfact> 0.23958395E+04</totfact>
</mgrwt>
</event>
<event>
 4    1  0.4374784E+000  0.2648474E+03  0.7546771E-02  0.1104265E+00
         21   -1    0    0  503  502  0.00000000000E+00  0.00000000000E+00  0.24436921432E+03  0.24436921432E+03  0.00000000000E+00 0.  1.
         21   -1    0    0  501  503 -0.00000000000E+00 -0.00000000000E+00 -0.30353747044E+03  0.30353747044E+03  0.00000000000E+00 0.  1.
          6    1    1    2  501    0  0.12114970645E+03 -0.15980574419E+03  0.34280182665E+02  0.26705665723E+03  0.17300000000E+03 0.  1.
         -6    1    1    2    0  502 -0.12114970645E+03  0.15980574419E+03 -0.93448438785E+02  0.28085002752E+03  0.17300000000E+03 0.  1.
<mgrwt>
<rscale>  2 0.26484737E+03</rscale>
<asrwt>0</asrwt>
<pdfrwt beam="1">  1       21 0.37595264E-01 0.26484737E+03</pdfrwt>
<pdfrwt beam="2">  1       21 0.46698072E-01 0.26484737E+03</pdfrwt>
<totfact> 0.28921335E+04</totfact>
</mgrwt>
</event>
<event>
 4    1  0.4374784E+000  0.3501837E+03  0.7546771E-02  0.1062540E+00
         21   -1    0    0  503  502  0.00000000000E+00  0.00000000000E+00  0.13567578241E+03  0.13567578241E+03  0.00000000000E+00 0.  1.
         21   -1    0    0  501  503 -0.00000000000E+00 -0.00000000000E+00 -0.12044401465E+04  0.12044401465E+04  0.00000000000E+00 0. -1.
          6    1    1    2  501    0 -0.84291199738E+02 -0.29256561061E+03 -0.86912966339E+03  0.93702455392E+03  0.17300000000E+03 0. -1.
         -6    1    1    2    0  502  0.84291199738E+02  0.29256561061E+03 -0.19963470068E+03  0.40309137498E+03  0.17300000000E+03 0.  1.
<mgrwt>
<rscale>  2 0.35018373E+03</rscale>
<asrwt>0</asrwt>
<pdfrwt beam="1">  1       21 0.20873197E-01 0.35018373E+03</pdfrwt>
<pdfrwt beam="2">  1       21 0.18529849E+00 0.35018373E+03</pdfrwt>
<totfact> 0.31974992E+03</totfact>
</mgrwt>
</event>
<event>
 4    1  0.4374784E+000  0.3162081E+03  0.7546771E-02  0.1077408E+00
         21   -1    0    0  501  502  0.00000000000E+00  0.00000000000E+00  0.26732809104E+03  0.26732809104E+03  0.00000000000E+00 0. -1.
         21   -1    0    0  502  503 -0.00000000000E+00 -0.00000000000E+00 -0.39874790149E+03  0.39874790149E+03  0.00000000000E+00 0.  1.
          6    1    1    2  501    0 -0.21820971147E+03  0.14981021871E+03  0.17215583141E+02  0.31667642178E+03  0.17300000000E+03 0.  1.
         -6    1    1    2    0  503  0.21820971147E+03 -0.14981021871E+03 -0.14863539359E+03  0.34939957075E+03  0.17300000000E+03 0. -1.
<mgrwt>
<rscale>  2 0.31620813E+03</rscale>
<asrwt>0</asrwt>
<pdfrwt beam="1">  1       21 0.41127399E-01 0.31620813E+03</pdfrwt>
<pdfrwt beam="2">  1       21 0.61345831E-01 0.31620813E+03</pdfrwt>
<totfact> 0.13193060E+04</totfact>
</mgrwt>
</event>
<event>
 4    1  0.4374784E+000  0.1981560E+03  0.7546771E-02  0.1151304E+00
         21   -1    0    0  503  502  0.00000000000E+00  0.00000000000E+00  0.24307363998E+03  0.24307363998E+03  0.00000000000E+00 0. -1.
         21   -1    0    0  501  503 -0.00000000000E+00 -0.00000000000E+00 -0.56146403775E+03  0.56146403775E+03  0.00000000000E+00 0. -1.
          6    1    1    2  501    0 -0.96341701936E+02  0.74215493853E+01 -0.49869918118E+03  0.53662526612E+03  0.17300000000E+03 0. -1.
         -6    1    1    2    0  502  0.96341701936E+02 -0.74215493853E+01  0.18030878341E+03  0.26791241162E+03  0.17300000000E+03 0. -1.
<mgrwt>
<rscale>  2 0.19815601E+03</rscale>
<asrwt>0</asrwt>
<pdfrwt beam="1">  1       21 0.37395946E-01 0.19815601E+03</pdfrwt>
<pdfrwt beam="2">  1       21 0.86379081E-01 0.19815601E+03</pdfrwt>
<totfact> 0.79327431E+03</totfact>
</mgrwt>
</event>
<event>
 4    1  0.4374784E+000  0.2471921E+03  0.7546771E-02  0.1115092E+00
         21   -1    0    0  503  502  0.00000000000E+00  0.00000000000E+00  0.82234517234E+02  0.82234517234E+02  0.00000000000E+00 0.  1.
         21   -1    0    0  501  503 -0.00000000000E+00 -0.00000000000E+00 -0.17844138422E+04  0.17844138422E+04  0.00000000000E+00 0. -1.
          6    1    1    2  501    0  0.13087046902E+03  0.11852374163E+03 -0.15640854919E+04  0.15834984632E+04  0.17300000000E+03 0. -1.
         -6    1    1    2    0  502 -0.13087046902E+03 -0.11852374163E+03 -0.13809383302E+03  0.28314989619E+03  0.17300000000E+03 0.  1.
<mgrwt>
<rscale>  2 0.24719215E+03</rscale>
<asrwt>0</asrwt>
<pdfrwt beam="1">  1       21 0.12651465E-01 0.24719215E+03</pdfrwt>
<pdfrwt beam="2">  1       21 0.27452519E+00 0.24719215E+03</pdfrwt>
<totfact> 0.24120505E+03</totfact>
</mgrwt>
</event>
<event>
 4    1  0.4374784E+000  0.1740216E+03  0.7546771E-02  0.1173718E+00
         21   -1    0    0  503  502  0.00000000000E+00  0.00000000000E+00  0.86641542050E+03  0.86641542050E+03  0.00000000000E+00 0.  1.
         21   -1    0    0  501  503 -0.00000000000E+00 -0.00000000000E+00 -0.35189069364E+02  0.35189069364E+02  0.00000000000E+00 0.  1.
          6    1    1    2  501    0  0.10844187220E+02 -0.15392132691E+02  0.37866231547E+03  0.41673572358E+03  0.17300000000E+03 0.  1.
         -6    1    1    2    0  502 -0.10844187220E+02  0.15392132691E+02  0.45256403566E+03  0.48486876628E+03  0.17300000000E+03 0.  1.
<mgrwt>
<rscale>  2 0.17402159E+03</rscale>
<asrwt>0</asrwt>
<pdfrwt beam="1">  1       21 0.13329466E+00 0.17402159E+03</pdfrwt>
<pdfrwt beam="2">  1       21 0.54137036E-02 0.17402159E+03</pdfrwt>
<totfact> 0.96172616E+04</totfact>
</mgrwt>
</event>
<event>
 4    1  0.4374784E+000  0.2198302E+03  0.7546771E-02  0.1134010E+00
         21   -1    0    0  503  502  0.00000000000E+00  0.00000000000E+00  0.70800916564E+02  0.70800916564E+02  0.00000000000E+00 0. -1.
         21   -1    0    0  501  503 -0.00000000000E+00 -0.00000000000E+00 -0.82917914135E+03  0.82917914135E+03  0.00000000000E+00 0. -1.
          6    1    1    2  501    0  0.10006857364E+03 -0.91556517828E+02 -0.56841725172E+03  0.60944522924E+03  0.17300000000E+03 0. -1.
         -6    1    1    2    0  502 -0.10006857364E+03  0.91556517828E+02 -0.18996097307E+03  0.29053482868E+03  0.17300000000E+03 0. -1.
<mgrwt>
<rscale>  2 0.21983020E+03</rscale>
<asrwt>0</asrwt>
<pdfrwt beam="1">  1       21 0.10892448E-01 0.21983020E+03</pdfrwt>
<pdfrwt beam="2">  1       21 0.12756602E+00 0.21983020E+03</pdfrwt>
<totfact> 0.31123288E+04</totfact>
</mgrwt>
</event>
<event>
 4    1  0.4374784E+000  0.3085623E+03  0.7546771E-02  0.1081037E+00
         21   -1    0    0  503  502  0.00000000000E+00  0.00000000000E+00  0.18488237486E+03  0.18488237486E+03  0.00000000000E+00 0.  1.
         21   -1    0    0  501  503 -0.00000000000E+00 -0.00000000000E+00 -0.10102454856E+04  0.10102454856E+04  0.00000000000E+00 0.  1.
          6    1    1    2  501    0  0.19744293511E+03  0.16216656809E+03 -0.83107992910E+03  0.88651258140E+03  0.17300000000E+03 0.  1.
         -6    1    1    2    0  502 -0.19744293511E+03 -0.16216656809E+03  0.57168184084E+01  0.30861527902E+03  0.17300000000E+03 0.  1.
<mgrwt>
<rscale>  2 0.30856233E+03</rscale>
<asrwt>0</asrwt>
<pdfrwt beam="1">  1       21 0.28443442E-01 0.30856233E+03</pdfrwt>
<pdfrwt beam="2">  1       21 0.15542238E+00 0.30856233E+03</pdfrwt>
<totfact> 0.29559763E+03</totfact>
</mgrwt>
</event>
<event>
 4    1  0.4374784E+000  0.3190166E+03  0.7546771E-02  0.1076103E+00
         21   -1    0    0  503  502  0.00000000000E+00  0.00000000000E+00  0.56247541639E+03  0.56247541639E+03  0.00000000000E+00 0.  1.
         21   -1    0    0  501  503 -0.00000000000E+00 -0.00000000000E+00 -0.18258988462E+03  0.18258988462E+03  0.00000000000E+00 0. -1.
          6    1    1    2  501    0  0.36466446517E+02 -0.26554244115E+03  0.15447886995E+03  0.35445071736E+03  0.17300000000E+03 0.  1.
         -6    1    1    2    0  502 -0.36466446517E+02  0.26554244115E+03  0.22540666181E+03  0.39061458365E+03  0.17300000000E+03 0.  1.
<mgrwt>
<rscale>  2 0.31901660E+03</rscale>
<asrwt>0</asrwt>
<pdfrwt beam="1">  1       21 0.86534679E-01 0.31901660E+03</pdfrwt>
<pdfrwt beam="2">  1       21 0.28090752E-01 0.31901660E+03</pdfrwt>
<totfact> 0.13031445E+04</totfact>
</mgrwt>
</event>
<event>
 4    1  0.4374784E+000  0.1921850E+03  0.7546771E-02  0.1156505E+00
         21   -1    0    0  503  502  0.00000000000E+00  0.00000000000E+00  0.18849609971E+04  0.18849609971E+04  0.00000000000E+00 0. -1.
         21   -1    0    0  501  503 -0.00000000000E+00 -0.00000000000E+00 -0.19910307135E+02  0.19910307135E+02  0.00000000000E+00 0. -1.
          6    1    1    2  501    0 -0.22829439300E+02  0.80528810117E+02  0.81259389176E+03  0.83501132057E+03  0.17300000000E+03 0.  1.
         -6    1    1    2    0  502  0.22829439300E+02 -0.80528810117E+02  0.10524567982E+04  0.10698599837E+04  0.17300000000E+03 0.  1.
<mgrwt>
<rscale>  2 0.19218500E+03</rscale>
<asrwt>0</asrwt>
<pdfrwt beam="1">  1       21 0.28999386E+00 0.19218500E+03</pdfrwt>
<pdfrwt beam="2">  1       21 0.30631257E-02 0.19218500E+03</pdfrwt>
<totfact> 0.23835960E+04</totfact>
</mgrwt>
</event>
<event>
 4    1  0.4374784E+000  0.1916944E+03  0.7546771E-02  0.1156942E+00
         21   -1    0    0  501  502  0.00000000000E+00  0.00000000000E+00  0.32188472983E+03  0.32188472983E+03  0.00000000000E+00 0.  1.
         21   -1    0    0  502  503 -0.00000000000E+00 -0.00000000000E+00 -0.24144962182E+03  0.24144962182E+03  0.00000000000E+00 0. -1.
          6    1    1    2  501    0 -0.16681914192E+02  0.80866896852E+02  0.24472892304E+03  0.31086811840E+03  0.17300000000E+03 0.  1.
         -6    1    1    2    0  503  0.16681914192E+02 -0.80866896852E+02 -0.16429381503E+03  0.25246623324E+03  0.17300000000E+03 0. -1.
<mgrwt>
<rscale>  2 0.19169440E+03</rscale>
<asrwt>0</asrwt>
<pdfrwt beam="1">  1       21 0.49520728E-01 0.19169440E+03</pdfrwt>
<pdfrwt beam="2">  1       21 0.37146096E-01 0.19169440E+03</pdfrwt>
<totfact> 0.27188834E+04</totfact>
</mgrwt>
</event>
<event>
 4    1  0.4374784E+000  0.1995596E+03  0.7546771E-02  0.1150111E+00
         21   -1    0    0  503  502  0.00000000000E+00  0.00000000000E+00  0.14070745504E+03  0.14070745504E+03  0.00000000000E+00 0. -1.
         21   -1    0    0  501  503 -0.00000000000E+00 -0.00000000000E+00 -0.29702216489E+03  0.29702216489E+03  0.00000000000E+00 0. -1.
          6    1    1    2  501    0 -0.89673157027E+02  0.43055074665E+02 -0.30649010702E+02  0.20189942150E+03  0.17300000000E+03 0. -1.
         -6    1    1    2    0  502  0.89673157027E+02 -0.43055074665E+02 -0.12566569915E+03  0.23583019842E+03  0.17300000000E+03 0. -1.
<mgrwt>
<rscale>  2 0.19955955E+03</rscale>
<asrwt>0</asrwt>
<pdfrwt beam="1">  1       21 0.21647301E-01 0.19955955E+03</pdfrwt>
<pdfrwt beam="2">  1       21 0.45695717E-01 0.19955955E+03</pdfrwt>
<totfact> 0.91108569E+04</totfact>
</mgrwt>
</event>
<event>
 4    1  0.4374784E+000  0.1870031E+03  0.7546771E-02  0.1161192E+00
         21   -1    0    0  503  502  0.00000000000E+00  0.00000000000E+00  0.50823568993E+03  0.50823568993E+03  0.00000000000E+00 0.  1.
         21   -1    0    0  501  503 -0.00000000000E+00 -0.00000000000E+00 -0.88033295940E+02  0.88033295940E+02  0.00000000000E+00 0.  1.
          6    1    1    2  501    0 -0.31058873046E+02  0.63847384906E+02  0.34942882501E+03  0.39632139219E+03  0.17300000000E+03 0.  1.
         -6    1    1    2    0  502  0.31058873046E+02 -0.63847384906E+02  0.70773568978E+02  0.19994759368E+03  0.17300000000E+03 0.  1.
<mgrwt>
<rscale>  2 0.18700305E+03</rscale>
<asrwt>0</asrwt>
<pdfrwt beam="1">  1       21 0.78190105E-01 0.18700305E+03</pdfrwt>
<pdfrwt beam="2">  1       21 0.13543584E-01 0.18700305E+03</pdfrwt>
<totfact> 0.68540983E+04</totfact>
</mgrwt>
</event>
<event>
 4    1  0.4374784E+000  0.1940871E+03  0.7546771E-02  0.1154826E+00
         21   -1    0    0  503  502  0.00000000000E+00  0.00000000000E+00  0.45960367575E+03  0.45960367575E+03  0.00000000000E+00 0.  1.
         21   -1    0    0  501  503 -0.00000000000E+00 -0.00000000000E+00 -0.10447248680E+03  0.10447248680E+03  0.00000000000E+00 0.  1.
          6    1    1    2  501    0 -0.19877410132E+02  0.85706972972E+02  0.46646117345E+02  0.19961376935E+03  0.17300000000E+03 0.  1.
         -6    1    1    2    0  502  0.19877410132E+02 -0.85706972972E+02  0.30848507161E+03  0.36446239319E+03  0.17300000000E+03 0.  1.
<mgrwt>
<rscale>  2 0.19408709E+03</rscale>
<asrwt>0</asrwt>
<pdfrwt beam="1">  1       21 0.70708257E-01 0.19408709E+03</pdfrwt>
<pdfrwt beam="2">  1       21 0.16072690E-01 0.19408709E+03</pdfrwt>
<totfact> 0.62627406E+04</totfact>
</mgrwt>
</event>
<event>
 4    1  0.4374784E+000  0.2409590E+03  0.7546771E-02  0.1119156E+00
         21   -1    0    0  503  502  0.00000000000E+00  0.00000000000E+00  0.71059786891E+02  0.71059786891E+02  0.00000000000E+00 0.  1.
         21   -1    0    0  501  503 -0.00000000000E+00 -0.00000000000E+00 -0.14563542434E+04  0.14563542434E+04  0.00000000000E+00 0. -1.
          6    1    1    2  501    0 -0.68050847463E+02 -0.15330143479E+03 -0.11986329048E+04  0.12226128121E+04  0.17300000000E+03 0. -1.
         -6    1    1    2    0  502  0.68050847463E+02  0.15330143479E+03 -0.18666155171E+03  0.30480121823E+03  0.17300000000E+03 0.  1.
<mgrwt>
<rscale>  2 0.24095902E+03</rscale>
<asrwt>0</asrwt>
<pdfrwt beam="1">  1       21 0.10932274E-01 0.24095902E+03</pdfrwt>
<pdfrwt beam="2">  1       21 0.22405452E+00 0.24095902E+03</pdfrwt>
<totfact> 0.63140650E+03</totfact>
</mgrwt>
</event>
<event>
 4    1  0.4374784E+000  0.2447753E+03  0.7546771E-02  0.1116652E+00
         21   -1    0    0  503  502  0.00000000000E+00  0.00000000000E+00  0.91128664646E+02  0.91128664646E+02  0.00000000000E+00 0.  1.
         21   -1    0    0  501  503 -0.00000000000E+00 -0.00000000000E+00 -0.66816260347E+03  0.66816260347E+03  0.00000000000E+00 0.  1.
          6    1    1    2  501    0  0.14630697533E+03 -0.92629362425E+02 -0.24050464425E+03  0.34315800110E+03  0.17300000000E+03 0.  1.
         -6    1    1    2    0  502 -0.14630697533E+03  0.92629362425E+02 -0.33652929458E+03  0.41613326702E+03  0.17300000000E+03 0.  1.
<mgrwt>
<rscale>  2 0.24477526E+03</rscale>
<asrwt>0</asrwt>
<pdfrwt beam="1">  1       21 0.14019795E-01 0.24477526E+03</pdfrwt>
<pdfrwt beam="2">  1       21 0.10279425E+00 0.24477526E+03</pdfrwt>
<totfact> 0.33185381E+04</totfact>
</mgrwt>
</event>
<event>
 4    1  0.4374784E+000  0.1958559E+03  0.7546771E-02  0.1153283E+00
         21   -1    0    0  503  502  0.00000000000E+00  0.00000000000E+00  0.36417099072E+03  0.36417099072E+03  0.00000000000E+00 0.  1.
         21   -1    0    0  501  503 -0.00000000000E+00 -0.00000000000E+00 -0.27488539314E+03  0.27488539314E+03  0.00000000000E+00 0.  1.
          6    1    1    2  501    0 -0.91661756392E+02 -0.53527179556E+01 -0.20630548827E+03  0.28446701683E+03  0.17300000000E+03 0.  1.
         -6    1    1    2    0  502  0.91661756392E+02  0.53527179556E+01  0.29559108585E+03  0.35458936703E+03  0.17300000000E+03 0.  1.
<mgrwt>
<rscale>  2 0.19585589E+03</rscale>
<asrwt>0</asrwt>
<pdfrwt beam="1">  1       21 0.56026306E-01 0.19585589E+03</pdfrwt>
<pdfrwt beam="2">  1       21 0.42290060E-01 0.19585589E+03</pdfrwt>
<totfact> 0.16105528E+04</totfact>
</mgrwt>
</event>
<event>
 4    1  0.4374784E+000  0.1743891E+03  0.7546771E-02  0.1173347E+00
         21   -1    0    0  503  502  0.00000000000E+00  0.00000000000E+00  0.30077805075E+03  0.30077805075E+03  0.00000000000E+00 0.  1.
         21   -1    0    0  501  503 -0.00000000000E+00 -0.00000000000E+00 -0.17615640762E+03  0.17615640762E+03  0.00000000000E+00 0.  1.
          6    1    1    2  501    0  0.17899413594E+02 -0.12734110927E+02 -0.93337919310E+02  0.19779664752E+03  0.17300000000E+03 0.  1.
         -6    1    1    2    0  502 -0.17899413594E+02  0.12734110927E+02  0.21795956244E+03  0.27913781085E+03  0.17300000000E+03 0.  1.
<mgrwt>
<rscale>  2 0.17438907E+03</rscale>
<asrwt>0</asrwt>
<pdfrwt beam="1">  1       21 0.46273546E-01 0.17438907E+03</pdfrwt>
<pdfrwt beam="2">  1       21 0.27100986E-01 0.17438907E+03</pdfrwt>
<totfact> 0.58539855E+04</totfact>
</mgrwt>
</event>
<event>
 4    1  0.4374784E+000  0.2040771E+03  0.7546771E-02  0.1146344E+00
         21   -1    0    0  501  502  0.00000000000E+00  0.00000000000E+00  0.19769787311E+03  0.19769787311E+03  0.00000000000E+00 0.  1.
         21   -1    0    0  502  503 -0.00000000000E+00 -0.00000000000E+00 -0.22989217049E+03  0.22989217049E+03  0.00000000000E+00 0.  1.
          6    1    1    2  501    0  0.10485065950E+03 -0.26922444990E+02 -0.77930706867E+02  0.21845062123E+03  0.17300000000E+03 0.  1.
         -6    1    1    2    0  503 -0.10485065950E+03  0.26922444990E+02  0.45736409484E+02  0.20913942238E+03  0.17300000000E+03 0.  1.
<mgrwt>
<rscale>  2 0.20407714E+03</rscale>
<asrwt>0</asrwt>
<pdfrwt beam="1">  1       21 0.30415058E-01 0.20407714E+03</pdfrwt>
<pdfrwt beam="2">  1       21 0.35368026E-01 0.20407714E+03</pdfrwt>
<totfact> 0.79569594E+04</totfact>
</mgrwt>
</event>
<event>
 4    1  0.4374784E+000  0.1807431E+03  0.7546771E-02  0.1167086E+00
         21   -1    0    0  501  502  0.00000000000E+00  0.00000000000E+00  0.79510081822E+02  0.79510081822E+02  0.00000000000E+00 0.  1.
         21   -1    0    0  502  503 -0.00000000000E+00 -0.00000000000E+00 -0.43080960698E+03  0.43080960698E+03  0.00000000000E+00 0.  1.
          6    1    1    2  501    0 -0.33649274635E+02 -0.40084725960E+02 -0.12075107617E+03  0.21736807800E+03  0.17300000000E+03 0.  1.
         -6    1    1    2    0  503  0.33649274635E+02  0.40084725960E+02 -0.23054844898E+03  0.29295161079E+03  0.17300000000E+03 0.  1.
<mgrwt>
<rscale>  2 0.18074307E+03</rscale>
<asrwt>0</asrwt>
<pdfrwt beam="1">  1       21 0.12232320E-01 0.18074307E+03</pdfrwt>
<pdfrwt beam="2">  1       21 0.66278400E-01 0.18074307E+03</pdfrwt>
<totfact> 0.11895659E+05</totfact>
</mgrwt>
</event>
<event>
 4    1  0.4374784E+000  0.3949107E+03  0.7546771E-02  0.1045556E+00
         21   -1    0    0  503  502  0.00000000000E+00  0.00000000000E+00  0.10178821094E+04  0.10178821094E+04  0.00000000000E+00 0. -1.
         21   -1    0    0  501  503 -0.00000000000E+00 -0.00000000000E+00 -0.15776505767E+03  0.15776505767E+03  0.00000000000E+00 0. -1.
          6    1    1    2  501    0 -0.32392540377E+03  0.14525083613E+03  0.33022745209E+03  0.51478601643E+03  0.17300000000E+03 0. -1.
         -6    1    1    2    0  502  0.32392540377E+03 -0.14525083613E+03  0.52988959961E+03  0.66086115061E+03  0.17300000000E+03 0. -1.
<mgrwt>
<rscale>  2 0.39491071E+03</rscale>
<asrwt>0</asrwt>
<pdfrwt beam="1">  1       21 0.15659724E+00 0.39491071E+03</pdfrwt>
<pdfrwt beam="2">  1       21 0.24271548E-01 0.39491071E+03</pdfrwt>
<totfact> 0.37782190E+03</totfact>
</mgrwt>
</event>
<event>
 4    1  0.4374784E+000  0.1791340E+03  0.7546771E-02  0.1168644E+00
         21   -1    0    0  501  502  0.00000000000E+00  0.00000000000E+00  0.19162964454E+02  0.19162964454E+02  0.00000000000E+00 0. -1.
         21   -1    0    0  502  503 -0.00000000000E+00 -0.00000000000E+00 -0.16875995183E+04  0.16875995183E+04  0.00000000000E+00 0.  1.
          6    1    1    2  501    0  0.41609621658E+02  0.20703418812E+02 -0.90931298160E+03  0.92678966906E+03  0.17300000000E+03 0.  1.
         -6    1    1    2    0  503 -0.41609621658E+02 -0.20703418812E+02 -0.75912357220E+03  0.77997281365E+03  0.17300000000E+03 0. -1.
<mgrwt>
<rscale>  2 0.17913401E+03</rscale>
<asrwt>0</asrwt>
<pdfrwt beam="1">  1       21 0.29481474E-02 0.17913401E+03</pdfrwt>
<pdfrwt beam="2">  1       21 0.25963078E+00 0.17913401E+03</pdfrwt>
<totfact> 0.38468439E+04</totfact>
</mgrwt>
</event>
<event>
 4    1  0.4374784E+000  0.1847741E+03  0.7546771E-02  0.1163261E+00
         21   -1    0    0  501  502  0.00000000000E+00  0.00000000000E+00  0.92812937624E+02  0.92812937624E+02  0.00000000000E+00 0.  1.
         21   -1    0    0  502  503 -0.00000000000E+00 -0.00000000000E+00 -0.36790422641E+03  0.36790422641E+03  0.00000000000E+00 0.  1.
          6    1    1    2  501    0 -0.40020817692E+02 -0.51095984603E+02 -0.13481258934E+03  0.22872669222E+03  0.17300000000E+03 0. -1.
         -6    1    1    2    0  503  0.40020817692E+02  0.51095984603E+02 -0.14027869944E+03  0.23199047181E+03  0.17300000000E+03 0. -1.
<mgrwt>
<rscale>  2 0.18477409E+03</rscale>
<asrwt>0</asrwt>
<pdfrwt beam="1">  1       21 0.14278913E-01 0.18477409E+03</pdfrwt>
<pdfrwt beam="2">  1       21 0.56600651E-01 0.18477409E+03</pdfrwt>
<totfact> 0.12627036E+05</totfact>
</mgrwt>
</event>
<event>
 4    1  0.4374784E+000  0.1848739E+03  0.7546771E-02  0.1163168E+00
         21   -1    0    0  501  502  0.00000000000E+00  0.00000000000E+00  0.52285407296E+03  0.52285407296E+03  0.00000000000E+00 0.  1.
         21   -1    0    0  502  503 -0.00000000000E+00 -0.00000000000E+00 -0.73991507224E+02  0.73991507224E+02  0.00000000000E+00 0.  1.
          6    1    1    2  501    0  0.22387652822E+02  0.61222038744E+02  0.32630514890E+03  0.37503785839E+03  0.17300000000E+03 0. -1.
         -6    1    1    2    0  503 -0.22387652822E+02 -0.61222038744E+02  0.12255741684E+03  0.22180772180E+03  0.17300000000E+03 0. -1.
<mgrwt>
<rscale>  2 0.18487386E+03</rscale>
<asrwt>0</asrwt>
<pdfrwt beam="1">  1       21 0.80439086E-01 0.18487386E+03</pdfrwt>
<pdfrwt beam="2">  1       21 0.11383309E-01 0.18487386E+03</pdfrwt>
<totfact> 0.87869931E+04</totfact>
</mgrwt>
</event>
<event>
 4    1  0.4374784E+000  0.1740164E+03  0.7546771E-02  0.1173723E+00
         21   -1    0    0  503  502  0.00000000000E+00  0.00000000000E+00  0.10567814235E+04  0.10567814235E+04  0.00000000000E+00 0. -1.
         21   -1    0    0  501  503 -0.00000000000E+00 -0.00000000000E+00 -0.28938059113E+02  0.28938059113E+02  0.00000000000E+00 0. -1.
          6    1    1    2  501    0  0.10830074565E+02  0.15343219335E+02  0.46019900960E+03  0.49200084688E+03  0.17300000000E+03 0. -1.
         -6    1    1    2    0  502 -0.10830074565E+02 -0.15343219335E+02  0.56764435479E+03  0.59371863574E+03  0.17300000000E+03 0. -1.
<mgrwt>
<rscale>  2 0.17401639E+03</rscale>
<asrwt>0</asrwt>
<pdfrwt beam="1">  1       21 0.16258173E+00 0.17401639E+03</pdfrwt>
<pdfrwt beam="2">  1       21 0.44520099E-02 0.17401639E+03</pdfrwt>
<totfact> 0.79680150E+04</totfact>
</mgrwt>
</event>
<event>
 4    1  0.4374784E+000  0.1738742E+03  0.7546771E-02  0.1173867E+00
         21   -1    0    0  501  502  0.00000000000E+00  0.00000000000E+00  0.21987759309E+03  0.21987759309E+03  0.00000000000E+00 0. -1.
         21   -1    0    0  502  503 -0.00000000000E+00 -0.00000000000E+00 -0.35601670730E+03  0.35601670730E+03  0.00000000000E+00 0. -1.
          6    1    1    2  501    0  0.17403898980E+02  0.58046458182E+00  0.15752268002E+03  0.23461804568E+03  0.17300000000E+03 0. -1.
         -6    1    1    2    0  503 -0.17403898980E+02 -0.58046458182E+00 -0.29366179423E+03  0.34127625471E+03  0.17300000000E+03 0. -1.
<mgrwt>
<rscale>  2 0.17387419E+03</rscale>
<asrwt>0</asrwt>
<pdfrwt beam="1">  1       21 0.33827322E-01 0.17387419E+03</pdfrwt>
<pdfrwt beam="2">  1       21 0.54771800E-01 0.17387419E+03</pdfrwt>
<totfact> 0.26774493E+04</totfact>
</mgrwt>
</event>
<event>
 4    1  0.4374784E+000  0.1802235E+03  0.7546771E-02  0.1167587E+00
         21   -1    0    0  501  502  0.00000000000E+00  0.00000000000E+00  0.46883522012E+03  0.46883522012E+03  0.00000000000E+00 0.  1.
         21   -1    0    0  502  503 -0.00000000000E+00 -0.00000000000E+00 -0.26086548431E+03  0.26086548431E+03  0.00000000000E+00 0.  1.
          6    1    1    2  501    0  0.39747360110E+02 -0.31171420697E+02  0.41665666702E+03  0.45396397245E+03  0.17300000000E+03 0.  1.
         -6    1    1    2    0  503 -0.39747360110E+02  0.31171420697E+02 -0.20868693122E+03  0.27573673199E+03  0.17300000000E+03 0.  1.
<mgrwt>
<rscale>  2 0.18022350E+03</rscale>
<asrwt>0</asrwt>
<pdfrwt beam="1">  1       21 0.72128495E-01 0.18022350E+03</pdfrwt>
<pdfrwt beam="2">  1       21 0.40133151E-01 0.18022350E+03</pdfrwt>
<totfact> 0.10465292E+04</totfact>
</mgrwt>
</event>
<event>
 4    1  0.4374784E+000  0.1840187E+03  0.7546771E-02  0.1163969E+00
         21   -1    0    0  503  502  0.00000000000E+00  0.00000000000E+00  0.73268910162E+02  0.73268910162E+02  0.00000000000E+00 0.  1.
         21   -1    0    0  501  503 -0.00000000000E+00 -0.00000000000E+00 -0.46325727012E+03  0.46325727012E+03  0.00000000000E+00 0. -1.
          6    1    1    2  501    0  0.58973107959E+01 -0.62442766724E+02 -0.18201302996E+03  0.25882739512E+03  0.17300000000E+03 0.  1.
         -6    1    1    2    0  502 -0.58973107959E+01  0.62442766724E+02 -0.20797532999E+03  0.27769878515E+03  0.17300000000E+03 0.  1.
<mgrwt>
<rscale>  2 0.18401869E+03</rscale>
<asrwt>0</asrwt>
<pdfrwt beam="1">  1       21 0.11272140E-01 0.18401869E+03</pdfrwt>
<pdfrwt beam="2">  1       21 0.71270348E-01 0.18401869E+03</pdfrwt>
<totfact> 0.11721767E+05</totfact>
</mgrwt>
</event>
<event>
 4    1  0.4374784E+000  0.1988622E+03  0.7546771E-02  0.1150703E+00
         21   -1    0    0  501  502  0.00000000000E+00  0.00000000000E+00  0.83487759414E+03  0.83487759414E+03  0.00000000000E+00 0.  1.
         21   -1    0    0  502  503 -0.00000000000E+00 -0.00000000000E+00 -0.88289445825E+02  0.88289445825E+02  0.00000000000E+00 0.  1.
          6    1    1    2  501    0 -0.85341498633E+02  0.48311495532E+02  0.68754267576E+03  0.71572418080E+03  0.17300000000E+03 0.  1.
         -6    1    1    2    0  503  0.85341498633E+02 -0.48311495532E+02  0.59045472556E+02  0.20744285917E+03  0.17300000000E+03 0.  1.
<mgrwt>
<rscale>  2 0.19886219E+03</rscale>
<asrwt>0</asrwt>
<pdfrwt beam="1">  1       21 0.12844270E+00 0.19886219E+03</pdfrwt>
<pdfrwt beam="2">  1       21 0.13582992E-01 0.19886219E+03</pdfrwt>
<totfact> 0.20842754E+04</totfact>
</mgrwt>
</event>
<event>
 4    1  0.4374784E+000  0.2555261E+03  0.7546771E-02  0.1109861E+00
         21   -1    0    0  501  502  0.00000000000E+00  0.00000000000E+00  0.38984965204E+03  0.38984965204E+03  0.00000000000E+00 0. -1.
         21   -1    0    0  502  503 -0.00000000000E+00 -0.00000000000E+00 -0.17184641477E+03  0.17184641477E+03  0.00000000000E+00 0. -1.
          6    1    1    2  501    0 -0.36207151401E+02  0.18453629371E+03  0.15374839655E+03  0.29821497439E+03  0.17300000000E+03 0. -1.
         -6    1    1    2    0  503  0.36207151401E+02 -0.18453629371E+03  0.64254840717E+02  0.26348109243E+03  0.17300000000E+03 0. -1.
<mgrwt>
<rscale>  2 0.25552613E+03</rscale>
<asrwt>0</asrwt>
<pdfrwt beam="1">  1       21 0.59976869E-01 0.25552613E+03</pdfrwt>
<pdfrwt beam="2">  1       21 0.26437910E-01 0.25552613E+03</pdfrwt>
<totfact> 0.34238082E+04</totfact>
</mgrwt>
</event>
<event>
 4    1  0.4374784E+000  0.1741515E+03  0.7546771E-02  0.1173586E+00
         21   -1    0    0  503  502  0.00000000000E+00  0.00000000000E+00  0.10059584839E+03  0.10059584839E+03  0.00000000000E+00 0. -1.
         21   -1    0    0  501  503 -0.00000000000E+00 -0.00000000000E+00 -0.41980669285E+03  0.41980669285E+03  0.00000000000E+00 0. -1.
          6    1    1    2  501    0  0.27219198261E+01 -0.19807671883E+02 -0.29774105805E+03  0.34493258814E+03  0.17300000000E+03 0. -1.
         -6    1    1    2    0  502 -0.27219198261E+01  0.19807671883E+02 -0.21469786413E+02  0.17546995310E+03  0.17300000000E+03 0. -1.
<mgrwt>
<rscale>  2 0.17415152E+03</rscale>
<asrwt>0</asrwt>
<pdfrwt beam="1">  1       21 0.15476284E-01 0.17415152E+03</pdfrwt>
<pdfrwt beam="2">  1       21 0.64585646E-01 0.17415152E+03</pdfrwt>
<totfact> 0.82524142E+04</totfact>
</mgrwt>
</event>
<event>
 4    1  0.4374784E+000  0.1836897E+03  0.7546771E-02  0.1164279E+00
         21   -1    0    0  503  502  0.00000000000E+00  0.00000000000E+00  0.14174131395E+04  0.14174131395E+04  0.00000000000E+00 0. -1.
         21   -1    0    0  501  503 -0.00000000000E+00 -0.00000000000E+00 -0.82260818101E+02  0.82260818101E+02  0.00000000000E+00 0. -1.
          6    1    1    2  501    0  0.21235105666E+02 -0.57982701269E+02  0.35479995146E+02  0.18708488291E+03  0.17300000000E+03 0. -1.
         -6    1    1    2    0  502 -0.21235105666E+02  0.57982701269E+02  0.12996723263E+04  0.13125890747E+04  0.17300000000E+03 0. -1.
<mgrwt>
<rscale>  2 0.18368975E+03</rscale>
<asrwt>0</asrwt>
<pdfrwt beam="1">  1       21 0.21806354E+00 0.18368975E+03</pdfrwt>
<pdfrwt beam="2">  1       21 0.12655512E-01 0.18368975E+03</pdfrwt>
<totfact> 0.55637150E+03</totfact>
</mgrwt>
</event>
<event>
 4    1  0.4374784E+000  0.2129103E+03  0.7546771E-02  0.1139282E+00
         21   -1    0    0  501  502  0.00000000000E+00  0.00000000000E+00  0.20495727658E+03  0.20495727658E+03  0.00000000000E+00 0.  1.
         21   -1    0    0  502  503 -0.00000000000E+00 -0.00000000000E+00 -0.22397621337E+03  0.22397621337E+03  0.00000000000E+00 0.  1.
          6    1    1    2  501    0 -0.10536062382E+02 -0.12365584654E+03  0.14488656100E+02  0.21340266669E+03  0.17300000000E+03 0.  1.
         -6    1    1    2    0  503  0.10536062382E+02  0.12365584654E+03 -0.33507592890E+02  0.21553082326E+03  0.17300000000E+03 0.  1.
<mgrwt>
<rscale>  2 0.21291026E+03</rscale>
<asrwt>0</asrwt>
<pdfrwt beam="1">  1       21 0.31531888E-01 0.21291026E+03</pdfrwt>
<pdfrwt beam="2">  1       21 0.34457879E-01 0.21291026E+03</pdfrwt>
<totfact> 0.77795712E+04</totfact>
</mgrwt>
</event>
<event>
 4    1  0.4374784E+000  0.1940698E+03  0.7546771E-02  0.1154841E+00
         21   -1    0    0  503  502  0.00000000000E+00  0.00000000000E+00  0.59277642074E+03  0.59277642074E+03  0.00000000000E+00 0.  1.
         21   -1    0    0  501  503 -0.00000000000E+00 -0.00000000000E+00 -0.17406123054E+03  0.17406123054E+03  0.00000000000E+00 0.  1.
          6    1    1    2  501    0 -0.12771553367E+02 -0.87011374625E+02 -0.96170838684E+02  0.21659160211E+03  0.17300000000E+03 0.  1.
         -6    1    1    2    0  502  0.12771553367E+02  0.87011374625E+02  0.51488602888E+03  0.55024604917E+03  0.17300000000E+03 0.  1.
<mgrwt>
<rscale>  2 0.19406981E+03</rscale>
<asrwt>0</asrwt>
<pdfrwt beam="1">  1       21 0.91196372E-01 0.19406981E+03</pdfrwt>
<pdfrwt beam="2">  1       21 0.26778651E-01 0.19406981E+03</pdfrwt>
<totfact> 0.13517053E+04</totfact>
</mgrwt>
</event>
<event>
 4    1  0.4374784E+000  0.2093977E+03  0.7546771E-02  0.1142044E+00
         21   -1    0    0  503  502  0.00000000000E+00  0.00000000000E+00  0.76305575756E+03  0.76305575756E+03  0.00000000000E+00 0.  1.
         21   -1    0    0  501  503 -0.00000000000E+00 -0.00000000000E+00 -0.65482924944E+02  0.65482924944E+02  0.00000000000E+00 0.  1.
          6    1    1    2  501    0 -0.17966502271E+01  0.11796249140E+03  0.49376615256E+03  0.53633235101E+03  0.17300000000E+03 0.  1.
         -6    1    1    2    0  502  0.17966502271E+01 -0.11796249140E+03  0.20380668005E+03  0.29220633149E+03  0.17300000000E+03 0.  1.
<mgrwt>
<rscale>  2 0.20939765E+03</rscale>
<asrwt>0</asrwt>
<pdfrwt beam="1">  1       21 0.11739319E+00 0.20939765E+03</pdfrwt>
<pdfrwt beam="2">  1       21 0.10074297E-01 0.20939765E+03</pdfrwt>
<totfact> 0.44249772E+04</totfact>
</mgrwt>
</event>
<event>
 4    1  0.4374784E+000  0.1973621E+03  0.7546771E-02  0.1151984E+00
         21   -1    0    0  503  502  0.00000000000E+00  0.00000000000E+00  0.13389672382E+04  0.13389672382E+04  0.00000000000E+00 0.  1.
         21   -1    0    0  501  503 -0.00000000000E+00 -0.00000000000E+00 -0.72854423301E+02  0.72854423301E+02  0.00000000000E+00 0.  1.
          6    1    1    2  501    0 -0.21084421055E+02  0.92618808681E+02  0.85942323735E+02  0.21526235050E+03  0.17300000000E+03 0.  1.
         -6    1    1    2    0  502  0.21084421055E+02 -0.92618808681E+02  0.11801704911E+04  0.11965593110E+04  0.17300000000E+03 0.  1.
<mgrwt>
<rscale>  2 0.19736209E+03</rscale>
<asrwt>0</asrwt>
<pdfrwt beam="1">  1       21 0.20599494E+00 0.19736209E+03</pdfrwt>
<pdfrwt beam="2">  1       21 0.11208374E-01 0.19736209E+03</pdfrwt>
<totfact> 0.81171148E+03</totfact>
</mgrwt>
</event>
<event>
 4    1  0.4374784E+000  0.1851643E+03  0.7546771E-02  0.1162897E+00
         21   -1    0    0  503  502  0.00000000000E+00  0.00000000000E+00  0.89530313940E+02  0.89530313940E+02  0.00000000000E+00 0. -1.
         21   -1    0    0  501  503 -0.00000000000E+00 -0.00000000000E+00 -0.38670863537E+03  0.38670863537E+03  0.00000000000E+00 0. -1.
          6    1    1    2  501    0 -0.29116226980E+00  0.66005471784E+02 -0.17205878755E+03  0.25276477890E+03  0.17300000000E+03 0. -1.
         -6    1    1    2    0  502  0.29116226980E+00 -0.66005471784E+02 -0.12511953388E+03  0.22347417041E+03  0.17300000000E+03 0. -1.
<mgrwt>
<rscale>  2 0.18516427E+03</rscale>
<asrwt>0</asrwt>
<pdfrwt beam="1">  1       21 0.13773894E-01 0.18516427E+03</pdfrwt>
<pdfrwt beam="2">  1       21 0.59493637E-01 0.18516427E+03</pdfrwt>
<totfact> 0.12116146E+05</totfact>
</mgrwt>
</event>
<event>
 4    1  0.4374784E+000  0.1826103E+03  0.7546771E-02  0.1165300E+00
         21   -1    0    0  503  502  0.00000000000E+00  0.00000000000E+00  0.17798384703E+03  0.17798384703E+03  0.00000000000E+00 0. -1.
         21   -1    0    0  501  503 -0.00000000000E+00 -0.00000000000E+00 -0.21641562638E+03  0.21641562638E+03  0.00000000000E+00 0. -1.
          6    1    1    2  501    0 -0.56114209655E+02 -0.16392848861E+02  0.53044304953E+02  0.19015842949E+03  0.17300000000E+03 0. -1.
         -6    1    1    2    0  502  0.56114209655E+02  0.16392848861E+02 -0.91476084305E+02  0.20424104391E+03  0.17300000000E+03 0. -1.
<mgrwt>
<rscale>  2 0.18261032E+03</rscale>
<asrwt>0</asrwt>
<pdfrwt beam="1">  1       21 0.27382131E-01 0.18261032E+03</pdfrwt>
<pdfrwt beam="2">  1       21 0.33294711E-01 0.18261032E+03</pdfrwt>
<totfact> 0.11089925E+05</totfact>
</mgrwt>
</event>
<event>
 4    1  0.4374784E+000  0.1765489E+03  0.7546771E-02  0.1171185E+00
         21   -1    0    0  501  502  0.00000000000E+00  0.00000000000E+00  0.38921405290E+03  0.38921405290E+03  0.00000000000E+00 0.  1.
         21   -1    0    0  502  503 -0.00000000000E+00 -0.00000000000E+00 -0.81895345895E+02  0.81895345895E+02  0.00000000000E+00 0. -1.
          6    1    1    2  501    0  0.33991000550E+02 -0.92262836718E+01  0.18869878260E+03  0.25841196370E+03  0.17300000000E+03 0.  1.
         -6    1    1    2    0  503 -0.33991000550E+02  0.92262836718E+01  0.11861992440E+03  0.21269743509E+03  0.17300000000E+03 0. -1.
<mgrwt>
<rscale>  2 0.17654890E+03</rscale>
<asrwt>0</asrwt>
<pdfrwt beam="1">  1       21 0.59879084E-01 0.17654890E+03</pdfrwt>
<pdfrwt beam="2">  1       21 0.12599284E-01 0.17654890E+03</pdfrwt>
<totfact> 0.14071339E+05</totfact>
</mgrwt>
</event>
<event>
 4    1  0.4374784E+000  0.1776640E+03  0.7546771E-02  0.1170083E+00
         21   -1    0    0  501  502  0.00000000000E+00  0.00000000000E+00  0.62950559871E+03  0.62950559871E+03  0.00000000000E+00 0. -1.
         21   -1    0    0  502  503 -0.00000000000E+00 -0.00000000000E+00 -0.29013041495E+03  0.29013041495E+03  0.00000000000E+00 0. -1.
          6    1    1    2  501    0  0.40432349402E+02  0.85430383509E+00  0.58788825861E+03  0.61414746546E+03  0.17300000000E+03 0. -1.
         -6    1    1    2    0  503 -0.40432349402E+02 -0.85430383509E+00 -0.24851307485E+03  0.30548854820E+03  0.17300000000E+03 0. -1.
<mgrwt>
<rscale>  2 0.17766402E+03</rscale>
<asrwt>0</asrwt>
<pdfrwt beam="1">  1       21 0.96847015E-01 0.17766402E+03</pdfrwt>
<pdfrwt beam="2">  1       21 0.44635449E-01 0.17766402E+03</pdfrwt>
<totfact> 0.43197131E+03</totfact>
</mgrwt>
</event>
<event>
 4    1  0.4374784E+000  0.2127715E+03  0.7546771E-02  0.1139390E+00
         21   -1    0    0  501  502  0.00000000000E+00  0.00000000000E+00  0.47875964299E+03  0.47875964299E+03  0.00000000000E+00 0. -1.
         21   -1    0    0  502  503 -0.00000000000E+00 -0.00000000000E+00 -0.11436828228E+03  0.11436828228E+03  0.00000000000E+00 0.  1.
          6    1    1    2  501    0  0.80426076401E+02  0.94203716126E+02  0.30561547410E+03  0.37238758291E+03  0.17300000000E+03 0. -1.
         -6    1    1    2    0  503 -0.80426076401E+02 -0.94203716126E+02  0.58775886614E+02  0.22074034236E+03  0.17300000000E+03 0.  1.
<mgrwt>
<rscale>  2 0.21277146E+03</rscale>
<asrwt>0</asrwt>
<pdfrwt beam="1">  1       21 0.73655329E-01 0.21277146E+03</pdfrwt>
<pdfrwt beam="2">  1       21 0.17595121E-01 0.21277146E+03</pdfrwt>
<totfact> 0.47990309E+04</totfact>
</mgrwt>
</event>
<event>
 4    1  0.4374784E+000  0.1839757E+03  0.7546771E-02  0.1164010E+00
         21   -1    0    0  501  502  0.00000000000E+00  0.00000000000E+00  0.48655872037E+03  0.48655872037E+03  0.00000000000E+00 0. -1.
         21   -1    0    0  502  503 -0.00000000000E+00 -0.00000000000E+00 -0.83303162097E+02  0.83303162097E+02  0.00000000000E+00 0. -1.
          6    1    1    2  501    0  0.34705033015E+02 -0.52092387705E+02  0.31734186278E+03  0.36681454993E+03  0.17300000000E+03 0. -1.
         -6    1    1    2    0  503 -0.34705033015E+02  0.52092387705E+02  0.85913695493E+02  0.20304733253E+03  0.17300000000E+03 0. -1.
<mgrwt>
<rscale>  2 0.18397569E+03</rscale>
<asrwt>0</asrwt>
<pdfrwt beam="1">  1       21 0.74855186E-01 0.18397569E+03</pdfrwt>
<pdfrwt beam="2">  1       21 0.12815871E-01 0.18397569E+03</pdfrwt>
<totfact> 0.83575013E+04</totfact>
</mgrwt>
</event>
<event>
 4    1  0.4374784E+000  0.1938855E+03  0.7546771E-02  0.1155003E+00
         21   -1    0    0  501  502  0.00000000000E+00  0.00000000000E+00  0.88256407076E+02  0.88256407076E+02  0.00000000000E+00 0.  1.
         21   -1    0    0  502  503 -0.00000000000E+00 -0.00000000000E+00 -0.86777857041E+03  0.86777857041E+03  0.00000000000E+00 0.  1.
          6    1    1    2  501    0 -0.69769339471E+00  0.87533358660E+02 -0.48667825005E+02  0.19990030727E+03  0.17300000000E+03 0.  1.
         -6    1    1    2    0  503  0.69769339471E+00 -0.87533358660E+02 -0.73085433833E+03  0.75613467022E+03  0.17300000000E+03 0.  1.
<mgrwt>
<rscale>  2 0.19388547E+03</rscale>
<asrwt>0</asrwt>
<pdfrwt beam="1">  1       21 0.13577908E-01 0.19388547E+03</pdfrwt>
<pdfrwt beam="2">  1       21 0.13350440E+00 0.19388547E+03</pdfrwt>
<totfact> 0.18977123E+04</totfact>
</mgrwt>
</event>
<event>
 4    1  0.4374784E+000  0.2268579E+03  0.7546771E-02  0.1128871E+00
         21   -1    0    0  501  502  0.00000000000E+00  0.00000000000E+00  0.57976959897E+03  0.57976959897E+03  0.00000000000E+00 0.  1.
         21   -1    0    0  502  503 -0.00000000000E+00 -0.00000000000E+00 -0.16827504307E+03  0.16827504307E+03  0.00000000000E+00 0. -1.
          6    1    1    2  501    0 -0.14554864334E+03 -0.18737263214E+02  0.46284178586E+03  0.51544835953E+03  0.17300000000E+03 0.  1.
         -6    1    1    2    0  503  0.14554864334E+03  0.18737263214E+02 -0.51347229962E+02  0.23259628251E+03  0.17300000000E+03 0. -1.
<mgrwt>
<rscale>  2 0.22685787E+03</rscale>
<asrwt>0</asrwt>
<pdfrwt beam="1">  1       21 0.89195322E-01 0.22685787E+03</pdfrwt>
<pdfrwt beam="2">  1       21 0.25888469E-01 0.22685787E+03</pdfrwt>
<totfact> 0.14877967E+04</totfact>
</mgrwt>
</event>
<event>
 4    1  0.4374784E+000  0.2106701E+03  0.7546771E-02  0.1141036E+00
         21   -1    0    0  501  502  0.00000000000E+00  0.00000000000E+00  0.88346144252E+02  0.88346144252E+02  0.00000000000E+00 0. -1.
         21   -1    0    0  502  503 -0.00000000000E+00 -0.00000000000E+00 -0.56015895518E+03  0.56015895518E+03  0.00000000000E+00 0. -1.
          6    1    1    2  501    0 -0.11292579791E+03  0.41239251235E+02 -0.13175307054E+03  0.24847692704E+03  0.17300000000E+03 0. -1.
         -6    1    1    2    0  503  0.11292579791E+03 -0.41239251235E+02 -0.34005974038E+03  0.40002817239E+03  0.17300000000E+03 0. -1.
<mgrwt>
<rscale>  2 0.21067015E+03</rscale>
<asrwt>0</asrwt>
<pdfrwt beam="1">  1       21 0.13591714E-01 0.21067015E+03</pdfrwt>
<pdfrwt beam="2">  1       21 0.86178303E-01 0.21067015E+03</pdfrwt>
<totfact> 0.53986763E+04</totfact>
</mgrwt>
</event>
<event>
 4    1  0.4374784E+000  0.1818931E+03  0.7546771E-02  0.1165983E+00
         21   -1    0    0  503  502  0.00000000000E+00  0.00000000000E+00  0.77574894852E+02  0.77574894852E+02  0.00000000000E+00 0. -1.
         21   -1    0    0  501  503 -0.00000000000E+00 -0.00000000000E+00 -0.50587092679E+03  0.50587092679E+03  0.00000000000E+00 0. -1.
          6    1    1    2  501    0 -0.36962269879E+02 -0.42307020109E+02 -0.32970668703E+03  0.37655224448E+03  0.17300000000E+03 0. -1.
         -6    1    1    2    0  502  0.36962269879E+02  0.42307020109E+02 -0.98589344909E+02  0.20689357717E+03  0.17300000000E+03 0. -1.
<mgrwt>
<rscale>  2 0.18189308E+03</rscale>
<asrwt>0</asrwt>
<pdfrwt beam="1">  1       21 0.11934599E-01 0.18189308E+03</pdfrwt>
<pdfrwt beam="2">  1       21 0.77826299E-01 0.18189308E+03</pdfrwt>
<totfact> 0.87105563E+04</totfact>
</mgrwt>
</event>
<event>
 4    1  0.4374784E+000  0.1863442E+03  0.7546771E-02  0.1161801E+00
         21   -1    0    0  501  502  0.00000000000E+00  0.00000000000E+00  0.63934027481E+03  0.63934027481E+03  0.00000000000E+00 0.  1.
         21   -1    0    0  502  503 -0.00000000000E+00 -0.00000000000E+00 -0.38015944468E+03  0.38015944468E+03  0.00000000000E+00 0.  1.
          6    1    1    2  501    0  0.59615477019E+02  0.35230098594E+02  0.60152418292E+03  0.62972653397E+03  0.17300000000E+03 0.  1.
         -6    1    1    2    0  503 -0.59615477019E+02 -0.35230098594E+02 -0.34234335279E+03  0.38977318552E+03  0.17300000000E+03 0.  1.
<mgrwt>
<rscale>  2 0.18634421E+03</rscale>
<asrwt>0</asrwt>
<pdfrwt beam="1">  1       21 0.98360042E-01 0.18634421E+03</pdfrwt>
<pdfrwt beam="2">  1       21 0.58486069E-01 0.18634421E+03</pdfrwt>
<totfact> 0.23499097E+03</totfact>
</mgrwt>
</event>
<event>
 4    1  0.4374784E+000  0.1884785E+03  0.7546771E-02  0.1159841E+00
         21   -1    0    0  503  502  0.00000000000E+00  0.00000000000E+00  0.60367792340E+03  0.60367792340E+03  0.00000000000E+00 0.  1.
         21   -1    0    0  501  503 -0.00000000000E+00 -0.00000000000E+00 -0.61663132288E+02  0.61663132288E+02  0.00000000000E+00 0.  1.
          6    1    1    2  501    0  0.66675910257E+02  0.33903546236E+02  0.19990358908E+03  0.27474637829E+03  0.17300000000E+03 0. -1.
         -6    1    1    2    0  502 -0.66675910257E+02 -0.33903546236E+02  0.34211120203E+03  0.39059467740E+03  0.17300000000E+03 0. -1.
<mgrwt>
<rscale>  2 0.18847845E+03</rscale>
<asrwt>0</asrwt>
<pdfrwt beam="1">  1       21 0.92873522E-01 0.18847845E+03</pdfrwt>
<pdfrwt beam="2">  1       21 0.94866362E-02 0.18847845E+03</pdfrwt>
<totfact> 0.87121611E+04</totfact>
</mgrwt>
</event>
<event>
 4    1  0.4374784E+000  0.1807744E+03  0.7546771E-02  0.1167056E+00
         21   -1    0    0  501  502  0.00000000000E+00  0.00000000000E+00  0.12356236734E+04  0.12356236734E+04  0.00000000000E+00 0. -1.
         21   -1    0    0  502  503 -0.00000000000E+00 -0.00000000000E+00 -0.27189423819E+02  0.27189423819E+02  0.00000000000E+00 0. -1.
          6    1    1    2  501    0  0.50406333680E+02  0.14477108398E+02  0.70850521489E+03  0.73120381882E+03  0.17300000000E+03 0.  1.
         -6    1    1    2    0  503 -0.50406333680E+02 -0.14477108398E+02  0.49992903469E+03  0.53160927838E+03  0.17300000000E+03 0.  1.
<mgrwt>
<rscale>  2 0.18077440E+03</rscale>
<asrwt>0</asrwt>
<pdfrwt beam="1">  1       21 0.19009591E+00 0.18077440E+03</pdfrwt>
<pdfrwt beam="2">  1       21 0.41829892E-02 0.18077440E+03</pdfrwt>
<totfact> 0.57034049E+04</totfact>
</mgrwt>
</event>
<event>
 4    1  0.4374784E+000  0.2481583E+03  0.7546771E-02  0.1114474E+00
         21   -1    0    0  501  502  0.00000000000E+00  0.00000000000E+00  0.33967290385E+03  0.33967290385E+03  0.00000000000E+00 0.  1.
         21   -1    0    0  502  503 -0.00000000000E+00 -0.00000000000E+00 -0.19030283270E+03  0.19030283270E+03  0.00000000000E+00 0. -1.
          6    1    1    2  501    0 -0.14093446303E+02 -0.17735537478E+03  0.17047801897E+02  0.24874320441E+03  0.17300000000E+03 0.  1.
         -6    1    1    2    0  503  0.14093446303E+02  0.17735537478E+03  0.13232226926E+03  0.28123253214E+03  0.17300000000E+03 0. -1.
<mgrwt>
<rscale>  2 0.24815832E+03</rscale>
<asrwt>0</asrwt>
<pdfrwt beam="1">  1       21 0.52257370E-01 0.24815832E+03</pdfrwt>
<pdfrwt beam="2">  1       21 0.29277359E-01 0.24815832E+03</pdfrwt>
<totfact> 0.37805618E+04</totfact>
</mgrwt>
</event>
<event>
 4    1  0.4374784E+000  0.2167053E+03  0.7546771E-02  0.1136363E+00
         21   -1    0    0  501  502  0.00000000000E+00  0.00000000000E+00  0.20888847865E+03  0.20888847865E+03  0.00000000000E+00 0.  1.
         21   -1    0    0  502  503 -0.00000000000E+00 -0.00000000000E+00 -0.42402424718E+03  0.42402424718E+03  0.00000000000E+00 0. -1.
          6    1    1    2  501    0 -0.11864988363E+03 -0.54354341859E+02  0.10933914161E+03  0.24272667190E+03  0.17300000000E+03 0.  1.
         -6    1    1    2    0  503  0.11864988363E+03  0.54354341859E+02 -0.32447491015E+03  0.39018605393E+03  0.17300000000E+03 0. -1.
<mgrwt>
<rscale>  2 0.21670531E+03</rscale>
<asrwt>0</asrwt>
<pdfrwt beam="1">  1       21 0.32136689E-01 0.21670531E+03</pdfrwt>
<pdfrwt beam="2">  1       21 0.65234499E-01 0.21670531E+03</pdfrwt>
<totfact> 0.19857422E+04</totfact>
</mgrwt>
</event>
<event>
 4    1  0.4374784E+000  0.2850218E+03  0.7546771E-02  0.1092977E+00
         21   -1    0    0  501  502  0.00000000000E+00  0.00000000000E+00  0.13625717879E+04  0.13625717879E+04  0.00000000000E+00 0.  1.
         21   -1    0    0  502  503 -0.00000000000E+00 -0.00000000000E+00 -0.97948358919E+02  0.97948358919E+02  0.00000000000E+00 0.  1.
          6    1    1    2  501    0 -0.84687911937E+02 -0.21008661146E+03  0.10891214576E+04  0.11257988169E+04  0.17300000000E+03 0.  1.
         -6    1    1    2    0  503  0.84687911937E+02  0.21008661146E+03  0.17550197138E+03  0.33472132992E+03  0.17300000000E+03 0.  1.
<mgrwt>
<rscale>  2 0.28502180E+03</rscale>
<asrwt>0</asrwt>
<pdfrwt beam="1">  1       21 0.20962641E+00 0.28502180E+03</pdfrwt>
<pdfrwt beam="2">  1       21 0.15068979E-01 0.28502180E+03</pdfrwt>
<totfact> 0.42143890E+03</totfact>
</mgrwt>
</event>
<event>
 4    1  0.4374784E+000  0.2159632E+03  0.7546771E-02  0.1136929E+00
         21   -1    0    0  501  502  0.00000000000E+00  0.00000000000E+00  0.23328323014E+03  0.23328323014E+03  0.00000000000E+00 0.  1.
         21   -1    0    0  502  503 -0.00000000000E+00 -0.00000000000E+00 -0.25752467717E+03  0.25752467717E+03  0.00000000000E+00 0. -1.
          6    1    1    2  501    0  0.12448995980E+03  0.34833378940E+02  0.10393500056E+03  0.23967185634E+03  0.17300000000E+03 0.  1.
         -6    1    1    2    0  503 -0.12448995980E+03 -0.34833378940E+02 -0.12817644760E+03  0.25113605097E+03  0.17300000000E+03 0. -1.
<mgrwt>
<rscale>  2 0.21596322E+03</rscale>
<asrwt>0</asrwt>
<pdfrwt beam="1">  1       21 0.35889728E-01 0.21596322E+03</pdfrwt>
<pdfrwt beam="2">  1       21 0.39619181E-01 0.21596322E+03</pdfrwt>
<totfact> 0.45453275E+04</totfact>
</mgrwt>
</event>
<event>
 4    1  0.4374784E+000  0.2231185E+03  0.7546771E-02  0.1131579E+00
         21   -1    0    0  501  502  0.00000000000E+00  0.00000000000E+00  0.24108229806E+03  0.24108229806E+03  0.00000000000E+00 0.  1.
         21   -1    0    0  502  503 -0.00000000000E+00 -0.00000000000E+00 -0.24289359669E+03  0.24289359669E+03  0.00000000000E+00 0. -1.
          6    1    1    2  501    0  0.13586279353E+03 -0.37338290372E+02  0.92772644844E+02  0.24163735271E+03  0.17300000000E+03 0. -1.
         -6    1    1    2    0  503 -0.13586279353E+03  0.37338290372E+02 -0.94583943477E+02  0.24233854204E+03  0.17300000000E+03 0. -1.
<mgrwt>
<rscale>  2 0.22311846E+03</rscale>
<asrwt>0</asrwt>
<pdfrwt beam="1">  1       21 0.37089584E-01 0.22311846E+03</pdfrwt>
<pdfrwt beam="2">  1       21 0.37368246E-01 0.22311846E+03</pdfrwt>
<totfact> 0.47726123E+04</totfact>
</mgrwt>
</event>
<event>
 4    1  0.4374784E+000  0.2029700E+03  0.7546771E-02  0.1147257E+00
         21   -1    0    0  503  502  0.00000000000E+00  0.00000000000E+00  0.17965385748E+04  0.17965385748E+04  0.00000000000E+00 0. -1.
         21   -1    0    0  501  503 -0.00000000000E+00 -0.00000000000E+00 -0.29517084781E+02  0.29517084781E+02  0.00000000000E+00 0. -1.
          6    1    1    2  501    0  0.15295566466E+01 -0.10613900927E+03  0.45223647320E+03  0.49569613325E+03  0.17300000000E+03 0. -1.
         -6    1    1    2    0  502 -0.15295566466E+01  0.10613900927E+03  0.13147850168E+04  0.13303595263E+04  0.17300000000E+03 0. -1.
<mgrwt>
<rscale>  2 0.20297002E+03</rscale>
<asrwt>0</asrwt>
<pdfrwt beam="1">  1       21 0.27639046E+00 0.20297002E+03</pdfrwt>
<pdfrwt beam="2">  1       21 0.45410914E-02 0.20297002E+03</pdfrwt>
<totfact> 0.14633677E+04</totfact>
</mgrwt>
</event>
<event>
 4    1  0.4374784E+000  0.2245312E+03  0.7546771E-02  0.1130549E+00
         21   -1    0    0  503  502  0.00000000000E+00  0.00000000000E+00  0.10462785453E+03  0.10462785453E+03  0.00000000000E+00 0. -1.
         21   -1    0    0  501  503 -0.00000000000E+00 -0.00000000000E+00 -0.48713644685E+03  0.48713644685E+03  0.00000000000E+00 0. -1.
          6    1    1    2  501    0  0.10716438886E+03 -0.94873809163E+02 -0.16041215902E+03  0.27594620248E+03  0.17300000000E+03 0. -1.
         -6    1    1    2    0  502 -0.10716438886E+03  0.94873809163E+02 -0.22209643330E+03  0.31581809889E+03  0.17300000000E+03 0. -1.
<mgrwt>
<rscale>  2 0.22453117E+03</rscale>
<asrwt>0</asrwt>
<pdfrwt beam="1">  1       21 0.16096593E-01 0.22453117E+03</pdfrwt>
<pdfrwt beam="2">  1       21 0.74944068E-01 0.22453117E+03</pdfrwt>
<totfact> 0.54105628E+04</totfact>
</mgrwt>
</event>
<event>
 4    1  0.4374784E+000  0.1795893E+03  0.7546771E-02  0.1168201E+00
         21   -1    0    0  503  502  0.00000000000E+00  0.00000000000E+00  0.12636961830E+04  0.12636961830E+04  0.00000000000E+00 0.  1.
         21   -1    0    0  501  503 -0.00000000000E+00 -0.00000000000E+00 -0.25725565612E+02  0.25725565612E+02  0.00000000000E+00 0.  1.
          6    1    1    2  501    0 -0.48193045488E+02  0.86005802324E+00  0.67630701133E+03  0.69974529859E+03  0.17300000000E+03 0.  1.
         -6    1    1    2    0  502  0.48193045488E+02 -0.86005802324E+00  0.56166360606E+03  0.58967645002E+03  0.17300000000E+03 0.  1.
<mgrwt>
<rscale>  2 0.17958928E+03</rscale>
<asrwt>0</asrwt>
<pdfrwt beam="1">  1       21 0.19441475E+00 0.17958928E+03</pdfrwt>
<pdfrwt beam="2">  1       21 0.39577803E-02 0.17958928E+03</pdfrwt>
<totfact> 0.58683732E+04</totfact>
</mgrwt>
</event>
<event>
 4    1  0.4374784E+000  0.1731701E+03  0.7546771E-02  0.1174582E+00
         21   -1    0    0  501  502  0.00000000000E+00  0.00000000000E+00  0.55268893754E+02  0.55268893754E+02  0.00000000000E+00 0. -1.
         21   -1    0    0  502  503 -0.00000000000E+00 -0.00000000000E+00 -0.76014804505E+03  0.76014804505E+03  0.00000000000E+00 0. -1.
          6    1    1    2  501    0  0.71191723873E+01 -0.28618967403E+01 -0.13431891146E+03  0.21915620695E+03  0.17300000000E+03 0. -1.
         -6    1    1    2    0  503 -0.71191723873E+01  0.28618967403E+01 -0.57056023984E+03  0.59626073186E+03  0.17300000000E+03 0. -1.
<mgrwt>
<rscale>  2 0.17317007E+03</rscale>
<asrwt>0</asrwt>
<pdfrwt beam="1">  1       21 0.85029072E-02 0.17317007E+03</pdfrwt>
<pdfrwt beam="2">  1       21 0.11694585E+00 0.17317007E+03</pdfrwt>
<totfact> 0.61308336E+04</totfact>
</mgrwt>
</event>
<event>
 4    1  0.4374784E+000  0.2294454E+03  0.7546771E-02  0.1127031E+00
         21   -1    0    0  503  502  0.00000000000E+00  0.00000000000E+00  0.14784366916E+03  0.14784366916E+03  0.00000000000E+00 0.  1.
         21   -1    0    0  501  503 -0.00000000000E+00 -0.00000000000E+00 -0.47378787935E+03  0.47378787935E+03  0.00000000000E+00 0. -1.
          6    1    1    2  501    0 -0.11561852726E+03  0.96687906001E+02 -0.31788982704E+03  0.39204481523E+03  0.17300000000E+03 0. -1.
         -6    1    1    2    0  502  0.11561852726E+03 -0.96687906001E+02 -0.80543831513E+01  0.22958673329E+03  0.17300000000E+03 0.  1.
<mgrwt>
<rscale>  2 0.22944541E+03</rscale>
<asrwt>0</asrwt>
<pdfrwt beam="1">  1       21 0.22745180E-01 0.22944541E+03</pdfrwt>
<pdfrwt beam="2">  1       21 0.72890443E-01 0.22944541E+03</pdfrwt>
<totfact> 0.30117686E+04</totfact>
</mgrwt>
</event>
<event>
 4    1  0.4374784E+000  0.2682379E+03  0.7546771E-02  0.1102292E+00
         21   -1    0    0  501  502  0.00000000000E+00  0.00000000000E+00  0.30680731494E+03  0.30680731494E+03  0.00000000000E+00 0.  1.
         21   -1    0    0  502  503 -0.00000000000E+00 -0.00000000000E+00 -0.30361668726E+03  0.30361668726E+03  0.00000000000E+00 0. -1.
          6    1    1    2  501    0  0.16943975830E+03 -0.11538089105E+03  0.14720032094E+03  0.30597306450E+03  0.17300000000E+03 0.  1.
         -6    1    1    2    0  503 -0.16943975830E+03  0.11538089105E+03 -0.14400969326E+03  0.30445093770E+03  0.17300000000E+03 0. -1.
<mgrwt>
<rscale>  2 0.26823792E+03</rscale>
<asrwt>0</asrwt>
<pdfrwt beam="1">  1       21 0.47201125E-01 0.26823792E+03</pdfrwt>
<pdfrwt beam="2">  1       21 0.46710259E-01 0.26823792E+03</pdfrwt>
<totfact> 0.18098993E+04</totfact>
</mgrwt>
</event>
<event>
 4    1  0.4374784E+000  0.2076884E+03  0.7546771E-02  0.1143410E+00
         21   -1    0    0  501  502  0.00000000000E+00  0.00000000000E+00  0.54538882010E+03  0.54538882010E+03  0.00000000000E+00 0.  1.
         21   -1    0    0  502  503 -0.00000000000E+00 -0.00000000000E+00 -0.11047195974E+03  0.11047195974E+03  0.00000000000E+00 0.  1.
          6    1    1    2  501    0 -0.11152749679E+03 -0.27696400123E+02  0.42675169738E+02  0.21202745868E+03  0.17300000000E+03 0.  1.
         -6    1    1    2    0  503  0.11152749679E+03  0.27696400123E+02  0.39224169061E+03  0.44383332117E+03  0.17300000000E+03 0.  1.
<mgrwt>
<rscale>  2 0.20768840E+03</rscale>
<asrwt>0</asrwt>
<pdfrwt beam="1">  1       21 0.83905971E-01 0.20768840E+03</pdfrwt>
<pdfrwt beam="2">  1       21 0.16995686E-01 0.20768840E+03</pdfrwt>
<totfact> 0.38216884E+04</totfact>
</mgrwt>
</event>
<event>
 4    1  0.4374784E+000  0.1999024E+03  0.7546771E-02  0.1149821E+00
         21   -1    0    0  503  502  0.00000000000E+00  0.00000000000E+00  0.11742272509E+03  0.11742272509E+03  0.00000000000E+00 0.  1.
         21   -1    0    0  501  503 -0.00000000000E+00 -0.00000000000E+00 -0.82384449857E+03  0.82384449857E+03  0.00000000000E+00 0.  1.
          6    1    1    2  501    0 -0.53552310472E+02  0.84641004653E+02 -0.71376537495E+03  0.74123003184E+03  0.17300000000E+03 0.  1.
         -6    1    1    2    0  502  0.53552310472E+02 -0.84641004653E+02  0.73436014736E+01  0.20003719181E+03  0.17300000000E+03 0.  1.
<mgrwt>
<rscale>  2 0.19990235E+03</rscale>
<asrwt>0</asrwt>
<pdfrwt beam="1">  1       21 0.18065034E-01 0.19990235E+03</pdfrwt>
<pdfrwt beam="2">  1       21 0.12674531E+00 0.19990235E+03</pdfrwt>
<totfact> 0.12784312E+04</totfact>
</mgrwt>
</event>
<event>
 4    1  0.4374784E+000  0.2462237E+03  0.7546771E-02  0.1115715E+00
         21   -1    0    0  503  502  0.00000000000E+00  0.00000000000E+00  0.24374095336E+03  0.24374095336E+03  0.00000000000E+00 0.  1.
         21   -1    0    0  501  503 -0.00000000000E+00 -0.00000000000E+00 -0.33522170248E+03  0.33522170248E+03  0.00000000000E+00 0. -1.
          6    1    1    2  501    0  0.34320702712E+02  0.17181147032E+03  0.10130032065E+03  0.26624771723E+03  0.17300000000E+03 0.  1.
         -6    1    1    2    0  502 -0.34320702712E+02 -0.17181147032E+03 -0.19278106977E+03  0.31271493861E+03  0.17300000000E+03 0.  1.
<mgrwt>
<rscale>  2 0.24622366E+03</rscale>
<asrwt>0</asrwt>
<pdfrwt beam="1">  1       21 0.37498609E-01 0.24622366E+03</pdfrwt>
<pdfrwt beam="2">  1       21 0.51572569E-01 0.24622366E+03</pdfrwt>
<totfact> 0.23810897E+04</totfact>
</mgrwt>
</event>
<event>
 4    1  0.4374784E+000  0.1762501E+03  0.7546771E-02  0.1171482E+00
         21   -1    0    0  501  502  0.00000000000E+00  0.00000000000E+00  0.64504014947E+02  0.64504014947E+02  0.00000000000E+00 0. -1.
         21   -1    0    0  502  503 -0.00000000000E+00 -0.00000000000E+00 -0.74242874791E+03  0.74242874791E+03  0.00000000000E+00 0. -1.
          6    1    1    2  501    0 -0.32253971289E+02  0.97352348758E+01 -0.99811964200E+02  0.20255004730E+03  0.17300000000E+03 0. -1.
         -6    1    1    2    0  503  0.32253971289E+02 -0.97352348758E+01 -0.57811276876E+03  0.60438271556E+03  0.17300000000E+03 0. -1.
<mgrwt>
<rscale>  2 0.17625009E+03</rscale>
<asrwt>0</asrwt>
<pdfrwt beam="1">  1       21 0.99236943E-02 0.17625009E+03</pdfrwt>
<pdfrwt beam="2">  1       21 0.11421981E+00 0.17625009E+03</pdfrwt>
<totfact> 0.49445691E+04</totfact>
</mgrwt>
</event>
<event>
 4    1  0.4374784E+000  0.1933477E+03  0.7546771E-02  0.1155476E+00
         21   -1    0    0  503  502  0.00000000000E+00  0.00000000000E+00  0.16565405320E+03  0.16565405320E+03  0.00000000000E+00 0.  1.
         21   -1    0    0  501  503 -0.00000000000E+00 -0.00000000000E+00 -0.29458761721E+03  0.29458761721E+03  0.00000000000E+00 0.  1.
          6    1    1    2  501    0  0.85779914863E+02 -0.98047688163E+01 -0.17577070100E+03  0.26130186875E+03  0.17300000000E+03 0.  1.
         -6    1    1    2    0  502 -0.85779914863E+02  0.98047688163E+01  0.46837136986E+02  0.19893980167E+03  0.17300000000E+03 0.  1.
<mgrwt>
<rscale>  2 0.19334768E+03</rscale>
<asrwt>0</asrwt>
<pdfrwt beam="1">  1       21 0.25485239E-01 0.19334768E+03</pdfrwt>
<pdfrwt beam="2">  1       21 0.45321172E-01 0.19334768E+03</pdfrwt>
<totfact> 0.68166518E+04</totfact>
</mgrwt>
</event>
<event>
 4    1  0.4374784E+000  0.1900557E+03  0.7546771E-02  0.1158411E+00
         21   -1    0    0  501  502  0.00000000000E+00  0.00000000000E+00  0.10274072367E+03  0.10274072367E+03  0.00000000000E+00 0. -1.
         21   -1    0    0  502  503 -0.00000000000E+00 -0.00000000000E+00 -0.35253480806E+03  0.35253480806E+03  0.00000000000E+00 0. -1.
          6    1    1    2  501    0 -0.23494703810E+02 -0.75101171519E+02 -0.13676777131E+03  0.23415082819E+03  0.17300000000E+03 0.  1.
         -6    1    1    2    0  503  0.23494703810E+02  0.75101171519E+02 -0.11302631308E+03  0.22112470355E+03  0.17300000000E+03 0.  1.
<mgrwt>
<rscale>  2 0.19005575E+03</rscale>
<asrwt>0</asrwt>
<pdfrwt beam="1">  1       21 0.15806265E-01 0.19005575E+03</pdfrwt>
<pdfrwt beam="2">  1       21 0.54236124E-01 0.19005575E+03</pdfrwt>
<totfact> 0.11465817E+05</totfact>
</mgrwt>
</event>
<event>
 4    1  0.4374784E+000  0.1774610E+03  0.7546771E-02  0.1170283E+00
         21   -1    0    0  501  502  0.00000000000E+00  0.00000000000E+00  0.21869811250E+03  0.21869811250E+03  0.00000000000E+00 0. -1.
         21   -1    0    0  502  503 -0.00000000000E+00 -0.00000000000E+00 -0.14621239175E+03  0.14621239175E+03  0.00000000000E+00 0. -1.
          6    1    1    2  501    0  0.18841819044E+02 -0.34762145396E+02  0.58689092253E+02  0.18691396536E+03  0.17300000000E+03 0. -1.
         -6    1    1    2    0  503 -0.18841819044E+02  0.34762145396E+02  0.13796628501E+02  0.17799653889E+03  0.17300000000E+03 0. -1.
<mgrwt>
<rscale>  2 0.17746104E+03</rscale>
<asrwt>0</asrwt>
<pdfrwt beam="1">  1       21 0.33645863E-01 0.17746104E+03</pdfrwt>
<pdfrwt beam="2">  1       21 0.22494214E-01 0.17746104E+03</pdfrwt>
<totfact> 0.15826119E+05</totfact>
</mgrwt>
</event>
<event>
 4    1  0.4374784E+000  0.2083857E+03  0.7546771E-02  0.1142851E+00
         21   -1    0    0  503  502  0.00000000000E+00  0.00000000000E+00  0.50848091578E+02  0.50848091578E+02  0.00000000000E+00 0.  1.
         21   -1    0    0  501  503 -0.00000000000E+00 -0.00000000000E+00 -0.11686543092E+04  0.11686543092E+04  0.00000000000E+00 0.  1.
          6    1    1    2  501    0  0.10613104135E+01 -0.11616572721E+03 -0.87529253639E+03  0.89975642638E+03  0.17300000000E+03 0.  1.
         -6    1    1    2    0  502 -0.10613104135E+01  0.11616572721E+03 -0.24251368124E+03  0.31974597440E+03  0.17300000000E+03 0.  1.
<mgrwt>
<rscale>  2 0.20838571E+03</rscale>
<asrwt>0</asrwt>
<pdfrwt beam="1">  1       21 0.78227838E-02 0.20838571E+03</pdfrwt>
<pdfrwt beam="2">  1       21 0.17979296E+00 0.20838571E+03</pdfrwt>
<totfact> 0.22527698E+04</totfact>
</mgrwt>
</event>
<event>
 4    1  0.4374784E+000  0.2240109E+03  0.7546771E-02  0.1130928E+00
         21   -1    0    0  501  502  0.00000000000E+00  0.00000000000E+00  0.15282683632E+03  0.15282683632E+03  0.00000000000E+00 0.  1.
         21   -1    0    0  502  503 -0.00000000000E+00 -0.00000000000E+00 -0.32852176747E+03  0.32852176747E+03  0.00000000000E+00 0.  1.
          6    1    1    2  501    0 -0.13532809272E+03  0.44024880706E+02 -0.82364297407E+02  0.23867291486E+03  0.17300000000E+03 0.  1.
         -6    1    1    2    0  503  0.13532809272E+03 -0.44024880706E+02 -0.93330633742E+02  0.24267568892E+03  0.17300000000E+03 0.  1.
<mgrwt>
<rscale>  2 0.22401090E+03</rscale>
<asrwt>0</asrwt>
<pdfrwt beam="1">  1       21 0.23511821E-01 0.22401090E+03</pdfrwt>
<pdfrwt beam="2">  1       21 0.50541811E-01 0.22401090E+03</pdfrwt>
<totfact> 0.62544848E+04</totfact>
</mgrwt>
</event>
<event>
 4    1  0.4374784E+000  0.2198291E+03  0.7546771E-02  0.1134011E+00
         21   -1    0    0  501  502  0.00000000000E+00  0.00000000000E+00  0.91715993129E+02  0.91715993129E+02  0.00000000000E+00 0.  1.
         21   -1    0    0  502  503 -0.00000000000E+00 -0.00000000000E+00 -0.72602684984E+03  0.72602684984E+03  0.00000000000E+00 0. -1.
          6    1    1    2  501    0  0.13261452134E+03 -0.28446517646E+02 -0.10302450837E+03  0.24277327893E+03  0.17300000000E+03 0.  1.
         -6    1    1    2    0  503 -0.13261452134E+03  0.28446517646E+02 -0.53128634834E+03  0.57496956404E+03  0.17300000000E+03 0. -1.
<mgrwt>
<rscale>  2 0.21982906E+03</rscale>
<asrwt>0</asrwt>
<pdfrwt beam="1">  1       21 0.14110153E-01 0.21982906E+03</pdfrwt>
<pdfrwt beam="2">  1       21 0.11169644E+00 0.21982906E+03</pdfrwt>
<totfact> 0.27158807E+04</totfact>
</mgrwt>
</event>
<event>
 4    1  0.4374784E+000  0.2194532E+03  0.7546771E-02  0.1134291E+00
         21   -1    0    0  503  502  0.00000000000E+00  0.00000000000E+00  0.44285354433E+03  0.44285354433E+03  0.00000000000E+00 0. -1.
         21   -1    0    0  501  503 -0.00000000000E+00 -0.00000000000E+00 -0.12241823778E+03  0.12241823778E+03  0.00000000000E+00 0. -1.
          6    1    1    2  501    0  0.13325260259E+03 -0.21781700325E+02  0.65771796744E+02  0.22909741992E+03  0.17300000000E+03 0. -1.
         -6    1    1    2    0  502 -0.13325260259E+03  0.21781700325E+02  0.25466350981E+03  0.33617436219E+03  0.17300000000E+03 0. -1.
<mgrwt>
<rscale>  2 0.21945318E+03</rscale>
<asrwt>0</asrwt>
<pdfrwt beam="1">  1       21 0.68131314E-01 0.21945318E+03</pdfrwt>
<pdfrwt beam="2">  1       21 0.18833575E-01 0.21945318E+03</pdfrwt>
<totfact> 0.50120969E+04</totfact>
</mgrwt>
</event>
<event>
 4    1  0.4374784E+000  0.2086846E+03  0.7546771E-02  0.1142612E+00
         21   -1    0    0  503  502  0.00000000000E+00  0.00000000000E+00  0.65076844937E+03  0.65076844937E+03  0.00000000000E+00 0.  1.
         21   -1    0    0  501  503 -0.00000000000E+00 -0.00000000000E+00 -0.10359777340E+03  0.10359777340E+03  0.00000000000E+00 0. -1.
          6    1    1    2  501    0 -0.78510579335E+02 -0.86350241059E+02  0.49155875654E+02  0.21439583790E+03  0.17300000000E+03 0. -1.
         -6    1    1    2    0  502  0.78510579335E+02  0.86350241059E+02  0.49801480031E+03  0.53997038486E+03  0.17300000000E+03 0.  1.
<mgrwt>
<rscale>  2 0.20868463E+03</rscale>
<asrwt>0</asrwt>
<pdfrwt beam="1">  1       21 0.10011822E+00 0.20868463E+03</pdfrwt>
<pdfrwt beam="2">  1       21 0.15938119E-01 0.20868463E+03</pdfrwt>
<totfact> 0.28484988E+04</totfact>
</mgrwt>
</event>
<event>
 4    1  0.4374784E+000  0.2089564E+03  0.7546771E-02  0.1142395E+00
         21   -1    0    0  501  502  0.00000000000E+00  0.00000000000E+00  0.24618143279E+02  0.24618143279E+02  0.00000000000E+00 0.  1.
         21   -1    0    0  502  503 -0.00000000000E+00 -0.00000000000E+00 -0.20133229963E+04  0.20133229963E+04  0.00000000000E+00 0.  1.
          6    1    1    2  501    0 -0.89389457169E+02  0.75784550648E+02 -0.64274462544E+03  0.67585754912E+03  0.17300000000E+03 0.  1.
         -6    1    1    2    0  503  0.89389457169E+02 -0.75784550648E+02 -0.13459602276E+04  0.13620835905E+04  0.17300000000E+03 0.  1.
<mgrwt>
<rscale>  2 0.20895639E+03</rscale>
<asrwt>0</asrwt>
<pdfrwt beam="1">  1       21 0.37874041E-02 0.20895639E+03</pdfrwt>
<pdfrwt beam="2">  1       21 0.30974221E+00 0.20895639E+03</pdfrwt>
<totfact> 0.12664002E+04</totfact>
</mgrwt>
</event>
<event>
 4    1  0.4374784E+000  0.1930363E+03  0.7546771E-02  0.1155751E+00
         21   -1    0    0  501  502  0.00000000000E+00  0.00000000000E+00  0.36747245457E+02  0.36747245457E+02  0.00000000000E+00 0.  1.
         21   -1    0    0  502  503 -0.00000000000E+00 -0.00000000000E+00 -0.12475792315E+04  0.12475792315E+04  0.00000000000E+00 0. -1.
          6    1    1    2  501    0 -0.71997930881E+02 -0.46371280262E+02 -0.32757531702E+03  0.38022175898E+03  0.17300000000E+03 0.  1.
         -6    1    1    2    0  503  0.71997930881E+02  0.46371280262E+02 -0.88325666900E+03  0.90410471795E+03  0.17300000000E+03 0. -1.
<mgrwt>
<rscale>  2 0.19303626E+03</rscale>
<asrwt>0</asrwt>
<pdfrwt beam="1">  1       21 0.56534231E-02 0.19303626E+03</pdfrwt>
<pdfrwt beam="2">  1       21 0.19193524E+00 0.19303626E+03</pdfrwt>
<totfact> 0.33055623E+04</totfact>
</mgrwt>
</event>
<event>
 4    1  0.4374784E+000  0.2458993E+03  0.7546771E-02  0.1115924E+00
         21   -1    0    0  501  502  0.00000000000E+00  0.00000000000E+00  0.16729433467E+03  0.16729433467E+03  0.00000000000E+00 0. -1.
         21   -1    0    0  502  503 -0.00000000000E+00 -0.00000000000E+00 -0.36361876549E+03  0.36361876549E+03  0.00000000000E+00 0. -1.
          6    1    1    2  501    0 -0.30685958135E+02  0.17203445733E+03 -0.11872125756E+03  0.27305900375E+03  0.17300000000E+03 0. -1.
         -6    1    1    2    0  503  0.30685958135E+02 -0.17203445733E+03 -0.77603173263E+02  0.25785409641E+03  0.17300000000E+03 0. -1.
<mgrwt>
<rscale>  2 0.24589933E+03</rscale>
<asrwt>0</asrwt>
<pdfrwt beam="1">  1       21 0.25737590E-01 0.24589933E+03</pdfrwt>
<pdfrwt beam="2">  1       21 0.55941348E-01 0.24589933E+03</pdfrwt>
<totfact> 0.42049302E+04</totfact>
</mgrwt>
</event>
<event>
 4    1  0.4374784E+000  0.2362499E+03  0.7546771E-02  0.1122317E+00
         21   -1    0    0  501  502  0.00000000000E+00  0.00000000000E+00  0.65051836307E+02  0.65051836307E+02  0.00000000000E+00 0. -1.
         21   -1    0    0  502  503 -0.00000000000E+00 -0.00000000000E+00 -0.12085840137E+04  0.12085840137E+04  0.00000000000E+00 0. -1.
          6    1    1    2  501    0 -0.29770298921E+02 -0.15810985255E+03 -0.22877923420E+03  0.32886765449E+03  0.17300000000E+03 0. -1.
         -6    1    1    2    0  503  0.29770298921E+02  0.15810985255E+03 -0.91475294317E+03  0.94476819549E+03  0.17300000000E+03 0. -1.
<mgrwt>
<rscale>  2 0.23624986E+03</rscale>
<asrwt>0</asrwt>
<pdfrwt beam="1">  1       21 0.10007974E-01 0.23624986E+03</pdfrwt>
<pdfrwt beam="2">  1       21 0.18593601E+00 0.23624986E+03</pdfrwt>
<totfact> 0.13025824E+04</totfact>
</mgrwt>
</event>
<event>
 4    1  0.4374784E+000  0.1894878E+03  0.7546771E-02  0.1158924E+00
         21   -1    0    0  501  502  0.00000000000E+00  0.00000000000E+00  0.75312422891E+03  0.75312422891E+03  0.00000000000E+00 0.  1.
         21   -1    0    0  502  503 -0.00000000000E+00 -0.00000000000E+00 -0.13784847470E+03  0.13784847470E+03  0.00000000000E+00 0.  1.
          6    1    1    2  501    0  0.50818484349E+02 -0.58258922517E+02  0.66794385808E+03  0.69430153244E+03  0.17300000000E+03 0.  1.
         -6    1    1    2    0  503 -0.50818484349E+02  0.58258922517E+02 -0.52668103868E+02  0.19667117117E+03  0.17300000000E+03 0.  1.
<mgrwt>
<rscale>  2 0.18948778E+03</rscale>
<asrwt>0</asrwt>
<pdfrwt beam="1">  1       21 0.11586526E+00 0.18948778E+03</pdfrwt>
<pdfrwt beam="2">  1       21 0.21207458E-01 0.18948778E+03</pdfrwt>
<totfact> 0.11932112E+04</totfact>
</mgrwt>
</event>
<event>
 4    1  0.4374784E+000  0.2358589E+03  0.7546771E-02  0.1122583E+00
         21   -1    0    0  501  502  0.00000000000E+00  0.00000000000E+00  0.50390388507E+03  0.50390388507E+03  0.00000000000E+00 0. -1.
         21   -1    0    0  502  503 -0.00000000000E+00 -0.00000000000E+00 -0.11108618351E+03  0.11108618351E+03  0.00000000000E+00 0.  1.
          6    1    1    2  501    0 -0.19453329994E+02  0.15912885827E+03  0.17218697380E+03  0.29202359413E+03  0.17300000000E+03 0.  1.
         -6    1    1    2    0  503  0.19453329994E+02 -0.15912885827E+03  0.22063072776E+03  0.32296647444E+03  0.17300000000E+03 0.  1.
<mgrwt>
<rscale>  2 0.23585891E+03</rscale>
<asrwt>0</asrwt>
<pdfrwt beam="1">  1       21 0.77523674E-01 0.23585891E+03</pdfrwt>
<pdfrwt beam="2">  1       21 0.17090182E-01 0.23585891E+03</pdfrwt>
<totfact> 0.44673700E+04</totfact>
</mgrwt>
</event>
<event>
 4    1  0.4374784E+000  0.2078315E+03  0.7546771E-02  0.1143295E+00
         21   -1    0    0  503  502  0.00000000000E+00  0.00000000000E+00  0.17960836098E+03  0.17960836098E+03  0.00000000000E+00 0. -1.
         21   -1    0    0  501  503 -0.00000000000E+00 -0.00000000000E+00 -0.29693921389E+03  0.29693921389E+03  0.00000000000E+00 0.  1.
          6    1    1    2  501    0  0.70153235129E+02 -0.91342612961E+02 -0.16255520979E+03  0.26385250723E+03  0.17300000000E+03 0.  1.
         -6    1    1    2    0  502 -0.70153235129E+02  0.91342612961E+02  0.45224356892E+02  0.21269506764E+03  0.17300000000E+03 0. -1.
<mgrwt>
<rscale>  2 0.20783154E+03</rscale>
<asrwt>0</asrwt>
<pdfrwt beam="1">  1       21 0.27632056E-01 0.20783154E+03</pdfrwt>
<pdfrwt beam="2">  1       21 0.45682956E-01 0.20783154E+03</pdfrwt>
<totfact> 0.57014796E+04</totfact>
</mgrwt>
</event>
<event>
 4    1  0.4374784E+000  0.2072221E+03  0.7546771E-02  0.1143785E+00
         21   -1    0    0  501  502  0.00000000000E+00  0.00000000000E+00  0.72311948263E+03  0.72311948263E+03  0.00000000000E+00 0. -1.
         21   -1    0    0  502  503 -0.00000000000E+00 -0.00000000000E+00 -0.10893102132E+03  0.10893102132E+03  0.00000000000E+00 0. -1.
          6    1    1    2  501    0  0.69863328262E+02 -0.90172579605E+02  0.58767455759E+03  0.62313912121E+03  0.17300000000E+03 0. -1.
         -6    1    1    2    0  503 -0.69863328262E+02  0.90172579605E+02  0.26513903721E+02  0.20891138274E+03  0.17300000000E+03 0. -1.
<mgrwt>
<rscale>  2 0.20722205E+03</rscale>
<asrwt>0</asrwt>
<pdfrwt beam="1">  1       21 0.11124915E+00 0.20722205E+03</pdfrwt>
<pdfrwt beam="2">  1       21 0.16758619E-01 0.20722205E+03</pdfrwt>
<totfact> 0.20168675E+04</totfact>
</mgrwt>
</event>
<event>
 4    1  0.4374784E+000  0.2171940E+03  0.7546771E-02  0.1135992E+00
         21   -1    0    0  503  502  0.00000000000E+00  0.00000000000E+00  0.73285898240E+03  0.73285898240E+03  0.00000000000E+00 0. -1.
         21   -1    0    0  501  503 -0.00000000000E+00 -0.00000000000E+00 -0.19343731434E+03  0.19343731434E+03  0.00000000000E+00 0. -1.
          6    1    1    2  501    0 -0.92232263993E+02 -0.93474394822E+02 -0.10860974117E+03  0.24283601233E+03  0.17300000000E+03 0. -1.
         -6    1    1    2    0  502  0.92232263993E+02  0.93474394822E+02  0.64803140923E+03  0.68346028440E+03  0.17300000000E+03 0. -1.
<mgrwt>
<rscale>  2 0.21719404E+03</rscale>
<asrwt>0</asrwt>
<pdfrwt beam="1">  1       21 0.11274753E+00 0.21719404E+03</pdfrwt>
<pdfrwt beam="2">  1       21 0.29759587E-01 0.21719404E+03</pdfrwt>
<totfact> 0.65382688E+03</totfact>
</mgrwt>
</event>
<event>
 4    1  0.4374784E+000  0.2797222E+03  0.7546771E-02  0.1095841E+00
         21   -1    0    0  501  502  0.00000000000E+00  0.00000000000E+00  0.90156372111E+03  0.90156372111E+03  0.00000000000E+00 0.  1.
         21   -1    0    0  502  503 -0.00000000000E+00 -0.00000000000E+00 -0.30152759159E+03  0.30152759159E+03  0.00000000000E+00 0. -1.
          6    1    1    2  501    0  0.16536357989E+03 -0.14481156089E+03  0.80766478840E+03  0.85473207038E+03  0.17300000000E+03 0.  1.
         -6    1    1    2    0  503 -0.16536357989E+03  0.14481156089E+03 -0.20762865887E+03  0.34835924232E+03  0.17300000000E+03 0. -1.
<mgrwt>
<rscale>  2 0.27972219E+03</rscale>
<asrwt>0</asrwt>
<pdfrwt beam="1">  1       21 0.13870211E+00 0.27972219E+03</pdfrwt>
<pdfrwt beam="2">  1       21 0.46388861E-01 0.27972219E+03</pdfrwt>
<totfact> 0.15189335E+03</totfact>
</mgrwt>
</event>
<event>
 4    1  0.4374784E+000  0.2312591E+03  0.7546771E-02  0.1125757E+00
         21   -1    0    0  501  502  0.00000000000E+00  0.00000000000E+00  0.10557577926E+03  0.10557577926E+03  0.00000000000E+00 0. -1.
         21   -1    0    0  502  503 -0.00000000000E+00 -0.00000000000E+00 -0.14212270297E+04  0.14212270297E+04  0.00000000000E+00 0. -1.
          6    1    1    2  501    0  0.74722663331E+01  0.15328384590E+03 -0.45401837973E+02  0.23567371315E+03  0.17300000000E+03 0. -1.
         -6    1    1    2    0  503 -0.74722663331E+01 -0.15328384590E+03 -0.12702494124E+04  0.12911290958E+04  0.17300000000E+03 0. -1.
<mgrwt>
<rscale>  2 0.23125910E+03</rscale>
<asrwt>0</asrwt>
<pdfrwt beam="1">  1       21 0.16242430E-01 0.23125910E+03</pdfrwt>
<pdfrwt beam="2">  1       21 0.21865028E+00 0.23125910E+03</pdfrwt>
<totfact> 0.33533435E+03</totfact>
</mgrwt>
</event>
<event>
 4    1  0.4374784E+000  0.2030576E+03  0.7546771E-02  0.1147185E+00
         21   -1    0    0  501  502  0.00000000000E+00  0.00000000000E+00  0.71716355742E+03  0.71716355742E+03  0.00000000000E+00 0. -1.
         21   -1    0    0  502  503 -0.00000000000E+00 -0.00000000000E+00 -0.14943063406E+03  0.14943063406E+03  0.00000000000E+00 0. -1.
          6    1    1    2  501    0  0.21699503069E+02 -0.10407944623E+03  0.62373496854E+03  0.65595557055E+03  0.17300000000E+03 0. -1.
         -6    1    1    2    0  503 -0.21699503069E+02  0.10407944623E+03 -0.56002045174E+02  0.21063862093E+03  0.17300000000E+03 0. -1.
<mgrwt>
<rscale>  2 0.20305763E+03</rscale>
<asrwt>0</asrwt>
<pdfrwt beam="1">  1       21 0.11033285E+00 0.20305763E+03</pdfrwt>
<pdfrwt beam="2">  1       21 0.22989329E-01 0.20305763E+03</pdfrwt>
<totfact> 0.11434057E+04</totfact>
</mgrwt>
</event>
<event>
 4    1  0.4374784E+000  0.1893585E+03  0.7546771E-02  0.1159041E+00
         21   -1    0    0  501  502  0.00000000000E+00  0.00000000000E+00  0.21914730674E+03  0.21914730674E+03  0.00000000000E+00 0.  1.
         21   -1    0    0  502  503 -0.00000000000E+00 -0.00000000000E+00 -0.85858844187E+03  0.85858844187E+03  0.00000000000E+00 0.  1.
          6    1    1    2  501    0 -0.74948621034E+02 -0.17616394487E+02  0.16509066272E+03  0.25122014264E+03  0.17300000000E+03 0.  1.
         -6    1    1    2    0  503  0.74948621034E+02  0.17616394487E+02 -0.80453179785E+03  0.82651560597E+03  0.17300000000E+03 0.  1.
<mgrwt>
<rscale>  2 0.18935848E+03</rscale>
<asrwt>0</asrwt>
<pdfrwt beam="1">  1       21 0.33714970E-01 0.18935848E+03</pdfrwt>
<pdfrwt beam="2">  1       21 0.13209053E+00 0.18935848E+03</pdfrwt>
<totfact> 0.35285040E+03</totfact>
</mgrwt>
</event>
<event>
 4    1  0.4374784E+000  0.2689041E+03  0.7546771E-02  0.1101908E+00
         21   -1    0    0  501  502  0.00000000000E+00  0.00000000000E+00  0.47881746240E+03  0.47881746240E+03  0.00000000000E+00 0.  1.
         21   -1    0    0  502  503 -0.00000000000E+00 -0.00000000000E+00 -0.27689771260E+03  0.27689771260E+03  0.00000000000E+00 0.  1.
          6    1    1    2  501    0 -0.42287248349E+02 -0.20147510434E+03  0.35573005363E+03  0.44592970309E+03  0.17300000000E+03 0.  1.
         -6    1    1    2    0  503  0.42287248349E+02  0.20147510434E+03 -0.15381030383E+03  0.30978547191E+03  0.17300000000E+03 0.  1.
<mgrwt>
<rscale>  2 0.26890413E+03</rscale>
<asrwt>0</asrwt>
<pdfrwt beam="1">  1       21 0.73664225E-01 0.26890413E+03</pdfrwt>
<pdfrwt beam="2">  1       21 0.42599648E-01 0.26890413E+03</pdfrwt>
<totfact> 0.83676890E+03</totfact>
</mgrwt>
</event>
<event>
 4    1  0.4374784E+000  0.2067500E+03  0.7546771E-02  0.1144166E+00
         21   -1    0    0  503  502  0.00000000000E+00  0.00000000000E+00  0.50232955471E+03  0.50232955471E+03  0.00000000000E+00 0. -1.
         21   -1    0    0  501  503 -0.00000000000E+00 -0.00000000000E+00 -0.10630938038E+03  0.10630938038E+03  0.00000000000E+00 0. -1.
          6    1    1    2  501    0 -0.11175762586E+03 -0.18077375161E+02  0.62065260840E+02  0.21586489996E+03  0.17300000000E+03 0. -1.
         -6    1    1    2    0  502  0.11175762586E+03  0.18077375161E+02  0.33395491349E+03  0.39277403513E+03  0.17300000000E+03 0. -1.
<mgrwt>
<rscale>  2 0.20674999E+03</rscale>
<asrwt>0</asrwt>
<pdfrwt beam="1">  1       21 0.77281469E-01 0.20674999E+03</pdfrwt>
<pdfrwt beam="2">  1       21 0.16355290E-01 0.20674999E+03</pdfrwt>
<totfact> 0.49447693E+04</totfact>
</mgrwt>
</event>
<event>
 4    1  0.4374784E+000  0.1910887E+03  0.7546771E-02  0.1157483E+00
         21   -1    0    0  501  502  0.00000000000E+00  0.00000000000E+00  0.24515865851E+03  0.24515865851E+03  0.00000000000E+00 0. -1.
         21   -1    0    0  502  503 -0.00000000000E+00 -0.00000000000E+00 -0.19268360601E+03  0.19268360601E+03  0.00000000000E+00 0.  1.
          6    1    1    2  501    0 -0.49860715781E+02 -0.64029630343E+02  0.13054208181E+03  0.23142195156E+03  0.17300000000E+03 0. -1.
         -6    1    1    2    0  503  0.49860715781E+02  0.64029630343E+02 -0.78067029308E+02  0.20642031297E+03  0.17300000000E+03 0.  1.
<mgrwt>
<rscale>  2 0.19108868E+03</rscale>
<asrwt>0</asrwt>
<pdfrwt beam="1">  1       21 0.37716717E-01 0.19108868E+03</pdfrwt>
<pdfrwt beam="2">  1       21 0.29643632E-01 0.19108868E+03</pdfrwt>
<totfact> 0.73996181E+04</totfact>
</mgrwt>
</event>
<event>
 4    1  0.4374784E+000  0.2173989E+03  0.7546771E-02  0.1135837E+00
         21   -1    0    0  501  502  0.00000000000E+00  0.00000000000E+00  0.96073666812E+02  0.96073666812E+02  0.00000000000E+00 0. -1.
         21   -1    0    0  502  503 -0.00000000000E+00 -0.00000000000E+00 -0.52066675581E+03  0.52066675581E+03  0.00000000000E+00 0. -1.
          6    1    1    2  501    0  0.11660926560E+03  0.61119119319E+02 -0.13986087624E+03  0.25850209336E+03  0.17300000000E+03 0.  1.
         -6    1    1    2    0  503 -0.11660926560E+03 -0.61119119319E+02 -0.28473221275E+03  0.35823832926E+03  0.17300000000E+03 0.  1.
<mgrwt>
<rscale>  2 0.21739887E+03</rscale>
<asrwt>0</asrwt>
<pdfrwt beam="1">  1       21 0.14780564E-01 0.21739887E+03</pdfrwt>
<pdfrwt beam="2">  1       21 0.80102579E-01 0.21739887E+03</pdfrwt>
<totfact> 0.54609481E+04</totfact>
</mgrwt>
</event>
<event>
 4    1  0.4374784E+000  0.2000412E+03  0.7546771E-02  0.1149704E+00
         21   -1    0    0  503  502  0.00000000000E+00  0.00000000000E+00  0.29014077199E+03  0.29014077199E+03  0.00000000000E+00 0. -1.
         21   -1    0    0  501  503 -0.00000000000E+00 -0.00000000000E+00 -0.13816786245E+03  0.13816786245E+03  0.00000000000E+00 0. -1.
          6    1    1    2  501    0  0.99925204796E+02 -0.10120260095E+02  0.85041062311E+02  0.21736708237E+03  0.17300000000E+03 0. -1.
         -6    1    1    2    0  502 -0.99925204796E+02  0.10120260095E+02  0.66931847229E+02  0.21094155207E+03  0.17300000000E+03 0. -1.
<mgrwt>
<rscale>  2 0.20004116E+03</rscale>
<asrwt>0</asrwt>
<pdfrwt beam="1">  1       21 0.44637042E-01 0.20004116E+03</pdfrwt>
<pdfrwt beam="2">  1       21 0.21256594E-01 0.20004116E+03</pdfrwt>
<totfact> 0.98922304E+04</totfact>
</mgrwt>
</event>
<event>
 4    1  0.4374784E+000  0.2650182E+03  0.7546771E-02  0.1104165E+00
         21   -1    0    0  503  502  0.00000000000E+00  0.00000000000E+00  0.88190992913E+03  0.88190992913E+03  0.00000000000E+00 0. -1.
         21   -1    0    0  501  503 -0.00000000000E+00 -0.00000000000E+00 -0.88532887852E+02  0.88532887852E+02  0.00000000000E+00 0. -1.
          6    1    1    2  501    0  0.37879754781E+02  0.19715667936E+03  0.55047838968E+03  0.61095097147E+03  0.17300000000E+03 0. -1.
         -6    1    1    2    0  502 -0.37879754781E+02 -0.19715667936E+03  0.24289865160E+03  0.35949184551E+03  0.17300000000E+03 0. -1.
<mgrwt>
<rscale>  2 0.26501817E+03</rscale>
<asrwt>0</asrwt>
<pdfrwt beam="1">  1       21 0.13567845E+00 0.26501817E+03</pdfrwt>
<pdfrwt beam="2">  1       21 0.13620445E-01 0.26501817E+03</pdfrwt>
<totfact> 0.17366972E+04</totfact>
</mgrwt>
</event>
<event>
 4    1  0.4374784E+000  0.1751917E+03  0.7546771E-02  0.1172539E+00
         21   -1    0    0  503  502  0.00000000000E+00  0.00000000000E+00  0.19434800856E+03  0.19434800856E+03  0.00000000000E+00 0. -1.
         21   -1    0    0  501  503 -0.00000000000E+00 -0.00000000000E+00 -0.40225867601E+03  0.40225867601E+03  0.00000000000E+00 0. -1.
          6    1    1    2  501    0 -0.27620563983E+02 -0.47702903564E+00 -0.33644217796E+03  0.37932237243E+03  0.17300000000E+03 0. -1.
         -6    1    1    2    0  502  0.27620563983E+02  0.47702903564E+00  0.12853151051E+03  0.21728431215E+03  0.17300000000E+03 0. -1.
<mgrwt>
<rscale>  2 0.17519168E+03</rscale>
<asrwt>0</asrwt>
<pdfrwt beam="1">  1       21 0.29899694E-01 0.17519168E+03</pdfrwt>
<pdfrwt beam="2">  1       21 0.61885950E-01 0.17519168E+03</pdfrwt>
<totfact> 0.26260629E+04</totfact>
</mgrwt>
</event>
<event>
 4    1  0.4374784E+000  0.1821186E+03  0.7546771E-02  0.1165768E+00
         21   -1    0    0  503  502  0.00000000000E+00  0.00000000000E+00  0.44267121249E+03  0.44267121249E+03  0.00000000000E+00 0.  1.
         21   -1    0    0  501  503 -0.00000000000E+00 -0.00000000000E+00 -0.78405153793E+02  0.78405153793E+02  0.00000000000E+00 0.  1.
          6    1    1    2  501    0  0.47688266541E+02 -0.31048787205E+02  0.12724341136E+03  0.22216679249E+03  0.17300000000E+03 0.  1.
         -6    1    1    2    0  502 -0.47688266541E+02  0.31048787205E+02  0.23702264734E+03  0.29890957379E+03  0.17300000000E+03 0.  1.
<mgrwt>
<rscale>  2 0.18211864E+03</rscale>
<asrwt>0</asrwt>
<pdfrwt beam="1">  1       21 0.68103262E-01 0.18211864E+03</pdfrwt>
<pdfrwt beam="2">  1       21 0.12062332E-01 0.18211864E+03</pdfrwt>
<totfact> 0.11488310E+05</totfact>
</mgrwt>
</event>
<event>
 4    1  0.4374784E+000  0.1918544E+03  0.7546771E-02  0.1156799E+00
         21   -1    0    0  501  502  0.00000000000E+00  0.00000000000E+00  0.14742290085E+04  0.14742290085E+04  0.00000000000E+00 0.  1.
         21   -1    0    0  502  503 -0.00000000000E+00 -0.00000000000E+00 -0.33716926375E+02  0.33716926375E+02  0.00000000000E+00 0.  1.
          6    1    1    2  501    0 -0.32595335240E+02  0.76266878405E+02  0.11043317718E+04  0.11208732109E+04  0.17300000000E+03 0.  1.
         -6    1    1    2    0  503  0.32595335240E+02 -0.76266878405E+02  0.33618031029E+03  0.38707272398E+03  0.17300000000E+03 0.  1.
<mgrwt>
<rscale>  2 0.19185435E+03</rscale>
<asrwt>0</asrwt>
<pdfrwt beam="1">  1       21 0.22680441E+00 0.19185435E+03</pdfrwt>
<pdfrwt beam="2">  1       21 0.51872206E-02 0.19185435E+03</pdfrwt>
<totfact> 0.23122237E+04</totfact>
</mgrwt>
</event>
<event>
 4    1  0.4374784E+000  0.1910535E+03  0.7546771E-02  0.1157515E+00
         21   -1    0    0  503  502  0.00000000000E+00  0.00000000000E+00  0.18799491821E+03  0.18799491821E+03  0.00000000000E+00 0.  1.
         21   -1    0    0  501  503 -0.00000000000E+00 -0.00000000000E+00 -0.34819333460E+03  0.34819333460E+03  0.00000000000E+00 0. -1.
          6    1    1    2  501    0 -0.75502916268E+02 -0.29525138773E+02 -0.25841177439E+03  0.32136905471E+03  0.17300000000E+03 0. -1.
         -6    1    1    2    0  502  0.75502916268E+02  0.29525138773E+02  0.98213357995E+02  0.21481919810E+03  0.17300000000E+03 0.  1.
<mgrwt>
<rscale>  2 0.19105346E+03</rscale>
<asrwt>0</asrwt>
<pdfrwt beam="1">  1       21 0.28922295E-01 0.19105346E+03</pdfrwt>
<pdfrwt beam="2">  1       21 0.53568206E-01 0.19105346E+03</pdfrwt>
<totfact> 0.37765866E+04</totfact>
</mgrwt>
</event>
<event>
 4    1  0.4374784E+000  0.1944376E+03  0.7546771E-02  0.1154519E+00
         21   -1    0    0  501  502  0.00000000000E+00  0.00000000000E+00  0.12027267421E+03  0.12027267421E+03  0.00000000000E+00 0. -1.
         21   -1    0    0  502  503 -0.00000000000E+00 -0.00000000000E+00 -0.44229089848E+03  0.44229089848E+03  0.00000000000E+00 0.  1.
          6    1    1    2  501    0  0.27169843806E+02  0.84491288670E+02 -0.97168150030E+01  0.19468023723E+03  0.17300000000E+03 0. -1.
         -6    1    1    2    0  503 -0.27169843806E+02 -0.84491288670E+02 -0.31230140927E+03  0.36788333546E+03  0.17300000000E+03 0.  1.
<mgrwt>
<rscale>  2 0.19443759E+03</rscale>
<asrwt>0</asrwt>
<pdfrwt beam="1">  1       21 0.18503488E-01 0.19443759E+03</pdfrwt>
<pdfrwt beam="2">  1       21 0.68044754E-01 0.19443759E+03</pdfrwt>
<totfact> 0.52566599E+04</totfact>
</mgrwt>
</event>
<event>
 4    1  0.4374784E+000  0.1819879E+03  0.7546771E-02  0.1165893E+00
         21   -1    0    0  501  502  0.00000000000E+00  0.00000000000E+00  0.30229665239E+03  0.30229665239E+03  0.00000000000E+00 0. -1.
         21   -1    0    0  502  503 -0.00000000000E+00 -0.00000000000E+00 -0.62437319778E+03  0.62437319778E+03  0.00000000000E+00 0. -1.
          6    1    1    2  501    0 -0.54214595664E+02  0.15854377342E+02  0.25968622436E+03  0.31710647862E+03  0.17300000000E+03 0. -1.
         -6    1    1    2    0  503  0.54214595664E+02 -0.15854377342E+02 -0.58176276975E+03  0.60956337155E+03  0.17300000000E+03 0. -1.
<mgrwt>
<rscale>  2 0.18198787E+03</rscale>
<asrwt>0</asrwt>
<pdfrwt beam="1">  1       21 0.46507178E-01 0.18198787E+03</pdfrwt>
<pdfrwt beam="2">  1       21 0.96057414E-01 0.18198787E+03</pdfrwt>
<totfact> 0.40323135E+03</totfact>
</mgrwt>
</event>
<event>
 4    1  0.4374784E+000  0.2152234E+03  0.7546771E-02  0.1137495E+00
         21   -1    0    0  501  502  0.00000000000E+00  0.00000000000E+00  0.35454486646E+03  0.35454486646E+03  0.00000000000E+00 0. -1.
         21   -1    0    0  502  503 -0.00000000000E+00 -0.00000000000E+00 -0.13967012574E+03  0.13967012574E+03  0.00000000000E+00 0. -1.
          6    1    1    2  501    0  0.37085005697E+02  0.12254307574E+03  0.17023639949E+03  0.27441125117E+03  0.17300000000E+03 0. -1.
         -6    1    1    2    0  503 -0.37085005697E+02 -0.12254307574E+03  0.44638341240E+02  0.21980374103E+03  0.17300000000E+03 0. -1.
<mgrwt>
<rscale>  2 0.21522338E+03</rscale>
<asrwt>0</asrwt>
<pdfrwt beam="1">  1       21 0.54545364E-01 0.21522338E+03</pdfrwt>
<pdfrwt beam="2">  1       21 0.21487712E-01 0.21522338E+03</pdfrwt>
<totfact> 0.63404538E+04</totfact>
</mgrwt>
</event>
<event>
 4    1  0.4374784E+000  0.2167153E+03  0.7546771E-02  0.1136356E+00
         21   -1    0    0  503  502  0.00000000000E+00  0.00000000000E+00  0.19352949767E+03  0.19352949767E+03  0.00000000000E+00 0.  1.
         21   -1    0    0  501  503 -0.00000000000E+00 -0.00000000000E+00 -0.31033380193E+03  0.31033380193E+03  0.00000000000E+00 0.  1.
          6    1    1    2  501    0  0.68635115723E+02  0.11102137179E+03 -0.17603208498E+03  0.27920032064E+03  0.17300000000E+03 0.  1.
         -6    1    1    2    0  502 -0.68635115723E+02 -0.11102137179E+03  0.59227780722E+02  0.22466297895E+03  0.17300000000E+03 0.  1.
<mgrwt>
<rscale>  2 0.21671531E+03</rscale>
<asrwt>0</asrwt>
<pdfrwt beam="1">  1       21 0.29773769E-01 0.21671531E+03</pdfrwt>
<pdfrwt beam="2">  1       21 0.47743661E-01 0.21671531E+03</pdfrwt>
<totfact> 0.44826223E+04</totfact>
</mgrwt>
</event>
<event>
 4    1  0.4374784E+000  0.1837411E+03  0.7546771E-02  0.1164231E+00
         21   -1    0    0  503  502  0.00000000000E+00  0.00000000000E+00  0.14425869344E+03  0.14425869344E+03  0.00000000000E+00 0.  1.
         21   -1    0    0  501  503 -0.00000000000E+00 -0.00000000000E+00 -0.27217195795E+03  0.27217195795E+03  0.00000000000E+00 0.  1.
          6    1    1    2  501    0  0.61899752263E+02 -0.45253495261E+00 -0.14190294397E+03  0.23215776883E+03  0.17300000000E+03 0.  1.
         -6    1    1    2    0  502 -0.61899752263E+02  0.45253495261E+00  0.13989679462E+02  0.18427288257E+03  0.17300000000E+03 0.  1.
<mgrwt>
<rscale>  2 0.18374108E+03</rscale>
<asrwt>0</asrwt>
<pdfrwt beam="1">  1       21 0.22193645E-01 0.18374108E+03</pdfrwt>
<pdfrwt beam="2">  1       21 0.41872608E-01 0.18374108E+03</pdfrwt>
<totfact> 0.10458146E+05</totfact>
</mgrwt>
</event>
<event>
 4    1  0.4374784E+000  0.2418903E+03  0.7546771E-02  0.1118540E+00
         21   -1    0    0  503  502  0.00000000000E+00  0.00000000000E+00  0.12676887394E+04  0.12676887394E+04  0.00000000000E+00 0. -1.
         21   -1    0    0  501  503 -0.00000000000E+00 -0.00000000000E+00 -0.48817527778E+02  0.48817527778E+02  0.00000000000E+00 0.  1.
          6    1    1    2  501    0  0.15479514349E+03 -0.67973264698E+02  0.76314673606E+03  0.80056470190E+03  0.17300000000E+03 0. -1.
         -6    1    1    2    0  502 -0.15479514349E+03  0.67973264698E+02  0.45572447558E+03  0.51594156530E+03  0.17300000000E+03 0.  1.
<mgrwt>
<rscale>  2 0.24189027E+03</rscale>
<asrwt>0</asrwt>
<pdfrwt beam="1">  1       21 0.19502901E+00 0.24189027E+03</pdfrwt>
<pdfrwt beam="2">  1       21 0.75103899E-02 0.24189027E+03</pdfrwt>
<totfact> 0.18708373E+04</totfact>
</mgrwt>
</event>
<event>
 4    1  0.4374784E+000  0.3595157E+03  0.7546771E-02  0.1058776E+00
         21   -1    0    0  501  502  0.00000000000E+00  0.00000000000E+00  0.89201248078E+03  0.89201248078E+03  0.00000000000E+00 0.  1.
         21   -1    0    0  502  503 -0.00000000000E+00 -0.00000000000E+00 -0.37569020481E+03  0.37569020481E+03  0.00000000000E+00 0.  1.
          6    1    1    2  501    0 -0.30245786783E+03  0.88553722887E+02  0.75496196394E+03  0.83619321371E+03  0.17300000000E+03 0.  1.
         -6    1    1    2    0  503  0.30245786783E+03 -0.88553722887E+02 -0.23863968797E+03  0.43150947188E+03  0.17300000000E+03 0.  1.
<mgrwt>
<rscale>  2 0.35951568E+03</rscale>
<asrwt>0</asrwt>
<pdfrwt beam="1">  1       21 0.13723269E+00 0.35951568E+03</pdfrwt>
<pdfrwt beam="2">  1       21 0.57798493E-01 0.35951568E+03</pdfrwt>
<totfact> 0.93321058E+02</totfact>
</mgrwt>
</event>
<event>
 4    1  0.4374784E+000  0.2457972E+03  0.7546771E-02  0.1115990E+00
         21   -1    0    0  503  502  0.00000000000E+00  0.00000000000E+00  0.45044878465E+03  0.45044878465E+03  0.00000000000E+00 0. -1.
         21   -1    0    0  501  503 -0.00000000000E+00 -0.00000000000E+00 -0.16164052357E+03  0.16164052357E+03  0.00000000000E+00 0.  1.
          6    1    1    2  501    0  0.50787932749E+02 -0.16705649236E+03  0.18133798277E+02  0.24646525190E+03  0.17300000000E+03 0.  1.
         -6    1    1    2    0  502 -0.50787932749E+02  0.16705649236E+03  0.27067446280E+03  0.36562405632E+03  0.17300000000E+03 0. -1.
<mgrwt>
<rscale>  2 0.24579725E+03</rscale>
<asrwt>0</asrwt>
<pdfrwt beam="1">  1       21 0.69299812E-01 0.24579725E+03</pdfrwt>
<pdfrwt beam="2">  1       21 0.24867773E-01 0.24579725E+03</pdfrwt>
<totfact> 0.28201377E+04</totfact>
</mgrwt>
</event>
<event>
 4    1  0.4374784E+000  0.1959983E+03  0.7546771E-02  0.1153160E+00
         21   -1    0    0  503  502  0.00000000000E+00  0.00000000000E+00  0.12386448899E+04  0.12386448899E+04  0.00000000000E+00 0.  1.
         21   -1    0    0  501  503 -0.00000000000E+00 -0.00000000000E+00 -0.31019039108E+02  0.31019039108E+02  0.00000000000E+00 0.  1.
          6    1    1    2  501    0 -0.37339004482E+02  0.84214893793E+02  0.59573257960E+03  0.62714643903E+03  0.17300000000E+03 0.  1.
         -6    1    1    2    0  502  0.37339004482E+02 -0.84214893793E+02  0.61189327115E+03  0.64251748993E+03  0.17300000000E+03 0.  1.
<mgrwt>
<rscale>  2 0.19599834E+03</rscale>
<asrwt>0</asrwt>
<pdfrwt beam="1">  1       21 0.19056071E+00 0.19599834E+03</pdfrwt>
<pdfrwt beam="2">  1       21 0.47721608E-02 0.19599834E+03</pdfrwt>
<totfact> 0.44920455E+04</totfact>
</mgrwt>
</event>
<event>
 4    1  0.4374784E+000  0.1878717E+03  0.7546771E-02  0.1160395E+00
         21   -1    0    0  501  502  0.00000000000E+00  0.00000000000E+00  0.39265177953E+03  0.39265177953E+03  0.00000000000E+00 0. -1.
         21   -1    0    0  502  503 -0.00000000000E+00 -0.00000000000E+00 -0.11189632879E+03  0.11189632879E+03  0.00000000000E+00 0. -1.
          6    1    1    2  501    0  0.64848568923E+02  0.34079693465E+02  0.25225221817E+03  0.31452653938E+03  0.17300000000E+03 0. -1.
         -6    1    1    2    0  503 -0.64848568923E+02 -0.34079693465E+02  0.28503232564E+02  0.19002156895E+03  0.17300000000E+03 0. -1.
<mgrwt>
<rscale>  2 0.18787166E+03</rscale>
<asrwt>0</asrwt>
<pdfrwt beam="1">  1       21 0.60407965E-01 0.18787166E+03</pdfrwt>
<pdfrwt beam="2">  1       21 0.17214820E-01 0.18787166E+03</pdfrwt>
<totfact> 0.78003581E+04</totfact>
</mgrwt>
</event>
<event>
 4    1  0.4374784E+000  0.2669629E+03  0.7546771E-02  0.1103031E+00
         21   -1    0    0  501  502  0.00000000000E+00  0.00000000000E+00  0.50279214070E+03  0.50279214070E+03  0.00000000000E+00 0.  1.
         21   -1    0    0  502  503 -0.00000000000E+00 -0.00000000000E+00 -0.15556284556E+03  0.15556284556E+03  0.00000000000E+00 0.  1.
          6    1    1    2  501    0  0.18486500109E+03 -0.84646990828E+02  0.27171462926E+03  0.38091734200E+03  0.17300000000E+03 0.  1.
         -6    1    1    2    0  503 -0.18486500109E+03  0.84646990828E+02  0.75514665883E+02  0.27743764425E+03  0.17300000000E+03 0.  1.
<mgrwt>
<rscale>  2 0.26696288E+03</rscale>
<asrwt>0</asrwt>
<pdfrwt beam="1">  1       21 0.77352636E-01 0.26696288E+03</pdfrwt>
<pdfrwt beam="2">  1       21 0.23932746E-01 0.26696288E+03</pdfrwt>
<totfact> 0.23502368E+04</totfact>
</mgrwt>
</event>
<event>
 4    1  0.4374784E+000  0.1802817E+03  0.7546771E-02  0.1167531E+00
         21   -1    0    0  503  502  0.00000000000E+00  0.00000000000E+00  0.16119458161E+04  0.16119458161E+04  0.00000000000E+00 0.  1.
         21   -1    0    0  501  503 -0.00000000000E+00 -0.00000000000E+00 -0.35420116010E+02  0.35420116010E+02  0.00000000000E+00 0.  1.
          6    1    1    2  501    0  0.28557824445E+02  0.41915738257E+02  0.13288590059E+04  0.13410323397E+04  0.17300000000E+03 0.  1.
         -6    1    1    2    0  502 -0.28557824445E+02 -0.41915738257E+02  0.24766669417E+03  0.30633359243E+03  0.17300000000E+03 0.  1.
<mgrwt>
<rscale>  2 0.18028166E+03</rscale>
<asrwt>0</asrwt>
<pdfrwt beam="1">  1       21 0.24799161E+00 0.18028166E+03</pdfrwt>
<pdfrwt beam="2">  1       21 0.54492499E-02 0.18028166E+03</pdfrwt>
<totfact> 0.16061074E+04</totfact>
</mgrwt>
</event>
<event>
 4    1  0.4374784E+000  0.1980366E+03  0.7546771E-02  0.1151406E+00
         21   -1    0    0  503  502  0.00000000000E+00  0.00000000000E+00  0.21191165528E+04  0.21191165528E+04  0.00000000000E+00 0.  1.
         21   -1    0    0  501  503 -0.00000000000E+00 -0.00000000000E+00 -0.33510610149E+02  0.33510610149E+02  0.00000000000E+00 0.  1.
          6    1    1    2  501    0  0.61596639007E+01 -0.96184980875E+02  0.32261556148E+03  0.37854893014E+03  0.17300000000E+03 0.  1.
         -6    1    1    2    0  502 -0.61596639007E+01  0.96184980875E+02  0.17629903811E+04  0.17740782328E+04  0.17300000000E+03 0.  1.
<mgrwt>
<rscale>  2 0.19803659E+03</rscale>
<asrwt>0</asrwt>
<pdfrwt beam="1">  1       21 0.32601783E+00 0.19803659E+03</pdfrwt>
<pdfrwt beam="2">  1       21 0.51554802E-02 0.19803659E+03</pdfrwt>
<totfact> 0.61288544E+03</totfact>
</mgrwt>
</event>
<event>
 4    1  0.4374784E+000  0.2046463E+03  0.7546771E-02  0.1145877E+00
         21   -1    0    0  503  502  0.00000000000E+00  0.00000000000E+00  0.43611914462E+03  0.43611914462E+03  0.00000000000E+00 0.  1.
         21   -1    0    0  501  503 -0.00000000000E+00 -0.00000000000E+00 -0.10592820073E+03  0.10592820073E+03  0.00000000000E+00 0.  1.
          6    1    1    2  501    0 -0.10410448837E+03  0.33367388203E+02  0.82244159300E+02  0.22055436707E+03  0.17300000000E+03 0.  1.
         -6    1    1    2    0  502  0.10410448837E+03 -0.33367388203E+02  0.24794678459E+03  0.32149297828E+03  0.17300000000E+03 0.  1.
<mgrwt>
<rscale>  2 0.20464635E+03</rscale>
<asrwt>0</asrwt>
<pdfrwt beam="1">  1       21 0.67095252E-01 0.20464635E+03</pdfrwt>
<pdfrwt beam="2">  1       21 0.16296647E-01 0.20464635E+03</pdfrwt>
<totfact> 0.68190273E+04</totfact>
</mgrwt>
</event>
<event>
 4    1  0.4374784E+000  0.2961094E+03  0.7546771E-02  0.1087202E+00
         21   -1    0    0  501  502  0.00000000000E+00  0.00000000000E+00  0.11170550305E+03  0.11170550305E+03  0.00000000000E+00 0. -1.
         21   -1    0    0  502  503 -0.00000000000E+00 -0.00000000000E+00 -0.78810371770E+03  0.78810371770E+03  0.00000000000E+00 0.  1.
          6    1    1    2  501    0  0.52881454093E+02 -0.23442555851E+03 -0.36675800179E+03  0.47137270025E+03  0.17300000000E+03 0. -1.
         -6    1    1    2    0  503 -0.52881454093E+02  0.23442555851E+03 -0.30964021286E+03  0.42843652049E+03  0.17300000000E+03 0. -1.
<mgrwt>
<rscale>  2 0.29610942E+03</rscale>
<asrwt>0</asrwt>
<pdfrwt beam="1">  1       21 0.17185462E-01 0.29610942E+03</pdfrwt>
<pdfrwt beam="2">  1       21 0.12124673E+00 0.29610942E+03</pdfrwt>
<totfact> 0.14858893E+04</totfact>
</mgrwt>
</event>
<event>
 4    1  0.4374784E+000  0.1761354E+03  0.7546771E-02  0.1171597E+00
         21   -1    0    0  503  502  0.00000000000E+00  0.00000000000E+00  0.61660779661E+03  0.61660779661E+03  0.00000000000E+00 0. -1.
         21   -1    0    0  501  503 -0.00000000000E+00 -0.00000000000E+00 -0.67899984779E+02  0.67899984779E+02  0.00000000000E+00 0. -1.
          6    1    1    2  501    0 -0.29691138919E+01  0.32952329281E+02  0.10017178642E+03  0.20262788168E+03  0.17300000000E+03 0. -1.
         -6    1    1    2    0  502  0.29691138919E+01 -0.32952329281E+02  0.44853602541E+03  0.48187989970E+03  0.17300000000E+03 0. -1.
<mgrwt>
<rscale>  2 0.17613538E+03</rscale>
<asrwt>0</asrwt>
<pdfrwt beam="1">  1       21 0.94862734E-01 0.17613538E+03</pdfrwt>
<pdfrwt beam="2">  1       21 0.10446152E-01 0.17613538E+03</pdfrwt>
<totfact> 0.70344291E+04</totfact>
</mgrwt>
</event>
<event>
 4    1  0.4374784E+000  0.1854017E+03  0.7546771E-02  0.1162675E+00
         21   -1    0    0  501  502  0.00000000000E+00  0.00000000000E+00  0.12228679920E+04  0.12228679920E+04  0.00000000000E+00 0.  1.
         21   -1    0    0  502  503 -0.00000000000E+00 -0.00000000000E+00 -0.56380646939E+02  0.56380646939E+02  0.00000000000E+00 0.  1.
          6    1    1    2  501    0  0.37733948912E+02  0.54963037876E+02  0.10361770242E+04  0.10526331802E+04  0.17300000000E+03 0.  1.
         -6    1    1    2    0  503 -0.37733948912E+02 -0.54963037876E+02  0.13031032078E+03  0.22661545873E+03  0.17300000000E+03 0.  1.
<mgrwt>
<rscale>  2 0.18540169E+03</rscale>
<asrwt>0</asrwt>
<pdfrwt beam="1">  1       21 0.18813352E+00 0.18540169E+03</pdfrwt>
<pdfrwt beam="2">  1       21 0.86739466E-02 0.18540169E+03</pdfrwt>
<totfact> 0.16813541E+04</totfact>
</mgrwt>
</event>
<event>
 4    1  0.4374784E+000  0.2069521E+03  0.7546771E-02  0.1144003E+00
         21   -1    0    0  503  502  0.00000000000E+00  0.00000000000E+00  0.20149714329E+04  0.20149714329E+04  0.00000000000E+00 0.  1.
         21   -1    0    0  501  503 -0.00000000000E+00 -0.00000000000E+00 -0.34788902655E+02  0.34788902655E+02  0.00000000000E+00 0. -1.
          6    1    1    2  501    0 -0.11203602432E+03  0.18657364432E+02  0.35086195192E+03  0.40734908531E+03  0.17300000000E+03 0. -1.
         -6    1    1    2    0  502  0.11203602432E+03 -0.18657364432E+02  0.16293205783E+04  0.16424112502E+04  0.17300000000E+03 0.  1.
<mgrwt>
<rscale>  2 0.20695209E+03</rscale>
<asrwt>0</asrwt>
<pdfrwt beam="1">  1       21 0.30999551E+00 0.20695209E+03</pdfrwt>
<pdfrwt beam="2">  1       21 0.53521404E-02 0.20695209E+03</pdfrwt>
<totfact> 0.70516008E+03</totfact>
</mgrwt>
</event>
<event>
 4    1  0.4374784E+000  0.2082038E+03  0.7546771E-02  0.1142996E+00
         21   -1    0    0  501  502  0.00000000000E+00  0.00000000000E+00  0.23809269253E+03  0.23809269253E+03  0.00000000000E+00 0. -1.
         21   -1    0    0  502  503 -0.00000000000E+00 -0.00000000000E+00 -0.48936589786E+03  0.48936589786E+03  0.00000000000E+00 0. -1.
          6    1    1    2  501    0  0.61525995089E+02  0.98154871228E+02  0.16259521333E+03  0.26417045674E+03  0.17300000000E+03 0. -1.
         -6    1    1    2    0  503 -0.61525995089E+02 -0.98154871228E+02 -0.41386841866E+03  0.46328813365E+03  0.17300000000E+03 0. -1.
<mgrwt>
<rscale>  2 0.20820381E+03</rscale>
<asrwt>0</asrwt>
<pdfrwt beam="1">  1       21 0.36629645E-01 0.20820381E+03</pdfrwt>
<pdfrwt beam="2">  1       21 0.75287061E-01 0.20820381E+03</pdfrwt>
<totfact> 0.11213219E+04</totfact>
</mgrwt>
</event>
<event>
 4    1  0.4374784E+000  0.2170037E+03  0.7546771E-02  0.1136137E+00
         21   -1    0    0  503  502  0.00000000000E+00  0.00000000000E+00  0.15416744923E+03  0.15416744923E+03  0.00000000000E+00 0. -1.
         21   -1    0    0  501  503 -0.00000000000E+00 -0.00000000000E+00 -0.34590780350E+03  0.34590780350E+03  0.00000000000E+00 0. -1.
          6    1    1    2  501    0  0.88207141332E+02  0.96856048596E+02 -0.18138102949E+03  0.28282445402E+03  0.17300000000E+03 0. -1.
         -6    1    1    2    0  502 -0.88207141332E+02 -0.96856048596E+02 -0.10359324781E+02  0.21725079871E+03  0.17300000000E+03 0. -1.
<mgrwt>
<rscale>  2 0.21700367E+03</rscale>
<asrwt>0</asrwt>
<pdfrwt beam="1">  1       21 0.23718069E-01 0.21700367E+03</pdfrwt>
<pdfrwt beam="2">  1       21 0.53216585E-01 0.21700367E+03</pdfrwt>
<totfact> 0.55356019E+04</totfact>
</mgrwt>
</event>
<event>
 4    1  0.4374784E+000  0.2535689E+03  0.7546771E-02  0.1111070E+00
         21   -1    0    0  503  502  0.00000000000E+00  0.00000000000E+00  0.10574061194E+04  0.10574061194E+04  0.00000000000E+00 0. -1.
         21   -1    0    0  501  503 -0.00000000000E+00 -0.00000000000E+00 -0.51836150530E+03  0.51836150530E+03  0.00000000000E+00 0.  1.
          6    1    1    2  501    0 -0.64182109712E+02  0.17392197852E+03 -0.47070899676E+03  0.53466265762E+03  0.17300000000E+03 0.  1.
         -6    1    1    2    0  502  0.64182109712E+02 -0.17392197852E+03  0.10097536109E+04  0.10411049671E+04  0.17300000000E+03 0. -1.
<mgrwt>
<rscale>  2 0.25356892E+03</rscale>
<asrwt>0</asrwt>
<pdfrwt beam="1">  1       21 0.16267786E+00 0.25356892E+03</pdfrwt>
<pdfrwt beam="2">  1       21 0.79747924E-01 0.25356892E+03</pdfrwt>
<totfact> 0.31224050E+02</totfact>
</mgrwt>
</event>
<event>
 4    1  0.4374784E+000  0.2376846E+03  0.7546771E-02  0.1121345E+00
         21   -1    0    0  503  502  0.00000000000E+00  0.00000000000E+00  0.46591707762E+03  0.46591707762E+03  0.00000000000E+00 0. -1.
         21   -1    0    0  501  503 -0.00000000000E+00 -0.00000000000E+00 -0.16239544844E+03  0.16239544844E+03  0.00000000000E+00 0.  1.
          6    1    1    2  501    0 -0.15433119685E+03  0.52410499344E+02 -0.63648374472E+01  0.23776982550E+03  0.17300000000E+03 0.  1.
         -6    1    1    2    0  502  0.15433119685E+03 -0.52410499344E+02  0.30988646663E+03  0.39054270056E+03  0.17300000000E+03 0. -1.
<mgrwt>
<rscale>  2 0.23768462E+03</rscale>
<asrwt>0</asrwt>
<pdfrwt beam="1">  1       21 0.71679550E-01 0.23768462E+03</pdfrwt>
<pdfrwt beam="2">  1       21 0.24983915E-01 0.23768462E+03</pdfrwt>
<totfact> 0.26030378E+04</totfact>
</mgrwt>
</event>
<event>
 4    1  0.4374784E+000  0.2333939E+03  0.7546771E-02  0.1124274E+00
         21   -1    0    0  503  502  0.00000000000E+00  0.00000000000E+00  0.55802460509E+03  0.55802460509E+03  0.00000000000E+00 0.  1.
         21   -1    0    0  501  503 -0.00000000000E+00 -0.00000000000E+00 -0.17817524327E+03  0.17817524327E+03  0.00000000000E+00 0.  1.
          6    1    1    2  501    0  0.15383080909E+03  0.29661209184E+02  0.43743707891E+03  0.49580631618E+03  0.17300000000E+03 0.  1.
         -6    1    1    2    0  502 -0.15383080909E+03 -0.29661209184E+02 -0.57587717096E+02  0.24039353218E+03  0.17300000000E+03 0.  1.
<mgrwt>
<rscale>  2 0.23339388E+03</rscale>
<asrwt>0</asrwt>
<pdfrwt beam="1">  1       21 0.85849938E-01 0.23339388E+03</pdfrwt>
<pdfrwt beam="2">  1       21 0.27411576E-01 0.23339388E+03</pdfrwt>
<totfact> 0.14500907E+04</totfact>
</mgrwt>
</event>
<event>
 4    1  0.4374784E+000  0.2234543E+03  0.7546771E-02  0.1131334E+00
         21   -1    0    0  503  502  0.00000000000E+00  0.00000000000E+00  0.82247547923E+02  0.82247547923E+02  0.00000000000E+00 0.  1.
         21   -1    0    0  501  503 -0.00000000000E+00 -0.00000000000E+00 -0.61656547220E+03  0.61656547220E+03  0.00000000000E+00 0.  1.
          6    1    1    2  501    0  0.13591570056E+03  0.39112107581E+02 -0.31046956627E+03  0.38252213818E+03  0.17300000000E+03 0.  1.
         -6    1    1    2    0  502 -0.13591570056E+03 -0.39112107581E+02 -0.22384835800E+03  0.31629088194E+03  0.17300000000E+03 0.  1.
<mgrwt>
<rscale>  2 0.22345432E+03</rscale>
<asrwt>0</asrwt>
<pdfrwt beam="1">  1       21 0.12653469E-01 0.22345432E+03</pdfrwt>
<pdfrwt beam="2">  1       21 0.94856228E-01 0.22345432E+03</pdfrwt>
<totfact> 0.48857752E+04</totfact>
</mgrwt>
</event>
<event>
 4    1  0.4374784E+000  0.2191880E+03  0.7546771E-02  0.1134490E+00
         21   -1    0    0  503  502  0.00000000000E+00  0.00000000000E+00  0.49028796715E+03  0.49028796715E+03  0.00000000000E+00 0. -1.
         21   -1    0    0  501  503 -0.00000000000E+00 -0.00000000000E+00 -0.10674980347E+03  0.10674980347E+03  0.00000000000E+00 0.  1.
          6    1    1    2  501    0  0.10538312584E+03 -0.83718547271E+02  0.10625623163E+03  0.24358527281E+03  0.17300000000E+03 0.  1.
         -6    1    1    2    0  502 -0.10538312584E+03  0.83718547271E+02  0.27728193205E+03  0.35345249781E+03  0.17300000000E+03 0. -1.
<mgrwt>
<rscale>  2 0.21918804E+03</rscale>
<asrwt>0</asrwt>
<pdfrwt beam="1">  1       21 0.75428917E-01 0.21918804E+03</pdfrwt>
<pdfrwt beam="2">  1       21 0.16423047E-01 0.21918804E+03</pdfrwt>
<totfact> 0.51519009E+04</totfact>
</mgrwt>
</event>
<event>
 4    1  0.4374784E+000  0.2104704E+03  0.7546771E-02  0.1141194E+00
         21   -1    0    0  503  502  0.00000000000E+00  0.00000000000E+00  0.18630136382E+03  0.18630136382E+03  0.00000000000E+00 0.  1.
         21   -1    0    0  501  503 -0.00000000000E+00 -0.00000000000E+00 -0.24930672296E+03  0.24930672296E+03  0.00000000000E+00 0. -1.
          6    1    1    2  501    0  0.71870895361E+02 -0.95934126517E+02  0.15340732805E+02  0.21102871917E+03  0.17300000000E+03 0.  1.
         -6    1    1    2    0  502 -0.71870895361E+02  0.95934126517E+02 -0.78346091943E+02  0.22457936760E+03  0.17300000000E+03 0.  1.
<mgrwt>
<rscale>  2 0.21047038E+03</rscale>
<asrwt>0</asrwt>
<pdfrwt beam="1">  1       21 0.28661749E-01 0.21047038E+03</pdfrwt>
<pdfrwt beam="2">  1       21 0.38354880E-01 0.21047038E+03</pdfrwt>
<totfact> 0.75747508E+04</totfact>
</mgrwt>
</event>
<event>
 4    1  0.4374784E+000  0.1759627E+03  0.7546771E-02  0.1171769E+00
         21   -1    0    0  501  502  0.00000000000E+00  0.00000000000E+00  0.94770678177E+03  0.94770678177E+03  0.00000000000E+00 0. -1.
         21   -1    0    0  502  503 -0.00000000000E+00 -0.00000000000E+00 -0.41371299732E+02  0.41371299732E+02  0.00000000000E+00 0. -1.
          6    1    1    2  501    0  0.32026101501E+02 -0.28661492823E+01  0.67994979574E+03  0.70234935090E+03  0.17300000000E+03 0. -1.
         -6    1    1    2    0  503 -0.32026101501E+02  0.28661492823E+01  0.22638568630E+03  0.28672873060E+03  0.17300000000E+03 0. -1.
<mgrwt>
<rscale>  2 0.17596274E+03</rscale>
<asrwt>0</asrwt>
<pdfrwt beam="1">  1       21 0.14580103E+00 0.17596274E+03</pdfrwt>
<pdfrwt beam="2">  1       21 0.63648160E-02 0.17596274E+03</pdfrwt>
<totfact> 0.57901063E+04</totfact>
</mgrwt>
</event>
<event>
 4    1  0.4374784E+000  0.2080958E+03  0.7546771E-02  0.1143083E+00
         21   -1    0    0  503  502  0.00000000000E+00  0.00000000000E+00  0.10100700555E+03  0.10100700555E+03  0.00000000000E+00 0.  1.
         21   -1    0    0  501  503 -0.00000000000E+00 -0.00000000000E+00 -0.56904121666E+03  0.56904121666E+03  0.00000000000E+00 0.  1.
          6    1    1    2  501    0  0.10078344280E+03  0.56723601736E+02 -0.40038274618E+03  0.45123188360E+03  0.17300000000E+03 0.  1.
         -6    1    1    2    0  502 -0.10078344280E+03 -0.56723601736E+02 -0.67651464920E+02  0.21881633861E+03  0.17300000000E+03 0.  1.
<mgrwt>
<rscale>  2 0.20809582E+03</rscale>
<asrwt>0</asrwt>
<pdfrwt beam="1">  1       21 0.15539539E-01 0.20809582E+03</pdfrwt>
<pdfrwt beam="2">  1       21 0.87544802E-01 0.20809582E+03</pdfrwt>
<totfact> 0.40855536E+04</totfact>
</mgrwt>
</event>
<event>
 4    1  0.4374784E+000  0.3057103E+03  0.7546771E-02  0.1082420E+00
         21   -1    0    0  501  502  0.00000000000E+00  0.00000000000E+00  0.54546576977E+03  0.54546576977E+03  0.00000000000E+00 0.  1.
         21   -1    0    0  502  503 -0.00000000000E+00 -0.00000000000E+00 -0.22701148565E+03  0.22701148565E+03  0.00000000000E+00 0.  1.
          6    1    1    2  501    0 -0.24423492813E+03  0.62282468656E+02  0.35050182200E+03  0.46509174713E+03  0.17300000000E+03 0.  1.
         -6    1    1    2    0  503  0.24423492813E+03 -0.62282468656E+02 -0.32047537885E+02  0.30738550829E+03  0.17300000000E+03 0.  1.
<mgrwt>
<rscale>  2 0.30571033E+03</rscale>
<asrwt>0</asrwt>
<pdfrwt beam="1">  1       21 0.83917811E-01 0.30571033E+03</pdfrwt>
<pdfrwt beam="2">  1       21 0.34924844E-01 0.30571033E+03</pdfrwt>
<totfact> 0.91420316E+03</totfact>
</mgrwt>
</event>
<event>
 4    1  0.4374784E+000  0.1830355E+03  0.7546771E-02  0.1164897E+00
         21   -1    0    0  503  502  0.00000000000E+00  0.00000000000E+00  0.49681659727E+02  0.49681659727E+02  0.00000000000E+00 0. -1.
         21   -1    0    0  501  503 -0.00000000000E+00 -0.00000000000E+00 -0.67433698897E+03  0.67433698897E+03  0.00000000000E+00 0. -1.
          6    1    1    2  501    0  0.56398315606E+02 -0.19805019055E+02 -0.31150730723E+03  0.36130155167E+03  0.17300000000E+03 0. -1.
         -6    1    1    2    0  502 -0.56398315606E+02  0.19805019055E+02 -0.31314802201E+03  0.36271709702E+03  0.17300000000E+03 0. -1.
<mgrwt>
<rscale>  2 0.18303554E+03</rscale>
<asrwt>0</asrwt>
<pdfrwt beam="1">  1       21 0.76433320E-02 0.18303554E+03</pdfrwt>
<pdfrwt beam="2">  1       21 0.10374416E+00 0.18303554E+03</pdfrwt>
<totfact> 0.98079671E+04</totfact>
</mgrwt>
</event>
<event>
 4    1  0.4374784E+000  0.1988016E+03  0.7546771E-02  0.1150754E+00
         21   -1    0    0  503  502  0.00000000000E+00  0.00000000000E+00  0.15423145711E+03  0.15423145711E+03  0.00000000000E+00 0.  1.
         21   -1    0    0  501  503 -0.00000000000E+00 -0.00000000000E+00 -0.27137597058E+03  0.27137597058E+03  0.00000000000E+00 0.  1.
          6    1    1    2  501    0  0.87908037532E+02  0.43188793781E+02 -0.10880983425E+03  0.22663114305E+03  0.17300000000E+03 0.  1.
         -6    1    1    2    0  502 -0.87908037532E+02 -0.43188793781E+02 -0.83346792167E+01  0.19897628464E+03  0.17300000000E+03 0.  1.
<mgrwt>
<rscale>  2 0.19880165E+03</rscale>
<asrwt>0</asrwt>
<pdfrwt beam="1">  1       21 0.23727916E-01 0.19880165E+03</pdfrwt>
<pdfrwt beam="2">  1       21 0.41750149E-01 0.19880165E+03</pdfrwt>
<totfact> 0.92164894E+04</totfact>
</mgrwt>
</event>
<event>
 4    1  0.4374784E+000  0.1968001E+03  0.7546771E-02  0.1152467E+00
         21   -1    0    0  501  502  0.00000000000E+00  0.00000000000E+00  0.65334815767E+03  0.65334815767E+03  0.00000000000E+00 0.  1.
         21   -1    0    0  502  503 -0.00000000000E+00 -0.00000000000E+00 -0.18007117960E+03  0.18007117960E+03  0.00000000000E+00 0.  1.
          6    1    1    2  501    0 -0.48417733526E+02 -0.80355434472E+02  0.57793327266E+03  0.61052202288E+03  0.17300000000E+03 0.  1.
         -6    1    1    2    0  503  0.48417733526E+02  0.80355434472E+02 -0.10465629459E+03  0.22289731440E+03  0.17300000000E+03 0.  1.
<mgrwt>
<rscale>  2 0.19680008E+03</rscale>
<asrwt>0</asrwt>
<pdfrwt beam="1">  1       21 0.10051510E+00 0.19680008E+03</pdfrwt>
<pdfrwt beam="2">  1       21 0.27703259E-01 0.19680008E+03</pdfrwt>
<totfact> 0.10056971E+04</totfact>
</mgrwt>
</event>
<event>
 4    1  0.4374784E+000  0.1893191E+03  0.7546771E-02  0.1159077E+00
         21   -1    0    0  501  502  0.00000000000E+00  0.00000000000E+00  0.28241642684E+03  0.28241642684E+03  0.00000000000E+00 0.  1.
         21   -1    0    0  502  503 -0.00000000000E+00 -0.00000000000E+00 -0.16477167119E+03  0.16477167119E+03  0.00000000000E+00 0. -1.
          6    1    1    2  501    0  0.66985391431E+02 -0.37758237391E+02  0.16600234233E+03  0.25179059715E+03  0.17300000000E+03 0.  1.
         -6    1    1    2    0  503 -0.66985391431E+02  0.37758237391E+02 -0.48357586679E+02  0.19539750087E+03  0.17300000000E+03 0. -1.
<mgrwt>
<rscale>  2 0.18931911E+03</rscale>
<asrwt>0</asrwt>
<pdfrwt beam="1">  1       21 0.43448681E-01 0.18931911E+03</pdfrwt>
<pdfrwt beam="2">  1       21 0.25349488E-01 0.18931911E+03</pdfrwt>
<totfact> 0.75209816E+04</totfact>
</mgrwt>
</event>
<event>
 4    1  0.4374784E+000  0.2375102E+03  0.7546771E-02  0.1121463E+00
         21   -1    0    0  503  502  0.00000000000E+00  0.00000000000E+00  0.84740955666E+02  0.84740955666E+02  0.00000000000E+00 0.  1.
         21   -1    0    0  501  503 -0.00000000000E+00 -0.00000000000E+00 -0.11147211253E+04  0.11147211253E+04  0.00000000000E+00 0. -1.
          6    1    1    2  501    0 -0.16022464895E+03 -0.28463526247E+02 -0.89562812112E+03  0.92658558255E+03  0.17300000000E+03 0. -1.
         -6    1    1    2    0  502  0.16022464895E+03  0.28463526247E+02 -0.13435204856E+03  0.27287649846E+03  0.17300000000E+03 0.  1.
<mgrwt>
<rscale>  2 0.23751023E+03</rscale>
<asrwt>0</asrwt>
<pdfrwt beam="1">  1       21 0.13037070E-01 0.23751023E+03</pdfrwt>
<pdfrwt beam="2">  1       21 0.17149555E+00 0.23751023E+03</pdfrwt>
<totfact> 0.10193528E+04</totfact>
</mgrwt>
</event>
<event>
 4    1  0.4374784E+000  0.1908756E+03  0.7546771E-02  0.1157674E+00
         21   -1    0    0  503  502  0.00000000000E+00  0.00000000000E+00  0.36953434115E+03  0.36953434115E+03  0.00000000000E+00 0.  1.
         21   -1    0    0  501  503 -0.00000000000E+00 -0.00000000000E+00 -0.11210155995E+03  0.11210155995E+03  0.00000000000E+00 0.  1.
          6    1    1    2  501    0 -0.49432705986E+02  0.63725180484E+02  0.45119925413E+02  0.19613591899E+03  0.17300000000E+03 0.  1.
         -6    1    1    2    0  502  0.49432705986E+02 -0.63725180484E+02  0.21231285579E+03  0.28549998211E+03  0.17300000000E+03 0.  1.
<mgrwt>
<rscale>  2 0.19087559E+03</rscale>
<asrwt>0</asrwt>
<pdfrwt beam="1">  1       21 0.56851437E-01 0.19087559E+03</pdfrwt>
<pdfrwt beam="2">  1       21 0.17246394E-01 0.19087559E+03</pdfrwt>
<totfact> 0.88403844E+04</totfact>
</mgrwt>
</event>
<event>
 4    1  0.4374784E+000  0.2636122E+03  0.7546771E-02  0.1104992E+00
         21   -1    0    0  501  502  0.00000000000E+00  0.00000000000E+00  0.86518671919E+03  0.86518671919E+03  0.00000000000E+00 0.  1.
         21   -1    0    0  502  503 -0.00000000000E+00 -0.00000000000E+00 -0.16941955243E+03  0.16941955243E+03  0.00000000000E+00 0.  1.
          6    1    1    2  501    0 -0.35879982053E+02  0.19563997596E+03  0.72303129491E+03  0.76958795906E+03  0.17300000000E+03 0.  1.
         -6    1    1    2    0  503  0.35879982053E+02 -0.19563997596E+03 -0.27264128151E+02  0.26501831256E+03  0.17300000000E+03 0.  1.
<mgrwt>
<rscale>  2 0.26361216E+03</rscale>
<asrwt>0</asrwt>
<pdfrwt beam="1">  1       21 0.13310565E+00 0.26361216E+03</pdfrwt>
<pdfrwt beam="2">  1       21 0.26064547E-01 0.26361216E+03</pdfrwt>
<totfact> 0.54153292E+03</totfact>
</mgrwt>
</event>
<event>
 4    1  0.4374784E+000  0.1810534E+03  0.7546771E-02  0.1166787E+00
         21   -1    0    0  503  502  0.00000000000E+00  0.00000000000E+00  0.18475746190E+03  0.18475746190E+03  0.00000000000E+00 0.  1.
         21   -1    0    0  501  503 -0.00000000000E+00 -0.00000000000E+00 -0.76537170740E+03  0.76537170740E+03  0.00000000000E+00 0.  1.
          6    1    1    2  501    0 -0.52491631099E+02  0.97958331944E+01 -0.70668338338E+03  0.72950787112E+03  0.17300000000E+03 0.  1.
         -6    1    1    2    0  502  0.52491631099E+02 -0.97958331944E+01  0.12606913788E+03  0.22062129817E+03  0.17300000000E+03 0.  1.
<mgrwt>
<rscale>  2 0.18105339E+03</rscale>
<asrwt>0</asrwt>
<pdfrwt beam="1">  1       21 0.28424225E-01 0.18105339E+03</pdfrwt>
<pdfrwt beam="2">  1       21 0.11774949E+00 0.18105339E+03</pdfrwt>
<totfact> 0.66082476E+03</totfact>
</mgrwt>
</event>
<event>
 4    1  0.4374784E+000  0.1769090E+03  0.7546771E-02  0.1170829E+00
         21   -1    0    0  501  502  0.00000000000E+00  0.00000000000E+00  0.35596617480E+03  0.35596617480E+03  0.00000000000E+00 0.  1.
         21   -1    0    0  502  503 -0.00000000000E+00 -0.00000000000E+00 -0.18961201796E+03  0.18961201796E+03  0.00000000000E+00 0.  1.
          6    1    1    2  501    0  0.97579983121E+00 -0.36970606173E+02  0.28294976918E+03  0.33370248693E+03  0.17300000000E+03 0.  1.
         -6    1    1    2    0  503 -0.97579983121E+00  0.36970606173E+02 -0.11659561233E+03  0.21187570583E+03  0.17300000000E+03 0.  1.
<mgrwt>
<rscale>  2 0.17690895E+03</rscale>
<asrwt>0</asrwt>
<pdfrwt beam="1">  1       21 0.54764027E-01 0.17690895E+03</pdfrwt>
<pdfrwt beam="2">  1       21 0.29171080E-01 0.17690895E+03</pdfrwt>
<totfact> 0.35713662E+04</totfact>
</mgrwt>
</event>
<event>
 4    1  0.4374784E+000  0.1811001E+03  0.7546771E-02  0.1166743E+00
         21   -1    0    0  501  502  0.00000000000E+00  0.00000000000E+00  0.69907311667E+02  0.69907311667E+02  0.00000000000E+00 0. -1.
         21   -1    0    0  502  503 -0.00000000000E+00 -0.00000000000E+00 -0.80258762520E+03  0.80258762520E+03  0.00000000000E+00 0. -1.
          6    1    1    2  501    0  0.52246623220E+02  0.11770148459E+02 -0.85155355386E+02  0.20012166445E+03  0.17300000000E+03 0. -1.
         -6    1    1    2    0  503 -0.52246623220E+02 -0.11770148459E+02 -0.64752495814E+03  0.67237327241E+03  0.17300000000E+03 0. -1.
<mgrwt>
<rscale>  2 0.18110010E+03</rscale>
<asrwt>0</asrwt>
<pdfrwt beam="1">  1       21 0.10754972E-01 0.18110010E+03</pdfrwt>
<pdfrwt beam="2">  1       21 0.12347501E+00 0.18110010E+03</pdfrwt>
<totfact> 0.35317942E+04</totfact>
</mgrwt>
</event>
<event>
 4    1  0.4374784E+000  0.2044939E+03  0.7546771E-02  0.1146002E+00
         21   -1    0    0  501  502  0.00000000000E+00  0.00000000000E+00  0.34802361650E+03  0.34802361650E+03  0.00000000000E+00 0.  1.
         21   -1    0    0  502  503 -0.00000000000E+00 -0.00000000000E+00 -0.14655629415E+03  0.14655629415E+03  0.00000000000E+00 0.  1.
          6    1    1    2  501    0  0.93212795113E+01 -0.10863642603E+03  0.20568636837E+03  0.29004248214E+03  0.17300000000E+03 0.  1.
         -6    1    1    2    0  503 -0.93212795113E+01  0.10863642603E+03 -0.42190460159E+01  0.20453742851E+03  0.17300000000E+03 0.  1.
<mgrwt>
<rscale>  2 0.20449391E+03</rscale>
<asrwt>0</asrwt>
<pdfrwt beam="1">  1       21 0.53542095E-01 0.20449391E+03</pdfrwt>
<pdfrwt beam="2">  1       21 0.22547122E-01 0.20449391E+03</pdfrwt>
<totfact> 0.60502129E+04</totfact>
</mgrwt>
</event>
<event>
 4    1  0.4374784E+000  0.1901181E+03  0.7546771E-02  0.1158355E+00
         21   -1    0    0  503  502  0.00000000000E+00  0.00000000000E+00  0.31205882938E+03  0.31205882938E+03  0.00000000000E+00 0. -1.
         21   -1    0    0  501  503 -0.00000000000E+00 -0.00000000000E+00 -0.11637663123E+03  0.11637663123E+03  0.00000000000E+00 0. -1.
          6    1    1    2  501    0  0.55956514361E+02 -0.55540788416E+02  0.83122508315E+02  0.20749520974E+03  0.17300000000E+03 0. -1.
         -6    1    1    2    0  502 -0.55956514361E+02  0.55540788416E+02  0.11255968983E+03  0.22094025087E+03  0.17300000000E+03 0. -1.
<mgrwt>
<rscale>  2 0.19011815E+03</rscale>
<asrwt>0</asrwt>
<pdfrwt beam="1">  1       21 0.48009050E-01 0.19011815E+03</pdfrwt>
<pdfrwt beam="2">  1       21 0.17904097E-01 0.19011815E+03</pdfrwt>
<totfact> 0.11767462E+05</totfact>
</mgrwt>
</event>
<event>
 4    1  0.4374784E+000  0.1738725E+03  0.7546771E-02  0.1173869E+00
         21   -1    0    0  503  502  0.00000000000E+00  0.00000000000E+00  0.60783611857E+02  0.60783611857E+02  0.00000000000E+00 0. -1.
         21   -1    0    0  501  503 -0.00000000000E+00 -0.00000000000E+00 -0.83917882195E+03  0.83917882195E+03  0.00000000000E+00 0. -1.
          6    1    1    2  501    0 -0.41814678079E+01  0.16886479172E+02 -0.67638275055E+03  0.69837329781E+03  0.17300000000E+03 0. -1.
         -6    1    1    2    0  502  0.41814678079E+01 -0.16886479172E+02 -0.10201245955E+03  0.20158913601E+03  0.17300000000E+03 0. -1.
<mgrwt>
<rscale>  2 0.17387248E+03</rscale>
<asrwt>0</asrwt>
<pdfrwt beam="1">  1       21 0.93513250E-02 0.17387248E+03</pdfrwt>
<pdfrwt beam="2">  1       21 0.12910443E+00 0.17387248E+03</pdfrwt>
<totfact> 0.40599311E+04</totfact>
</mgrwt>
</event>
<event>
 4    1  0.4374784E+000  0.2063607E+03  0.7546771E-02  0.1144481E+00
         21   -1    0    0  503  502  0.00000000000E+00  0.00000000000E+00  0.44592789243E+03  0.44592789243E+03  0.00000000000E+00 0.  1.
         21   -1    0    0  501  503 -0.00000000000E+00 -0.00000000000E+00 -0.96188088947E+02  0.96188088947E+02  0.00000000000E+00 0. -1.
          6    1    1    2  501    0  0.67196461582E+02  0.90223971331E+02  0.15189247997E+03  0.25623437498E+03  0.17300000000E+03 0. -1.
         -6    1    1    2    0  502 -0.67196461582E+02 -0.90223971331E+02  0.19784732351E+03  0.28588160639E+03  0.17300000000E+03 0.  1.
<mgrwt>
<rscale>  2 0.20636068E+03</rscale>
<asrwt>0</asrwt>
<pdfrwt beam="1">  1       21 0.68604290E-01 0.20636068E+03</pdfrwt>
<pdfrwt beam="2">  1       21 0.14798168E-01 0.20636068E+03</pdfrwt>
<totfact> 0.77407960E+04</totfact>
</mgrwt>
</event>
<event>
 4    1  0.4374784E+000  0.1892546E+03  0.7546771E-02  0.1159135E+00
         21   -1    0    0  503  502  0.00000000000E+00  0.00000000000E+00  0.33438159105E+03  0.33438159105E+03  0.00000000000E+00 0.  1.
         21   -1    0    0  501  503 -0.00000000000E+00 -0.00000000000E+00 -0.10831914637E+03  0.10831914637E+03  0.00000000000E+00 0.  1.
          6    1    1    2  501    0  0.26767973616E+02  0.71915066022E+02  0.89693519641E+02  0.20943311247E+03  0.17300000000E+03 0.  1.
         -6    1    1    2    0  502 -0.26767973616E+02 -0.71915066022E+02  0.13636892505E+03  0.23326762495E+03  0.17300000000E+03 0.  1.
<mgrwt>
<rscale>  2 0.18925459E+03</rscale>
<asrwt>0</asrwt>
<pdfrwt beam="1">  1       21 0.51443321E-01 0.18925459E+03</pdfrwt>
<pdfrwt beam="2">  1       21 0.16664484E-01 0.18925459E+03</pdfrwt>
<totfact> 0.11633557E+05</totfact>
</mgrwt>
</event>
<event>
 4    1  0.4374784E+000  0.1837140E+03  0.7546771E-02  0.1164256E+00
         21   -1    0    0  501  502  0.00000000000E+00  0.00000000000E+00  0.65505228917E+03  0.65505228917E+03  0.00000000000E+00 0. -1.
         21   -1    0    0  502  503 -0.00000000000E+00 -0.00000000000E+00 -0.12449897178E+03  0.12449897178E+03  0.00000000000E+00 0. -1.
          6    1    1    2  501    0  0.44483753504E+02  0.42930517146E+02  0.56369061742E+03  0.59287262190E+03  0.17300000000E+03 0. -1.
         -6    1    1    2    0  503 -0.44483753504E+02 -0.42930517146E+02 -0.33137300024E+02  0.18667863906E+03  0.17300000000E+03 0. -1.
<mgrwt>
<rscale>  2 0.18371400E+03</rscale>
<asrwt>0</asrwt>
<pdfrwt beam="1">  1       21 0.10077727E+00 0.18371400E+03</pdfrwt>
<pdfrwt beam="2">  1       21 0.19153688E-01 0.18371400E+03</pdfrwt>
<totfact> 0.20277152E+04</totfact>
</mgrwt>
</event>
<event>
 4    1  0.4374784E+000  0.1837792E+03  0.7546771E-02  0.1164195E+00
         21   -1    0    0  503  502  0.00000000000E+00  0.00000000000E+00  0.70117459540E+02  0.70117459540E+02  0.00000000000E+00 0. -1.
         21   -1    0    0  501  503 -0.00000000000E+00 -0.00000000000E+00 -0.79866898796E+03  0.79866898796E+03  0.00000000000E+00 0. -1.
          6    1    1    2  501    0 -0.62119426263E+01  0.61702638467E+02 -0.63793846192E+03  0.66388273439E+03  0.17300000000E+03 0. -1.
         -6    1    1    2    0  502  0.62119426263E+01 -0.61702638467E+02 -0.90613066499E+02  0.20490371311E+03  0.17300000000E+03 0. -1.
<mgrwt>
<rscale>  2 0.18377923E+03</rscale>
<asrwt>0</asrwt>
<pdfrwt beam="1">  1       21 0.10787302E-01 0.18377923E+03</pdfrwt>
<pdfrwt beam="2">  1       21 0.12287215E+00 0.18377923E+03</pdfrwt>
<totfact> 0.35506622E+04</totfact>
</mgrwt>
</event>
<event>
 4    1  0.4374784E+000  0.1826753E+03  0.7546771E-02  0.1165239E+00
         21   -1    0    0  501  502  0.00000000000E+00  0.00000000000E+00  0.81035954181E+03  0.81035954181E+03  0.00000000000E+00 0.  1.
         21   -1    0    0  502  503 -0.00000000000E+00 -0.00000000000E+00 -0.14884717995E+03  0.14884717995E+03  0.00000000000E+00 0.  1.
          6    1    1    2  501    0 -0.49172705642E+02 -0.31988954269E+02  0.73865690077E+03  0.76091015582E+03  0.17300000000E+03 0.  1.
         -6    1    1    2    0  503  0.49172705642E+02  0.31988954269E+02 -0.77144538920E+02  0.19829656593E+03  0.17300000000E+03 0.  1.
<mgrwt>
<rscale>  2 0.18267525E+03</rscale>
<asrwt>0</asrwt>
<pdfrwt beam="1">  1       21 0.12467070E+00 0.18267525E+03</pdfrwt>
<pdfrwt beam="2">  1       21 0.22899567E-01 0.18267525E+03</pdfrwt>
<totfact> 0.86579509E+03</totfact>
</mgrwt>
</event>
<event>
 4    1  0.4374784E+000  0.2439049E+03  0.7546771E-02  0.1117218E+00
         21   -1    0    0  503  502  0.00000000000E+00  0.00000000000E+00  0.60251590071E+03  0.60251590071E+03  0.00000000000E+00 0. -1.
         21   -1    0    0  501  503 -0.00000000000E+00 -0.00000000000E+00 -0.18930701950E+03  0.18930701950E+03  0.00000000000E+00 0.  1.
          6    1    1    2  501    0 -0.53716547314E+02  0.16332528222E+03 -0.67244403986E+02  0.25300479271E+03  0.17300000000E+03 0.  1.
         -6    1    1    2    0  502  0.53716547314E+02 -0.16332528222E+03  0.48045328520E+03  0.53881812750E+03  0.17300000000E+03 0. -1.
<mgrwt>
<rscale>  2 0.24390493E+03</rscale>
<asrwt>0</asrwt>
<pdfrwt beam="1">  1       21 0.92694753E-01 0.24390493E+03</pdfrwt>
<pdfrwt beam="2">  1       21 0.29124157E-01 0.24390493E+03</pdfrwt>
<totfact> 0.10719979E+04</totfact>
</mgrwt>
</event>
<event>
 4    1  0.4374784E+000  0.1928913E+03  0.7546771E-02  0.1155879E+00
         21   -1    0    0  501  502  0.00000000000E+00  0.00000000000E+00  0.97102096589E+03  0.97102096589E+03  0.00000000000E+00 0. -1.
         21   -1    0    0  502  503 -0.00000000000E+00 -0.00000000000E+00 -0.78489516558E+02  0.78489516558E+02  0.00000000000E+00 0.  1.
          6    1    1    2  501    0  0.29121210041E+02  0.80187289640E+02  0.82168196006E+03  0.84401912880E+03  0.17300000000E+03 0. -1.
         -6    1    1    2    0  503 -0.29121210041E+02 -0.80187289640E+02  0.70849489275E+02  0.20549135365E+03  0.17300000000E+03 0.  1.
<mgrwt>
<rscale>  2 0.19289128E+03</rscale>
<asrwt>0</asrwt>
<pdfrwt beam="1">  1       21 0.14938783E+00 0.19289128E+03</pdfrwt>
<pdfrwt beam="2">  1       21 0.12075311E-01 0.19289128E+03</pdfrwt>
<totfact> 0.17530487E+04</totfact>
</mgrwt>
</event>
<event>
 4    1  0.4374784E+000  0.1767066E+03  0.7546771E-02  0.1171029E+00
         21   -1    0    0  503  502  0.00000000000E+00  0.00000000000E+00  0.52122291352E+03  0.52122291352E+03  0.00000000000E+00 0. -1.
         21   -1    0    0  501  503 -0.00000000000E+00 -0.00000000000E+00 -0.62218964522E+02  0.62218964522E+02  0.00000000000E+00 0. -1.
          6    1    1    2  501    0 -0.14592352297E+02  0.32913244426E+02  0.17327566131E+03  0.24748671319E+03  0.17300000000E+03 0.  1.
         -6    1    1    2    0  502  0.14592352297E+02 -0.32913244426E+02  0.28572828769E+03  0.33595516485E+03  0.17300000000E+03 0.  1.
<mgrwt>
<rscale>  2 0.17670659E+03</rscale>
<asrwt>0</asrwt>
<pdfrwt beam="1">  1       21 0.80188138E-01 0.17670659E+03</pdfrwt>
<pdfrwt beam="2">  1       21 0.95721487E-02 0.17670659E+03</pdfrwt>
<totfact> 0.12062874E+05</totfact>
</mgrwt>
</event>
<event>
 4    1  0.4374784E+000  0.1736496E+03  0.7546771E-02  0.1174094E+00
         21   -1    0    0  501  502  0.00000000000E+00  0.00000000000E+00  0.25955670961E+03  0.25955670961E+03  0.00000000000E+00 0. -1.
         21   -1    0    0  502  503 -0.00000000000E+00 -0.00000000000E+00 -0.17609176605E+03  0.17609176605E+03  0.00000000000E+00 0. -1.
          6    1    1    2  501    0 -0.98144972611E+01  0.11351191287E+02  0.16879235244E+03  0.24216736391E+03  0.17300000000E+03 0. -1.
         -6    1    1    2    0  503  0.98144972611E+01 -0.11351191287E+02 -0.85327408882E+02  0.19348111176E+03  0.17300000000E+03 0. -1.
<mgrwt>
<rscale>  2 0.17364957E+03</rscale>
<asrwt>0</asrwt>
<pdfrwt beam="1">  1       21 0.39931802E-01 0.17364957E+03</pdfrwt>
<pdfrwt beam="2">  1       21 0.27091041E-01 0.17364957E+03</pdfrwt>
<totfact> 0.79103138E+04</totfact>
</mgrwt>
</event>
<event>
 4    1  0.4374784E+000  0.1951503E+03  0.7546771E-02  0.1153896E+00
         21   -1    0    0  501  502  0.00000000000E+00  0.00000000000E+00  0.28248493155E+03  0.28248493155E+03  0.00000000000E+00 0. -1.
         21   -1    0    0  502  503 -0.00000000000E+00 -0.00000000000E+00 -0.13491905630E+03  0.13491905630E+03  0.00000000000E+00 0. -1.
          6    1    1    2  501    0  0.30611370489E+02 -0.84956359673E+02  0.68029842413E+02  0.20666808779E+03  0.17300000000E+03 0. -1.
         -6    1    1    2    0  503 -0.30611370489E+02  0.84956359673E+02  0.79536032843E+02  0.21073590006E+03  0.17300000000E+03 0. -1.
<mgrwt>
<rscale>  2 0.19515030E+03</rscale>
<asrwt>0</asrwt>
<pdfrwt beam="1">  1       21 0.43459220E-01 0.19515030E+03</pdfrwt>
<pdfrwt beam="2">  1       21 0.20756778E-01 0.19515030E+03</pdfrwt>
<totfact> 0.10948601E+05</totfact>
</mgrwt>
</event>
<event>
 4    1  0.4374784E+000  0.1914800E+03  0.7546771E-02  0.1157133E+00
         21   -1    0    0  503  502  0.00000000000E+00  0.00000000000E+00  0.11474056891E+03  0.11474056891E+03  0.00000000000E+00 0.  1.
         21   -1    0    0  501  503 -0.00000000000E+00 -0.00000000000E+00 -0.46396168832E+03  0.46396168832E+03  0.00000000000E+00 0.  1.
          6    1    1    2  501    0 -0.98717005679E-01 -0.82070656961E+02 -0.33604458411E+03  0.38676939510E+03  0.17300000000E+03 0.  1.
         -6    1    1    2    0  502  0.98717005679E-01  0.82070656961E+02 -0.13176535304E+02  0.19193286212E+03  0.17300000000E+03 0.  1.
<mgrwt>
<rscale>  2 0.19148003E+03</rscale>
<asrwt>0</asrwt>
<pdfrwt beam="1">  1       21 0.17652396E-01 0.19148003E+03</pdfrwt>
<pdfrwt beam="2">  1       21 0.71378720E-01 0.19148003E+03</pdfrwt>
<totfact> 0.51686778E+04</totfact>
</mgrwt>
</event>
<event>
 4    1  0.4374784E+000  0.1806347E+03  0.7546771E-02  0.1167190E+00
         21   -1    0    0  501  502  0.00000000000E+00  0.00000000000E+00  0.17816709145E+04  0.17816709145E+04  0.00000000000E+00 0. -1.
         21   -1    0    0  502  503 -0.00000000000E+00 -0.00000000000E+00 -0.33608112216E+02  0.33608112216E+02  0.00000000000E+00 0. -1.
          6    1    1    2  501    0  0.32299161784E+02 -0.40702288157E+02  0.14863230335E+04  0.14972591867E+04  0.17300000000E+03 0. -1.
         -6    1    1    2    0  503 -0.32299161784E+02  0.40702288157E+02  0.26173976882E+03  0.31801984010E+03  0.17300000000E+03 0. -1.
<mgrwt>
<rscale>  2 0.18063475E+03</rscale>
<asrwt>0</asrwt>
<pdfrwt beam="1">  1       21 0.27410314E+00 0.18063475E+03</pdfrwt>
<pdfrwt beam="2">  1       21 0.51704802E-02 0.18063475E+03</pdfrwt>
<totfact> 0.12380727E+04</totfact>
</mgrwt>
</event>
<event>
 4    1  0.4374784E+000  0.2087647E+03  0.7546771E-02  0.1142548E+00
         21   -1    0    0  501  502  0.00000000000E+00  0.00000000000E+00  0.33724221800E+03  0.33724221800E+03  0.00000000000E+00 0. -1.
         21   -1    0    0  502  503 -0.00000000000E+00 -0.00000000000E+00 -0.14389338737E+03  0.14389338737E+03  0.00000000000E+00 0.  1.
          6    1    1    2  501    0 -0.40423357579E+02 -0.10963421291E+03  0.17346268128E+03  0.27142588357E+03  0.17300000000E+03 0. -1.
         -6    1    1    2    0  503  0.40423357579E+02  0.10963421291E+03  0.19886149358E+02  0.20970972179E+03  0.17300000000E+03 0.  1.
<mgrwt>
<rscale>  2 0.20876472E+03</rscale>
<asrwt>0</asrwt>
<pdfrwt beam="1">  1       21 0.51883418E-01 0.20876472E+03</pdfrwt>
<pdfrwt beam="2">  1       21 0.22137444E-01 0.20876472E+03</pdfrwt>
<totfact> 0.66798757E+04</totfact>
</mgrwt>
</event>
<event>
 4    1  0.4374784E+000  0.2282081E+03  0.7546771E-02  0.1127907E+00
         21   -1    0    0  501  502  0.00000000000E+00  0.00000000000E+00  0.32067046499E+03  0.32067046499E+03  0.00000000000E+00 0.  1.
         21   -1    0    0  502  503 -0.00000000000E+00 -0.00000000000E+00 -0.16791693132E+03  0.16791693132E+03  0.00000000000E+00 0.  1.
          6    1    1    2  501    0 -0.41600624634E+01 -0.14877033906E+03  0.12063190605E+03  0.25812976710E+03  0.17300000000E+03 0.  1.
         -6    1    1    2    0  503  0.41600624634E+01  0.14877033906E+03  0.32121627622E+02  0.23045762922E+03  0.17300000000E+03 0.  1.
<mgrwt>
<rscale>  2 0.22820806E+03</rscale>
<asrwt>0</asrwt>
<pdfrwt beam="1">  1       21 0.49333917E-01 0.22820806E+03</pdfrwt>
<pdfrwt beam="2">  1       21 0.25833374E-01 0.22820806E+03</pdfrwt>
<totfact> 0.54847182E+04</totfact>
</mgrwt>
</event>
<event>
 4    1  0.4374784E+000  0.1877258E+03  0.7546771E-02  0.1160529E+00
         21   -1    0    0  501  502  0.00000000000E+00  0.00000000000E+00  0.15765120784E+03  0.15765120784E+03  0.00000000000E+00 0. -1.
         21   -1    0    0  502  503 -0.00000000000E+00 -0.00000000000E+00 -0.24286499873E+03  0.24286499873E+03  0.00000000000E+00 0. -1.
          6    1    1    2  501    0 -0.24690681448E+02  0.68573770297E+02  0.13885888439E+02  0.18823870383E+03  0.17300000000E+03 0. -1.
         -6    1    1    2    0  503  0.24690681448E+02 -0.68573770297E+02 -0.99099679331E+02  0.21227750273E+03  0.17300000000E+03 0. -1.
<mgrwt>
<rscale>  2 0.18772584E+03</rscale>
<asrwt>0</asrwt>
<pdfrwt beam="1">  1       21 0.24254032E-01 0.18772584E+03</pdfrwt>
<pdfrwt beam="2">  1       21 0.37363846E-01 0.18772584E+03</pdfrwt>
<totfact> 0.11105702E+05</totfact>
</mgrwt>
</event>
<event>
 4    1  0.4374784E+000  0.1919003E+03  0.7546771E-02  0.1156758E+00
         21   -1    0    0  501  502  0.00000000000E+00  0.00000000000E+00  0.63861465296E+03  0.63861465296E+03  0.00000000000E+00 0.  1.
         21   -1    0    0  502  503 -0.00000000000E+00 -0.00000000000E+00 -0.57872613337E+02  0.57872613337E+02  0.00000000000E+00 0.  1.
          6    1    1    2  501    0 -0.53290916298E+02 -0.63693078986E+02  0.31122782959E+03  0.36563436925E+03  0.17300000000E+03 0.  1.
         -6    1    1    2    0  503  0.53290916298E+02  0.63693078986E+02  0.26951421004E+03  0.33085289704E+03  0.17300000000E+03 0.  1.
<mgrwt>
<rscale>  2 0.19190031E+03</rscale>
<asrwt>0</asrwt>
<pdfrwt beam="1">  1       21 0.98248403E-01 0.19190031E+03</pdfrwt>
<pdfrwt beam="2">  1       21 0.89034794E-02 0.19190031E+03</pdfrwt>
<totfact> 0.85241709E+04</totfact>
</mgrwt>
</event>
<event>
 4    1  0.4374784E+000  0.2124053E+03  0.7546771E-02  0.1139675E+00
         21   -1    0    0  503  502  0.00000000000E+00  0.00000000000E+00  0.44022499264E+02  0.44022499264E+02  0.00000000000E+00 0. -1.
         21   -1    0    0  501  503 -0.00000000000E+00 -0.00000000000E+00 -0.10608856378E+04  0.10608856378E+04  0.00000000000E+00 0.  1.
          6    1    1    2  501    0 -0.92265278958E+02  0.81695322231E+02 -0.61026484682E+03  0.64617272508E+03  0.17300000000E+03 0.  1.
         -6    1    1    2    0  502  0.92265278958E+02 -0.81695322231E+02 -0.40659829168E+03  0.45873541195E+03  0.17300000000E+03 0. -1.
<mgrwt>
<rscale>  2 0.21240529E+03</rscale>
<asrwt>0</asrwt>
<pdfrwt beam="1">  1       21 0.67726918E-02 0.21240529E+03</pdfrwt>
<pdfrwt beam="2">  1       21 0.16321318E+00 0.21240529E+03</pdfrwt>
<totfact> 0.37735463E+04</totfact>
</mgrwt>
</event>
<event>
 4    1  0.4374784E+000  0.5917182E+03  0.7546771E-02  0.9922739E-01
         21   -1    0    0  503  502  0.00000000000E+00  0.00000000000E+00  0.42043462123E+03  0.42043462123E+03  0.00000000000E+00 0.  1.
         21   -1    0    0  501  503 -0.00000000000E+00 -0.00000000000E+00 -0.99794832613E+03  0.99794832613E+03  0.00000000000E+00 0. -1.
          6    1    1    2  501    0 -0.55373458785E+03 -0.11653063681E+03 -0.57727307539E+03  0.82666473656E+03  0.17300000000E+03 0. -1.
         -6    1    1    2    0  502  0.55373458785E+03  0.11653063681E+03 -0.24062950341E+00  0.59171821081E+03  0.17300000000E+03 0.  1.
<mgrwt>
<rscale>  2 0.59171816E+03</rscale>
<asrwt>0</asrwt>
<pdfrwt beam="1">  1       21 0.64682249E-01 0.59171816E+03</pdfrwt>
<pdfrwt beam="2">  1       21 0.15353051E+00 0.59171816E+03</pdfrwt>
<totfact> 0.48729930E+02</totfact>
</mgrwt>
</event>
<event>
 4    1  0.4374784E+000  0.2038000E+03  0.7546771E-02  0.1146572E+00
         21   -1    0    0  501  502  0.00000000000E+00  0.00000000000E+00  0.26856640841E+03  0.26856640841E+03  0.00000000000E+00 0.  1.
         21   -1    0    0  502  503 -0.00000000000E+00 -0.00000000000E+00 -0.18095613619E+03  0.18095613619E+03  0.00000000000E+00 0. -1.
          6    1    1    2  501    0 -0.10576043976E+03 -0.20497562135E+02  0.12949789536E+03  0.24146247240E+03  0.17300000000E+03 0.  1.
         -6    1    1    2    0  503  0.10576043976E+03  0.20497562135E+02 -0.41887623152E+02  0.20806007220E+03  0.17300000000E+03 0. -1.
<mgrwt>
<rscale>  2 0.20379995E+03</rscale>
<asrwt>0</asrwt>
<pdfrwt beam="1">  1       21 0.41317909E-01 0.20379995E+03</pdfrwt>
<pdfrwt beam="2">  1       21 0.27839406E-01 0.20379995E+03</pdfrwt>
<totfact> 0.69147349E+04</totfact>
</mgrwt>
</event>
<event>
 4    1  0.4374784E+000  0.1915271E+03  0.7546771E-02  0.1157091E+00
         21   -1    0    0  503  502  0.00000000000E+00  0.00000000000E+00  0.10452063457E+03  0.10452063457E+03  0.00000000000E+00 0.  1.
         21   -1    0    0  501  503 -0.00000000000E+00 -0.00000000000E+00 -0.56761329534E+03  0.56761329534E+03  0.00000000000E+00 0.  1.
          6    1    1    2  501    0 -0.80767456757E+02 -0.15173916825E+02 -0.43917223728E+03  0.47911886189E+03  0.17300000000E+03 0. -1.
         -6    1    1    2    0  502  0.80767456757E+02  0.15173916825E+02 -0.23920423494E+02  0.19301506802E+03  0.17300000000E+03 0. -1.
<mgrwt>
<rscale>  2 0.19152710E+03</rscale>
<asrwt>0</asrwt>
<pdfrwt beam="1">  1       21 0.16080098E-01 0.19152710E+03</pdfrwt>
<pdfrwt beam="2">  1       21 0.87325121E-01 0.19152710E+03</pdfrwt>
<totfact> 0.38939812E+04</totfact>
</mgrwt>
</event>
<event>
 4    1  0.4374784E+000  0.2779685E+03  0.7546771E-02  0.1096804E+00
         21   -1    0    0  501  502  0.00000000000E+00  0.00000000000E+00  0.61406520320E+03  0.61406520320E+03  0.00000000000E+00 0.  1.
         21   -1    0    0  502  503 -0.00000000000E+00 -0.00000000000E+00 -0.12623684332E+03  0.12623684332E+03  0.00000000000E+00 0. -1.
          6    1    1    2  501    0  0.19820513715E+03 -0.89734162095E+02  0.26498352073E+03  0.38403484542E+03  0.17300000000E+03 0. -1.
         -6    1    1    2    0  503 -0.19820513715E+03  0.89734162095E+02  0.22284483915E+03  0.35626720109E+03  0.17300000000E+03 0. -1.
<mgrwt>
<rscale>  2 0.27796852E+03</rscale>
<asrwt>0</asrwt>
<pdfrwt beam="1">  1       21 0.94471568E-01 0.27796852E+03</pdfrwt>
<pdfrwt beam="2">  1       21 0.19421053E-01 0.27796852E+03</pdfrwt>
<totfact> 0.21890604E+04</totfact>
</mgrwt>
</event>
<event>
 4    1  0.4374784E+000  0.2720385E+03  0.7546771E-02  0.1100119E+00
         21   -1    0    0  503  502  0.00000000000E+00  0.00000000000E+00  0.26892999911E+03  0.26892999911E+03  0.00000000000E+00 0. -1.
         21   -1    0    0  501  503 -0.00000000000E+00 -0.00000000000E+00 -0.45893292616E+03  0.45893292616E+03  0.00000000000E+00 0.  1.
          6    1    1    2  501    0 -0.66515585192E+02  0.19912720123E+03 -0.32528271168E+03  0.42404458239E+03  0.17300000000E+03 0.  1.
         -6    1    1    2    0  502  0.66515585192E+02 -0.19912720123E+03  0.13527978462E+03  0.30381834288E+03  0.17300000000E+03 0. -1.
<mgrwt>
<rscale>  2 0.27203854E+03</rscale>
<asrwt>0</asrwt>
<pdfrwt beam="1">  1       21 0.41373847E-01 0.27203854E+03</pdfrwt>
<pdfrwt beam="2">  1       21 0.70605065E-01 0.27203854E+03</pdfrwt>
<totfact> 0.97522015E+03</totfact>
</mgrwt>
</event>
<event>
 4    1  0.4374784E+000  0.1820583E+03  0.7546771E-02  0.1165826E+00
         21   -1    0    0  501  502  0.00000000000E+00  0.00000000000E+00  0.20428499548E+03  0.20428499548E+03  0.00000000000E+00 0.  1.
         21   -1    0    0  502  503 -0.00000000000E+00 -0.00000000000E+00 -0.16296932799E+03  0.16296932799E+03  0.00000000000E+00 0.  1.
          6    1    1    2  501    0 -0.53179636015E+02  0.19701761589E+02  0.84578731263E+01  0.18225468091E+03  0.17300000000E+03 0.  1.
         -6    1    1    2    0  503  0.53179636015E+02 -0.19701761589E+02  0.32857794358E+02  0.18499964256E+03  0.17300000000E+03 0.  1.
<mgrwt>
<rscale>  2 0.18205832E+03</rscale>
<asrwt>0</asrwt>
<pdfrwt beam="1">  1       21 0.31428461E-01 0.18205832E+03</pdfrwt>
<pdfrwt beam="2">  1       21 0.25072204E-01 0.18205832E+03</pdfrwt>
<totfact> 0.14707386E+05</totfact>
</mgrwt>
</event>
<event>
 4    1  0.4374784E+000  0.2140383E+03  0.7546771E-02  0.1138407E+00
         21   -1    0    0  503  502  0.00000000000E+00  0.00000000000E+00  0.23169104121E+03  0.23169104121E+03  0.00000000000E+00 0. -1.
         21   -1    0    0  501  503 -0.00000000000E+00 -0.00000000000E+00 -0.26372428465E+03  0.26372428465E+03  0.00000000000E+00 0. -1.
          6    1    1    2  501    0  0.11440444378E+03  0.52868029715E+02 -0.13992926329E+03  0.25571977641E+03  0.17300000000E+03 0. -1.
         -6    1    1    2    0  502 -0.11440444378E+03 -0.52868029715E+02  0.10789601985E+03  0.23969554944E+03  0.17300000000E+03 0. -1.
<mgrwt>
<rscale>  2 0.21403833E+03</rscale>
<asrwt>0</asrwt>
<pdfrwt beam="1">  1       21 0.35644776E-01 0.21403833E+03</pdfrwt>
<pdfrwt beam="2">  1       21 0.40572967E-01 0.21403833E+03</pdfrwt>
<totfact> 0.43949560E+04</totfact>
</mgrwt>
</event>
<event>
 4    1  0.4374784E+000  0.2095133E+03  0.7546771E-02  0.1141952E+00
         21   -1    0    0  501  502  0.00000000000E+00  0.00000000000E+00  0.21220388766E+03  0.21220388766E+03  0.00000000000E+00 0.  1.
         21   -1    0    0  502  503 -0.00000000000E+00 -0.00000000000E+00 -0.21286863621E+03  0.21286863621E+03  0.00000000000E+00 0.  1.
          6    1    1    2  501    0 -0.70185114514E+02  0.95083430527E+02  0.35385215585E+02  0.21248040508E+03  0.17300000000E+03 0. -1.
         -6    1    1    2    0  503  0.70185114514E+02 -0.95083430527E+02 -0.36049964135E+02  0.21259211880E+03  0.17300000000E+03 0. -1.
<mgrwt>
<rscale>  2 0.20951327E+03</rscale>
<asrwt>0</asrwt>
<pdfrwt beam="1">  1       21 0.32646752E-01 0.20951327E+03</pdfrwt>
<pdfrwt beam="2">  1       21 0.32749021E-01 0.20951327E+03</pdfrwt>
<totfact> 0.80460746E+04</totfact>
</mgrwt>
</event>
<event>
 4    1  0.4374784E+000  0.1785496E+03  0.7546771E-02  0.1169214E+00
         21   -1    0    0  501  502  0.00000000000E+00  0.00000000000E+00  0.74150095901E+02  0.74150095901E+02  0.00000000000E+00 0. -1.
         21   -1    0    0  502  503 -0.00000000000E+00 -0.00000000000E+00 -0.43269039743E+03  0.43269039743E+03  0.00000000000E+00 0. -1.
          6    1    1    2  501    0  0.38065432898E+02  0.22405081171E+02 -0.15905923460E+03  0.23912299127E+03  0.17300000000E+03 0. -1.
         -6    1    1    2    0  503 -0.38065432898E+02 -0.22405081171E+02 -0.19948106693E+03  0.26771750206E+03  0.17300000000E+03 0. -1.
<mgrwt>
<rscale>  2 0.17854961E+03</rscale>
<asrwt>0</asrwt>
<pdfrwt beam="1">  1       21 0.11407707E-01 0.17854961E+03</pdfrwt>
<pdfrwt beam="2">  1       21 0.66567753E-01 0.17854961E+03</pdfrwt>
<totfact> 0.13356256E+05</totfact>
</mgrwt>
</event>
<event>
 4    1  0.4374784E+000  0.3312588E+03  0.7546771E-02  0.1070581E+00
         21   -1    0    0  501  502  0.00000000000E+00  0.00000000000E+00  0.33534799493E+03  0.33534799493E+03  0.00000000000E+00 0. -1.
         21   -1    0    0  502  503 -0.00000000000E+00 -0.00000000000E+00 -0.36428881562E+03  0.36428881562E+03  0.00000000000E+00 0.  1.
          6    1    1    2  501    0 -0.24216379088E+03  0.14546515828E+03 -0.12606081040E+03  0.35443439704E+03  0.17300000000E+03 0.  1.
         -6    1    1    2    0  503  0.24216379088E+03 -0.14546515828E+03  0.97119989703E+02  0.34520241350E+03  0.17300000000E+03 0. -1.
<mgrwt>
<rscale>  2 0.33125883E+03</rscale>
<asrwt>0</asrwt>
<pdfrwt beam="1">  1       21 0.51591999E-01 0.33125883E+03</pdfrwt>
<pdfrwt beam="2">  1       21 0.56044433E-01 0.33125883E+03</pdfrwt>
<totfact> 0.99373201E+03</totfact>
</mgrwt>
</event>
<event>
 4    1  0.4374784E+000  0.2054973E+03  0.7546771E-02  0.1145182E+00
         21   -1    0    0  501  502  0.00000000000E+00  0.00000000000E+00  0.52854498787E+02  0.52854498787E+02  0.00000000000E+00 0.  1.
         21   -1    0    0  502  503 -0.00000000000E+00 -0.00000000000E+00 -0.88374354736E+03  0.88374354736E+03  0.00000000000E+00 0.  1.
          6    1    1    2  501    0 -0.56053460244E+02  0.95698251768E+02 -0.27040347364E+03  0.33962800879E+03  0.17300000000E+03 0.  1.
         -6    1    1    2    0  503  0.56053460244E+02 -0.95698251768E+02 -0.56048557493E+03  0.59697003736E+03  0.17300000000E+03 0.  1.
<mgrwt>
<rscale>  2 0.20549731E+03</rscale>
<asrwt>0</asrwt>
<pdfrwt beam="1">  1       21 0.81314617E-02 0.20549731E+03</pdfrwt>
<pdfrwt beam="2">  1       21 0.13596054E+00 0.20549731E+03</pdfrwt>
<totfact> 0.44679143E+04</totfact>
</mgrwt>
</event>
<event>
 4    1  0.4374784E+000  0.2145482E+03  0.7546771E-02  0.1138014E+00
         21   -1    0    0  501  502  0.00000000000E+00  0.00000000000E+00  0.89314527893E+02  0.89314527893E+02  0.00000000000E+00 0. -1.
         21   -1    0    0  502  503 -0.00000000000E+00 -0.00000000000E+00 -0.54599043171E+03  0.54599043171E+03  0.00000000000E+00 0. -1.
          6    1    1    2  501    0 -0.10545478004E+03 -0.70577618844E+02 -0.15312453948E+03  0.26358686520E+03  0.17300000000E+03 0. -1.
         -6    1    1    2    0  503  0.10545478004E+03  0.70577618844E+02 -0.30355136434E+03  0.37171809440E+03  0.17300000000E+03 0. -1.
<mgrwt>
<rscale>  2 0.21454816E+03</rscale>
<asrwt>0</asrwt>
<pdfrwt beam="1">  1       21 0.13740696E-01 0.21454816E+03</pdfrwt>
<pdfrwt beam="2">  1       21 0.83998529E-01 0.21454816E+03</pdfrwt>
<totfact> 0.56033932E+04</totfact>
</mgrwt>
</event>
<event>
 4    1  0.4374784E+000  0.2141720E+03  0.7546771E-02  0.1138304E+00
         21   -1    0    0  503  502  0.00000000000E+00  0.00000000000E+00  0.55324500939E+02  0.55324500939E+02  0.00000000000E+00 0.  1.
         21   -1    0    0  501  503 -0.00000000000E+00 -0.00000000000E+00 -0.82921415913E+03  0.82921415913E+03  0.00000000000E+00 0.  1.
          6    1    1    2  501    0 -0.12478535942E+03 -0.19215634746E+02 -0.38178966305E+03  0.43775903572E+03  0.17300000000E+03 0.  1.
         -6    1    1    2    0  502  0.12478535942E+03  0.19215634746E+02 -0.39209999514E+03  0.44677962435E+03  0.17300000000E+03 0.  1.
<mgrwt>
<rscale>  2 0.21417196E+03</rscale>
<asrwt>0</asrwt>
<pdfrwt beam="1">  1       21 0.85114618E-02 0.21417196E+03</pdfrwt>
<pdfrwt beam="2">  1       21 0.12757141E+00 0.21417196E+03</pdfrwt>
<totfact> 0.48263718E+04</totfact>
</mgrwt>
</event>
<event>
 4    1  0.4374784E+000  0.2494743E+03  0.7546771E-02  0.1113638E+00
         21   -1    0    0  501  502  0.00000000000E+00  0.00000000000E+00  0.64857725381E+03  0.64857725381E+03  0.00000000000E+00 0. -1.
         21   -1    0    0  502  503 -0.00000000000E+00 -0.00000000000E+00 -0.95960257172E+02  0.95960257172E+02  0.00000000000E+00 0. -1.
          6    1    1    2  501    0 -0.26533518711E+02  0.17777623143E+03  0.27701473566E+03  0.37279294501E+03  0.17300000000E+03 0. -1.
         -6    1    1    2    0  503  0.26533518711E+02 -0.17777623143E+03  0.27560226098E+03  0.37174456598E+03  0.17300000000E+03 0. -1.
<mgrwt>
<rscale>  2 0.24947428E+03</rscale>
<asrwt>0</asrwt>
<pdfrwt beam="1">  1       21 0.99781113E-01 0.24947428E+03</pdfrwt>
<pdfrwt beam="2">  1       21 0.14763117E-01 0.24947428E+03</pdfrwt>
<totfact> 0.32366037E+04</totfact>
</mgrwt>
</event>
<event>
 4    1  0.4374784E+000  0.1905335E+03  0.7546771E-02  0.1157981E+00
         21   -1    0    0  501  502  0.00000000000E+00  0.00000000000E+00  0.14749958155E+04  0.14749958155E+04  0.00000000000E+00 0.  1.
         21   -1    0    0  502  503 -0.00000000000E+00 -0.00000000000E+00 -0.26815484368E+02  0.26815484368E+02  0.00000000000E+00 0. -1.
          6    1    1    2  501    0  0.12389102050E+02  0.78870228114E+02  0.50885143239E+03  0.54335327640E+03  0.17300000000E+03 0. -1.
         -6    1    1    2    0  503 -0.12389102050E+02 -0.78870228114E+02  0.93932889875E+03  0.95845802347E+03  0.17300000000E+03 0.  1.
<mgrwt>
<rscale>  2 0.19053347E+03</rscale>
<asrwt>0</asrwt>
<pdfrwt beam="1">  1       21 0.22692237E+00 0.19053347E+03</pdfrwt>
<pdfrwt beam="2">  1       21 0.41254603E-02 0.19053347E+03</pdfrwt>
<totfact> 0.34018066E+04</totfact>
</mgrwt>
</event>
<event>
 4    1  0.4374784E+000  0.2267791E+03  0.7546771E-02  0.1128928E+00
         21   -1    0    0  501  502  0.00000000000E+00  0.00000000000E+00  0.44073196279E+03  0.44073196279E+03  0.00000000000E+00 0.  1.
         21   -1    0    0  502  503 -0.00000000000E+00 -0.00000000000E+00 -0.12522824819E+03  0.12522824819E+03  0.00000000000E+00 0.  1.
          6    1    1    2  501    0  0.30466008207E+01  0.14659631976E+03  0.23164490242E+03  0.32417298401E+03  0.17300000000E+03 0.  1.
         -6    1    1    2    0  503 -0.30466008207E+01 -0.14659631976E+03  0.83858812178E+02  0.24178722696E+03  0.17300000000E+03 0.  1.
<mgrwt>
<rscale>  2 0.22677911E+03</rscale>
<asrwt>0</asrwt>
<pdfrwt beam="1">  1       21 0.67804917E-01 0.22677911E+03</pdfrwt>
<pdfrwt beam="2">  1       21 0.19265885E-01 0.22677911E+03</pdfrwt>
<totfact> 0.48393657E+04</totfact>
</mgrwt>
</event>
<event>
 4    1  0.4374784E+000  0.1812243E+03  0.7546771E-02  0.1166623E+00
         21   -1    0    0  503  502  0.00000000000E+00  0.00000000000E+00  0.10105745115E+04  0.10105745115E+04  0.00000000000E+00 0.  1.
         21   -1    0    0  501  503 -0.00000000000E+00 -0.00000000000E+00 -0.38028475379E+02  0.38028475379E+02  0.00000000000E+00 0.  1.
          6    1    1    2  501    0 -0.23522183902E+02  0.48579369042E+02  0.28633994404E+03  0.33886990392E+03  0.17300000000E+03 0.  1.
         -6    1    1    2    0  502  0.23522183902E+02 -0.48579369042E+02  0.68620609207E+03  0.70973308295E+03  0.17300000000E+03 0.  1.
<mgrwt>
<rscale>  2 0.18122430E+03</rscale>
<asrwt>0</asrwt>
<pdfrwt beam="1">  1       21 0.15547298E+00 0.18122430E+03</pdfrwt>
<pdfrwt beam="2">  1       21 0.58505354E-02 0.18122430E+03</pdfrwt>
<totfact> 0.56324281E+04</totfact>
</mgrwt>
</event>
<event>
 4    1  0.4374784E+000  0.1908035E+03  0.7546771E-02  0.1157739E+00
         21   -1    0    0  501  502  0.00000000000E+00  0.00000000000E+00  0.18003626506E+03  0.18003626506E+03  0.00000000000E+00 0. -1.
         21   -1    0    0  502  503 -0.00000000000E+00 -0.00000000000E+00 -0.84489439839E+03  0.84489439839E+03  0.00000000000E+00 0. -1.
          6    1    1    2  501    0 -0.74891012198E+02  0.29467078245E+02  0.11452261833E+03  0.22253404800E+03  0.17300000000E+03 0. -1.
         -6    1    1    2    0  503  0.74891012198E+02 -0.29467078245E+02 -0.77938075167E+03  0.80239661544E+03  0.17300000000E+03 0. -1.
<mgrwt>
<rscale>  2 0.19080349E+03</rscale>
<asrwt>0</asrwt>
<pdfrwt beam="1">  1       21 0.27697887E-01 0.19080349E+03</pdfrwt>
<pdfrwt beam="2">  1       21 0.12998375E+00 0.19080349E+03</pdfrwt>
<totfact> 0.53878721E+03</totfact>
</mgrwt>
</event>
<event>
 4    1  0.4374784E+000  0.2809909E+03  0.7546771E-02  0.1095149E+00
         21   -1    0    0  501  502  0.00000000000E+00  0.00000000000E+00  0.45372729705E+03  0.45372729705E+03  0.00000000000E+00 0.  1.
         21   -1    0    0  502  503 -0.00000000000E+00 -0.00000000000E+00 -0.20109108889E+03  0.20109108889E+03  0.00000000000E+00 0. -1.
          6    1    1    2  501    0  0.48300399456E+02  0.21608785399E+03  0.24645543791E+03  0.37375951106E+03  0.17300000000E+03 0.  1.
         -6    1    1    2    0  503 -0.48300399456E+02 -0.21608785399E+03  0.61807702534E+01  0.28105887489E+03  0.17300000000E+03 0. -1.
<mgrwt>
<rscale>  2 0.28099091E+03</rscale>
<asrwt>0</asrwt>
<pdfrwt beam="1">  1       21 0.69804199E-01 0.28099091E+03</pdfrwt>
<pdfrwt beam="2">  1       21 0.30937091E-01 0.28099091E+03</pdfrwt>
<totfact> 0.17858697E+04</totfact>
</mgrwt>
</event>
<event>
 4    1  0.4374784E+000  0.1745686E+03  0.7546771E-02  0.1173166E+00
         21   -1    0    0  503  502  0.00000000000E+00  0.00000000000E+00  0.15136535467E+03  0.15136535467E+03  0.00000000000E+00 0.  1.
         21   -1    0    0  501  503 -0.00000000000E+00 -0.00000000000E+00 -0.28556839520E+03  0.28556839520E+03  0.00000000000E+00 0.  1.
          6    1    1    2  501    0  0.20662314389E+02  0.10874741808E+02 -0.18575730051E+03  0.25491168262E+03  0.17300000000E+03 0.  1.
         -6    1    1    2    0  502 -0.20662314389E+02 -0.10874741808E+02  0.51554259972E+02  0.18202206725E+03  0.17300000000E+03 0.  1.
<mgrwt>
<rscale>  2 0.17456859E+03</rscale>
<asrwt>0</asrwt>
<pdfrwt beam="1">  1       21 0.23286978E-01 0.17456859E+03</pdfrwt>
<pdfrwt beam="2">  1       21 0.43933599E-01 0.17456859E+03</pdfrwt>
<totfact> 0.86918397E+04</totfact>
</mgrwt>
</event>
<event>
 4    1  0.4374784E+000  0.2211435E+03  0.7546771E-02  0.1133033E+00
         21   -1    0    0  503  502  0.00000000000E+00  0.00000000000E+00  0.52260493236E+03  0.52260493236E+03  0.00000000000E+00 0.  1.
         21   -1    0    0  501  503 -0.00000000000E+00 -0.00000000000E+00 -0.10199951363E+03  0.10199951363E+03  0.00000000000E+00 0.  1.
          6    1    1    2  501    0 -0.13484954603E+03 -0.28125409094E+02  0.12056696669E+03  0.25187463580E+03  0.17300000000E+03 0.  1.
         -6    1    1    2    0  502  0.13484954603E+03  0.28125409094E+02  0.30003845205E+03  0.37272981020E+03  0.17300000000E+03 0.  1.
<mgrwt>
<rscale>  2 0.22114348E+03</rscale>
<asrwt>0</asrwt>
<pdfrwt beam="1">  1       21 0.80400757E-01 0.22114348E+03</pdfrwt>
<pdfrwt beam="2">  1       21 0.15692233E-01 0.22114348E+03</pdfrwt>
<totfact> 0.48453693E+04</totfact>
</mgrwt>
</event>
<event>
 4    1  0.4374784E+000  0.2186332E+03  0.7546771E-02  0.1134906E+00
         21   -1    0    0  503  502  0.00000000000E+00  0.00000000000E+00  0.43897121860E+03  0.43897121860E+03  0.00000000000E+00 0. -1.
         21   -1    0    0  501  503 -0.00000000000E+00 -0.00000000000E+00 -0.12113825235E+03  0.12113825235E+03  0.00000000000E+00 0. -1.
          6    1    1    2  501    0 -0.10985334531E+03 -0.76182073177E+02  0.69872742968E+02  0.22952704842E+03  0.17300000000E+03 0. -1.
         -6    1    1    2    0  502  0.10985334531E+03  0.76182073177E+02  0.24796022329E+03  0.33058242252E+03  0.17300000000E+03 0. -1.
<mgrwt>
<rscale>  2 0.21863318E+03</rscale>
<asrwt>0</asrwt>
<pdfrwt beam="1">  1       21 0.67534033E-01 0.21863318E+03</pdfrwt>
<pdfrwt beam="2">  1       21 0.18636654E-01 0.21863318E+03</pdfrwt>
<totfact> 0.52130544E+04</totfact>
</mgrwt>
</event>
<event>
 4    1  0.4374784E+000  0.1832207E+03  0.7546771E-02  0.1164722E+00
         21   -1    0    0  503  502  0.00000000000E+00  0.00000000000E+00  0.15079036555E+03  0.15079036555E+03  0.00000000000E+00 0.  1.
         21   -1    0    0  501  503 -0.00000000000E+00 -0.00000000000E+00 -0.24715644101E+03  0.24715644101E+03  0.00000000000E+00 0.  1.
          6    1    1    2  501    0  0.31232133491E+02 -0.51627384123E+02 -0.11086795949E+03  0.21415307001E+03  0.17300000000E+03 0.  1.
         -6    1    1    2    0  502 -0.31232133491E+02  0.51627384123E+02  0.14501884030E+02  0.18379373655E+03  0.17300000000E+03 0.  1.
<mgrwt>
<rscale>  2 0.18322072E+03</rscale>
<asrwt>0</asrwt>
<pdfrwt beam="1">  1       21 0.23198518E-01 0.18322072E+03</pdfrwt>
<pdfrwt beam="2">  1       21 0.38024067E-01 0.18322072E+03</pdfrwt>
<totfact> 0.11686222E+05</totfact>
</mgrwt>
</event>
<event>
 4    1  0.4374784E+000  0.3865225E+03  0.7546771E-02  0.1048549E+00
         21   -1    0    0  503  502  0.00000000000E+00  0.00000000000E+00  0.10549360439E+04  0.10549360439E+04  0.00000000000E+00 0. -1.
         21   -1    0    0  501  503 -0.00000000000E+00 -0.00000000000E+00 -0.14730290199E+03  0.14730290199E+03  0.00000000000E+00 0.  1.
          6    1    1    2  501    0 -0.34242626749E+03 -0.47062950185E+02  0.33574272113E+03  0.51197934014E+03  0.17300000000E+03 0. -1.
         -6    1    1    2    0  502  0.34242626749E+03  0.47062950185E+02  0.57189042079E+03  0.69025960576E+03  0.17300000000E+03 0.  1.
<mgrwt>
<rscale>  2 0.38652253E+03</rscale>
<asrwt>0</asrwt>
<pdfrwt beam="1">  1       21 0.16229785E+00 0.38652253E+03</pdfrwt>
<pdfrwt beam="2">  1       21 0.22661986E-01 0.38652253E+03</pdfrwt>
<totfact> 0.39202344E+03</totfact>
</mgrwt>
</event>
<event>
 4    1  0.4374784E+000  0.1748759E+03  0.7546771E-02  0.1172856E+00
         21   -1    0    0  503  502  0.00000000000E+00  0.00000000000E+00  0.65514848497E+03  0.65514848497E+03  0.00000000000E+00 0.  1.
         21   -1    0    0  501  503 -0.00000000000E+00 -0.00000000000E+00 -0.34409608323E+03  0.34409608323E+03  0.00000000000E+00 0.  1.
          6    1    1    2  501    0  0.94746534503E+01  0.23723636015E+02 -0.30897302888E+03  0.35502945306E+03  0.17300000000E+03 0.  1.
         -6    1    1    2    0  502 -0.94746534503E+01 -0.23723636015E+02  0.62002543062E+03  0.64421511515E+03  0.17300000000E+03 0.  1.
<mgrwt>
<rscale>  2 0.17487590E+03</rscale>
<asrwt>0</asrwt>
<pdfrwt beam="1">  1       21 0.10079207E+00 0.17487590E+03</pdfrwt>
<pdfrwt beam="2">  1       21 0.52937859E-01 0.17487590E+03</pdfrwt>
<totfact> 0.27680159E+03</totfact>
</mgrwt>
</event>
<event>
 4    1  0.4374784E+000  0.1838222E+03  0.7546771E-02  0.1164154E+00
         21   -1    0    0  503  502  0.00000000000E+00  0.00000000000E+00  0.40829892430E+03  0.40829892430E+03  0.00000000000E+00 0.  1.
         21   -1    0    0  501  503 -0.00000000000E+00 -0.00000000000E+00 -0.88667597177E+02  0.88667597177E+02  0.00000000000E+00 0.  1.
          6    1    1    2  501    0  0.24075398903E+02  0.57288436081E+02  0.95673923014E+02  0.20722955698E+03  0.17300000000E+03 0.  1.
         -6    1    1    2    0  502 -0.24075398903E+02 -0.57288436081E+02  0.22395740411E+03  0.28973696450E+03  0.17300000000E+03 0.  1.
<mgrwt>
<rscale>  2 0.18382217E+03</rscale>
<asrwt>0</asrwt>
<pdfrwt beam="1">  1       21 0.62815218E-01 0.18382217E+03</pdfrwt>
<pdfrwt beam="2">  1       21 0.13641169E-01 0.18382217E+03</pdfrwt>
<totfact> 0.10975108E+05</totfact>
</mgrwt>
</event>
<event>
 4    1  0.4374784E+000  0.1875068E+03  0.7546771E-02  0.1160729E+00
         21   -1    0    0  501  502  0.00000000000E+00  0.00000000000E+00  0.26133517058E+03  0.26133517058E+03  0.00000000000E+00 0. -1.
         21   -1    0    0  502  503 -0.00000000000E+00 -0.00000000000E+00 -0.24694017448E+03  0.24694017448E+03  0.00000000000E+00 0. -1.
          6    1    1    2  501    0  0.47749195023E+02 -0.54312078664E+02  0.17865870594E+03  0.25899366927E+03  0.17300000000E+03 0. -1.
         -6    1    1    2    0  503 -0.47749195023E+02  0.54312078664E+02 -0.16426370983E+03  0.24928167579E+03  0.17300000000E+03 0. -1.
<mgrwt>
<rscale>  2 0.18750677E+03</rscale>
<asrwt>0</asrwt>
<pdfrwt beam="1">  1       21 0.40205411E-01 0.18750677E+03</pdfrwt>
<pdfrwt beam="2">  1       21 0.37990796E-01 0.18750677E+03</pdfrwt>
<totfact> 0.39935877E+04</totfact>
</mgrwt>
</event>
<event>
 4    1  0.4374784E+000  0.2188306E+03  0.7546771E-02  0.1134758E+00
         21   -1    0    0  501  502  0.00000000000E+00  0.00000000000E+00  0.27119151389E+03  0.27119151389E+03  0.00000000000E+00 0.  1.
         21   -1    0    0  502  503 -0.00000000000E+00 -0.00000000000E+00 -0.17811910150E+03  0.17811910150E+03  0.00000000000E+00 0. -1.
          6    1    1    2  501    0 -0.15297656595E+02  0.13313078244E+03  0.67423663050E+02  0.22898203831E+03  0.17300000000E+03 0. -1.
         -6    1    1    2    0  503  0.15297656595E+02 -0.13313078244E+03  0.25648749341E+02  0.22032857707E+03  0.17300000000E+03 0. -1.
<mgrwt>
<rscale>  2 0.21883058E+03</rscale>
<asrwt>0</asrwt>
<pdfrwt beam="1">  1       21 0.41721771E-01 0.21883058E+03</pdfrwt>
<pdfrwt beam="2">  1       21 0.27402939E-01 0.21883058E+03</pdfrwt>
<totfact> 0.69448275E+04</totfact>
</mgrwt>
</event>
<event>
 4    1  0.4374784E+000  0.2382120E+03  0.7546771E-02  0.1120990E+00
         21   -1    0    0  501  502  0.00000000000E+00  0.00000000000E+00  0.58777744869E+02  0.58777744869E+02  0.00000000000E+00 0. -1.
         21   -1    0    0  502  503 -0.00000000000E+00 -0.00000000000E+00 -0.10398158059E+04  0.10398158059E+04  0.00000000000E+00 0.  1.
          6    1    1    2  501    0  0.11609301623E+03 -0.11549184451E+03 -0.63745082245E+03  0.68050606581E+03  0.17300000000E+03 0.  1.
         -6    1    1    2    0  503 -0.11609301623E+03  0.11549184451E+03 -0.34358723861E+03  0.41808748498E+03  0.17300000000E+03 0. -1.
<mgrwt>
<rscale>  2 0.23821200E+03</rscale>
<asrwt>0</asrwt>
<pdfrwt beam="1">  1       21 0.90427295E-02 0.23821200E+03</pdfrwt>
<pdfrwt beam="2">  1       21 0.15997167E+00 0.23821200E+03</pdfrwt>
<totfact> 0.23711069E+04</totfact>
</mgrwt>
</event>
<event>
 4    1  0.4374784E+000  0.2444413E+03  0.7546771E-02  0.1116869E+00
         21   -1    0    0  501  502  0.00000000000E+00  0.00000000000E+00  0.12498551565E+04  0.12498551565E+04  0.00000000000E+00 0. -1.
         21   -1    0    0  502  503 -0.00000000000E+00 -0.00000000000E+00 -0.70268866371E+02  0.70268866371E+02  0.00000000000E+00 0.  1.
          6    1    1    2  501    0 -0.55810150344E+02  0.16342516135E+03  0.96298165763E+03  0.99352162995E+03  0.17300000000E+03 0. -1.
         -6    1    1    2    0  503  0.55810150344E+02 -0.16342516135E+03  0.21660463251E+03  0.32660239293E+03  0.17300000000E+03 0.  1.
<mgrwt>
<rscale>  2 0.24444131E+03</rscale>
<asrwt>0</asrwt>
<pdfrwt beam="1">  1       21 0.19228539E+00 0.24444131E+03</pdfrwt>
<pdfrwt beam="2">  1       21 0.10810596E-01 0.24444131E+03</pdfrwt>
<totfact> 0.10243496E+04</totfact>
</mgrwt>
</event>
<event>
 4    1  0.4374784E+000  0.1774316E+03  0.7546771E-02  0.1170312E+00
         21   -1    0    0  503  502  0.00000000000E+00  0.00000000000E+00  0.15289872579E+03  0.15289872579E+03  0.00000000000E+00 0. -1.
         21   -1    0    0  501  503 -0.00000000000E+00 -0.00000000000E+00 -0.31759953114E+03  0.31759953114E+03  0.00000000000E+00 0. -1.
          6    1    1    2  501    0  0.30214816272E+02  0.25298774926E+02 -0.22186264001E+03  0.28408624424E+03  0.17300000000E+03 0. -1.
         -6    1    1    2    0  502 -0.30214816272E+02 -0.25298774926E+02  0.57161834653E+02  0.18641201269E+03  0.17300000000E+03 0. -1.
<mgrwt>
<rscale>  2 0.17743157E+03</rscale>
<asrwt>0</asrwt>
<pdfrwt beam="1">  1       21 0.23522881E-01 0.17743157E+03</pdfrwt>
<pdfrwt beam="2">  1       21 0.48861466E-01 0.17743157E+03</pdfrwt>
<totfact> 0.68439168E+04</totfact>
</mgrwt>
</event>
<event>
 4    1  0.4374784E+000  0.1736242E+03  0.7546771E-02  0.1174120E+00
         21   -1    0    0  503  502  0.00000000000E+00  0.00000000000E+00  0.22059799879E+03  0.22059799879E+03  0.00000000000E+00 0. -1.
         21   -1    0    0  501  503 -0.00000000000E+00 -0.00000000000E+00 -0.26845147770E+03  0.26845147770E+03  0.00000000000E+00 0. -1.
          6    1    1    2  501    0 -0.14686636998E+02 -0.80536713903E+00 -0.19526144491E+03  0.26128983484E+03  0.17300000000E+03 0. -1.
         -6    1    1    2    0  502  0.14686636998E+02  0.80536713903E+00  0.14740796601E+03  0.22775964165E+03  0.17300000000E+03 0. -1.
<mgrwt>
<rscale>  2 0.17362415E+03</rscale>
<asrwt>0</asrwt>
<pdfrwt beam="1">  1       21 0.33938154E-01 0.17362415E+03</pdfrwt>
<pdfrwt beam="2">  1       21 0.41300227E-01 0.17362415E+03</pdfrwt>
<totfact> 0.47660510E+04</totfact>
</mgrwt>
</event>
<event>
 4    1  0.4374784E+000  0.2156482E+03  0.7546771E-02  0.1137170E+00
         21   -1    0    0  503  502  0.00000000000E+00  0.00000000000E+00  0.60079851238E+02  0.60079851238E+02  0.00000000000E+00 0. -1.
         21   -1    0    0  501  503 -0.00000000000E+00 -0.00000000000E+00 -0.11596962499E+04  0.11596962499E+04  0.00000000000E+00 0. -1.
          6    1    1    2  501    0  0.10613156753E+03 -0.72878196898E+02 -0.90151341703E+03  0.92694691450E+03  0.17300000000E+03 0. -1.
         -6    1    1    2    0  502 -0.10613156753E+03  0.72878196898E+02 -0.19810298159E+03  0.29282918660E+03  0.17300000000E+03 0. -1.
<mgrwt>
<rscale>  2 0.21564819E+03</rscale>
<asrwt>0</asrwt>
<pdfrwt beam="1">  1       21 0.92430553E-02 0.21564819E+03</pdfrwt>
<pdfrwt beam="2">  1       21 0.17841478E+00 0.21564819E+03</pdfrwt>
<totfact> 0.17104542E+04</totfact>
</mgrwt>
</event>
<event>
 4    1  0.4374784E+000  0.2284959E+03  0.7546771E-02  0.1127703E+00
         21   -1    0    0  501  502  0.00000000000E+00  0.00000000000E+00  0.26056394248E+03  0.26056394248E+03  0.00000000000E+00 0. -1.
         21   -1    0    0  502  503 -0.00000000000E+00 -0.00000000000E+00 -0.20213459034E+03  0.20213459034E+03  0.00000000000E+00 0.  1.
          6    1    1    2  501    0 -0.10390375367E+03 -0.10716984081E+03  0.50802934115E+02  0.23407542144E+03  0.17300000000E+03 0. -1.
         -6    1    1    2    0  503  0.10390375367E+03  0.10716984081E+03  0.76264180241E+01  0.22862311138E+03  0.17300000000E+03 0.  1.
<mgrwt>
<rscale>  2 0.22849587E+03</rscale>
<asrwt>0</asrwt>
<pdfrwt beam="1">  1       21 0.40086761E-01 0.22849587E+03</pdfrwt>
<pdfrwt beam="2">  1       21 0.31097629E-01 0.22849587E+03</pdfrwt>
<totfact> 0.58630670E+04</totfact>
</mgrwt>
</event>
<event>
 4    1  0.4374784E+000  0.2006875E+03  0.7546771E-02  0.1149160E+00
         21   -1    0    0  503  502  0.00000000000E+00  0.00000000000E+00  0.61028377995E+03  0.61028377995E+03  0.00000000000E+00 0. -1.
         21   -1    0    0  501  503 -0.00000000000E+00 -0.00000000000E+00 -0.19142860283E+03  0.19142860283E+03  0.00000000000E+00 0.  1.
          6    1    1    2  501    0  0.50155541660E+02  0.88492318258E+02 -0.11505599013E+03  0.23132952603E+03  0.17300000000E+03 0.  1.
         -6    1    1    2    0  502 -0.50155541660E+02 -0.88492318258E+02  0.53391116725E+03  0.57038285674E+03  0.17300000000E+03 0. -1.
<mgrwt>
<rscale>  2 0.20068749E+03</rscale>
<asrwt>0</asrwt>
<pdfrwt beam="1">  1       21 0.93889811E-01 0.20068749E+03</pdfrwt>
<pdfrwt beam="2">  1       21 0.29450555E-01 0.20068749E+03</pdfrwt>
<totfact> 0.10459464E+04</totfact>
</mgrwt>
</event>
<event>
 4    1  0.4374784E+000  0.1767291E+03  0.7546771E-02  0.1171007E+00
         21   -1    0    0  503  502  0.00000000000E+00  0.00000000000E+00  0.13410033382E+03  0.13410033382E+03  0.00000000000E+00 0. -1.
         21   -1    0    0  501  503 -0.00000000000E+00 -0.00000000000E+00 -0.26323734092E+03  0.26323734092E+03  0.00000000000E+00 0. -1.
          6    1    1    2  501    0  0.22363034744E+02  0.28355942452E+02 -0.13200280383E+03  0.22058536899E+03  0.17300000000E+03 0. -1.
         -6    1    1    2    0  502 -0.22363034744E+02 -0.28355942452E+02  0.28657967222E+01  0.17675230575E+03  0.17300000000E+03 0. -1.
<mgrwt>
<rscale>  2 0.17672907E+03</rscale>
<asrwt>0</asrwt>
<pdfrwt beam="1">  1       21 0.20630821E-01 0.17672907E+03</pdfrwt>
<pdfrwt beam="2">  1       21 0.40498052E-01 0.17672907E+03</pdfrwt>
<totfact> 0.12865651E+05</totfact>
</mgrwt>
</event>
<event>
 4    1  0.4374784E+000  0.3100093E+03  0.7546771E-02  0.1080341E+00
         21   -1    0    0  503  502  0.00000000000E+00  0.00000000000E+00  0.41878693179E+03  0.41878693179E+03  0.00000000000E+00 0. -1.
         21   -1    0    0  501  503 -0.00000000000E+00 -0.00000000000E+00 -0.25840206871E+03  0.25840206871E+03  0.00000000000E+00 0.  1.
          6    1    1    2  501    0 -0.19057630497E+03 -0.17279312423E+03 -0.33073829048E+02  0.31176861607E+03  0.17300000000E+03 0.  1.
         -6    1    1    2    0  502  0.19057630497E+03  0.17279312423E+03  0.19345869213E+03  0.36542038443E+03  0.17300000000E+03 0. -1.
<mgrwt>
<rscale>  2 0.31000934E+03</rscale>
<asrwt>0</asrwt>
<pdfrwt beam="1">  1       21 0.64428758E-01 0.31000934E+03</pdfrwt>
<pdfrwt beam="2">  1       21 0.39754165E-01 0.31000934E+03</pdfrwt>
<totfact> 0.12735112E+04</totfact>
</mgrwt>
</event>
<event>
 4    1  0.4374784E+000  0.2155803E+03  0.7546771E-02  0.1137222E+00
         21   -1    0    0  501  502  0.00000000000E+00  0.00000000000E+00  0.44885218943E+03  0.44885218943E+03  0.00000000000E+00 0.  1.
         21   -1    0    0  502  503 -0.00000000000E+00 -0.00000000000E+00 -0.22357300622E+03  0.22357300622E+03  0.00000000000E+00 0. -1.
          6    1    1    2  501    0 -0.12792411943E+03 -0.13464009395E+02  0.35898915814E+03  0.41874583645E+03  0.17300000000E+03 0.  1.
         -6    1    1    2    0  503  0.12792411943E+03  0.13464009395E+02 -0.13370997494E+03  0.25367935919E+03  0.17300000000E+03 0. -1.
<mgrwt>
<rscale>  2 0.21558029E+03</rscale>
<asrwt>0</asrwt>
<pdfrwt beam="1">  1       21 0.69054183E-01 0.21558029E+03</pdfrwt>
<pdfrwt beam="2">  1       21 0.34395847E-01 0.21558029E+03</pdfrwt>
<totfact> 0.15331854E+04</totfact>
</mgrwt>
</event>
<event>
 4    1  0.4374784E+000  0.2036458E+03  0.7546771E-02  0.1146699E+00
         21   -1    0    0  503  502  0.00000000000E+00  0.00000000000E+00  0.14025031213E+03  0.14025031213E+03  0.00000000000E+00 0.  1.
         21   -1    0    0  501  503 -0.00000000000E+00 -0.00000000000E+00 -0.36044222084E+03  0.36044222084E+03  0.00000000000E+00 0.  1.
          6    1    1    2  501    0  0.90216744115E+02  0.58340086365E+02 -0.21619865304E+03  0.29700754901E+03  0.17300000000E+03 0.  1.
         -6    1    1    2    0  502 -0.90216744115E+02 -0.58340086365E+02 -0.39932556727E+01  0.20368498395E+03  0.17300000000E+03 0.  1.
<mgrwt>
<rscale>  2 0.20364584E+03</rscale>
<asrwt>0</asrwt>
<pdfrwt beam="1">  1       21 0.21576971E-01 0.20364584E+03</pdfrwt>
<pdfrwt beam="2">  1       21 0.55452649E-01 0.20364584E+03</pdfrwt>
<totfact> 0.61064313E+04</totfact>
</mgrwt>
</event>
<event>
 4    1  0.4374784E+000  0.3161625E+03  0.7546771E-02  0.1077429E+00
         21   -1    0    0  503  502  0.00000000000E+00  0.00000000000E+00  0.46758939004E+03  0.46758939004E+03  0.00000000000E+00 0.  1.
         21   -1    0    0  501  503 -0.00000000000E+00 -0.00000000000E+00 -0.61555448975E+03  0.61555448975E+03  0.00000000000E+00 0. -1.
          6    1    1    2  501    0 -0.18955057689E+03  0.18466261859E+03 -0.51152181811E+03  0.60134289245E+03  0.17300000000E+03 0. -1.
         -6    1    1    2    0  502  0.18955057689E+03 -0.18466261859E+03  0.36355671840E+03  0.48180098734E+03  0.17300000000E+03 0.  1.
<mgrwt>
<rscale>  2 0.31616246E+03</rscale>
<asrwt>0</asrwt>
<pdfrwt beam="1">  1       21 0.71936829E-01 0.31616246E+03</pdfrwt>
<pdfrwt beam="2">  1       21 0.94700691E-01 0.31616246E+03</pdfrwt>
<totfact> 0.14856368E+03</totfact>
</mgrwt>
</event>
<event>
 4    1  0.4374784E+000  0.2186699E+03  0.7546771E-02  0.1134879E+00
         21   -1    0    0  501  502  0.00000000000E+00  0.00000000000E+00  0.39525810195E+02  0.39525810195E+02  0.00000000000E+00 0. -1.
         21   -1    0    0  502  503 -0.00000000000E+00 -0.00000000000E+00 -0.12123204754E+04  0.12123204754E+04  0.00000000000E+00 0. -1.
          6    1    1    2  501    0 -0.11595203069E+03  0.66653234050E+02 -0.55760095004E+03  0.59894519492E+03  0.17300000000E+03 0. -1.
         -6    1    1    2    0  503  0.11595203069E+03 -0.66653234050E+02 -0.61519371519E+03  0.65290109070E+03  0.17300000000E+03 0. -1.
<mgrwt>
<rscale>  2 0.21866990E+03</rscale>
<asrwt>0</asrwt>
<pdfrwt beam="1">  1       21 0.60808948E-02 0.21866990E+03</pdfrwt>
<pdfrwt beam="2">  1       21 0.18651081E+00 0.21866990E+03</pdfrwt>
<totfact> 0.31157742E+04</totfact>
</mgrwt>
</event>
<event>
 4    1  0.4374784E+000  0.1743204E+03  0.7546771E-02  0.1173416E+00
         21   -1    0    0  503  502  0.00000000000E+00  0.00000000000E+00  0.50475159443E+03  0.50475159443E+03  0.00000000000E+00 0.  1.
         21   -1    0    0  501  503 -0.00000000000E+00 -0.00000000000E+00 -0.72006895985E+02  0.72006895985E+02  0.00000000000E+00 0.  1.
          6    1    1    2  501    0  0.15673588749E+02 -0.14591889147E+02  0.99613782714E+02  0.20077472530E+03  0.17300000000E+03 0.  1.
         -6    1    1    2    0  502 -0.15673588749E+02  0.14591889147E+02  0.33313091573E+03  0.37598376511E+03  0.17300000000E+03 0.  1.
<mgrwt>
<rscale>  2 0.17432035E+03</rscale>
<asrwt>0</asrwt>
<pdfrwt beam="1">  1       21 0.77654089E-01 0.17432035E+03</pdfrwt>
<pdfrwt beam="2">  1       21 0.11077984E-01 0.17432035E+03</pdfrwt>
<totfact> 0.10026490E+05</totfact>
</mgrwt>
</event>
<event>
 4    1  0.4374784E+000  0.1965832E+03  0.7546771E-02  0.1152654E+00
         21   -1    0    0  501  502  0.00000000000E+00  0.00000000000E+00  0.24199367683E+03  0.24199367683E+03  0.00000000000E+00 0. -1.
         21   -1    0    0  502  503 -0.00000000000E+00 -0.00000000000E+00 -0.18761905383E+03  0.18761905383E+03  0.00000000000E+00 0. -1.
          6    1    1    2  501    0 -0.53563778060E+01  0.93205414624E+02  0.11005889268E+03  0.22529513967E+03  0.17300000000E+03 0. -1.
         -6    1    1    2    0  503  0.53563778060E+01 -0.93205414624E+02 -0.55684269685E+02  0.20431759099E+03  0.17300000000E+03 0. -1.
<mgrwt>
<rscale>  2 0.19658316E+03</rscale>
<asrwt>0</asrwt>
<pdfrwt beam="1">  1       21 0.37229796E-01 0.19658316E+03</pdfrwt>
<pdfrwt beam="2">  1       21 0.28864470E-01 0.19658316E+03</pdfrwt>
<totfact> 0.79793242E+04</totfact>
</mgrwt>
</event>
<event>
 4    1  0.4374784E+000  0.1818004E+03  0.7546771E-02  0.1166072E+00
         21   -1    0    0  503  502  0.00000000000E+00  0.00000000000E+00  0.57068261410E+03  0.57068261410E+03  0.00000000000E+00 0.  1.
         21   -1    0    0  501  503 -0.00000000000E+00 -0.00000000000E+00 -0.14725958419E+03  0.14725958419E+03  0.00000000000E+00 0.  1.
          6    1    1    2  501    0 -0.49609053098E+02  0.25716515128E+02 -0.67897055990E+02  0.19406547223E+03  0.17300000000E+03 0.  1.
         -6    1    1    2    0  502  0.49609053098E+02 -0.25716515128E+02  0.49132008590E+03  0.52387672606E+03  0.17300000000E+03 0.  1.
<mgrwt>
<rscale>  2 0.18180043E+03</rscale>
<asrwt>0</asrwt>
<pdfrwt beam="1">  1       21 0.87797324E-01 0.18180043E+03</pdfrwt>
<pdfrwt beam="2">  1       21 0.22655321E-01 0.18180043E+03</pdfrwt>
<totfact> 0.20449936E+04</totfact>
</mgrwt>
</event>
<event>
 4    1  0.4374784E+000  0.2189283E+03  0.7546771E-02  0.1134685E+00
         21   -1    0    0  501  502  0.00000000000E+00  0.00000000000E+00  0.16891657262E+03  0.16891657262E+03  0.00000000000E+00 0.  1.
         21   -1    0    0  502  503 -0.00000000000E+00 -0.00000000000E+00 -0.29431115471E+03  0.29431115471E+03  0.00000000000E+00 0. -1.
          6    1    1    2  501    0  0.13393976779E+03  0.77942745477E+01 -0.18816592679E+02  0.21973546885E+03  0.17300000000E+03 0. -1.
         -6    1    1    2    0  503 -0.13393976779E+03 -0.77942745477E+01 -0.10657798942E+03  0.24349225848E+03  0.17300000000E+03 0.  1.
<mgrwt>
<rscale>  2 0.21892833E+03</rscale>
<asrwt>0</asrwt>
<pdfrwt beam="1">  1       21 0.25987165E-01 0.21892833E+03</pdfrwt>
<pdfrwt beam="2">  1       21 0.45278639E-01 0.21892833E+03</pdfrwt>
<totfact> 0.65046846E+04</totfact>
</mgrwt>
</event>
<event>
 4    1  0.4374784E+000  0.2006766E+03  0.7546771E-02  0.1149169E+00
         21   -1    0    0  501  502  0.00000000000E+00  0.00000000000E+00  0.39074988076E+03  0.39074988076E+03  0.00000000000E+00 0. -1.
         21   -1    0    0  502  503 -0.00000000000E+00 -0.00000000000E+00 -0.45557612746E+03  0.45557612746E+03  0.00000000000E+00 0. -1.
          6    1    1    2  501    0 -0.37838542571E+00  0.10169539893E+03  0.33982088925E+03  0.39465090157E+03  0.17300000000E+03 0. -1.
         -6    1    1    2    0  503  0.37838542571E+00 -0.10169539893E+03 -0.40464713594E+03  0.45167510665E+03  0.17300000000E+03 0. -1.
<mgrwt>
<rscale>  2 0.20067660E+03</rscale>
<asrwt>0</asrwt>
<pdfrwt beam="1">  1       21 0.60115366E-01 0.20067660E+03</pdfrwt>
<pdfrwt beam="2">  1       21 0.70088635E-01 0.20067660E+03</pdfrwt>
<totfact> 0.47381590E+03</totfact>
</mgrwt>
</event>
<event>
 4    1  0.4374784E+000  0.1745316E+03  0.7546771E-02  0.1173203E+00
         21   -1    0    0  501  502  0.00000000000E+00  0.00000000000E+00  0.40973834285E+02  0.40973834285E+02  0.00000000000E+00 0. -1.
         21   -1    0    0  502  503 -0.00000000000E+00 -0.00000000000E+00 -0.74517601667E+03  0.74517601667E+03  0.00000000000E+00 0. -1.
          6    1    1    2  501    0  0.86741122537E+01 -0.21378297052E+02 -0.33308662968E+03  0.37604251712E+03  0.17300000000E+03 0.  1.
         -6    1    1    2    0  503 -0.86741122537E+01  0.21378297052E+02 -0.37111555270E+03  0.41010733384E+03  0.17300000000E+03 0.  1.
<mgrwt>
<rscale>  2 0.17453158E+03</rscale>
<asrwt>0</asrwt>
<pdfrwt beam="1">  1       21 0.63036674E-02 0.17453158E+03</pdfrwt>
<pdfrwt beam="2">  1       21 0.11464245E+00 0.17453158E+03</pdfrwt>
<totfact> 0.10784692E+05</totfact>
</mgrwt>
</event>
<event>
 4    1  0.4374784E+000  0.1950062E+03  0.7546771E-02  0.1154022E+00
         21   -1    0    0  503  502  0.00000000000E+00  0.00000000000E+00  0.12175231365E+04  0.12175231365E+04  0.00000000000E+00 0. -1.
         21   -1    0    0  501  503 -0.00000000000E+00 -0.00000000000E+00 -0.57288393568E+02  0.57288393568E+02  0.00000000000E+00 0. -1.
          6    1    1    2  501    0 -0.17303146610E+02  0.88312096065E+02  0.15025652496E+03  0.24617970771E+03  0.17300000000E+03 0. -1.
         -6    1    1    2    0  502  0.17303146610E+02 -0.88312096065E+02  0.10099782179E+04  0.10286318223E+04  0.17300000000E+03 0. -1.
<mgrwt>
<rscale>  2 0.19500622E+03</rscale>
<asrwt>0</asrwt>
<pdfrwt beam="1">  1       21 0.18731123E+00 0.19500622E+03</pdfrwt>
<pdfrwt beam="2">  1       21 0.88135999E-02 0.19500622E+03</pdfrwt>
<totfact> 0.16436321E+04</totfact>
</mgrwt>
</event>
<event>
 4    1  0.4374784E+000  0.1788288E+03  0.7546771E-02  0.1168941E+00
         21   -1    0    0  503  502  0.00000000000E+00  0.00000000000E+00  0.42386234906E+02  0.42386234906E+02  0.00000000000E+00 0. -1.
         21   -1    0    0  501  503 -0.00000000000E+00 -0.00000000000E+00 -0.81973266061E+03  0.81973266061E+03  0.00000000000E+00 0. -1.
          6    1    1    2  501    0 -0.37226925695E+02 -0.25785897668E+02 -0.51028768045E+03  0.54071551979E+03  0.17300000000E+03 0. -1.
         -6    1    1    2    0  502  0.37226925695E+02  0.25785897668E+02 -0.26705874524E+03  0.32140337572E+03  0.17300000000E+03 0. -1.
<mgrwt>
<rscale>  2 0.17882885E+03</rscale>
<asrwt>0</asrwt>
<pdfrwt beam="1">  1       21 0.65209596E-02 0.17882885E+03</pdfrwt>
<pdfrwt beam="2">  1       21 0.12611271E+00 0.17882885E+03</pdfrwt>
<totfact> 0.80264583E+04</totfact>
</mgrwt>
</event>
<event>
 4    1  0.4374784E+000  0.2083368E+03  0.7546771E-02  0.1142890E+00
         21   -1    0    0  503  502  0.00000000000E+00  0.00000000000E+00  0.35123744586E+02  0.35123744586E+02  0.00000000000E+00 0.  1.
         21   -1    0    0  501  503 -0.00000000000E+00 -0.00000000000E+00 -0.12357607163E+04  0.12357607163E+04  0.00000000000E+00 0. -1.
          6    1    1    2  501    0 -0.96434638821E+02  0.64618604963E+02 -0.60209721256E+03  0.63712263894E+03  0.17300000000E+03 0.  1.
         -6    1    1    2    0  502  0.96434638821E+02 -0.64618604963E+02 -0.59853975912E+03  0.63376182191E+03  0.17300000000E+03 0.  1.
<mgrwt>
<rscale>  2 0.20833676E+03</rscale>
<asrwt>0</asrwt>
<pdfrwt beam="1">  1       21 0.54036544E-02 0.20833676E+03</pdfrwt>
<pdfrwt beam="2">  1       21 0.19011698E+00 0.20833676E+03</pdfrwt>
<totfact> 0.36324569E+04</totfact>
</mgrwt>
</event>
<event>
 4    1  0.4374784E+000  0.1919180E+03  0.7546771E-02  0.1156743E+00
         21   -1    0    0  501  502  0.00000000000E+00  0.00000000000E+00  0.42003512808E+02  0.42003512808E+02  0.00000000000E+00 0.  1.
         21   -1    0    0  502  503 -0.00000000000E+00 -0.00000000000E+00 -0.88537567991E+03  0.88537567991E+03  0.00000000000E+00 0.  1.
          6    1    1    2  501    0  0.79161121697E+02  0.25239196682E+02 -0.46707842408E+03  0.50497005305E+03  0.17300000000E+03 0.  1.
         -6    1    1    2    0  503 -0.79161121697E+02 -0.25239196682E+02 -0.37629374302E+03  0.42240913967E+03  0.17300000000E+03 0.  1.
<mgrwt>
<rscale>  2 0.19191795E+03</rscale>
<asrwt>0</asrwt>
<pdfrwt beam="1">  1       21 0.64620795E-02 0.19191795E+03</pdfrwt>
<pdfrwt beam="2">  1       21 0.13621163E+00 0.19191795E+03</pdfrwt>
<totfact> 0.66693939E+04</totfact>
</mgrwt>
</event>
<event>
 4    1  0.4374784E+000  0.2455610E+03  0.7546771E-02  0.1116143E+00
         21   -1    0    0  501  502  0.00000000000E+00  0.00000000000E+00  0.74833805620E+03  0.74833805620E+03  0.00000000000E+00 0.  1.
         21   -1    0    0  502  503 -0.00000000000E+00 -0.00000000000E+00 -0.18136721490E+03  0.18136721490E+03  0.00000000000E+00 0.  1.
          6    1    1    2  501    0  0.17278463237E+03 -0.22730857272E+02  0.63001563113E+03  0.67618038756E+03  0.17300000000E+03 0.  1.
         -6    1    1    2    0  503 -0.17278463237E+03  0.22730857272E+02 -0.63044789828E+02  0.25352488355E+03  0.17300000000E+03 0.  1.
<mgrwt>
<rscale>  2 0.24556103E+03</rscale>
<asrwt>0</asrwt>
<pdfrwt beam="1">  1       21 0.11512893E+00 0.24556103E+03</pdfrwt>
<pdfrwt beam="2">  1       21 0.27902649E-01 0.24556103E+03</pdfrwt>
<totfact> 0.69123711E+03</totfact>
</mgrwt>
</event>
<event>
 4    1  0.4374784E+000  0.1954960E+03  0.7546771E-02  0.1153596E+00
         21   -1    0    0  503  502  0.00000000000E+00  0.00000000000E+00  0.33247777358E+03  0.33247777358E+03  0.00000000000E+00 0.  1.
         21   -1    0    0  501  503 -0.00000000000E+00 -0.00000000000E+00 -0.11551424107E+03  0.11551424107E+03  0.00000000000E+00 0.  1.
          6    1    1    2  501    0 -0.38016144972E+02 -0.82731179059E+02  0.12412200315E+03  0.23157060896E+03  0.17300000000E+03 0. -1.
         -6    1    1    2    0  502  0.38016144972E+02  0.82731179059E+02  0.92841529362E+02  0.21642140569E+03  0.17300000000E+03 0. -1.
<mgrwt>
<rscale>  2 0.19549597E+03</rscale>
<asrwt>0</asrwt>
<pdfrwt beam="1">  1       21 0.51150426E-01 0.19549597E+03</pdfrwt>
<pdfrwt beam="2">  1       21 0.17771422E-01 0.19549597E+03</pdfrwt>
<totfact> 0.10433962E+05</totfact>
</mgrwt>
</event>
<event>
 4    1  0.4374784E+000  0.2104595E+03  0.7546771E-02  0.1141203E+00
         21   -1    0    0  501  502  0.00000000000E+00  0.00000000000E+00  0.64893612164E+03  0.64893612164E+03  0.00000000000E+00 0. -1.
         21   -1    0    0  502  503 -0.00000000000E+00 -0.00000000000E+00 -0.14963909673E+03  0.14963909673E+03  0.00000000000E+00 0.  1.
          6    1    1    2  501    0 -0.11978355071E+03 -0.40133513329E+01  0.54411289812E+03  0.58339699340E+03  0.17300000000E+03 0. -1.
         -6    1    1    2    0  503  0.11978355071E+03  0.40133513329E+01 -0.44815873199E+02  0.21517822497E+03  0.17300000000E+03 0.  1.
<mgrwt>
<rscale>  2 0.21045951E+03</rscale>
<asrwt>0</asrwt>
<pdfrwt beam="1">  1       21 0.99836325E-01 0.21045951E+03</pdfrwt>
<pdfrwt beam="2">  1       21 0.23021400E-01 0.21045951E+03</pdfrwt>
<totfact> 0.14433264E+04</totfact>
</mgrwt>
</event>
<event>
 4    1  0.4374784E+000  0.2265025E+03  0.7546771E-02  0.1129126E+00
         21   -1    0    0  501  502  0.00000000000E+00  0.00000000000E+00  0.49468129733E+02  0.49468129733E+02  0.00000000000E+00 0.  1.
         21   -1    0    0  502  503 -0.00000000000E+00 -0.00000000000E+00 -0.11325041040E+04  0.11325041040E+04  0.00000000000E+00 0.  1.
          6    1    1    2  501    0 -0.12451165787E+03  0.76624092911E+02 -0.36998779140E+03  0.43381375076E+03  0.17300000000E+03 0.  1.
         -6    1    1    2    0  503  0.12451165787E+03 -0.76624092911E+02 -0.71304818289E+03  0.74815848300E+03  0.17300000000E+03 0.  1.
<mgrwt>
<rscale>  2 0.22650255E+03</rscale>
<asrwt>0</asrwt>
<pdfrwt beam="1">  1       21 0.76104820E-02 0.22650255E+03</pdfrwt>
<pdfrwt beam="2">  1       21 0.17423139E+00 0.22650255E+03</pdfrwt>
<totfact> 0.25520368E+04</totfact>
</mgrwt>
</event>
<event>
 4    1  0.4374784E+000  0.1789587E+03  0.7546771E-02  0.1168815E+00
         21   -1    0    0  503  502  0.00000000000E+00  0.00000000000E+00  0.83268527077E+02  0.83268527077E+02  0.00000000000E+00 0. -1.
         21   -1    0    0  501  503 -0.00000000000E+00 -0.00000000000E+00 -0.45520108264E+03  0.45520108264E+03  0.00000000000E+00 0. -1.
          6    1    1    2  501    0  0.43950137129E+02 -0.12868807367E+02 -0.79945024656E+02  0.19600364212E+03  0.17300000000E+03 0. -1.
         -6    1    1    2    0  502 -0.43950137129E+02  0.12868807367E+02 -0.29198753090E+03  0.34246596759E+03  0.17300000000E+03 0. -1.
<mgrwt>
<rscale>  2 0.17895871E+03</rscale>
<asrwt>0</asrwt>
<pdfrwt beam="1">  1       21 0.12810543E-01 0.17895871E+03</pdfrwt>
<pdfrwt beam="2">  1       21 0.70030935E-01 0.17895871E+03</pdfrwt>
<totfact> 0.97132392E+04</totfact>
</mgrwt>
</event>
<event>
 4    1  0.4374784E+000  0.2497939E+03  0.7546771E-02  0.1113435E+00
         21   -1    0    0  501  502  0.00000000000E+00  0.00000000000E+00  0.18885416960E+03  0.18885416960E+03  0.00000000000E+00 0.  1.
         21   -1    0    0  502  503 -0.00000000000E+00 -0.00000000000E+00 -0.19765038056E+04  0.19765038056E+04  0.00000000000E+00 0.  1.
          6    1    1    2  501    0 -0.12908236793E+03 -0.12572092487E+03  0.94227123499E+02  0.26697520384E+03  0.17300000000E+03 0.  1.
         -6    1    1    2    0  503  0.12908236793E+03  0.12572092487E+03 -0.18818767595E+04  0.18983827713E+04  0.17300000000E+03 0.  1.
<mgrwt>
<rscale>  2 0.24979393E+03</rscale>
<asrwt>0</asrwt>
<pdfrwt beam="1">  1       21 0.29054487E-01 0.24979393E+03</pdfrwt>
<pdfrwt beam="2">  1       21 0.30407752E+00 0.24979393E+03</pdfrwt>
<totfact> 0.34028838E+02</totfact>
</mgrwt>
</event>
<event>
 4    1  0.4374784E+000  0.1912921E+03  0.7546771E-02  0.1157301E+00
         21   -1    0    0  503  502  0.00000000000E+00  0.00000000000E+00  0.63695534272E+03  0.63695534272E+03  0.00000000000E+00 0.  1.
         21   -1    0    0  501  503 -0.00000000000E+00 -0.00000000000E+00 -0.70783133118E+02  0.70783133118E+02  0.00000000000E+00 0.  1.
          6    1    1    2  501    0  0.77811240397E+02  0.24679722349E+02  0.12949911675E+03  0.23100367760E+03  0.17300000000E+03 0.  1.
         -6    1    1    2    0  502 -0.77811240397E+02 -0.24679722349E+02  0.43667309285E+03  0.47673479824E+03  0.17300000000E+03 0.  1.
<mgrwt>
<rscale>  2 0.19129213E+03</rscale>
<asrwt>0</asrwt>
<pdfrwt beam="1">  1       21 0.97993126E-01 0.19129213E+03</pdfrwt>
<pdfrwt beam="2">  1       21 0.10889713E-01 0.19129213E+03</pdfrwt>
<totfact> 0.60131478E+04</totfact>
</mgrwt>
</event>
<event>
 4    1  0.4374784E+000  0.2434422E+03  0.7546771E-02  0.1117521E+00
         21   -1    0    0  501  502  0.00000000000E+00  0.00000000000E+00  0.24730870774E+03  0.24730870774E+03  0.00000000000E+00 0. -1.
         21   -1    0    0  502  503 -0.00000000000E+00 -0.00000000000E+00 -0.42339416698E+03  0.42339416698E+03  0.00000000000E+00 0. -1.
          6    1    1    2  501    0 -0.14186083870E+03 -0.95971989720E+02  0.13288529975E+03  0.27734928025E+03  0.17300000000E+03 0. -1.
         -6    1    1    2    0  503  0.14186083870E+03  0.95971989720E+02 -0.30897075899E+03  0.39335359446E+03  0.17300000000E+03 0. -1.
<mgrwt>
<rscale>  2 0.24344223E+03</rscale>
<asrwt>0</asrwt>
<pdfrwt beam="1">  1       21 0.38047494E-01 0.24344223E+03</pdfrwt>
<pdfrwt beam="2">  1       21 0.65137563E-01 0.24344223E+03</pdfrwt>
<totfact> 0.14022722E+04</totfact>
</mgrwt>
</event>
<event>
 4    1  0.4374784E+000  0.2132808E+03  0.7546771E-02  0.1138994E+00
         21   -1    0    0  503  502  0.00000000000E+00  0.00000000000E+00  0.30232825766E+03  0.30232825766E+03  0.00000000000E+00 0.  1.
         21   -1    0    0  501  503 -0.00000000000E+00 -0.00000000000E+00 -0.15184413907E+03  0.15184413907E+03  0.00000000000E+00 0. -1.
          6    1    1    2  501    0  0.98283387953E+02 -0.76811891427E+02  0.53570827305E+02  0.21990571741E+03  0.17300000000E+03 0. -1.
         -6    1    1    2    0  502 -0.98283387953E+02  0.76811891427E+02  0.96913291279E+02  0.23426667932E+03  0.17300000000E+03 0.  1.
<mgrwt>
<rscale>  2 0.21328078E+03</rscale>
<asrwt>0</asrwt>
<pdfrwt beam="1">  1       21 0.46512040E-01 0.21328078E+03</pdfrwt>
<pdfrwt beam="2">  1       21 0.23360637E-01 0.21328078E+03</pdfrwt>
<totfact> 0.75614188E+04</totfact>
</mgrwt>
</event>
<event>
 4    1  0.4374784E+000  0.1785999E+03  0.7546771E-02  0.1169165E+00
         21   -1    0    0  501  502  0.00000000000E+00  0.00000000000E+00  0.10136537098E+04  0.10136537098E+04  0.00000000000E+00 0. -1.
         21   -1    0    0  502  503 -0.00000000000E+00 -0.00000000000E+00 -0.33342933344E+02  0.33342933344E+02  0.00000000000E+00 0. -1.
          6    1    1    2  501    0 -0.25284410497E+02  0.36464228205E+02  0.61428448093E+03  0.63972131812E+03  0.17300000000E+03 0. -1.
         -6    1    1    2    0  503  0.25284410497E+02 -0.36464228205E+02  0.36602629553E+03  0.40727532503E+03  0.17300000000E+03 0. -1.
<mgrwt>
<rscale>  2 0.17859995E+03</rscale>
<asrwt>0</asrwt>
<pdfrwt beam="1">  1       21 0.15594670E+00 0.17859995E+03</pdfrwt>
<pdfrwt beam="2">  1       21 0.51296828E-02 0.17859995E+03</pdfrwt>
<totfact> 0.69972138E+04</totfact>
</mgrwt>
</event>
<event>
 4    1  0.4374784E+000  0.1816192E+03  0.7546771E-02  0.1166245E+00
         21   -1    0    0  503  502  0.00000000000E+00  0.00000000000E+00  0.19637302757E+03  0.19637302757E+03  0.00000000000E+00 0. -1.
         21   -1    0    0  501  503 -0.00000000000E+00 -0.00000000000E+00 -0.36826819628E+03  0.36826819628E+03  0.00000000000E+00 0. -1.
          6    1    1    2  501    0 -0.73519900221E+01 -0.54794935949E+02 -0.29415433502E+03  0.34570552436E+03  0.17300000000E+03 0. -1.
         -6    1    1    2    0  502  0.73519900221E+01  0.54794935949E+02  0.12225916631E+03  0.21893569949E+03  0.17300000000E+03 0. -1.
<mgrwt>
<rscale>  2 0.18161921E+03</rscale>
<asrwt>0</asrwt>
<pdfrwt beam="1">  1       21 0.30211235E-01 0.18161921E+03</pdfrwt>
<pdfrwt beam="2">  1       21 0.56656645E-01 0.18161921E+03</pdfrwt>
<totfact> 0.30969872E+04</totfact>
</mgrwt>
</event>
<event>
 4    1  0.4374784E+000  0.1826718E+03  0.7546771E-02  0.1165242E+00
         21   -1    0    0  503  502  0.00000000000E+00  0.00000000000E+00  0.73057245617E+03  0.73057245617E+03  0.00000000000E+00 0.  1.
         21   -1    0    0  501  503 -0.00000000000E+00 -0.00000000000E+00 -0.96779994256E+02  0.96779994256E+02  0.00000000000E+00 0.  1.
          6    1    1    2  501    0 -0.51661926852E+02  0.27767788671E+02  0.16289423987E+02  0.18339670146E+03  0.17300000000E+03 0.  1.
         -6    1    1    2    0  502  0.51661926852E+02 -0.27767788671E+02  0.61750303793E+03  0.64395574897E+03  0.17300000000E+03 0.  1.
<mgrwt>
<rscale>  2 0.18267185E+03</rscale>
<asrwt>0</asrwt>
<pdfrwt beam="1">  1       21 0.11239576E+00 0.18267185E+03</pdfrwt>
<pdfrwt beam="2">  1       21 0.14889230E-01 0.18267185E+03</pdfrwt>
<totfact> 0.24794482E+04</totfact>
</mgrwt>
</event>
<event>
 4    1  0.4374784E+000  0.2005185E+03  0.7546771E-02  0.1149302E+00
         21   -1    0    0  503  502  0.00000000000E+00  0.00000000000E+00  0.45351695908E+02  0.45351695908E+02  0.00000000000E+00 0. -1.
         21   -1    0    0  501  503 -0.00000000000E+00 -0.00000000000E+00 -0.10484546496E+04  0.10484546496E+04  0.00000000000E+00 0. -1.
          6    1    1    2  501    0 -0.77739143299E+00  0.10138082078E+03 -0.71644923409E+03  0.74398063159E+03  0.17300000000E+03 0. -1.
         -6    1    1    2    0  502  0.77739143299E+00 -0.10138082078E+03 -0.28665371964E+03  0.34982571395E+03  0.17300000000E+03 0. -1.
<mgrwt>
<rscale>  2 0.20051852E+03</rscale>
<asrwt>0</asrwt>
<pdfrwt beam="1">  1       21 0.69771854E-02 0.20051852E+03</pdfrwt>
<pdfrwt beam="2">  1       21 0.16130068E+00 0.20051852E+03</pdfrwt>
<totfact> 0.37277670E+04</totfact>
</mgrwt>
</event>
<event>
 4    1  0.4374784E+000  0.2251391E+03  0.7546771E-02  0.1130109E+00
         21   -1    0    0  501  502  0.00000000000E+00  0.00000000000E+00  0.23107806654E+03  0.23107806654E+03  0.00000000000E+00 0. -1.
         21   -1    0    0  502  503 -0.00000000000E+00 -0.00000000000E+00 -0.26315438561E+03  0.26315438561E+03  0.00000000000E+00 0.  1.
          6    1    1    2  501    0 -0.13517027111E+03 -0.49876042233E+02  0.84780485006E+02  0.24057296693E+03  0.17300000000E+03 0. -1.
         -6    1    1    2    0  503  0.13517027111E+03  0.49876042233E+02 -0.11685680408E+03  0.25365948522E+03  0.17300000000E+03 0. -1.
<mgrwt>
<rscale>  2 0.22513912E+03</rscale>
<asrwt>0</asrwt>
<pdfrwt beam="1">  1       21 0.35550472E-01 0.22513912E+03</pdfrwt>
<pdfrwt beam="2">  1       21 0.40485290E-01 0.22513912E+03</pdfrwt>
<totfact> 0.44149726E+04</totfact>
</mgrwt>
</event>
<event>
 4    1  0.4374784E+000  0.2140269E+03  0.7546771E-02  0.1138416E+00
         21   -1    0    0  501  502  0.00000000000E+00  0.00000000000E+00  0.71592553948E+02  0.71592553948E+02  0.00000000000E+00 0.  1.
         21   -1    0    0  502  503 -0.00000000000E+00 -0.00000000000E+00 -0.67650704988E+03  0.67650704988E+03  0.00000000000E+00 0. -1.
          6    1    1    2  501    0 -0.55161633414E+00 -0.12600882938E+03 -0.21537052295E+03  0.30363134146E+03  0.17300000000E+03 0.  1.
         -6    1    1    2    0  503  0.55161633414E+00  0.12600882938E+03 -0.38954397298E+03  0.44446826237E+03  0.17300000000E+03 0. -1.
<mgrwt>
<rscale>  2 0.21402694E+03</rscale>
<asrwt>0</asrwt>
<pdfrwt beam="1">  1       21 0.11014239E-01 0.21402694E+03</pdfrwt>
<pdfrwt beam="2">  1       21 0.10407801E+00 0.21402694E+03</pdfrwt>
<totfact> 0.50474834E+04</totfact>
</mgrwt>
</event>
<event>
 4    1  0.4374784E+000  0.1894688E+03  0.7546771E-02  0.1158941E+00
         21   -1    0    0  501  502  0.00000000000E+00  0.00000000000E+00  0.12816320173E+03  0.12816320173E+03  0.00000000000E+00 0. -1.
         21   -1    0    0  502  503 -0.00000000000E+00 -0.00000000000E+00 -0.31429369984E+03  0.31429369984E+03  0.00000000000E+00 0. -1.
          6    1    1    2  501    0 -0.73682424301E+02  0.23244955602E+02 -0.20094230352E+02  0.19053137722E+03  0.17300000000E+03 0. -1.
         -6    1    1    2    0  503  0.73682424301E+02 -0.23244955602E+02 -0.16603626776E+03  0.25192552436E+03  0.17300000000E+03 0. -1.
<mgrwt>
<rscale>  2 0.18946880E+03</rscale>
<asrwt>0</asrwt>
<pdfrwt beam="1">  1       21 0.19717416E-01 0.18946880E+03</pdfrwt>
<pdfrwt beam="2">  1       21 0.48352877E-01 0.18946880E+03</pdfrwt>
<totfact> 0.96961268E+04</totfact>
</mgrwt>
</event>
<event>
 4    1  0.4374784E+000  0.2152398E+03  0.7546771E-02  0.1137483E+00
         21   -1    0    0  503  502  0.00000000000E+00  0.00000000000E+00  0.87135425985E+02  0.87135425985E+02  0.00000000000E+00 0.  1.
         21   -1    0    0  501  503 -0.00000000000E+00 -0.00000000000E+00 -0.56644970087E+03  0.56644970087E+03  0.00000000000E+00 0.  1.
          6    1    1    2  501    0 -0.12771990274E+03 -0.93170522255E+01 -0.32062090241E+03  0.38616828466E+03  0.17300000000E+03 0.  1.
         -6    1    1    2    0  502  0.12771990274E+03  0.93170522255E+01 -0.15869337247E+03  0.26741684219E+03  0.17300000000E+03 0.  1.
<mgrwt>
<rscale>  2 0.21523982E+03</rscale>
<asrwt>0</asrwt>
<pdfrwt beam="1">  1       21 0.13405450E-01 0.21523982E+03</pdfrwt>
<pdfrwt beam="2">  1       21 0.87146111E-01 0.21523982E+03</pdfrwt>
<totfact> 0.53830978E+04</totfact>
</mgrwt>
</event>
<event>
 4    1  0.4374784E+000  0.1806781E+03  0.7546771E-02  0.1167148E+00
         21   -1    0    0  501  502  0.00000000000E+00  0.00000000000E+00  0.13268504848E+03  0.13268504848E+03  0.00000000000E+00 0.  1.
         21   -1    0    0  502  503 -0.00000000000E+00 -0.00000000000E+00 -0.55313503334E+03  0.55313503334E+03  0.00000000000E+00 0.  1.
          6    1    1    2  501    0  0.34283748639E+02 -0.39245243573E+02  0.45284921415E+02  0.18626671380E+03  0.17300000000E+03 0.  1.
         -6    1    1    2    0  503 -0.34283748639E+02  0.39245243573E+02 -0.46573490628E+03  0.49955336801E+03  0.17300000000E+03 0.  1.
<mgrwt>
<rscale>  2 0.18067807E+03</rscale>
<asrwt>0</asrwt>
<pdfrwt beam="1">  1       21 0.20413085E-01 0.18067807E+03</pdfrwt>
<pdfrwt beam="2">  1       21 0.85097697E-01 0.18067807E+03</pdfrwt>
<totfact> 0.26733787E+04</totfact>
</mgrwt>
</event>
<event>
 4    1  0.4374784E+000  0.1752917E+03  0.7546771E-02  0.1172439E+00
         21   -1    0    0  503  502  0.00000000000E+00  0.00000000000E+00  0.66181472103E+03  0.66181472103E+03  0.00000000000E+00 0.  1.
         21   -1    0    0  501  503 -0.00000000000E+00 -0.00000000000E+00 -0.46429933600E+02  0.46429933600E+02  0.00000000000E+00 0.  1.
          6    1    1    2  501    0  0.18514559016E+02 -0.21339903869E+02  0.30953634902E+03  0.35572451666E+03  0.17300000000E+03 0. -1.
         -6    1    1    2    0  502 -0.18514559016E+02  0.21339903869E+02  0.30584843841E+03  0.35252013797E+03  0.17300000000E+03 0. -1.
<mgrwt>
<rscale>  2 0.17529170E+03</rscale>
<asrwt>0</asrwt>
<pdfrwt beam="1">  1       21 0.10181764E+00 0.17529170E+03</pdfrwt>
<pdfrwt beam="2">  1       21 0.71430672E-02 0.17529170E+03</pdfrwt>
<totfact> 0.11567717E+05</totfact>
</mgrwt>
</event>
<event>
 4    1  0.4374784E+000  0.1974812E+03  0.7546771E-02  0.1151882E+00
         21   -1    0    0  501  502  0.00000000000E+00  0.00000000000E+00  0.29766433567E+03  0.29766433567E+03  0.00000000000E+00 0. -1.
         21   -1    0    0  502  503 -0.00000000000E+00 -0.00000000000E+00 -0.32110812595E+03  0.32110812595E+03  0.00000000000E+00 0. -1.
          6    1    1    2  501    0  0.95213886943E+02 -0.20362062761E+01  0.22632210781E+03  0.30036731994E+03  0.17300000000E+03 0. -1.
         -6    1    1    2    0  503 -0.95213886943E+02  0.20362062761E+01 -0.24976589809E+03  0.31840514168E+03  0.17300000000E+03 0. -1.
<mgrwt>
<rscale>  2 0.19748122E+03</rscale>
<asrwt>0</asrwt>
<pdfrwt beam="1">  1       21 0.45794513E-01 0.19748122E+03</pdfrwt>
<pdfrwt beam="2">  1       21 0.49401250E-01 0.19748122E+03</pdfrwt>
<totfact> 0.17807801E+04</totfact>
</mgrwt>
</event>
<event>
 4    1  0.4374784E+000  0.2019343E+03  0.7546771E-02  0.1148117E+00
         21   -1    0    0  503  502  0.00000000000E+00  0.00000000000E+00  0.57958329942E+03  0.57958329942E+03  0.00000000000E+00 0. -1.
         21   -1    0    0  501  503 -0.00000000000E+00 -0.00000000000E+00 -0.70426377326E+02  0.70426377326E+02  0.00000000000E+00 0. -1.
          6    1    1    2  501    0  0.38511433694E+02 -0.96774620173E+02  0.24434170735E+03  0.31698632082E+03  0.17300000000E+03 0. -1.
         -6    1    1    2    0  502 -0.38511433694E+02  0.96774620173E+02  0.26481521475E+03  0.33302335593E+03  0.17300000000E+03 0. -1.
<mgrwt>
<rscale>  2 0.20193429E+03</rscale>
<asrwt>0</asrwt>
<pdfrwt beam="1">  1       21 0.89166658E-01 0.20193429E+03</pdfrwt>
<pdfrwt beam="2">  1       21 0.10834828E-01 0.20193429E+03</pdfrwt>
<totfact> 0.75249719E+04</totfact>
</mgrwt>
</event>
<event>
 4    1  0.4374784E+000  0.1862805E+03  0.7546771E-02  0.1161860E+00
         21   -1    0    0  501  502  0.00000000000E+00  0.00000000000E+00  0.44552279544E+03  0.44552279544E+03  0.00000000000E+00 0. -1.
         21   -1    0    0  502  503 -0.00000000000E+00 -0.00000000000E+00 -0.95164330654E+02  0.95164330654E+02  0.00000000000E+00 0. -1.
          6    1    1    2  501    0 -0.24880479187E+02 -0.64438970472E+02  0.29037000068E+03  0.34498573370E+03  0.17300000000E+03 0.  1.
         -6    1    1    2    0  503  0.24880479187E+02  0.64438970472E+02  0.59988464105E+02  0.19570139240E+03  0.17300000000E+03 0.  1.
<mgrwt>
<rscale>  2 0.18628049E+03</rscale>
<asrwt>0</asrwt>
<pdfrwt beam="1">  1       21 0.68541967E-01 0.18628049E+03</pdfrwt>
<pdfrwt beam="2">  1       21 0.14640667E-01 0.18628049E+03</pdfrwt>
<totfact> 0.79776534E+04</totfact>
</mgrwt>
</event>
<event>
 4    1  0.4374784E+000  0.1749256E+03  0.7546771E-02  0.1172806E+00
         21   -1    0    0  501  502  0.00000000000E+00  0.00000000000E+00  0.69208101905E+03  0.69208101905E+03  0.00000000000E+00 0.  1.
         21   -1    0    0  502  503 -0.00000000000E+00 -0.00000000000E+00 -0.44318002863E+02  0.44318002863E+02  0.00000000000E+00 0.  1.
          6    1    1    2  501    0  0.24465918534E+02  0.84487080821E+01  0.34180581044E+03  0.38396637078E+03  0.17300000000E+03 0. -1.
         -6    1    1    2    0  503 -0.24465918534E+02 -0.84487080821E+01  0.30595720575E+03  0.35243265114E+03  0.17300000000E+03 0. -1.
<mgrwt>
<rscale>  2 0.17492559E+03</rscale>
<asrwt>0</asrwt>
<pdfrwt beam="1">  1       21 0.10647399E+00 0.17492559E+03</pdfrwt>
<pdfrwt beam="2">  1       21 0.68181548E-02 0.17492559E+03</pdfrwt>
<totfact> 0.11265105E+05</totfact>
</mgrwt>
</event>
<event>
 4    1  0.4374784E+000  0.2721605E+03  0.7546771E-02  0.1100049E+00
         21   -1    0    0  503  502  0.00000000000E+00  0.00000000000E+00  0.38013698515E+03  0.38013698515E+03  0.00000000000E+00 0. -1.
         21   -1    0    0  501  503 -0.00000000000E+00 -0.00000000000E+00 -0.19605615303E+03  0.19605615303E+03  0.00000000000E+00 0.  1.
          6    1    1    2  501    0 -0.98151233434E+02  0.18576512769E+03  0.11459648839E+03  0.29530273016E+03  0.17300000000E+03 0. -1.
         -6    1    1    2    0  502  0.98151233434E+02 -0.18576512769E+03  0.69484343733E+02  0.28089040802E+03  0.17300000000E+03 0.  1.
<mgrwt>
<rscale>  2 0.27216052E+03</rscale>
<asrwt>0</asrwt>
<pdfrwt beam="1">  1       21 0.58482613E-01 0.27216052E+03</pdfrwt>
<pdfrwt beam="2">  1       21 0.30162485E-01 0.27216052E+03</pdfrwt>
<totfact> 0.27767362E+04</totfact>
</mgrwt>
</event>
<event>
 4    1  0.4374784E+000  0.2415363E+03  0.7546771E-02  0.1118774E+00
         21   -1    0    0  503  502  0.00000000000E+00  0.00000000000E+00  0.19131994158E+03  0.19131994158E+03  0.00000000000E+00 0. -1.
         21   -1    0    0  501  503 -0.00000000000E+00 -0.00000000000E+00 -0.43223761505E+03  0.43223761505E+03  0.00000000000E+00 0.  1.
          6    1    1    2  501    0 -0.10913816425E+03  0.12845099592E+03 -0.28966144255E+03  0.37715189055E+03  0.17300000000E+03 0.  1.
         -6    1    1    2    0  502  0.10913816425E+03 -0.12845099592E+03  0.48743769074E+02  0.24640566607E+03  0.17300000000E+03 0. -1.
<mgrwt>
<rscale>  2 0.24153633E+03</rscale>
<asrwt>0</asrwt>
<pdfrwt beam="1">  1       21 0.29433837E-01 0.24153633E+03</pdfrwt>
<pdfrwt beam="2">  1       21 0.66498094E-01 0.24153633E+03</pdfrwt>
<totfact> 0.22330271E+04</totfact>
</mgrwt>
</event>
<event>
 4    1  0.4374784E+000  0.1863186E+03  0.7546771E-02  0.1161824E+00
         21   -1    0    0  503  502  0.00000000000E+00  0.00000000000E+00  0.24016536572E+03  0.24016536572E+03  0.00000000000E+00 0.  1.
         21   -1    0    0  501  503 -0.00000000000E+00 -0.00000000000E+00 -0.15553224906E+03  0.15553224906E+03  0.00000000000E+00 0.  1.
          6    1    1    2  501    0  0.17701212266E+02 -0.66875256615E+02 -0.10269842755E+02  0.18660145373E+03  0.17300000000E+03 0.  1.
         -6    1    1    2    0  502 -0.17701212266E+02  0.66875256615E+02  0.94902959416E+02  0.20909616106E+03  0.17300000000E+03 0.  1.
<mgrwt>
<rscale>  2 0.18631863E+03</rscale>
<asrwt>0</asrwt>
<pdfrwt beam="1">  1       21 0.36948518E-01 0.18631863E+03</pdfrwt>
<pdfrwt beam="2">  1       21 0.23928038E-01 0.18631863E+03</pdfrwt>
<totfact> 0.11658169E+05</totfact>
</mgrwt>
</event>
<event>
 4    1  0.4374784E+000  0.1824634E+03  0.7546771E-02  0.1165440E+00
         21   -1    0    0  501  502  0.00000000000E+00  0.00000000000E+00  0.34474915804E+02  0.34474915804E+02  0.00000000000E+00 0. -1.
         21   -1    0    0  502  503 -0.00000000000E+00 -0.00000000000E+00 -0.16050538255E+04  0.16050538255E+04  0.00000000000E+00 0. -1.
          6    1    1    2  501    0 -0.49864139789E+02 -0.29621883005E+02 -0.26790864209E+03  0.32414183453E+03  0.17300000000E+03 0. -1.
         -6    1    1    2    0  503  0.49864139789E+02  0.29621883005E+02 -0.13026702676E+04  0.13153869067E+04  0.17300000000E+03 0. -1.
<mgrwt>
<rscale>  2 0.18246339E+03</rscale>
<asrwt>0</asrwt>
<pdfrwt beam="1">  1       21 0.53038329E-02 0.18246339E+03</pdfrwt>
<pdfrwt beam="2">  1       21 0.24693137E+00 0.18246339E+03</pdfrwt>
<totfact> 0.17025054E+04</totfact>
</mgrwt>
</event>
<event>
 4    1  0.4374784E+000  0.1800321E+03  0.7546771E-02  0.1167772E+00
         21   -1    0    0  501  502  0.00000000000E+00  0.00000000000E+00  0.40816996385E+03  0.40816996385E+03  0.00000000000E+00 0.  1.
         21   -1    0    0  502  503 -0.00000000000E+00 -0.00000000000E+00 -0.12454843177E+03  0.12454843177E+03  0.00000000000E+00 0.  1.
          6    1    1    2  501    0 -0.45918004953E+02 -0.19341798937E+02  0.30216707168E+03  0.35173357470E+03  0.17300000000E+03 0.  1.
         -6    1    1    2    0  503  0.45918004953E+02  0.19341798937E+02 -0.18545539599E+02  0.18098482092E+03  0.17300000000E+03 0.  1.
<mgrwt>
<rscale>  2 0.18003213E+03</rscale>
<asrwt>0</asrwt>
<pdfrwt beam="1">  1       21 0.62795378E-01 0.18003213E+03</pdfrwt>
<pdfrwt beam="2">  1       21 0.19161297E-01 0.18003213E+03</pdfrwt>
<totfact> 0.59065773E+04</totfact>
</mgrwt>
</event>
<event>
 4    1  0.4374784E+000  0.1798762E+03  0.7546771E-02  0.1167923E+00
         21   -1    0    0  501  502  0.00000000000E+00  0.00000000000E+00  0.15249046484E+04  0.15249046484E+04  0.00000000000E+00 0.  1.
         21   -1    0    0  502  503 -0.00000000000E+00 -0.00000000000E+00 -0.27362515508E+02  0.27362515508E+02  0.00000000000E+00 0.  1.
          6    1    1    2  501    0  0.27579118087E+02  0.40814833574E+02  0.11165624542E+04  0.11309585194E+04  0.17300000000E+03 0.  1.
         -6    1    1    2    0  503 -0.27579118087E+02 -0.40814833574E+02  0.38097967872E+03  0.42130864457E+03  0.17300000000E+03 0.  1.
<mgrwt>
<rscale>  2 0.17987623E+03</rscale>
<asrwt>0</asrwt>
<pdfrwt beam="1">  1       21 0.23460065E+00 0.17987623E+03</pdfrwt>
<pdfrwt beam="2">  1       21 0.42096190E-02 0.17987623E+03</pdfrwt>
<totfact> 0.29817953E+04</totfact>
</mgrwt>
</event>
<event>
 4    1  0.4374784E+000  0.2953448E+03  0.7546771E-02  0.1087591E+00
         21   -1    0    0  501  502  0.00000000000E+00  0.00000000000E+00  0.35930803481E+03  0.35930803481E+03  0.00000000000E+00 0. -1.
         21   -1    0    0  502  503 -0.00000000000E+00 -0.00000000000E+00 -0.33125044445E+03  0.33125044445E+03  0.00000000000E+00 0.  1.
          6    1    1    2  501    0  0.23344725470E+03 -0.52933169649E+02  0.19248040033E+03  0.35252977986E+03  0.17300000000E+03 0. -1.
         -6    1    1    2    0  503 -0.23344725470E+03  0.52933169649E+02 -0.16442280997E+03  0.33802869940E+03  0.17300000000E+03 0.  1.
<mgrwt>
<rscale>  2 0.29534478E+03</rscale>
<asrwt>0</asrwt>
<pdfrwt beam="1">  1       21 0.55278159E-01 0.29534478E+03</pdfrwt>
<pdfrwt beam="2">  1       21 0.50961607E-01 0.29534478E+03</pdfrwt>
<totfact> 0.10668601E+04</totfact>
</mgrwt>
</event>
<event>
 4    1  0.4374784E+000  0.2532309E+03  0.7546771E-02  0.1111280E+00
         21   -1    0    0  501  502  0.00000000000E+00  0.00000000000E+00  0.88098802422E+02  0.88098802422E+02  0.00000000000E+00 0.  1.
         21   -1    0    0  502  503 -0.00000000000E+00 -0.00000000000E+00 -0.76375136999E+03  0.76375136999E+03  0.00000000000E+00 0.  1.
          6    1    1    2  501    0  0.12926167120E+03 -0.13224334034E+03 -0.43012489463E+03  0.49913255323E+03  0.17300000000E+03 0.  1.
         -6    1    1    2    0  503 -0.12926167120E+03  0.13224334034E+03 -0.24552767293E+03  0.35271761918E+03  0.17300000000E+03 0.  1.
<mgrwt>
<rscale>  2 0.25323088E+03</rscale>
<asrwt>0</asrwt>
<pdfrwt beam="1">  1       21 0.13553662E-01 0.25323088E+03</pdfrwt>
<pdfrwt beam="2">  1       21 0.11750021E+00 0.25323088E+03</pdfrwt>
<totfact> 0.25369402E+04</totfact>
</mgrwt>
</event>
<event>
 4    1  0.4374784E+000  0.2501537E+03  0.7546771E-02  0.1113208E+00
         21   -1    0    0  501  502  0.00000000000E+00  0.00000000000E+00  0.56033000677E+02  0.56033000677E+02  0.00000000000E+00 0. -1.
         21   -1    0    0  502  503 -0.00000000000E+00 -0.00000000000E+00 -0.12489861980E+04  0.12489861980E+04  0.00000000000E+00 0. -1.
          6    1    1    2  501    0 -0.39356571397E+02  0.17634883121E+03 -0.80876425644E+03  0.84656746481E+03  0.17300000000E+03 0. -1.
         -6    1    1    2    0  503  0.39356571397E+02 -0.17634883121E+03 -0.38418894085E+03  0.45845173383E+03  0.17300000000E+03 0. -1.
<mgrwt>
<rscale>  2 0.25015365E+03</rscale>
<asrwt>0</asrwt>
<pdfrwt beam="1">  1       21 0.86204627E-02 0.25015365E+03</pdfrwt>
<pdfrwt beam="2">  1       21 0.19215170E+00 0.25015365E+03</pdfrwt>
<totfact> 0.15276421E+04</totfact>
</mgrwt>
</event>
<event>
 4    1  0.4374784E+000  0.1776967E+03  0.7546771E-02  0.1170051E+00
         21   -1    0    0  501  502  0.00000000000E+00  0.00000000000E+00  0.24516281554E+03  0.24516281554E+03  0.00000000000E+00 0. -1.
         21   -1    0    0  502  503 -0.00000000000E+00 -0.00000000000E+00 -0.27701861764E+03  0.27701861764E+03  0.00000000000E+00 0. -1.
          6    1    1    2  501    0  0.13538431403E+02  0.38260031186E+02  0.17505453082E+03  0.24943978807E+03  0.17300000000E+03 0. -1.
         -6    1    1    2    0  503 -0.13538431403E+02 -0.38260031186E+02 -0.20691033292E+03  0.27274164512E+03  0.17300000000E+03 0. -1.
<mgrwt>
<rscale>  2 0.17769671E+03</rscale>
<asrwt>0</asrwt>
<pdfrwt beam="1">  1       21 0.37717357E-01 0.17769671E+03</pdfrwt>
<pdfrwt beam="2">  1       21 0.42618249E-01 0.17769671E+03</pdfrwt>
<totfact> 0.36183504E+04</totfact>
</mgrwt>
</event>
<event>
 4    1  0.4374784E+000  0.1753949E+03  0.7546771E-02  0.1172336E+00
         21   -1    0    0  501  502  0.00000000000E+00  0.00000000000E+00  0.84943737793E+02  0.84943737793E+02  0.00000000000E+00 0. -1.
         21   -1    0    0  502  503 -0.00000000000E+00 -0.00000000000E+00 -0.39818447005E+03  0.39818447005E+03  0.00000000000E+00 0. -1.
          6    1    1    2  501    0  0.13965114178E+02 -0.25285362398E+02 -0.83963208483E+02  0.19445615018E+03  0.17300000000E+03 0. -1.
         -6    1    1    2    0  503 -0.13965114178E+02  0.25285362398E+02 -0.22927752377E+03  0.28867205766E+03  0.17300000000E+03 0. -1.
<mgrwt>
<rscale>  2 0.17539491E+03</rscale>
<asrwt>0</asrwt>
<pdfrwt beam="1">  1       21 0.13068268E-01 0.17539491E+03</pdfrwt>
<pdfrwt beam="2">  1       21 0.61259148E-01 0.17539491E+03</pdfrwt>
<totfact> 0.12554694E+05</totfact>
</mgrwt>
</event>
<event>
 4    1  0.4374784E+000  0.2631912E+03  0.7546771E-02  0.1105241E+00
         21   -1    0    0  501  502  0.00000000000E+00  0.00000000000E+00  0.12815842220E+03  0.12815842220E+03  0.00000000000E+00 0. -1.
         21   -1    0    0  502  503 -0.00000000000E+00 -0.00000000000E+00 -0.13442078875E+04  0.13442078875E+04  0.00000000000E+00 0.  1.
          6    1    1    2  501    0 -0.12468586564E+03 -0.15425319216E+03 -0.38776353649E+02  0.26603236266E+03  0.17300000000E+03 0. -1.
         -6    1    1    2    0  503  0.12468586564E+03  0.15425319216E+03 -0.11772731117E+04  0.12063339471E+04  0.17300000000E+03 0.  1.
<mgrwt>
<rscale>  2 0.26319121E+03</rscale>
<asrwt>0</asrwt>
<pdfrwt beam="1">  1       21 0.19716680E-01 0.26319121E+03</pdfrwt>
<pdfrwt beam="2">  1       21 0.20680122E+00 0.26319121E+03</pdfrwt>
<totfact> 0.27079743E+03</totfact>
</mgrwt>
</event>
<event>
 4    1  0.4374784E+000  0.2045222E+03  0.7546771E-02  0.1145979E+00
         21   -1    0    0  503  502  0.00000000000E+00  0.00000000000E+00  0.99506416619E+03  0.99506416619E+03  0.00000000000E+00 0. -1.
         21   -1    0    0  501  503 -0.00000000000E+00 -0.00000000000E+00 -0.66174669468E+02  0.66174669468E+02  0.00000000000E+00 0. -1.
          6    1    1    2  501    0 -0.40219496996E+01 -0.10901452267E+03  0.14397543163E+03  0.25011650714E+03  0.17300000000E+03 0. -1.
         -6    1    1    2    0  502  0.40219496996E+01  0.10901452267E+03  0.78491406510E+03  0.81112232852E+03  0.17300000000E+03 0. -1.
<mgrwt>
<rscale>  2 0.20452223E+03</rscale>
<asrwt>0</asrwt>
<pdfrwt beam="1">  1       21 0.15308678E+00 0.20452223E+03</pdfrwt>
<pdfrwt beam="2">  1       21 0.10180719E-01 0.20452223E+03</pdfrwt>
<totfact> 0.22093337E+04</totfact>
</mgrwt>
</event>
<event>
 4    1  0.4374784E+000  0.1746527E+03  0.7546771E-02  0.1173081E+00
         21   -1    0    0  501  502  0.00000000000E+00  0.00000000000E+00  0.72829080239E+03  0.72829080239E+03  0.00000000000E+00 0. -1.
         21   -1    0    0  502  503 -0.00000000000E+00 -0.00000000000E+00 -0.57955335430E+02  0.57955335430E+02  0.00000000000E+00 0. -1.
          6    1    1    2  501    0  0.10709251778E+01  0.23946383995E+02  0.54218696419E+03  0.56962292819E+03  0.17300000000E+03 0. -1.
         -6    1    1    2    0  503 -0.10709251778E+01 -0.23946383995E+02  0.12814850277E+03  0.21662320963E+03  0.17300000000E+03 0. -1.
<mgrwt>
<rscale>  2 0.17465273E+03</rscale>
<asrwt>0</asrwt>
<pdfrwt beam="1">  1       21 0.11204473E+00 0.17465273E+03</pdfrwt>
<pdfrwt beam="2">  1       21 0.89162060E-02 0.17465273E+03</pdfrwt>
<totfact> 0.62568126E+04</totfact>
</mgrwt>
</event>
<event>
 4    1  0.4374784E+000  0.3627770E+03  0.7546771E-02  0.1057490E+00
         21   -1    0    0  503  502  0.00000000000E+00  0.00000000000E+00  0.14922205816E+04  0.14922205816E+04  0.00000000000E+00 0.  1.
         21   -1    0    0  501  503 -0.00000000000E+00 -0.00000000000E+00 -0.89230202532E+02  0.89230202532E+02  0.00000000000E+00 0. -1.
          6    1    1    2  501    0  0.29447575878E+03 -0.12232007076E+03  0.61634747154E+03  0.71518625399E+03  0.17300000000E+03 0. -1.
         -6    1    1    2    0  502 -0.29447575878E+03  0.12232007076E+03  0.78664290754E+03  0.86626453016E+03  0.17300000000E+03 0.  1.
<mgrwt>
<rscale>  2 0.36277703E+03</rscale>
<asrwt>0</asrwt>
<pdfrwt beam="1">  1       21 0.22957238E+00 0.36277703E+03</pdfrwt>
<pdfrwt beam="2">  1       21 0.13727725E-01 0.36277703E+03</pdfrwt>
<totfact> 0.35755172E+03</totfact>
</mgrwt>
</event>
<event>
 4    1  0.4374784E+000  0.1762958E+03  0.7546771E-02  0.1171437E+00
         21   -1    0    0  503  502  0.00000000000E+00  0.00000000000E+00  0.10794793276E+04  0.10794793276E+04  0.00000000000E+00 0. -1.
         21   -1    0    0  501  503 -0.00000000000E+00 -0.00000000000E+00 -0.55983203059E+02  0.55983203059E+02  0.00000000000E+00 0. -1.
          6    1    1    2  501    0  0.71149565499E+00  0.33922257167E+02  0.11608162712E+03  0.21108095582E+03  0.17300000000E+03 0. -1.
         -6    1    1    2    0  502 -0.71149565499E+00 -0.33922257167E+02  0.90741449744E+03  0.92438157485E+03  0.17300000000E+03 0. -1.
<mgrwt>
<rscale>  2 0.17629585E+03</rscale>
<asrwt>0</asrwt>
<pdfrwt beam="1">  1       21 0.16607373E+00 0.17629585E+03</pdfrwt>
<pdfrwt beam="2">  1       21 0.86128013E-02 0.17629585E+03</pdfrwt>
<totfact> 0.24271769E+04</totfact>
</mgrwt>
</event>
<event>
 4    1  0.4374784E+000  0.1818070E+03  0.7546771E-02  0.1166066E+00
         21   -1    0    0  501  502  0.00000000000E+00  0.00000000000E+00  0.17167959006E+03  0.17167959006E+03  0.00000000000E+00 0. -1.
         21   -1    0    0  502  503 -0.00000000000E+00 -0.00000000000E+00 -0.19324885426E+03  0.19324885426E+03  0.00000000000E+00 0. -1.
          6    1    1    2  501    0 -0.49020882341E+02  0.26865389156E+02  0.32930283453E+00  0.18180732791E+03  0.17300000000E+03 0.  1.
         -6    1    1    2    0  503  0.49020882341E+02 -0.26865389156E+02 -0.21898567036E+02  0.18312111642E+03  0.17300000000E+03 0.  1.
<mgrwt>
<rscale>  2 0.18180703E+03</rscale>
<asrwt>0</asrwt>
<pdfrwt beam="1">  1       21 0.26412245E-01 0.18180703E+03</pdfrwt>
<pdfrwt beam="2">  1       21 0.29730593E-01 0.18180703E+03</pdfrwt>
<totfact> 0.14837941E+05</totfact>
</mgrwt>
</event>
<event>
 4    1  0.4374784E+000  0.1919731E+03  0.7546771E-02  0.1156694E+00
         21   -1    0    0  503  502  0.00000000000E+00  0.00000000000E+00  0.70667959039E+03  0.70667959039E+03  0.00000000000E+00 0. -1.
         21   -1    0    0  501  503 -0.00000000000E+00 -0.00000000000E+00 -0.67633122069E+02  0.67633122069E+02  0.00000000000E+00 0. -1.
          6    1    1    2  501    0  0.73361160496E+01  0.82890571337E+02  0.13428548329E+03  0.23427816040E+03  0.17300000000E+03 0. -1.
         -6    1    1    2    0  502 -0.73361160496E+01 -0.82890571337E+02  0.50476098503E+03  0.54003455206E+03  0.17300000000E+03 0. -1.
<mgrwt>
<rscale>  2 0.19197309E+03</rscale>
<asrwt>0</asrwt>
<pdfrwt beam="1">  1       21 0.10871993E+00 0.19197309E+03</pdfrwt>
<pdfrwt beam="2">  1       21 0.10405096E-01 0.19197309E+03</pdfrwt>
<totfact> 0.50838770E+04</totfact>
</mgrwt>
</event>
<event>
 4    1  0.4374784E+000  0.3393915E+03  0.7546771E-02  0.1067055E+00
         21   -1    0    0  501  502  0.00000000000E+00  0.00000000000E+00  0.14971132629E+03  0.14971132629E+03  0.00000000000E+00 0.  1.
         21   -1    0    0  502  503 -0.00000000000E+00 -0.00000000000E+00 -0.10154983761E+04  0.10154983761E+04  0.00000000000E+00 0. -1.
          6    1    1    2  501    0  0.27581009041E+03 -0.95845736807E+02 -0.71970492975E+03  0.79571464555E+03  0.17300000000E+03 0. -1.
         -6    1    1    2    0  503 -0.27581009041E+03  0.95845736807E+02 -0.14608212010E+03  0.36949505687E+03  0.17300000000E+03 0.  1.
<mgrwt>
<rscale>  2 0.33939153E+03</rscale>
<asrwt>0</asrwt>
<pdfrwt beam="1">  1       21 0.23032511E-01 0.33939153E+03</pdfrwt>
<pdfrwt beam="2">  1       21 0.15623053E+00 0.33939153E+03</pdfrwt>
<totfact> 0.43145494E+03</totfact>
</mgrwt>
</event>
<event>
 4    1  0.4374784E+000  0.1779663E+03  0.7546771E-02  0.1169786E+00
         21   -1    0    0  501  502  0.00000000000E+00  0.00000000000E+00  0.35312575967E+03  0.35312575967E+03  0.00000000000E+00 0. -1.
         21   -1    0    0  502  503 -0.00000000000E+00 -0.00000000000E+00 -0.12731238205E+03  0.12731238205E+03  0.00000000000E+00 0. -1.
          6    1    1    2  501    0 -0.38221993847E+02  0.16795130972E+02  0.24349156718E+03  0.30159598891E+03  0.17300000000E+03 0. -1.
         -6    1    1    2    0  503  0.38221993847E+02 -0.16795130972E+02 -0.17678189563E+02  0.17884215282E+03  0.17300000000E+03 0. -1.
<mgrwt>
<rscale>  2 0.17796628E+03</rscale>
<asrwt>0</asrwt>
<pdfrwt beam="1">  1       21 0.54327040E-01 0.17796628E+03</pdfrwt>
<pdfrwt beam="2">  1       21 0.19586520E-01 0.17796628E+03</pdfrwt>
<totfact> 0.77306888E+04</totfact>
</mgrwt>
</event>
<event>
 4    1  0.4374784E+000  0.1866347E+03  0.7546771E-02  0.1161532E+00
         21   -1    0    0  501  502  0.00000000000E+00  0.00000000000E+00  0.14294057624E+04  0.14294057624E+04  0.00000000000E+00 0.  1.
         21   -1    0    0  502  503 -0.00000000000E+00 -0.00000000000E+00 -0.46384082973E+02  0.46384082973E+02  0.00000000000E+00 0.  1.
          6    1    1    2  501    0 -0.70021317792E+02  0.72393229881E+00  0.11998749590E+04  0.12143032678E+04  0.17300000000E+03 0.  1.
         -6    1    1    2    0  503  0.70021317792E+02 -0.72393229881E+00  0.18314672037E+03  0.26148657748E+03  0.17300000000E+03 0.  1.
<mgrwt>
<rscale>  2 0.18663469E+03</rscale>
<asrwt>0</asrwt>
<pdfrwt beam="1">  1       21 0.21990855E+00 0.18663469E+03</pdfrwt>
<pdfrwt beam="2">  1       21 0.71360139E-02 0.18663469E+03</pdfrwt>
<totfact> 0.14813419E+04</totfact>
</mgrwt>
</event>
<event>
 4    1  0.4374784E+000  0.2035562E+03  0.7546771E-02  0.1146773E+00
         21   -1    0    0  503  502  0.00000000000E+00  0.00000000000E+00  0.18252646827E+03  0.18252646827E+03  0.00000000000E+00 0. -1.
         21   -1    0    0  501  503 -0.00000000000E+00 -0.00000000000E+00 -0.60572755012E+03  0.60572755012E+03  0.00000000000E+00 0.  1.
          6    1    1    2  501    0  0.99631112686E+02  0.39746533909E+02 -0.52324243869E+03  0.56144260189E+03  0.17300000000E+03 0.  1.
         -6    1    1    2    0  502 -0.99631112686E+02 -0.39746533909E+02  0.10004135685E+03  0.22681141650E+03  0.17300000000E+03 0. -1.
<mgrwt>
<rscale>  2 0.20355625E+03</rscale>
<asrwt>0</asrwt>
<pdfrwt beam="1">  1       21 0.28080995E-01 0.20355625E+03</pdfrwt>
<pdfrwt beam="2">  1       21 0.93188853E-01 0.20355625E+03</pdfrwt>
<totfact> 0.11652623E+04</totfact>
</mgrwt>
</event>
<event>
 4    1  0.4374784E+000  0.1964267E+03  0.7546771E-02  0.1152789E+00
         21   -1    0    0  501  502  0.00000000000E+00  0.00000000000E+00  0.50518047467E+02  0.50518047467E+02  0.00000000000E+00 0.  1.
         21   -1    0    0  502  503 -0.00000000000E+00 -0.00000000000E+00 -0.79447011108E+03  0.79447011108E+03  0.00000000000E+00 0.  1.
          6    1    1    2  501    0  0.68900945680E+02 -0.62506924768E+02 -0.45504745422E+03  0.49563256708E+03  0.17300000000E+03 0.  1.
         -6    1    1    2    0  503 -0.68900945680E+02  0.62506924768E+02 -0.28890460939E+03  0.34935559146E+03  0.17300000000E+03 0.  1.
<mgrwt>
<rscale>  2 0.19642672E+03</rscale>
<asrwt>0</asrwt>
<pdfrwt beam="1">  1       21 0.77720081E-02 0.19642672E+03</pdfrwt>
<pdfrwt beam="2">  1       21 0.12222616E+00 0.19642672E+03</pdfrwt>
<totfact> 0.63544685E+04</totfact>
</mgrwt>
</event>
<event>
 4    1  0.4374784E+000  0.2377838E+03  0.7546771E-02  0.1121278E+00
         21   -1    0    0  503  502  0.00000000000E+00  0.00000000000E+00  0.69946255333E+03  0.69946255333E+03  0.00000000000E+00 0. -1.
         21   -1    0    0  501  503 -0.00000000000E+00 -0.00000000000E+00 -0.19359497310E+03  0.19359497310E+03  0.00000000000E+00 0. -1.
          6    1    1    2  501    0  0.16267584487E+03 -0.12194059224E+02 -0.87850597367E+02  0.25349329980E+03  0.17300000000E+03 0. -1.
         -6    1    1    2    0  502 -0.16267584487E+03  0.12194059224E+02  0.59371817759E+03  0.63956422663E+03  0.17300000000E+03 0. -1.
<mgrwt>
<rscale>  2 0.23778378E+03</rscale>
<asrwt>0</asrwt>
<pdfrwt beam="1">  1       21 0.10760962E+00 0.23778378E+03</pdfrwt>
<pdfrwt beam="2">  1       21 0.29783842E-01 0.23778378E+03</pdfrwt>
<totfact> 0.72122306E+03</totfact>
</mgrwt>
</event>
<event>
 4    1  0.4374784E+000  0.1993789E+03  0.7546771E-02  0.1150264E+00
         21   -1    0    0  501  502  0.00000000000E+00  0.00000000000E+00  0.15671860234E+02  0.15671860234E+02  0.00000000000E+00 0. -1.
         21   -1    0    0  502  503 -0.00000000000E+00 -0.00000000000E+00 -0.28237500013E+04  0.28237500013E+04  0.00000000000E+00 0.  1.
          6    1    1    2  501    0 -0.37165480596E+02  0.91878534707E+02 -0.18568366116E+04  0.18675101446E+04  0.17300000000E+03 0.  1.
         -6    1    1    2    0  503  0.37165480596E+02 -0.91878534707E+02 -0.95124152941E+03  0.97191171686E+03  0.17300000000E+03 0. -1.
<mgrwt>
<rscale>  2 0.19937888E+03</rscale>
<asrwt>0</asrwt>
<pdfrwt beam="1">  1       21 0.24110559E-02 0.19937888E+03</pdfrwt>
<pdfrwt beam="2">  1       21 0.43442299E+00 0.19937888E+03</pdfrwt>
<totfact> 0.47305122E+03</totfact>
</mgrwt>
</event>
<event>
 4    1  0.4374784E+000  0.1778863E+03  0.7546771E-02  0.1169864E+00
         21   -1    0    0  503  502  0.00000000000E+00  0.00000000000E+00  0.22236360537E+03  0.22236360537E+03  0.00000000000E+00 0.  1.
         21   -1    0    0  501  503 -0.00000000000E+00 -0.00000000000E+00 -0.30744537260E+03  0.30744537260E+03  0.00000000000E+00 0.  1.
          6    1    1    2  501    0 -0.17724374869E+02  0.37421858824E+02 -0.23668820321E+03  0.29608251303E+03  0.17300000000E+03 0.  1.
         -6    1    1    2    0  502  0.17724374869E+02 -0.37421858824E+02  0.15160643598E+03  0.23372646494E+03  0.17300000000E+03 0.  1.
<mgrwt>
<rscale>  2 0.17788634E+03</rscale>
<asrwt>0</asrwt>
<pdfrwt beam="1">  1       21 0.34209785E-01 0.17788634E+03</pdfrwt>
<pdfrwt beam="2">  1       21 0.47299288E-01 0.17788634E+03</pdfrwt>
<totfact> 0.35479957E+04</totfact>
</mgrwt>
</event>
<event>
 4    1  0.4374784E+000  0.1739112E+03  0.7546771E-02  0.1173829E+00
         21   -1    0    0  503  502  0.00000000000E+00  0.00000000000E+00  0.32930802849E+03  0.32930802849E+03  0.00000000000E+00 0. -1.
         21   -1    0    0  501  503 -0.00000000000E+00 -0.00000000000E+00 -0.13883260054E+03  0.13883260054E+03  0.00000000000E+00 0. -1.
          6    1    1    2  501    0  0.15282928795E+02  0.90844005262E+01 -0.40936561393E+02  0.17866419984E+03  0.17300000000E+03 0. -1.
         -6    1    1    2    0  502 -0.15282928795E+02 -0.90844005262E+01  0.23141198935E+03  0.28947642919E+03  0.17300000000E+03 0. -1.
<mgrwt>
<rscale>  2 0.17391117E+03</rscale>
<asrwt>0</asrwt>
<pdfrwt beam="1">  1       21 0.50662773E-01 0.17391117E+03</pdfrwt>
<pdfrwt beam="2">  1       21 0.21358862E-01 0.17391117E+03</pdfrwt>
<totfact> 0.76253983E+04</totfact>
</mgrwt>
</event>
<event>
 4    1  0.4374784E+000  0.2618377E+03  0.7546771E-02  0.1106044E+00
         21   -1    0    0  503  502  0.00000000000E+00  0.00000000000E+00  0.92498415960E+03  0.92498415960E+03  0.00000000000E+00 0. -1.
         21   -1    0    0  501  503 -0.00000000000E+00 -0.00000000000E+00 -0.78792537978E+02  0.78792537978E+02  0.00000000000E+00 0.  1.
          6    1    1    2  501    0  0.13564318053E+03 -0.14223538704E+03  0.30086418229E+03  0.39884612814E+03  0.17300000000E+03 0.  1.
         -6    1    1    2    0  502 -0.13564318053E+03  0.14223538704E+03  0.54532743933E+03  0.60493056943E+03  0.17300000000E+03 0. -1.
<mgrwt>
<rscale>  2 0.26183769E+03</rscale>
<asrwt>0</asrwt>
<pdfrwt beam="1">  1       21 0.14230525E+00 0.26183769E+03</pdfrwt>
<pdfrwt beam="2">  1       21 0.12121930E-01 0.26183769E+03</pdfrwt>
<totfact> 0.18973777E+04</totfact>
</mgrwt>
</event>
<event>
 4    1  0.4374784E+000  0.1955074E+03  0.7546771E-02  0.1153586E+00
         21   -1    0    0  503  502  0.00000000000E+00  0.00000000000E+00  0.33643168984E+03  0.33643168984E+03  0.00000000000E+00 0. -1.
         21   -1    0    0  501  503 -0.00000000000E+00 -0.00000000000E+00 -0.11368694431E+03  0.11368694431E+03  0.00000000000E+00 0.  1.
          6    1    1    2  501    0  0.20552058482E+02  0.88722900988E+02  0.10564724215E+03  0.22222619117E+03  0.17300000000E+03 0.  1.
         -6    1    1    2    0  502 -0.20552058482E+02 -0.88722900988E+02  0.11709750338E+03  0.22789244297E+03  0.17300000000E+03 0. -1.
<mgrwt>
<rscale>  2 0.19550739E+03</rscale>
<asrwt>0</asrwt>
<pdfrwt beam="1">  1       21 0.51758721E-01 0.19550739E+03</pdfrwt>
<pdfrwt beam="2">  1       21 0.17490299E-01 0.19550739E+03</pdfrwt>
<totfact> 0.10482776E+05</totfact>
</mgrwt>
</event>
<event>
 4    1  0.4374784E+000  0.1846056E+03  0.7546771E-02  0.1163419E+00
         21   -1    0    0  501  502  0.00000000000E+00  0.00000000000E+00  0.96022975008E+02  0.96022975008E+02  0.00000000000E+00 0.  1.
         21   -1    0    0  502  503 -0.00000000000E+00 -0.00000000000E+00 -0.17070747456E+04  0.17070747456E+04  0.00000000000E+00 0.  1.
          6    1    1    2  501    0  0.49220728394E+02  0.41563791980E+02 -0.31492364228E+01  0.18463246355E+03  0.17300000000E+03 0.  1.
         -6    1    1    2    0  503 -0.49220728394E+02 -0.41563791980E+02 -0.16079025341E+04  0.16184652570E+04  0.17300000000E+03 0.  1.
<mgrwt>
<rscale>  2 0.18460560E+03</rscale>
<asrwt>0</asrwt>
<pdfrwt beam="1">  1       21 0.14772765E-01 0.18460560E+03</pdfrwt>
<pdfrwt beam="2">  1       21 0.26262689E+00 0.18460560E+03</pdfrwt>
<totfact> 0.22843973E+03</totfact>
</mgrwt>
</event>
<event>
 4    1  0.4374784E+000  0.2469911E+03  0.7546771E-02  0.1115221E+00
         21   -1    0    0  503  502  0.00000000000E+00  0.00000000000E+00  0.28281372445E+03  0.28281372445E+03  0.00000000000E+00 0.  1.
         21   -1    0    0  501  503 -0.00000000000E+00 -0.00000000000E+00 -0.25035778936E+03  0.25035778936E+03  0.00000000000E+00 0.  1.
          6    1    1    2  501    0  0.28848971848E+02  0.17390613182E+03 -0.82950974976E+02  0.26054840262E+03  0.17300000000E+03 0.  1.
         -6    1    1    2    0  502 -0.28848971848E+02 -0.17390613182E+03  0.11540691007E+03  0.27262311119E+03  0.17300000000E+03 0.  1.
<mgrwt>
<rscale>  2 0.24699110E+03</rscale>
<asrwt>0</asrwt>
<pdfrwt beam="1">  1       21 0.43509804E-01 0.24699110E+03</pdfrwt>
<pdfrwt beam="2">  1       21 0.38516583E-01 0.24699110E+03</pdfrwt>
<totfact> 0.32124981E+04</totfact>
</mgrwt>
</event>
<event>
 4    1  0.4374784E+000  0.1743211E+03  0.7546771E-02  0.1173415E+00
         21   -1    0    0  503  502  0.00000000000E+00  0.00000000000E+00  0.12233429140E+03  0.12233429140E+03  0.00000000000E+00 0.  1.
         21   -1    0    0  501  503 -0.00000000000E+00 -0.00000000000E+00 -0.37184296692E+03  0.37184296692E+03  0.00000000000E+00 0.  1.
          6    1    1    2  501    0  0.54725017925E+01  0.20709645155E+02 -0.26712029553E+03  0.31896879152E+03  0.17300000000E+03 0.  1.
         -6    1    1    2    0  502 -0.54725017925E+01 -0.20709645155E+02  0.17611620020E+02  0.17520846680E+03  0.17300000000E+03 0.  1.
<mgrwt>
<rscale>  2 0.17432108E+03</rscale>
<asrwt>0</asrwt>
<pdfrwt beam="1">  1       21 0.18820660E-01 0.17432108E+03</pdfrwt>
<pdfrwt beam="2">  1       21 0.57206610E-01 0.17432108E+03</pdfrwt>
<totfact> 0.74752640E+04</totfact>
</mgrwt>
</event>
<event>
 4    1  0.4374784E+000  0.1916070E+03  0.7546771E-02  0.1157020E+00
         21   -1    0    0  503  502  0.00000000000E+00  0.00000000000E+00  0.16879367965E+03  0.16879367965E+03  0.00000000000E+00 0.  1.
         21   -1    0    0  501  503 -0.00000000000E+00 -0.00000000000E+00 -0.23396291220E+03  0.23396291220E+03  0.00000000000E+00 0.  1.
          6    1    1    2  501    0  0.49929440128E+02 -0.65507910318E+02 -0.85997350727E+02  0.21002090286E+03  0.17300000000E+03 0.  1.
         -6    1    1    2    0  502 -0.49929440128E+02  0.65507910318E+02  0.20828118173E+02  0.19273568900E+03  0.17300000000E+03 0.  1.
<mgrwt>
<rscale>  2 0.19160698E+03</rscale>
<asrwt>0</asrwt>
<pdfrwt beam="1">  1       21 0.25968258E-01 0.19160698E+03</pdfrwt>
<pdfrwt beam="2">  1       21 0.35994294E-01 0.19160698E+03</pdfrwt>
<totfact> 0.10487977E+05</totfact>
</mgrwt>
</event>
<event>
 4    1  0.4374784E+000  0.1859450E+03  0.7546771E-02  0.1162170E+00
         21   -1    0    0  503  502  0.00000000000E+00  0.00000000000E+00  0.43021085671E+03  0.43021085671E+03  0.00000000000E+00 0. -1.
         21   -1    0    0  501  503 -0.00000000000E+00 -0.00000000000E+00 -0.92436979840E+02  0.92436979840E+02  0.00000000000E+00 0. -1.
          6    1    1    2  501    0 -0.54330657132E+02 -0.41166954319E+02  0.74464147260E+02  0.20030089281E+03  0.17300000000E+03 0. -1.
         -6    1    1    2    0  502  0.54330657132E+02  0.41166954319E+02  0.26330972961E+03  0.32234694374E+03  0.17300000000E+03 0. -1.
<mgrwt>
<rscale>  2 0.18594499E+03</rscale>
<asrwt>0</asrwt>
<pdfrwt beam="1">  1       21 0.66186285E-01 0.18594499E+03</pdfrwt>
<pdfrwt beam="2">  1       21 0.14221074E-01 0.18594499E+03</pdfrwt>
<totfact> 0.90796442E+04</totfact>
</mgrwt>
</event>
<event>
 4    1  0.4374784E+000  0.1826597E+03  0.7546771E-02  0.1165254E+00
         21   -1    0    0  503  502  0.00000000000E+00  0.00000000000E+00  0.35593139799E+02  0.35593139799E+02  0.00000000000E+00 0. -1.
         21   -1    0    0  501  503 -0.00000000000E+00 -0.00000000000E+00 -0.15383249149E+04  0.15383249149E+04  0.00000000000E+00 0. -1.
          6    1    1    2  501    0  0.96679689203E+01 -0.57810816246E+02 -0.12432272969E+04  0.12565741808E+04  0.17300000000E+03 0. -1.
         -6    1    1    2    0  502 -0.96679689203E+01  0.57810816246E+02 -0.25950447824E+03  0.31734387393E+03  0.17300000000E+03 0. -1.
<mgrwt>
<rscale>  2 0.18265968E+03</rscale>
<asrwt>0</asrwt>
<pdfrwt beam="1">  1       21 0.54758660E-02 0.18265968E+03</pdfrwt>
<pdfrwt beam="2">  1       21 0.23666544E+00 0.18265968E+03</pdfrwt>
<totfact> 0.18541852E+04</totfact>
</mgrwt>
</event>
<event>
 4    1  0.4374784E+000  0.2174013E+03  0.7546771E-02  0.1135835E+00
         21   -1    0    0  503  502  0.00000000000E+00  0.00000000000E+00  0.15866813987E+03  0.15866813987E+03  0.00000000000E+00 0. -1.
         21   -1    0    0  501  503 -0.00000000000E+00 -0.00000000000E+00 -0.10335204244E+04  0.10335204244E+04  0.00000000000E+00 0. -1.
          6    1    1    2  501    0 -0.13149496208E+03  0.65886625862E+01 -0.94033533635E+03  0.96513930617E+03  0.17300000000E+03 0. -1.
         -6    1    1    2    0  502  0.13149496208E+03 -0.65886625862E+01  0.65483051827E+02  0.22704925810E+03  0.17300000000E+03 0. -1.
<mgrwt>
<rscale>  2 0.21740132E+03</rscale>
<asrwt>0</asrwt>
<pdfrwt beam="1">  1       21 0.24410483E-01 0.21740132E+03</pdfrwt>
<pdfrwt beam="2">  1       21 0.15900314E+00 0.21740132E+03</pdfrwt>
<totfact> 0.39727929E+03</totfact>
</mgrwt>
</event>
<event>
 4    1  0.4374784E+000  0.3034119E+03  0.7546771E-02  0.1083547E+00
         21   -1    0    0  503  502  0.00000000000E+00  0.00000000000E+00  0.41019739723E+02  0.41019739723E+02  0.00000000000E+00 0. -1.
         21   -1    0    0  501  503 -0.00000000000E+00 -0.00000000000E+00 -0.25934494672E+04  0.25934494672E+04  0.00000000000E+00 0.  1.
          6    1    1    2  501    0 -0.13365755219E+02 -0.24889982242E+03 -0.17595604707E+04  0.17855284414E+04  0.17300000000E+03 0.  1.
         -6    1    1    2    0  502  0.13365755219E+02  0.24889982242E+03 -0.79286925677E+03  0.84894076551E+03  0.17300000000E+03 0.  1.
<mgrwt>
<rscale>  2 0.30341187E+03</rscale>
<asrwt>0</asrwt>
<pdfrwt beam="1">  1       21 0.63107308E-02 0.30341187E+03</pdfrwt>
<pdfrwt beam="2">  1       21 0.39899212E+00 0.30341187E+03</pdfrwt>
<totfact> 0.14039438E+03</totfact>
</mgrwt>
</event>
<event>
 4    1  0.4374784E+000  0.1952248E+03  0.7546771E-02  0.1153832E+00
         21   -1    0    0  503  502  0.00000000000E+00  0.00000000000E+00  0.31789887096E+03  0.31789887096E+03  0.00000000000E+00 0.  1.
         21   -1    0    0  501  503 -0.00000000000E+00 -0.00000000000E+00 -0.16996186160E+03  0.16996186160E+03  0.00000000000E+00 0.  1.
          6    1    1    2  501    0  0.88411807198E+02 -0.19159626670E+02 -0.58431845852E+02  0.20378179398E+03  0.17300000000E+03 0.  1.
         -6    1    1    2    0  502 -0.88411807198E+02  0.19159626670E+02  0.20636885521E+03  0.28407893858E+03  0.17300000000E+03 0.  1.
<mgrwt>
<rscale>  2 0.19522484E+03</rscale>
<asrwt>0</asrwt>
<pdfrwt beam="1">  1       21 0.48907519E-01 0.19522484E+03</pdfrwt>
<pdfrwt beam="2">  1       21 0.26147979E-01 0.19522484E+03</pdfrwt>
<totfact> 0.55391228E+04</totfact>
</mgrwt>
</event>
<event>
 4    1  0.4374784E+000  0.2502863E+03  0.7546771E-02  0.1113124E+00
         21   -1    0    0  501  502  0.00000000000E+00  0.00000000000E+00  0.57215828572E+03  0.57215828572E+03  0.00000000000E+00 0. -1.
         21   -1    0    0  502  503 -0.00000000000E+00 -0.00000000000E+00 -0.60323959343E+03  0.60323959343E+03  0.00000000000E+00 0. -1.
          6    1    1    2  501    0  0.16616086498E+03  0.71447791612E+02  0.51615755947E+03  0.57363912539E+03  0.17300000000E+03 0. -1.
         -6    1    1    2    0  503 -0.16616086498E+03 -0.71447791612E+02 -0.54723886717E+03  0.60175875376E+03  0.17300000000E+03 0. -1.
<mgrwt>
<rscale>  2 0.25028628E+03</rscale>
<asrwt>0</asrwt>
<pdfrwt beam="1">  1       21 0.88024351E-01 0.25028628E+03</pdfrwt>
<pdfrwt beam="2">  1       21 0.92806092E-01 0.25028628E+03</pdfrwt>
<totfact> 0.10275473E+03</totfact>
</mgrwt>
</event>
<event>
 4    1  0.4374784E+000  0.2233319E+03  0.7546771E-02  0.1131423E+00
         21   -1    0    0  503  502  0.00000000000E+00  0.00000000000E+00  0.10356578312E+03  0.10356578312E+03  0.00000000000E+00 0. -1.
         21   -1    0    0  501  503 -0.00000000000E+00 -0.00000000000E+00 -0.48840170407E+03  0.48840170407E+03  0.00000000000E+00 0.  1.
          6    1    1    2  501    0  0.15808134740E+01 -0.14122895209E+03 -0.15748470332E+03  0.27327375956E+03  0.17300000000E+03 0. -1.
         -6    1    1    2    0  502 -0.15808134740E+01  0.14122895209E+03 -0.22735121763E+03  0.31869372764E+03  0.17300000000E+03 0.  1.
<mgrwt>
<rscale>  2 0.22333185E+03</rscale>
<asrwt>0</asrwt>
<pdfrwt beam="1">  1       21 0.15933197E-01 0.22333185E+03</pdfrwt>
<pdfrwt beam="2">  1       21 0.75138724E-01 0.22333185E+03</pdfrwt>
<totfact> 0.54838621E+04</totfact>
</mgrwt>
</event>
<event>
 4    1  0.4374784E+000  0.2423569E+03  0.7546771E-02  0.1118233E+00
         21   -1    0    0  503  502  0.00000000000E+00  0.00000000000E+00  0.13009413955E+03  0.13009413955E+03  0.00000000000E+00 0.  1.
         21   -1    0    0  501  503 -0.00000000000E+00 -0.00000000000E+00 -0.49944216014E+03  0.49944216014E+03  0.00000000000E+00 0. -1.
          6    1    1    2  501    0 -0.67919307890E+02  0.15554690914E+03 -0.28220192465E+03  0.37198763367E+03  0.17300000000E+03 0. -1.
         -6    1    1    2    0  502  0.67919307890E+02 -0.15554690914E+03 -0.87146095945E+02  0.25754866601E+03  0.17300000000E+03 0.  1.
<mgrwt>
<rscale>  2 0.24235691E+03</rscale>
<asrwt>0</asrwt>
<pdfrwt beam="1">  1       21 0.20014483E-01 0.24235691E+03</pdfrwt>
<pdfrwt beam="2">  1       21 0.76837256E-01 0.24235691E+03</pdfrwt>
<totfact> 0.33860882E+04</totfact>
</mgrwt>
</event>
<event>
 4    1  0.4374784E+000  0.1739760E+03  0.7546771E-02  0.1173764E+00
         21   -1    0    0  503  502  0.00000000000E+00  0.00000000000E+00  0.13490338693E+02  0.13490338693E+02  0.00000000000E+00 0. -1.
         21   -1    0    0  501  503 -0.00000000000E+00 -0.00000000000E+00 -0.28418341285E+04  0.28418341285E+04  0.00000000000E+00 0. -1.
          6    1    1    2  501    0 -0.10820349385E+02 -0.14884783196E+02 -0.20691737350E+04  0.20764747970E+04  0.17300000000E+03 0. -1.
         -6    1    1    2    0  502  0.10820349385E+02  0.14884783196E+02 -0.75917005480E+03  0.77884967024E+03  0.17300000000E+03 0. -1.
<mgrwt>
<rscale>  2 0.17397597E+03</rscale>
<asrwt>0</asrwt>
<pdfrwt beam="1">  1       21 0.20754348E-02 0.17397597E+03</pdfrwt>
<pdfrwt beam="2">  1       21 0.43720565E+00 0.17397597E+03</pdfrwt>
<totfact> 0.60146458E+03</totfact>
</mgrwt>
</event>
<event>
 4    1  0.4374784E+000  0.2281230E+03  0.7546771E-02  0.1127968E+00
         21   -1    0    0  501  502  0.00000000000E+00  0.00000000000E+00  0.28722302150E+03  0.28722302150E+03  0.00000000000E+00 0. -1.
         21   -1    0    0  502  503 -0.00000000000E+00 -0.00000000000E+00 -0.19345753817E+03  0.19345753817E+03  0.00000000000E+00 0.  1.
          6    1    1    2  501    0 -0.60728657561E+02 -0.13573179383E+03 -0.13655025377E+02  0.22853128762E+03  0.17300000000E+03 0. -1.
         -6    1    1    2    0  503  0.60728657561E+02  0.13573179383E+03  0.10742050871E+03  0.25214927205E+03  0.17300000000E+03 0.  1.
<mgrwt>
<rscale>  2 0.22812297E+03</rscale>
<asrwt>0</asrwt>
<pdfrwt beam="1">  1       21 0.44188157E-01 0.22812297E+03</pdfrwt>
<pdfrwt beam="2">  1       21 0.29762698E-01 0.22812297E+03</pdfrwt>
<totfact> 0.52372567E+04</totfact>
</mgrwt>
</event>
<event>
 4    1  0.4374784E+000  0.3088230E+03  0.7546771E-02  0.1080911E+00
         21   -1    0    0  501  502  0.00000000000E+00  0.00000000000E+00  0.82555895790E+03  0.82555895790E+03  0.00000000000E+00 0.  1.
         21   -1    0    0  502  503 -0.00000000000E+00 -0.00000000000E+00 -0.56112036857E+03  0.56112036857E+03  0.00000000000E+00 0. -1.
          6    1    1    2  501    0 -0.22581204394E+03 -0.12021474144E+03  0.75007772045E+03  0.81116474897E+03  0.17300000000E+03 0.  1.
         -6    1    1    2    0  503  0.22581204394E+03  0.12021474144E+03 -0.48563913112E+03  0.57551457751E+03  0.17300000000E+03 0. -1.
<mgrwt>
<rscale>  2 0.30882303E+03</rscale>
<asrwt>0</asrwt>
<pdfrwt beam="1">  1       21 0.12700907E+00 0.30882303E+03</pdfrwt>
<pdfrwt beam="2">  1       21 0.86326211E-01 0.30882303E+03</pdfrwt>
<totfact> 0.47831916E+02</totfact>
</mgrwt>
</event>
<event>
 4    1  0.4374784E+000  0.1765558E+03  0.7546771E-02  0.1171179E+00
         21   -1    0    0  501  502  0.00000000000E+00  0.00000000000E+00  0.25872940306E+03  0.25872940306E+03  0.00000000000E+00 0.  1.
         21   -1    0    0  502  503 -0.00000000000E+00 -0.00000000000E+00 -0.13498256110E+03  0.13498256110E+03  0.00000000000E+00 0.  1.
          6    1    1    2  501    0  0.38506612746E+01  0.35044814976E+02  0.12639689977E+03  0.21713623125E+03  0.17300000000E+03 0.  1.
         -6    1    1    2    0  503 -0.38506612746E+01 -0.35044814976E+02 -0.26500578060E+01  0.17657573292E+03  0.17300000000E+03 0.  1.
<mgrwt>
<rscale>  2 0.17655585E+03</rscale>
<asrwt>0</asrwt>
<pdfrwt beam="1">  1       21 0.39804523E-01 0.17655585E+03</pdfrwt>
<pdfrwt beam="2">  1       21 0.20766548E-01 0.17655585E+03</pdfrwt>
<totfact> 0.13160293E+05</totfact>
</mgrwt>
</event>
<event>
 4    1  0.4374784E+000  0.1752290E+03  0.7546771E-02  0.1172502E+00
         21   -1    0    0  503  502  0.00000000000E+00  0.00000000000E+00  0.56584520774E+02  0.56584520774E+02  0.00000000000E+00 0. -1.
         21   -1    0    0  501  503 -0.00000000000E+00 -0.00000000000E+00 -0.55109489878E+03  0.55109489878E+03  0.00000000000E+00 0. -1.
          6    1    1    2  501    0 -0.25010797544E+02 -0.12275036512E+02 -0.20962830056E+03  0.27322013270E+03  0.17300000000E+03 0.  1.
         -6    1    1    2    0  502  0.25010797544E+02  0.12275036512E+02 -0.28488207744E+03  0.33445928686E+03  0.17300000000E+03 0.  1.
<mgrwt>
<rscale>  2 0.17522904E+03</rscale>
<asrwt>0</asrwt>
<pdfrwt beam="1">  1       21 0.87053112E-02 0.17522904E+03</pdfrwt>
<pdfrwt beam="2">  1       21 0.84783827E-01 0.17522904E+03</pdfrwt>
<totfact> 0.12561478E+05</totfact>
</mgrwt>
</event>
<event>
 4    1  0.4374784E+000  0.1797521E+03  0.7546771E-02  0.1168043E+00
         21   -1    0    0  501  502  0.00000000000E+00  0.00000000000E+00  0.10370200462E+04  0.10370200462E+04  0.00000000000E+00 0. -1.
         21   -1    0    0  502  503 -0.00000000000E+00 -0.00000000000E+00 -0.47292837572E+02  0.47292837572E+02  0.00000000000E+00 0. -1.
          6    1    1    2  501    0 -0.40505474555E+02 -0.27223861197E+02  0.81154133301E+03  0.83121006206E+03  0.17300000000E+03 0. -1.
         -6    1    1    2    0  503  0.40505474555E+02  0.27223861197E+02  0.17818587561E+03  0.25310282170E+03  0.17300000000E+03 0. -1.
<mgrwt>
<rscale>  2 0.17975214E+03</rscale>
<asrwt>0</asrwt>
<pdfrwt beam="1">  1       21 0.15954153E+00 0.17975214E+03</pdfrwt>
<pdfrwt beam="2">  1       21 0.72758220E-02 0.17975214E+03</pdfrwt>
<totfact> 0.36176170E+04</totfact>
</mgrwt>
</event>
<event>
 4    1  0.4374784E+000  0.2310988E+03  0.7546771E-02  0.1125869E+00
         21   -1    0    0  503  502  0.00000000000E+00  0.00000000000E+00  0.26050595026E+03  0.26050595026E+03  0.00000000000E+00 0. -1.
         21   -1    0    0  501  503 -0.00000000000E+00 -0.00000000000E+00 -0.58144194815E+03  0.58144194815E+03  0.00000000000E+00 0.  1.
          6    1    1    2  501    0 -0.14749530762E+03  0.41506384509E+02 -0.49919090628E+03  0.55008927151E+03  0.17300000000E+03 0.  1.
         -6    1    1    2    0  502  0.14749530762E+03 -0.41506384509E+02  0.17825490839E+03  0.29185862689E+03  0.17300000000E+03 0. -1.
<mgrwt>
<rscale>  2 0.23109878E+03</rscale>
<asrwt>0</asrwt>
<pdfrwt beam="1">  1       21 0.40077838E-01 0.23109878E+03</pdfrwt>
<pdfrwt beam="2">  1       21 0.89452607E-01 0.23109878E+03</pdfrwt>
<totfact> 0.62196016E+03</totfact>
</mgrwt>
</event>
<event>
 4    1  0.4374784E+000  0.3109520E+03  0.7546771E-02  0.1079890E+00
         21   -1    0    0  501  502  0.00000000000E+00  0.00000000000E+00  0.92409856427E+02  0.92409856427E+02  0.00000000000E+00 0. -1.
         21   -1    0    0  502  503 -0.00000000000E+00 -0.00000000000E+00 -0.14765292672E+04  0.14765292672E+04  0.00000000000E+00 0.  1.
          6    1    1    2  501    0  0.19733128467E+03  0.16680080039E+03 -0.26862130540E+03  0.41091185020E+03  0.17300000000E+03 0. -1.
         -6    1    1    2    0  503 -0.19733128467E+03 -0.16680080039E+03 -0.11154981054E+04  0.11580272734E+04  0.17300000000E+03 0.  1.
<mgrwt>
<rscale>  2 0.31095199E+03</rscale>
<asrwt>0</asrwt>
<pdfrwt beam="1">  1       21 0.14216902E-01 0.31095199E+03</pdfrwt>
<pdfrwt beam="2">  1       21 0.22715834E+00 0.31095199E+03</pdfrwt>
<totfact> 0.35773200E+03</totfact>
</mgrwt>
</event>
<event>
 4    1  0.4374784E+000  0.2235271E+03  0.7546771E-02  0.1131280E+00
         21   -1    0    0  501  502  0.00000000000E+00  0.00000000000E+00  0.95711429673E+02  0.95711429673E+02  0.00000000000E+00 0.  1.
         21   -1    0    0  502  503 -0.00000000000E+00 -0.00000000000E+00 -0.10897264036E+04  0.10897264036E+04  0.00000000000E+00 0. -1.
          6    1    1    2  501    0  0.14040229883E+03  0.17959845901E+02 -0.69200742336E+02  0.23399381257E+03  0.17300000000E+03 0.  1.
         -6    1    1    2    0  503 -0.14040229883E+03 -0.17959845901E+02 -0.92481423163E+03  0.95144402074E+03  0.17300000000E+03 0. -1.
<mgrwt>
<rscale>  2 0.22352709E+03</rscale>
<asrwt>0</asrwt>
<pdfrwt beam="1">  1       21 0.14724834E-01 0.22352709E+03</pdfrwt>
<pdfrwt beam="2">  1       21 0.16765023E+00 0.22352709E+03</pdfrwt>
<totfact> 0.87845607E+03</totfact>
</mgrwt>
</event>
<event>
 4    1  0.4374784E+000  0.1927542E+03  0.7546771E-02  0.1156000E+00
         21   -1    0    0  501  502  0.00000000000E+00  0.00000000000E+00  0.19416608164E+03  0.19416608164E+03  0.00000000000E+00 0. -1.
         21   -1    0    0  502  503 -0.00000000000E+00 -0.00000000000E+00 -0.27030824802E+03  0.27030824802E+03  0.00000000000E+00 0. -1.
          6    1    1    2  501    0 -0.61955574342E+02 -0.58195137386E+02  0.87443422183E+02  0.21166133159E+03  0.17300000000E+03 0. -1.
         -6    1    1    2    0  503  0.61955574342E+02  0.58195137386E+02 -0.16358558856E+03  0.25281299807E+03  0.17300000000E+03 0. -1.
<mgrwt>
<rscale>  2 0.19275416E+03</rscale>
<asrwt>0</asrwt>
<pdfrwt beam="1">  1       21 0.29871705E-01 0.19275416E+03</pdfrwt>
<pdfrwt beam="2">  1       21 0.41585884E-01 0.19275416E+03</pdfrwt>
<totfact> 0.59824472E+04</totfact>
</mgrwt>
</event>
<event>
 4    1  0.4374784E+000  0.1749883E+03  0.7546771E-02  0.1172743E+00
         21   -1    0    0  503  502  0.00000000000E+00  0.00000000000E+00  0.68855007862E+02  0.68855007862E+02  0.00000000000E+00 0. -1.
         21   -1    0    0  501  503 -0.00000000000E+00 -0.00000000000E+00 -0.47548525533E+03  0.47548525533E+03  0.00000000000E+00 0. -1.
          6    1    1    2  501    0  0.25146818728E+02  0.77172677416E+01 -0.27255095929E+03  0.32389032731E+03  0.17300000000E+03 0. -1.
         -6    1    1    2    0  502 -0.25146818728E+02 -0.77172677416E+01 -0.13407928818E+03  0.22044993589E+03  0.17300000000E+03 0. -1.
<mgrwt>
<rscale>  2 0.17498834E+03</rscale>
<asrwt>0</asrwt>
<pdfrwt beam="1">  1       21 0.10593078E-01 0.17498834E+03</pdfrwt>
<pdfrwt beam="2">  1       21 0.73151581E-01 0.17498834E+03</pdfrwt>
<totfact> 0.12396367E+05</totfact>
</mgrwt>
</event>
<event>
 4    1  0.4374784E+000  0.1926034E+03  0.7546771E-02  0.1156134E+00
         21   -1    0    0  503  502  0.00000000000E+00  0.00000000000E+00  0.43302594676E+03  0.43302594676E+03  0.00000000000E+00 0.  1.
         21   -1    0    0  501  503 -0.00000000000E+00 -0.00000000000E+00 -0.12466771265E+03  0.12466771265E+03  0.00000000000E+00 0.  1.
          6    1    1    2  501    0  0.80803159774E+02  0.25257093901E+02  0.31014316663E+03  0.36508198425E+03  0.17300000000E+03 0.  1.
         -6    1    1    2    0  502 -0.80803159774E+02 -0.25257093901E+02 -0.17849325196E+01  0.19261167515E+03  0.17300000000E+03 0.  1.
<mgrwt>
<rscale>  2 0.19260340E+03</rscale>
<asrwt>0</asrwt>
<pdfrwt beam="1">  1       21 0.66619376E-01 0.19260340E+03</pdfrwt>
<pdfrwt beam="2">  1       21 0.19179648E-01 0.19260340E+03</pdfrwt>
<totfact> 0.51556897E+04</totfact>
</mgrwt>
</event>
<event>
 4    1  0.4374784E+000  0.3200445E+03  0.7546771E-02  0.1075629E+00
         21   -1    0    0  501  502  0.00000000000E+00  0.00000000000E+00  0.14871404501E+04  0.14871404501E+04  0.00000000000E+00 0. -1.
         21   -1    0    0  502  503 -0.00000000000E+00 -0.00000000000E+00 -0.81127432688E+02  0.81127432688E+02  0.00000000000E+00 0.  1.
          6    1    1    2  501    0  0.20015325185E+03  0.18010596587E+03  0.10077240611E+04  0.10573250525E+04  0.17300000000E+03 0. -1.
         -6    1    1    2    0  503 -0.20015325185E+03 -0.18010596587E+03  0.39828895626E+03  0.51094283031E+03  0.17300000000E+03 0.  1.
<mgrwt>
<rscale>  2 0.32004450E+03</rscale>
<asrwt>0</asrwt>
<pdfrwt beam="1">  1       21 0.22879082E+00 0.32004450E+03</pdfrwt>
<pdfrwt beam="2">  1       21 0.12481145E-01 0.32004450E+03</pdfrwt>
<totfact> 0.44069559E+03</totfact>
</mgrwt>
</event>
<event>
 4    1  0.4374784E+000  0.2162251E+03  0.7546771E-02  0.1136729E+00
         21   -1    0    0  501  502  0.00000000000E+00  0.00000000000E+00  0.21460160984E+03  0.21460160984E+03  0.00000000000E+00 0.  1.
         21   -1    0    0  502  503 -0.00000000000E+00 -0.00000000000E+00 -0.32159341932E+03  0.32159341932E+03  0.00000000000E+00 0.  1.
          6    1    1    2  501    0  0.11985438315E+03  0.49590533966E+02  0.98767917995E+02  0.23771494662E+03  0.17300000000E+03 0.  1.
         -6    1    1    2    0  503 -0.11985438315E+03 -0.49590533966E+02 -0.20575972748E+03  0.29848008254E+03  0.17300000000E+03 0.  1.
<mgrwt>
<rscale>  2 0.21622510E+03</rscale>
<asrwt>0</asrwt>
<pdfrwt beam="1">  1       21 0.33015632E-01 0.21622510E+03</pdfrwt>
<pdfrwt beam="2">  1       21 0.49475911E-01 0.21622510E+03</pdfrwt>
<totfact> 0.33979984E+04</totfact>
</mgrwt>
</event>
<event>
 4    1  0.4374784E+000  0.1874854E+03  0.7546771E-02  0.1160749E+00
         21   -1    0    0  501  502  0.00000000000E+00  0.00000000000E+00  0.11995115922E+03  0.11995115922E+03  0.00000000000E+00 0. -1.
         21   -1    0    0  502  503 -0.00000000000E+00 -0.00000000000E+00 -0.29484913972E+03  0.29484913972E+03  0.00000000000E+00 0. -1.
          6    1    1    2  501    0 -0.31407440358E+02 -0.65079693500E+02 -0.10368348044E+03  0.21424532184E+03  0.17300000000E+03 0. -1.
         -6    1    1    2    0  503  0.31407440358E+02  0.65079693500E+02 -0.71214500062E+02  0.20055497709E+03  0.17300000000E+03 0. -1.
<mgrwt>
<rscale>  2 0.18748545E+03</rscale>
<asrwt>0</asrwt>
<pdfrwt beam="1">  1       21 0.18454025E-01 0.18748545E+03</pdfrwt>
<pdfrwt beam="2">  1       21 0.45361406E-01 0.18748545E+03</pdfrwt>
<totfact> 0.12519985E+05</totfact>
</mgrwt>
</event>
<event>
 4    1  0.4374784E+000  0.2383773E+03  0.7546771E-02  0.1120879E+00
         21   -1    0    0  503  502  0.00000000000E+00  0.00000000000E+00  0.82295061966E+02  0.82295061966E+02  0.00000000000E+00 0.  1.
         21   -1    0    0  501  503 -0.00000000000E+00 -0.00000000000E+00 -0.69131889248E+03  0.69131889248E+03  0.00000000000E+00 0.  1.
          6    1    1    2  501    0 -0.10375393425E+03  0.12700336164E+03 -0.29109999318E+03  0.37624850667E+03  0.17300000000E+03 0. -1.
         -6    1    1    2    0  502  0.10375393425E+03 -0.12700336164E+03 -0.31792383733E+03  0.39736544777E+03  0.17300000000E+03 0. -1.
<mgrwt>
<rscale>  2 0.23837729E+03</rscale>
<asrwt>0</asrwt>
<pdfrwt beam="1">  1       21 0.12660779E-01 0.23837729E+03</pdfrwt>
<pdfrwt beam="2">  1       21 0.10635675E+00 0.23837729E+03</pdfrwt>
<totfact> 0.36879532E+04</totfact>
</mgrwt>
</event>
<event>
 4    1  0.4374784E+000  0.1873128E+03  0.7546771E-02  0.1160908E+00
         21   -1    0    0  501  502  0.00000000000E+00  0.00000000000E+00  0.31467760192E+02  0.31467760192E+02  0.00000000000E+00 0.  1.
         21   -1    0    0  502  503 -0.00000000000E+00 -0.00000000000E+00 -0.11475829145E+04  0.11475829145E+04  0.00000000000E+00 0.  1.
          6    1    1    2  501    0 -0.62048785026E+02 -0.36152875880E+02 -0.45869907944E+03  0.49547041045E+03  0.17300000000E+03 0.  1.
         -6    1    1    2    0  503  0.62048785026E+02  0.36152875880E+02 -0.65741607485E+03  0.68358026422E+03  0.17300000000E+03 0.  1.
<mgrwt>
<rscale>  2 0.18731279E+03</rscale>
<asrwt>0</asrwt>
<pdfrwt beam="1">  1       21 0.48411944E-02 0.18731279E+03</pdfrwt>
<pdfrwt beam="2">  1       21 0.17655120E+00 0.18731279E+03</pdfrwt>
<totfact> 0.54757608E+04</totfact>
</mgrwt>
</event>
<event>
 4    1  0.4374784E+000  0.2197521E+03  0.7546771E-02  0.1134068E+00
         21   -1    0    0  501  502  0.00000000000E+00  0.00000000000E+00  0.68961482889E+02  0.68961482889E+02  0.00000000000E+00 0. -1.
         21   -1    0    0  502  503 -0.00000000000E+00 -0.00000000000E+00 -0.71885879919E+03  0.71885879919E+03  0.00000000000E+00 0. -1.
          6    1    1    2  501    0 -0.12716833583E+03 -0.46799601382E+02 -0.26158877355E+03  0.34164261264E+03  0.17300000000E+03 0. -1.
         -6    1    1    2    0  503  0.12716833583E+03  0.46799601382E+02 -0.38830854275E+03  0.44617766943E+03  0.17300000000E+03 0. -1.
<mgrwt>
<rscale>  2 0.21975211E+03</rscale>
<asrwt>0</asrwt>
<pdfrwt beam="1">  1       21 0.10609459E-01 0.21975211E+03</pdfrwt>
<pdfrwt beam="2">  1       21 0.11059366E+00 0.21975211E+03</pdfrwt>
<totfact> 0.46454982E+04</totfact>
</mgrwt>
</event>
<event>
 4    1  0.4374784E+000  0.1992489E+03  0.7546771E-02  0.1150374E+00
         21   -1    0    0  501  502  0.00000000000E+00  0.00000000000E+00  0.43501076993E+02  0.43501076993E+02  0.00000000000E+00 0. -1.
         21   -1    0    0  502  503 -0.00000000000E+00 -0.00000000000E+00 -0.14505997041E+04  0.14505997041E+04  0.00000000000E+00 0. -1.
          6    1    1    2  501    0  0.59172139480E+02  0.79182021654E+02 -0.24860591853E+03  0.31859855205E+03  0.17300000000E+03 0. -1.
         -6    1    1    2    0  503 -0.59172139480E+02 -0.79182021654E+02 -0.11584927086E+04  0.11755022290E+04  0.17300000000E+03 0. -1.
<mgrwt>
<rscale>  2 0.19924893E+03</rscale>
<asrwt>0</asrwt>
<pdfrwt beam="1">  1       21 0.66924733E-02 0.19924893E+03</pdfrwt>
<pdfrwt beam="2">  1       21 0.22316919E+00 0.19924893E+03</pdfrwt>
<totfact> 0.15638665E+04</totfact>
</mgrwt>
</event>
<event>
 4    1  0.4374784E+000  0.1973021E+03  0.7546771E-02  0.1152035E+00
         21   -1    0    0  501  502  0.00000000000E+00  0.00000000000E+00  0.17164901812E+03  0.17164901812E+03  0.00000000000E+00 0.  1.
         21   -1    0    0  502  503 -0.00000000000E+00 -0.00000000000E+00 -0.13515118579E+04  0.13515118579E+04  0.00000000000E+00 0.  1.
          6    1    1    2  501    0 -0.33796942532E+02 -0.88639050600E+02  0.10481865871E+03  0.22341679845E+03  0.17300000000E+03 0.  1.
         -6    1    1    2    0  503  0.33796942532E+02  0.88639050600E+02 -0.12846814985E+04  0.12997440775E+04  0.17300000000E+03 0.  1.
<mgrwt>
<rscale>  2 0.19730209E+03</rscale>
<asrwt>0</asrwt>
<pdfrwt beam="1">  1       21 0.26407541E-01 0.19730209E+03</pdfrwt>
<pdfrwt beam="2">  1       21 0.20792490E+00 0.19730209E+03</pdfrwt>
<totfact> 0.16226815E+03</totfact>
</mgrwt>
</event>
<event>
 4    1  0.4374784E+000  0.1884355E+03  0.7546771E-02  0.1159880E+00
         21   -1    0    0  501  502  0.00000000000E+00  0.00000000000E+00  0.20450198927E+03  0.20450198927E+03  0.00000000000E+00 0. -1.
         21   -1    0    0  502  503 -0.00000000000E+00 -0.00000000000E+00 -0.36087024202E+03  0.36087024202E+03  0.00000000000E+00 0. -1.
          6    1    1    2  501    0  0.59054268116E+02 -0.45733242609E+02  0.12543899470E+03  0.22636889683E+03  0.17300000000E+03 0. -1.
         -6    1    1    2    0  503 -0.59054268116E+02  0.45733242609E+02 -0.28180724745E+03  0.33900333446E+03  0.17300000000E+03 0. -1.
<mgrwt>
<rscale>  2 0.18843550E+03</rscale>
<asrwt>0</asrwt>
<pdfrwt beam="1">  1       21 0.31461845E-01 0.18843550E+03</pdfrwt>
<pdfrwt beam="2">  1       21 0.55518498E-01 0.18843550E+03</pdfrwt>
<totfact> 0.29759382E+04</totfact>
</mgrwt>
</event>
<event>
 4    1  0.4374784E+000  0.2271444E+03  0.7546771E-02  0.1128666E+00
         21   -1    0    0  501  502  0.00000000000E+00  0.00000000000E+00  0.40134701154E+03  0.40134701154E+03  0.00000000000E+00 0.  1.
         21   -1    0    0  502  503 -0.00000000000E+00 -0.00000000000E+00 -0.13941544973E+03  0.13941544973E+03  0.00000000000E+00 0. -1.
          6    1    1    2  501    0  0.11667566034E+03  0.89735071725E+02  0.55495928633E+02  0.23382555658E+03  0.17300000000E+03 0.  1.
         -6    1    1    2    0  503 -0.11667566034E+03 -0.89735071725E+02  0.20643563318E+03  0.30693690469E+03  0.17300000000E+03 0.  1.
<mgrwt>
<rscale>  2 0.22714443E+03</rscale>
<asrwt>0</asrwt>
<pdfrwt beam="1">  1       21 0.61745694E-01 0.22714443E+03</pdfrwt>
<pdfrwt beam="2">  1       21 0.21448531E-01 0.22714443E+03</pdfrwt>
<totfact> 0.48526225E+04</totfact>
</mgrwt>
</event>
<event>
 4    1  0.4374784E+000  0.1935324E+03  0.7546771E-02  0.1155313E+00
         21   -1    0    0  501  502  0.00000000000E+00  0.00000000000E+00  0.19212350409E+03  0.19212350409E+03  0.00000000000E+00 0. -1.
         21   -1    0    0  502  503 -0.00000000000E+00 -0.00000000000E+00 -0.23361122178E+03  0.23361122178E+03  0.00000000000E+00 0. -1.
          6    1    1    2  501    0  0.48434090765E+02  0.71971598255E+02  0.65850857331E+02  0.20442873456E+03  0.17300000000E+03 0. -1.
         -6    1    1    2    0  503 -0.48434090765E+02 -0.71971598255E+02 -0.10733857502E+03  0.22130599131E+03  0.17300000000E+03 0. -1.
<mgrwt>
<rscale>  2 0.19353235E+03</rscale>
<asrwt>0</asrwt>
<pdfrwt beam="1">  1       21 0.29557462E-01 0.19353235E+03</pdfrwt>
<pdfrwt beam="2">  1       21 0.35940188E-01 0.19353235E+03</pdfrwt>
<totfact> 0.81864021E+04</totfact>
</mgrwt>
</event>
<event>
 4    1  0.4374784E+000  0.2595389E+03  0.7546771E-02  0.1107421E+00
         21   -1    0    0  503  502  0.00000000000E+00  0.00000000000E+00  0.50332815472E+02  0.50332815472E+02  0.00000000000E+00 0. -1.
         21   -1    0    0  501  503 -0.00000000000E+00 -0.00000000000E+00 -0.30398211739E+04  0.30398211739E+04  0.00000000000E+00 0. -1.
          6    1    1    2  501    0  0.17381594840E+03  0.84967264989E+02 -0.26507093635E+04  0.26633851673E+04  0.17300000000E+03 0. -1.
         -6    1    1    2    0  502 -0.17381594840E+03 -0.84967264989E+02 -0.33877899499E+03  0.42676882206E+03  0.17300000000E+03 0. -1.
<mgrwt>
<rscale>  2 0.25953886E+03</rscale>
<asrwt>0</asrwt>
<pdfrwt beam="1">  1       21 0.77435099E-02 0.25953886E+03</pdfrwt>
<pdfrwt beam="2">  1       21 0.46766480E+00 0.25953886E+03</pdfrwt>
<totfact> 0.36487309E+02</totfact>
</mgrwt>
</event>
<event>
 4    1  0.4374784E+000  0.1761263E+03  0.7546771E-02  0.1171606E+00
         21   -1    0    0  501  502  0.00000000000E+00  0.00000000000E+00  0.24419740395E+03  0.24419740395E+03  0.00000000000E+00 0.  1.
         21   -1    0    0  502  503 -0.00000000000E+00 -0.00000000000E+00 -0.13084539941E+03  0.13084539941E+03  0.00000000000E+00 0.  1.
          6    1    1    2  501    0  0.43592114002E+01 -0.32748590971E+02  0.24655824647E+02  0.17784370279E+03  0.17300000000E+03 0. -1.
         -6    1    1    2    0  503 -0.43592114002E+01  0.32748590971E+02  0.88696179891E+02  0.19719910056E+03  0.17300000000E+03 0. -1.
<mgrwt>
<rscale>  2 0.17612630E+03</rscale>
<asrwt>0</asrwt>
<pdfrwt beam="1">  1       21 0.37568831E-01 0.17612630E+03</pdfrwt>
<pdfrwt beam="2">  1       21 0.20130062E-01 0.17612630E+03</pdfrwt>
<totfact> 0.15665119E+05</totfact>
</mgrwt>
</event>
<event>
 4    1  0.4374784E+000  0.1974748E+03  0.7546771E-02  0.1151887E+00
         21   -1    0    0  503  502  0.00000000000E+00  0.00000000000E+00  0.85718361980E+03  0.85718361980E+03  0.00000000000E+00 0.  1.
         21   -1    0    0  501  503 -0.00000000000E+00 -0.00000000000E+00 -0.50800890306E+02  0.50800890306E+02  0.00000000000E+00 0.  1.
          6    1    1    2  501    0  0.88046667339E+02  0.36263812205E+02  0.25644969609E+03  0.32367070663E+03  0.17300000000E+03 0.  1.
         -6    1    1    2    0  502 -0.88046667339E+02 -0.36263812205E+02  0.54993303340E+03  0.58431380348E+03  0.17300000000E+03 0.  1.
<mgrwt>
<rscale>  2 0.19747476E+03</rscale>
<asrwt>0</asrwt>
<pdfrwt beam="1">  1       21 0.13187439E+00 0.19747476E+03</pdfrwt>
<pdfrwt beam="2">  1       21 0.78155222E-02 0.19747476E+03</pdfrwt>
<totfact> 0.51965009E+04</totfact>
</mgrwt>
</event>
<event>
 4    1  0.4374784E+000  0.2531619E+03  0.7546771E-02  0.1111323E+00
         21   -1    0    0  503  502  0.00000000000E+00  0.00000000000E+00  0.73215689755E+03  0.73215689755E+03  0.00000000000E+00 0. -1.
         21   -1    0    0  501  503 -0.00000000000E+00 -0.00000000000E+00 -0.87755757125E+02  0.87755757125E+02  0.00000000000E+00 0. -1.
          6    1    1    2  501    0 -0.18153247376E+03  0.34755107198E+02  0.30174114222E+03  0.39387646974E+03  0.17300000000E+03 0. -1.
         -6    1    1    2    0  502  0.18153247376E+03 -0.34755107198E+02  0.34265999820E+03  0.42603618494E+03  0.17300000000E+03 0. -1.
<mgrwt>
<rscale>  2 0.25316192E+03</rscale>
<asrwt>0</asrwt>
<pdfrwt beam="1">  1       21 0.11263952E+00 0.25316192E+03</pdfrwt>
<pdfrwt beam="2">  1       21 0.13500886E-01 0.25316192E+03</pdfrwt>
<totfact> 0.28348345E+04</totfact>
</mgrwt>
</event>
<event>
 4    1  0.4374784E+000  0.2167300E+03  0.7546771E-02  0.1136345E+00
         21   -1    0    0  501  502  0.00000000000E+00  0.00000000000E+00  0.60232987775E+03  0.60232987775E+03  0.00000000000E+00 0.  1.
         21   -1    0    0  502  503 -0.00000000000E+00 -0.00000000000E+00 -0.79680270714E+02  0.79680270714E+02  0.00000000000E+00 0.  1.
          6    1    1    2  501    0  0.52067123148E+02  0.11971591114E+03  0.31108445501E+03  0.37913773598E+03  0.17300000000E+03 0.  1.
         -6    1    1    2    0  503 -0.52067123148E+02 -0.11971591114E+03  0.21156515202E+03  0.30287241248E+03  0.17300000000E+03 0.  1.
<mgrwt>
<rscale>  2 0.21672998E+03</rscale>
<asrwt>0</asrwt>
<pdfrwt beam="1">  1       21 0.92666132E-01 0.21672998E+03</pdfrwt>
<pdfrwt beam="2">  1       21 0.12258504E-01 0.21672998E+03</pdfrwt>
<totfact> 0.54808417E+04</totfact>
</mgrwt>
</event>
<event>
 4    1  0.4374784E+000  0.1822350E+03  0.7546771E-02  0.1165657E+00
         21   -1    0    0  501  502  0.00000000000E+00  0.00000000000E+00  0.26936744184E+02  0.26936744184E+02  0.00000000000E+00 0. -1.
         21   -1    0    0  502  503 -0.00000000000E+00 -0.00000000000E+00 -0.13220236307E+04  0.13220236307E+04  0.00000000000E+00 0. -1.
          6    1    1    2  501    0  0.55389610285E+02 -0.14580897152E+02 -0.47239375540E+03  0.50632546019E+03  0.17300000000E+03 0. -1.
         -6    1    1    2    0  503 -0.55389610285E+02  0.14580897152E+02 -0.82269313114E+03  0.84263491472E+03  0.17300000000E+03 0. -1.
<mgrwt>
<rscale>  2 0.18223504E+03</rscale>
<asrwt>0</asrwt>
<pdfrwt beam="1">  1       21 0.41441142E-02 0.18223504E+03</pdfrwt>
<pdfrwt beam="2">  1       21 0.20338827E+00 0.18223504E+03</pdfrwt>
<totfact> 0.47499753E+04</totfact>
</mgrwt>
</event>
<event>
 4    1  0.4374784E+000  0.1905147E+03  0.7546771E-02  0.1157998E+00
         21   -1    0    0  501  502  0.00000000000E+00  0.00000000000E+00  0.80111227552E+03  0.80111227552E+03  0.00000000000E+00 0. -1.
         21   -1    0    0  502  503 -0.00000000000E+00 -0.00000000000E+00 -0.45369212413E+02  0.45369212413E+02  0.00000000000E+00 0.  1.
          6    1    1    2  501    0  0.14759873058E+02 -0.78415523788E+02  0.39356717084E+03  0.43725389214E+03  0.17300000000E+03 0.  1.
         -6    1    1    2    0  503 -0.14759873058E+02  0.78415523788E+02  0.36217589226E+03  0.40922759580E+03  0.17300000000E+03 0.  1.
<mgrwt>
<rscale>  2 0.19051469E+03</rscale>
<asrwt>0</asrwt>
<pdfrwt beam="1">  1       21 0.12324803E+00 0.19051469E+03</pdfrwt>
<pdfrwt beam="2">  1       21 0.69798794E-02 0.19051469E+03</pdfrwt>
<totfact> 0.75197931E+04</totfact>
</mgrwt>
</event>
<event>
 4    1  0.4374784E+000  0.2244140E+03  0.7546771E-02  0.1130634E+00
         21   -1    0    0  503  502  0.00000000000E+00  0.00000000000E+00  0.69541793798E+03  0.69541793798E+03  0.00000000000E+00 0.  1.
         21   -1    0    0  501  503 -0.00000000000E+00 -0.00000000000E+00 -0.18672137020E+03  0.18672137020E+03  0.00000000000E+00 0. -1.
          6    1    1    2  501    0  0.58214626617E+02  0.13055159753E+03 -0.90745600719E+02  0.24206698746E+03  0.17300000000E+03 0. -1.
         -6    1    1    2    0  502 -0.58214626617E+02 -0.13055159753E+03  0.59944216850E+03  0.64007232072E+03  0.17300000000E+03 0.  1.
<mgrwt>
<rscale>  2 0.22441404E+03</rscale>
<asrwt>0</asrwt>
<pdfrwt beam="1">  1       21 0.10698737E+00 0.22441404E+03</pdfrwt>
<pdfrwt beam="2">  1       21 0.28726365E-01 0.22441404E+03</pdfrwt>
<totfact> 0.79171152E+03</totfact>
</mgrwt>
</event>
<event>
 4    1  0.4374784E+000  0.2246566E+03  0.7546771E-02  0.1130458E+00
         21   -1    0    0  503  502  0.00000000000E+00  0.00000000000E+00  0.16849776451E+03  0.16849776451E+03  0.00000000000E+00 0. -1.
         21   -1    0    0  501  503 -0.00000000000E+00 -0.00000000000E+00 -0.62392437424E+03  0.62392437424E+03  0.00000000000E+00 0. -1.
          6    1    1    2  501    0  0.14094111068E+03  0.26023161854E+02 -0.51340356429E+03  0.56040505124E+03  0.17300000000E+03 0. -1.
         -6    1    1    2    0  502 -0.14094111068E+03 -0.26023161854E+02  0.57976954559E+02  0.23201708750E+03  0.17300000000E+03 0. -1.
<mgrwt>
<rscale>  2 0.22465663E+03</rscale>
<asrwt>0</asrwt>
<pdfrwt beam="1">  1       21 0.25922733E-01 0.22465663E+03</pdfrwt>
<pdfrwt beam="2">  1       21 0.95988365E-01 0.22465663E+03</pdfrwt>
<totfact> 0.12515621E+04</totfact>
</mgrwt>
</event>
<event>
 4    1  0.4374784E+000  0.2117962E+03  0.7546771E-02  0.1140151E+00
         21   -1    0    0  503  502  0.00000000000E+00  0.00000000000E+00  0.15045345152E+03  0.15045345152E+03  0.00000000000E+00 0. -1.
         21   -1    0    0  501  503 -0.00000000000E+00 -0.00000000000E+00 -0.29823917999E+03  0.29823917999E+03  0.00000000000E+00 0.  1.
          6    1    1    2  501    0  0.29026162449E+02 -0.11868488473E+03 -0.70002354628E+02  0.22306490003E+03  0.17300000000E+03 0. -1.
         -6    1    1    2    0  502 -0.29026162449E+02  0.11868488473E+03 -0.77783373837E+02  0.22562773149E+03  0.17300000000E+03 0.  1.
<mgrwt>
<rscale>  2 0.21179618E+03</rscale>
<asrwt>0</asrwt>
<pdfrwt beam="1">  1       21 0.23146685E-01 0.21179618E+03</pdfrwt>
<pdfrwt beam="2">  1       21 0.45882951E-01 0.21179618E+03</pdfrwt>
<totfact> 0.79191994E+04</totfact>
</mgrwt>
</event>
<event>
 4    1  0.4374784E+000  0.1835800E+03  0.7546771E-02  0.1164383E+00
         21   -1    0    0  501  502  0.00000000000E+00  0.00000000000E+00  0.36566072068E+03  0.36566072068E+03  0.00000000000E+00 0.  1.
         21   -1    0    0  502  503 -0.00000000000E+00 -0.00000000000E+00 -0.10336432650E+03  0.10336432650E+03  0.00000000000E+00 0.  1.
          6    1    1    2  501    0  0.38801539105E+02  0.47613745499E+02  0.20833618524E+03  0.27767894100E+03  0.17300000000E+03 0. -1.
         -6    1    1    2    0  503 -0.38801539105E+02 -0.47613745499E+02  0.53960208947E+02  0.19134610617E+03  0.17300000000E+03 0. -1.
<mgrwt>
<rscale>  2 0.18358003E+03</rscale>
<asrwt>0</asrwt>
<pdfrwt beam="1">  1       21 0.56255495E-01 0.18358003E+03</pdfrwt>
<pdfrwt beam="2">  1       21 0.15902204E-01 0.18358003E+03</pdfrwt>
<totfact> 0.10520512E+05</totfact>
</mgrwt>
</event>
<event>
 4    1  0.4374784E+000  0.2095284E+03  0.7546771E-02  0.1141940E+00
         21   -1    0    0  503  502  0.00000000000E+00  0.00000000000E+00  0.26277091377E+03  0.26277091377E+03  0.00000000000E+00 0. -1.
         21   -1    0    0  501  503 -0.00000000000E+00 -0.00000000000E+00 -0.48104856405E+03  0.48104856405E+03  0.00000000000E+00 0. -1.
          6    1    1    2  501    0  0.87951702510E+02 -0.78978905274E+02 -0.40960139031E+03  0.46008202356E+03  0.17300000000E+03 0. -1.
         -6    1    1    2    0  502 -0.87951702510E+02  0.78978905274E+02  0.19132374003E+03  0.28373745426E+03  0.17300000000E+03 0. -1.
<mgrwt>
<rscale>  2 0.20952845E+03</rscale>
<asrwt>0</asrwt>
<pdfrwt beam="1">  1       21 0.40426295E-01 0.20952845E+03</pdfrwt>
<pdfrwt beam="2">  1       21 0.74007471E-01 0.20952845E+03</pdfrwt>
<totfact> 0.95447501E+03</totfact>
</mgrwt>
</event>
<event>
 4    1  0.4374784E+000  0.3695247E+03  0.7546771E-02  0.1054875E+00
         21   -1    0    0  501  502  0.00000000000E+00  0.00000000000E+00  0.37330340569E+03  0.37330340569E+03  0.00000000000E+00 0.  1.
         21   -1    0    0  502  503 -0.00000000000E+00 -0.00000000000E+00 -0.78993333862E+03  0.78993333862E+03  0.00000000000E+00 0.  1.
          6    1    1    2  501    0 -0.95341114445E+02 -0.31229729971E+03  0.21787392857E+03  0.42897270340E+03  0.17300000000E+03 0.  1.
         -6    1    1    2    0  503  0.95341114445E+02  0.31229729971E+03 -0.63450386150E+03  0.73426404091E+03  0.17300000000E+03 0.  1.
<mgrwt>
<rscale>  2 0.36952474E+03</rscale>
<asrwt>0</asrwt>
<pdfrwt beam="1">  1       21 0.57431294E-01 0.36952474E+03</pdfrwt>
<pdfrwt beam="2">  1       21 0.12152820E+00 0.36952474E+03</pdfrwt>
<totfact> 0.12870594E+03</totfact>
</mgrwt>
</event>
<event>
 4    1  0.4374784E+000  0.2211837E+03  0.7546771E-02  0.1133004E+00
         21   -1    0    0  503  502  0.00000000000E+00  0.00000000000E+00  0.30989745445E+03  0.30989745445E+03  0.00000000000E+00 0.  1.
         21   -1    0    0  501  503 -0.00000000000E+00 -0.00000000000E+00 -0.29914060200E+03  0.29914060200E+03  0.00000000000E+00 0.  1.
          6    1    1    2  501    0  0.11501792065E+03  0.75921584523E+02 -0.20389260273E+03  0.30082287565E+03  0.17300000000E+03 0.  1.
         -6    1    1    2    0  502 -0.11501792065E+03 -0.75921584523E+02  0.21464945518E+03  0.30821518080E+03  0.17300000000E+03 0.  1.
<mgrwt>
<rscale>  2 0.22118365E+03</rscale>
<asrwt>0</asrwt>
<pdfrwt beam="1">  1       21 0.47676531E-01 0.22118365E+03</pdfrwt>
<pdfrwt beam="2">  1       21 0.46021631E-01 0.22118365E+03</pdfrwt>
<totfact> 0.18716243E+04</totfact>
</mgrwt>
</event>
<event>
 4    1  0.4374784E+000  0.1969821E+03  0.7546771E-02  0.1152310E+00
         21   -1    0    0  501  502  0.00000000000E+00  0.00000000000E+00  0.25218975604E+04  0.25218975604E+04  0.00000000000E+00 0.  1.
         21   -1    0    0  502  503 -0.00000000000E+00 -0.00000000000E+00 -0.51620890744E+02  0.51620890744E+02  0.00000000000E+00 0.  1.
          6    1    1    2  501    0  0.94196335146E+02 -0.11137088315E+00  0.23132106961E+04  0.23215825823E+04  0.17300000000E+03 0.  1.
         -6    1    1    2    0  503 -0.94196335146E+02  0.11137088315E+00  0.15706597358E+03  0.25193586886E+03  0.17300000000E+03 0.  1.
<mgrwt>
<rscale>  2 0.19698214E+03</rscale>
<asrwt>0</asrwt>
<pdfrwt beam="1">  1       21 0.38798414E+00 0.19698214E+03</pdfrwt>
<pdfrwt beam="2">  1       21 0.79416775E-02 0.19698214E+03</pdfrwt>
<totfact> 0.12481505E+03</totfact>
</mgrwt>
</event>
<event>
 4    1  0.4374784E+000  0.1831034E+03  0.7546771E-02  0.1164833E+00
         21   -1    0    0  501  502  0.00000000000E+00  0.00000000000E+00  0.15073226902E+03  0.15073226902E+03  0.00000000000E+00 0. -1.
         21   -1    0    0  502  503 -0.00000000000E+00 -0.00000000000E+00 -0.30124378074E+03  0.30124378074E+03  0.00000000000E+00 0.  1.
          6    1    1    2  501    0 -0.44604702559E+01 -0.59815935054E+02  0.40338771251E+02  0.18749415550E+03  0.17300000000E+03 0. -1.
         -6    1    1    2    0  503  0.44604702559E+01  0.59815935054E+02 -0.19085028297E+03  0.26448189426E+03  0.17300000000E+03 0.  1.
<mgrwt>
<rscale>  2 0.18310336E+03</rscale>
<asrwt>0</asrwt>
<pdfrwt beam="1">  1       21 0.23189580E-01 0.18310336E+03</pdfrwt>
<pdfrwt beam="2">  1       21 0.46345197E-01 0.18310336E+03</pdfrwt>
<totfact> 0.78240795E+04</totfact>
</mgrwt>
</event>
<event>
 4    1  0.4374784E+000  0.2192116E+03  0.7546771E-02  0.1134472E+00
         21   -1    0    0  501  502  0.00000000000E+00  0.00000000000E+00  0.14185316339E+04  0.14185316339E+04  0.00000000000E+00 0.  1.
         21   -1    0    0  502  503 -0.00000000000E+00 -0.00000000000E+00 -0.63408619825E+02  0.63408619825E+02  0.00000000000E+00 0.  1.
          6    1    1    2  501    0 -0.25835404513E+02  0.13212591364E+03  0.11832462860E+04  0.12033808618E+04  0.17300000000E+03 0.  1.
         -6    1    1    2    0  503  0.25835404513E+02 -0.13212591364E+03  0.17187672807E+03  0.27855939193E+03  0.17300000000E+03 0.  1.
<mgrwt>
<rscale>  2 0.21921160E+03</rscale>
<asrwt>0</asrwt>
<pdfrwt beam="1">  1       21 0.21823561E+00 0.21921160E+03</pdfrwt>
<pdfrwt beam="2">  1       21 0.97551734E-02 0.21921160E+03</pdfrwt>
<totfact> 0.85456282E+03</totfact>
</mgrwt>
</event>
<event>
 4    1  0.4374784E+000  0.1918245E+03  0.7546771E-02  0.1156826E+00
         21   -1    0    0  501  502  0.00000000000E+00  0.00000000000E+00  0.83215102757E+02  0.83215102757E+02  0.00000000000E+00 0. -1.
         21   -1    0    0  502  503 -0.00000000000E+00 -0.00000000000E+00 -0.60264470460E+03  0.60264470460E+03  0.00000000000E+00 0. -1.
          6    1    1    2  501    0 -0.75451565169E+02 -0.34273940216E+02 -0.82763039115E+02  0.20891711827E+03  0.17300000000E+03 0. -1.
         -6    1    1    2    0  503  0.75451565169E+02  0.34273940216E+02 -0.43666656273E+03  0.47694268908E+03  0.17300000000E+03 0. -1.
<mgrwt>
<rscale>  2 0.19182451E+03</rscale>
<asrwt>0</asrwt>
<pdfrwt beam="1">  1       21 0.12802323E-01 0.19182451E+03</pdfrwt>
<pdfrwt beam="2">  1       21 0.92714571E-01 0.19182451E+03</pdfrwt>
<totfact> 0.51258152E+04</totfact>
</mgrwt>
</event>
<event>
 4    1  0.4374784E+000  0.2259492E+03  0.7546771E-02  0.1129524E+00
         21   -1    0    0  503  502  0.00000000000E+00  0.00000000000E+00  0.50737108526E+03  0.50737108526E+03  0.00000000000E+00 0. -1.
         21   -1    0    0  501  503 -0.00000000000E+00 -0.00000000000E+00 -0.10652504669E+03  0.10652504669E+03  0.00000000000E+00 0.  1.
          6    1    1    2  501    0  0.17761152235E+02 -0.14425182550E+03  0.27267528181E+03  0.35412548200E+03  0.17300000000E+03 0. -1.
         -6    1    1    2    0  502 -0.17761152235E+02  0.14425182550E+03  0.12817075676E+03  0.25977064995E+03  0.17300000000E+03 0.  1.
<mgrwt>
<rscale>  2 0.22594921E+03</rscale>
<asrwt>0</asrwt>
<pdfrwt beam="1">  1       21 0.78057088E-01 0.22594921E+03</pdfrwt>
<pdfrwt beam="2">  1       21 0.16388469E-01 0.22594921E+03</pdfrwt>
<totfact> 0.47734930E+04</totfact>
</mgrwt>
</event>
<event>
 4    1  0.4374784E+000  0.1759102E+03  0.7546771E-02  0.1171821E+00
         21   -1    0    0  503  502  0.00000000000E+00  0.00000000000E+00  0.87091297644E+03  0.87091297644E+03  0.00000000000E+00 0. -1.
         21   -1    0    0  501  503 -0.00000000000E+00 -0.00000000000E+00 -0.37397008501E+02  0.37397008501E+02  0.00000000000E+00 0. -1.
          6    1    1    2  501    0 -0.30470962031E+02  0.93226020308E+01  0.51820632421E+03  0.54724965499E+03  0.17300000000E+03 0. -1.
         -6    1    1    2    0  502  0.30470962031E+02 -0.93226020308E+01  0.31530964373E+03  0.36106032995E+03  0.17300000000E+03 0. -1.
<mgrwt>
<rscale>  2 0.17591018E+03</rscale>
<asrwt>0</asrwt>
<pdfrwt beam="1">  1       21 0.13398660E+00 0.17591018E+03</pdfrwt>
<pdfrwt beam="2">  1       21 0.57533866E-02 0.17591018E+03</pdfrwt>
<totfact> 0.85507648E+04</totfact>
</mgrwt>
</event>
<event>
 4    1  0.4374784E+000  0.1838406E+03  0.7546771E-02  0.1164137E+00
         21   -1    0    0  501  502  0.00000000000E+00  0.00000000000E+00  0.25386249211E+02  0.25386249211E+02  0.00000000000E+00 0. -1.
         21   -1    0    0  502  503 -0.00000000000E+00 -0.00000000000E+00 -0.13360331415E+04  0.13360331415E+04  0.00000000000E+00 0. -1.
          6    1    1    2  501    0  0.41735861626E+02  0.46113727032E+02 -0.61491609473E+03  0.64180928751E+03  0.17300000000E+03 0. -1.
         -6    1    1    2    0  503 -0.41735861626E+02 -0.46113727032E+02 -0.69573079755E+03  0.71961010320E+03  0.17300000000E+03 0. -1.
<mgrwt>
<rscale>  2 0.18384058E+03</rscale>
<asrwt>0</asrwt>
<pdfrwt beam="1">  1       21 0.39055753E-02 0.18384058E+03</pdfrwt>
<pdfrwt beam="2">  1       21 0.20554364E+00 0.18384058E+03</pdfrwt>
<totfact> 0.50781589E+04</totfact>
</mgrwt>
</event>
<event>
 4    1  0.4374784E+000  0.2373487E+03  0.7546771E-02  0.1121572E+00
         21   -1    0    0  503  502  0.00000000000E+00  0.00000000000E+00  0.68308851408E+03  0.68308851408E+03  0.00000000000E+00 0.  1.
         21   -1    0    0  501  503 -0.00000000000E+00 -0.00000000000E+00 -0.10148620563E+03  0.10148620563E+03  0.00000000000E+00 0. -1.
          6    1    1    2  501    0 -0.70904665324E+02  0.14621188553E+03  0.12099186366E+03  0.26640836718E+03  0.17300000000E+03 0. -1.
         -6    1    1    2    0  502  0.70904665324E+02 -0.14621188553E+03  0.46061044479E+03  0.51816635252E+03  0.17300000000E+03 0.  1.
<mgrwt>
<rscale>  2 0.23734866E+03</rscale>
<asrwt>0</asrwt>
<pdfrwt beam="1">  1       21 0.10509054E+00 0.23734866E+03</pdfrwt>
<pdfrwt beam="2">  1       21 0.15613263E-01 0.23734866E+03</pdfrwt>
<totfact> 0.25933479E+04</totfact>
</mgrwt>
</event>
<event>
 4    1  0.4374784E+000  0.2864452E+03  0.7546771E-02  0.1092220E+00
         21   -1    0    0  501  502  0.00000000000E+00  0.00000000000E+00  0.23970243793E+03  0.23970243793E+03  0.00000000000E+00 0. -1.
         21   -1    0    0  502  503 -0.00000000000E+00 -0.00000000000E+00 -0.39833660607E+03  0.39833660607E+03  0.00000000000E+00 0. -1.
          6    1    1    2  501    0 -0.22814200844E+03 -0.85485933141E+01 -0.19896815354E+03  0.34876808997E+03  0.17300000000E+03 0. -1.
         -6    1    1    2    0  503  0.22814200844E+03  0.85485933141E+01  0.40333985395E+02  0.28927095402E+03  0.17300000000E+03 0. -1.
<mgrwt>
<rscale>  2 0.28644520E+03</rscale>
<asrwt>0</asrwt>
<pdfrwt beam="1">  1       21 0.36877298E-01 0.28644520E+03</pdfrwt>
<pdfrwt beam="2">  1       21 0.61282555E-01 0.28644520E+03</pdfrwt>
<totfact> 0.16714621E+04</totfact>
</mgrwt>
</event>
<event>
 4    1  0.4374784E+000  0.2563333E+03  0.7546771E-02  0.1109366E+00
         21   -1    0    0  503  502  0.00000000000E+00  0.00000000000E+00  0.18209046915E+04  0.18209046915E+04  0.00000000000E+00 0. -1.
         21   -1    0    0  501  503 -0.00000000000E+00 -0.00000000000E+00 -0.13019205979E+03  0.13019205979E+03  0.00000000000E+00 0.  1.
          6    1    1    2  501    0 -0.17938032377E+03 -0.60003897617E+02  0.15947981043E+02  0.25682894382E+03  0.17300000000E+03 0.  1.
         -6    1    1    2    0  502  0.17938032377E+03  0.60003897617E+02  0.16747646507E+04  0.16942678075E+04  0.17300000000E+03 0. -1.
<mgrwt>
<rscale>  2 0.25633331E+03</rscale>
<asrwt>0</asrwt>
<pdfrwt beam="1">  1       21 0.28013917E+00 0.25633331E+03</pdfrwt>
<pdfrwt beam="2">  1       21 0.20029549E-01 0.25633331E+03</pdfrwt>
<totfact> 0.95103957E+02</totfact>
</mgrwt>
</event>
<event>
 4    1  0.4374784E+000  0.1991767E+03  0.7546771E-02  0.1150436E+00
         21   -1    0    0  503  502  0.00000000000E+00  0.00000000000E+00  0.52000368714E+02  0.52000368714E+02  0.00000000000E+00 0.  1.
         21   -1    0    0  501  503 -0.00000000000E+00 -0.00000000000E+00 -0.78474126435E+03  0.78474126435E+03  0.00000000000E+00 0.  1.
          6    1    1    2  501    0  0.98298444869E+02 -0.89306353624E+01 -0.43615952550E+03  0.47948563294E+03  0.17300000000E+03 0.  1.
         -6    1    1    2    0  502 -0.98298444869E+02  0.89306353624E+01 -0.29658137013E+03  0.35725600012E+03  0.17300000000E+03 0.  1.
<mgrwt>
<rscale>  2 0.19917666E+03</rscale>
<asrwt>0</asrwt>
<pdfrwt beam="1">  1       21 0.80000569E-02 0.19917666E+03</pdfrwt>
<pdfrwt beam="2">  1       21 0.12072942E+00 0.19917666E+03</pdfrwt>
<totfact> 0.62219849E+04</totfact>
</mgrwt>
</event>
<event>
 4    1  0.4374784E+000  0.2128381E+03  0.7546771E-02  0.1139338E+00
         21   -1    0    0  503  502  0.00000000000E+00  0.00000000000E+00  0.17921104567E+03  0.17921104567E+03  0.00000000000E+00 0.  1.
         21   -1    0    0  501  503 -0.00000000000E+00 -0.00000000000E+00 -0.62146826610E+03  0.62146826610E+03  0.00000000000E+00 0.  1.
          6    1    1    2  501    0 -0.31709842218E+02  0.11985632650E+03 -0.52948418045E+03  0.57066062633E+03  0.17300000000E+03 0.  1.
         -6    1    1    2    0  502  0.31709842218E+02 -0.11985632650E+03  0.87226960023E+02  0.23001868544E+03  0.17300000000E+03 0.  1.
<mgrwt>
<rscale>  2 0.21283809E+03</rscale>
<asrwt>0</asrwt>
<pdfrwt beam="1">  1       21 0.27570930E-01 0.21283809E+03</pdfrwt>
<pdfrwt beam="2">  1       21 0.95610503E-01 0.21283809E+03</pdfrwt>
<totfact> 0.11299744E+04</totfact>
</mgrwt>
</event>
<event>
 4    1  0.4374784E+000  0.1896302E+03  0.7546771E-02  0.1158795E+00
         21   -1    0    0  503  502  0.00000000000E+00  0.00000000000E+00  0.46540467790E+03  0.46540467790E+03  0.00000000000E+00 0.  1.
         21   -1    0    0  501  503 -0.00000000000E+00 -0.00000000000E+00 -0.80291271490E+02  0.80291271490E+02  0.00000000000E+00 0.  1.
          6    1    1    2  501    0 -0.71784207292E+02  0.29624761909E+02  0.13958742072E+03  0.23546602081E+03  0.17300000000E+03 0.  1.
         -6    1    1    2    0  502  0.71784207292E+02 -0.29624761909E+02  0.24552598569E+03  0.31022992857E+03  0.17300000000E+03 0.  1.
<mgrwt>
<rscale>  2 0.18963016E+03</rscale>
<asrwt>0</asrwt>
<pdfrwt beam="1">  1       21 0.71600718E-01 0.18963016E+03</pdfrwt>
<pdfrwt beam="2">  1       21 0.12352504E-01 0.18963016E+03</pdfrwt>
<totfact> 0.98325704E+04</totfact>
</mgrwt>
</event>
<event>
 4    1  0.4374784E+000  0.1763411E+03  0.7546771E-02  0.1171392E+00
         21   -1    0    0  501  502  0.00000000000E+00  0.00000000000E+00  0.50999739331E+03  0.50999739331E+03  0.00000000000E+00 0. -1.
         21   -1    0    0  502  503 -0.00000000000E+00 -0.00000000000E+00 -0.83466477382E+02  0.83466477382E+02  0.00000000000E+00 0. -1.
          6    1    1    2  501    0  0.33192964842E+02 -0.80870733009E+01  0.36730584624E+03  0.40744295104E+03  0.17300000000E+03 0.  1.
         -6    1    1    2    0  503 -0.33192964842E+02  0.80870733009E+01  0.59225069690E+02  0.18602091966E+03  0.17300000000E+03 0.  1.
<mgrwt>
<rscale>  2 0.17634107E+03</rscale>
<asrwt>0</asrwt>
<pdfrwt beam="1">  1       21 0.78461135E-01 0.17634107E+03</pdfrwt>
<pdfrwt beam="2">  1       21 0.12840997E-01 0.17634107E+03</pdfrwt>
<totfact> 0.75206717E+04</totfact>
</mgrwt>
</event>
<event>
 4    1  0.4374784E+000  0.1807946E+03  0.7546771E-02  0.1167036E+00
         21   -1    0    0  503  502  0.00000000000E+00  0.00000000000E+00  0.49845427695E+03  0.49845427695E+03  0.00000000000E+00 0.  1.
         21   -1    0    0  501  503 -0.00000000000E+00 -0.00000000000E+00 -0.20575518495E+03  0.20575518495E+03  0.00000000000E+00 0.  1.
          6    1    1    2  501    0  0.33028463734E+02 -0.40826635045E+02 -0.14427885866E+03  0.23130733365E+03  0.17300000000E+03 0.  1.
         -6    1    1    2    0  502 -0.33028463734E+02  0.40826635045E+02  0.43697795065E+03  0.47290212825E+03  0.17300000000E+03 0.  1.
<mgrwt>
<rscale>  2 0.18079462E+03</rscale>
<asrwt>0</asrwt>
<pdfrwt beam="1">  1       21 0.76685273E-01 0.18079462E+03</pdfrwt>
<pdfrwt beam="2">  1       21 0.31654644E-01 0.18079462E+03</pdfrwt>
<totfact> 0.14625994E+04</totfact>
</mgrwt>
</event>
<event>
 4    1  0.4374784E+000  0.2254237E+03  0.7546771E-02  0.1129903E+00
         21   -1    0    0  503  502  0.00000000000E+00  0.00000000000E+00  0.67191215800E+02  0.67191215800E+02  0.00000000000E+00 0.  1.
         21   -1    0    0  501  503 -0.00000000000E+00 -0.00000000000E+00 -0.75644800706E+03  0.75644800706E+03  0.00000000000E+00 0. -1.
          6    1    1    2  501    0 -0.21692916343E+02  0.14288542906E+03 -0.33861621301E+03  0.40678835795E+03  0.17300000000E+03 0. -1.
         -6    1    1    2    0  502  0.21692916343E+02 -0.14288542906E+03 -0.35064057825E+03  0.41685086491E+03  0.17300000000E+03 0.  1.
<mgrwt>
<rscale>  2 0.22542366E+03</rscale>
<asrwt>0</asrwt>
<pdfrwt beam="1">  1       21 0.10337110E-01 0.22542366E+03</pdfrwt>
<pdfrwt beam="2">  1       21 0.11637661E+00 0.22542366E+03</pdfrwt>
<totfact> 0.42836419E+04</totfact>
</mgrwt>
</event>
<event>
 4    1  0.4374784E+000  0.1812330E+03  0.7546771E-02  0.1166615E+00
         21   -1    0    0  503  502  0.00000000000E+00  0.00000000000E+00  0.15047539517E+04  0.15047539517E+04  0.00000000000E+00 0.  1.
         21   -1    0    0  501  503 -0.00000000000E+00 -0.00000000000E+00 -0.30631043455E+02  0.30631043455E+02  0.00000000000E+00 0. -1.
          6    1    1    2  501    0  0.49543180421E+02  0.21491170334E+02  0.32550546723E+03  0.37255765504E+03  0.17300000000E+03 0. -1.
         -6    1    1    2    0  502 -0.49543180421E+02 -0.21491170334E+02  0.11486174410E+04  0.11628273401E+04  0.17300000000E+03 0.  1.
<mgrwt>
<rscale>  2 0.18123299E+03</rscale>
<asrwt>0</asrwt>
<pdfrwt beam="1">  1       21 0.23150055E+00 0.18123299E+03</pdfrwt>
<pdfrwt beam="2">  1       21 0.47124694E-02 0.18123299E+03</pdfrwt>
<totfact> 0.25707160E+04</totfact>
</mgrwt>
</event>
<event>
 4    1  0.4374784E+000  0.1901357E+03  0.7546771E-02  0.1158339E+00
         21   -1    0    0  503  502  0.00000000000E+00  0.00000000000E+00  0.14907547335E+04  0.14907547335E+04  0.00000000000E+00 0. -1.
         21   -1    0    0  501  503 -0.00000000000E+00 -0.00000000000E+00 -0.12184647020E+03  0.12184647020E+03  0.00000000000E+00 0. -1.
          6    1    1    2  501    0  0.72150944956E+02 -0.31887678764E+02 -0.37162273698E+02  0.19373336703E+03  0.17300000000E+03 0. -1.
         -6    1    1    2    0  502 -0.72150944956E+02  0.31887678764E+02  0.14060705370E+04  0.14188678367E+04  0.17300000000E+03 0. -1.
<mgrwt>
<rscale>  2 0.19013570E+03</rscale>
<asrwt>0</asrwt>
<pdfrwt beam="1">  1       21 0.22934687E+00 0.19013570E+03</pdfrwt>
<pdfrwt beam="2">  1       21 0.18745612E-01 0.19013570E+03</pdfrwt>
<totfact> 0.23046712E+03</totfact>
</mgrwt>
</event>
<event>
 4    1  0.4374784E+000  0.1933826E+03  0.7546771E-02  0.1155445E+00
         21   -1    0    0  501  502  0.00000000000E+00  0.00000000000E+00  0.45262157297E+03  0.45262157297E+03  0.00000000000E+00 0.  1.
         21   -1    0    0  502  503 -0.00000000000E+00 -0.00000000000E+00 -0.12039679735E+03  0.12039679735E+03  0.00000000000E+00 0.  1.
          6    1    1    2  501    0 -0.20776291459E+02 -0.83882000113E+02  0.32659492318E+03  0.37955380129E+03  0.17300000000E+03 0.  1.
         -6    1    1    2    0  503  0.20776291459E+02  0.83882000113E+02  0.56298524399E+01  0.19346456903E+03  0.17300000000E+03 0.  1.
<mgrwt>
<rscale>  2 0.19338264E+03</rscale>
<asrwt>0</asrwt>
<pdfrwt beam="1">  1       21 0.69634087E-01 0.19338264E+03</pdfrwt>
<pdfrwt beam="2">  1       21 0.18522584E-01 0.19338264E+03</pdfrwt>
<totfact> 0.49896080E+04</totfact>
</mgrwt>
</event>
<event>
 4    1  0.4374784E+000  0.2479666E+03  0.7546771E-02  0.1114597E+00
         21   -1    0    0  503  502  0.00000000000E+00  0.00000000000E+00  0.32287898152E+03  0.32287898152E+03  0.00000000000E+00 0. -1.
         21   -1    0    0  501  503 -0.00000000000E+00 -0.00000000000E+00 -0.21830703449E+03  0.21830703449E+03  0.00000000000E+00 0.  1.
          6    1    1    2  501    0 -0.15657131805E+03  0.83927629475E+02 -0.44400977796E+02  0.25191044332E+03  0.17300000000E+03 0.  1.
         -6    1    1    2    0  502  0.15657131805E+03 -0.83927629475E+02  0.14897292482E+03  0.28927557269E+03  0.17300000000E+03 0. -1.
<mgrwt>
<rscale>  2 0.24796658E+03</rscale>
<asrwt>0</asrwt>
<pdfrwt beam="1">  1       21 0.49673690E-01 0.24796658E+03</pdfrwt>
<pdfrwt beam="2">  1       21 0.33585697E-01 0.24796658E+03</pdfrwt>
<totfact> 0.32093194E+04</totfact>
</mgrwt>
</event>
<event>
 4    1  0.4374784E+000  0.1922094E+03  0.7546771E-02  0.1156484E+00
         21   -1    0    0  501  502  0.00000000000E+00  0.00000000000E+00  0.24130917377E+03  0.24130917377E+03  0.00000000000E+00 0.  1.
         21   -1    0    0  502  503 -0.00000000000E+00 -0.00000000000E+00 -0.15921433080E+03  0.15921433080E+03  0.00000000000E+00 0. -1.
          6    1    1    2  501    0 -0.75922335094E+02 -0.35373288408E+02  0.18031653089E+01  0.19221790214E+03  0.17300000000E+03 0.  1.
         -6    1    1    2    0  503  0.75922335094E+02  0.35373288408E+02  0.80291677663E+02  0.20830560242E+03  0.17300000000E+03 0. -1.
<mgrwt>
<rscale>  2 0.19220944E+03</rscale>
<asrwt>0</asrwt>
<pdfrwt beam="1">  1       21 0.37124488E-01 0.19220944E+03</pdfrwt>
<pdfrwt beam="2">  1       21 0.24494513E-01 0.19220944E+03</pdfrwt>
<totfact> 0.11022745E+05</totfact>
</mgrwt>
</event>
<event>
 4    1  0.4374784E+000  0.1745264E+03  0.7546771E-02  0.1173208E+00
         21   -1    0    0  503  502  0.00000000000E+00  0.00000000000E+00  0.65521732270E+02  0.65521732270E+02  0.00000000000E+00 0.  1.
         21   -1    0    0  501  503 -0.00000000000E+00 -0.00000000000E+00 -0.47711447619E+03  0.47711447619E+03  0.00000000000E+00 0. -1.
          6    1    1    2  501    0  0.20829312083E+02  0.98292349968E+01 -0.24925069286E+03  0.30427846127E+03  0.17300000000E+03 0.  1.
         -6    1    1    2    0  502 -0.20829312083E+02 -0.98292349968E+01 -0.16234205106E+03  0.23835774719E+03  0.17300000000E+03 0.  1.
<mgrwt>
<rscale>  2 0.17452643E+03</rscale>
<asrwt>0</asrwt>
<pdfrwt beam="1">  1       21 0.10080266E-01 0.17452643E+03</pdfrwt>
<pdfrwt beam="2">  1       21 0.73402228E-01 0.17452643E+03</pdfrwt>
<totfact> 0.13432036E+05</totfact>
</mgrwt>
</event>
<event>
 4    1  0.4374784E+000  0.2625407E+03  0.7546771E-02  0.1105626E+00
         21   -1    0    0  503  502  0.00000000000E+00  0.00000000000E+00  0.50059868917E+03  0.50059868917E+03  0.00000000000E+00 0. -1.
         21   -1    0    0  501  503 -0.00000000000E+00 -0.00000000000E+00 -0.17550853935E+03  0.17550853935E+03  0.00000000000E+00 0.  1.
          6    1    1    2  501    0 -0.67238187878E+01 -0.19736612646E+03  0.56219489025E+01  0.26260084524E+03  0.17300000000E+03 0. -1.
         -6    1    1    2    0  502  0.67238187878E+01  0.19736612646E+03  0.31946820092E+03  0.41350638328E+03  0.17300000000E+03 0.  1.
<mgrwt>
<rscale>  2 0.26254066E+03</rscale>
<asrwt>0</asrwt>
<pdfrwt beam="1">  1       21 0.77015182E-01 0.26254066E+03</pdfrwt>
<pdfrwt beam="2">  1       21 0.27001314E-01 0.26254066E+03</pdfrwt>
<totfact> 0.18850823E+04</totfact>
</mgrwt>
</event>
<event>
 4    1  0.4374784E+000  0.1998590E+03  0.7546771E-02  0.1149858E+00
         21   -1    0    0  501  502  0.00000000000E+00  0.00000000000E+00  0.14335762422E+03  0.14335762422E+03  0.00000000000E+00 0. -1.
         21   -1    0    0  502  503 -0.00000000000E+00 -0.00000000000E+00 -0.37490834855E+03  0.37490834855E+03  0.00000000000E+00 0. -1.
          6    1    1    2  501    0  0.16403675361E+02  0.98719508072E+02  0.15543236093E+02  0.20046250030E+03  0.17300000000E+03 0. -1.
         -6    1    1    2    0  503 -0.16403675361E+02 -0.98719508072E+02 -0.24709396042E+03  0.31780347247E+03  0.17300000000E+03 0. -1.
<mgrwt>
<rscale>  2 0.19985900E+03</rscale>
<asrwt>0</asrwt>
<pdfrwt beam="1">  1       21 0.22055019E-01 0.19985900E+03</pdfrwt>
<pdfrwt beam="2">  1       21 0.57678208E-01 0.19985900E+03</pdfrwt>
<totfact> 0.53983417E+04</totfact>
</mgrwt>
</event>
<event>
 4    1  0.4374784E+000  0.2131179E+03  0.7546771E-02  0.1139120E+00
         21   -1    0    0  503  502  0.00000000000E+00  0.00000000000E+00  0.36290863739E+03  0.36290863739E+03  0.00000000000E+00 0.  1.
         21   -1    0    0  501  503 -0.00000000000E+00 -0.00000000000E+00 -0.13690555934E+03  0.13690555934E+03  0.00000000000E+00 0.  1.
          6    1    1    2  501    0 -0.21590740588E+02 -0.12257282061E+03  0.18622100398E+03  0.28301505040E+03  0.17300000000E+03 0.  1.
         -6    1    1    2    0  502  0.21590740588E+02  0.12257282061E+03  0.39782074071E+02  0.21679914633E+03  0.17300000000E+03 0.  1.
<mgrwt>
<rscale>  2 0.21311794E+03</rscale>
<asrwt>0</asrwt>
<pdfrwt beam="1">  1       21 0.55832098E-01 0.21311794E+03</pdfrwt>
<pdfrwt beam="2">  1       21 0.21062394E-01 0.21311794E+03</pdfrwt>
<totfact> 0.62716478E+04</totfact>
</mgrwt>
</event>
<event>
 4    1  0.4374784E+000  0.1736806E+03  0.7546771E-02  0.1174063E+00
         21   -1    0    0  503  502  0.00000000000E+00  0.00000000000E+00  0.78914451018E+02  0.78914451018E+02  0.00000000000E+00 0.  1.
         21   -1    0    0  501  503 -0.00000000000E+00 -0.00000000000E+00 -0.38486540618E+03  0.38486540618E+03  0.00000000000E+00 0.  1.
          6    1    1    2  501    0 -0.15023175284E+02  0.32031965737E+01 -0.17209576711E+03  0.24450339327E+03  0.17300000000E+03 0. -1.
         -6    1    1    2    0  502  0.15023175284E+02 -0.32031965737E+01 -0.13385518805E+03  0.21927646393E+03  0.17300000000E+03 0. -1.
<mgrwt>
<rscale>  2 0.17368062E+03</rscale>
<asrwt>0</asrwt>
<pdfrwt beam="1">  1       21 0.12140685E-01 0.17368062E+03</pdfrwt>
<pdfrwt beam="2">  1       21 0.59210062E-01 0.17368062E+03</pdfrwt>
<totfact> 0.15417402E+05</totfact>
</mgrwt>
</event>
<event>
 4    1  0.4374784E+000  0.1856125E+03  0.7546771E-02  0.1162479E+00
         21   -1    0    0  503  502  0.00000000000E+00  0.00000000000E+00  0.78233984337E+03  0.78233984337E+03  0.00000000000E+00 0. -1.
         21   -1    0    0  501  503 -0.00000000000E+00 -0.00000000000E+00 -0.59803600988E+02  0.59803600988E+02  0.00000000000E+00 0. -1.
          6    1    1    2  501    0  0.54327555939E+02 -0.39642220199E+02  0.14506603722E+03  0.23557619598E+03  0.17300000000E+03 0. -1.
         -6    1    1    2    0  502 -0.54327555939E+02  0.39642220199E+02  0.57747020516E+03  0.60656724838E+03  0.17300000000E+03 0. -1.
<mgrwt>
<rscale>  2 0.18561247E+03</rscale>
<asrwt>0</asrwt>
<pdfrwt beam="1">  1       21 0.12035997E+00 0.18561247E+03</pdfrwt>
<pdfrwt beam="2">  1       21 0.92005546E-02 0.18561247E+03</pdfrwt>
<totfact> 0.49440653E+04</totfact>
</mgrwt>
</event>
<event>
 4    1  0.4374784E+000  0.1885870E+03  0.7546771E-02  0.1159742E+00
         21   -1    0    0  501  502  0.00000000000E+00  0.00000000000E+00  0.27219181165E+03  0.27219181165E+03  0.00000000000E+00 0.  1.
         21   -1    0    0  502  503 -0.00000000000E+00 -0.00000000000E+00 -0.14642851426E+03  0.14642851426E+03  0.00000000000E+00 0. -1.
          6    1    1    2  501    0  0.36452698087E+02  0.65629697871E+02  0.13156458860E+03  0.22994411803E+03  0.17300000000E+03 0.  1.
         -6    1    1    2    0  503 -0.36452698087E+02 -0.65629697871E+02 -0.58012912077E+01  0.18867620788E+03  0.17300000000E+03 0. -1.
<mgrwt>
<rscale>  2 0.18858700E+03</rscale>
<asrwt>0</asrwt>
<pdfrwt beam="1">  1       21 0.41875663E-01 0.18858700E+03</pdfrwt>
<pdfrwt beam="2">  1       21 0.22527464E-01 0.18858700E+03</pdfrwt>
<totfact> 0.10148160E+05</totfact>
</mgrwt>
</event>
<event>
 4    1  0.4374784E+000  0.2228609E+03  0.7546771E-02  0.1131768E+00
         21   -1    0    0  501  502  0.00000000000E+00  0.00000000000E+00  0.23765236059E+04  0.23765236059E+04  0.00000000000E+00 0.  1.
         21   -1    0    0  502  503 -0.00000000000E+00 -0.00000000000E+00 -0.22285664011E+02  0.22285664011E+02  0.00000000000E+00 0. -1.
          6    1    1    2  501    0 -0.25259494017E+02 -0.13820249796E+03  0.14763028467E+04  0.14930294932E+04  0.17300000000E+03 0.  1.
         -6    1    1    2    0  503  0.25259494017E+02  0.13820249796E+03  0.87793509523E+03  0.90577977672E+03  0.17300000000E+03 0. -1.
<mgrwt>
<rscale>  2 0.22286088E+03</rscale>
<asrwt>0</asrwt>
<pdfrwt beam="1">  1       21 0.36561882E+00 0.22286088E+03</pdfrwt>
<pdfrwt beam="2">  1       21 0.34285656E-02 0.22286088E+03</pdfrwt>
<totfact> 0.69066699E+03</totfact>
</mgrwt>
</event>
<event>
 4    1  0.4374784E+000  0.1817609E+03  0.7546771E-02  0.1166110E+00
         21   -1    0    0  501  502  0.00000000000E+00  0.00000000000E+00  0.15021112479E+03  0.15021112479E+03  0.00000000000E+00 0.  1.
         21   -1    0    0  502  503 -0.00000000000E+00 -0.00000000000E+00 -0.39834812082E+03  0.39834812082E+03  0.00000000000E+00 0.  1.
          6    1    1    2  501    0 -0.39737226506E+02  0.39102226351E+02  0.59489256437E+02  0.19124853701E+03  0.17300000000E+03 0.  1.
         -6    1    1    2    0  503  0.39737226506E+02 -0.39102226351E+02 -0.30762625247E+03  0.35731070861E+03  0.17300000000E+03 0.  1.
<mgrwt>
<rscale>  2 0.18176092E+03</rscale>
<asrwt>0</asrwt>
<pdfrwt beam="1">  1       21 0.23109404E-01 0.18176092E+03</pdfrwt>
<pdfrwt beam="2">  1       21 0.61284326E-01 0.18176092E+03</pdfrwt>
<totfact> 0.43782075E+04</totfact>
</mgrwt>
</event>
<event>
 4    1  0.4374784E+000  0.1741676E+03  0.7546771E-02  0.1173570E+00
         21   -1    0    0  501  502  0.00000000000E+00  0.00000000000E+00  0.88091177869E+02  0.88091177869E+02  0.00000000000E+00 0. -1.
         21   -1    0    0  502  503 -0.00000000000E+00 -0.00000000000E+00 -0.38911219417E+03  0.38911219417E+03  0.00000000000E+00 0. -1.
          6    1    1    2  501    0  0.15777326901E+02  0.12507478502E+02 -0.69585501933E+02  0.18755400060E+03  0.17300000000E+03 0. -1.
         -6    1    1    2    0  503 -0.15777326901E+02 -0.12507478502E+02 -0.23143551437E+03  0.28964937143E+03  0.17300000000E+03 0. -1.
<mgrwt>
<rscale>  2 0.17416762E+03</rscale>
<asrwt>0</asrwt>
<pdfrwt beam="1">  1       21 0.13552489E-01 0.17416762E+03</pdfrwt>
<pdfrwt beam="2">  1       21 0.59863414E-01 0.17416762E+03</pdfrwt>
<totfact> 0.12360545E+05</totfact>
</mgrwt>
</event>
<event>
 4    1  0.4374784E+000  0.1993735E+03  0.7546771E-02  0.1150269E+00
         21   -1    0    0  503  502  0.00000000000E+00  0.00000000000E+00  0.52486647330E+02  0.52486647330E+02  0.00000000000E+00 0.  1.
         21   -1    0    0  501  503 -0.00000000000E+00 -0.00000000000E+00 -0.80836847381E+03  0.80836847381E+03  0.00000000000E+00 0.  1.
          6    1    1    2  501    0 -0.80505659972E+02  0.57789560457E+02 -0.48609366740E+03  0.52539208985E+03  0.17300000000E+03 0.  1.
         -6    1    1    2    0  502  0.80505659972E+02 -0.57789560457E+02 -0.26978815908E+03  0.33546303129E+03  0.17300000000E+03 0.  1.
<mgrwt>
<rscale>  2 0.19937351E+03</rscale>
<asrwt>0</asrwt>
<pdfrwt beam="1">  1       21 0.80748689E-02 0.19937351E+03</pdfrwt>
<pdfrwt beam="2">  1       21 0.12436438E+00 0.19937351E+03</pdfrwt>
<totfact> 0.56846010E+04</totfact>
</mgrwt>
</event>
<event>
 4    1  0.4374784E+000  0.1793801E+03  0.7546771E-02  0.1168404E+00
         21   -1    0    0  501  502  0.00000000000E+00  0.00000000000E+00  0.48981284758E+02  0.48981284758E+02  0.00000000000E+00 0. -1.
         21   -1    0    0  502  503 -0.00000000000E+00 -0.00000000000E+00 -0.70443119289E+03  0.70443119289E+03  0.00000000000E+00 0. -1.
          6    1    1    2  501    0 -0.33515626076E+02  0.33539643529E+02 -0.22990164204E+03  0.29160241750E+03  0.17300000000E+03 0. -1.
         -6    1    1    2    0  503  0.33515626076E+02 -0.33539643529E+02 -0.42554826609E+03  0.46181006014E+03  0.17300000000E+03 0. -1.
<mgrwt>
<rscale>  2 0.17938006E+03</rscale>
<asrwt>0</asrwt>
<pdfrwt beam="1">  1       21 0.75355823E-02 0.17938006E+03</pdfrwt>
<pdfrwt beam="2">  1       21 0.10837403E+00 0.17938006E+03</pdfrwt>
<totfact> 0.90663309E+04</totfact>
</mgrwt>
</event>
<event>
 4    1  0.4374784E+000  0.1781472E+03  0.7546771E-02  0.1169608E+00
         21   -1    0    0  503  502  0.00000000000E+00  0.00000000000E+00  0.28187841248E+02  0.28187841248E+02  0.00000000000E+00 0.  1.
         21   -1    0    0  501  503 -0.00000000000E+00 -0.00000000000E+00 -0.31208583891E+04  0.31208583891E+04  0.00000000000E+00 0. -1.
          6    1    1    2  501    0 -0.42184310973E+02  0.52842561202E+01 -0.28052024200E+04  0.28108534392E+04  0.17300000000E+03 0. -1.
         -6    1    1    2    0  502  0.42184310973E+02 -0.52842561202E+01 -0.28746812782E+03  0.33819279112E+03  0.17300000000E+03 0.  1.
<mgrwt>
<rscale>  2 0.17814724E+03</rscale>
<asrwt>0</asrwt>
<pdfrwt beam="1">  1       21 0.43365927E-02 0.17814724E+03</pdfrwt>
<pdfrwt beam="2">  1       21 0.48013187E+00 0.17814724E+03</pdfrwt>
<totfact> 0.91314740E+02</totfact>
</mgrwt>
</event>
<event>
 4    1  0.4374784E+000  0.1814280E+03  0.7546771E-02  0.1166428E+00
         21   -1    0    0  503  502  0.00000000000E+00  0.00000000000E+00  0.39786704964E+02  0.39786704964E+02  0.00000000000E+00 0. -1.
         21   -1    0    0  501  503 -0.00000000000E+00 -0.00000000000E+00 -0.13960643898E+04  0.13960643898E+04  0.00000000000E+00 0. -1.
          6    1    1    2  501    0  0.18991768469E+02  0.51248779756E+02 -0.21990487276E+03  0.28508643910E+03  0.17300000000E+03 0. -1.
         -6    1    1    2    0  502 -0.18991768469E+02 -0.51248779756E+02 -0.11363728121E+04  0.11507646557E+04  0.17300000000E+03 0. -1.
<mgrwt>
<rscale>  2 0.18142802E+03</rscale>
<asrwt>0</asrwt>
<pdfrwt beam="1">  1       21 0.61210326E-02 0.18142802E+03</pdfrwt>
<pdfrwt beam="2">  1       21 0.21477910E+00 0.18142802E+03</pdfrwt>
<totfact> 0.20830692E+04</totfact>
</mgrwt>
</event>
<event>
 4    1  0.4374784E+000  0.2511681E+03  0.7546771E-02  0.1112569E+00
         21   -1    0    0  503  502  0.00000000000E+00  0.00000000000E+00  0.20552560069E+03  0.20552560069E+03  0.00000000000E+00 0.  1.
         21   -1    0    0  501  503 -0.00000000000E+00 -0.00000000000E+00 -0.36655399942E+03  0.36655399942E+03  0.00000000000E+00 0. -1.
          6    1    1    2  501    0 -0.87285905524E+02 -0.15980479753E+03 -0.19586145019E+03  0.31850762987E+03  0.17300000000E+03 0. -1.
         -6    1    1    2    0  502  0.87285905524E+02  0.15980479753E+03  0.34833051459E+02  0.25357197024E+03  0.17300000000E+03 0.  1.
<mgrwt>
<rscale>  2 0.25116808E+03</rscale>
<asrwt>0</asrwt>
<pdfrwt beam="1">  1       21 0.31619323E-01 0.25116808E+03</pdfrwt>
<pdfrwt beam="2">  1       21 0.56392923E-01 0.25116808E+03</pdfrwt>
<totfact> 0.27608777E+04</totfact>
</mgrwt>
</event>
<event>
 4    1  0.4374784E+000  0.2545462E+03  0.7546771E-02  0.1110465E+00
         21   -1    0    0  501  502  0.00000000000E+00  0.00000000000E+00  0.18934018002E+03  0.18934018002E+03  0.00000000000E+00 0.  1.
         21   -1    0    0  502  503 -0.00000000000E+00 -0.00000000000E+00 -0.34236808280E+03  0.34236808280E+03  0.00000000000E+00 0. -1.
          6    1    1    2  501    0  0.18306279572E+03  0.36780507173E+02 -0.70771764033E+02  0.26420150543E+03  0.17300000000E+03 0.  1.
         -6    1    1    2    0  503 -0.18306279572E+03 -0.36780507173E+02 -0.82256138749E+02  0.26750675739E+03  0.17300000000E+03 0.  1.
<mgrwt>
<rscale>  2 0.25454625E+03</rscale>
<asrwt>0</asrwt>
<pdfrwt beam="1">  1       21 0.29129259E-01 0.25454625E+03</pdfrwt>
<pdfrwt beam="2">  1       21 0.52672012E-01 0.25454625E+03</pdfrwt>
<totfact> 0.37449469E+04</totfact>
</mgrwt>
</event>
<event>
 4    1  0.4374784E+000  0.2296745E+03  0.7546771E-02  0.1126869E+00
         21   -1    0    0  501  502  0.00000000000E+00  0.00000000000E+00  0.17501378539E+03  0.17501378539E+03  0.00000000000E+00 0. -1.
         21   -1    0    0  502  503 -0.00000000000E+00 -0.00000000000E+00 -0.52569346817E+03  0.52569346817E+03  0.00000000000E+00 0.  1.
          6    1    1    2  501    0  0.13443802638E+03 -0.68904140429E+02  0.53505436053E+02  0.23582450083E+03  0.17300000000E+03 0. -1.
         -6    1    1    2    0  503 -0.13443802638E+03  0.68904140429E+02 -0.40418511883E+03  0.46488275273E+03  0.17300000000E+03 0.  1.
<mgrwt>
<rscale>  2 0.22967447E+03</rscale>
<asrwt>0</asrwt>
<pdfrwt beam="1">  1       21 0.26925198E-01 0.22967447E+03</pdfrwt>
<pdfrwt beam="2">  1       21 0.80875918E-01 0.22967447E+03</pdfrwt>
<totfact> 0.17246660E+04</totfact>
</mgrwt>
</event>
<event>
 4    1  0.4374784E+000  0.1813364E+03  0.7546771E-02  0.1166516E+00
         21   -1    0    0  503  502  0.00000000000E+00  0.00000000000E+00  0.31021611761E+03  0.31021611761E+03  0.00000000000E+00 0.  1.
         21   -1    0    0  501  503 -0.00000000000E+00 -0.00000000000E+00 -0.12034433972E+03  0.12034433972E+03  0.00000000000E+00 0. -1.
          6    1    1    2  501    0  0.22806559446E+02  0.49333163280E+02  0.20611388553E+02  0.18250405336E+03  0.17300000000E+03 0.  1.
         -6    1    1    2    0  502 -0.22806559446E+02 -0.49333163280E+02  0.16926038934E+03  0.24805640397E+03  0.17300000000E+03 0.  1.
<mgrwt>
<rscale>  2 0.18133643E+03</rscale>
<asrwt>0</asrwt>
<pdfrwt beam="1">  1       21 0.47725556E-01 0.18133643E+03</pdfrwt>
<pdfrwt beam="2">  1       21 0.18514514E-01 0.18133643E+03</pdfrwt>
<totfact> 0.11231562E+05</totfact>
</mgrwt>
</event>
<event>
 4    1  0.4374784E+000  0.1789745E+03  0.7546771E-02  0.1168799E+00
         21   -1    0    0  501  502  0.00000000000E+00  0.00000000000E+00  0.37018485391E+03  0.37018485391E+03  0.00000000000E+00 0.  1.
         21   -1    0    0  502  503 -0.00000000000E+00 -0.00000000000E+00 -0.10812529295E+03  0.10812529295E+03  0.00000000000E+00 0.  1.
          6    1    1    2  501    0 -0.19452607081E+02 -0.41526919965E+02  0.23791092758E+03  0.29771378615E+03  0.17300000000E+03 0. -1.
         -6    1    1    2    0  503  0.19452607081E+02  0.41526919965E+02  0.24148633383E+02  0.18059636070E+03  0.17300000000E+03 0. -1.
<mgrwt>
<rscale>  2 0.17897455E+03</rscale>
<asrwt>0</asrwt>
<pdfrwt beam="1">  1       21 0.56951515E-01 0.17897455E+03</pdfrwt>
<pdfrwt beam="2">  1       21 0.16634661E-01 0.17897455E+03</pdfrwt>
<totfact> 0.94555181E+04</totfact>
</mgrwt>
</event>
<event>
 4    1  0.4374784E+000  0.2143455E+03  0.7546771E-02  0.1138170E+00
         21   -1    0    0  503  502  0.00000000000E+00  0.00000000000E+00  0.87562597853E+03  0.87562597853E+03  0.00000000000E+00 0.  1.
         21   -1    0    0  501  503 -0.00000000000E+00 -0.00000000000E+00 -0.67169511656E+02  0.67169511656E+02  0.00000000000E+00 0.  1.
          6    1    1    2  501    0 -0.10787337117E+03  0.66168927883E+02  0.18370486827E+03  0.28229677620E+03  0.17300000000E+03 0.  1.
         -6    1    1    2    0  502  0.10787337117E+03 -0.66168927883E+02  0.62475159860E+03  0.66049871399E+03  0.17300000000E+03 0.  1.
<mgrwt>
<rscale>  2 0.21434549E+03</rscale>
<asrwt>0</asrwt>
<pdfrwt beam="1">  1       21 0.13471168E+00 0.21434549E+03</pdfrwt>
<pdfrwt beam="2">  1       21 0.10333772E-01 0.21434549E+03</pdfrwt>
<totfact> 0.29854222E+04</totfact>
</mgrwt>
</event>
<event>
 4    1  0.4374784E+000  0.2742267E+03  0.7546771E-02  0.1098885E+00
         21   -1    0    0  501  502  0.00000000000E+00  0.00000000000E+00  0.16383128406E+04  0.16383128406E+04  0.00000000000E+00 0.  1.
         21   -1    0    0  502  503 -0.00000000000E+00 -0.00000000000E+00 -0.58630748396E+02  0.58630748396E+02  0.00000000000E+00 0.  1.
          6    1    1    2  501    0  0.11466318475E+02 -0.21246131404E+03  0.11851928065E+04  0.12165041204E+04  0.17300000000E+03 0.  1.
         -6    1    1    2    0  503 -0.11466318475E+02  0.21246131404E+03  0.39448928566E+03  0.48043946853E+03  0.17300000000E+03 0.  1.
<mgrwt>
<rscale>  2 0.27422671E+03</rscale>
<asrwt>0</asrwt>
<pdfrwt beam="1">  1       21 0.25204809E+00 0.27422671E+03</pdfrwt>
<pdfrwt beam="2">  1       21 0.90201164E-02 0.27422671E+03</pdfrwt>
<totfact> 0.58646734E+03</totfact>
</mgrwt>
</event>
<event>
 4    1  0.4374784E+000  0.2238080E+03  0.7546771E-02  0.1131075E+00
         21   -1    0    0  501  502  0.00000000000E+00  0.00000000000E+00  0.20092591208E+03  0.20092591208E+03  0.00000000000E+00 0. -1.
         21   -1    0    0  502  503 -0.00000000000E+00 -0.00000000000E+00 -0.30961088604E+03  0.30961088604E+03  0.00000000000E+00 0.  1.
          6    1    1    2  501    0 -0.11600578263E+03 -0.81875950469E+02 -0.16701070819E+03  0.27925362938E+03  0.17300000000E+03 0.  1.
         -6    1    1    2    0  503  0.11600578263E+03  0.81875950469E+02  0.58325734229E+02  0.23128316874E+03  0.17300000000E+03 0. -1.
<mgrwt>
<rscale>  2 0.22380798E+03</rscale>
<asrwt>0</asrwt>
<pdfrwt beam="1">  1       21 0.30911679E-01 0.22380798E+03</pdfrwt>
<pdfrwt beam="2">  1       21 0.47632444E-01 0.22380798E+03</pdfrwt>
<totfact> 0.41717342E+04</totfact>
</mgrwt>
</event>
<event>
 4    1  0.4374784E+000  0.2320402E+03  0.7546771E-02  0.1125212E+00
         21   -1    0    0  503  502  0.00000000000E+00  0.00000000000E+00  0.33218203279E+03  0.33218203279E+03  0.00000000000E+00 0.  1.
         21   -1    0    0  501  503 -0.00000000000E+00 -0.00000000000E+00 -0.16573559315E+03  0.16573559315E+03  0.00000000000E+00 0.  1.
          6    1    1    2  501    0  0.14865306730E+03 -0.42613420769E+02  0.46288251420E+02  0.23661200364E+03  0.17300000000E+03 0.  1.
         -6    1    1    2    0  502 -0.14865306730E+03  0.42613420769E+02  0.12015818822E+03  0.26130562230E+03  0.17300000000E+03 0.  1.
<mgrwt>
<rscale>  2 0.23204016E+03</rscale>
<asrwt>0</asrwt>
<pdfrwt beam="1">  1       21 0.51104928E-01 0.23204016E+03</pdfrwt>
<pdfrwt beam="2">  1       21 0.25497784E-01 0.23204016E+03</pdfrwt>
<totfact> 0.52151514E+04</totfact>
</mgrwt>
</event>
<event>
 4    1  0.4374784E+000  0.1972192E+03  0.7546771E-02  0.1152107E+00
         21   -1    0    0  501  502  0.00000000000E+00  0.00000000000E+00  0.75797100090E+03  0.75797100090E+03  0.00000000000E+00 0. -1.
         21   -1    0    0  502  503 -0.00000000000E+00 -0.00000000000E+00 -0.14480108207E+03  0.14480108207E+03  0.00000000000E+00 0. -1.
          6    1    1    2  501    0  0.30548767202E+02  0.89628073220E+02  0.66927470914E+03  0.69772777999E+03  0.17300000000E+03 0. -1.
         -6    1    1    2    0  503 -0.30548767202E+02 -0.89628073220E+02 -0.56104790307E+02  0.20504430297E+03  0.17300000000E+03 0. -1.
<mgrwt>
<rscale>  2 0.19721921E+03</rscale>
<asrwt>0</asrwt>
<pdfrwt beam="1">  1       21 0.11661092E+00 0.19721921E+03</pdfrwt>
<pdfrwt beam="2">  1       21 0.22277090E-01 0.19721921E+03</pdfrwt>
<totfact> 0.10648979E+04</totfact>
</mgrwt>
</event>
<event>
 4    1  0.4374784E+000  0.2709007E+03  0.7546771E-02  0.1100765E+00
         21   -1    0    0  501  502  0.00000000000E+00  0.00000000000E+00  0.17878629090E+03  0.17878629090E+03  0.00000000000E+00 0. -1.
         21   -1    0    0  502  503 -0.00000000000E+00 -0.00000000000E+00 -0.51221693091E+03  0.51221693091E+03  0.00000000000E+00 0.  1.
          6    1    1    2  501    0 -0.68787209733E+02  0.19679055342E+03 -0.12731779582E+02  0.27119974253E+03  0.17300000000E+03 0. -1.
         -6    1    1    2    0  503  0.68787209733E+02 -0.19679055342E+03 -0.32069886043E+03  0.41980347928E+03  0.17300000000E+03 0.  1.
<mgrwt>
<rscale>  2 0.27090072E+03</rscale>
<asrwt>0</asrwt>
<pdfrwt beam="1">  1       21 0.27505583E-01 0.27090072E+03</pdfrwt>
<pdfrwt beam="2">  1       21 0.78802605E-01 0.27090072E+03</pdfrwt>
<totfact> 0.17196003E+04</totfact>
</mgrwt>
</event>
<event>
 4    1  0.4374784E+000  0.2179047E+03  0.7546771E-02  0.1135455E+00
         21   -1    0    0  503  502  0.00000000000E+00  0.00000000000E+00  0.46170442089E+03  0.46170442089E+03  0.00000000000E+00 0.  1.
         21   -1    0    0  501  503 -0.00000000000E+00 -0.00000000000E+00 -0.12310727912E+03  0.12310727912E+03  0.00000000000E+00 0.  1.
          6    1    1    2  501    0  0.54092082140E+02  0.12094423153E+03  0.50660558040E+02  0.22371623238E+03  0.17300000000E+03 0.  1.
         -6    1    1    2    0  502 -0.54092082140E+02 -0.12094423153E+03  0.28793658373E+03  0.36109546762E+03  0.17300000000E+03 0.  1.
<mgrwt>
<rscale>  2 0.21790471E+03</rscale>
<asrwt>0</asrwt>
<pdfrwt beam="1">  1       21 0.71031448E-01 0.21790471E+03</pdfrwt>
<pdfrwt beam="2">  1       21 0.18939582E-01 0.21790471E+03</pdfrwt>
<totfact> 0.45267074E+04</totfact>
</mgrwt>
</event>
<event>
 4    1  0.4374784E+000  0.1918509E+03  0.7546771E-02  0.1156802E+00
         21   -1    0    0  503  502  0.00000000000E+00  0.00000000000E+00  0.56829791111E+03  0.56829791111E+03  0.00000000000E+00 0.  1.
         21   -1    0    0  501  503 -0.00000000000E+00 -0.00000000000E+00 -0.64770239582E+02  0.64770239582E+02  0.00000000000E+00 0.  1.
          6    1    1    2  501    0  0.81879130973E+02  0.13175150616E+02  0.25410591147E+03  0.31839690785E+03  0.17300000000E+03 0.  1.
         -6    1    1    2    0  502 -0.81879130973E+02 -0.13175150616E+02  0.24942176005E+03  0.31467124284E+03  0.17300000000E+03 0.  1.
<mgrwt>
<rscale>  2 0.19185092E+03</rscale>
<asrwt>0</asrwt>
<pdfrwt beam="1">  1       21 0.87430445E-01 0.19185092E+03</pdfrwt>
<pdfrwt beam="2">  1       21 0.99646526E-02 0.19185092E+03</pdfrwt>
<totfact> 0.91748760E+04</totfact>
</mgrwt>
</event>
<event>
 4    1  0.4374784E+000  0.1937282E+03  0.7546771E-02  0.1155141E+00
         21   -1    0    0  501  502  0.00000000000E+00  0.00000000000E+00  0.25216026198E+04  0.25216026198E+04  0.00000000000E+00 0. -1.
         21   -1    0    0  502  503 -0.00000000000E+00 -0.00000000000E+00 -0.20763791020E+02  0.20763791020E+02  0.00000000000E+00 0. -1.
          6    1    1    2  501    0  0.87149948016E+02 -0.25514013984E+01  0.19268902829E+04  0.19366044474E+04  0.17300000000E+03 0. -1.
         -6    1    1    2    0  503 -0.87149948016E+02  0.25514013984E+01  0.57394854581E+03  0.60576196342E+03  0.17300000000E+03 0. -1.
<mgrwt>
<rscale>  2 0.19372822E+03</rscale>
<asrwt>0</asrwt>
<pdfrwt beam="1">  1       21 0.38793862E+00 0.19372822E+03</pdfrwt>
<pdfrwt beam="2">  1       21 0.31944314E-02 0.19372822E+03</pdfrwt>
<totfact> 0.58884178E+03</totfact>
</mgrwt>
</event>
<event>
 4    1  0.4374784E+000  0.2124039E+03  0.7546771E-02  0.1139676E+00
         21   -1    0    0  503  502  0.00000000000E+00  0.00000000000E+00  0.35096442808E+03  0.35096442808E+03  0.00000000000E+00 0. -1.
         21   -1    0    0  501  503 -0.00000000000E+00 -0.00000000000E+00 -0.14735396704E+03  0.14735396704E+03  0.00000000000E+00 0.  1.
          6    1    1    2  501    0 -0.96440360443E+02 -0.76718265935E+02  0.12791905638E+02  0.21278878800E+03  0.17300000000E+03 0.  1.
         -6    1    1    2    0  502  0.96440360443E+02  0.76718265935E+02  0.19081855541E+03  0.28552960712E+03  0.17300000000E+03 0.  1.
<mgrwt>
<rscale>  2 0.21240394E+03</rscale>
<asrwt>0</asrwt>
<pdfrwt beam="1">  1       21 0.53994527E-01 0.21240394E+03</pdfrwt>
<pdfrwt beam="2">  1       21 0.22669841E-01 0.21240394E+03</pdfrwt>
<totfact> 0.58617639E+04</totfact>
</mgrwt>
</event>
<event>
 4    1  0.4374784E+000  0.1956411E+03  0.7546771E-02  0.1153470E+00
         21   -1    0    0  501  502  0.00000000000E+00  0.00000000000E+00  0.30946400531E+03  0.30946400531E+03  0.00000000000E+00 0.  1.
         21   -1    0    0  502  503 -0.00000000000E+00 -0.00000000000E+00 -0.13999962645E+03  0.13999962645E+03  0.00000000000E+00 0. -1.
          6    1    1    2  501    0 -0.15838825667E+02 -0.89975342400E+02  0.16145359718E+03  0.25365861838E+03  0.17300000000E+03 0.  1.
         -6    1    1    2    0  503  0.15838825667E+02  0.89975342400E+02  0.80107816861E+01  0.19580501337E+03  0.17300000000E+03 0. -1.
<mgrwt>
<rscale>  2 0.19564108E+03</rscale>
<asrwt>0</asrwt>
<pdfrwt beam="1">  1       21 0.47609847E-01 0.19564108E+03</pdfrwt>
<pdfrwt beam="2">  1       21 0.21538404E-01 0.19564108E+03</pdfrwt>
<totfact> 0.84645774E+04</totfact>
</mgrwt>
</event>
<event>
 4    1  0.4374784E+000  0.2077638E+03  0.7546771E-02  0.1143349E+00
         21   -1    0    0  503  502  0.00000000000E+00  0.00000000000E+00  0.50657106294E+02  0.50657106294E+02  0.00000000000E+00 0.  1.
         21   -1    0    0  501  503 -0.00000000000E+00 -0.00000000000E+00 -0.14902482250E+04  0.14902482250E+04  0.00000000000E+00 0. -1.
          6    1    1    2  501    0  0.29938005728E+01 -0.11501232720E+03 -0.12239592216E+04  0.12414676695E+04  0.17300000000E+03 0. -1.
         -6    1    1    2    0  502 -0.29938005728E+01  0.11501232720E+03 -0.21563189706E+03  0.29943766176E+03  0.17300000000E+03 0.  1.
<mgrwt>
<rscale>  2 0.20776380E+03</rscale>
<asrwt>0</asrwt>
<pdfrwt beam="1">  1       21 0.77934006E-02 0.20776380E+03</pdfrwt>
<pdfrwt beam="2">  1       21 0.22926897E+00 0.20776380E+03</pdfrwt>
<totfact> 0.10949513E+04</totfact>
</mgrwt>
</event>
<event>
 4    1  0.4374784E+000  0.1952590E+03  0.7546771E-02  0.1153802E+00
         21   -1    0    0  501  502  0.00000000000E+00  0.00000000000E+00  0.16496371369E+03  0.16496371369E+03  0.00000000000E+00 0. -1.
         21   -1    0    0  502  503 -0.00000000000E+00 -0.00000000000E+00 -0.27506461494E+03  0.27506461494E+03  0.00000000000E+00 0.  1.
          6    1    1    2  501    0  0.18658263545E+02 -0.88594345330E+02  0.32891447638E+02  0.19800993952E+03  0.17300000000E+03 0. -1.
         -6    1    1    2    0  503 -0.18658263545E+02  0.88594345330E+02 -0.14299234889E+03  0.24201838910E+03  0.17300000000E+03 0.  1.
<mgrwt>
<rscale>  2 0.19525903E+03</rscale>
<asrwt>0</asrwt>
<pdfrwt beam="1">  1       21 0.25379033E-01 0.19525903E+03</pdfrwt>
<pdfrwt beam="2">  1       21 0.42317633E-01 0.19525903E+03</pdfrwt>
<totfact> 0.78994748E+04</totfact>
</mgrwt>
</event>
<event>
 4    1  0.4374784E+000  0.2176963E+03  0.7546771E-02  0.1135612E+00
         21   -1    0    0  501  502  0.00000000000E+00  0.00000000000E+00  0.16327759310E+03  0.16327759310E+03  0.00000000000E+00 0.  1.
         21   -1    0    0  502  503 -0.00000000000E+00 -0.00000000000E+00 -0.77755771546E+03  0.77755771546E+03  0.00000000000E+00 0.  1.
          6    1    1    2  501    0 -0.10730975093E+03 -0.77118578394E+02  0.65267097046E+02  0.22726955743E+03  0.17300000000E+03 0.  1.
         -6    1    1    2    0  503  0.10730975093E+03  0.77118578394E+02 -0.67954721941E+03  0.71356575113E+03  0.17300000000E+03 0.  1.
<mgrwt>
<rscale>  2 0.21769625E+03</rscale>
<asrwt>0</asrwt>
<pdfrwt beam="1">  1       21 0.25119630E-01 0.21769625E+03</pdfrwt>
<pdfrwt beam="2">  1       21 0.11962426E+00 0.21769625E+03</pdfrwt>
<totfact> 0.78437568E+03</totfact>
</mgrwt>
</event>
<event>
 4    1  0.4374784E+000  0.1840155E+03  0.7546771E-02  0.1163972E+00
         21   -1    0    0  503  502  0.00000000000E+00  0.00000000000E+00  0.62453759736E+03  0.62453759736E+03  0.00000000000E+00 0.  1.
         21   -1    0    0  501  503 -0.00000000000E+00 -0.00000000000E+00 -0.85526614294E+02  0.85526614294E+02  0.00000000000E+00 0.  1.
          6    1    1    2  501    0 -0.56699623223E+02  0.26792605735E+02  0.54701063091E+02  0.19197368908E+03  0.17300000000E+03 0.  1.
         -6    1    1    2    0  502  0.56699623223E+02 -0.26792605735E+02  0.48430991997E+03  0.51809052257E+03  0.17300000000E+03 0.  1.
<mgrwt>
<rscale>  2 0.18401546E+03</rscale>
<asrwt>0</asrwt>
<pdfrwt beam="1">  1       21 0.96082704E-01 0.18401546E+03</pdfrwt>
<pdfrwt beam="2">  1       21 0.13157941E-01 0.18401546E+03</pdfrwt>
<totfact> 0.45062749E+04</totfact>
</mgrwt>
</event>
<event>
 4    1  0.4374784E+000  0.2782901E+03  0.7546771E-02  0.1096627E+00
         21   -1    0    0  501  502  0.00000000000E+00  0.00000000000E+00  0.17185655944E+03  0.17185655944E+03  0.00000000000E+00 0. -1.
         21   -1    0    0  502  503 -0.00000000000E+00 -0.00000000000E+00 -0.46433679858E+03  0.46433679858E+03  0.00000000000E+00 0. -1.
          6    1    1    2  501    0  0.15248952063E+02 -0.21744851318E+03 -0.20087337200E+03  0.34321348750E+03  0.17300000000E+03 0. -1.
         -6    1    1    2    0  503 -0.15248952063E+02  0.21744851318E+03 -0.91606867143E+02  0.29297987052E+03  0.17300000000E+03 0. -1.
<mgrwt>
<rscale>  2 0.27829011E+03</rscale>
<asrwt>0</asrwt>
<pdfrwt beam="1">  1       21 0.26439471E-01 0.27829011E+03</pdfrwt>
<pdfrwt beam="2">  1       21 0.71436430E-01 0.27829011E+03</pdfrwt>
<totfact> 0.23088428E+04</totfact>
</mgrwt>
</event>
<event>
 4    1  0.4374784E+000  0.1950831E+03  0.7546771E-02  0.1153955E+00
         21   -1    0    0  501  502  0.00000000000E+00  0.00000000000E+00  0.18607310621E+03  0.18607310621E+03  0.00000000000E+00 0. -1.
         21   -1    0    0  502  503 -0.00000000000E+00 -0.00000000000E+00 -0.37606523253E+03  0.37606523253E+03  0.00000000000E+00 0. -1.
          6    1    1    2  501    0 -0.66478344994E+01  0.89912381218E+02  0.94831373167E+02  0.21691108625E+03  0.17300000000E+03 0. -1.
         -6    1    1    2    0  503  0.66478344994E+01 -0.89912381218E+02 -0.28482349949E+03  0.34522725249E+03  0.17300000000E+03 0. -1.
<mgrwt>
<rscale>  2 0.19508314E+03</rscale>
<asrwt>0</asrwt>
<pdfrwt beam="1">  1       21 0.28626632E-01 0.19508314E+03</pdfrwt>
<pdfrwt beam="2">  1       21 0.57856189E-01 0.19508314E+03</pdfrwt>
<totfact> 0.32653946E+04</totfact>
</mgrwt>
</event>
<event>
 4    1  0.4374784E+000  0.2234075E+03  0.7546771E-02  0.1131368E+00
         21   -1    0    0  503  502  0.00000000000E+00  0.00000000000E+00  0.29889766935E+03  0.29889766935E+03  0.00000000000E+00 0. -1.
         21   -1    0    0  501  503 -0.00000000000E+00 -0.00000000000E+00 -0.25644274778E+03  0.25644274778E+03  0.00000000000E+00 0. -1.
          6    1    1    2  501    0 -0.17382518031E+02  0.14028449804E+03 -0.14277388064E+03  0.26513255801E+03  0.17300000000E+03 0. -1.
         -6    1    1    2    0  502  0.17382518031E+02 -0.14028449804E+03  0.18522880221E+03  0.29020785912E+03  0.17300000000E+03 0. -1.
<mgrwt>
<rscale>  2 0.22340746E+03</rscale>
<asrwt>0</asrwt>
<pdfrwt beam="1">  1       21 0.45984257E-01 0.22340746E+03</pdfrwt>
<pdfrwt beam="2">  1       21 0.39452730E-01 0.22340746E+03</pdfrwt>
<totfact> 0.27608849E+04</totfact>
</mgrwt>
</event>
<event>
 4    1  0.4374784E+000  0.1766589E+03  0.7546771E-02  0.1171076E+00
         21   -1    0    0  503  502  0.00000000000E+00  0.00000000000E+00  0.42587051928E+03  0.42587051928E+03  0.00000000000E+00 0. -1.
         21   -1    0    0  501  503 -0.00000000000E+00 -0.00000000000E+00 -0.92938983314E+02  0.92938983314E+02  0.00000000000E+00 0. -1.
          6    1    1    2  501    0 -0.26153071430E+02 -0.24400294810E+02  0.47164566565E+02  0.18284653093E+03  0.17300000000E+03 0. -1.
         -6    1    1    2    0  502  0.26153071430E+02  0.24400294810E+02  0.28576696940E+03  0.33596297167E+03  0.17300000000E+03 0. -1.
<mgrwt>
<rscale>  2 0.17665887E+03</rscale>
<asrwt>0</asrwt>
<pdfrwt beam="1">  1       21 0.65518540E-01 0.17665887E+03</pdfrwt>
<pdfrwt beam="2">  1       21 0.14298305E-01 0.17665887E+03</pdfrwt>
<totfact> 0.92261781E+04</totfact>
</mgrwt>
</event>
<event>
 4    1  0.4374784E+000  0.2036637E+03  0.7546771E-02  0.1146684E+00
         21   -1    0    0  503  502  0.00000000000E+00  0.00000000000E+00  0.13368466022E+03  0.13368466022E+03  0.00000000000E+00 0. -1.
         21   -1    0    0  501  503 -0.00000000000E+00 -0.00000000000E+00 -0.32339249169E+03  0.32339249169E+03  0.00000000000E+00 0. -1.
          6    1    1    2  501    0  0.10230508060E+03 -0.32917460530E+02 -0.14088325200E+03  0.24764284649E+03  0.17300000000E+03 0. -1.
         -6    1    1    2    0  502 -0.10230508060E+03  0.32917460530E+02 -0.48824579476E+02  0.20943430542E+03  0.17300000000E+03 0. -1.
<mgrwt>
<rscale>  2 0.20366367E+03</rscale>
<asrwt>0</asrwt>
<pdfrwt beam="1">  1       21 0.20566871E-01 0.20366367E+03</pdfrwt>
<pdfrwt beam="2">  1       21 0.49752690E-01 0.20366367E+03</pdfrwt>
<totfact> 0.83948824E+04</totfact>
</mgrwt>
</event>
<event>
 4    1  0.4374784E+000  0.2037572E+03  0.7546771E-02  0.1146607E+00
         21   -1    0    0  503  502  0.00000000000E+00  0.00000000000E+00  0.23164011354E+03  0.23164011354E+03  0.00000000000E+00 0.  1.
         21   -1    0    0  501  503 -0.00000000000E+00 -0.00000000000E+00 -0.29170123302E+03  0.29170123302E+03  0.00000000000E+00 0. -1.
          6    1    1    2  501    0  0.10526141623E+03 -0.22539277125E+02 -0.19251268362E+03  0.28031788761E+03  0.17300000000E+03 0. -1.
         -6    1    1    2    0  502 -0.10526141623E+03  0.22539277125E+02  0.13245156414E+03  0.24302345895E+03  0.17300000000E+03 0.  1.
<mgrwt>
<rscale>  2 0.20375717E+03</rscale>
<asrwt>0</asrwt>
<pdfrwt beam="1">  1       21 0.35636941E-01 0.20375717E+03</pdfrwt>
<pdfrwt beam="2">  1       21 0.44877113E-01 0.20375717E+03</pdfrwt>
<totfact> 0.35968725E+04</totfact>
</mgrwt>
</event>
<event>
 4    1  0.4374784E+000  0.1899117E+03  0.7546771E-02  0.1158541E+00
         21   -1    0    0  501  502  0.00000000000E+00  0.00000000000E+00  0.85523772352E+02  0.85523772352E+02  0.00000000000E+00 0. -1.
         21   -1    0    0  502  503 -0.00000000000E+00 -0.00000000000E+00 -0.52855817669E+03  0.52855817669E+03  0.00000000000E+00 0. -1.
          6    1    1    2  501    0  0.90737189061E+01  0.77814669194E+02 -0.83469828976E+02  0.20744557712E+03  0.17300000000E+03 0. -1.
         -6    1    1    2    0  503 -0.90737189061E+01 -0.77814669194E+02 -0.35956457537E+03  0.40663637193E+03  0.17300000000E+03 0. -1.
<mgrwt>
<rscale>  2 0.18991170E+03</rscale>
<asrwt>0</asrwt>
<pdfrwt beam="1">  1       21 0.13157503E-01 0.18991170E+03</pdfrwt>
<pdfrwt beam="2">  1       21 0.81316642E-01 0.18991170E+03</pdfrwt>
<totfact> 0.66010565E+04</totfact>
</mgrwt>
</event>
<event>
 4    1  0.4374784E+000  0.2775148E+03  0.7546771E-02  0.1097054E+00
         21   -1    0    0  501  502  0.00000000000E+00  0.00000000000E+00  0.12079711779E+04  0.12079711779E+04  0.00000000000E+00 0. -1.
         21   -1    0    0  502  503 -0.00000000000E+00 -0.00000000000E+00 -0.70473055078E+02  0.70473055078E+02  0.00000000000E+00 0. -1.
          6    1    1    2  501    0  0.59600625006E+02  0.20864620059E+03  0.76610710134E+03  0.81482179785E+03  0.17300000000E+03 0. -1.
         -6    1    1    2    0  503 -0.59600625006E+02 -0.20864620059E+03  0.37139102150E+03  0.46362243515E+03  0.17300000000E+03 0. -1.
<mgrwt>
<rscale>  2 0.27751481E+03</rscale>
<asrwt>0</asrwt>
<pdfrwt beam="1">  1       21 0.18584170E+00 0.27751481E+03</pdfrwt>
<pdfrwt beam="2">  1       21 0.10842009E-01 0.27751481E+03</pdfrwt>
<totfact> 0.11027535E+04</totfact>
</mgrwt>
</event>
<event>
 4    1  0.4374784E+000  0.2001187E+03  0.7546771E-02  0.1149639E+00
         21   -1    0    0  501  502  0.00000000000E+00  0.00000000000E+00  0.11304573000E+03  0.11304573000E+03  0.00000000000E+00 0.  1.
         21   -1    0    0  502  503 -0.00000000000E+00 -0.00000000000E+00 -0.40374324453E+03  0.40374324453E+03  0.00000000000E+00 0. -1.
          6    1    1    2  501    0 -0.10046495901E+03 -0.50279514184E+01 -0.54887365371E+02  0.20750930379E+03  0.17300000000E+03 0.  1.
         -6    1    1    2    0  503  0.10046495901E+03  0.50279514184E+01 -0.23581014916E+03  0.30927967074E+03  0.17300000000E+03 0. -1.
<mgrwt>
<rscale>  2 0.20011869E+03</rscale>
<asrwt>0</asrwt>
<pdfrwt beam="1">  1       21 0.17391651E-01 0.20011869E+03</pdfrwt>
<pdfrwt beam="2">  1       21 0.62114346E-01 0.20011869E+03</pdfrwt>
<totfact> 0.71705460E+04</totfact>
</mgrwt>
</event>
<event>
 4    1  0.4374784E+000  0.2227788E+03  0.7546771E-02  0.1131828E+00
         21   -1    0    0  501  502  0.00000000000E+00  0.00000000000E+00  0.28018570192E+03  0.28018570192E+03  0.00000000000E+00 0.  1.
         21   -1    0    0  502  503 -0.00000000000E+00 -0.00000000000E+00 -0.42885823951E+03  0.42885823951E+03  0.00000000000E+00 0.  1.
          6    1    1    2  501    0  0.14032654079E+03  0.31360153142E+01  0.19727571155E+03  0.29757029255E+03  0.17300000000E+03 0.  1.
         -6    1    1    2    0  503 -0.14032654079E+03 -0.31360153142E+01 -0.34594824914E+03  0.41147364888E+03  0.17300000000E+03 0.  1.
<mgrwt>
<rscale>  2 0.22277875E+03</rscale>
<asrwt>0</asrwt>
<pdfrwt beam="1">  1       21 0.43105493E-01 0.22277875E+03</pdfrwt>
<pdfrwt beam="2">  1       21 0.65978190E-01 0.22277875E+03</pdfrwt>
<totfact> 0.10703977E+04</totfact>
</mgrwt>
</event>
<event>
 4    1  0.4374784E+000  0.1806417E+03  0.7546771E-02  0.1167183E+00
         21   -1    0    0  501  502  0.00000000000E+00  0.00000000000E+00  0.51839161274E+02  0.51839161274E+02  0.00000000000E+00 0.  1.
         21   -1    0    0  502  503 -0.00000000000E+00 -0.00000000000E+00 -0.64856961019E+03  0.64856961019E+03  0.00000000000E+00 0.  1.
          6    1    1    2  501    0  0.29090382078E+02 -0.43083138470E+02 -0.23827422782E+03  0.29900838582E+03  0.17300000000E+03 0.  1.
         -6    1    1    2    0  503 -0.29090382078E+02  0.43083138470E+02 -0.35845622110E+03  0.40140038564E+03  0.17300000000E+03 0.  1.
<mgrwt>
<rscale>  2 0.18064165E+03</rscale>
<asrwt>0</asrwt>
<pdfrwt beam="1">  1       21 0.79752553E-02 0.18064165E+03</pdfrwt>
<pdfrwt beam="2">  1       21 0.99779944E-01 0.18064165E+03</pdfrwt>
<totfact> 0.10006121E+05</totfact>
</mgrwt>
</event>
<event>
 4    1  0.4374784E+000  0.1897209E+03  0.7546771E-02  0.1158713E+00
         21   -1    0    0  501  502  0.00000000000E+00  0.00000000000E+00  0.24008441797E+03  0.24008441797E+03  0.00000000000E+00 0.  1.
         21   -1    0    0  502  503 -0.00000000000E+00 -0.00000000000E+00 -0.14052467176E+04  0.14052467176E+04  0.00000000000E+00 0.  1.
          6    1    1    2  501    0  0.29993263065E+02  0.71870910072E+02  0.19496291008E+03  0.27203779122E+03  0.17300000000E+03 0.  1.
         -6    1    1    2    0  503 -0.29993263065E+02 -0.71870910072E+02 -0.13601252098E+04  0.13732933444E+04  0.17300000000E+03 0.  1.
<mgrwt>
<rscale>  2 0.18972091E+03</rscale>
<asrwt>0</asrwt>
<pdfrwt beam="1">  1       21 0.36936064E-01 0.18972091E+03</pdfrwt>
<pdfrwt beam="2">  1       21 0.21619181E+00 0.18972091E+03</pdfrwt>
<totfact> 0.75331181E+02</totfact>
</mgrwt>
</event>
<event>
 4    1  0.4374784E+000  0.1842386E+03  0.7546771E-02  0.1163763E+00
         21   -1    0    0  503  502  0.00000000000E+00  0.00000000000E+00  0.56915688470E+03  0.56915688470E+03  0.00000000000E+00 0. -1.
         21   -1    0    0  501  503 -0.00000000000E+00 -0.00000000000E+00 -0.60622666821E+02  0.60622666821E+02  0.00000000000E+00 0. -1.
          6    1    1    2  501    0  0.72598521275E+01 -0.62945724099E+02  0.21415317728E+03  0.28249858933E+03  0.17300000000E+03 0. -1.
         -6    1    1    2    0  502 -0.72598521275E+01  0.62945724099E+02  0.29438104060E+03  0.34728096219E+03  0.17300000000E+03 0. -1.
<mgrwt>
<rscale>  2 0.18423862E+03</rscale>
<asrwt>0</asrwt>
<pdfrwt beam="1">  1       21 0.87562594E-01 0.18423862E+03</pdfrwt>
<pdfrwt beam="2">  1       21 0.93265645E-02 0.18423862E+03</pdfrwt>
<totfact> 0.10304326E+05</totfact>
</mgrwt>
</event>
<event>
 4    1  0.4374784E+000  0.1758110E+03  0.7546771E-02  0.1171920E+00
         21   -1    0    0  501  502  0.00000000000E+00  0.00000000000E+00  0.12382539483E+04  0.12382539483E+04  0.00000000000E+00 0. -1.
         21   -1    0    0  502  503 -0.00000000000E+00 -0.00000000000E+00 -0.44865365244E+02  0.44865365244E+02  0.00000000000E+00 0. -1.
          6    1    1    2  501    0 -0.28349500274E+02 -0.13296981085E+02  0.10240040974E+04  0.10389869563E+04  0.17300000000E+03 0. -1.
         -6    1    1    2    0  503  0.28349500274E+02  0.13296981085E+02  0.16938448565E+03  0.24413235724E+03  0.17300000000E+03 0. -1.
<mgrwt>
<rscale>  2 0.17581099E+03</rscale>
<asrwt>0</asrwt>
<pdfrwt beam="1">  1       21 0.19050058E+00 0.17581099E+03</pdfrwt>
<pdfrwt beam="2">  1       21 0.69023648E-02 0.17581099E+03</pdfrwt>
<totfact> 0.24287820E+04</totfact>
</mgrwt>
</event>
<event>
 4    1  0.4374784E+000  0.2023867E+03  0.7546771E-02  0.1147741E+00
         21   -1    0    0  503  502  0.00000000000E+00  0.00000000000E+00  0.14819607660E+03  0.14819607660E+03  0.00000000000E+00 0. -1.
         21   -1    0    0  501  503 -0.00000000000E+00 -0.00000000000E+00 -0.28066333788E+03  0.28066333788E+03  0.00000000000E+00 0. -1.
          6    1    1    2  501    0 -0.68355310943E+02  0.79742806831E+02 -0.39783896221E+02  0.20625984140E+03  0.17300000000E+03 0. -1.
         -6    1    1    2    0  502  0.68355310943E+02 -0.79742806831E+02 -0.92683365063E+02  0.22259957308E+03  0.17300000000E+03 0. -1.
<mgrwt>
<rscale>  2 0.20238667E+03</rscale>
<asrwt>0</asrwt>
<pdfrwt beam="1">  1       21 0.22799397E-01 0.20238667E+03</pdfrwt>
<pdfrwt beam="2">  1       21 0.43178975E-01 0.20238667E+03</pdfrwt>
<totfact> 0.92683894E+04</totfact>
</mgrwt>
</event>
<event>
 4    1  0.4374784E+000  0.2516000E+03  0.7546771E-02  0.1112298E+00
         21   -1    0    0  501  502  0.00000000000E+00  0.00000000000E+00  0.21550436694E+03  0.21550436694E+03  0.00000000000E+00 0.  1.
         21   -1    0    0  502  503 -0.00000000000E+00 -0.00000000000E+00 -0.31871912942E+03  0.31871912942E+03  0.00000000000E+00 0.  1.
          6    1    1    2  501    0  0.13649946135E+03 -0.12141436277E+03  0.23169193013E+02  0.25266452450E+03  0.17300000000E+03 0.  1.
         -6    1    1    2    0  503 -0.13649946135E+03  0.12141436277E+03 -0.12638395549E+03  0.28155897187E+03  0.17300000000E+03 0.  1.
<mgrwt>
<rscale>  2 0.25159998E+03</rscale>
<asrwt>0</asrwt>
<pdfrwt beam="1">  1       21 0.33154518E-01 0.25159998E+03</pdfrwt>
<pdfrwt beam="2">  1       21 0.49033712E-01 0.25159998E+03</pdfrwt>
<totfact> 0.33780707E+04</totfact>
</mgrwt>
</event>
<event>
 4    1  0.4374784E+000  0.1958647E+03  0.7546771E-02  0.1153276E+00
         21   -1    0    0  501  502  0.00000000000E+00  0.00000000000E+00  0.10710946189E+04  0.10710946189E+04  0.00000000000E+00 0.  1.
         21   -1    0    0  502  503 -0.00000000000E+00 -0.00000000000E+00 -0.64070714103E+02  0.64070714103E+02  0.00000000000E+00 0.  1.
          6    1    1    2  501    0 -0.91776080799E+02  0.33361705018E+01  0.88042407551E+03  0.90194763251E+03  0.17300000000E+03 0.  1.
         -6    1    1    2    0  503  0.91776080799E+02 -0.33361705018E+01  0.12659982923E+03  0.23321770045E+03  0.17300000000E+03 0.  1.
<mgrwt>
<rscale>  2 0.19586470E+03</rscale>
<asrwt>0</asrwt>
<pdfrwt beam="1">  1       21 0.16478377E+00 0.19586470E+03</pdfrwt>
<pdfrwt beam="2">  1       21 0.98570337E-02 0.19586470E+03</pdfrwt>
<totfact> 0.19298781E+04</totfact>
</mgrwt>
</event>
<event>
 4    1  0.4374784E+000  0.2249283E+03  0.7546771E-02  0.1130261E+00
         21   -1    0    0  501  502  0.00000000000E+00  0.00000000000E+00  0.58296266547E+02  0.58296266547E+02  0.00000000000E+00 0. -1.
         21   -1    0    0  502  503 -0.00000000000E+00 -0.00000000000E+00 -0.90528075240E+03  0.90528075240E+03  0.00000000000E+00 0. -1.
          6    1    1    2  501    0 -0.81644735002E+02  0.11831264667E+03 -0.52145166441E+03  0.56789487005E+03  0.17300000000E+03 0. -1.
         -6    1    1    2    0  503  0.81644735002E+02 -0.11831264667E+03 -0.32553282144E+03  0.39568214890E+03  0.17300000000E+03 0. -1.
<mgrwt>
<rscale>  2 0.22492831E+03</rscale>
<asrwt>0</asrwt>
<pdfrwt beam="1">  1       21 0.89686559E-02 0.22492831E+03</pdfrwt>
<pdfrwt beam="2">  1       21 0.13927397E+00 0.22492831E+03</pdfrwt>
<totfact> 0.34992305E+04</totfact>
</mgrwt>
</event>
<event>
 4    1  0.4374784E+000  0.1947706E+03  0.7546771E-02  0.1154228E+00
         21   -1    0    0  501  502  0.00000000000E+00  0.00000000000E+00  0.45732285105E+03  0.45732285105E+03  0.00000000000E+00 0. -1.
         21   -1    0    0  502  503 -0.00000000000E+00 -0.00000000000E+00 -0.91363814734E+02  0.91363814734E+02  0.00000000000E+00 0. -1.
          6    1    1    2  501    0 -0.33543904669E+02 -0.82954231597E+02  0.26622603922E+03  0.32986649124E+03  0.17300000000E+03 0. -1.
         -6    1    1    2    0  503  0.33543904669E+02  0.82954231597E+02  0.99732997095E+02  0.21882017455E+03  0.17300000000E+03 0. -1.
<mgrwt>
<rscale>  2 0.19477063E+03</rscale>
<asrwt>0</asrwt>
<pdfrwt beam="1">  1       21 0.70357361E-01 0.19477063E+03</pdfrwt>
<pdfrwt beam="2">  1       21 0.14055972E-01 0.19477063E+03</pdfrwt>
<totfact> 0.80810046E+04</totfact>
</mgrwt>
</event>
<event>
 4    1  0.4374784E+000  0.1736686E+03  0.7546771E-02  0.1174075E+00
         21   -1    0    0  501  502  0.00000000000E+00  0.00000000000E+00  0.83219425420E+02  0.83219425420E+02  0.00000000000E+00 0.  1.
         21   -1    0    0  502  503 -0.00000000000E+00 -0.00000000000E+00 -0.36343440082E+03  0.36343440082E+03  0.00000000000E+00 0.  1.
          6    1    1    2  501    0  0.49589426482E+01 -0.14394658015E+02 -0.12833772951E+03  0.21594297883E+03  0.17300000000E+03 0.  1.
         -6    1    1    2    0  503 -0.49589426482E+01  0.14394658015E+02 -0.15187724589E+03  0.23071084740E+03  0.17300000000E+03 0.  1.
<mgrwt>
<rscale>  2 0.17366864E+03</rscale>
<asrwt>0</asrwt>
<pdfrwt beam="1">  1       21 0.12802989E-01 0.17366864E+03</pdfrwt>
<pdfrwt beam="2">  1       21 0.55912985E-01 0.17366864E+03</pdfrwt>
<totfact> 0.15835533E+05</totfact>
</mgrwt>
</event>
<event>
 4    1  0.4374784E+000  0.1959672E+03  0.7546771E-02  0.1153187E+00
         21   -1    0    0  501  502  0.00000000000E+00  0.00000000000E+00  0.59564456039E+02  0.59564456039E+02  0.00000000000E+00 0. -1.
         21   -1    0    0  502  503 -0.00000000000E+00 -0.00000000000E+00 -0.10042248432E+04  0.10042248432E+04  0.00000000000E+00 0. -1.
          6    1    1    2  501    0  0.73892780357E+02 -0.54899782962E+02 -0.15408996319E+03  0.24929269126E+03  0.17300000000E+03 0. -1.
         -6    1    1    2    0  503 -0.73892780357E+02  0.54899782962E+02 -0.79057042399E+03  0.81449660800E+03  0.17300000000E+03 0. -1.
<mgrwt>
<rscale>  2 0.19596716E+03</rscale>
<asrwt>0</asrwt>
<pdfrwt beam="1">  1       21 0.91637629E-02 0.19596716E+03</pdfrwt>
<pdfrwt beam="2">  1       21 0.15449612E+00 0.19596716E+03</pdfrwt>
<totfact> 0.26107486E+04</totfact>
</mgrwt>
</event>
<event>
 4    1  0.4374784E+000  0.1786134E+03  0.7546771E-02  0.1169152E+00
         21   -1    0    0  503  502  0.00000000000E+00  0.00000000000E+00  0.41772161048E+03  0.41772161048E+03  0.00000000000E+00 0.  1.
         21   -1    0    0  501  503 -0.00000000000E+00 -0.00000000000E+00 -0.82650816031E+02  0.82650816031E+02  0.00000000000E+00 0.  1.
          6    1    1    2  501    0  0.16249485918E+02  0.41348503723E+02  0.23648574728E+03  0.29635831897E+03  0.17300000000E+03 0.  1.
         -6    1    1    2    0  502 -0.16249485918E+02 -0.41348503723E+02  0.98585047167E+02  0.20401410755E+03  0.17300000000E+03 0.  1.
<mgrwt>
<rscale>  2 0.17861339E+03</rscale>
<asrwt>0</asrwt>
<pdfrwt beam="1">  1       21 0.64264862E-01 0.17861339E+03</pdfrwt>
<pdfrwt beam="2">  1       21 0.12715510E-01 0.17861339E+03</pdfrwt>
<totfact> 0.11877418E+05</totfact>
</mgrwt>
</event>
<event>
 4    1  0.4374784E+000  0.3234118E+03  0.7546771E-02  0.1074090E+00
         21   -1    0    0  501  502  0.00000000000E+00  0.00000000000E+00  0.10446248383E+04  0.10446248383E+04  0.00000000000E+00 0.  1.
         21   -1    0    0  502  503 -0.00000000000E+00 -0.00000000000E+00 -0.20047290824E+03  0.20047290824E+03  0.00000000000E+00 0. -1.
          6    1    1    2  501    0 -0.18650005157E+03 -0.19970953020E+03  0.86252474373E+03  0.92116453429E+03  0.17300000000E+03 0.  1.
         -6    1    1    2    0  503  0.18650005157E+03  0.19970953020E+03 -0.18372813701E+02  0.32393321221E+03  0.17300000000E+03 0. -1.
<mgrwt>
<rscale>  2 0.32341176E+03</rscale>
<asrwt>0</asrwt>
<pdfrwt beam="1">  1       21 0.16071151E+00 0.32341176E+03</pdfrwt>
<pdfrwt beam="2">  1       21 0.30841987E-01 0.32341176E+03</pdfrwt>
<totfact> 0.22801890E+03</totfact>
</mgrwt>
</event>
<event>
 4    1  0.4374784E+000  0.2999037E+03  0.7546771E-02  0.1085289E+00
         21   -1    0    0  501  502  0.00000000000E+00  0.00000000000E+00  0.18611069818E+03  0.18611069818E+03  0.00000000000E+00 0.  1.
         21   -1    0    0  502  503 -0.00000000000E+00 -0.00000000000E+00 -0.60061422366E+03  0.60061422366E+03  0.00000000000E+00 0. -1.
          6    1    1    2  501    0 -0.23608296637E+03 -0.65407011936E+02 -0.33383336689E+02  0.30175601301E+03  0.17300000000E+03 0.  1.
         -6    1    1    2    0  503  0.23608296637E+03  0.65407011936E+02 -0.38112018879E+03  0.48496890882E+03  0.17300000000E+03 0. -1.
<mgrwt>
<rscale>  2 0.29990372E+03</rscale>
<asrwt>0</asrwt>
<pdfrwt beam="1">  1       21 0.28632415E-01 0.29990372E+03</pdfrwt>
<pdfrwt beam="2">  1       21 0.92402189E-01 0.29990372E+03</pdfrwt>
<totfact> 0.10854119E+04</totfact>
</mgrwt>
</event>
<event>
 4    1  0.4374784E+000  0.1902851E+03  0.7546771E-02  0.1158204E+00
         21   -1    0    0  503  502  0.00000000000E+00  0.00000000000E+00  0.10626158799E+04  0.10626158799E+04  0.00000000000E+00 0. -1.
         21   -1    0    0  501  503 -0.00000000000E+00 -0.00000000000E+00 -0.34114702208E+02  0.34114702208E+02  0.00000000000E+00 0.  1.
          6    1    1    2  501    0  0.20085214212E+02 -0.76655165765E+02  0.49549790623E+03  0.53077924351E+03  0.17300000000E+03 0. -1.
         -6    1    1    2    0  502 -0.20085214212E+02  0.76655165765E+02  0.53300327150E+03  0.56595133863E+03  0.17300000000E+03 0.  1.
<mgrwt>
<rscale>  2 0.19028513E+03</rscale>
<asrwt>0</asrwt>
<pdfrwt beam="1">  1       21 0.16347934E+00 0.19028513E+03</pdfrwt>
<pdfrwt beam="2">  1       21 0.52484165E-02 0.19028513E+03</pdfrwt>
<totfact> 0.58905788E+04</totfact>
</mgrwt>
</event>
<event>
 4    1  0.4374784E+000  0.2069347E+03  0.7546771E-02  0.1144017E+00
         21   -1    0    0  503  502  0.00000000000E+00  0.00000000000E+00  0.44709452913E+03  0.44709452913E+03  0.00000000000E+00 0. -1.
         21   -1    0    0  501  503 -0.00000000000E+00 -0.00000000000E+00 -0.10169940659E+03  0.10169940659E+03  0.00000000000E+00 0. -1.
          6    1    1    2  501    0 -0.35263812741E+02  0.10793246210E+03  0.10648786032E+03  0.23272648594E+03  0.17300000000E+03 0. -1.
         -6    1    1    2    0  502  0.35263812741E+02 -0.10793246210E+03  0.23890726222E+03  0.31606744977E+03  0.17300000000E+03 0. -1.
<mgrwt>
<rscale>  2 0.20693466E+03</rscale>
<asrwt>0</asrwt>
<pdfrwt beam="1">  1       21 0.68783772E-01 0.20693466E+03</pdfrwt>
<pdfrwt beam="2">  1       21 0.15646063E-01 0.20693466E+03</pdfrwt>
<totfact> 0.69501556E+04</totfact>
</mgrwt>
</event>
<event>
 4    1  0.4374784E+000  0.1765263E+03  0.7546771E-02  0.1171208E+00
         21   -1    0    0  501  502  0.00000000000E+00  0.00000000000E+00  0.25434312348E+03  0.25434312348E+03  0.00000000000E+00 0.  1.
         21   -1    0    0  502  503 -0.00000000000E+00 -0.00000000000E+00 -0.27999521420E+03  0.27999521420E+03  0.00000000000E+00 0.  1.
          6    1    1    2  501    0  0.10830108528E+02 -0.33395058621E+02  0.18753827278E+03  0.25755023772E+03  0.17300000000E+03 0.  1.
         -6    1    1    2    0  503 -0.10830108528E+02  0.33395058621E+02 -0.21319036351E+03  0.27678809997E+03  0.17300000000E+03 0.  1.
<mgrwt>
<rscale>  2 0.17652626E+03</rscale>
<asrwt>0</asrwt>
<pdfrwt beam="1">  1       21 0.39129712E-01 0.17652626E+03</pdfrwt>
<pdfrwt beam="2">  1       21 0.43076186E-01 0.17652626E+03</pdfrwt>
<totfact> 0.32911169E+04</totfact>
</mgrwt>
</event>
<event>
 4    1  0.4374784E+000  0.1869612E+03  0.7546771E-02  0.1161231E+00
         21   -1    0    0  501  502  0.00000000000E+00  0.00000000000E+00  0.13218388704E+03  0.13218388704E+03  0.00000000000E+00 0. -1.
         21   -1    0    0  502  503 -0.00000000000E+00 -0.00000000000E+00 -0.27081489297E+03  0.27081489297E+03  0.00000000000E+00 0. -1.
          6    1    1    2  501    0  0.58823388625E+02 -0.39563952722E+02 -0.38396324910E+02  0.19086323682E+03  0.17300000000E+03 0.  1.
         -6    1    1    2    0  503 -0.58823388625E+02  0.39563952722E+02 -0.10023468101E+03  0.21213554318E+03  0.17300000000E+03 0.  1.
<mgrwt>
<rscale>  2 0.18696122E+03</rscale>
<asrwt>0</asrwt>
<pdfrwt beam="1">  1       21 0.20335983E-01 0.18696122E+03</pdfrwt>
<pdfrwt beam="2">  1       21 0.41663829E-01 0.18696122E+03</pdfrwt>
<totfact> 0.12434118E+05</totfact>
</mgrwt>
</event>
<event>
 4    1  0.4374784E+000  0.1967984E+03  0.7546771E-02  0.1152469E+00
         21   -1    0    0  501  502  0.00000000000E+00  0.00000000000E+00  0.32892188066E+03  0.32892188066E+03  0.00000000000E+00 0. -1.
         21   -1    0    0  502  503 -0.00000000000E+00 -0.00000000000E+00 -0.14975845290E+03  0.14975845290E+03  0.00000000000E+00 0.  1.
          6    1    1    2  501    0  0.16568391999E+02  0.92336843462E+02  0.20023690517E+03  0.28075687430E+03  0.17300000000E+03 0. -1.
         -6    1    1    2    0  503 -0.16568391999E+02 -0.92336843462E+02 -0.21073477407E+02  0.19792345926E+03  0.17300000000E+03 0.  1.
<mgrwt>
<rscale>  2 0.19679838E+03</rscale>
<asrwt>0</asrwt>
<pdfrwt beam="1">  1       21 0.50603366E-01 0.19679838E+03</pdfrwt>
<pdfrwt beam="2">  1       21 0.23039762E-01 0.19679838E+03</pdfrwt>
<totfact> 0.65619149E+04</totfact>
</mgrwt>
</event>
<event>
 4    1  0.4374784E+000  0.1980589E+03  0.7546771E-02  0.1151387E+00
         21   -1    0    0  503  502  0.00000000000E+00  0.00000000000E+00  0.17381493190E+03  0.17381493190E+03  0.00000000000E+00 0.  1.
         21   -1    0    0  501  503 -0.00000000000E+00 -0.00000000000E+00 -0.30460617049E+03  0.30460617049E+03  0.00000000000E+00 0.  1.
          6    1    1    2  501    0  0.50219645405E+02 -0.82318285612E+02 -0.18715697730E+03  0.27249779280E+03  0.17300000000E+03 0.  1.
         -6    1    1    2    0  502 -0.50219645405E+02  0.82318285612E+02  0.56365738705E+02  0.20592330959E+03  0.17300000000E+03 0.  1.
<mgrwt>
<rscale>  2 0.19805886E+03</rscale>
<asrwt>0</asrwt>
<pdfrwt beam="1">  1       21 0.26740759E-01 0.19805886E+03</pdfrwt>
<pdfrwt beam="2">  1       21 0.46862487E-01 0.19805886E+03</pdfrwt>
<totfact> 0.57888510E+04</totfact>
</mgrwt>
</event>
<event>
 4    1  0.4374784E+000  0.1758231E+03  0.7546771E-02  0.1171908E+00
         21   -1    0    0  503  502  0.00000000000E+00  0.00000000000E+00  0.15913944772E+03  0.15913944772E+03  0.00000000000E+00 0. -1.
         21   -1    0    0  501  503 -0.00000000000E+00 -0.00000000000E+00 -0.27289612191E+03  0.27289612191E+03  0.00000000000E+00 0. -1.
          6    1    1    2  501    0 -0.28722936556E+02 -0.12639432080E+02 -0.17283973438E+03  0.24655087935E+03  0.17300000000E+03 0. -1.
         -6    1    1    2    0  502  0.28722936556E+02  0.12639432080E+02  0.59083060184E+02  0.18548469028E+03  0.17300000000E+03 0. -1.
<mgrwt>
<rscale>  2 0.17582310E+03</rscale>
<asrwt>0</asrwt>
<pdfrwt beam="1">  1       21 0.24482992E-01 0.17582310E+03</pdfrwt>
<pdfrwt beam="2">  1       21 0.41984018E-01 0.17582310E+03</pdfrwt>
<totfact> 0.86650896E+04</totfact>
</mgrwt>
</event>
<event>
 4    1  0.4374784E+000  0.2032283E+03  0.7546771E-02  0.1147043E+00
         21   -1    0    0  501  502  0.00000000000E+00  0.00000000000E+00  0.62307497267E+03  0.62307497267E+03  0.00000000000E+00 0.  1.
         21   -1    0    0  502  503 -0.00000000000E+00 -0.00000000000E+00 -0.80241477931E+02  0.80241477931E+02  0.00000000000E+00 0.  1.
          6    1    1    2  501    0  0.10230759390E+03  0.30098404940E+02  0.41806552280E+03  0.46484463975E+03  0.17300000000E+03 0.  1.
         -6    1    1    2    0  503 -0.10230759390E+03 -0.30098404940E+02  0.12476797194E+03  0.23847181086E+03  0.17300000000E+03 0.  1.
<mgrwt>
<rscale>  2 0.20322834E+03</rscale>
<asrwt>0</asrwt>
<pdfrwt beam="1">  1       21 0.95857685E-01 0.20322834E+03</pdfrwt>
<pdfrwt beam="2">  1       21 0.12344843E-01 0.20322834E+03</pdfrwt>
<totfact> 0.50321841E+04</totfact>
</mgrwt>
</event>
<event>
 4    1  0.4374784E+000  0.1859537E+03  0.7546771E-02  0.1162162E+00
         21   -1    0    0  501  502  0.00000000000E+00  0.00000000000E+00  0.14951325077E+04  0.14951325077E+04  0.00000000000E+00 0. -1.
         21   -1    0    0  502  503 -0.00000000000E+00 -0.00000000000E+00 -0.26883846638E+02  0.26883846638E+02  0.00000000000E+00 0. -1.
          6    1    1    2  501    0 -0.47490399443E+02 -0.48933009728E+02  0.10185852226E+04  0.10354200274E+04  0.17300000000E+03 0. -1.
         -6    1    1    2    0  503  0.47490399443E+02  0.48933009728E+02  0.44966343844E+03  0.48659632689E+03  0.17300000000E+03 0. -1.
<mgrwt>
<rscale>  2 0.18595370E+03</rscale>
<asrwt>0</asrwt>
<pdfrwt beam="1">  1       21 0.23002032E+00 0.18595370E+03</pdfrwt>
<pdfrwt beam="2">  1       21 0.41359776E-02 0.18595370E+03</pdfrwt>
<totfact> 0.32559666E+04</totfact>
</mgrwt>
</event>
<event>
 4    1  0.4374784E+000  0.1998035E+03  0.7546771E-02  0.1149905E+00
         21   -1    0    0  501  502  0.00000000000E+00  0.00000000000E+00  0.35359564813E+03  0.35359564813E+03  0.00000000000E+00 0. -1.
         21   -1    0    0  502  503 -0.00000000000E+00 -0.00000000000E+00 -0.11458647252E+03  0.11458647252E+03  0.00000000000E+00 0. -1.
          6    1    1    2  501    0  0.78977559948E+02  0.61277866736E+02  0.91116787232E+02  0.21959895456E+03  0.17300000000E+03 0. -1.
         -6    1    1    2    0  503 -0.78977559948E+02 -0.61277866736E+02  0.14789238838E+03  0.24858316610E+03  0.17300000000E+03 0. -1.
<mgrwt>
<rscale>  2 0.19980348E+03</rscale>
<asrwt>0</asrwt>
<pdfrwt beam="1">  1       21 0.54399330E-01 0.19980348E+03</pdfrwt>
<pdfrwt beam="2">  1       21 0.17628688E-01 0.19980348E+03</pdfrwt>
<totfact> 0.92871948E+04</totfact>
</mgrwt>
</event>
<event>
 4    1  0.4374784E+000  0.2226730E+03  0.7546771E-02  0.1131906E+00
         21   -1    0    0  503  502  0.00000000000E+00  0.00000000000E+00  0.13018492238E+04  0.13018492238E+04  0.00000000000E+00 0.  1.
         21   -1    0    0  501  503 -0.00000000000E+00 -0.00000000000E+00 -0.58407853457E+02  0.58407853457E+02  0.00000000000E+00 0.  1.
          6    1    1    2  501    0 -0.94685152725E+02 -0.10338756546E+03  0.22055061997E+03  0.31341002346E+03  0.17300000000E+03 0.  1.
         -6    1    1    2    0  502  0.94685152725E+02  0.10338756546E+03  0.10228907504E+04  0.10468470538E+04  0.17300000000E+03 0.  1.
<mgrwt>
<rscale>  2 0.22267300E+03</rscale>
<asrwt>0</asrwt>
<pdfrwt beam="1">  1       21 0.20028447E+00 0.22267300E+03</pdfrwt>
<pdfrwt beam="2">  1       21 0.89858246E-02 0.22267300E+03</pdfrwt>
<totfact> 0.12794291E+04</totfact>
</mgrwt>
</event>
<event>
 4    1  0.4374784E+000  0.2294949E+03  0.7546771E-02  0.1126996E+00
         21   -1    0    0  501  502  0.00000000000E+00  0.00000000000E+00  0.70997595466E+02  0.70997595466E+02  0.00000000000E+00 0. -1.
         21   -1    0    0  502  503 -0.00000000000E+00 -0.00000000000E+00 -0.14332967557E+04  0.14332967557E+04  0.00000000000E+00 0.  1.
          6    1    1    2  501    0  0.14267676211E+03 -0.48808140694E+02 -0.15872747779E+03  0.27903817884E+03  0.17300000000E+03 0. -1.
         -6    1    1    2    0  503 -0.14267676211E+03  0.48808140694E+02 -0.12035716825E+04  0.12252561724E+04  0.17300000000E+03 0.  1.
<mgrwt>
<rscale>  2 0.22949486E+03</rscale>
<asrwt>0</asrwt>
<pdfrwt beam="1">  1       21 0.10922707E-01 0.22949486E+03</pdfrwt>
<pdfrwt beam="2">  1       21 0.22050719E+00 0.22949486E+03</pdfrwt>
<totfact> 0.67110216E+03</totfact>
</mgrwt>
</event>
<event>
 4    1  0.4374784E+000  0.1920118E+03  0.7546771E-02  0.1156659E+00
         21   -1    0    0  503  502  0.00000000000E+00  0.00000000000E+00  0.64856427740E+02  0.64856427740E+02  0.00000000000E+00 0. -1.
         21   -1    0    0  501  503 -0.00000000000E+00 -0.00000000000E+00 -0.57339979317E+03  0.57339979317E+03  0.00000000000E+00 0.  1.
          6    1    1    2  501    0 -0.81326127108E+02  0.18043835364E+02 -0.28388124557E+03  0.34272011982E+03  0.17300000000E+03 0. -1.
         -6    1    1    2    0  502  0.81326127108E+02 -0.18043835364E+02 -0.22466211986E+03  0.29553610108E+03  0.17300000000E+03 0. -1.
<mgrwt>
<rscale>  2 0.19201177E+03</rscale>
<asrwt>0</asrwt>
<pdfrwt beam="1">  1       21 0.99779119E-02 0.19201177E+03</pdfrwt>
<pdfrwt beam="2">  1       21 0.88215353E-01 0.19201177E+03</pdfrwt>
<totfact> 0.89663375E+04</totfact>
</mgrwt>
</event>
