<event>
 4    1 -0.3240665E-004  0.2425709E+03  0.7818608E-02  0.1118092E+00
          5   -1    0    0  501    0  0.00000000000E+00  0.00000000000E+00  0.12373564144E+03  0.12382487214E+03  0.47000000000E+01 0. -1.
         -5   -1    0    0    0  501 -0.00000000000E+00 -0.00000000000E+00 -0.47528786852E+03  0.47531110650E+03  0.47000000000E+01 0.  1.
          6    1    1    2  502    0  0.17046886173E+03  0.14036244741E+02 -0.17794663744E+03  0.30084157752E+03  0.17200000000E+03 0. -1.
         -6    1    1    2    0  502 -0.17046886173E+03 -0.14036244741E+02 -0.17360558965E+03  0.29829440113E+03  0.17200000000E+03 0. -1.
</event>
<event>
 4    1 -0.3240665E-004  0.1948326E+03  0.7818608E-02  0.1154173E+00
         -5   -1    0    0    0  501 -0.00000000000E+00  0.00000000000E+00  0.66060621957E+03  0.66062293885E+03  0.47000000000E+01 0.  1.
          5   -1    0    0  501    0  0.00000000000E+00 -0.00000000000E+00 -0.98449468403E+02  0.98561594086E+02  0.47000000000E+01 0. -1.
          6    1    1    2  502    0 -0.26904891080E+02  0.87474919304E+02  0.36022568476E+02  0.19813470194E+03  0.17200000000E+03 0. -1.
         -6    1    1    2    0  502  0.26904891080E+02 -0.87474919304E+02  0.52613418269E+03  0.56104983100E+03  0.17200000000E+03 0.  1.
</event>
<event>
 4    1 -0.3240665E-004  0.1976799E+03  0.7818608E-02  0.1151711E+00
         -5   -1    0    0    0  501 -0.00000000000E+00  0.00000000000E+00  0.45538900714E+02  0.45780798139E+02  0.47000000000E+01 0.  1.
          5   -1    0    0  501    0  0.00000000000E+00 -0.00000000000E+00 -0.89634376246E+03  0.89635608466E+03  0.47000000000E+01 0. -1.
          6    1    1    2  502    0 -0.93178945392E+02 -0.28478869539E+02 -0.52583609675E+03  0.56176593215E+03  0.17200000000E+03 0.  1.
         -6    1    1    2    0  502  0.93178945392E+02  0.28478869539E+02 -0.32496876500E+03  0.38037095065E+03  0.17200000000E+03 0.  1.
</event>
<event>
 4    1 -0.3240665E-004  0.1823186E+03  0.7818608E-02  0.1165578E+00
          5   -1    0    0  501    0  0.00000000000E+00  0.00000000000E+00  0.44110110716E+02  0.44359800128E+02  0.47000000000E+01 0. -1.
         -5   -1    0    0    0  501 -0.00000000000E+00 -0.00000000000E+00 -0.75123731748E+03  0.75125201975E+03  0.47000000000E+01 0.  1.
          6    1    1    2  502    0  0.59002677655E+02 -0.13219009666E+02 -0.35028199306E+03  0.39488926657E+03  0.17200000000E+03 0.  1.
         -6    1    1    2    0  502 -0.59002677655E+02  0.13219009666E+02 -0.35684521371E+03  0.40072255331E+03  0.17200000000E+03 0. -1.
</event>
<event>
 4    1 -0.3240665E-004  0.1789026E+03  0.7818608E-02  0.1168869E+00
         -5   -1    0    0    0  501 -0.00000000000E+00  0.00000000000E+00  0.41760030311E+03  0.41762675101E+03  0.47000000000E+01 0.  1.
          5   -1    0    0  501    0  0.00000000000E+00 -0.00000000000E+00 -0.16895872757E+03  0.16902408593E+03  0.47000000000E+01 0. -1.
          6    1    1    2  502    0  0.38283179758E+02 -0.30928041118E+02 -0.92532477213E+02  0.20141599966E+03  0.17200000000E+03 0. -1.
         -6    1    1    2    0  502 -0.38283179758E+02  0.30928041118E+02  0.34117405275E+03  0.38523483728E+03  0.17200000000E+03 0.  1.
</event>
<event>
 4    1 -0.3240665E-004  0.3361304E+03  0.7818608E-02  0.1068456E+00
         -5   -1    0    0    0  501 -0.00000000000E+00  0.00000000000E+00  0.14883339235E+04  0.14883413445E+04  0.47000000000E+01 0.  1.
          5   -1    0    0  501    0  0.00000000000E+00 -0.00000000000E+00 -0.83496064789E+02  0.83628241852E+02  0.47000000000E+01 0. -1.
          6    1    1    2  502    0  0.21181859013E+03  0.19629696591E+03  0.46450602866E+03  0.57336678018E+03  0.17200000000E+03 0. -1.
         -6    1    1    2    0  502 -0.21181859013E+03 -0.19629696591E+03  0.94033183001E+03  0.99860280616E+03  0.17200000000E+03 0.  1.
</event>
<event>
 4    1 -0.3240665E-004  0.1999838E+03  0.7818608E-02  0.1149753E+00
         -5   -1    0    0    0  501 -0.00000000000E+00  0.00000000000E+00  0.96172195639E+02  0.96286973231E+02  0.47000000000E+01 0.  1.
          5   -1    0    0  501    0  0.00000000000E+00 -0.00000000000E+00 -0.41839955330E+03  0.41842595068E+03  0.47000000000E+01 0. -1.
          6    1    1    2  502    0  0.15816819008E+02  0.10079364693E+03 -0.18261803252E+03  0.27081890043E+03  0.17200000000E+03 0. -1.
         -6    1    1    2    0  502 -0.15816819008E+02 -0.10079364693E+03 -0.13960932514E+03  0.24389402349E+03  0.17200000000E+03 0.  1.
</event>
<event>
 4    1 -0.3240665E-004  0.3110856E+03  0.7818608E-02  0.1079827E+00
          5   -1    0    0  501    0  0.00000000000E+00  0.00000000000E+00  0.14090650162E+04  0.14090728547E+04  0.47000000000E+01 0. -1.
         -5   -1    0    0    0  501 -0.00000000000E+00 -0.00000000000E+00 -0.14466641864E+03  0.14474274657E+03  0.47000000000E+01 0.  1.
          6    1    1    2  502    0 -0.13794997352E+03 -0.21945396507E+03  0.11953404146E+04  0.12351570526E+04  0.17200000000E+03 0. -1.
         -6    1    1    2    0  502  0.13794997352E+03  0.21945396507E+03  0.69058182980E+02  0.31865854863E+03  0.17200000000E+03 0.  1.
</event>
<event>
 4    1 -0.3240665E-004  0.1789390E+03  0.7818608E-02  0.1168834E+00
         -5   -1    0    0    0  501 -0.00000000000E+00  0.00000000000E+00  0.28357537156E+03  0.28361431796E+03  0.47000000000E+01 0.  1.
          5   -1    0    0  501    0  0.00000000000E+00 -0.00000000000E+00 -0.20868693384E+03  0.20873985330E+03  0.47000000000E+01 0. -1.
          6    1    1    2  502    0  0.46824741719E+02 -0.15575667779E+02 -0.12936610580E+03  0.22080477168E+03  0.17200000000E+03 0. -1.
         -6    1    1    2    0  502 -0.46824741719E+02  0.15575667779E+02  0.20425454352E+03  0.27154939958E+03  0.17200000000E+03 0.  1.
</event>
<event>
 4    1 -0.3240665E-004  0.3872236E+03  0.7818608E-02  0.1048296E+00
          5   -1    0    0  501    0  0.00000000000E+00  0.00000000000E+00  0.19574722521E+03  0.19580364189E+03  0.47000000000E+01 0. -1.
         -5   -1    0    0    0  501 -0.00000000000E+00 -0.00000000000E+00 -0.79255813043E+03  0.79257206620E+03  0.47000000000E+01 0.  1.
          6    1    1    2  502    0  0.34526041151E+03 -0.33961472772E+02 -0.38916324785E+03  0.54899013367E+03  0.17200000000E+03 0. -1.
         -6    1    1    2    0  502 -0.34526041151E+03  0.33961472772E+02 -0.20764765737E+03  0.43938557441E+03  0.17200000000E+03 0.  1.
</event>
<event>
 4    1 -0.3240665E-004  0.2528894E+03  0.7818608E-02  0.1111492E+00
          5   -1    0    0  501    0  0.00000000000E+00  0.00000000000E+00  0.32344396796E+03  0.32347811426E+03  0.47000000000E+01 0. -1.
         -5   -1    0    0    0  501 -0.00000000000E+00 -0.00000000000E+00 -0.20775869054E+03  0.20781184638E+03  0.47000000000E+01 0.  1.
          6    1    1    2  502    0  0.18191790155E+03 -0.35706123453E+02  0.11641833510E+03  0.27839949516E+03  0.17200000000E+03 0. -1.
         -6    1    1    2    0  502 -0.18191790155E+03  0.35706123453E+02 -0.73305768097E+00  0.25289046548E+03  0.17200000000E+03 0.  1.
</event>
<event>
 4    1 -0.3240665E-004  0.2146062E+03  0.7818608E-02  0.1137969E+00
          5   -1    0    0  501    0  0.00000000000E+00  0.00000000000E+00  0.97195065861E+03  0.97196202229E+03  0.47000000000E+01 0. -1.
         -5   -1    0    0    0  501 -0.00000000000E+00 -0.00000000000E+00 -0.52447513494E+02  0.52657683881E+02  0.47000000000E+01 0.  1.
          6    1    1    2  502    0  0.10139665279E+03  0.78680040201E+02  0.62056559689E+03  0.65662583711E+03  0.17200000000E+03 0. -1.
         -6    1    1    2    0  502 -0.10139665279E+03 -0.78680040201E+02  0.29893754823E+03  0.36799386906E+03  0.17200000000E+03 0.  1.
</event>
<event>
 4    1 -0.3240665E-004  0.1841141E+03  0.7818608E-02  0.1163880E+00
          5   -1    0    0  501    0  0.00000000000E+00  0.00000000000E+00  0.18644113195E+03  0.18650036376E+03  0.47000000000E+01 0. -1.
         -5   -1    0    0    0  501 -0.00000000000E+00 -0.00000000000E+00 -0.18521828488E+03  0.18527790762E+03  0.47000000000E+01 0.  1.
          6    1    1    2  502    0  0.64707824950E+02  0.11264682248E+02  0.26231891044E+02  0.18597340612E+03  0.17200000000E+03 0. -1.
         -6    1    1    2    0  502 -0.64707824950E+02 -0.11264682248E+02 -0.25009043969E+02  0.18580486527E+03  0.17200000000E+03 0. -1.
</event>
<event>
 4    1 -0.3240665E-004  0.1874522E+03  0.7818608E-02  0.1160780E+00
          5   -1    0    0  501    0  0.00000000000E+00  0.00000000000E+00  0.25138320517E+03  0.25142713823E+03  0.47000000000E+01 0. -1.
         -5   -1    0    0    0  501 -0.00000000000E+00 -0.00000000000E+00 -0.16297606910E+03  0.16304382570E+03  0.47000000000E+01 0.  1.
          6    1    1    2  502    0  0.72367575512E+02 -0.17812166677E+02 -0.34111815932E+02  0.19053071997E+03  0.17200000000E+03 0.  1.
         -6    1    1    2    0  502 -0.72367575512E+02  0.17812166677E+02  0.12251895200E+03  0.22394024396E+03  0.17200000000E+03 0. -1.
</event>
<event>
 4    1 -0.3240665E-004  0.2097762E+03  0.7818608E-02  0.1141743E+00
          5   -1    0    0  501    0  0.00000000000E+00  0.00000000000E+00  0.27004447695E+03  0.27008537452E+03  0.47000000000E+01 0. -1.
         -5   -1    0    0    0  501 -0.00000000000E+00 -0.00000000000E+00 -0.45258531803E+03  0.45260972161E+03  0.47000000000E+01 0.  1.
          6    1    1    2  502    0 -0.11766535876E+03  0.24018879274E+02  0.19780944820E+03  0.28833074934E+03  0.17200000000E+03 0. -1.
         -6    1    1    2    0  502  0.11766535876E+03 -0.24018879274E+02 -0.38035028928E+03  0.43436434680E+03  0.17200000000E+03 0.  1.
</event>
<event>
 4    1 -0.3240665E-004  0.2117061E+03  0.7818608E-02  0.1140222E+00
          5   -1    0    0  501    0  0.00000000000E+00  0.00000000000E+00  0.14289844742E+04  0.14289922034E+04  0.47000000000E+01 0. -1.
         -5   -1    0    0    0  501 -0.00000000000E+00 -0.00000000000E+00 -0.33851425191E+02  0.34176146469E+02  0.47000000000E+01 0.  1.
          6    1    1    2  502    0  0.11854953190E+03  0.34372412044E+02  0.49311638576E+03  0.53664068438E+03  0.17200000000E+03 0.  1.
         -6    1    1    2    0  502 -0.11854953190E+03 -0.34372412044E+02  0.90201666322E+03  0.92652766551E+03  0.17200000000E+03 0.  1.
</event>
<event>
 4    1 -0.3240665E-004  0.2032668E+03  0.7818608E-02  0.1147012E+00
          5   -1    0    0  501    0  0.00000000000E+00  0.00000000000E+00  0.20768477392E+03  0.20773794867E+03  0.47000000000E+01 0. -1.
         -5   -1    0    0    0  501 -0.00000000000E+00 -0.00000000000E+00 -0.43802644352E+03  0.43805165817E+03  0.47000000000E+01 0.  1.
          6    1    1    2  502    0 -0.97969333558E+01  0.10787692480E+03  0.12341023748E+03  0.23779717728E+03  0.17200000000E+03 0. -1.
         -6    1    1    2    0  502  0.97969333558E+01 -0.10787692480E+03 -0.35375190709E+03  0.40799242956E+03  0.17200000000E+03 0.  1.
</event>
<event>
 4    1 -0.3240665E-004  0.2656980E+03  0.7818608E-02  0.1103767E+00
          5   -1    0    0  501    0  0.00000000000E+00  0.00000000000E+00  0.74509990346E+02  0.74658078339E+02  0.47000000000E+01 0. -1.
         -5   -1    0    0    0  501 -0.00000000000E+00 -0.00000000000E+00 -0.14559047009E+04  0.14559122873E+04  0.47000000000E+01 0.  1.
          6    1    1    2  502    0  0.13917120636E+03 -0.14711497733E+03 -0.23798646238E+03  0.35669734721E+03  0.17200000000E+03 0. -1.
         -6    1    1    2    0  502 -0.13917120636E+03  0.14711497733E+03 -0.11434082482E+04  0.11738730184E+04  0.17200000000E+03 0.  1.
</event>
<event>
 4    1 -0.3240665E-004  0.1813871E+03  0.7818608E-02  0.1166467E+00
         -5   -1    0    0    0  501 -0.00000000000E+00  0.00000000000E+00  0.16083071483E+03  0.16089937487E+03  0.47000000000E+01 0.  1.
          5   -1    0    0  501    0  0.00000000000E+00 -0.00000000000E+00 -0.21129429949E+03  0.21134656609E+03  0.47000000000E+01 0. -1.
          6    1    1    2  502    0 -0.56194499593E+02 -0.12627834185E+02 -0.58765339090E+02  0.19066895148E+03  0.17200000000E+03 0. -1.
         -6    1    1    2    0  502  0.56194499593E+02  0.12627834185E+02  0.83017544255E+01  0.18157698948E+03  0.17200000000E+03 0.  1.
</event>
<event>
 4    1 -0.3240665E-004  0.2023186E+03  0.7818608E-02  0.1147797E+00
          5   -1    0    0  501    0  0.00000000000E+00  0.00000000000E+00  0.22854712973E+03  0.22859545163E+03  0.47000000000E+01 0. -1.
         -5   -1    0    0    0  501 -0.00000000000E+00 -0.00000000000E+00 -0.18104001789E+03  0.18110101622E+03  0.47000000000E+01 0.  1.
          6    1    1    2  502    0  0.78148614214E+02  0.72399099476E+02  0.20261632237E+01  0.20232879391E+03  0.17200000000E+03 0. -1.
         -6    1    1    2    0  502 -0.78148614214E+02 -0.72399099476E+02  0.45480948614E+02  0.20736767394E+03  0.17200000000E+03 0. -1.
</event>
<event>
 4    1 -0.3240665E-004  0.1846293E+03  0.7818608E-02  0.1163397E+00
          5   -1    0    0  501    0  0.00000000000E+00  0.00000000000E+00  0.35260309115E+03  0.35263441393E+03  0.47000000000E+01 0. -1.
         -5   -1    0    0    0  501 -0.00000000000E+00 -0.00000000000E+00 -0.12258541104E+03  0.12267547839E+03  0.47000000000E+01 0.  1.
          6    1    1    2  502    0  0.63786529927E+02 -0.20862670471E+02  0.22440514243E+03  0.29059532062E+03  0.17200000000E+03 0. -1.
         -6    1    1    2    0  502 -0.63786529927E+02  0.20862670471E+02  0.56125376819E+01  0.18471457170E+03  0.17200000000E+03 0.  1.
</event>
<event>
 4    1 -0.3240665E-004  0.2180327E+03  0.7818608E-02  0.1135358E+00
          5   -1    0    0  501    0  0.00000000000E+00  0.00000000000E+00  0.18226508408E+03  0.18232567256E+03  0.47000000000E+01 0. -1.
         -5   -1    0    0    0  501 -0.00000000000E+00 -0.00000000000E+00 -0.56390742026E+03  0.56392700646E+03  0.47000000000E+01 0.  1.
          6    1    1    2  502    0  0.11209713600E+03  0.73406307951E+02  0.82762906854E+02  0.23321224817E+03  0.17200000000E+03 0. -1.
         -6    1    1    2    0  502 -0.11209713600E+03 -0.73406307951E+02 -0.46440524303E+03  0.51304043086E+03  0.17200000000E+03 0.  1.
</event>
<event>
 4    1 -0.3240665E-004  0.2379425E+03  0.7818608E-02  0.1121171E+00
         -5   -1    0    0    0  501 -0.00000000000E+00  0.00000000000E+00  0.11727488377E+04  0.11727582557E+04  0.47000000000E+01 0.  1.
          5   -1    0    0  501    0  0.00000000000E+00 -0.00000000000E+00 -0.52694337504E+02  0.52903527339E+02  0.47000000000E+01 0. -1.
          6    1    1    2  502    0  0.39666680614E+02 -0.15955930196E+03  0.38050437111E+03  0.44877632828E+03  0.17200000000E+03 0. -1.
         -6    1    1    2    0  502 -0.39666680614E+02  0.15955930196E+03  0.73955012909E+03  0.77688545477E+03  0.17200000000E+03 0.  1.
</event>
<event>
 4    1 -0.3240665E-004  0.1923232E+03  0.7818608E-02  0.1156383E+00
         -5   -1    0    0    0  501 -0.00000000000E+00  0.00000000000E+00  0.10423067612E+04  0.10423173578E+04  0.47000000000E+01 0.  1.
          5   -1    0    0  501    0  0.00000000000E+00 -0.00000000000E+00 -0.60509662363E+02  0.60691920709E+02  0.47000000000E+01 0. -1.
          6    1    1    2  502    0  0.82529388962E+02 -0.24353601636E+02  0.13582154970E+03  0.23544785265E+03  0.17200000000E+03 0. -1.
         -6    1    1    2    0  502 -0.82529388962E+02  0.24353601636E+02  0.84597554913E+03  0.86756142589E+03  0.17200000000E+03 0.  1.
</event>
<event>
 4    1 -0.3240665E-004  0.1888214E+03  0.7818608E-02  0.1159529E+00
          5   -1    0    0  501    0  0.00000000000E+00  0.00000000000E+00  0.15718943796E+04  0.15719014061E+04  0.47000000000E+01 0. -1.
         -5   -1    0    0    0  501 -0.00000000000E+00 -0.00000000000E+00 -0.36476923610E+02  0.36778471366E+02  0.47000000000E+01 0.  1.
          6    1    1    2  502    0  0.45291378546E+02 -0.63389491424E+02  0.12641011766E+04  0.12781257064E+04  0.17200000000E+03 0. -1.
         -6    1    1    2    0  502 -0.45291378546E+02  0.63389491424E+02  0.27131627938E+03  0.33055417113E+03  0.17200000000E+03 0.  1.
</event>
<event>
 4    1 -0.3240665E-004  0.2576419E+03  0.7818608E-02  0.1108568E+00
          5   -1    0    0  501    0  0.00000000000E+00  0.00000000000E+00  0.19474636602E+04  0.19474693317E+04  0.47000000000E+01 0. -1.
         -5   -1    0    0    0  501 -0.00000000000E+00 -0.00000000000E+00 -0.49068115058E+02  0.49292696369E+02  0.47000000000E+01 0.  1.
          6    1    1    2  502    0 -0.14430883800E+03 -0.12637358662E+03  0.15023946404E+04  0.15243257459E+04  0.17200000000E+03 0. -1.
         -6    1    1    2    0  502  0.14430883800E+03  0.12637358662E+03  0.39600090471E+03  0.47243628211E+03  0.17200000000E+03 0.  1.
</event>
<event>
 4    1 -0.3240665E-004  0.1978366E+03  0.7818608E-02  0.1151577E+00
         -5   -1    0    0    0  501 -0.00000000000E+00  0.00000000000E+00  0.75394616971E+02  0.75540970792E+02  0.47000000000E+01 0.  1.
          5   -1    0    0  501    0  0.00000000000E+00 -0.00000000000E+00 -0.56084271606E+03  0.56086240929E+03  0.47000000000E+01 0. -1.
          6    1    1    2  502    0  0.42711409319E+02  0.87926461403E+02 -0.33017841919E+03  0.38491182834E+03  0.17200000000E+03 0. -1.
         -6    1    1    2    0  502 -0.42711409319E+02 -0.87926461403E+02 -0.15526967990E+03  0.25149155174E+03  0.17200000000E+03 0.  1.
</event>
<event>
 4    1 -0.3240665E-004  0.2863010E+03  0.7818608E-02  0.1092296E+00
          5   -1    0    0  501    0  0.00000000000E+00  0.00000000000E+00  0.91028488868E+03  0.91029702217E+03  0.47000000000E+01 0. -1.
         -5   -1    0    0    0  501 -0.00000000000E+00 -0.00000000000E+00 -0.10862302942E+03  0.10872466381E+03  0.47000000000E+01 0.  1.
          6    1    1    2  502    0 -0.12301351530E+03  0.19300765663E+03  0.61183292570E+03  0.67550559541E+03  0.17200000000E+03 0. -1.
         -6    1    1    2    0  502  0.12301351530E+03 -0.19300765663E+03  0.18982893356E+03  0.34351609057E+03  0.17200000000E+03 0.  1.
</event>
<event>
 4    1 -0.3240665E-004  0.2003594E+03  0.7818608E-02  0.1149436E+00
         -5   -1    0    0    0  501 -0.00000000000E+00  0.00000000000E+00  0.45085957105E+03  0.45088406804E+03  0.47000000000E+01 0.  1.
          5   -1    0    0  501    0  0.00000000000E+00 -0.00000000000E+00 -0.89819235460E+02  0.89942120603E+02  0.47000000000E+01 0. -1.
          6    1    1    2  502    0 -0.77146052338E+02 -0.67885069963E+02  0.15393440868E+03  0.25266519011E+03  0.17200000000E+03 0. -1.
         -6    1    1    2    0  502  0.77146052338E+02  0.67885069963E+02  0.20710592691E+03  0.28816099854E+03  0.17200000000E+03 0.  1.
</event>
<event>
 4    1 -0.3240665E-004  0.2215660E+03  0.7818608E-02  0.1132721E+00
          5   -1    0    0  501    0  0.00000000000E+00  0.00000000000E+00  0.60431628087E+03  0.60433455744E+03  0.47000000000E+01 0. -1.
         -5   -1    0    0    0  501 -0.00000000000E+00 -0.00000000000E+00 -0.81154667888E+02  0.81290652108E+02  0.47000000000E+01 0.  1.
          6    1    1    2  502    0 -0.13824373147E+03 -0.19903381213E+02  0.26485909491E+03  0.34531408027E+03  0.17200000000E+03 0. -1.
         -6    1    1    2    0  502  0.13824373147E+03  0.19903381213E+02  0.25830251806E+03  0.34031112928E+03  0.17200000000E+03 0. -1.
</event>
<event>
 4    1 -0.3240665E-004  0.2212960E+03  0.7818608E-02  0.1132921E+00
         -5   -1    0    0    0  501 -0.00000000000E+00  0.00000000000E+00  0.41334093202E+03  0.41336765244E+03  0.47000000000E+01 0.  1.
          5   -1    0    0  501    0  0.00000000000E+00 -0.00000000000E+00 -0.16123744896E+03  0.16130593587E+03  0.47000000000E+01 0. -1.
          6    1    1    2  502    0  0.50808431150E+02 -0.12963955615E+03  0.27410561142E+03  0.35228652743E+03  0.17200000000E+03 0.  1.
         -6    1    1    2    0  502 -0.50808431150E+02  0.12963955615E+03 -0.22002128363E+02  0.22238706088E+03  0.17200000000E+03 0.  1.
</event>
<event>
 4    1 -0.3240665E-004  0.1964192E+03  0.7818608E-02  0.1152796E+00
         -5   -1    0    0    0  501 -0.00000000000E+00  0.00000000000E+00  0.36096256146E+03  0.36099315890E+03  0.47000000000E+01 0.  1.
          5   -1    0    0  501    0  0.00000000000E+00 -0.00000000000E+00 -0.11247789148E+03  0.11257604573E+03  0.47000000000E+01 0. -1.
          6    1    1    2  502    0  0.64537653192E+02  0.69508117049E+02  0.17743293082E+03  0.26469403460E+03  0.17200000000E+03 0.  1.
         -6    1    1    2    0  502 -0.64537653192E+02 -0.69508117049E+02  0.71051739157E+02  0.20887517002E+03  0.17200000000E+03 0. -1.
</event>
<event>
 4    1 -0.3240665E-004  0.2645524E+03  0.7818608E-02  0.1104439E+00
         -5   -1    0    0    0  501 -0.00000000000E+00  0.00000000000E+00  0.29486698467E+03  0.29490443986E+03  0.47000000000E+01 0.  1.
          5   -1    0    0  501    0  0.00000000000E+00 -0.00000000000E+00 -0.46424043882E+03  0.46426422976E+03  0.47000000000E+01 0. -1.
          6    1    1    2  502    0 -0.11480778843E+03  0.16499432427E+03  0.18070007409E+03  0.32037551733E+03  0.17200000000E+03 0.  1.
         -6    1    1    2    0  502  0.11480778843E+03 -0.16499432427E+03 -0.35007352824E+03  0.43879315229E+03  0.17200000000E+03 0. -1.
</event>
<event>
 4    1 -0.3240665E-004  0.2938059E+03  0.7818608E-02  0.1088379E+00
          5   -1    0    0  501    0  0.00000000000E+00  0.00000000000E+00  0.27413107044E+03  0.27417135843E+03  0.47000000000E+01 0. -1.
         -5   -1    0    0    0  501 -0.00000000000E+00 -0.00000000000E+00 -0.73538276511E+03  0.73539778435E+03  0.47000000000E+01 0.  1.
          6    1    1    2  502    0  0.38467720562E+02 -0.23507052960E+03  0.15109831112E+03  0.33038253440E+03  0.17200000000E+03 0. -1.
         -6    1    1    2    0  502 -0.38467720562E+02  0.23507052960E+03 -0.61235000579E+03  0.67918660838E+03  0.17200000000E+03 0.  1.
</event>
<event>
 4    1 -0.3240665E-004  0.2374731E+03  0.7818608E-02  0.1121488E+00
         -5   -1    0    0    0  501 -0.00000000000E+00  0.00000000000E+00  0.28641628280E+03  0.28645484295E+03  0.47000000000E+01 0.  1.
          5   -1    0    0  501    0  0.00000000000E+00 -0.00000000000E+00 -0.20411775639E+03  0.20417186014E+03  0.47000000000E+01 0. -1.
          6    1    1    2  502    0 -0.25433729272E+02  0.16174858520E+03 -0.52453874097E+01  0.23753103690E+03  0.17200000000E+03 0. -1.
         -6    1    1    2    0  502  0.25433729272E+02 -0.16174858520E+03  0.87543913821E+02  0.25309566620E+03  0.17200000000E+03 0.  1.
</event>
<event>
 4    1 -0.3240665E-004  0.3782684E+03  0.7818608E-02  0.1051576E+00
          5   -1    0    0  501    0  0.00000000000E+00  0.00000000000E+00  0.26496656834E+03  0.26500824957E+03  0.47000000000E+01 0. -1.
         -5   -1    0    0    0  501 -0.00000000000E+00 -0.00000000000E+00 -0.57365957493E+03  0.57367882819E+03  0.47000000000E+01 0.  1.
          6    1    1    2  502    0  0.17116458004E+03  0.29018216729E+03 -0.25603201325E+03  0.45677061583E+03  0.17200000000E+03 0.  1.
         -6    1    1    2    0  502 -0.17116458004E+03 -0.29018216729E+03 -0.52660993346E+02  0.38191646193E+03  0.17200000000E+03 0.  1.
</event>
<event>
 4    1 -0.3240665E-004  0.2430357E+03  0.7818608E-02  0.1117787E+00
         -5   -1    0    0    0  501 -0.00000000000E+00  0.00000000000E+00  0.18919071632E+03  0.18924908756E+03  0.47000000000E+01 0.  1.
          5   -1    0    0  501    0  0.00000000000E+00 -0.00000000000E+00 -0.33486320790E+03  0.33489618990E+03  0.47000000000E+01 0. -1.
          6    1    1    2  502    0 -0.65075892214E+02  0.15889460867E+03 -0.14118394735E+03  0.28106809744E+03  0.17200000000E+03 0. -1.
         -6    1    1    2    0  502  0.65075892214E+02 -0.15889460867E+03 -0.44885442355E+01  0.24307718001E+03  0.17200000000E+03 0.  1.
</event>
<event>
 4    1 -0.3240665E-004  0.3145152E+03  0.7818608E-02  0.1078202E+00
          5   -1    0    0  501    0  0.00000000000E+00  0.00000000000E+00  0.95841906873E+02  0.95957079536E+02  0.47000000000E+01 0. -1.
         -5   -1    0    0    0  501 -0.00000000000E+00 -0.00000000000E+00 -0.10340221126E+04  0.10340327941E+04  0.47000000000E+01 0.  1.
          6    1    1    2  502    0  0.25899767274E+03 -0.47497546074E+02 -0.44050011160E+03  0.54125794191E+03  0.17200000000E+03 0.  1.
         -6    1    1    2    0  502 -0.25899767274E+03  0.47497546074E+02 -0.49768009409E+03  0.58873193171E+03  0.17200000000E+03 0.  1.
</event>
<event>
 4    1 -0.3240665E-004  0.1741616E+03  0.7818608E-02  0.1173576E+00
          5   -1    0    0  501    0  0.00000000000E+00  0.00000000000E+00  0.76554588540E+02  0.76698728976E+02  0.47000000000E+01 0. -1.
         -5   -1    0    0    0  501 -0.00000000000E+00 -0.00000000000E+00 -0.53757878876E+03  0.53759933419E+03  0.47000000000E+01 0.  1.
          6    1    1    2  502    0 -0.21258076892E+02  0.17214819107E+02 -0.72736676448E+02  0.18874024460E+03  0.17200000000E+03 0. -1.
         -6    1    1    2    0  502  0.21258076892E+02 -0.17214819107E+02 -0.38828752377E+03  0.42555781857E+03  0.17200000000E+03 0.  1.
</event>
<event>
 4    1 -0.3240665E-004  0.1910172E+03  0.7818608E-02  0.1157547E+00
         -5   -1    0    0    0  501 -0.00000000000E+00  0.00000000000E+00  0.79960111443E+03  0.79961492745E+03  0.47000000000E+01 0.  1.
          5   -1    0    0  501    0  0.00000000000E+00 -0.00000000000E+00 -0.45658557921E+02  0.45899824743E+02  0.47000000000E+01 0. -1.
          6    1    1    2  502    0 -0.12639635255E+02  0.82120783359E+02  0.40205145579E+03  0.44512128296E+03  0.17200000000E+03 0. -1.
         -6    1    1    2    0  502  0.12639635255E+02 -0.82120783359E+02  0.35189110071E+03  0.40039346923E+03  0.17200000000E+03 0.  1.
</event>
<event>
 4    1 -0.3240665E-004  0.3808459E+03  0.7818608E-02  0.1050622E+00
          5   -1    0    0  501    0  0.00000000000E+00  0.00000000000E+00  0.16611421940E+04  0.16611488431E+04  0.47000000000E+01 0. -1.
         -5   -1    0    0    0  501 -0.00000000000E+00 -0.00000000000E+00 -0.21335847179E+03  0.21341023285E+03  0.47000000000E+01 0.  1.
          6    1    1    2  502    0  0.16465037982E+03  0.29723705928E+03  0.14443298027E+04  0.14936974914E+04  0.17200000000E+03 0. -1.
         -6    1    1    2    0  502 -0.16465037982E+03 -0.29723705928E+03  0.34539195772E+01  0.38086158449E+03  0.17200000000E+03 0.  1.
</event>
<event>
 4    1 -0.3240665E-004  0.4101133E+03  0.7818608E-02  0.1040333E+00
          5   -1    0    0  501    0  0.00000000000E+00  0.00000000000E+00  0.41616189665E+03  0.41618843595E+03  0.47000000000E+01 0. -1.
         -5   -1    0    0    0  501 -0.00000000000E+00 -0.00000000000E+00 -0.45712752325E+03  0.45715168436E+03  0.47000000000E+01 0.  1.
          6    1    1    2  502    0 -0.34987515000E+03  0.12726465293E+03  0.12823485940E+03  0.42969418385E+03  0.17200000000E+03 0. -1.
         -6    1    1    2    0  502  0.34987515000E+03 -0.12726465293E+03 -0.16920048601E+03  0.44364593646E+03  0.17200000000E+03 0.  1.
</event>
<event>
 4    1 -0.3240665E-004  0.1950513E+03  0.7818608E-02  0.1153983E+00
         -5   -1    0    0    0  501 -0.00000000000E+00  0.00000000000E+00  0.22483315279E+03  0.22488227274E+03  0.47000000000E+01 0.  1.
          5   -1    0    0  501    0  0.00000000000E+00 -0.00000000000E+00 -0.29743300769E+03  0.29747013979E+03  0.47000000000E+01 0. -1.
          6    1    1    2  502    0  0.11890708883E+02  0.91212058720E+02  0.13521853268E+03  0.23733748164E+03  0.17200000000E+03 0.  1.
         -6    1    1    2    0  502 -0.11890708883E+02 -0.91212058720E+02 -0.20781838758E+03  0.28501493089E+03  0.17200000000E+03 0. -1.
</event>
<event>
 4    1 -0.3240665E-004  0.2230499E+03  0.7818608E-02  0.1131629E+00
         -5   -1    0    0    0  501 -0.00000000000E+00  0.00000000000E+00  0.58598464914E+03  0.58600349745E+03  0.47000000000E+01 0.  1.
          5   -1    0    0  501    0  0.00000000000E+00 -0.00000000000E+00 -0.96617388823E+02  0.96731638170E+02  0.47000000000E+01 0. -1.
          6    1    1    2  502    0 -0.10666531689E+03  0.93753651080E+02  0.12546831051E+03  0.25591704488E+03  0.17200000000E+03 0. -1.
         -6    1    1    2    0  502  0.10666531689E+03 -0.93753651080E+02  0.36389894980E+03  0.42681809074E+03  0.17200000000E+03 0.  1.
</event>
<event>
 4    1 -0.3240665E-004  0.1843573E+03  0.7818608E-02  0.1163651E+00
         -5   -1    0    0    0  501 -0.00000000000E+00  0.00000000000E+00  0.38296919311E+02  0.38584245862E+02  0.47000000000E+01 0.  1.
          5   -1    0    0  501    0  0.00000000000E+00 -0.00000000000E+00 -0.10533428400E+04  0.10533533256E+04  0.47000000000E+01 0. -1.
          6    1    1    2  502    0 -0.51807155746E+02 -0.41468608553E+02 -0.28855732791E+03  0.34242219316E+03  0.17200000000E+03 0.  1.
         -6    1    1    2    0  502  0.51807155746E+02  0.41468608553E+02 -0.72648859277E+03  0.74951537830E+03  0.17200000000E+03 0. -1.
</event>
<event>
 4    1 -0.3240665E-004  0.2000336E+03  0.7818608E-02  0.1149711E+00
          5   -1    0    0  501    0  0.00000000000E+00  0.00000000000E+00  0.72217504438E+03  0.72219033829E+03  0.47000000000E+01 0. -1.
         -5   -1    0    0    0  501 -0.00000000000E+00 -0.00000000000E+00 -0.55554098863E+02  0.55752559587E+02  0.47000000000E+01 0.  1.
          6    1    1    2  502    0  0.17834172825E+02 -0.10055528959E+03  0.36001502887E+03  0.41185464062E+03  0.17200000000E+03 0. -1.
         -6    1    1    2    0  502 -0.17834172825E+02  0.10055528959E+03  0.30660591664E+03  0.36608825726E+03  0.17200000000E+03 0.  1.
</event>
<event>
 4    1 -0.3240665E-004  0.1182463E+04  0.7818608E-02  0.9128346E-01
         -5   -1    0    0    0  501 -0.00000000000E+00  0.00000000000E+00  0.58749274385E+03  0.58751154378E+03  0.47000000000E+01 0.  1.
          5   -1    0    0  501    0  0.00000000000E+00 -0.00000000000E+00 -0.26763440187E+04  0.26763481456E+04  0.47000000000E+01 0. -1.
          6    1    1    2  502    0  0.30611100682E+03 -0.11291285955E+04 -0.15875343853E+04  0.19795162939E+04  0.17200000000E+03 0. -1.
         -6    1    1    2    0  502 -0.30611100682E+03  0.11291285955E+04 -0.50131688957E+03  0.12843433954E+04  0.17200000000E+03 0.  1.
</event>
<event>
 4    1 -0.3240665E-004  0.2373207E+03  0.7818608E-02  0.1121591E+00
         -5   -1    0    0    0  501 -0.00000000000E+00  0.00000000000E+00  0.11412782869E+04  0.11412879646E+04  0.47000000000E+01 0.  1.
          5   -1    0    0  501    0  0.00000000000E+00 -0.00000000000E+00 -0.14000916603E+03  0.14008803151E+03  0.47000000000E+01 0. -1.
          6    1    1    2  502    0  0.16279000103E+03 -0.15379962854E+02 -0.14971677537E+02  0.23779251212E+03  0.17200000000E+03 0. -1.
         -6    1    1    2    0  502 -0.16279000103E+03  0.15379962854E+02  0.10162407984E+04  0.10435834839E+04  0.17200000000E+03 0.  1.
</event>
<event>
 4    1 -0.3240665E-004  0.1927832E+03  0.7818608E-02  0.1155975E+00
          5   -1    0    0  501    0  0.00000000000E+00  0.00000000000E+00  0.32095217112E+03  0.32098658250E+03  0.47000000000E+01 0. -1.
         -5   -1    0    0    0  501 -0.00000000000E+00 -0.00000000000E+00 -0.28530522815E+03  0.28534393845E+03  0.47000000000E+01 0.  1.
          6    1    1    2  502    0  0.86156183877E+02  0.12588148335E+02  0.25152182682E+03  0.31690468420E+03  0.17200000000E+03 0. -1.
         -6    1    1    2    0  502 -0.86156183877E+02 -0.12588148335E+02 -0.21587488385E+03  0.28942583675E+03  0.17200000000E+03 0.  1.
</event>
<event>
 4    1 -0.3240665E-004  0.2244873E+03  0.7818608E-02  0.1130581E+00
         -5   -1    0    0    0  501 -0.00000000000E+00  0.00000000000E+00  0.18170054203E+03  0.18176131870E+03  0.47000000000E+01 0.  1.
          5   -1    0    0  501    0  0.00000000000E+00 -0.00000000000E+00 -0.32599554485E+03  0.32602942392E+03  0.47000000000E+01 0. -1.
          6    1    1    2  502    0  0.82093172835E+02  0.11862228086E+03 -0.17033917969E+03  0.28179774783E+03  0.17200000000E+03 0. -1.
         -6    1    1    2    0  502 -0.82093172835E+02 -0.11862228086E+03  0.26044176872E+02  0.22599299479E+03  0.17200000000E+03 0.  1.
</event>
<event>
 4    1 -0.3240665E-004  0.2087032E+03  0.7818608E-02  0.1142597E+00
         -5   -1    0    0    0  501 -0.00000000000E+00  0.00000000000E+00  0.15862837958E+03  0.15869799245E+03  0.47000000000E+01 0.  1.
          5   -1    0    0  501    0  0.00000000000E+00 -0.00000000000E+00 -0.27825489994E+03  0.27829459093E+03  0.47000000000E+01 0. -1.
          6    1    1    2  502    0  0.11503364137E+03 -0.27208463291E+02 -0.85407266795E+02  0.22550263933E+03  0.17200000000E+03 0. -1.
         -6    1    1    2    0  502 -0.11503364137E+03  0.27208463291E+02 -0.34219253566E+02  0.21148994406E+03  0.17200000000E+03 0. -1.
</event>
<event>
 4    1 -0.3240665E-004  0.2691547E+03  0.7818608E-02  0.1101764E+00
          5   -1    0    0  501    0  0.00000000000E+00  0.00000000000E+00  0.56750816667E+03  0.56752762861E+03  0.47000000000E+01 0. -1.
         -5   -1    0    0    0  501 -0.00000000000E+00 -0.00000000000E+00 -0.12923573281E+03  0.12932116855E+03  0.47000000000E+01 0.  1.
          6    1    1    2  502    0  0.12474766313E+03  0.16522196601E+03  0.25845829642E+03  0.37315542137E+03  0.17200000000E+03 0. -1.
         -6    1    1    2    0  502 -0.12474766313E+03 -0.16522196601E+03  0.17981413744E+03  0.32369337579E+03  0.17200000000E+03 0.  1.
</event>
<event>
 4    1 -0.3240665E-004  0.1952469E+03  0.7818608E-02  0.1153812E+00
          5   -1    0    0  501    0  0.00000000000E+00  0.00000000000E+00  0.24911826685E+03  0.24916259928E+03  0.47000000000E+01 0. -1.
         -5   -1    0    0    0  501 -0.00000000000E+00 -0.00000000000E+00 -0.15329548888E+03  0.15336752235E+03  0.47000000000E+01 0.  1.
          6    1    1    2  502    0 -0.81134714122E+02 -0.44209740567E+02  0.57721278611E+02  0.20360031680E+03  0.17200000000E+03 0.  1.
         -6    1    1    2    0  502  0.81134714122E+02  0.44209740567E+02  0.38101499355E+02  0.19892980483E+03  0.17200000000E+03 0.  1.
</event>
<event>
 4    1 -0.3240665E-004  0.1863542E+03  0.7818608E-02  0.1161791E+00
          5   -1    0    0  501    0  0.00000000000E+00  0.00000000000E+00  0.88769138301E+02  0.88893475097E+02  0.47000000000E+01 0. -1.
         -5   -1    0    0    0  501 -0.00000000000E+00 -0.00000000000E+00 -0.39398080900E+03  0.39400884237E+03  0.47000000000E+01 0.  1.
          6    1    1    2  502    0  0.27957129193E+02  0.66047698105E+02 -0.17428425359E+03  0.25515270045E+03  0.17200000000E+03 0.  1.
         -6    1    1    2    0  502 -0.27957129193E+02 -0.66047698105E+02 -0.13092741711E+03  0.22774961701E+03  0.17200000000E+03 0. -1.
</event>
<event>
 4    1 -0.3240665E-004  0.1906980E+03  0.7818608E-02  0.1157833E+00
          5   -1    0    0  501    0  0.00000000000E+00  0.00000000000E+00  0.62235452135E+02  0.62412671008E+02  0.47000000000E+01 0. -1.
         -5   -1    0    0    0  501 -0.00000000000E+00 -0.00000000000E+00 -0.12347242242E+04  0.12347331694E+04  0.47000000000E+01 0.  1.
          6    1    1    2  502    0  0.45345277012E+02  0.68742407684E+02 -0.11519141902E+03  0.22278863476E+03  0.17200000000E+03 0. -1.
         -6    1    1    2    0  502 -0.45345277012E+02 -0.68742407684E+02 -0.10572973530E+04  0.10743572057E+04  0.17200000000E+03 0.  1.
</event>
<event>
 4    1 -0.3240665E-004  0.3172507E+03  0.7818608E-02  0.1076922E+00
         -5   -1    0    0    0  501 -0.00000000000E+00  0.00000000000E+00  0.23159556476E+04  0.23159604167E+04  0.47000000000E+01 0.  1.
          5   -1    0    0  501    0  0.00000000000E+00 -0.00000000000E+00 -0.53179227833E+02  0.53386517707E+02  0.47000000000E+01 0. -1.
          6    1    1    2  502    0  0.25197900899E+03  0.87008958112E+02  0.62259184471E+03  0.69876218047E+03  0.17200000000E+03 0. -1.
         -6    1    1    2    0  502 -0.25197900899E+03 -0.87008958112E+02  0.16401845751E+04  0.16705847539E+04  0.17200000000E+03 0.  1.
</event>
<event>
 4    1 -0.3240665E-004  0.3561519E+03  0.7818608E-02  0.1060118E+00
          5   -1    0    0  501    0  0.00000000000E+00  0.00000000000E+00  0.36607097377E+03  0.36610114427E+03  0.47000000000E+01 0. -1.
         -5   -1    0    0    0  501 -0.00000000000E+00 -0.00000000000E+00 -0.55228131586E+03  0.55230131436E+03  0.47000000000E+01 0.  1.
          6    1    1    2  502    0 -0.30898908754E+03  0.42260242879E+02  0.18722238142E+03  0.40236352276E+03  0.17200000000E+03 0. -1.
         -6    1    1    2    0  502  0.30898908754E+03 -0.42260242879E+02 -0.37343272351E+03  0.51603893587E+03  0.17200000000E+03 0.  1.
</event>
<event>
 4    1 -0.3240665E-004  0.2158982E+03  0.7818608E-02  0.1136979E+00
         -5   -1    0    0    0  501 -0.00000000000E+00  0.00000000000E+00  0.32817328771E+03  0.32820694198E+03  0.47000000000E+01 0.  1.
          5   -1    0    0  501    0  0.00000000000E+00 -0.00000000000E+00 -0.17614095718E+03  0.17620365149E+03  0.47000000000E+01 0. -1.
          6    1    1    2  502    0 -0.12568409350E+03 -0.35093623529E+02 -0.35059654884E+02  0.21872638884E+03  0.17200000000E+03 0. -1.
         -6    1    1    2    0  502  0.12568409350E+03  0.35093623529E+02  0.18709198541E+03  0.28568420463E+03  0.17200000000E+03 0.  1.
</event>
<event>
 4    1 -0.3240665E-004  0.1730482E+03  0.7818608E-02  0.1174706E+00
         -5   -1    0    0    0  501 -0.00000000000E+00  0.00000000000E+00  0.11173582937E+03  0.11183463491E+03  0.47000000000E+01 0.  1.
          5   -1    0    0  501    0  0.00000000000E+00 -0.00000000000E+00 -0.29378280809E+03  0.29382040149E+03  0.47000000000E+01 0. -1.
          6    1    1    2  502    0 -0.73160704322E+01 -0.17554734229E+02 -0.15136750660E+03  0.22990827657E+03  0.17200000000E+03 0.  1.
         -6    1    1    2    0  502  0.73160704322E+01  0.17554734229E+02 -0.30679472114E+02  0.17574675983E+03  0.17200000000E+03 0.  1.
</event>
<event>
 4    1 -0.3240665E-004  0.2935435E+03  0.7818608E-02  0.1088513E+00
          5   -1    0    0  501    0  0.00000000000E+00  0.00000000000E+00  0.15865260762E+03  0.15872220987E+03  0.47000000000E+01 0. -1.
         -5   -1    0    0    0  501 -0.00000000000E+00 -0.00000000000E+00 -0.93285614441E+03  0.93286798432E+03  0.47000000000E+01 0.  1.
          6    1    1    2  502    0  0.21470940897E+03  0.10238965479E+03 -0.34246033167E+02  0.29553436771E+03  0.17200000000E+03 0. -1.
         -6    1    1    2    0  502 -0.21470940897E+03 -0.10238965479E+03 -0.73995750362E+03  0.79605582648E+03  0.17200000000E+03 0.  1.
</event>
<event>
 4    1 -0.3240665E-004  0.1825364E+03  0.7818608E-02  0.1165371E+00
         -5   -1    0    0    0  501 -0.00000000000E+00  0.00000000000E+00  0.21208887542E+03  0.21214094625E+03  0.47000000000E+01 0.  1.
          5   -1    0    0  501    0  0.00000000000E+00 -0.00000000000E+00 -0.15787873435E+03  0.15794867762E+03  0.47000000000E+01 0. -1.
          6    1    1    2  502    0 -0.14368495369E+02 -0.59405996406E+02  0.13267444819E+02  0.18301789847E+03  0.17200000000E+03 0. -1.
         -6    1    1    2    0  502  0.14368495369E+02  0.59405996406E+02  0.40942696246E+02  0.18707172540E+03  0.17200000000E+03 0.  1.
</event>
<event>
 4    1 -0.3240665E-004  0.1766376E+03  0.7818608E-02  0.1171097E+00
          5   -1    0    0  501    0  0.00000000000E+00  0.00000000000E+00  0.32250879056E+03  0.32254303587E+03  0.47000000000E+01 0. -1.
         -5   -1    0    0    0  501 -0.00000000000E+00 -0.00000000000E+00 -0.96775902335E+02  0.96889964768E+02  0.47000000000E+01 0.  1.
          6    1    1    2  502    0  0.39497481601E+02  0.75351605515E+01  0.12049569458E+03  0.21382245464E+03  0.17200000000E+03 0.  1.
         -6    1    1    2    0  502 -0.39497481601E+02 -0.75351605515E+01  0.10523719364E+03  0.20561054599E+03  0.17200000000E+03 0.  1.
</event>
<event>
 4    1 -0.3240665E-004  0.2477723E+03  0.7818608E-02  0.1114721E+00
         -5   -1    0    0    0  501 -0.00000000000E+00  0.00000000000E+00  0.12703861504E+03  0.12712552738E+03  0.47000000000E+01 0.  1.
          5   -1    0    0  501    0  0.00000000000E+00 -0.00000000000E+00 -0.55818694899E+03  0.55820673592E+03  0.47000000000E+01 0. -1.
          6    1    1    2  502    0  0.80653965696E+02  0.15906618244E+03 -0.34133821658E+03  0.42178536091E+03  0.17200000000E+03 0. -1.
         -6    1    1    2    0  502 -0.80653965696E+02 -0.15906618244E+03 -0.89810117365E+02  0.26354690239E+03  0.17200000000E+03 0.  1.
</event>
<event>
 4    1 -0.3240665E-004  0.1863105E+03  0.7818608E-02  0.1161832E+00
         -5   -1    0    0    0  501 -0.00000000000E+00  0.00000000000E+00  0.39361436643E+03  0.39364242589E+03  0.47000000000E+01 0.  1.
          5   -1    0    0  501    0  0.00000000000E+00 -0.00000000000E+00 -0.12196467472E+03  0.12205520013E+03  0.47000000000E+01 0. -1.
          6    1    1    2  502    0 -0.70639074263E+02 -0.11734954620E+02  0.17006221768E-01  0.18631046203E+03  0.17200000000E+03 0. -1.
         -6    1    1    2    0  502  0.70639074263E+02  0.11734954620E+02  0.27163268549E+03  0.32938716399E+03  0.17200000000E+03 0.  1.
</event>
<event>
 4    1 -0.3240665E-004  0.4145745E+03  0.7818608E-02  0.1038847E+00
          5   -1    0    0  501    0  0.00000000000E+00  0.00000000000E+00  0.32050490229E+03  0.32053936169E+03  0.47000000000E+01 0. -1.
         -5   -1    0    0    0  501 -0.00000000000E+00 -0.00000000000E+00 -0.64212761455E+03  0.64214481495E+03  0.47000000000E+01 0.  1.
          6    1    1    2  502    0  0.37719552686E+03 -0.33937364620E+01  0.34699195603E+02  0.41602405832E+03  0.17200000000E+03 0.  1.
         -6    1    1    2    0  502 -0.37719552686E+03  0.33937364620E+01 -0.35632190786E+03  0.54666011831E+03  0.17200000000E+03 0.  1.
</event>
<event>
 4    1 -0.3240665E-004  0.1928871E+03  0.7818608E-02  0.1155883E+00
         -5   -1    0    0    0  501 -0.00000000000E+00  0.00000000000E+00  0.96396932033E+02  0.96511442355E+02  0.47000000000E+01 0.  1.
          5   -1    0    0  501    0  0.00000000000E+00 -0.00000000000E+00 -0.44375673876E+03  0.44378162782E+03  0.47000000000E+01 0. -1.
          6    1    1    2  502    0 -0.10421019276E-01  0.87300740541E+02 -0.27145940925E+03  0.33300995523E+03  0.17200000000E+03 0. -1.
         -6    1    1    2    0  502  0.10421019276E-01 -0.87300740541E+02 -0.75900397470E+02  0.20728311495E+03  0.17200000000E+03 0.  1.
</event>
<event>
 4    1 -0.3240665E-004  0.1941304E+03  0.7818608E-02  0.1154788E+00
         -5   -1    0    0    0  501 -0.00000000000E+00  0.00000000000E+00  0.90046625562E+02  0.90169200813E+02  0.47000000000E+01 0.  1.
          5   -1    0    0  501    0  0.00000000000E+00 -0.00000000000E+00 -0.62441916217E+03  0.62443685035E+03  0.47000000000E+01 0. -1.
          6    1    1    2  502    0  0.64150685765E+02  0.63145122710E+02 -0.47254586515E+03  0.51086809616E+03  0.17200000000E+03 0. -1.
         -6    1    1    2    0  502 -0.64150685765E+02 -0.63145122710E+02 -0.61826671453E+02  0.20373795500E+03  0.17200000000E+03 0.  1.
</event>
<event>
 4    1 -0.3240665E-004  0.2319424E+03  0.7818608E-02  0.1125280E+00
          5   -1    0    0  501    0  0.00000000000E+00  0.00000000000E+00  0.29459622853E+03  0.29463371813E+03  0.47000000000E+01 0. -1.
         -5   -1    0    0    0  501 -0.00000000000E+00 -0.00000000000E+00 -0.36597487726E+03  0.36600505568E+03  0.47000000000E+01 0.  1.
          6    1    1    2  502    0 -0.15178127164E+03 -0.34288764612E+02  0.19814436120E+03  0.30505485027E+03  0.17200000000E+03 0. -1.
         -6    1    1    2    0  502  0.15178127164E+03  0.34288764612E+02 -0.26952300994E+03  0.35558392355E+03  0.17200000000E+03 0.  1.
</event>
<event>
 4    1 -0.3240665E-004  0.2367176E+03  0.7818608E-02  0.1121999E+00
         -5   -1    0    0    0  501 -0.00000000000E+00  0.00000000000E+00  0.40672312141E+02  0.40942972228E+02  0.47000000000E+01 0.  1.
          5   -1    0    0  501    0  0.00000000000E+00 -0.00000000000E+00 -0.13728933598E+04  0.13729014048E+04  0.47000000000E+01 0. -1.
          6    1    1    2  502    0  0.11885768242E+03  0.11101387544E+03 -0.66395401213E+03  0.70489017544E+03  0.17200000000E+03 0. -1.
         -6    1    1    2    0  502 -0.11885768242E+03 -0.11101387544E+03 -0.66826703552E+03  0.70895420160E+03  0.17200000000E+03 0.  1.
</event>
<event>
 4    1 -0.3240665E-004  0.2234377E+03  0.7818608E-02  0.1131346E+00
          5   -1    0    0  501    0  0.00000000000E+00  0.00000000000E+00  0.31293405285E+02  0.31644386774E+02  0.47000000000E+01 0. -1.
         -5   -1    0    0    0  501 -0.00000000000E+00 -0.00000000000E+00 -0.15862950971E+04  0.15863020599E+04  0.47000000000E+01 0.  1.
          6    1    1    2  502    0 -0.79371736812E+02  0.11849276304E+03 -0.78614674902E+03  0.81728276532E+03  0.17200000000E+03 0.  1.
         -6    1    1    2    0  502  0.79371736812E+02 -0.11849276304E+03 -0.76885494280E+03  0.80066368131E+03  0.17200000000E+03 0. -1.
</event>
<event>
 4    1 -0.3240665E-004  0.5031519E+03  0.7818608E-02  0.1012959E+00
         -5   -1    0    0    0  501 -0.00000000000E+00  0.00000000000E+00  0.10761614001E+04  0.10761716633E+04  0.47000000000E+01 0.  1.
          5   -1    0    0  501    0  0.00000000000E+00 -0.00000000000E+00 -0.25156612051E+03  0.25161002164E+03  0.47000000000E+01 0. -1.
          6    1    1    2  502    0  0.45752595826E+03  0.11936417127E+03  0.24303615523E+03  0.55877399780E+03  0.17200000000E+03 0. -1.
         -6    1    1    2    0  502 -0.45752595826E+03 -0.11936417127E+03  0.58155912432E+03  0.76900768718E+03  0.17200000000E+03 0.  1.
</event>
<event>
 4    1 -0.3240665E-004  0.1893510E+03  0.7818608E-02  0.1159048E+00
          5   -1    0    0  501    0  0.00000000000E+00  0.00000000000E+00  0.36558647990E+03  0.36561669038E+03  0.47000000000E+01 0. -1.
         -5   -1    0    0    0  501 -0.00000000000E+00 -0.00000000000E+00 -0.98060201452E+02  0.98172771728E+02  0.47000000000E+01 0.  1.
          6    1    1    2  502    0 -0.68524399039E+01 -0.78884907223E+02  0.12719294694E+03  0.22810486683E+03  0.17200000000E+03 0.  1.
         -6    1    1    2    0  502  0.68524399039E+01  0.78884907223E+02  0.14033333151E+03  0.23568459528E+03  0.17200000000E+03 0. -1.
</event>
<event>
 4    1 -0.3240665E-004  0.1947637E+03  0.7818608E-02  0.1154234E+00
         -5   -1    0    0    0  501 -0.00000000000E+00  0.00000000000E+00  0.29629568882E+03  0.29633296343E+03  0.47000000000E+01 0.  1.
          5   -1    0    0  501    0  0.00000000000E+00 -0.00000000000E+00 -0.19992860262E+03  0.19998383971E+03  0.47000000000E+01 0. -1.
          6    1    1    2  502    0 -0.67022594760E+02  0.62103558336E+02 -0.10069097894E+03  0.21925225975E+03  0.17200000000E+03 0. -1.
         -6    1    1    2    0  502  0.67022594760E+02 -0.62103558336E+02  0.19705806514E+03  0.27706454339E+03  0.17200000000E+03 0.  1.
</event>
<event>
 4    1 -0.3240665E-004  0.1773741E+03  0.7818608E-02  0.1170369E+00
          5   -1    0    0  501    0  0.00000000000E+00  0.00000000000E+00  0.51210712015E+03  0.51212868745E+03  0.47000000000E+01 0. -1.
         -5   -1    0    0    0  501 -0.00000000000E+00 -0.00000000000E+00 -0.61682074181E+02  0.61860878391E+02  0.47000000000E+01 0.  1.
          6    1    1    2  502    0 -0.40599899098E+02  0.15139826694E+02  0.24708224400E+03  0.30415654104E+03  0.17200000000E+03 0.  1.
         -6    1    1    2    0  502  0.40599899098E+02 -0.15139826694E+02  0.20334280197E+03  0.26983302480E+03  0.17200000000E+03 0. -1.
</event>
<event>
 4    1 -0.3240665E-004  0.2481416E+03  0.7818608E-02  0.1114485E+00
          5   -1    0    0  501    0  0.00000000000E+00  0.00000000000E+00  0.31497788572E+03  0.31501294972E+03  0.47000000000E+01 0. -1.
         -5   -1    0    0    0  501 -0.00000000000E+00 -0.00000000000E+00 -0.19847900448E+03  0.19853464489E+03  0.47000000000E+01 0.  1.
          6    1    1    2  502    0  0.52092954652E+02  0.17110395146E+03  0.90154483724E+02  0.26401149419E+03  0.17200000000E+03 0. -1.
         -6    1    1    2    0  502 -0.52092954652E+02 -0.17110395146E+03  0.26344397512E+02  0.24953610041E+03  0.17200000000E+03 0.  1.
</event>
<event>
 4    1 -0.3240665E-004  0.1788581E+03  0.7818608E-02  0.1168913E+00
         -5   -1    0    0    0  501 -0.00000000000E+00  0.00000000000E+00  0.64297328289E+03  0.64299046067E+03  0.47000000000E+01 0.  1.
          5   -1    0    0  501    0  0.00000000000E+00 -0.00000000000E+00 -0.63456736197E+02  0.63630553736E+02  0.47000000000E+01 0. -1.
          6    1    1    2  502    0 -0.11065564252E+02 -0.47788693936E+02  0.12508384947E+03  0.21825713133E+03  0.17200000000E+03 0. -1.
         -6    1    1    2    0  502  0.11065564252E+02  0.47788693936E+02  0.45443269723E+03  0.48836388307E+03  0.17200000000E+03 0.  1.
</event>
<event>
 4    1 -0.3240665E-004  0.4260333E+03  0.7818608E-02  0.1035120E+00
          5   -1    0    0  501    0  0.00000000000E+00  0.00000000000E+00  0.35208012503E+03  0.35211149433E+03  0.47000000000E+01 0. -1.
         -5   -1    0    0    0  501 -0.00000000000E+00 -0.00000000000E+00 -0.16941458076E+04  0.16941523271E+04  0.47000000000E+01 0.  1.
          6    1    1    2  502    0 -0.11988380197E+03 -0.37087500851E+03  0.18236267285E+03  0.46342263902E+03  0.17200000000E+03 0. -1.
         -6    1    1    2    0  502  0.11988380197E+03  0.37087500851E+03 -0.15244283554E+04  0.15828411824E+04  0.17200000000E+03 0.  1.
</event>
<event>
 4    1 -0.3240665E-004  0.3448795E+03  0.7818608E-02  0.1064737E+00
         -5   -1    0    0    0  501 -0.00000000000E+00  0.00000000000E+00  0.12786207481E+04  0.12786293863E+04  0.47000000000E+01 0.  1.
          5   -1    0    0  501    0  0.00000000000E+00 -0.00000000000E+00 -0.95512231258E+02  0.95627800978E+02  0.47000000000E+01 0. -1.
          6    1    1    2  502    0  0.29407304114E+03 -0.53655740149E+02  0.47920111700E+03  0.59040291540E+03  0.17200000000E+03 0. -1.
         -6    1    1    2    0  502 -0.29407304114E+03  0.53655740149E+02  0.70390739987E+03  0.78385427189E+03  0.17200000000E+03 0.  1.
</event>
<event>
 4    1 -0.3240665E-004  0.1857483E+03  0.7818608E-02  0.1162353E+00
          5   -1    0    0  501    0  0.00000000000E+00  0.00000000000E+00  0.91140649376E+02  0.91261755235E+02  0.47000000000E+01 0. -1.
         -5   -1    0    0    0  501 -0.00000000000E+00 -0.00000000000E+00 -0.38088011653E+03  0.38090911405E+03  0.47000000000E+01 0.  1.
          6    1    1    2  502    0 -0.89382528966E+01  0.69559535020E+02 -0.16476074729E+03  0.24829121033E+03  0.17200000000E+03 0. -1.
         -6    1    1    2    0  502  0.89382528966E+01 -0.69559535020E+02 -0.12497871986E+03  0.22387965896E+03  0.17200000000E+03 0.  1.
</event>
<event>
 4    1 -0.3240665E-004  0.2129290E+03  0.7818608E-02  0.1139267E+00
         -5   -1    0    0    0  501 -0.00000000000E+00  0.00000000000E+00  0.24828719367E+03  0.24833167446E+03  0.47000000000E+01 0.  1.
          5   -1    0    0  501    0  0.00000000000E+00 -0.00000000000E+00 -0.19386965327E+03  0.19392661617E+03  0.47000000000E+01 0. -1.
          6    1    1    2  502    0  0.23800119956E+02  0.12324084446E+03 -0.26292318650E+02  0.21454611969E+03  0.17200000000E+03 0. -1.
         -6    1    1    2    0  502 -0.23800119956E+02 -0.12324084446E+03  0.80709859048E+02  0.22771217095E+03  0.17200000000E+03 0.  1.
</event>
<event>
 4    1 -0.3240665E-004  0.2747391E+03  0.7818608E-02  0.1098598E+00
         -5   -1    0    0    0  501 -0.00000000000E+00  0.00000000000E+00  0.45452944988E+03  0.45455374909E+03  0.47000000000E+01 0.  1.
          5   -1    0    0  501    0  0.00000000000E+00 -0.00000000000E+00 -0.28840013961E+03  0.28843843455E+03  0.47000000000E+01 0. -1.
          6    1    1    2  502    0 -0.99824402025E+02  0.18955917307E+03 -0.15891774544E+03  0.31739004576E+03  0.17200000000E+03 0. -1.
         -6    1    1    2    0  502  0.99824402025E+02 -0.18955917307E+03  0.32504705571E+03  0.42560213787E+03  0.17200000000E+03 0.  1.
</event>
<event>
 4    1 -0.3240665E-004  0.2240470E+03  0.7818608E-02  0.1130901E+00
          5   -1    0    0  501    0  0.00000000000E+00  0.00000000000E+00  0.48488260887E+03  0.48490538704E+03  0.47000000000E+01 0. -1.
         -5   -1    0    0    0  501 -0.00000000000E+00 -0.00000000000E+00 -0.12952047349E+03  0.12960572153E+03  0.47000000000E+01 0.  1.
          6    1    1    2  502    0  0.12908818946E+03 -0.62843438871E+02  0.39883109100E+02  0.22756915621E+03  0.17200000000E+03 0.  1.
         -6    1    1    2    0  502 -0.12908818946E+03  0.62843438871E+02  0.31547902628E+03  0.38694195235E+03  0.17200000000E+03 0. -1.
</event>
<event>
 4    1 -0.3240665E-004  0.2008633E+03  0.7818608E-02  0.1149013E+00
         -5   -1    0    0    0  501 -0.00000000000E+00  0.00000000000E+00  0.94833550707E+03  0.94834715372E+03  0.47000000000E+01 0.  1.
          5   -1    0    0  501    0  0.00000000000E+00 -0.00000000000E+00 -0.42506259521E+02  0.42765314198E+02  0.47000000000E+01 0. -1.
          6    1    1    2  502    0  0.37694796179E+02 -0.96649713949E+02  0.42848864843E+03  0.47323206432E+03  0.17200000000E+03 0.  1.
         -6    1    1    2    0  502 -0.37694796179E+02  0.96649713949E+02  0.47734059912E+03  0.51788040360E+03  0.17200000000E+03 0.  1.
</event>
<event>
 4    1 -0.3240665E-004  0.1987163E+03  0.7818608E-02  0.1150827E+00
          5   -1    0    0  501    0  0.00000000000E+00  0.00000000000E+00  0.19082781051E+03  0.19088568114E+03  0.47000000000E+01 0. -1.
         -5   -1    0    0    0  501 -0.00000000000E+00 -0.00000000000E+00 -0.54615847936E+03  0.54617870206E+03  0.47000000000E+01 0.  1.
          6    1    1    2  502    0 -0.95531209310E+02  0.27891892097E+02  0.11280262392E+03  0.22850076928E+03  0.17200000000E+03 0.  1.
         -6    1    1    2    0  502  0.95531209310E+02 -0.27891892097E+02 -0.46813329277E+03  0.50856361392E+03  0.17200000000E+03 0.  1.
</event>
<event>
 4    1 -0.3240665E-004  0.1721896E+03  0.7818608E-02  0.1175584E+00
          5   -1    0    0  501    0  0.00000000000E+00  0.00000000000E+00  0.29433814059E+02  0.29806700758E+02  0.47000000000E+01 0. -1.
         -5   -1    0    0    0  501 -0.00000000000E+00 -0.00000000000E+00 -0.11356641116E+04  0.11356738371E+04  0.47000000000E+01 0.  1.
          6    1    1    2  502    0 -0.76860952376E+01  0.24858770976E+01 -0.35218464251E+03  0.39202458860E+03  0.17200000000E+03 0. -1.
         -6    1    1    2    0  502  0.76860952376E+01 -0.24858770976E+01 -0.75404565500E+03  0.77345594928E+03  0.17200000000E+03 0.  1.
</event>
<event>
 4    1 -0.3240665E-004  0.3377885E+03  0.7818608E-02  0.1067742E+00
          5   -1    0    0  501    0  0.00000000000E+00  0.00000000000E+00  0.85871158903E+02  0.85999685647E+02  0.47000000000E+01 0. -1.
         -5   -1    0    0    0  501 -0.00000000000E+00 -0.00000000000E+00 -0.13569858159E+04  0.13569939552E+04  0.47000000000E+01 0.  1.
          6    1    1    2  502    0  0.25557312693E+03 -0.13856205304E+03 -0.52942706722E+03  0.62800802961E+03  0.17200000000E+03 0. -1.
         -6    1    1    2    0  502 -0.25557312693E+03  0.13856205304E+03 -0.74168758975E+03  0.81498561125E+03  0.17200000000E+03 0.  1.
</event>
<event>
 4    1 -0.3240665E-004  0.1790973E+03  0.7818608E-02  0.1168680E+00
         -5   -1    0    0    0  501 -0.00000000000E+00  0.00000000000E+00  0.38767735418E+03  0.38770584332E+03  0.47000000000E+01 0.  1.
          5   -1    0    0  501    0  0.00000000000E+00 -0.00000000000E+00 -0.84944434565E+02  0.85074361376E+02  0.47000000000E+01 0. -1.
          6    1    1    2  502    0 -0.49334986279E+02 -0.76100812432E+01  0.11246969887E+03  0.21148353925E+03  0.17200000000E+03 0. -1.
         -6    1    1    2    0  502  0.49334986279E+02  0.76100812432E+01  0.19026322074E+03  0.26129666545E+03  0.17200000000E+03 0.  1.
</event>
<event>
 4    1 -0.3240665E-004  0.4113430E+03  0.7818608E-02  0.1039921E+00
         -5   -1    0    0    0  501 -0.00000000000E+00  0.00000000000E+00  0.15933228986E+03  0.15940159532E+03  0.47000000000E+01 0.  1.
          5   -1    0    0  501    0  0.00000000000E+00 -0.00000000000E+00 -0.12975741812E+04  0.12975826932E+04  0.47000000000E+01 0. -1.
          6    1    1    2  502    0  0.37364741948E+03 -0.25896713778E+01 -0.25849638085E+03  0.48582247724E+03  0.17200000000E+03 0.  1.
         -6    1    1    2    0  502 -0.37364741948E+03  0.25896713778E+01 -0.87974551046E+03  0.97116181126E+03  0.17200000000E+03 0. -1.
</event>
<event>
 4    1 -0.3240665E-004  0.2300285E+03  0.7818608E-02  0.1126620E+00
          5   -1    0    0  501    0  0.00000000000E+00  0.00000000000E+00  0.19011255273E+04  0.19011313370E+04  0.47000000000E+01 0. -1.
         -5   -1    0    0    0  501 -0.00000000000E+00 -0.00000000000E+00 -0.36643397094E+02  0.36943586055E+02  0.47000000000E+01 0.  1.
          6    1    1    2  502    0  0.11244037870E+03 -0.10337436736E+03  0.14105850336E+04  0.14292177005E+04  0.17200000000E+03 0. -1.
         -6    1    1    2    0  502 -0.11244037870E+03  0.10337436736E+03  0.45389709668E+03  0.50885722257E+03  0.17200000000E+03 0. -1.
</event>
<event>
 4    1 -0.3240665E-004  0.2393000E+03  0.7818608E-02  0.1120260E+00
          5   -1    0    0  501    0  0.00000000000E+00  0.00000000000E+00  0.18253342640E+04  0.18253403149E+04  0.47000000000E+01 0. -1.
         -5   -1    0    0    0  501 -0.00000000000E+00 -0.00000000000E+00 -0.35026154100E+02  0.35340083065E+02  0.47000000000E+01 0.  1.
          6    1    1    2  502    0  0.14794465953E+03  0.76110747655E+02  0.12015679305E+04  0.12251652786E+04  0.17200000000E+03 0. -1.
         -6    1    1    2    0  502 -0.14794465953E+03 -0.76110747655E+02  0.58874017940E+03  0.63551511944E+03  0.17200000000E+03 0.  1.
</event>
<event>
 4    1 -0.3240665E-004  0.1847138E+03  0.7818608E-02  0.1163317E+00
          5   -1    0    0  501    0  0.00000000000E+00  0.00000000000E+00  0.25403005471E+03  0.25407353010E+03  0.47000000000E+01 0. -1.
         -5   -1    0    0    0  501 -0.00000000000E+00 -0.00000000000E+00 -0.20155567774E+03  0.20161046905E+03  0.47000000000E+01 0.  1.
          6    1    1    2  502    0 -0.41978495174E+02 -0.52659145173E+02  0.15789687088E+03  0.24300329516E+03  0.17200000000E+03 0. -1.
         -6    1    1    2    0  502  0.41978495174E+02  0.52659145173E+02 -0.10542249390E+03  0.21268070399E+03  0.17200000000E+03 0.  1.
</event>
<event>
 4    1 -0.3240665E-004  0.2544018E+03  0.7818608E-02  0.1110554E+00
          5   -1    0    0  501    0  0.00000000000E+00  0.00000000000E+00  0.28988132866E+03  0.28991942795E+03  0.47000000000E+01 0. -1.
         -5   -1    0    0    0  501 -0.00000000000E+00 -0.00000000000E+00 -0.62355511841E+03  0.62357283111E+03  0.47000000000E+01 0.  1.
          6    1    1    2  502    0 -0.47484413961E+02 -0.18133261169E+03  0.19913024579E+03  0.32306832160E+03  0.17200000000E+03 0. -1.
         -6    1    1    2    0  502  0.47484413961E+02  0.18133261169E+03 -0.53280403555E+03  0.59042393746E+03  0.17200000000E+03 0.  1.
</event>
<event>
 4    1 -0.3240665E-004  0.1958810E+03  0.7818608E-02  0.1153261E+00
          5   -1    0    0  501    0  0.00000000000E+00  0.00000000000E+00  0.10615842809E+03  0.10626241977E+03  0.47000000000E+01 0. -1.
         -5   -1    0    0    0  501 -0.00000000000E+00 -0.00000000000E+00 -0.13049381789E+04  0.13049466429E+04  0.47000000000E+01 0.  1.
          6    1    1    2  502    0  0.37690127199E+02 -0.85818545395E+02  0.65771461176E+00  0.19588210998E+03  0.17200000000E+03 0. -1.
         -6    1    1    2    0  502 -0.37690127199E+02  0.85818545395E+02 -0.11994374654E+04  0.12153269527E+04  0.17200000000E+03 0.  1.
</event>
<event>
 4    1 -0.3240665E-004  0.1909201E+03  0.7818608E-02  0.1157634E+00
          5   -1    0    0  501    0  0.00000000000E+00  0.00000000000E+00  0.74727666363E+03  0.74729144382E+03  0.47000000000E+01 0. -1.
         -5   -1    0    0    0  501 -0.00000000000E+00 -0.00000000000E+00 -0.48693357956E+02  0.48919659739E+02  0.47000000000E+01 0.  1.
          6    1    1    2  502    0  0.81112046768E+02  0.16950005662E+02  0.36124749936E+03  0.40859542657E+03  0.17200000000E+03 0. -1.
         -6    1    1    2    0  502 -0.81112046768E+02 -0.16950005662E+02  0.33733580632E+03  0.38761567699E+03  0.17200000000E+03 0.  1.
</event>
<event>
 4    1 -0.3240665E-004  0.2716434E+03  0.7818608E-02  0.1100343E+00
          5   -1    0    0  501    0  0.00000000000E+00  0.00000000000E+00  0.31064501374E+03  0.31068056676E+03  0.47000000000E+01 0. -1.
         -5   -1    0    0    0  501 -0.00000000000E+00 -0.00000000000E+00 -0.24027383854E+03  0.24031980253E+03  0.47000000000E+01 0.  1.
          6    1    1    2  502    0  0.12574544681E+03 -0.16850578549E+03  0.54085544278E+01  0.27169720204E+03  0.17200000000E+03 0.  1.
         -6    1    1    2    0  502 -0.12574544681E+03  0.16850578549E+03  0.64962620772E+02  0.27930316724E+03  0.17200000000E+03 0.  1.
</event>
<event>
 4    1 -0.3240665E-004  0.1846317E+03  0.7818608E-02  0.1163394E+00
         -5   -1    0    0    0  501 -0.00000000000E+00  0.00000000000E+00  0.29188025110E+02  0.29564012072E+02  0.47000000000E+01 0.  1.
          5   -1    0    0  501    0  0.00000000000E+00 -0.00000000000E+00 -0.14174124609E+04  0.14174202532E+04  0.47000000000E+01 0. -1.
          6    1    1    2  502    0 -0.31972517638E+02 -0.59013637879E+02 -0.38586517109E+03  0.42776252945E+03  0.17200000000E+03 0.  1.
         -6    1    1    2    0  502  0.31972517638E+02  0.59013637879E+02 -0.10023592647E+04  0.10192217358E+04  0.17200000000E+03 0. -1.
</event>
<event>
 4    1 -0.3240665E-004  0.1844392E+03  0.7818608E-02  0.1163575E+00
         -5   -1    0    0    0  501 -0.00000000000E+00  0.00000000000E+00  0.10085739359E+03  0.10096684526E+03  0.47000000000E+01 0.  1.
          5   -1    0    0  501    0  0.00000000000E+00 -0.00000000000E+00 -0.36905877489E+03  0.36908870116E+03  0.47000000000E+01 0. -1.
          6    1    1    2  502    0 -0.63942087651E+01  0.66279281031E+02 -0.64819820586E+02  0.19549792362E+03  0.17200000000E+03 0.  1.
         -6    1    1    2    0  502  0.63942087651E+01 -0.66279281031E+02 -0.20338156071E+03  0.27455762280E+03  0.17200000000E+03 0. -1.
</event>
<event>
 4    1 -0.3240665E-004  0.2644205E+03  0.7818608E-02  0.1104516E+00
         -5   -1    0    0    0  501 -0.00000000000E+00  0.00000000000E+00  0.18864391698E+03  0.18870245736E+03  0.47000000000E+01 0.  1.
          5   -1    0    0  501    0  0.00000000000E+00 -0.00000000000E+00 -0.37193334743E+03  0.37196304242E+03  0.47000000000E+01 0. -1.
          6    1    1    2  502    0 -0.19833441900E+03 -0.31585344080E+02 -0.10901631188E+03  0.28601176895E+03  0.17200000000E+03 0.  1.
         -6    1    1    2    0  502  0.19833441900E+03  0.31585344080E+02 -0.74273118562E+02  0.27465373083E+03  0.17200000000E+03 0.  1.
</event>
<event>
 4    1 -0.3240665E-004  0.2065022E+03  0.7818608E-02  0.1144366E+00
          5   -1    0    0  501    0  0.00000000000E+00  0.00000000000E+00  0.27949639269E+03  0.27953590741E+03  0.47000000000E+01 0. -1.
         -5   -1    0    0    0  501 -0.00000000000E+00 -0.00000000000E+00 -0.24039585683E+03  0.24044179749E+03  0.47000000000E+01 0.  1.
          6    1    1    2  502    0  0.49067185328E+02 -0.10320650091E+03  0.17673975516E+03  0.27180896151E+03  0.17200000000E+03 0. -1.
         -6    1    1    2    0  502 -0.49067185328E+02  0.10320650091E+03 -0.13763921929E+03  0.24816874339E+03  0.17200000000E+03 0.  1.
</event>
<event>
 4    1 -0.3240665E-004  0.2214402E+03  0.7818608E-02  0.1132814E+00
          5   -1    0    0  501    0  0.00000000000E+00  0.00000000000E+00  0.14853621909E+03  0.14861055946E+03  0.47000000000E+01 0. -1.
         -5   -1    0    0    0  501 -0.00000000000E+00 -0.00000000000E+00 -0.37595627237E+03  0.37598564964E+03  0.47000000000E+01 0.  1.
          6    1    1    2  502    0 -0.89241512957E+02 -0.10718081839E+03 -0.21969862073E+02  0.22252741473E+03  0.17200000000E+03 0. -1.
         -6    1    1    2    0  502  0.89241512957E+02  0.10718081839E+03 -0.20545019120E+03  0.30206879437E+03  0.17200000000E+03 0.  1.
</event>
<event>
 4    1 -0.3240665E-004  0.2746513E+03  0.7818608E-02  0.1098647E+00
         -5   -1    0    0    0  501 -0.00000000000E+00  0.00000000000E+00  0.22141661444E+03  0.22146649217E+03  0.47000000000E+01 0.  1.
          5   -1    0    0  501    0  0.00000000000E+00 -0.00000000000E+00 -0.35227251116E+03  0.35230386334E+03  0.47000000000E+01 0. -1.
          6    1    1    2  502    0  0.13035793351E+03  0.16987091569E+03 -0.11768709010E+03  0.29880356424E+03  0.17200000000E+03 0. -1.
         -6    1    1    2    0  502 -0.13035793351E+03 -0.16987091569E+03 -0.13168806622E+02  0.27496679126E+03  0.17200000000E+03 0.  1.
</event>
<event>
 4    1 -0.3240665E-004  0.1805492E+03  0.7818608E-02  0.1167273E+00
         -5   -1    0    0    0  501 -0.00000000000E+00  0.00000000000E+00  0.84863740655E+02  0.84993790820E+02  0.47000000000E+01 0.  1.
          5   -1    0    0  501    0  0.00000000000E+00 -0.00000000000E+00 -0.38374387042E+03  0.38377265156E+03  0.47000000000E+01 0. -1.
          6    1    1    2  502    0 -0.54849084982E+02 -0.23608557753E+01 -0.14648982132E+03  0.23250217959E+03  0.17200000000E+03 0.  1.
         -6    1    1    2    0  502  0.54849084982E+02  0.23608557753E+01 -0.15239030844E+03  0.23626426279E+03  0.17200000000E+03 0.  1.
</event>
<event>
 4    1 -0.3240665E-004  0.2716920E+03  0.7818608E-02  0.1100315E+00
         -5   -1    0    0    0  501 -0.00000000000E+00  0.00000000000E+00  0.43401382816E+03  0.43403927592E+03  0.47000000000E+01 0.  1.
          5   -1    0    0  501    0  0.00000000000E+00 -0.00000000000E+00 -0.18078107405E+03  0.18084215973E+03  0.47000000000E+01 0. -1.
          6    1    1    2  502    0 -0.11004301037E+03 -0.17922912643E+03  0.51611459310E+02  0.27655069449E+03  0.17200000000E+03 0. -1.
         -6    1    1    2    0  502  0.11004301037E+03  0.17922912643E+03  0.20162129480E+03  0.33833074115E+03  0.17200000000E+03 0.  1.
</event>
<event>
 4    1 -0.3240665E-004  0.7146402E+03  0.7818608E-02  0.9692518E-01
         -5   -1    0    0    0  501 -0.00000000000E+00  0.00000000000E+00  0.14013868933E+04  0.14013947747E+04  0.47000000000E+01 0.  1.
          5   -1    0    0  501    0  0.00000000000E+00 -0.00000000000E+00 -0.42328149150E+03  0.42330758445E+03  0.47000000000E+01 0. -1.
          6    1    1    2  502    0 -0.37468223182E+02  0.69262021954E+03  0.14881069208E+03  0.72996935438E+03  0.17200000000E+03 0. -1.
         -6    1    1    2    0  502  0.37468223182E+02 -0.69262021954E+03  0.82929470968E+03  0.10947330048E+04  0.17200000000E+03 0.  1.
</event>
<event>
 4    1 -0.3240665E-004  0.2519838E+03  0.7818608E-02  0.1112057E+00
         -5   -1    0    0    0  501 -0.00000000000E+00  0.00000000000E+00  0.70881060545E+02  0.71036714057E+02  0.47000000000E+01 0.  1.
          5   -1    0    0  501    0  0.00000000000E+00 -0.00000000000E+00 -0.99367794361E+03  0.99368905881E+03  0.47000000000E+01 0. -1.
          6    1    1    2  502    0  0.13357933135E+03 -0.12676122825E+03 -0.62943218643E+03  0.67799758412E+03  0.17200000000E+03 0. -1.
         -6    1    1    2    0  502 -0.13357933135E+03  0.12676122825E+03 -0.29336469663E+03  0.38672818875E+03  0.17200000000E+03 0.  1.
</event>
<event>
 4    1 -0.3240665E-004  0.3000714E+03  0.7818608E-02  0.1085205E+00
         -5   -1    0    0    0  501 -0.00000000000E+00  0.00000000000E+00  0.17572742029E+03  0.17579026208E+03  0.47000000000E+01 0.  1.
          5   -1    0    0  501    0  0.00000000000E+00 -0.00000000000E+00 -0.10845633432E+04  0.10845735270E+04  0.47000000000E+01 0. -1.
          6    1    1    2  502    0  0.20170349952E+03 -0.14062208537E+03 -0.91218562001E+03  0.96027364744E+03  0.17200000000E+03 0.  1.
         -6    1    1    2    0  502 -0.20170349952E+03  0.14062208537E+03  0.33496971120E+01  0.30009014160E+03  0.17200000000E+03 0.  1.
</event>
<event>
 4    1 -0.3240665E-004  0.2251673E+03  0.7818608E-02  0.1130088E+00
          5   -1    0    0  501    0  0.00000000000E+00  0.00000000000E+00  0.19774155632E+03  0.19779740417E+03  0.47000000000E+01 0. -1.
         -5   -1    0    0    0  501 -0.00000000000E+00 -0.00000000000E+00 -0.32189940273E+03  0.32193371286E+03  0.47000000000E+01 0.  1.
          6    1    1    2  502    0 -0.11137165954E+03 -0.93341631552E+02  0.55229805946E+02  0.23184183875E+03  0.17200000000E+03 0. -1.
         -6    1    1    2    0  502  0.11137165954E+03  0.93341631552E+02 -0.17938765236E+03  0.28788927828E+03  0.17200000000E+03 0.  1.
</event>
<event>
 4    1 -0.3240665E-004  0.4810243E+03  0.7818608E-02  0.1018854E+00
          5   -1    0    0  501    0  0.00000000000E+00  0.00000000000E+00  0.24215227943E+03  0.24219788693E+03  0.47000000000E+01 0. -1.
         -5   -1    0    0    0  501 -0.00000000000E+00 -0.00000000000E+00 -0.95578973978E+03  0.95580129560E+03  0.47000000000E+01 0.  1.
          6    1    1    2  502    0  0.17286048865E+03  0.41463194982E+03 -0.34458844438E+03  0.59171411877E+03  0.17200000000E+03 0. -1.
         -6    1    1    2    0  502 -0.17286048865E+03 -0.41463194982E+03 -0.36904901597E+03  0.60628506376E+03  0.17200000000E+03 0.  1.
</event>
<event>
 4    1 -0.3240665E-004  0.3398269E+03  0.7818608E-02  0.1066870E+00
          5   -1    0    0  501    0  0.00000000000E+00  0.00000000000E+00  0.47804319915E+03  0.47806630319E+03  0.47000000000E+01 0. -1.
         -5   -1    0    0    0  501 -0.00000000000E+00 -0.00000000000E+00 -0.25224290796E+03  0.25228669132E+03  0.47000000000E+01 0.  1.
          6    1    1    2  502    0 -0.42908003124E+02  0.28992629500E+03  0.18817779070E+03  0.38844978334E+03  0.17200000000E+03 0. -1.
         -6    1    1    2    0  502  0.42908003124E+02 -0.28992629500E+03  0.37622500486E+02  0.34190321117E+03  0.17200000000E+03 0.  1.
</event>
<event>
 4    1 -0.3240665E-004  0.1721998E+03  0.7818608E-02  0.1175573E+00
          5   -1    0    0  501    0  0.00000000000E+00  0.00000000000E+00  0.22367735019E+03  0.22372672390E+03  0.47000000000E+01 0. -1.
         -5   -1    0    0    0  501 -0.00000000000E+00 -0.00000000000E+00 -0.13265347387E+03  0.13273670980E+03  0.47000000000E+01 0.  1.
          6    1    1    2  502    0 -0.19877153568E+01  0.80517310352E+01  0.38774994425E+02  0.17651142053E+03  0.17200000000E+03 0.  1.
         -6    1    1    2    0  502  0.19877153568E+01 -0.80517310352E+01  0.52248881895E+02  0.17995201317E+03  0.17200000000E+03 0. -1.
</event>
<event>
 4    1 -0.3240665E-004  0.1789988E+03  0.7818608E-02  0.1168776E+00
          5   -1    0    0  501    0  0.00000000000E+00  0.00000000000E+00  0.12552422033E+03  0.12561218050E+03  0.47000000000E+01 0. -1.
         -5   -1    0    0    0  501 -0.00000000000E+00 -0.00000000000E+00 -0.26972870420E+03  0.26976964965E+03  0.47000000000E+01 0.  1.
          6    1    1    2  502    0 -0.83213519144E+01  0.48860399219E+02 -0.11820063064E+03  0.21450401533E+03  0.17200000000E+03 0.  1.
         -6    1    1    2    0  502  0.83213519144E+01 -0.48860399219E+02 -0.26003853240E+02  0.18087781482E+03  0.17200000000E+03 0. -1.
</event>
<event>
 4    1 -0.3240665E-004  0.2262841E+03  0.7818608E-02  0.1129283E+00
          5   -1    0    0  501    0  0.00000000000E+00  0.00000000000E+00  0.63321494545E+02  0.63495682305E+02  0.47000000000E+01 0. -1.
         -5   -1    0    0    0  501 -0.00000000000E+00 -0.00000000000E+00 -0.89937174532E+03  0.89938402603E+03  0.47000000000E+01 0.  1.
          6    1    1    2  502    0  0.10625451120E+03  0.10163897543E+03 -0.57200670359E+03  0.61513914803E+03  0.17200000000E+03 0.  1.
         -6    1    1    2    0  502 -0.10625451120E+03 -0.10163897543E+03 -0.26404354718E+03  0.34774056031E+03  0.17200000000E+03 0. -1.
</event>
<event>
 4    1 -0.3240665E-004  0.2939756E+03  0.7818608E-02  0.1088292E+00
          5   -1    0    0  501    0  0.00000000000E+00  0.00000000000E+00  0.57616635015E+03  0.57618551964E+03  0.47000000000E+01 0. -1.
         -5   -1    0    0    0  501 -0.00000000000E+00 -0.00000000000E+00 -0.15981402412E+03  0.15988312076E+03  0.47000000000E+01 0.  1.
          6    1    1    2  502    0  0.17407412071E+03  0.16289825197E+03  0.29965026442E+03  0.41977603667E+03  0.17200000000E+03 0. -1.
         -6    1    1    2    0  502 -0.17407412071E+03 -0.16289825197E+03  0.11670206161E+03  0.31629260374E+03  0.17200000000E+03 0. -1.
</event>
<event>
 4    1 -0.3240665E-004  0.2324345E+03  0.7818608E-02  0.1124938E+00
         -5   -1    0    0    0  501 -0.00000000000E+00  0.00000000000E+00  0.18957278851E+03  0.18963104214E+03  0.47000000000E+01 0.  1.
          5   -1    0    0  501    0  0.00000000000E+00 -0.00000000000E+00 -0.33265392189E+03  0.33268712291E+03  0.47000000000E+01 0. -1.
          6    1    1    2  502    0  0.28082528279E+02 -0.15379583263E+03 -0.17051160689E+03  0.28827069677E+03  0.17200000000E+03 0. -1.
         -6    1    1    2    0  502 -0.28082528279E+02  0.15379583263E+03  0.27430473518E+02  0.23404746828E+03  0.17200000000E+03 0.  1.
</event>
<event>
 4    1 -0.3240665E-004  0.3233050E+03  0.7818608E-02  0.1074138E+00
         -5   -1    0    0    0  501 -0.00000000000E+00  0.00000000000E+00  0.71763034566E+03  0.71764573643E+03  0.47000000000E+01 0.  1.
          5   -1    0    0  501    0  0.00000000000E+00 -0.00000000000E+00 -0.17297222737E+03  0.17303606977E+03  0.47000000000E+01 0. -1.
          6    1    1    2  502    0  0.27210195893E+03  0.30043679862E+02  0.95214061292E+02  0.33703385026E+03  0.17200000000E+03 0. -1.
         -6    1    1    2    0  502 -0.27210195893E+03 -0.30043679862E+02  0.44944405700E+03  0.55364795595E+03  0.17200000000E+03 0.  1.
</event>
<event>
 4    1 -0.3240665E-004  0.1835296E+03  0.7818608E-02  0.1164430E+00
         -5   -1    0    0    0  501 -0.00000000000E+00  0.00000000000E+00  0.20364703899E+03  0.20370126776E+03  0.47000000000E+01 0.  1.
          5   -1    0    0  501    0  0.00000000000E+00 -0.00000000000E+00 -0.21661271109E+03  0.21666369471E+03  0.47000000000E+01 0. -1.
          6    1    1    2  502    0 -0.23217156916E+02  0.59666291614E+02 -0.10876430063E+03  0.21333723496E+03  0.17200000000E+03 0. -1.
         -6    1    1    2    0  502  0.23217156916E+02 -0.59666291614E+02  0.95798628529E+02  0.20702772751E+03  0.17200000000E+03 0.  1.
</event>
<event>
 4    1 -0.3240665E-004  0.1789508E+03  0.7818608E-02  0.1168822E+00
          5   -1    0    0  501    0  0.00000000000E+00  0.00000000000E+00  0.98637749826E+02  0.98749661725E+02  0.47000000000E+01 0. -1.
         -5   -1    0    0    0  501 -0.00000000000E+00 -0.00000000000E+00 -0.32912635237E+03  0.32915990920E+03  0.47000000000E+01 0.  1.
          6    1    1    2  502    0  0.42878635879E+02 -0.24511766994E+02 -0.89458494582E+02  0.20006555523E+03  0.17200000000E+03 0. -1.
         -6    1    1    2    0  502 -0.42878635879E+02  0.24511766994E+02 -0.14103010796E+03  0.22784401569E+03  0.17200000000E+03 0.  1.
</event>
<event>
 4    1 -0.3240665E-004  0.2238961E+03  0.7818608E-02  0.1131011E+00
         -5   -1    0    0    0  501 -0.00000000000E+00  0.00000000000E+00  0.11664627218E+03  0.11674092176E+03  0.47000000000E+01 0.  1.
          5   -1    0    0  501    0  0.00000000000E+00 -0.00000000000E+00 -0.50404807489E+03  0.50406998701E+03  0.47000000000E+01 0. -1.
          6    1    1    2  502    0 -0.47497448748E+02 -0.13523843600E+03 -0.31308198369E+03  0.38490228724E+03  0.17200000000E+03 0. -1.
         -6    1    1    2    0  502  0.47497448748E+02  0.13523843600E+03 -0.74319819029E+02  0.23590862153E+03  0.17200000000E+03 0.  1.
</event>
<event>
 4    1 -0.3240665E-004  0.1947611E+03  0.7818608E-02  0.1154236E+00
         -5   -1    0    0    0  501 -0.00000000000E+00  0.00000000000E+00  0.39161736513E+03  0.39164556767E+03  0.47000000000E+01 0.  1.
          5   -1    0    0  501    0  0.00000000000E+00 -0.00000000000E+00 -0.10125929851E+03  0.10136831622E+03  0.47000000000E+01 0. -1.
          6    1    1    2  502    0 -0.91291625690E+02  0.37057546249E+01  0.93315736035E+02  0.21596231183E+03  0.17200000000E+03 0. -1.
         -6    1    1    2    0  502  0.91291625690E+02 -0.37057546249E+01  0.19704233059E+03  0.27705157207E+03  0.17200000000E+03 0. -1.
</event>
<event>
 4    1 -0.3240665E-004  0.1952539E+03  0.7818608E-02  0.1153806E+00
          5   -1    0    0  501    0  0.00000000000E+00  0.00000000000E+00  0.25081877013E+03  0.25086280205E+03  0.47000000000E+01 0. -1.
         -5   -1    0    0    0  501 -0.00000000000E+00 -0.00000000000E+00 -0.16993845634E+03  0.17000343804E+03  0.47000000000E+01 0.  1.
          6    1    1    2  502    0 -0.60234058780E+02 -0.70085328847E+02  0.10896772900E+03  0.22360246224E+03  0.17200000000E+03 0. -1.
         -6    1    1    2    0  502  0.60234058780E+02  0.70085328847E+02 -0.28087415210E+02  0.19726377785E+03  0.17200000000E+03 0.  1.
</event>
<event>
 4    1 -0.3240665E-004  0.2667144E+03  0.7818608E-02  0.1103175E+00
          5   -1    0    0  501    0  0.00000000000E+00  0.00000000000E+00  0.44052470188E+02  0.44302484463E+02  0.47000000000E+01 0. -1.
         -5   -1    0    0    0  501 -0.00000000000E+00 -0.00000000000E+00 -0.16200780625E+04  0.16200848801E+04  0.47000000000E+01 0.  1.
          6    1    1    2  502    0  0.23303469797E+02  0.20250804650E+03 -0.85367164904E+03  0.89436672846E+03  0.17200000000E+03 0. -1.
         -6    1    1    2    0  502 -0.23303469797E+02 -0.20250804650E+03 -0.72235394328E+03  0.77002063607E+03  0.17200000000E+03 0.  1.
</event>
<event>
 4    1 -0.3240665E-004  0.1841964E+03  0.7818608E-02  0.1163802E+00
         -5   -1    0    0    0  501 -0.00000000000E+00  0.00000000000E+00  0.80772735268E+02  0.80909361403E+02  0.47000000000E+01 0.  1.
          5   -1    0    0  501    0  0.00000000000E+00 -0.00000000000E+00 -0.47963318657E+03  0.47965621403E+03  0.47000000000E+01 0. -1.
          6    1    1    2  502    0 -0.61491770649E+02  0.23729490875E+02 -0.29862164670E+03  0.35086067672E+03  0.17200000000E+03 0.  1.
         -6    1    1    2    0  502  0.61491770649E+02 -0.23729490875E+02 -0.10023880461E+03  0.20970489871E+03  0.17200000000E+03 0.  1.
</event>
<event>
 4    1 -0.3240665E-004  0.1849260E+03  0.7818608E-02  0.1163119E+00
         -5   -1    0    0    0  501 -0.00000000000E+00  0.00000000000E+00  0.55068216988E+02  0.55268422469E+02  0.47000000000E+01 0.  1.
          5   -1    0    0  501    0  0.00000000000E+00 -0.00000000000E+00 -0.63770404366E+03  0.63772136337E+03  0.47000000000E+01 0. -1.
          6    1    1    2  502    0 -0.45146588451E+02  0.50748416149E+02 -0.23305719767E+03  0.29751180410E+03  0.17200000000E+03 0. -1.
         -6    1    1    2    0  502  0.45146588451E+02 -0.50748416149E+02 -0.34957862900E+03  0.39547798174E+03  0.17200000000E+03 0. -1.
</event>
<event>
 4    1 -0.3240665E-004  0.1726895E+03  0.7818608E-02  0.1175072E+00
         -5   -1    0    0    0  501 -0.00000000000E+00  0.00000000000E+00  0.15193501331E+03  0.15200769148E+03  0.47000000000E+01 0.  1.
          5   -1    0    0  501    0  0.00000000000E+00 -0.00000000000E+00 -0.29014486835E+03  0.29018293305E+03  0.47000000000E+01 0. -1.
          6    1    1    2  502    0 -0.12590978485E+02 -0.88948881787E+01 -0.19493308308E+03  0.26042380585E+03  0.17200000000E+03 0. -1.
         -6    1    1    2    0  502  0.12590978485E+02  0.88948881787E+01  0.56723228038E+02  0.18176681868E+03  0.17200000000E+03 0.  1.
</event>
<event>
 4    1 -0.3240665E-004  0.9795468E+03  0.7818608E-02  0.9331266E-01
          5   -1    0    0  501    0  0.00000000000E+00  0.00000000000E+00  0.10234046917E+04  0.10234154841E+04  0.47000000000E+01 0. -1.
         -5   -1    0    0    0  501 -0.00000000000E+00 -0.00000000000E+00 -0.93785674995E+03  0.93786852673E+03  0.47000000000E+01 0.  1.
          6    1    1    2  502    0 -0.68913105175E+03  0.67455646312E+03  0.24949655467E+02  0.97986453846E+03  0.17200000000E+03 0. -1.
         -6    1    1    2    0  502  0.68913105175E+03 -0.67455646312E+03  0.60598286310E+02  0.98141947236E+03  0.17200000000E+03 0.  1.
</event>
<event>
 4    1 -0.3240665E-004  0.2168246E+03  0.7818608E-02  0.1136273E+00
          5   -1    0    0  501    0  0.00000000000E+00  0.00000000000E+00  0.23854534506E+03  0.23859164204E+03  0.47000000000E+01 0. -1.
         -5   -1    0    0    0  501 -0.00000000000E+00 -0.00000000000E+00 -0.24770072157E+03  0.24774530766E+03  0.47000000000E+01 0.  1.
          6    1    1    2  502    0 -0.19264989356E+02  0.13060531711E+03  0.10542845621E+03  0.24109759031E+03  0.17200000000E+03 0. -1.
         -6    1    1    2    0  502  0.19264989356E+02 -0.13060531711E+03 -0.11458383272E+03  0.24523935939E+03  0.17200000000E+03 0.  1.
</event>
<event>
 4    1 -0.3240665E-004  0.5268094E+03  0.7818608E-02  0.1007009E+00
          5   -1    0    0  501    0  0.00000000000E+00  0.00000000000E+00  0.11875720693E+04  0.11875813697E+04  0.47000000000E+01 0. -1.
         -5   -1    0    0    0  501 -0.00000000000E+00 -0.00000000000E+00 -0.42616693276E+03  0.42619284905E+03  0.47000000000E+01 0.  1.
          6    1    1    2  502    0 -0.21487397239E+03 -0.44919181122E+03  0.92298168294E+03  0.10627432871E+04  0.17200000000E+03 0. -1.
         -6    1    1    2    0  502  0.21487397239E+03  0.44919181122E+03 -0.16157654643E+03  0.55103093165E+03  0.17200000000E+03 0.  1.
</event>
<event>
 4    1 -0.3240665E-004  0.1768243E+03  0.7818608E-02  0.1170912E+00
         -5   -1    0    0    0  501 -0.00000000000E+00  0.00000000000E+00  0.17293659933E+03  0.17300045488E+03  0.47000000000E+01 0.  1.
          5   -1    0    0  501    0  0.00000000000E+00 -0.00000000000E+00 -0.24989787148E+03  0.24994206563E+03  0.47000000000E+01 0. -1.
          6    1    1    2  502    0  0.40745850905E+02  0.47530581242E+01 -0.14975743231E+03  0.23171988361E+03  0.17200000000E+03 0. -1.
         -6    1    1    2    0  502 -0.40745850905E+02 -0.47530581242E+01  0.72796160158E+02  0.19122263690E+03  0.17200000000E+03 0.  1.
</event>
<event>
 4    1 -0.3240665E-004  0.1759719E+03  0.7818608E-02  0.1171759E+00
         -5   -1    0    0    0  501 -0.00000000000E+00  0.00000000000E+00  0.15468324925E+04  0.15468396329E+04  0.47000000000E+01 0.  1.
          5   -1    0    0  501    0  0.00000000000E+00 -0.00000000000E+00 -0.20595537768E+02  0.21125013040E+02  0.47000000000E+01 0. -1.
          6    1    1    2  502    0 -0.24709981290E+02 -0.27776556749E+02  0.92119775527E+03  0.93785469268E+03  0.17200000000E+03 0.  1.
         -6    1    1    2    0  502  0.24709981290E+02  0.27776556749E+02  0.60503919948E+03  0.63010995325E+03  0.17200000000E+03 0. -1.
</event>
<event>
 4    1 -0.3240665E-004  0.2410009E+03  0.7818608E-02  0.1119128E+00
         -5   -1    0    0    0  501 -0.00000000000E+00  0.00000000000E+00  0.13055408179E+04  0.13055492780E+04  0.47000000000E+01 0.  1.
          5   -1    0    0  501    0  0.00000000000E+00 -0.00000000000E+00 -0.50794169819E+02  0.51011152581E+02  0.47000000000E+01 0. -1.
          6    1    1    2  502    0  0.10375596296E+03 -0.13316214852E+03  0.38645694918E+03  0.45544531090E+03  0.17200000000E+03 0.  1.
         -6    1    1    2    0  502 -0.10375596296E+03  0.13316214852E+03  0.86828969891E+03  0.90111511966E+03  0.17200000000E+03 0.  1.
</event>
<event>
 4    1 -0.3240665E-004  0.2480759E+03  0.7818608E-02  0.1114527E+00
          5   -1    0    0  501    0  0.00000000000E+00  0.00000000000E+00  0.81831926283E+03  0.81833275990E+03  0.47000000000E+01 0. -1.
         -5   -1    0    0    0  501 -0.00000000000E+00 -0.00000000000E+00 -0.76076759586E+02  0.76221803633E+02  0.47000000000E+01 0.  1.
          6    1    1    2  502    0  0.17230166218E+03  0.47642559300E+02  0.42129601719E+03  0.48890900007E+03  0.17200000000E+03 0.  1.
         -6    1    1    2    0  502 -0.17230166218E+03 -0.47642559300E+02  0.32094648606E+03  0.40564556347E+03  0.17200000000E+03 0. -1.
</event>
<event>
 4    1 -0.3240665E-004  0.2044285E+03  0.7818608E-02  0.1146056E+00
         -5   -1    0    0    0  501 -0.00000000000E+00  0.00000000000E+00  0.23536168031E+03  0.23540860340E+03  0.47000000000E+01 0.  1.
          5   -1    0    0  501    0  0.00000000000E+00 -0.00000000000E+00 -0.23839616611E+03  0.23844249205E+03  0.47000000000E+01 0. -1.
          6    1    1    2  502    0  0.98840801756E+02 -0.49371062855E+02 -0.12127113770E+03  0.23769243736E+03  0.17200000000E+03 0.  1.
         -6    1    1    2    0  502 -0.98840801756E+02  0.49371062855E+02  0.11823665190E+03  0.23615865809E+03  0.17200000000E+03 0.  1.
</event>
<event>
 4    1 -0.3240665E-004  0.3786753E+03  0.7818608E-02  0.1051424E+00
         -5   -1    0    0    0  501 -0.00000000000E+00  0.00000000000E+00  0.27502282990E+03  0.27506298727E+03  0.47000000000E+01 0.  1.
          5   -1    0    0  501    0  0.00000000000E+00 -0.00000000000E+00 -0.59147951519E+03  0.59149818841E+03  0.47000000000E+01 0. -1.
          6    1    1    2  502    0 -0.33542365014E+03  0.36082509221E+02 -0.30746297291E+03  0.48777910191E+03  0.17200000000E+03 0. -1.
         -6    1    1    2    0  502  0.33542365014E+03 -0.36082509221E+02 -0.89937123784E+01  0.37878207377E+03  0.17200000000E+03 0.  1.
</event>
<event>
 4    1 -0.3240665E-004  0.2230387E+03  0.7818608E-02  0.1131638E+00
          5   -1    0    0  501    0  0.00000000000E+00  0.00000000000E+00  0.13743474515E+04  0.13743554881E+04  0.47000000000E+01 0. -1.
         -5   -1    0    0    0  501 -0.00000000000E+00 -0.00000000000E+00 -0.36726047691E+02  0.37025566559E+02  0.47000000000E+01 0.  1.
          6    1    1    2  502    0 -0.70182044805E+02 -0.12343712813E+03  0.57245197108E+03  0.61436756361E+03  0.17200000000E+03 0. -1.
         -6    1    1    2    0  502  0.70182044805E+02  0.12343712813E+03  0.76516943277E+03  0.79701349101E+03  0.17200000000E+03 0. -1.
</event>
<event>
 4    1 -0.3240665E-004  0.2123700E+03  0.7818608E-02  0.1139703E+00
          5   -1    0    0  501    0  0.00000000000E+00  0.00000000000E+00  0.20774064160E+03  0.20779380205E+03  0.47000000000E+01 0. -1.
         -5   -1    0    0    0  501 -0.00000000000E+00 -0.00000000000E+00 -0.21997079305E+03  0.22002099853E+03  0.47000000000E+01 0.  1.
          6    1    1    2  502    0  0.16275150565E+02  0.12349949624E+03  0.18754204564E+02  0.21319644998E+03  0.17200000000E+03 0. -1.
         -6    1    1    2    0  502 -0.16275150565E+02 -0.12349949624E+03 -0.30984356021E+02  0.21461835060E+03  0.17200000000E+03 0.  1.
</event>
<event>
 4    1 -0.3240665E-004  0.2136542E+03  0.7818608E-02  0.1138705E+00
         -5   -1    0    0    0  501 -0.00000000000E+00  0.00000000000E+00  0.95918020714E+03  0.95919172211E+03  0.47000000000E+01 0.  1.
          5   -1    0    0  501    0  0.00000000000E+00 -0.00000000000E+00 -0.48498715505E+02  0.48725921291E+02  0.47000000000E+01 0. -1.
          6    1    1    2  502    0 -0.24300810785E+02 -0.12439279143E+03  0.38187237785E+03  0.43757811752E+03  0.17200000000E+03 0. -1.
         -6    1    1    2    0  502  0.24300810785E+02  0.12439279143E+03  0.52880911378E+03  0.57033952589E+03  0.17200000000E+03 0.  1.
</event>
<event>
 4    1 -0.3240665E-004  0.6740871E+03  0.7818608E-02  0.9762603E-01
         -5   -1    0    0    0  501 -0.00000000000E+00  0.00000000000E+00  0.15244350058E+04  0.15244422511E+04  0.47000000000E+01 0.  1.
          5   -1    0    0  501    0  0.00000000000E+00 -0.00000000000E+00 -0.35830750923E+03  0.35833833338E+03  0.47000000000E+01 0. -1.
          6    1    1    2  502    0  0.63386192307E+03 -0.15175123334E+03  0.19702237580E+03  0.70228996212E+03  0.17200000000E+03 0. -1.
         -6    1    1    2    0  502 -0.63386192307E+03  0.15175123334E+03  0.96910512075E+03  0.11804906223E+04  0.17200000000E+03 0.  1.
</event>
<event>
 4    1 -0.3240665E-004  0.5021672E+03  0.7818608E-02  0.1013215E+00
         -5   -1    0    0    0  501 -0.00000000000E+00  0.00000000000E+00  0.20287208512E+03  0.20292652099E+03  0.47000000000E+01 0.  1.
          5   -1    0    0  501    0  0.00000000000E+00 -0.00000000000E+00 -0.15086964092E+04  0.15087037301E+04  0.47000000000E+01 0. -1.
          6    1    1    2  502    0  0.39214724940E+03 -0.26231362357E+03 -0.10121975370E+04  0.11299184733E+04  0.17200000000E+03 0. -1.
         -6    1    1    2    0  502 -0.39214724940E+03  0.26231362357E+03 -0.29362678706E+03  0.58171177777E+03  0.17200000000E+03 0.  1.
</event>
<event>
 4    1 -0.3240665E-004  0.2102436E+03  0.7818608E-02  0.1141373E+00
          5   -1    0    0  501    0  0.00000000000E+00  0.00000000000E+00  0.19015426315E+04  0.19015484399E+04  0.47000000000E+01 0. -1.
         -5   -1    0    0    0  501 -0.00000000000E+00 -0.00000000000E+00 -0.23142820522E+02  0.23615252311E+02  0.47000000000E+01 0.  1.
          6    1    1    2  502    0 -0.56678989157E+02 -0.10679819558E+03  0.10135066453E+04  0.10350836113E+04  0.17200000000E+03 0. -1.
         -6    1    1    2    0  502  0.56678989157E+02  0.10679819558E+03  0.86489316569E+03  0.89008008091E+03  0.17200000000E+03 0.  1.
</event>
<event>
 4    1 -0.3240665E-004  0.2414688E+03  0.7818608E-02  0.1118818E+00
         -5   -1    0    0    0  501 -0.00000000000E+00  0.00000000000E+00  0.27816908850E+03  0.27820879173E+03  0.47000000000E+01 0.  1.
          5   -1    0    0  501    0  0.00000000000E+00 -0.00000000000E+00 -0.39414783763E+03  0.39417585912E+03  0.47000000000E+01 0. -1.
          6    1    1    2  502    0 -0.18910885397E+02 -0.16842072880E+03 -0.28805489735E+03  0.37587602659E+03  0.17200000000E+03 0. -1.
         -6    1    1    2    0  502  0.18910885397E+02  0.16842072880E+03  0.17207614821E+03  0.29650862426E+03  0.17200000000E+03 0.  1.
</event>
<event>
 4    1 -0.3240665E-004  0.3950845E+03  0.7818608E-02  0.1045495E+00
         -5   -1    0    0    0  501 -0.00000000000E+00  0.00000000000E+00  0.82503312064E+03  0.82504650788E+03  0.47000000000E+01 0.  1.
          5   -1    0    0  501    0  0.00000000000E+00 -0.00000000000E+00 -0.21149213974E+03  0.21154435745E+03  0.47000000000E+01 0. -1.
          6    1    1    2  502    0 -0.33999337464E+03 -0.10446186419E+03  0.13834111890E+03  0.41860487461E+03  0.17200000000E+03 0. -1.
         -6    1    1    2    0  502  0.33999337464E+03  0.10446186419E+03  0.47519986201E+03  0.61798599072E+03  0.17200000000E+03 0.  1.
</event>
<event>
 4    1 -0.3240665E-004  0.2361559E+03  0.7818608E-02  0.1122380E+00
          5   -1    0    0  501    0  0.00000000000E+00  0.00000000000E+00  0.23375241703E+03  0.23379966310E+03  0.47000000000E+01 0. -1.
         -5   -1    0    0    0  501 -0.00000000000E+00 -0.00000000000E+00 -0.25237943034E+03  0.25242319001E+03  0.47000000000E+01 0.  1.
          6    1    1    2  502    0 -0.14348947337E+03  0.74809037555E+02  0.47709079656E+02  0.24092691288E+03  0.17200000000E+03 0.  1.
         -6    1    1    2    0  502  0.14348947337E+03 -0.74809037555E+02 -0.66336092965E+02  0.24529594024E+03  0.17200000000E+03 0.  1.
</event>
<event>
 4    1 -0.3240665E-004  0.1871110E+03  0.7818608E-02  0.1161093E+00
          5   -1    0    0  501    0  0.00000000000E+00  0.00000000000E+00  0.99751525191E+03  0.99752632436E+03  0.47000000000E+01 0. -1.
         -5   -1    0    0    0  501 -0.00000000000E+00 -0.00000000000E+00 -0.72363979338E+02  0.72516449896E+02  0.47000000000E+01 0.  1.
          6    1    1    2  502    0 -0.53350349427E+02 -0.50796226519E+02  0.84673836991E+03  0.86716571859E+03  0.17200000000E+03 0. -1.
         -6    1    1    2    0  502  0.53350349427E+02  0.50796226519E+02  0.78412902656E+02  0.20287705567E+03  0.17200000000E+03 0.  1.
</event>
<event>
 4    1 -0.3240665E-004  0.2163519E+03  0.7818608E-02  0.1136632E+00
          5   -1    0    0  501    0  0.00000000000E+00  0.00000000000E+00  0.42535272359E+02  0.42794151407E+02  0.47000000000E+01 0. -1.
         -5   -1    0    0    0  501 -0.00000000000E+00 -0.00000000000E+00 -0.10983596684E+04  0.10983697243E+04  0.47000000000E+01 0.  1.
          6    1    1    2  502    0 -0.13068960177E+03  0.12015723272E+02 -0.54904690333E+03  0.59013612978E+03  0.17200000000E+03 0. -1.
         -6    1    1    2    0  502  0.13068960177E+03 -0.12015723272E+02 -0.50677749272E+03  0.55102774590E+03  0.17200000000E+03 0.  1.
</event>
<event>
 4    1 -0.3240665E-004  0.3093703E+03  0.7818608E-02  0.1080648E+00
         -5   -1    0    0    0  501 -0.00000000000E+00  0.00000000000E+00  0.25487308027E+03  0.25491641188E+03  0.47000000000E+01 0.  1.
          5   -1    0    0  501    0  0.00000000000E+00 -0.00000000000E+00 -0.44987745277E+03  0.44990200323E+03  0.47000000000E+01 0. -1.
          6    1    1    2  502    0 -0.62225892858E+02  0.24950737188E+03 -0.24084978244E+03  0.39206964696E+03  0.17200000000E+03 0. -1.
         -6    1    1    2    0  502  0.62225892858E+02 -0.24950737188E+03  0.45845409934E+02  0.31274876815E+03  0.17200000000E+03 0.  1.
</event>
<event>
 4    1 -0.3240665E-004  0.8919018E+03  0.7818608E-02  0.9435762E-01
          5   -1    0    0  501    0  0.00000000000E+00  0.00000000000E+00  0.12579088643E+04  0.12579176448E+04  0.47000000000E+01 0. -1.
         -5   -1    0    0    0  501 -0.00000000000E+00 -0.00000000000E+00 -0.97568255003E+03  0.97569387025E+03  0.47000000000E+01 0.  1.
          6    1    1    2  502    0 -0.73981899725E+03 -0.46751752032E+03  0.80357822803E+03  0.12005110366E+04  0.17200000000E+03 0. -1.
         -6    1    1    2    0  502  0.73981899725E+03  0.46751752032E+03 -0.52135191372E+03  0.10331004784E+04  0.17200000000E+03 0.  1.
</event>
<event>
 4    1 -0.3240665E-004  0.1812992E+03  0.7818608E-02  0.1166552E+00
          5   -1    0    0  501    0  0.00000000000E+00  0.00000000000E+00  0.16700669074E+03  0.16707281273E+03  0.47000000000E+01 0. -1.
         -5   -1    0    0    0  501 -0.00000000000E+00 -0.00000000000E+00 -0.27500200912E+03  0.27504216953E+03  0.47000000000E+01 0.  1.
          6    1    1    2  502    0  0.63240762166E+01  0.56968314341E+02  0.63948694700E+02  0.19224676417E+03  0.17200000000E+03 0. -1.
         -6    1    1    2    0  502 -0.63240762166E+01 -0.56968314341E+02 -0.17194401308E+03  0.24986821809E+03  0.17200000000E+03 0.  1.
</event>
<event>
 4    1 -0.3240665E-004  0.1789035E+03  0.7818608E-02  0.1168868E+00
          5   -1    0    0  501    0  0.00000000000E+00  0.00000000000E+00  0.39245881267E+03  0.39248695474E+03  0.47000000000E+01 0. -1.
         -5   -1    0    0    0  501 -0.00000000000E+00 -0.00000000000E+00 -0.81874599494E+02  0.82009389964E+02  0.47000000000E+01 0.  1.
          6    1    1    2  502    0 -0.15150801533E+02 -0.46828496502E+02  0.13832187286E+03  0.22614021178E+03  0.17200000000E+03 0. -1.
         -6    1    1    2    0  502  0.15150801533E+02  0.46828496502E+02  0.17226234031E+03  0.24835613293E+03  0.17200000000E+03 0.  1.
</event>
<event>
 4    1 -0.3240665E-004  0.2389905E+03  0.7818608E-02  0.1120467E+00
          5   -1    0    0  501    0  0.00000000000E+00  0.00000000000E+00  0.13272207289E+03  0.13280526583E+03  0.47000000000E+01 0. -1.
         -5   -1    0    0    0  501 -0.00000000000E+00 -0.00000000000E+00 -0.63923541316E+03  0.63925269138E+03  0.47000000000E+01 0.  1.
          6    1    1    2  502    0  0.26861162334E+02 -0.16374048871E+03 -0.32480815915E+02  0.24118763046E+03  0.17200000000E+03 0. -1.
         -6    1    1    2    0  502 -0.26861162334E+02  0.16374048871E+03 -0.47403252435E+03  0.53087032675E+03  0.17200000000E+03 0.  1.
</event>
<event>
 4    1 -0.3240665E-004  0.1871510E+03  0.7818608E-02  0.1161056E+00
         -5   -1    0    0    0  501 -0.00000000000E+00  0.00000000000E+00  0.88663033358E+02  0.88787518741E+02  0.47000000000E+01 0.  1.
          5   -1    0    0  501    0  0.00000000000E+00 -0.00000000000E+00 -0.40813927777E+03  0.40816633871E+03  0.47000000000E+01 0. -1.
          6    1    1    2  502    0 -0.42321727012E+02 -0.60418422647E+02 -0.20494398214E+03  0.27753837607E+03  0.17200000000E+03 0. -1.
         -6    1    1    2    0  502  0.42321727012E+02  0.60418422647E+02 -0.11453226227E+03  0.21941548139E+03  0.17200000000E+03 0.  1.
</event>
<event>
 4    1 -0.3240665E-004  0.4190767E+03  0.7818608E-02  0.1037367E+00
         -5   -1    0    0    0  501 -0.00000000000E+00  0.00000000000E+00  0.19171904422E+03  0.19177664591E+03  0.47000000000E+01 0.  1.
          5   -1    0    0  501    0  0.00000000000E+00 -0.00000000000E+00 -0.19478260693E+04  0.19478317397E+04  0.47000000000E+01 0. -1.
          6    1    1    2  502    0 -0.37958243356E+03  0.44254310382E+02 -0.16567276156E+04  0.17089094944E+04  0.17200000000E+03 0. -1.
         -6    1    1    2    0  502  0.37958243356E+03 -0.44254310382E+02 -0.99379409488E+02  0.43069889121E+03  0.17200000000E+03 0.  1.
</event>
<event>
 4    1 -0.3240665E-004  0.2075884E+03  0.7818608E-02  0.1143490E+00
         -5   -1    0    0    0  501 -0.00000000000E+00  0.00000000000E+00  0.40957855047E+03  0.40960551632E+03  0.47000000000E+01 0.  1.
          5   -1    0    0  501    0  0.00000000000E+00 -0.00000000000E+00 -0.19764676369E+03  0.19770263832E+03  0.47000000000E+01 0. -1.
          6    1    1    2  502    0  0.11360535866E+03 -0.24551300363E+02 -0.10172937219E+03  0.23117484515E+03  0.17200000000E+03 0. -1.
         -6    1    1    2    0  502 -0.11360535866E+03  0.24551300363E+02  0.31366115896E+03  0.37613330949E+03  0.17200000000E+03 0.  1.
</event>
<event>
 4    1 -0.3240665E-004  0.2075421E+03  0.7818608E-02  0.1143527E+00
         -5   -1    0    0    0  501 -0.00000000000E+00  0.00000000000E+00  0.44884146375E+03  0.44886607088E+03  0.47000000000E+01 0.  1.
          5   -1    0    0  501    0  0.00000000000E+00 -0.00000000000E+00 -0.11804521031E+03  0.11813873911E+03  0.47000000000E+01 0. -1.
          6    1    1    2  502    0 -0.68101713573E+02 -0.94084467785E+02  0.28817457888E+03  0.35513141002E+03  0.17200000000E+03 0.  1.
         -6    1    1    2    0  502  0.68101713573E+02  0.94084467785E+02  0.42621674564E+02  0.21187339996E+03  0.17200000000E+03 0.  1.
</event>
<event>
 4    1 -0.3240665E-004  0.2135405E+03  0.7818608E-02  0.1138793E+00
         -5   -1    0    0    0  501 -0.00000000000E+00  0.00000000000E+00  0.15970516581E+03  0.15977430953E+03  0.47000000000E+01 0.  1.
          5   -1    0    0  501    0  0.00000000000E+00 -0.00000000000E+00 -0.28537687966E+03  0.28541558024E+03  0.47000000000E+01 0. -1.
          6    1    1    2  502    0 -0.10694110531E+03  0.67669514966E+02 -0.62027538979E+02  0.22236676652E+03  0.17200000000E+03 0. -1.
         -6    1    1    2    0  502  0.10694110531E+03 -0.67669514966E+02 -0.63644174876E+02  0.22282312325E+03  0.17200000000E+03 0.  1.
</event>
<event>
 4    1 -0.3240665E-004  0.2266664E+03  0.7818608E-02  0.1129008E+00
          5   -1    0    0  501    0  0.00000000000E+00  0.00000000000E+00  0.12144519469E+03  0.12153610703E+03  0.47000000000E+01 0. -1.
         -5   -1    0    0    0  501 -0.00000000000E+00 -0.00000000000E+00 -0.86670409041E+03  0.86671683400E+03  0.47000000000E+01 0.  1.
          6    1    1    2  502    0 -0.14680388917E+03 -0.15565623164E+02 -0.19019485676E+02  0.22746298894E+03  0.17200000000E+03 0. -1.
         -6    1    1    2    0  502  0.14680388917E+03  0.15565623164E+02 -0.72623941005E+03  0.76078995210E+03  0.17200000000E+03 0.  1.
</event>
<event>
 4    1 -0.3240665E-004  0.1761427E+03  0.7818608E-02  0.1171589E+00
         -5   -1    0    0    0  501 -0.00000000000E+00  0.00000000000E+00  0.22654882452E+03  0.22659757257E+03  0.47000000000E+01 0.  1.
          5   -1    0    0  501    0  0.00000000000E+00 -0.00000000000E+00 -0.14787616735E+03  0.14795083937E+03  0.47000000000E+01 0. -1.
          6    1    1    2  502    0  0.58526296424E+01  0.37523345921E+02 -0.11784368134E+02  0.17653647242E+03  0.17200000000E+03 0. -1.
         -6    1    1    2    0  502 -0.58526296424E+01 -0.37523345921E+02  0.90457025308E+02  0.19801193952E+03  0.17200000000E+03 0.  1.
</event>
<event>
 4    1 -0.3240665E-004  0.2020180E+03  0.7818608E-02  0.1148047E+00
          5   -1    0    0  501    0  0.00000000000E+00  0.00000000000E+00  0.75695172718E+02  0.75840946545E+02  0.47000000000E+01 0. -1.
         -5   -1    0    0    0  501 -0.00000000000E+00 -0.00000000000E+00 -0.55484802634E+03  0.55486793234E+03  0.47000000000E+01 0.  1.
          6    1    1    2  502    0 -0.70652963272E+02 -0.78964820653E+02 -0.18541791339E+03  0.27420993185E+03  0.17200000000E+03 0. -1.
         -6    1    1    2    0  502  0.70652963272E+02  0.78964820653E+02 -0.29373494023E+03  0.35649894703E+03  0.17200000000E+03 0. -1.
</event>
<event>
 4    1 -0.3240665E-004  0.2220611E+03  0.7818608E-02  0.1132356E+00
          5   -1    0    0  501    0  0.00000000000E+00  0.00000000000E+00  0.35734978504E+03  0.35738069180E+03  0.47000000000E+01 0. -1.
         -5   -1    0    0    0  501 -0.00000000000E+00 -0.00000000000E+00 -0.13793717008E+03  0.13801721954E+03  0.47000000000E+01 0.  1.
          6    1    1    2  502    0  0.61249255917E+02 -0.12639480378E+03  0.11289650793E+03  0.24911190111E+03  0.17200000000E+03 0.  1.
         -6    1    1    2    0  502 -0.61249255917E+02  0.12639480378E+03  0.10651610704E+03  0.24628601022E+03  0.17200000000E+03 0.  1.
</event>
<event>
 4    1 -0.3240665E-004  0.2098963E+03  0.7818608E-02  0.1141648E+00
          5   -1    0    0  501    0  0.00000000000E+00  0.00000000000E+00  0.70965032578E+03  0.70966588961E+03  0.47000000000E+01 0. -1.
         -5   -1    0    0    0  501 -0.00000000000E+00 -0.00000000000E+00 -0.74020930468E+02  0.74169994926E+02  0.47000000000E+01 0.  1.
          6    1    1    2  502    0  0.51214251517E+02 -0.10885568125E+03  0.47571487330E+03  0.51996259440E+03  0.17200000000E+03 0. -1.
         -6    1    1    2    0  502 -0.51214251517E+02  0.10885568125E+03  0.15991452202E+03  0.26387329014E+03  0.17200000000E+03 0.  1.
</event>
<event>
 4    1 -0.3240665E-004  0.2523068E+03  0.7818608E-02  0.1111856E+00
         -5   -1    0    0    0  501 -0.00000000000E+00  0.00000000000E+00  0.99801812616E+03  0.99802919303E+03  0.47000000000E+01 0.  1.
          5   -1    0    0  501    0  0.00000000000E+00 -0.00000000000E+00 -0.70766078332E+02  0.70921984197E+02  0.47000000000E+01 0. -1.
          6    1    1    2  502    0  0.84978837462E+02 -0.16386976993E+03  0.29479110195E+03  0.38802125986E+03  0.17200000000E+03 0.  1.
         -6    1    1    2    0  502 -0.84978837462E+02  0.16386976993E+03  0.63246094587E+03  0.68092991737E+03  0.17200000000E+03 0.  1.
</event>
<event>
 4    1 -0.3240665E-004  0.2090790E+03  0.7818608E-02  0.1142297E+00
          5   -1    0    0  501    0  0.00000000000E+00  0.00000000000E+00  0.38220338330E+02  0.38508236288E+02  0.47000000000E+01 0. -1.
         -5   -1    0    0    0  501 -0.00000000000E+00 -0.00000000000E+00 -0.12015422763E+04  0.12015514686E+04  0.47000000000E+01 0.  1.
          6    1    1    2  502    0 -0.21985812973E+02 -0.11681891986E+03 -0.44039313707E+03  0.48750400120E+03  0.17200000000E+03 0. -1.
         -6    1    1    2    0  502  0.21985812973E+02  0.11681891986E+03 -0.72292880091E+03  0.75255570371E+03  0.17200000000E+03 0.  1.
</event>
<event>
 4    1 -0.3240665E-004  0.2025612E+03  0.7818608E-02  0.1147596E+00
         -5   -1    0    0    0  501 -0.00000000000E+00  0.00000000000E+00  0.34073839949E+02  0.34396461575E+02  0.47000000000E+01 0.  1.
          5   -1    0    0  501    0  0.00000000000E+00 -0.00000000000E+00 -0.14947974873E+04  0.14948048763E+04  0.47000000000E+01 0. -1.
          6    1    1    2  502    0  0.93795874784E+02  0.51472011784E+02 -0.10709226587E+04  0.10899111776E+04  0.17200000000E+03 0. -1.
         -6    1    1    2    0  502 -0.93795874784E+02 -0.51472011784E+02 -0.38980098872E+03  0.43929016029E+03  0.17200000000E+03 0.  1.
</event>
<event>
 4    1 -0.3240665E-004  0.2034937E+03  0.7818608E-02  0.1146824E+00
         -5   -1    0    0    0  501 -0.00000000000E+00  0.00000000000E+00  0.65531089167E+03  0.65532774605E+03  0.47000000000E+01 0.  1.
          5   -1    0    0  501    0  0.00000000000E+00 -0.00000000000E+00 -0.65887524328E+02  0.66054945780E+02  0.47000000000E+01 0. -1.
          6    1    1    2  502    0 -0.68214254770E+02 -0.84690620702E+02  0.22043937073E+03  0.30000533655E+03  0.17200000000E+03 0. -1.
         -6    1    1    2    0  502  0.68214254770E+02  0.84690620702E+02  0.36898399662E+03  0.42137735529E+03  0.17200000000E+03 0.  1.
</event>
<event>
 4    1 -0.3240665E-004  0.1765013E+03  0.7818608E-02  0.1171233E+00
          5   -1    0    0  501    0  0.00000000000E+00  0.00000000000E+00  0.67721216619E+03  0.67722847551E+03  0.47000000000E+01 0. -1.
         -5   -1    0    0    0  501 -0.00000000000E+00 -0.00000000000E+00 -0.54189092380E+02  0.54392533798E+02  0.47000000000E+01 0.  1.
          6    1    1    2  502    0  0.39589702780E+02 -0.11644681887E+01  0.45457583516E+03  0.48763909858E+03  0.17200000000E+03 0. -1.
         -6    1    1    2    0  502 -0.39589702780E+02  0.11644681887E+01  0.16844723866E+03  0.24398191073E+03  0.17200000000E+03 0.  1.
</event>
<event>
 4    1 -0.3240665E-004  0.1913750E+03  0.7818608E-02  0.1157227E+00
         -5   -1    0    0    0  501 -0.00000000000E+00  0.00000000000E+00  0.12476563438E+03  0.12485412898E+03  0.47000000000E+01 0.  1.
          5   -1    0    0  501    0  0.00000000000E+00 -0.00000000000E+00 -0.29541337128E+03  0.29545075720E+03  0.47000000000E+01 0. -1.
          6    1    1    2  502    0 -0.59258099468E+02  0.59404129214E+02 -0.10295159913E+03  0.21730946754E+03  0.17200000000E+03 0. -1.
         -6    1    1    2    0  502  0.59258099468E+02 -0.59404129214E+02 -0.67696137763E+02  0.20299541864E+03  0.17200000000E+03 0.  1.
</event>
<event>
 4    1 -0.3240665E-004  0.1725392E+03  0.7818608E-02  0.1175225E+00
         -5   -1    0    0    0  501 -0.00000000000E+00  0.00000000000E+00  0.23316474710E+03  0.23321211223E+03  0.47000000000E+01 0.  1.
          5   -1    0    0  501    0  0.00000000000E+00 -0.00000000000E+00 -0.13343255120E+03  0.13351530145E+03  0.47000000000E+01 0. -1.
          6    1    1    2  502    0  0.13487175414E+02 -0.19670417751E+01  0.11461270807E+02  0.17291944333E+03  0.17200000000E+03 0. -1.
         -6    1    1    2    0  502 -0.13487175414E+02  0.19670417751E+01  0.88270925093E+02  0.19380797035E+03  0.17200000000E+03 0.  1.
</event>
<event>
 4    1 -0.3240665E-004  0.4402087E+03  0.7818608E-02  0.1030683E+00
         -5   -1    0    0    0  501 -0.00000000000E+00  0.00000000000E+00  0.32850216367E+03  0.32853578425E+03  0.47000000000E+01 0.  1.
          5   -1    0    0  501    0  0.00000000000E+00 -0.00000000000E+00 -0.11164256796E+04  0.11164355727E+04  0.47000000000E+01 0. -1.
          6    1    1    2  502    0  0.36448832381E+03  0.17705366348E+03 -0.89014783406E+03  0.99304929607E+03  0.17200000000E+03 0. -1.
         -6    1    1    2    0  502 -0.36448832381E+03 -0.17705366348E+03  0.10222431811E+03  0.45192206093E+03  0.17200000000E+03 0.  1.
</event>
<event>
 4    1 -0.3240665E-004  0.1720992E+03  0.7818608E-02  0.1175676E+00
          5   -1    0    0  501    0  0.00000000000E+00  0.00000000000E+00  0.72316169589E+02  0.72468740737E+02  0.47000000000E+01 0. -1.
         -5   -1    0    0    0  501 -0.00000000000E+00 -0.00000000000E+00 -0.76377087449E+03  0.76378533550E+03  0.47000000000E+01 0.  1.
          6    1    1    2  502    0 -0.13553916393E+01  0.56837117063E+01 -0.60775379148E+02  0.18251517300E+03  0.17200000000E+03 0. -1.
         -6    1    1    2    0  502  0.13553916393E+01 -0.56837117063E+01 -0.63067932576E+03  0.65373890324E+03  0.17200000000E+03 0.  1.
</event>
<event>
 4    1 -0.3240665E-004  0.2314036E+03  0.7818608E-02  0.1125656E+00
         -5   -1    0    0    0  501 -0.00000000000E+00  0.00000000000E+00  0.62644705585E+03  0.62646468678E+03  0.47000000000E+01 0.  1.
          5   -1    0    0  501    0  0.00000000000E+00 -0.00000000000E+00 -0.91525661433E+02  0.91646258520E+02  0.47000000000E+01 0. -1.
          6    1    1    2  502    0 -0.10489462796E+03 -0.11384532597E+03  0.36031684369E+03  0.42822408744E+03  0.17200000000E+03 0. -1.
         -6    1    1    2    0  502  0.10489462796E+03  0.11384532597E+03  0.17460455072E+03  0.28988685785E+03  0.17200000000E+03 0. -1.
</event>
<event>
 4    1 -0.3240665E-004  0.2156728E+03  0.7818608E-02  0.1137151E+00
          5   -1    0    0  501    0  0.00000000000E+00  0.00000000000E+00  0.12996660772E+03  0.13005156332E+03  0.47000000000E+01 0. -1.
         -5   -1    0    0    0  501 -0.00000000000E+00 -0.00000000000E+00 -0.47112002806E+03  0.47114347160E+03  0.47000000000E+01 0.  1.
          6    1    1    2  502    0 -0.89904696456E+02  0.94063246321E+02 -0.31806257979E+03  0.38428967383E+03  0.17200000000E+03 0. -1.
         -6    1    1    2    0  502  0.89904696456E+02 -0.94063246321E+02 -0.23090840552E+02  0.21690536109E+03  0.17200000000E+03 0. -1.
</event>
<event>
 4    1 -0.3240665E-004  0.2815097E+03  0.7818608E-02  0.1094867E+00
         -5   -1    0    0    0  501 -0.00000000000E+00  0.00000000000E+00  0.10388718597E+03  0.10399344887E+03  0.47000000000E+01 0.  1.
          5   -1    0    0  501    0  0.00000000000E+00 -0.00000000000E+00 -0.81772178297E+03  0.81773528990E+03  0.47000000000E+01 0. -1.
          6    1    1    2  502    0 -0.19020787597E+03  0.11612358469E+03 -0.23696876706E+03  0.36796999819E+03  0.17200000000E+03 0. -1.
         -6    1    1    2    0  502  0.19020787597E+03 -0.11612358469E+03 -0.47686582994E+03  0.55375874058E+03  0.17200000000E+03 0.  1.
</event>
<event>
 4    1 -0.3240665E-004  0.1723357E+03  0.7818608E-02  0.1175434E+00
          5   -1    0    0  501    0  0.00000000000E+00  0.00000000000E+00  0.32400227090E+02  0.32739345068E+02  0.47000000000E+01 0. -1.
         -5   -1    0    0    0  501 -0.00000000000E+00 -0.00000000000E+00 -0.98467138001E+03  0.98468259688E+03  0.47000000000E+01 0.  1.
          6    1    1    2  502    0  0.10734882572E+02  0.59896102153E+00 -0.33751483907E+03  0.37896683635E+03  0.17200000000E+03 0. -1.
         -6    1    1    2    0  502 -0.10734882572E+02 -0.59896102153E+00 -0.61475631385E+03  0.63845510561E+03  0.17200000000E+03 0.  1.
</event>
<event>
 4    1 -0.3240665E-004  0.1805528E+03  0.7818608E-02  0.1167269E+00
          5   -1    0    0  501    0  0.00000000000E+00  0.00000000000E+00  0.19313188733E+03  0.19318906776E+03  0.47000000000E+01 0. -1.
         -5   -1    0    0    0  501 -0.00000000000E+00 -0.00000000000E+00 -0.18840046425E+03  0.18845908025E+03  0.47000000000E+01 0.  1.
          6    1    1    2  502    0 -0.41962470131E+02  0.35418544734E+02 -0.59355386273E+02  0.19005889637E+03  0.17200000000E+03 0.  1.
         -6    1    1    2    0  502  0.41962470131E+02 -0.35418544734E+02  0.64086809358E+02  0.19158925164E+03  0.17200000000E+03 0. -1.
</event>
<event>
 4    1 -0.3240665E-004  0.1749191E+03  0.7818608E-02  0.1172813E+00
         -5   -1    0    0    0  501 -0.00000000000E+00  0.00000000000E+00  0.25426628147E+03  0.25430971648E+03  0.47000000000E+01 0.  1.
          5   -1    0    0  501    0  0.00000000000E+00 -0.00000000000E+00 -0.12168100521E+03  0.12177174150E+03  0.47000000000E+01 0. -1.
          6    1    1    2  502    0 -0.31767155455E+02  0.18767500007E+01  0.45795165294E+02  0.18081446712E+03  0.17200000000E+03 0.  1.
         -6    1    1    2    0  502  0.31767155455E+02 -0.18767500007E+01  0.86790110972E+02  0.19526699086E+03  0.17200000000E+03 0.  1.
</event>
<event>
 4    1 -0.3240665E-004  0.2224800E+03  0.7818608E-02  0.1132048E+00
          5   -1    0    0  501    0  0.00000000000E+00  0.00000000000E+00  0.82747577271E+03  0.82748912043E+03  0.47000000000E+01 0. -1.
         -5   -1    0    0    0  501 -0.00000000000E+00 -0.00000000000E+00 -0.64819859839E+02  0.64990031770E+02  0.47000000000E+01 0.  1.
          6    1    1    2  502    0 -0.53978688527E+02 -0.13038270794E+03  0.50642106086E+03  0.55313618597E+03  0.17200000000E+03 0. -1.
         -6    1    1    2    0  502  0.53978688527E+02  0.13038270794E+03  0.25623485201E+03  0.33934296623E+03  0.17200000000E+03 0.  1.
</event>
<event>
 4    1 -0.3240665E-004  0.2067768E+03  0.7818608E-02  0.1144144E+00
         -5   -1    0    0    0  501 -0.00000000000E+00  0.00000000000E+00  0.13859369457E+03  0.13867336505E+03  0.47000000000E+01 0.  1.
          5   -1    0    0  501    0  0.00000000000E+00 -0.00000000000E+00 -0.39928190933E+03  0.39930957053E+03  0.47000000000E+01 0. -1.
          6    1    1    2  502    0  0.20495638417E+01 -0.11475387646E+03 -0.25871725239E+03  0.33119672335E+03  0.17200000000E+03 0. -1.
         -6    1    1    2    0  502 -0.20495638417E+01  0.11475387646E+03 -0.19709623749E+01  0.20678621223E+03  0.17200000000E+03 0.  1.
</event>
<event>
 4    1 -0.3240665E-004  0.1926651E+03  0.7818608E-02  0.1156079E+00
         -5   -1    0    0    0  501 -0.00000000000E+00  0.00000000000E+00  0.70502244083E+03  0.70503810683E+03  0.47000000000E+01 0.  1.
          5   -1    0    0  501    0  0.00000000000E+00 -0.00000000000E+00 -0.54072746918E+02  0.54276624427E+02  0.47000000000E+01 0. -1.
          6    1    1    2  502    0  0.59214039391E+02 -0.63478653413E+02  0.38948389157E+03  0.43453140703E+03  0.17200000000E+03 0.  1.
         -6    1    1    2    0  502 -0.59214039391E+02  0.63478653413E+02  0.26146580234E+03  0.32478332423E+03  0.17200000000E+03 0.  1.
</event>
<event>
 4    1 -0.3240665E-004  0.2876025E+03  0.7818608E-02  0.1091608E+00
          5   -1    0    0  501    0  0.00000000000E+00  0.00000000000E+00  0.21142858397E+03  0.21148081738E+03  0.47000000000E+01 0. -1.
         -5   -1    0    0    0  501 -0.00000000000E+00 -0.00000000000E+00 -0.44144855359E+03  0.44147357279E+03  0.47000000000E+01 0.  1.
          6    1    1    2  502    0  0.22955839133E+03 -0.20835968099E+02 -0.22525081095E+03  0.36531236008E+03  0.17200000000E+03 0.  1.
         -6    1    1    2    0  502 -0.22955839133E+03  0.20835968099E+02 -0.47691586780E+01  0.28764203008E+03  0.17200000000E+03 0.  1.
</event>
<event>
 4    1 -0.3240665E-004  0.3165273E+03  0.7818608E-02  0.1077259E+00
          5   -1    0    0  501    0  0.00000000000E+00  0.00000000000E+00  0.18412952186E+03  0.18418949704E+03  0.47000000000E+01 0. -1.
         -5   -1    0    0    0  501 -0.00000000000E+00 -0.00000000000E+00 -0.67647826514E+03  0.67649459215E+03  0.47000000000E+01 0.  1.
          6    1    1    2  502    0 -0.24245347580E+03  0.10872820158E+03 -0.43662790030E+03  0.53928974872E+03  0.17200000000E+03 0. -1.
         -6    1    1    2    0  502  0.24245347580E+03 -0.10872820158E+03 -0.55720842978E+02  0.32139434047E+03  0.17200000000E+03 0.  1.
</event>
<event>
 4    1 -0.3240665E-004  0.1813322E+03  0.7818608E-02  0.1166520E+00
          5   -1    0    0  501    0  0.00000000000E+00  0.00000000000E+00  0.20650990606E+03  0.20656338325E+03  0.47000000000E+01 0. -1.
         -5   -1    0    0    0  501 -0.00000000000E+00 -0.00000000000E+00 -0.34153069135E+03  0.34156302952E+03  0.47000000000E+01 0.  1.
          6    1    1    2  502    0 -0.10314052387E+02 -0.56488770030E+02  0.13275237711E+03  0.22473218382E+03  0.17200000000E+03 0. -1.
         -6    1    1    2    0  502  0.10314052387E+02  0.56488770030E+02 -0.26777316240E+03  0.32339422895E+03  0.17200000000E+03 0.  1.
</event>
<event>
 4    1 -0.3240665E-004  0.2523150E+03  0.7818608E-02  0.1111850E+00
          5   -1    0    0  501    0  0.00000000000E+00  0.00000000000E+00  0.12427978245E+04  0.12428067117E+04  0.47000000000E+01 0. -1.
         -5   -1    0    0    0  501 -0.00000000000E+00 -0.00000000000E+00 -0.97013393107E+02  0.97127176640E+02  0.47000000000E+01 0.  1.
          6    1    1    2  502    0 -0.18077921535E+03 -0.37386043116E+02  0.10333381568E+04  0.10636966613E+04  0.17200000000E+03 0. -1.
         -6    1    1    2    0  502  0.18077921535E+03  0.37386043116E+02  0.11244627457E+03  0.27623722701E+03  0.17200000000E+03 0.  1.
</event>
<event>
 4    1 -0.3240665E-004  0.2988615E+03  0.7818608E-02  0.1085811E+00
          5   -1    0    0  501    0  0.00000000000E+00  0.00000000000E+00  0.11724859708E+04  0.11724953909E+04  0.47000000000E+01 0. -1.
         -5   -1    0    0    0  501 -0.00000000000E+00 -0.00000000000E+00 -0.76948551462E+02  0.77091955301E+02  0.47000000000E+01 0.  1.
          6    1    1    2  502    0 -0.23157807846E+03  0.78139444501E+02  0.61345945529E+03  0.68238602161E+03  0.17200000000E+03 0. -1.
         -6    1    1    2    0  502  0.23157807846E+03 -0.78139444501E+02  0.48207796404E+03  0.56720132460E+03  0.17200000000E+03 0.  1.
</event>
<event>
 4    1 -0.3240665E-004  0.1830546E+03  0.7818608E-02  0.1164879E+00
          5   -1    0    0  501    0  0.00000000000E+00  0.00000000000E+00  0.15699536415E+03  0.15706570079E+03  0.47000000000E+01 0. -1.
         -5   -1    0    0    0  501 -0.00000000000E+00 -0.00000000000E+00 -0.23627464224E+03  0.23632138407E+03  0.47000000000E+01 0.  1.
          6    1    1    2  502    0 -0.61372410720E+02 -0.12585992518E+02  0.21685816021E+02  0.18433462676E+03  0.17200000000E+03 0. -1.
         -6    1    1    2    0  502  0.61372410720E+02  0.12585992518E+02 -0.10096509412E+03  0.20905245809E+03  0.17200000000E+03 0.  1.
</event>
<event>
 4    1 -0.3240665E-004  0.3861038E+03  0.7818608E-02  0.1048701E+00
         -5   -1    0    0    0  501 -0.00000000000E+00  0.00000000000E+00  0.28148879682E+03  0.28152803188E+03  0.47000000000E+01 0.  1.
          5   -1    0    0  501    0  0.00000000000E+00 -0.00000000000E+00 -0.65329735064E+03  0.65331425697E+03  0.47000000000E+01 0. -1.
          6    1    1    2  502    0 -0.29961402011E+03 -0.17240527623E+03 -0.38935898420E+03  0.54833982064E+03  0.17200000000E+03 0. -1.
         -6    1    1    2    0  502  0.29961402011E+03  0.17240527623E+03  0.17550430376E+02  0.38650246821E+03  0.17200000000E+03 0.  1.
</event>
<event>
 4    1 -0.3240665E-004  0.1972302E+03  0.7818608E-02  0.1152097E+00
          5   -1    0    0  501    0  0.00000000000E+00  0.00000000000E+00  0.56575877375E+03  0.56577829586E+03  0.47000000000E+01 0. -1.
         -5   -1    0    0    0  501 -0.00000000000E+00 -0.00000000000E+00 -0.69010772856E+02  0.69170635173E+02  0.47000000000E+01 0.  1.
          6    1    1    2  502    0 -0.42654617264E+02  0.86581345138E+02  0.27111628003E+03  0.33526673410E+03  0.17200000000E+03 0.  1.
         -6    1    1    2    0  502  0.42654617264E+02 -0.86581345138E+02  0.22563172086E+03  0.29968219693E+03  0.17200000000E+03 0. -1.
</event>
<event>
 4    1 -0.3240665E-004  0.2051484E+03  0.7818608E-02  0.1145467E+00
          5   -1    0    0  501    0  0.00000000000E+00  0.00000000000E+00  0.10391541352E+03  0.10402164759E+03  0.47000000000E+01 0. -1.
         -5   -1    0    0    0  501 -0.00000000000E+00 -0.00000000000E+00 -0.43108160036E+03  0.43110722120E+03  0.47000000000E+01 0.  1.
          6    1    1    2  502    0  0.53494413293E+02  0.98184602662E+02 -0.22979603580E+03  0.30804559163E+03  0.17200000000E+03 0.  1.
         -6    1    1    2    0  502 -0.53494413293E+02 -0.98184602662E+02 -0.97370151036E+02  0.22708327716E+03  0.17200000000E+03 0. -1.
</event>
<event>
 4    1 -0.3240665E-004  0.2386348E+03  0.7818608E-02  0.1120706E+00
         -5   -1    0    0    0  501 -0.00000000000E+00  0.00000000000E+00  0.29876275556E+03  0.29879972240E+03  0.47000000000E+01 0.  1.
          5   -1    0    0  501    0  0.00000000000E+00 -0.00000000000E+00 -0.40948639736E+03  0.40951336929E+03  0.47000000000E+01 0. -1.
          6    1    1    2  502    0  0.69765071344E+02  0.14998463763E+03 -0.31430949982E+03  0.39463529795E+03  0.17200000000E+03 0. -1.
         -6    1    1    2    0  502 -0.69765071344E+02 -0.14998463763E+03  0.20358585801E+03  0.31367779375E+03  0.17200000000E+03 0.  1.
</event>
<event>
 4    1 -0.3240665E-004  0.2442055E+03  0.7818608E-02  0.1117023E+00
         -5   -1    0    0    0  501 -0.00000000000E+00  0.00000000000E+00  0.81109158843E+02  0.81245219233E+02  0.47000000000E+01 0.  1.
          5   -1    0    0  501    0  0.00000000000E+00 -0.00000000000E+00 -0.76415495377E+03  0.76416940751E+03  0.47000000000E+01 0. -1.
          6    1    1    2  502    0 -0.73082984079E+02 -0.15719800055E+03 -0.42478586099E+03  0.48997893999E+03  0.17200000000E+03 0. -1.
         -6    1    1    2    0  502  0.73082984079E+02  0.15719800055E+03 -0.25825993393E+03  0.35543568675E+03  0.17200000000E+03 0.  1.
</event>
<event>
 4    1 -0.3240665E-004  0.2102560E+03  0.7818608E-02  0.1141363E+00
          5   -1    0    0  501    0  0.00000000000E+00  0.00000000000E+00  0.42086015755E+03  0.42088640060E+03  0.47000000000E+01 0. -1.
         -5   -1    0    0    0  501 -0.00000000000E+00 -0.00000000000E+00 -0.10502007529E+03  0.10512519305E+03  0.47000000000E+01 0.  1.
          6    1    1    2  502    0 -0.86489727064E+02  0.84517037696E+02  0.16426046358E+03  0.26681286035E+03  0.17200000000E+03 0.  1.
         -6    1    1    2    0  502  0.86489727064E+02 -0.84517037696E+02  0.15157961868E+03  0.25919873330E+03  0.17200000000E+03 0. -1.
</event>
<event>
 4    1 -0.3240665E-004  0.1839364E+03  0.7818608E-02  0.1164047E+00
         -5   -1    0    0    0  501 -0.00000000000E+00  0.00000000000E+00  0.48332347017E+02  0.48560331220E+02  0.47000000000E+01 0.  1.
          5   -1    0    0  501    0  0.00000000000E+00 -0.00000000000E+00 -0.69852745802E+03  0.69854326967E+03  0.47000000000E+01 0. -1.
          6    1    1    2  502    0  0.61754051348E+02 -0.20857677261E+02 -0.33415938592E+03  0.38143820044E+03  0.17200000000E+03 0.  1.
         -6    1    1    2    0  502 -0.61754051348E+02  0.20857677261E+02 -0.31603572509E+03  0.36566540045E+03  0.17200000000E+03 0. -1.
</event>
<event>
 4    1 -0.3240665E-004  0.1966164E+03  0.7818608E-02  0.1152626E+00
          5   -1    0    0  501    0  0.00000000000E+00  0.00000000000E+00  0.76778150292E+03  0.76779588839E+03  0.47000000000E+01 0. -1.
         -5   -1    0    0    0  501 -0.00000000000E+00 -0.00000000000E+00 -0.73794468385E+02  0.73943989372E+02  0.47000000000E+01 0.  1.
          6    1    1    2  502    0  0.92809261828E+02  0.21457855090E+02  0.58452441510E+03  0.61670640541E+03  0.17200000000E+03 0. -1.
         -6    1    1    2    0  502 -0.92809261828E+02 -0.21457855090E+02  0.10946261944E+03  0.22503347236E+03  0.17200000000E+03 0.  1.
</event>
<event>
 4    1 -0.3240665E-004  0.1740448E+03  0.7818608E-02  0.1173694E+00
         -5   -1    0    0    0  501 -0.00000000000E+00  0.00000000000E+00  0.15116245200E+03  0.15123550144E+03  0.47000000000E+01 0.  1.
          5   -1    0    0  501    0  0.00000000000E+00 -0.00000000000E+00 -0.20340585211E+03  0.20346014517E+03  0.47000000000E+01 0. -1.
          6    1    1    2  502    0  0.24516024017E+01 -0.26487141327E+02 -0.48233584951E+02  0.18060470018E+03  0.17200000000E+03 0. -1.
         -6    1    1    2    0  502 -0.24516024017E+01  0.26487141327E+02 -0.40098151498E+01  0.17409094643E+03  0.17200000000E+03 0.  1.
</event>
<event>
 4    1 -0.3240665E-004  0.1852905E+03  0.7818608E-02  0.1162779E+00
          5   -1    0    0  501    0  0.00000000000E+00  0.00000000000E+00  0.12834835376E+03  0.12843437980E+03  0.47000000000E+01 0. -1.
         -5   -1    0    0    0  501 -0.00000000000E+00 -0.00000000000E+00 -0.26730766883E+03  0.26734898506E+03  0.47000000000E+01 0.  1.
          6    1    1    2  502    0  0.67684677486E+02 -0.12936132838E+02 -0.68341325831E+02  0.19749201481E+03  0.17200000000E+03 0. -1.
         -6    1    1    2    0  502 -0.67684677486E+02  0.12936132838E+02 -0.70617989230E+02  0.19829135004E+03  0.17200000000E+03 0.  1.
</event>
<event>
 4    1 -0.3240665E-004  0.1778642E+03  0.7818608E-02  0.1169886E+00
          5   -1    0    0  501    0  0.00000000000E+00  0.00000000000E+00  0.48178581467E+02  0.48407289866E+02  0.47000000000E+01 0. -1.
         -5   -1    0    0    0  501 -0.00000000000E+00 -0.00000000000E+00 -0.66884317630E+03  0.66885968968E+03  0.47000000000E+01 0.  1.
          6    1    1    2  502    0  0.22082812721E+02 -0.39547937417E+02 -0.25845311089E+03  0.31374145486E+03  0.17200000000E+03 0.  1.
         -6    1    1    2    0  502 -0.22082812721E+02  0.39547937417E+02 -0.36221148395E+03  0.40352552469E+03  0.17200000000E+03 0.  1.
</event>
<event>
 4    1 -0.3240665E-004  0.2511035E+03  0.7818608E-02  0.1112609E+00
         -5   -1    0    0    0  501 -0.00000000000E+00  0.00000000000E+00  0.88717506722E+03  0.88718751676E+03  0.47000000000E+01 0.  1.
          5   -1    0    0  501    0  0.00000000000E+00 -0.00000000000E+00 -0.16990663681E+03  0.16997163067E+03  0.47000000000E+01 0. -1.
          6    1    1    2  502    0 -0.97268813315E+02 -0.15494439271E+03 -0.44549487403E+02  0.25502479037E+03  0.17200000000E+03 0. -1.
         -6    1    1    2    0  502  0.97268813315E+02  0.15494439271E+03  0.76181791781E+03  0.80213435706E+03  0.17200000000E+03 0.  1.
</event>
<event>
 4    1 -0.3240665E-004  0.1769669E+03  0.7818608E-02  0.1170771E+00
          5   -1    0    0  501    0  0.00000000000E+00  0.00000000000E+00  0.10115149782E+03  0.10126063159E+03  0.47000000000E+01 0. -1.
         -5   -1    0    0    0  501 -0.00000000000E+00 -0.00000000000E+00 -0.38616321248E+03  0.38619181332E+03  0.47000000000E+01 0.  1.
          6    1    1    2  502    0  0.36097916475E+02 -0.20741508476E+02 -0.33798717223E+02  0.18016554341E+03  0.17200000000E+03 0. -1.
         -6    1    1    2    0  502 -0.36097916475E+02  0.20741508476E+02 -0.25121299744E+03  0.30728690150E+03  0.17200000000E+03 0.  1.
</event>
<event>
 4    1 -0.3240665E-004  0.3469907E+03  0.7818608E-02  0.1063857E+00
         -5   -1    0    0    0  501 -0.00000000000E+00  0.00000000000E+00  0.39633468595E+03  0.39636255283E+03  0.47000000000E+01 0.  1.
          5   -1    0    0  501    0  0.00000000000E+00 -0.00000000000E+00 -0.42978593259E+03  0.42981163067E+03  0.47000000000E+01 0. -1.
          6    1    1    2  502    0  0.16449028114E+03 -0.25251039032E+03 -0.24042337725E+03  0.42214446596E+03  0.17200000000E+03 0.  1.
         -6    1    1    2    0  502 -0.16449028114E+03  0.25251039032E+03  0.20697213060E+03  0.40402971754E+03  0.17200000000E+03 0.  1.
</event>
<event>
 4    1 -0.3240665E-004  0.1773003E+03  0.7818608E-02  0.1170442E+00
         -5   -1    0    0    0  501 -0.00000000000E+00  0.00000000000E+00  0.57798000696E+03  0.57799911630E+03  0.47000000000E+01 0.  1.
          5   -1    0    0  501    0  0.00000000000E+00 -0.00000000000E+00 -0.59668144384E+02  0.59852965292E+02  0.47000000000E+01 0. -1.
          6    1    1    2  502    0 -0.35113326379E+02 -0.24868429582E+02  0.16337116491E+03  0.24109235161E+03  0.17200000000E+03 0. -1.
         -6    1    1    2    0  502  0.35113326379E+02  0.24868429582E+02  0.35494069767E+03  0.39675972999E+03  0.17200000000E+03 0.  1.
</event>
<event>
 4    1 -0.3240665E-004  0.3554480E+03  0.7818608E-02  0.1060401E+00
         -5   -1    0    0    0  501 -0.00000000000E+00  0.00000000000E+00  0.98557125705E+02  0.98669129049E+02  0.47000000000E+01 0.  1.
          5   -1    0    0  501    0  0.00000000000E+00 -0.00000000000E+00 -0.13010465003E+04  0.13010549896E+04  0.47000000000E+01 0. -1.
          6    1    1    2  502    0 -0.15060408370E+03 -0.27217221953E+03 -0.68792855166E+03  0.77433132398E+03  0.17200000000E+03 0.  1.
         -6    1    1    2    0  502  0.15060408370E+03  0.27217221953E+03 -0.51456082292E+03  0.62539279465E+03  0.17200000000E+03 0.  1.
</event>
<event>
 4    1 -0.3240665E-004  0.1799790E+03  0.7818608E-02  0.1167823E+00
         -5   -1    0    0    0  501 -0.00000000000E+00  0.00000000000E+00  0.26979401425E+03  0.26983494979E+03  0.47000000000E+01 0.  1.
          5   -1    0    0  501    0  0.00000000000E+00 -0.00000000000E+00 -0.12247838908E+03  0.12256853508E+03  0.47000000000E+01 0. -1.
          6    1    1    2  502    0  0.18920642545E+01 -0.52960900310E+02  0.10173482315E+03  0.20674237860E+03  0.17200000000E+03 0.  1.
         -6    1    1    2    0  502 -0.18920642545E+01  0.52960900310E+02  0.45580802023E+02  0.18566110627E+03  0.17200000000E+03 0. -1.
</event>
<event>
 4    1 -0.3240665E-004  0.1740092E+03  0.7818608E-02  0.1173730E+00
          5   -1    0    0  501    0  0.00000000000E+00  0.00000000000E+00  0.11510073063E+03  0.11519665009E+03  0.47000000000E+01 0. -1.
         -5   -1    0    0    0  501 -0.00000000000E+00 -0.00000000000E+00 -0.28944144433E+03  0.28947960152E+03  0.47000000000E+01 0.  1.
          6    1    1    2  502    0  0.24582354643E+02  0.95347184776E+01 -0.14849626229E+03  0.22875826309E+03  0.17200000000E+03 0.  1.
         -6    1    1    2    0  502 -0.24582354643E+02 -0.95347184776E+01 -0.25844451409E+02  0.17591798852E+03  0.17200000000E+03 0. -1.
</event>
<event>
 4    1 -0.3240665E-004  0.2052687E+03  0.7818608E-02  0.1145368E+00
          5   -1    0    0  501    0  0.00000000000E+00  0.00000000000E+00  0.12404439901E+04  0.12404528941E+04  0.47000000000E+01 0. -1.
         -5   -1    0    0    0  501 -0.00000000000E+00 -0.00000000000E+00 -0.37257898853E+02  0.37553175990E+02  0.47000000000E+01 0.  1.
          6    1    1    2  502    0 -0.76561775710E+02 -0.81789537555E+02  0.79554089123E+03  0.82159633858E+03  0.17200000000E+03 0. -1.
         -6    1    1    2    0  502  0.76561775710E+02  0.81789537555E+02  0.40764520003E+03  0.45640973155E+03  0.17200000000E+03 0.  1.
</event>
<event>
 4    1 -0.3240665E-004  0.2062781E+03  0.7818608E-02  0.1144548E+00
         -5   -1    0    0    0  501 -0.00000000000E+00  0.00000000000E+00  0.54189124278E+03  0.54191162471E+03  0.47000000000E+01 0.  1.
          5   -1    0    0  501    0  0.00000000000E+00 -0.00000000000E+00 -0.13252331322E+03  0.13260663086E+03  0.47000000000E+01 0. -1.
          6    1    1    2  502    0  0.43350074816E+02 -0.10529690708E+03 -0.10679118741E+02  0.20655437832E+03  0.17200000000E+03 0. -1.
         -6    1    1    2    0  502 -0.43350074816E+02  0.10529690708E+03  0.42004704830E+03  0.46796387725E+03  0.17200000000E+03 0.  1.
</event>
<event>
 4    1 -0.3240665E-004  0.2158316E+03  0.7818608E-02  0.1137029E+00
          5   -1    0    0  501    0  0.00000000000E+00  0.00000000000E+00  0.24988725367E+03  0.24993144969E+03  0.47000000000E+01 0. -1.
         -5   -1    0    0    0  501 -0.00000000000E+00 -0.00000000000E+00 -0.18633321595E+03  0.18639248205E+03  0.47000000000E+01 0.  1.
          6    1    1    2  502    0 -0.10001993340E+03  0.83637750641E+02  0.33057169449E+02  0.21834842995E+03  0.17200000000E+03 0. -1.
         -6    1    1    2    0  502  0.10001993340E+03 -0.83637750641E+02  0.30496868270E+02  0.21797550180E+03  0.17200000000E+03 0.  1.
</event>
<event>
 4    1 -0.3240665E-004  0.2296655E+03  0.7818608E-02  0.1126875E+00
         -5   -1    0    0    0  501 -0.00000000000E+00  0.00000000000E+00  0.11866013949E+03  0.11875318397E+03  0.47000000000E+01 0.  1.
          5   -1    0    0  501    0  0.00000000000E+00 -0.00000000000E+00 -0.47090814064E+03  0.47093159474E+03  0.47000000000E+01 0. -1.
          6    1    1    2  502    0 -0.10666754106E+03  0.10855534739E+03 -0.24628588510E+03  0.33675356711E+03  0.17200000000E+03 0. -1.
         -6    1    1    2    0  502  0.10666754106E+03 -0.10855534739E+03 -0.10596211605E+03  0.25293121160E+03  0.17200000000E+03 0.  1.
</event>
<event>
 4    1 -0.3240665E-004  0.2176791E+03  0.7818608E-02  0.1135625E+00
         -5   -1    0    0    0  501 -0.00000000000E+00  0.00000000000E+00  0.14495052627E+03  0.14502670466E+03  0.47000000000E+01 0.  1.
          5   -1    0    0  501    0  0.00000000000E+00 -0.00000000000E+00 -0.60464660466E+03  0.60466487126E+03  0.47000000000E+01 0. -1.
          6    1    1    2  502    0  0.30478131557E+02 -0.12988941329E+03 -0.48396296886E+03  0.53066404760E+03  0.17200000000E+03 0. -1.
         -6    1    1    2    0  502 -0.30478131557E+02  0.12988941329E+03  0.24266890463E+02  0.21902752832E+03  0.17200000000E+03 0.  1.
</event>
<event>
 4    1 -0.3240665E-004  0.1814435E+03  0.7818608E-02  0.1166413E+00
         -5   -1    0    0    0  501 -0.00000000000E+00  0.00000000000E+00  0.40913259870E+03  0.40915959394E+03  0.47000000000E+01 0.  1.
          5   -1    0    0  501    0  0.00000000000E+00 -0.00000000000E+00 -0.89973886271E+02  0.90096560482E+02  0.47000000000E+01 0. -1.
          6    1    1    2  502    0  0.57639882995E+02 -0.39242014710E+01  0.78089212127E+02  0.19753399839E+03  0.17200000000E+03 0. -1.
         -6    1    1    2    0  502 -0.57639882995E+02  0.39242014710E+01  0.24106950030E+03  0.30172215604E+03  0.17200000000E+03 0.  1.
</event>
<event>
 4    1 -0.3240665E-004  0.2368101E+03  0.7818608E-02  0.1121936E+00
         -5   -1    0    0    0  501 -0.00000000000E+00  0.00000000000E+00  0.21526262341E+03  0.21531392671E+03  0.47000000000E+01 0.  1.
          5   -1    0    0  501    0  0.00000000000E+00 -0.00000000000E+00 -0.26097146226E+03  0.26101378146E+03  0.47000000000E+01 0. -1.
          6    1    1    2  502    0  0.13832953368E+03  0.85790292143E+02 -0.33890009284E+02  0.23922283930E+03  0.17200000000E+03 0. -1.
         -6    1    1    2    0  502 -0.13832953368E+03 -0.85790292143E+02 -0.11818829565E+02  0.23710486888E+03  0.17200000000E+03 0.  1.
</event>
<event>
 4    1 -0.3240665E-004  0.2704428E+03  0.7818608E-02  0.1101026E+00
         -5   -1    0    0    0  501 -0.00000000000E+00  0.00000000000E+00  0.88265096194E+03  0.88266347529E+03  0.47000000000E+01 0.  1.
          5   -1    0    0  501    0  0.00000000000E+00 -0.00000000000E+00 -0.16582900644E+03  0.16589559782E+03  0.47000000000E+01 0. -1.
          6    1    1    2  502    0 -0.15791715314E+03  0.13644583028E+03 -0.12477741645E+02  0.27073046724E+03  0.17200000000E+03 0. -1.
         -6    1    1    2    0  502  0.15791715314E+03 -0.13644583028E+03  0.72929969715E+03  0.77782860588E+03  0.17200000000E+03 0.  1.
</event>
<event>
 4    1 -0.3240665E-004  0.2561138E+03  0.7818608E-02  0.1109501E+00
         -5   -1    0    0    0  501 -0.00000000000E+00  0.00000000000E+00  0.18871293209E+03  0.18877145107E+03  0.47000000000E+01 0.  1.
          5   -1    0    0  501    0  0.00000000000E+00 -0.00000000000E+00 -0.59893368256E+03  0.59895212338E+03  0.47000000000E+01 0. -1.
          6    1    1    2  502    0  0.12041301802E+03 -0.14666628087E+03 -0.46030466391E+03  0.52675865106E+03  0.17200000000E+03 0. -1.
         -6    1    1    2    0  502 -0.12041301802E+03  0.14666628087E+03  0.50083913441E+02  0.26096492338E+03  0.17200000000E+03 0.  1.
</event>
<event>
 4    1 -0.3240665E-004  0.1907296E+03  0.7818608E-02  0.1157805E+00
          5   -1    0    0  501    0  0.00000000000E+00  0.00000000000E+00  0.74698272858E+03  0.74699751458E+03  0.47000000000E+01 0. -1.
         -5   -1    0    0    0  501 -0.00000000000E+00 -0.00000000000E+00 -0.53467341971E+02  0.53673519146E+02  0.47000000000E+01 0.  1.
          6    1    1    2  502    0  0.17949036107E+02 -0.80446303779E+02  0.22587006692E+03  0.29562655973E+03  0.17200000000E+03 0.  1.
         -6    1    1    2    0  502 -0.17949036107E+02  0.80446303779E+02  0.46764531969E+03  0.50504447400E+03  0.17200000000E+03 0.  1.
</event>
<event>
 4    1 -0.3240665E-004  0.1940752E+03  0.7818608E-02  0.1154836E+00
          5   -1    0    0  501    0  0.00000000000E+00  0.00000000000E+00  0.36079909874E+03  0.36082971004E+03  0.47000000000E+01 0. -1.
         -5   -1    0    0    0  501 -0.00000000000E+00 -0.00000000000E+00 -0.13109007973E+03  0.13117430771E+03  0.47000000000E+01 0.  1.
          6    1    1    2  502    0  0.41451285043E+02  0.79768154358E+02  0.37105578191E+01  0.19411062753E+03  0.17200000000E+03 0. -1.
         -6    1    1    2    0  502 -0.41451285043E+02 -0.79768154358E+02  0.22599846119E+03  0.29789339023E+03  0.17200000000E+03 0.  1.
</event>
<event>
 4    1 -0.3240665E-004  0.5325271E+03  0.7818608E-02  0.1005621E+00
          5   -1    0    0  501    0  0.00000000000E+00  0.00000000000E+00  0.16635314755E+04  0.16635381149E+04  0.47000000000E+01 0. -1.
         -5   -1    0    0    0  501 -0.00000000000E+00 -0.00000000000E+00 -0.20461951401E+03  0.20467348513E+03  0.47000000000E+01 0.  1.
          6    1    1    2  502    0 -0.38504563926E+03 -0.32517840022E+03  0.11112101803E+04  0.12322228699E+04  0.17200000000E+03 0. -1.
         -6    1    1    2    0  502  0.38504563926E+03  0.32517840022E+03  0.34770178113E+03  0.63598873015E+03  0.17200000000E+03 0.  1.
</event>
<event>
 4    1 -0.3240665E-004  0.2403629E+03  0.7818608E-02  0.1119551E+00
          5   -1    0    0  501    0  0.00000000000E+00  0.00000000000E+00  0.66192722724E+03  0.66194391315E+03  0.47000000000E+01 0. -1.
         -5   -1    0    0    0  501 -0.00000000000E+00 -0.00000000000E+00 -0.12521612898E+03  0.12530430542E+03  0.47000000000E+01 0.  1.
          6    1    1    2  502    0  0.15185314748E+03  0.71630735805E+02  0.48513348336E+03  0.54141373956E+03  0.17200000000E+03 0. -1.
         -6    1    1    2    0  502 -0.15185314748E+03 -0.71630735805E+02  0.51577614893E+02  0.24583447901E+03  0.17200000000E+03 0.  1.
</event>
<event>
 4    1 -0.3240665E-004  0.2054950E+03  0.7818608E-02  0.1145184E+00
          5   -1    0    0  501    0  0.00000000000E+00  0.00000000000E+00  0.11116241525E+04  0.11116340884E+04  0.47000000000E+01 0. -1.
         -5   -1    0    0    0  501 -0.00000000000E+00 -0.00000000000E+00 -0.13838120411E+03  0.13846099686E+03  0.47000000000E+01 0.  1.
          6    1    1    2  502    0  0.10831892994E+03  0.30186098344E+02  0.10190446659E+04  0.10395577051E+04  0.17200000000E+03 0. -1.
         -6    1    1    2    0  502 -0.10831892994E+03 -0.30186098344E+02 -0.45801717489E+02  0.21053738015E+03  0.17200000000E+03 0.  1.
</event>
<event>
 4    1 -0.3240665E-004  0.2379382E+03  0.7818608E-02  0.1121174E+00
          5   -1    0    0  501    0  0.00000000000E+00  0.00000000000E+00  0.76975903453E+02  0.77119256431E+02  0.47000000000E+01 0. -1.
         -5   -1    0    0    0  501 -0.00000000000E+00 -0.00000000000E+00 -0.74379226786E+03  0.74380711729E+03  0.47000000000E+01 0.  1.
          6    1    1    2  502    0  0.12254340486E+03 -0.10960707535E+03 -0.28790528065E+03  0.37350240651E+03  0.17200000000E+03 0. -1.
         -6    1    1    2    0  502 -0.12254340486E+03  0.10960707535E+03 -0.37891108375E+03  0.44742396721E+03  0.17200000000E+03 0.  1.
</event>
<event>
 4    1 -0.3240665E-004  0.1856861E+03  0.7818608E-02  0.1162411E+00
         -5   -1    0    0    0  501 -0.00000000000E+00  0.00000000000E+00  0.63015182984E+02  0.63190215117E+02  0.47000000000E+01 0.  1.
          5   -1    0    0  501    0  0.00000000000E+00 -0.00000000000E+00 -0.57716075682E+03  0.57717989328E+03  0.47000000000E+01 0. -1.
          6    1    1    2  502    0  0.42843310056E+02  0.55315231653E+02 -0.18294517318E+03  0.26066887129E+03  0.17200000000E+03 0.  1.
         -6    1    1    2    0  502 -0.42843310056E+02 -0.55315231653E+02 -0.33120040066E+03  0.37970123711E+03  0.17200000000E+03 0. -1.
</event>
<event>
 4    1 -0.3240665E-004  0.3189143E+03  0.7818608E-02  0.1076150E+00
          5   -1    0    0  501    0  0.00000000000E+00  0.00000000000E+00  0.55583951632E+03  0.55585938681E+03  0.47000000000E+01 0. -1.
         -5   -1    0    0    0  501 -0.00000000000E+00 -0.00000000000E+00 -0.24240400508E+03  0.24244956523E+03  0.47000000000E+01 0.  1.
          6    1    1    2  502    0  0.20707710017E+03 -0.17100123881E+03  0.35440983186E+03  0.47677319346E+03  0.17200000000E+03 0. -1.
         -6    1    1    2    0  502 -0.20707710017E+03  0.17100123881E+03 -0.40974320620E+02  0.32153575857E+03  0.17200000000E+03 0.  1.
</event>
<event>
 4    1 -0.3240665E-004  0.3875398E+03  0.7818608E-02  0.1048182E+00
          5   -1    0    0  501    0  0.00000000000E+00  0.00000000000E+00  0.26609480185E+03  0.26613630638E+03  0.47000000000E+01 0. -1.
         -5   -1    0    0    0  501 -0.00000000000E+00 -0.00000000000E+00 -0.77196096904E+03  0.77197527662E+03  0.47000000000E+01 0.  1.
          6    1    1    2  502    0  0.25521930803E+03 -0.23551258468E+03  0.16257593305E+02  0.38788062864E+03  0.17200000000E+03 0. -1.
         -6    1    1    2    0  502 -0.25521930803E+03  0.23551258468E+03 -0.52212376049E+03  0.65023095436E+03  0.17200000000E+03 0.  1.
</event>
<event>
 4    1 -0.3240665E-004  0.3237552E+03  0.7818608E-02  0.1073934E+00
          5   -1    0    0  501    0  0.00000000000E+00  0.00000000000E+00  0.51807703693E+03  0.51809835571E+03  0.47000000000E+01 0. -1.
         -5   -1    0    0    0  501 -0.00000000000E+00 -0.00000000000E+00 -0.29258768883E+03  0.29262543577E+03  0.47000000000E+01 0.  1.
          6    1    1    2  502    0 -0.26570172356E+03 -0.68088341529E+02  0.33793904268E+03  0.46799596657E+03  0.17200000000E+03 0. -1.
         -6    1    1    2    0  502  0.26570172356E+03  0.68088341529E+02 -0.11244969459E+03  0.34272782491E+03  0.17200000000E+03 0.  1.
</event>
<event>
 4    1 -0.3240665E-004  0.3081215E+03  0.7818608E-02  0.1081250E+00
          5   -1    0    0  501    0  0.00000000000E+00  0.00000000000E+00  0.82563439471E+03  0.82564777219E+03  0.47000000000E+01 0. -1.
         -5   -1    0    0    0  501 -0.00000000000E+00 -0.00000000000E+00 -0.14555734452E+03  0.14563320550E+03  0.47000000000E+01 0.  1.
          6    1    1    2  502    0  0.18260656948E+03  0.17891248119E+03  0.11733434859E+03  0.32970620937E+03  0.17200000000E+03 0. -1.
         -6    1    1    2    0  502 -0.18260656948E+03 -0.17891248119E+03  0.56274270159E+03  0.64157476831E+03  0.17200000000E+03 0. -1.
</event>
<event>
 4    1 -0.3240665E-004  0.1773080E+03  0.7818608E-02  0.1170434E+00
         -5   -1    0    0    0  501 -0.00000000000E+00  0.00000000000E+00  0.65119277033E+03  0.65120973129E+03  0.47000000000E+01 0.  1.
          5   -1    0    0  501    0  0.00000000000E+00 -0.00000000000E+00 -0.48785276553E+02  0.49011153917E+02  0.47000000000E+01 0. -1.
          6    1    1    2  502    0  0.42773246217E+02 -0.49577673525E+01  0.34118979158E+03  0.38451086321E+03  0.17200000000E+03 0. -1.
         -6    1    1    2    0  502 -0.42773246217E+02  0.49577673525E+01  0.26121770220E+03  0.31571002200E+03  0.17200000000E+03 0.  1.
</event>
<event>
 4    1 -0.3240665E-004  0.2047690E+03  0.7818608E-02  0.1145777E+00
          5   -1    0    0  501    0  0.00000000000E+00  0.00000000000E+00  0.59302648227E+02  0.59488604680E+02  0.47000000000E+01 0. -1.
         -5   -1    0    0    0  501 -0.00000000000E+00 -0.00000000000E+00 -0.87441994290E+03  0.87443257404E+03  0.47000000000E+01 0.  1.
          6    1    1    2  502    0 -0.65907787057E+02 -0.89456835775E+02 -0.20249864908E+03  0.28798622318E+03  0.17200000000E+03 0. -1.
         -6    1    1    2    0  502  0.65907787057E+02  0.89456835775E+02 -0.61261864559E+03  0.64593495554E+03  0.17200000000E+03 0. -1.
</event>
<event>
 4    1 -0.3240665E-004  0.3277896E+03  0.7818608E-02  0.1072119E+00
         -5   -1    0    0    0  501 -0.00000000000E+00  0.00000000000E+00  0.66235829209E+03  0.66237496714E+03  0.47000000000E+01 0.  1.
          5   -1    0    0  501    0  0.00000000000E+00 -0.00000000000E+00 -0.49998488598E+03  0.50000697616E+03  0.47000000000E+01 0. -1.
          6    1    1    2  502    0  0.11102761599E+03  0.25599777245E+03 -0.39651466336E+03  0.51446075581E+03  0.17200000000E+03 0. -1.
         -6    1    1    2    0  502 -0.11102761599E+03 -0.25599777245E+03  0.55888806946E+03  0.64792118749E+03  0.17200000000E+03 0.  1.
</event>
<event>
 4    1 -0.3240665E-004  0.4662940E+03  0.7818608E-02  0.1022971E+00
          5   -1    0    0  501    0  0.00000000000E+00  0.00000000000E+00  0.16251919785E+03  0.16258714485E+03  0.47000000000E+01 0. -1.
         -5   -1    0    0    0  501 -0.00000000000E+00 -0.00000000000E+00 -0.13741948039E+04  0.13742028413E+04  0.47000000000E+01 0.  1.
          6    1    1    2  502    0  0.30408791801E+03  0.30883108041E+03 -0.48031499893E+03  0.66942706571E+03  0.17200000000E+03 0. -1.
         -6    1    1    2    0  502 -0.30408791801E+03 -0.30883108041E+03 -0.73136060708E+03  0.86736292040E+03  0.17200000000E+03 0.  1.
</event>
<event>
 4    1 -0.3240665E-004  0.2115048E+03  0.7818608E-02  0.1140380E+00
         -5   -1    0    0    0  501 -0.00000000000E+00  0.00000000000E+00  0.81368976663E+02  0.81504603325E+02  0.47000000000E+01 0.  1.
          5   -1    0    0  501    0  0.00000000000E+00 -0.00000000000E+00 -0.89224115924E+03  0.89225353809E+03  0.47000000000E+01 0. -1.
          6    1    1    2  502    0 -0.21332161359E+02 -0.12122391351E+03 -0.70731775927E+03  0.73826330729E+03  0.17200000000E+03 0. -1.
         -6    1    1    2    0  502  0.21332161359E+02  0.12122391351E+03 -0.10355442331E+03  0.23549483413E+03  0.17200000000E+03 0.  1.
</event>
<event>
 4    1 -0.3240665E-004  0.1927386E+03  0.7818608E-02  0.1156014E+00
          5   -1    0    0  501    0  0.00000000000E+00  0.00000000000E+00  0.37400330326E+03  0.37403283392E+03  0.47000000000E+01 0. -1.
         -5   -1    0    0    0  501 -0.00000000000E+00 -0.00000000000E+00 -0.16877641054E+03  0.16884183947E+03  0.47000000000E+01 0.  1.
          6    1    1    2  502    0 -0.75982617987E+02  0.42318018324E+02  0.27678550917E+03  0.33728087850E+03  0.17200000000E+03 0. -1.
         -6    1    1    2    0  502  0.75982617987E+02 -0.42318018324E+02 -0.71558616445E+02  0.20559379489E+03  0.17200000000E+03 0.  1.
</event>
<event>
 4    1 -0.3240665E-004  0.1930128E+03  0.7818608E-02  0.1155772E+00
          5   -1    0    0  501    0  0.00000000000E+00  0.00000000000E+00  0.41733100825E+02  0.41996924940E+02  0.47000000000E+01 0. -1.
         -5   -1    0    0    0  501 -0.00000000000E+00 -0.00000000000E+00 -0.12669433395E+04  0.12669520573E+04  0.47000000000E+01 0.  1.
          6    1    1    2  502    0 -0.18084990890E+02 -0.85690476624E+02 -0.25546201715E+03  0.32017927304E+03  0.17200000000E+03 0. -1.
         -6    1    1    2    0  502  0.18084990890E+02  0.85690476624E+02 -0.96974822151E+03  0.98876970918E+03  0.17200000000E+03 0.  1.
</event>
<event>
 4    1 -0.3240665E-004  0.2630438E+03  0.7818608E-02  0.1105328E+00
         -5   -1    0    0    0  501 -0.00000000000E+00  0.00000000000E+00  0.17057553115E+03  0.17064027024E+03  0.47000000000E+01 0.  1.
          5   -1    0    0  501    0  0.00000000000E+00 -0.00000000000E+00 -0.48095355703E+03  0.48097652128E+03  0.47000000000E+01 0. -1.
          6    1    1    2  502    0 -0.37993162335E+02 -0.19535745357E+03 -0.28423906892E+03  0.38727750173E+03  0.17200000000E+03 0. -1.
         -6    1    1    2    0  502  0.37993162335E+02  0.19535745357E+03 -0.26138956961E+02  0.26433928978E+03  0.17200000000E+03 0. -1.
</event>
<event>
 4    1 -0.3240665E-004  0.1821341E+03  0.7818608E-02  0.1165753E+00
          5   -1    0    0  501    0  0.00000000000E+00  0.00000000000E+00  0.67810938693E+02  0.67973622873E+02  0.47000000000E+01 0. -1.
         -5   -1    0    0    0  501 -0.00000000000E+00 -0.00000000000E+00 -0.61642330761E+03  0.61644122524E+03  0.47000000000E+01 0.  1.
          6    1    1    2  502    0  0.34111558711E+02 -0.49246818825E+02 -0.43021436560E+03  0.46718010229E+03  0.17200000000E+03 0.  1.
         -6    1    1    2    0  502 -0.34111558711E+02  0.49246818825E+02 -0.11839800332E+03  0.21723474582E+03  0.17200000000E+03 0. -1.
</event>
<event>
 4    1 -0.3240665E-004  0.1913517E+03  0.7818608E-02  0.1157248E+00
          5   -1    0    0  501    0  0.00000000000E+00  0.00000000000E+00  0.68098582348E+02  0.68260580995E+02  0.47000000000E+01 0. -1.
         -5   -1    0    0    0  501 -0.00000000000E+00 -0.00000000000E+00 -0.10369626073E+04  0.10369732585E+04  0.47000000000E+01 0.  1.
          6    1    1    2  502    0  0.71893638883E+02  0.43159920533E+02 -0.10069855505E+03  0.21623060154E+03  0.17200000000E+03 0. -1.
         -6    1    1    2    0  502 -0.71893638883E+02 -0.43159920533E+02 -0.86816546990E+03  0.88900323800E+03  0.17200000000E+03 0.  1.
</event>
<event>
 4    1 -0.3240665E-004  0.1901255E+03  0.7818608E-02  0.1158348E+00
         -5   -1    0    0    0  501 -0.00000000000E+00  0.00000000000E+00  0.77110843001E+02  0.77253945584E+02  0.47000000000E+01 0.  1.
          5   -1    0    0  501    0  0.00000000000E+00 -0.00000000000E+00 -0.48327771752E+03  0.48330057133E+03  0.47000000000E+01 0. -1.
          6    1    1    2  502    0  0.53660709444E+02 -0.60697799644E+02 -0.25260336329E+03  0.31615843143E+03  0.17200000000E+03 0. -1.
         -6    1    1    2    0  502 -0.53660709444E+02  0.60697799644E+02 -0.15356351123E+03  0.24439608548E+03  0.17200000000E+03 0. -1.
</event>
<event>
 4    1 -0.3240665E-004  0.2535925E+03  0.7818608E-02  0.1111055E+00
         -5   -1    0    0    0  501 -0.00000000000E+00  0.00000000000E+00  0.16077917235E+03  0.16084785439E+03  0.47000000000E+01 0.  1.
          5   -1    0    0  501    0  0.00000000000E+00 -0.00000000000E+00 -0.40404636436E+03  0.40407369941E+03  0.47000000000E+01 0. -1.
          6    1    1    2  502    0  0.15024026977E+03 -0.11024073762E+03 -0.92736426197E+02  0.27001704323E+03  0.17200000000E+03 0. -1.
         -6    1    1    2    0  502 -0.15024026977E+03  0.11024073762E+03 -0.15053076582E+03  0.29490451056E+03  0.17200000000E+03 0.  1.
</event>
<event>
 4    1 -0.3240665E-004  0.1932218E+03  0.7818608E-02  0.1155587E+00
         -5   -1    0    0    0  501 -0.00000000000E+00  0.00000000000E+00  0.32954368079E+03  0.32957719513E+03  0.47000000000E+01 0.  1.
          5   -1    0    0  501    0  0.00000000000E+00 -0.00000000000E+00 -0.18378005091E+03  0.18384014010E+03  0.47000000000E+01 0. -1.
          6    1    1    2  502    0  0.83453379244E+02  0.28039005362E+02 -0.86151296581E+02  0.21155778934E+03  0.17200000000E+03 0. -1.
         -6    1    1    2    0  502 -0.83453379244E+02 -0.28039005362E+02  0.23191492646E+03  0.30185954589E+03  0.17200000000E+03 0.  1.
</event>
<event>
 4    1 -0.3240665E-004  0.1757891E+03  0.7818608E-02  0.1171942E+00
         -5   -1    0    0    0  501 -0.00000000000E+00  0.00000000000E+00  0.50184186039E+03  0.50186386883E+03  0.47000000000E+01 0.  1.
          5   -1    0    0  501    0  0.00000000000E+00 -0.00000000000E+00 -0.72877089060E+02  0.73028488344E+02  0.47000000000E+01 0. -1.
          6    1    1    2  502    0  0.23705116559E+02  0.27493369016E+02  0.10087409260E+03  0.20267560398E+03  0.17200000000E+03 0.  1.
         -6    1    1    2    0  502 -0.23705116559E+02 -0.27493369016E+02  0.32809067873E+03  0.37221675320E+03  0.17200000000E+03 0.  1.
</event>
<event>
 4    1 -0.3240665E-004  0.1952452E+03  0.7818608E-02  0.1153814E+00
         -5   -1    0    0    0  501 -0.00000000000E+00  0.00000000000E+00  0.49046071331E+03  0.49048323244E+03  0.47000000000E+01 0.  1.
          5   -1    0    0  501    0  0.00000000000E+00 -0.00000000000E+00 -0.30237653141E+03  0.30241305651E+03  0.47000000000E+01 0. -1.
          6    1    1    2  502    0 -0.34298115565E+02  0.85792456110E+02 -0.24768514298E+03  0.31538648720E+03  0.17200000000E+03 0. -1.
         -6    1    1    2    0  502  0.34298115565E+02 -0.85792456110E+02  0.43576932488E+03  0.47750980175E+03  0.17200000000E+03 0.  1.
</event>
<event>
 4    1 -0.3240665E-004  0.1815807E+03  0.7818608E-02  0.1166282E+00
          5   -1    0    0  501    0  0.00000000000E+00  0.00000000000E+00  0.77430718683E+03  0.77432145106E+03  0.47000000000E+01 0. -1.
         -5   -1    0    0    0  501 -0.00000000000E+00 -0.00000000000E+00 -0.56123175343E+02  0.56319630775E+02  0.47000000000E+01 0.  1.
          6    1    1    2  502    0 -0.57703365377E+02 -0.76073400327E+01  0.56374041019E+03  0.59226244190E+03  0.17200000000E+03 0. -1.
         -6    1    1    2    0  502  0.57703365377E+02  0.76073400327E+01  0.15444360129E+03  0.23837863994E+03  0.17200000000E+03 0.  1.
</event>
<event>
 4    1 -0.3240665E-004  0.2390475E+03  0.7818608E-02  0.1120429E+00
          5   -1    0    0  501    0  0.00000000000E+00  0.00000000000E+00  0.54668049238E+03  0.54670069576E+03  0.47000000000E+01 0. -1.
         -5   -1    0    0    0  501 -0.00000000000E+00 -0.00000000000E+00 -0.10570229875E+03  0.10580673873E+03  0.47000000000E+01 0.  1.
          6    1    1    2  502    0  0.97031683809E+02 -0.13470173113E+03  0.25592918763E+03  0.35020487306E+03  0.17200000000E+03 0.  1.
         -6    1    1    2    0  502 -0.97031683809E+02  0.13470173113E+03  0.18504900599E+03  0.30230256144E+03  0.17200000000E+03 0.  1.
</event>
<event>
 4    1 -0.3240665E-004  0.1912816E+03  0.7818608E-02  0.1157310E+00
         -5   -1    0    0    0  501 -0.00000000000E+00  0.00000000000E+00  0.11094519335E+04  0.11094618889E+04  0.47000000000E+01 0.  1.
          5   -1    0    0  501    0  0.00000000000E+00 -0.00000000000E+00 -0.33054610976E+02  0.33387082933E+02  0.47000000000E+01 0. -1.
          6    1    1    2  502    0 -0.83526470557E+02  0.52887030930E+01  0.48844489185E+03  0.52456367968E+03  0.17200000000E+03 0. -1.
         -6    1    1    2    0  502  0.83526470557E+02 -0.52887030930E+01  0.58795243071E+03  0.61828529212E+03  0.17200000000E+03 0. -1.
</event>
<event>
 4    1 -0.3240665E-004  0.1725714E+03  0.7818608E-02  0.1175193E+00
         -5   -1    0    0    0  501 -0.00000000000E+00  0.00000000000E+00  0.16414262726E+03  0.16420990252E+03  0.47000000000E+01 0.  1.
          5   -1    0    0  501    0  0.00000000000E+00 -0.00000000000E+00 -0.23242493538E+03  0.23247245124E+03  0.47000000000E+01 0. -1.
          6    1    1    2  502    0 -0.96307770616E+01  0.10204614243E+02 -0.12714108364E+03  0.21434957702E+03  0.17200000000E+03 0. -1.
         -6    1    1    2    0  502  0.96307770616E+01 -0.10204614243E+02  0.58858775518E+02  0.18233277674E+03  0.17200000000E+03 0.  1.
</event>
<event>
 4    1 -0.3240665E-004  0.1892628E+03  0.7818608E-02  0.1159128E+00
          5   -1    0    0  501    0  0.00000000000E+00  0.00000000000E+00  0.42586910139E+02  0.42845477184E+02  0.47000000000E+01 0. -1.
         -5   -1    0    0    0  501 -0.00000000000E+00 -0.00000000000E+00 -0.12984294882E+04  0.12984379946E+04  0.47000000000E+01 0.  1.
          6    1    1    2  502    0 -0.42164093982E+02 -0.66772663468E+02 -0.22873519127E+03  0.29688413082E+03  0.17200000000E+03 0. -1.
         -6    1    1    2    0  502  0.42164093982E+02  0.66772663468E+02 -0.10271073867E+04  0.10443993409E+04  0.17200000000E+03 0.  1.
</event>
<event>
 4    1 -0.3240665E-004  0.3048862E+03  0.7818608E-02  0.1082823E+00
         -5   -1    0    0    0  501 -0.00000000000E+00  0.00000000000E+00  0.80485780492E+03  0.80487152773E+03  0.47000000000E+01 0.  1.
          5   -1    0    0  501    0  0.00000000000E+00 -0.00000000000E+00 -0.12908612115E+03  0.12917165584E+03  0.47000000000E+01 0. -1.
          6    1    1    2  502    0 -0.23382349966E+03 -0.93263860303E+02  0.18604963847E+03  0.35716949003E+03  0.17200000000E+03 0.  1.
         -6    1    1    2    0  502  0.23382349966E+03  0.93263860303E+02  0.48972204531E+03  0.57687369354E+03  0.17200000000E+03 0.  1.
</event>
<event>
 4    1 -0.3240665E-004  0.2028492E+03  0.7818608E-02  0.1147357E+00
         -5   -1    0    0    0  501 -0.00000000000E+00  0.00000000000E+00  0.41012069917E+02  0.41280502406E+02  0.47000000000E+01 0.  1.
          5   -1    0    0  501    0  0.00000000000E+00 -0.00000000000E+00 -0.10035687572E+04  0.10035797628E+04  0.47000000000E+01 0. -1.
          6    1    1    2  502    0  0.94179245700E+02 -0.51904530698E+02 -0.44911135498E+03  0.49279693567E+03  0.17200000000E+03 0. -1.
         -6    1    1    2    0  502 -0.94179245700E+02  0.51904530698E+02 -0.51344533226E+03  0.55206332957E+03  0.17200000000E+03 0. -1.
</event>
<event>
 4    1 -0.3240665E-004  0.2162717E+03  0.7818608E-02  0.1136694E+00
         -5   -1    0    0    0  501 -0.00000000000E+00  0.00000000000E+00  0.31433658191E+03  0.31437171744E+03  0.47000000000E+01 0.  1.
          5   -1    0    0  501    0  0.00000000000E+00 -0.00000000000E+00 -0.16842053007E+03  0.16848609720E+03  0.47000000000E+01 0. -1.
          6    1    1    2  502    0 -0.93399599590E+02  0.92010719163E+02 -0.95878840371E+01  0.21648414530E+03  0.17200000000E+03 0.  1.
         -6    1    1    2    0  502  0.93399599590E+02 -0.92010719163E+02  0.15550393588E+03  0.26637366934E+03  0.17200000000E+03 0.  1.
</event>
<event>
 4    1 -0.3240665E-004  0.2786921E+03  0.7818608E-02  0.1096405E+00
         -5   -1    0    0    0  501 -0.00000000000E+00  0.00000000000E+00  0.22106118085E+03  0.22111113875E+03  0.47000000000E+01 0.  1.
          5   -1    0    0  501    0  0.00000000000E+00 -0.00000000000E+00 -0.39411475371E+03  0.39414277754E+03  0.47000000000E+01 0. -1.
          6    1    1    2  502    0  0.21333753718E+03  0.50718771904E+02 -0.18797842991E+03  0.33616244392E+03  0.17200000000E+03 0. -1.
         -6    1    1    2    0  502 -0.21333753718E+03 -0.50718771904E+02  0.14924857055E+02  0.27909147237E+03  0.17200000000E+03 0.  1.
</event>
<event>
 4    1 -0.3240665E-004  0.1763930E+03  0.7818608E-02  0.1171340E+00
         -5   -1    0    0    0  501 -0.00000000000E+00  0.00000000000E+00  0.49095840416E+03  0.49098090045E+03  0.47000000000E+01 0.  1.
          5   -1    0    0  501    0  0.00000000000E+00 -0.00000000000E+00 -0.63507343270E+02  0.63681022677E+02  0.47000000000E+01 0. -1.
          6    1    1    2  502    0  0.37405014432E+02  0.11461682399E+02  0.23086925304E+03  0.29054279766E+03  0.17200000000E+03 0.  1.
         -6    1    1    2    0  502 -0.37405014432E+02 -0.11461682399E+02  0.19658180784E+03  0.26411912548E+03  0.17200000000E+03 0.  1.
</event>
<event>
 4    1 -0.3240665E-004  0.3930699E+03  0.7818608E-02  0.1046206E+00
          5   -1    0    0  501    0  0.00000000000E+00  0.00000000000E+00  0.99432082130E+03  0.99433192932E+03  0.47000000000E+01 0. -1.
         -5   -1    0    0    0  501 -0.00000000000E+00 -0.00000000000E+00 -0.15676322507E+03  0.15683366582E+03  0.47000000000E+01 0.  1.
          6    1    1    2  502    0 -0.17185649105E+03 -0.30884509092E+03  0.47362899288E+03  0.61549034647E+03  0.17200000000E+03 0. -1.
         -6    1    1    2    0  502  0.17185649105E+03  0.30884509092E+03  0.36392860335E+03  0.53567524867E+03  0.17200000000E+03 0.  1.
</event>
<event>
 4    1 -0.3240665E-004  0.1924243E+03  0.7818608E-02  0.1156293E+00
          5   -1    0    0  501    0  0.00000000000E+00  0.00000000000E+00  0.17180663855E+03  0.17187091391E+03  0.47000000000E+01 0. -1.
         -5   -1    0    0    0  501 -0.00000000000E+00 -0.00000000000E+00 -0.64831441134E+03  0.64833144761E+03  0.47000000000E+01 0.  1.
          6    1    1    2  502    0  0.85968680917E+02  0.72448602487E+01  0.96845245681E+02  0.21542075970E+03  0.17200000000E+03 0. -1.
         -6    1    1    2    0  502 -0.85968680917E+02 -0.72448602487E+01 -0.57335301848E+03  0.60478160182E+03  0.17200000000E+03 0.  1.
</event>
<event>
 4    1 -0.3240665E-004  0.2641528E+03  0.7818608E-02  0.1104674E+00
          5   -1    0    0  501    0  0.00000000000E+00  0.00000000000E+00  0.58502525147E+03  0.58504413069E+03  0.47000000000E+01 0. -1.
         -5   -1    0    0    0  501 -0.00000000000E+00 -0.00000000000E+00 -0.21179221610E+03  0.21184435985E+03  0.47000000000E+01 0.  1.
          6    1    1    2  502    0 -0.14485844374E+03  0.13859558157E+03  0.45000483284E+03  0.52180557062E+03  0.17200000000E+03 0. -1.
         -6    1    1    2    0  502  0.14485844374E+03 -0.13859558157E+03 -0.76771797468E+02  0.27508291993E+03  0.17200000000E+03 0.  1.
</event>
<event>
 4    1 -0.3240665E-004  0.1864864E+03  0.7818608E-02  0.1161669E+00
         -5   -1    0    0    0  501 -0.00000000000E+00  0.00000000000E+00  0.45588903971E+03  0.45591326646E+03  0.47000000000E+01 0.  1.
          5   -1    0    0  501    0  0.00000000000E+00 -0.00000000000E+00 -0.82986853746E+02  0.83119840559E+02  0.47000000000E+01 0. -1.
          6    1    1    2  502    0  0.58708654291E+02  0.41790651063E+02  0.10936984212E+03  0.21619187536E+03  0.17200000000E+03 0. -1.
         -6    1    1    2    0  502 -0.58708654291E+02 -0.41790651063E+02  0.26353234385E+03  0.32284123166E+03  0.17200000000E+03 0. -1.
</event>
<event>
 4    1 -0.3240665E-004  0.1853701E+03  0.7818608E-02  0.1162705E+00
          5   -1    0    0  501    0  0.00000000000E+00  0.00000000000E+00  0.27087492328E+02  0.27492221456E+02  0.47000000000E+01 0. -1.
         -5   -1    0    0    0  501 -0.00000000000E+00 -0.00000000000E+00 -0.12847315134E+04  0.12847401104E+04  0.47000000000E+01 0.  1.
          6    1    1    2  502    0  0.26591787491E+02  0.63804066857E+02 -0.53551906729E+03  0.56669458577E+03  0.17200000000E+03 0. -1.
         -6    1    1    2    0  502 -0.26591787491E+02 -0.63804066857E+02 -0.72212495373E+03  0.74553774614E+03  0.17200000000E+03 0.  1.
</event>
<event>
 4    1 -0.3240665E-004  0.2109242E+03  0.7818608E-02  0.1140836E+00
          5   -1    0    0  501    0  0.00000000000E+00  0.00000000000E+00  0.16956871770E+04  0.16956936905E+04  0.47000000000E+01 0. -1.
         -5   -1    0    0    0  501 -0.00000000000E+00 -0.00000000000E+00 -0.26654680176E+02  0.27065882126E+02  0.47000000000E+01 0.  1.
          6    1    1    2  502    0  0.61235309888E+02 -0.10561852351E+03  0.70258495459E+03  0.73356298578E+03  0.17200000000E+03 0.  1.
         -6    1    1    2    0  502 -0.61235309888E+02  0.10561852351E+03  0.96644754220E+03  0.98919658688E+03  0.17200000000E+03 0. -1.
</event>
<event>
 4    1 -0.3240665E-004  0.2109653E+03  0.7818608E-02  0.1140804E+00
         -5   -1    0    0    0  501 -0.00000000000E+00  0.00000000000E+00  0.12419313303E+03  0.12428203527E+03  0.47000000000E+01 0.  1.
          5   -1    0    0  501    0  0.00000000000E+00 -0.00000000000E+00 -0.50399762420E+03  0.50401953851E+03  0.47000000000E+01 0. -1.
          6    1    1    2  502    0 -0.11896867459E+03 -0.27727408203E+02 -0.35888852734E+03  0.41630196944E+03  0.17200000000E+03 0. -1.
         -6    1    1    2    0  502  0.11896867459E+03  0.27727408203E+02 -0.20915963824E+02  0.21199960434E+03  0.17200000000E+03 0.  1.
</event>
<event>
 4    1 -0.3240665E-004  0.2271021E+03  0.7818608E-02  0.1128696E+00
         -5   -1    0    0    0  501 -0.00000000000E+00  0.00000000000E+00  0.65379046624E+02  0.65547766838E+02  0.47000000000E+01 0.  1.
          5   -1    0    0  501    0  0.00000000000E+00 -0.00000000000E+00 -0.79149318235E+03  0.79150713686E+03  0.47000000000E+01 0. -1.
          6    1    1    2  502    0 -0.23540680371E+02  0.14641450153E+03 -0.39281849406E+03  0.45374193014E+03  0.17200000000E+03 0.  1.
         -6    1    1    2    0  502  0.23540680371E+02 -0.14641450153E+03 -0.33329564166E+03  0.40331297356E+03  0.17200000000E+03 0.  1.
</event>
<event>
 4    1 -0.3240665E-004  0.2936069E+03  0.7818608E-02  0.1088481E+00
         -5   -1    0    0    0  501 -0.00000000000E+00  0.00000000000E+00  0.34280251857E+03  0.34283473677E+03  0.47000000000E+01 0.  1.
          5   -1    0    0  501    0  0.00000000000E+00 -0.00000000000E+00 -0.30177188371E+03  0.30180848199E+03  0.47000000000E+01 0. -1.
          6    1    1    2  502    0  0.18793729661E+03  0.14594717446E+03 -0.11114927652E+03  0.31394134302E+03  0.17200000000E+03 0. -1.
         -6    1    1    2    0  502 -0.18793729661E+03 -0.14594717446E+03  0.15217991137E+03  0.33070187574E+03  0.17200000000E+03 0.  1.
</event>
<event>
 4    1 -0.3240665E-004  0.2220143E+03  0.7818608E-02  0.1132390E+00
         -5   -1    0    0    0  501 -0.00000000000E+00  0.00000000000E+00  0.27724950056E+03  0.27728933546E+03  0.47000000000E+01 0.  1.
          5   -1    0    0  501    0  0.00000000000E+00 -0.00000000000E+00 -0.22146118329E+03  0.22151105098E+03  0.47000000000E+01 0. -1.
          6    1    1    2  502    0  0.11925259358E+03  0.74061817134E+02  0.13873514497E+03  0.26179720068E+03  0.17200000000E+03 0. -1.
         -6    1    1    2    0  502 -0.11925259358E+03 -0.74061817134E+02 -0.82946827710E+02  0.23700318576E+03  0.17200000000E+03 0. -1.
</event>
<event>
 4    1 -0.3240665E-004  0.2418923E+03  0.7818608E-02  0.1118539E+00
          5   -1    0    0  501    0  0.00000000000E+00  0.00000000000E+00  0.74162486918E+03  0.74163976201E+03  0.47000000000E+01 0. -1.
         -5   -1    0    0    0  501 -0.00000000000E+00 -0.00000000000E+00 -0.82356650139E+02  0.82490652938E+02  0.47000000000E+01 0.  1.
          6    1    1    2  502    0 -0.16723773298E+03  0.30974870804E+02  0.41505261450E+03  0.48039626847E+03  0.17200000000E+03 0. -1.
         -6    1    1    2    0  502  0.16723773298E+03 -0.30974870804E+02  0.24421560454E+03  0.34373414648E+03  0.17200000000E+03 0.  1.
</event>
<event>
 4    1 -0.3240665E-004  0.2714730E+03  0.7818608E-02  0.1100440E+00
         -5   -1    0    0    0  501 -0.00000000000E+00  0.00000000000E+00  0.88046616912E+03  0.88047871352E+03  0.47000000000E+01 0.  1.
          5   -1    0    0  501    0  0.00000000000E+00 -0.00000000000E+00 -0.83802286470E+02  0.83933981304E+02  0.47000000000E+01 0. -1.
          6    1    1    2  502    0  0.13274661088E+03 -0.16276335861E+03  0.42056843761E+03  0.50057505363E+03  0.17200000000E+03 0.  1.
         -6    1    1    2    0  502 -0.13274661088E+03  0.16276335861E+03  0.37609544504E+03  0.46383764119E+03  0.17200000000E+03 0. -1.
</event>
<event>
 4    1 -0.3240665E-004  0.2660631E+03  0.7818608E-02  0.1103554E+00
          5   -1    0    0  501    0  0.00000000000E+00  0.00000000000E+00  0.11871716221E+04  0.11871809257E+04  0.47000000000E+01 0. -1.
         -5   -1    0    0    0  501 -0.00000000000E+00 -0.00000000000E+00 -0.60637400333E+02  0.60819275884E+02  0.47000000000E+01 0.  1.
          6    1    1    2  502    0  0.16848023727E+03  0.11322531850E+03  0.64759001320E+03  0.70011598203E+03  0.17200000000E+03 0. -1.
         -6    1    1    2    0  502 -0.16848023727E+03 -0.11322531850E+03  0.47894420856E+03  0.54788421954E+03  0.17200000000E+03 0.  1.
</event>
<event>
 4    1 -0.3240665E-004  0.2350905E+03  0.7818608E-02  0.1123107E+00
         -5   -1    0    0    0  501 -0.00000000000E+00  0.00000000000E+00  0.75696890509E+02  0.75842661034E+02  0.47000000000E+01 0.  1.
          5   -1    0    0  501    0  0.00000000000E+00 -0.00000000000E+00 -0.86817160720E+03  0.86818432925E+03  0.47000000000E+01 0. -1.
          6    1    1    2  502    0 -0.74851667086E+02 -0.14170669355E+03 -0.58502755636E+03  0.63049567862E+03  0.17200000000E+03 0. -1.
         -6    1    1    2    0  502  0.74851667086E+02  0.14170669355E+03 -0.20744716034E+03  0.31353131166E+03  0.17200000000E+03 0.  1.
</event>
<event>
 4    1 -0.3240665E-004  0.3109826E+03  0.7818608E-02  0.1079876E+00
         -5   -1    0    0    0  501 -0.00000000000E+00  0.00000000000E+00  0.10156049479E+04  0.10156158232E+04  0.47000000000E+01 0.  1.
          5   -1    0    0  501    0  0.00000000000E+00 -0.00000000000E+00 -0.20280770300E+03  0.20286215615E+03  0.47000000000E+01 0. -1.
          6    1    1    2  502    0  0.24861484709E+03 -0.72916794241E+02 -0.37368752522E+02  0.31321977068E+03  0.17200000000E+03 0. -1.
         -6    1    1    2    0  502 -0.24861484709E+03  0.72916794241E+02  0.85016599744E+03  0.90525820862E+03  0.17200000000E+03 0.  1.
</event>
<event>
 4    1 -0.3240665E-004  0.2230981E+03  0.7818608E-02  0.1131594E+00
          5   -1    0    0  501    0  0.00000000000E+00  0.00000000000E+00  0.18435240688E+04  0.18435300600E+04  0.47000000000E+01 0. -1.
         -5   -1    0    0    0  501 -0.00000000000E+00 -0.00000000000E+00 -0.42574845624E+02  0.42833485498E+02  0.47000000000E+01 0.  1.
          6    1    1    2  502    0 -0.14076282190E+03 -0.19354411921E+02  0.32841858893E+03  0.39702838040E+03  0.17200000000E+03 0. -1.
         -6    1    1    2    0  502  0.14076282190E+03  0.19354411921E+02  0.14725306343E+04  0.14893351651E+04  0.17200000000E+03 0.  1.
</event>
<event>
 4    1 -0.3240665E-004  0.2582805E+03  0.7818608E-02  0.1108181E+00
         -5   -1    0    0    0  501 -0.00000000000E+00  0.00000000000E+00  0.37348606882E+03  0.37351564037E+03  0.47000000000E+01 0.  1.
          5   -1    0    0  501    0  0.00000000000E+00 -0.00000000000E+00 -0.20202925194E+03  0.20208391485E+03  0.47000000000E+01 0. -1.
          6    1    1    2  502    0 -0.17980933139E+03 -0.69234401370E+02 -0.12376307767E+02  0.25857681834E+03  0.17200000000E+03 0. -1.
         -6    1    1    2    0  502  0.17980933139E+03  0.69234401370E+02  0.18383312464E+03  0.31702273689E+03  0.17200000000E+03 0.  1.
</event>
<event>
 4    1 -0.3240665E-004  0.3039902E+03  0.7818608E-02  0.1083263E+00
         -5   -1    0    0    0  501 -0.00000000000E+00  0.00000000000E+00  0.51121907607E+03  0.51124068083E+03  0.47000000000E+01 0.  1.
          5   -1    0    0  501    0  0.00000000000E+00 -0.00000000000E+00 -0.22647525374E+03  0.22652401761E+03  0.47000000000E+01 0. -1.
          6    1    1    2  502    0 -0.23374076411E+03  0.90505881567E+02 -0.23426721636E+02  0.30489157202E+03  0.17200000000E+03 0. -1.
         -6    1    1    2    0  502  0.23374076411E+03 -0.90505881567E+02  0.30817054397E+03  0.43287312642E+03  0.17200000000E+03 0. -1.
</event>
<event>
 4    1 -0.3240665E-004  0.4930829E+03  0.7818608E-02  0.1015600E+00
         -5   -1    0    0    0  501 -0.00000000000E+00  0.00000000000E+00  0.11505830519E+03  0.11515425999E+03  0.47000000000E+01 0.  1.
          5   -1    0    0  501    0  0.00000000000E+00 -0.00000000000E+00 -0.21843010595E+04  0.21843061160E+04  0.47000000000E+01 0. -1.
          6    1    1    2  502    0 -0.44687811416E+03  0.11767185916E+03 -0.12436052789E+04  0.13377910170E+04  0.17200000000E+03 0. -1.
         -6    1    1    2    0  502  0.44687811416E+03 -0.11767185916E+03 -0.82563747536E+03  0.96166935902E+03  0.17200000000E+03 0. -1.
</event>
<event>
 4    1 -0.3240665E-004  0.2401657E+03  0.7818608E-02  0.1119682E+00
          5   -1    0    0  501    0  0.00000000000E+00  0.00000000000E+00  0.66323880846E+03  0.66325546138E+03  0.47000000000E+01 0. -1.
         -5   -1    0    0    0  501 -0.00000000000E+00 -0.00000000000E+00 -0.88882438019E+02  0.89006616542E+02  0.47000000000E+01 0.  1.
          6    1    1    2  502    0  0.84999803093E+02  0.14446658103E+03  0.23084112687E+03  0.33311737483E+03  0.17200000000E+03 0. -1.
         -6    1    1    2    0  502 -0.84999803093E+02 -0.14446658103E+03  0.34351524357E+03  0.41914470309E+03  0.17200000000E+03 0.  1.
</event>
<event>
 4    1 -0.3240665E-004  0.2709746E+03  0.7818608E-02  0.1100723E+00
         -5   -1    0    0    0  501 -0.00000000000E+00  0.00000000000E+00  0.24867643942E+03  0.24872085060E+03  0.47000000000E+01 0.  1.
          5   -1    0    0  501    0  0.00000000000E+00 -0.00000000000E+00 -0.35178243044E+03  0.35181382629E+03  0.47000000000E+01 0. -1.
          6    1    1    2  502    0 -0.14992518694E+03 -0.14617006938E+03 -0.17198150642E+03  0.32094374805E+03  0.17200000000E+03 0. -1.
         -6    1    1    2    0  502  0.14992518694E+03  0.14617006938E+03  0.68875515396E+02  0.27959092883E+03  0.17200000000E+03 0.  1.
</event>
<event>
 4    1 -0.3240665E-004  0.1885338E+03  0.7818608E-02  0.1159790E+00
         -5   -1    0    0    0  501 -0.00000000000E+00  0.00000000000E+00  0.15401526015E+03  0.15408695714E+03  0.47000000000E+01 0.  1.
          5   -1    0    0  501    0  0.00000000000E+00 -0.00000000000E+00 -0.32557369389E+03  0.32560761686E+03  0.47000000000E+01 0. -1.
          6    1    1    2  502    0 -0.47316624899E+02 -0.61009151259E+02  0.43713924904E+02  0.19353523390E+03  0.17200000000E+03 0.  1.
         -6    1    1    2    0  502  0.47316624899E+02  0.61009151259E+02 -0.21527235864E+03  0.28615934010E+03  0.17200000000E+03 0. -1.
</event>
<event>
 4    1 -0.3240665E-004  0.2209850E+03  0.7818608E-02  0.1133151E+00
          5   -1    0    0  501    0  0.00000000000E+00  0.00000000000E+00  0.13136307140E+03  0.13144712446E+03  0.47000000000E+01 0. -1.
         -5   -1    0    0    0  501 -0.00000000000E+00 -0.00000000000E+00 -0.37712532428E+03  0.37715461049E+03  0.47000000000E+01 0.  1.
          6    1    1    2  502    0  0.11749207617E+03 -0.73796847688E+02 -0.15384289996E+03  0.26926195528E+03  0.17200000000E+03 0. -1.
         -6    1    1    2    0  502 -0.11749207617E+03  0.73796847688E+02 -0.91919352920E+02  0.23933977967E+03  0.17200000000E+03 0. -1.
</event>
<event>
 4    1 -0.3240665E-004  0.4353131E+03  0.7818608E-02  0.1032195E+00
          5   -1    0    0  501    0  0.00000000000E+00  0.00000000000E+00  0.89850161924E+03  0.89851391185E+03  0.47000000000E+01 0. -1.
         -5   -1    0    0    0  501 -0.00000000000E+00 -0.00000000000E+00 -0.52470543692E+03  0.52472648641E+03  0.47000000000E+01 0.  1.
          6    1    1    2  502    0  0.24674459262E+03 -0.31469130934E+03  0.73723082830E+03  0.85615816784E+03  0.17200000000E+03 0. -1.
         -6    1    1    2    0  502 -0.24674459262E+03  0.31469130934E+03 -0.36343464598E+03  0.56708223042E+03  0.17200000000E+03 0.  1.
</event>
<event>
 4    1 -0.3240665E-004  0.2611349E+03  0.7818608E-02  0.1106463E+00
          5   -1    0    0  501    0  0.00000000000E+00  0.00000000000E+00  0.45961419658E+03  0.45963822698E+03  0.47000000000E+01 0. -1.
         -5   -1    0    0    0  501 -0.00000000000E+00 -0.00000000000E+00 -0.14981981311E+03  0.14989351687E+03  0.47000000000E+01 0.  1.
          6    1    1    2  502    0  0.19646964132E+03  0.26649586596E+01  0.12422692306E+03  0.28917771418E+03  0.17200000000E+03 0. -1.
         -6    1    1    2    0  502 -0.19646964132E+03 -0.26649586596E+01  0.18556746042E+03  0.32035402968E+03  0.17200000000E+03 0.  1.
</event>
<event>
 4    1 -0.3240665E-004  0.1728303E+03  0.7818608E-02  0.1174928E+00
         -5   -1    0    0    0  501 -0.00000000000E+00  0.00000000000E+00  0.19753719014E+04  0.19753774927E+04  0.47000000000E+01 0.  1.
          5   -1    0    0  501    0  0.00000000000E+00 -0.00000000000E+00 -0.15384557833E+02  0.16086473191E+02  0.47000000000E+01 0. -1.
          6    1    1    2  502    0 -0.12673700527E+02  0.11211660008E+02  0.78241634291E+03  0.80127751600E+03  0.17200000000E+03 0.  1.
         -6    1    1    2    0  502  0.12673700527E+02 -0.11211660008E+02  0.11775710006E+04  0.11901864499E+04  0.17200000000E+03 0.  1.
</event>
<event>
 4    1 -0.3240665E-004  0.1818354E+03  0.7818608E-02  0.1166038E+00
          5   -1    0    0  501    0  0.00000000000E+00  0.00000000000E+00  0.34447770535E+03  0.34450976690E+03  0.47000000000E+01 0. -1.
         -5   -1    0    0    0  501 -0.00000000000E+00 -0.00000000000E+00 -0.38414574987E+03  0.38417450091E+03  0.47000000000E+01 0.  1.
          6    1    1    2  502    0 -0.40665616311E+02  0.42736835833E+02  0.29573337901E+03  0.34716330587E+03  0.17200000000E+03 0. -1.
         -6    1    1    2    0  502  0.40665616311E+02 -0.42736835833E+02 -0.33540142353E+03  0.38152096193E+03  0.17200000000E+03 0.  1.
</event>
<event>
 4    1 -0.3240665E-004  0.1966307E+03  0.7818608E-02  0.1152613E+00
          5   -1    0    0  501    0  0.00000000000E+00  0.00000000000E+00  0.56161506432E+03  0.56163473047E+03  0.47000000000E+01 0. -1.
         -5   -1    0    0    0  501 -0.00000000000E+00 -0.00000000000E+00 -0.68947197487E+02  0.69107206870E+02  0.47000000000E+01 0.  1.
          6    1    1    2  502    0  0.90936450698E+02 -0.28463593769E+02  0.22917270611E+03  0.30196646082E+03  0.17200000000E+03 0.  1.
         -6    1    1    2    0  502 -0.90936450698E+02  0.28463593769E+02  0.26349516073E+03  0.32877547652E+03  0.17200000000E+03 0. -1.
</event>
<event>
 4    1 -0.3240665E-004  0.2471857E+03  0.7818608E-02  0.1115096E+00
         -5   -1    0    0    0  501 -0.00000000000E+00  0.00000000000E+00  0.15393044690E+03  0.15400218337E+03  0.47000000000E+01 0.  1.
          5   -1    0    0  501    0  0.00000000000E+00 -0.00000000000E+00 -0.69613271811E+03  0.69614858416E+03  0.47000000000E+01 0. -1.
          6    1    1    2  502    0 -0.52831569081E+02 -0.16948624473E+03 -0.54983987347E+03  0.60284711852E+03  0.17200000000E+03 0. -1.
         -6    1    1    2    0  502  0.52831569081E+02  0.16948624473E+03  0.76376022607E+01  0.24730364901E+03  0.17200000000E+03 0.  1.
</event>
<event>
 4    1 -0.3240665E-004  0.2613971E+03  0.7818608E-02  0.1106307E+00
          5   -1    0    0  501    0  0.00000000000E+00  0.00000000000E+00  0.32776096832E+04  0.32776130530E+04  0.47000000000E+01 0. -1.
         -5   -1    0    0    0  501 -0.00000000000E+00 -0.00000000000E+00 -0.28742182806E+02  0.29123926117E+02  0.47000000000E+01 0.  1.
          6    1    1    2  502    0  0.12257173617E+03 -0.15401496458E+03  0.24986229053E+04  0.25122589163E+04  0.17200000000E+03 0. -1.
         -6    1    1    2    0  502 -0.12257173617E+03  0.15401496458E+03  0.75024459509E+03  0.79447806281E+03  0.17200000000E+03 0.  1.
</event>
<event>
 4    1 -0.3240665E-004  0.1748762E+03  0.7818608E-02  0.1172856E+00
          5   -1    0    0  501    0  0.00000000000E+00  0.00000000000E+00  0.84844711929E+02  0.84974791216E+02  0.47000000000E+01 0. -1.
         -5   -1    0    0    0  501 -0.00000000000E+00 -0.00000000000E+00 -0.36867922594E+03  0.36870918302E+03  0.47000000000E+01 0.  1.
          6    1    1    2  502    0 -0.49185052306E+01 -0.31200620504E+02 -0.10716278231E+03  0.20509883551E+03  0.17200000000E+03 0.  1.
         -6    1    1    2    0  502  0.49185052306E+01  0.31200620504E+02 -0.17667173170E+03  0.24858513873E+03  0.17200000000E+03 0.  1.
</event>
<event>
 4    1 -0.3240665E-004  0.2048999E+03  0.7818608E-02  0.1145670E+00
         -5   -1    0    0    0  501 -0.00000000000E+00  0.00000000000E+00  0.49486096451E+02  0.49708789383E+02  0.47000000000E+01 0.  1.
          5   -1    0    0  501    0  0.00000000000E+00 -0.00000000000E+00 -0.10814843457E+04  0.10814945585E+04  0.47000000000E+01 0. -1.
          6    1    1    2  502    0  0.68754709197E+02 -0.87594265372E+02 -0.77974746747E+03  0.80621962168E+03  0.17200000000E+03 0. -1.
         -6    1    1    2    0  502 -0.68754709197E+02  0.87594265372E+02 -0.25225078177E+03  0.32498372616E+03  0.17200000000E+03 0.  1.
</event>
<event>
 4    1 -0.3240665E-004  0.2550885E+03  0.7818608E-02  0.1110131E+00
          5   -1    0    0  501    0  0.00000000000E+00  0.00000000000E+00  0.12819987021E+03  0.12828599581E+03  0.47000000000E+01 0. -1.
         -5   -1    0    0    0  501 -0.00000000000E+00 -0.00000000000E+00 -0.56837114401E+03  0.56839057640E+03  0.47000000000E+01 0.  1.
          6    1    1    2  502    0 -0.63758254091E+01 -0.18826971564E+03 -0.10591329417E+03  0.27620239473E+03  0.17200000000E+03 0. -1.
         -6    1    1    2    0  502  0.63758254091E+01  0.18826971564E+03 -0.33425797964E+03  0.42047417748E+03  0.17200000000E+03 0.  1.
</event>
<event>
 4    1 -0.3240665E-004  0.2026742E+03  0.7818608E-02  0.1147502E+00
          5   -1    0    0  501    0  0.00000000000E+00  0.00000000000E+00  0.45529441844E+02  0.45771389259E+02  0.47000000000E+01 0. -1.
         -5   -1    0    0    0  501 -0.00000000000E+00 -0.00000000000E+00 -0.98856052145E+03  0.98857169420E+03  0.47000000000E+01 0.  1.
          6    1    1    2  502    0 -0.35732377427E+02 -0.10107442465E+03 -0.31636212486E+03  0.37571509972E+03  0.17200000000E+03 0. -1.
         -6    1    1    2    0  502  0.35732377427E+02  0.10107442465E+03 -0.62666895475E+03  0.65862798373E+03  0.17200000000E+03 0.  1.
</event>
<event>
 4    1 -0.3240665E-004  0.1727940E+03  0.7818608E-02  0.1174965E+00
          5   -1    0    0  501    0  0.00000000000E+00  0.00000000000E+00  0.10326934664E+04  0.10327041616E+04  0.47000000000E+01 0. -1.
         -5   -1    0    0    0  501 -0.00000000000E+00 -0.00000000000E+00 -0.29037887131E+02  0.29415793191E+02  0.47000000000E+01 0.  1.
          6    1    1    2  502    0  0.29358548585E+01  0.16283125687E+02  0.44582199023E+03  0.47813701635E+03  0.17200000000E+03 0.  1.
         -6    1    1    2    0  502 -0.29358548585E+01 -0.16283125687E+02  0.55783358901E+03  0.58398293849E+03  0.17200000000E+03 0. -1.
</event>
<event>
 4    1 -0.3240665E-004  0.1838922E+03  0.7818608E-02  0.1164088E+00
         -5   -1    0    0    0  501 -0.00000000000E+00  0.00000000000E+00  0.14105983017E+03  0.14113810856E+03  0.47000000000E+01 0.  1.
          5   -1    0    0  501    0  0.00000000000E+00 -0.00000000000E+00 -0.35505802015E+03  0.35508912638E+03  0.47000000000E+01 0. -1.
          6    1    1    2  502    0  0.52253467876E+02  0.38754738133E+02 -0.24848447516E+03  0.30912924324E+03  0.17200000000E+03 0. -1.
         -6    1    1    2    0  502 -0.52253467876E+02 -0.38754738133E+02  0.34486285172E+02  0.18709799170E+03  0.17200000000E+03 0.  1.
</event>
<event>
 4    1 -0.3240665E-004  0.2697119E+03  0.7818608E-02  0.1101445E+00
         -5   -1    0    0    0  501 -0.00000000000E+00  0.00000000000E+00  0.16912010313E+03  0.16918539914E+03  0.47000000000E+01 0.  1.
          5   -1    0    0  501    0  0.00000000000E+00 -0.00000000000E+00 -0.10155977690E+04  0.10156086443E+04  0.47000000000E+01 0. -1.
          6    1    1    2  502    0 -0.64000993265E+02 -0.19764717554E+03 -0.87306364670E+03  0.91377495278E+03  0.17200000000E+03 0. -1.
         -6    1    1    2    0  502  0.64000993265E+02  0.19764717554E+03  0.26585980814E+02  0.27101909068E+03  0.17200000000E+03 0.  1.
</event>
<event>
 4    1 -0.3240665E-004  0.4306240E+03  0.7818608E-02  0.1033663E+00
         -5   -1    0    0    0  501 -0.00000000000E+00  0.00000000000E+00  0.19414082890E+04  0.19414139781E+04  0.47000000000E+01 0.  1.
          5   -1    0    0  501    0  0.00000000000E+00 -0.00000000000E+00 -0.99002457446E+02  0.99113957545E+02  0.47000000000E+01 0. -1.
          6    1    1    2  502    0 -0.34932873597E+03 -0.18390895420E+03  0.72813899169E+03  0.84594530581E+03  0.17200000000E+03 0. -1.
         -6    1    1    2    0  502  0.34932873597E+03  0.18390895420E+03  0.11142668398E+04  0.11945826299E+04  0.17200000000E+03 0.  1.
</event>
<event>
 4    1 -0.3240665E-004  0.1762724E+03  0.7818608E-02  0.1171460E+00
          5   -1    0    0  501    0  0.00000000000E+00  0.00000000000E+00  0.10770291734E+03  0.10780541918E+03  0.47000000000E+01 0. -1.
         -5   -1    0    0    0  501 -0.00000000000E+00 -0.00000000000E+00 -0.32672606080E+03  0.32675986413E+03  0.47000000000E+01 0.  1.
          6    1    1    2  502    0  0.14494564650E+02 -0.35747296685E+02 -0.34951933000E+02  0.17970419930E+03  0.17200000000E+03 0. -1.
         -6    1    1    2    0  502 -0.14494564650E+02  0.35747296685E+02 -0.18407121045E+03  0.25486108401E+03  0.17200000000E+03 0.  1.
</event>
<event>
 4    1 -0.3240665E-004  0.1830127E+03  0.7818608E-02  0.1164919E+00
         -5   -1    0    0    0  501 -0.00000000000E+00  0.00000000000E+00  0.15839391969E+04  0.15839461700E+04  0.47000000000E+01 0.  1.
          5   -1    0    0  501    0  0.00000000000E+00 -0.00000000000E+00 -0.24581235999E+02  0.25026529188E+02  0.47000000000E+01 0. -1.
          6    1    1    2  502    0  0.38020868968E+01  0.62411411692E+02  0.47047742026E+03  0.50481941637E+03  0.17200000000E+03 0. -1.
         -6    1    1    2    0  502 -0.38020868968E+01 -0.62411411692E+02  0.10888805406E+04  0.11041532828E+04  0.17200000000E+03 0.  1.
</event>
<event>
 4    1 -0.3240665E-004  0.1907551E+03  0.7818608E-02  0.1157782E+00
          5   -1    0    0  501    0  0.00000000000E+00  0.00000000000E+00  0.24349635937E+02  0.24799088093E+02  0.47000000000E+01 0. -1.
         -5   -1    0    0    0  501 -0.00000000000E+00 -0.00000000000E+00 -0.14809061795E+04  0.14809136378E+04  0.47000000000E+01 0.  1.
          6    1    1    2  502    0  0.66437081077E+02 -0.48883589518E+02 -0.71250918495E+03  0.73760208087E+03  0.17200000000E+03 0.  1.
         -6    1    1    2    0  502 -0.66437081077E+02  0.48883589518E+02 -0.74404735864E+03  0.76811064500E+03  0.17200000000E+03 0. -1.
</event>
<event>
 4    1 -0.3240665E-004  0.1833128E+03  0.7818608E-02  0.1164635E+00
         -5   -1    0    0    0  501 -0.00000000000E+00  0.00000000000E+00  0.32445414276E+02  0.32784064841E+02  0.47000000000E+01 0.  1.
          5   -1    0    0  501    0  0.00000000000E+00 -0.00000000000E+00 -0.10904164160E+04  0.10904265452E+04  0.47000000000E+01 0. -1.
          6    1    1    2  502    0 -0.44026663003E+02  0.45620569677E+02 -0.66118603835E+03  0.68612721906E+03  0.17200000000E+03 0. -1.
         -6    1    1    2    0  502  0.44026663003E+02 -0.45620569677E+02 -0.39678496342E+03  0.43708339093E+03  0.17200000000E+03 0. -1.
</event>
<event>
 4    1 -0.3240665E-004  0.2699604E+03  0.7818608E-02  0.1101302E+00
         -5   -1    0    0    0  501 -0.00000000000E+00  0.00000000000E+00  0.31526957100E+03  0.31530460257E+03  0.47000000000E+01 0.  1.
          5   -1    0    0  501    0  0.00000000000E+00 -0.00000000000E+00 -0.23212054644E+03  0.23216812460E+03  0.47000000000E+01 0. -1.
          6    1    1    2  502    0  0.13030669631E+03  0.16221829741E+03  0.23347922262E+02  0.27096814682E+03  0.17200000000E+03 0. -1.
         -6    1    1    2    0  502 -0.13030669631E+03 -0.16221829741E+03  0.59801102300E+02  0.27650458035E+03  0.17200000000E+03 0. -1.
</event>
<event>
 4    1 -0.3240665E-004  0.1730046E+03  0.7818608E-02  0.1174750E+00
         -5   -1    0    0    0  501 -0.00000000000E+00  0.00000000000E+00  0.79501525879E+03  0.79502915148E+03  0.47000000000E+01 0.  1.
          5   -1    0    0  501    0  0.00000000000E+00 -0.00000000000E+00 -0.42664894275E+02  0.42922991549E+02  0.47000000000E+01 0. -1.
          6    1    1    2  502    0 -0.15921169215E+02  0.96486129727E+01  0.52164323048E+03  0.54958369632E+03  0.17200000000E+03 0.  1.
         -6    1    1    2    0  502  0.15921169215E+02 -0.96486129727E+01  0.23070713403E+03  0.28836844670E+03  0.17200000000E+03 0. -1.
</event>
<event>
 4    1 -0.3240665E-004  0.2083236E+03  0.7818608E-02  0.1142900E+00
         -5   -1    0    0    0  501 -0.00000000000E+00  0.00000000000E+00  0.27001634553E+03  0.27005724736E+03  0.47000000000E+01 0.  1.
          5   -1    0    0  501    0  0.00000000000E+00 -0.00000000000E+00 -0.34915864005E+03  0.34919027180E+03  0.47000000000E+01 0. -1.
          6    1    1    2  502    0  0.47289801425E+01 -0.11744088913E+03 -0.26705193204E+03  0.33869670813E+03  0.17200000000E+03 0. -1.
         -6    1    1    2    0  502 -0.47289801425E+01  0.11744088913E+03  0.18790963752E+03  0.28055081102E+03  0.17200000000E+03 0.  1.
</event>
<event>
 4    1 -0.3240665E-004  0.2035159E+03  0.7818608E-02  0.1146806E+00
          5   -1    0    0  501    0  0.00000000000E+00  0.00000000000E+00  0.32515925500E+03  0.32519322120E+03  0.47000000000E+01 0. -1.
         -5   -1    0    0    0  501 -0.00000000000E+00 -0.00000000000E+00 -0.34436951465E+03  0.34440158626E+03  0.47000000000E+01 0.  1.
          6    1    1    2  502    0  0.87620830984E+02 -0.64477282693E+02  0.25617006185E+03  0.32717247835E+03  0.17200000000E+03 0. -1.
         -6    1    1    2    0  502 -0.87620830984E+02  0.64477282693E+02 -0.27538032149E+03  0.34242232910E+03  0.17200000000E+03 0.  1.
</event>
<event>
 4    1 -0.3240665E-004  0.1738501E+03  0.7818608E-02  0.1173891E+00
          5   -1    0    0  501    0  0.00000000000E+00  0.00000000000E+00  0.69739427443E+02  0.69897623279E+02  0.47000000000E+01 0. -1.
         -5   -1    0    0    0  501 -0.00000000000E+00 -0.00000000000E+00 -0.43540652904E+03  0.43543189540E+03  0.47000000000E+01 0.  1.
          6    1    1    2  502    0  0.13069555353E+02 -0.21657094902E+02 -0.20267449585E+03  0.26702208580E+03  0.17200000000E+03 0.  1.
         -6    1    1    2    0  502 -0.13069555353E+02  0.21657094902E+02 -0.16299260575E+03  0.23830743288E+03  0.17200000000E+03 0. -1.
</event>
<event>
 4    1 -0.3240665E-004  0.1817259E+03  0.7818608E-02  0.1166143E+00
         -5   -1    0    0    0  501 -0.00000000000E+00  0.00000000000E+00  0.26476517282E+03  0.26480688575E+03  0.47000000000E+01 0.  1.
          5   -1    0    0  501    0  0.00000000000E+00 -0.00000000000E+00 -0.17467615558E+03  0.17473937544E+03  0.47000000000E+01 0. -1.
          6    1    1    2  502    0 -0.22927917744E+01  0.58609207533E+02 -0.72547187291E+02  0.19567163945E+03  0.17200000000E+03 0. -1.
         -6    1    1    2    0  502  0.22927917744E+01 -0.58609207533E+02  0.16263620453E+03  0.24387462174E+03  0.17200000000E+03 0.  1.
</event>
<event>
 4    1 -0.3240665E-004  0.1725707E+03  0.7818608E-02  0.1175193E+00
          5   -1    0    0  501    0  0.00000000000E+00  0.00000000000E+00  0.11706326027E+03  0.11715757297E+03  0.47000000000E+01 0. -1.
         -5   -1    0    0    0  501 -0.00000000000E+00 -0.00000000000E+00 -0.32504846950E+03  0.32508244727E+03  0.47000000000E+01 0.  1.
          6    1    1    2  502    0  0.74673900737E+01 -0.11869984927E+02 -0.76564185737E+00  0.17257243309E+03  0.17200000000E+03 0. -1.
         -6    1    1    2    0  502 -0.74673900737E+01  0.11869984927E+02 -0.20721956737E+03  0.26966758715E+03  0.17200000000E+03 0.  1.
</event>
<event>
 4    1 -0.3240665E-004  0.1940586E+03  0.7818608E-02  0.1154851E+00
         -5   -1    0    0    0  501 -0.00000000000E+00  0.00000000000E+00  0.10500835871E+03  0.10511348818E+03  0.47000000000E+01 0.  1.
          5   -1    0    0  501    0  0.00000000000E+00 -0.00000000000E+00 -0.35851699381E+03  0.35854779995E+03  0.47000000000E+01 0. -1.
          6    1    1    2  502    0  0.42227386118E+02 -0.79319492036E+02 -0.13210304589E+03  0.23475508235E+03  0.17200000000E+03 0. -1.
         -6    1    1    2    0  502 -0.42227386118E+02  0.79319492036E+02 -0.12140558921E+03  0.22890620579E+03  0.17200000000E+03 0. -1.
</event>
<event>
 4    1 -0.3240665E-004  0.1756797E+03  0.7818608E-02  0.1172051E+00
          5   -1    0    0  501    0  0.00000000000E+00  0.00000000000E+00  0.26470494015E+03  0.26474666257E+03  0.47000000000E+01 0. -1.
         -5   -1    0    0    0  501 -0.00000000000E+00 -0.00000000000E+00 -0.12502540609E+03  0.12511371695E+03  0.47000000000E+01 0.  1.
          6    1    1    2  502    0 -0.21862027817E+02  0.28309240539E+02  0.12072381031E+03  0.21316097142E+03  0.17200000000E+03 0. -1.
         -6    1    1    2    0  502  0.21862027817E+02 -0.28309240539E+02  0.18955723746E+02  0.17669940810E+03  0.17200000000E+03 0.  1.
</event>
<event>
 4    1 -0.3240665E-004  0.2383246E+03  0.7818608E-02  0.1120914E+00
         -5   -1    0    0    0  501 -0.00000000000E+00  0.00000000000E+00  0.16527739299E+03  0.16534420653E+03  0.47000000000E+01 0.  1.
          5   -1    0    0  501    0  0.00000000000E+00 -0.00000000000E+00 -0.38099517687E+03  0.38102416563E+03  0.47000000000E+01 0. -1.
          6    1    1    2  502    0  0.16322508238E+03  0.23920584573E+02 -0.19354391698E+03  0.30701444540E+03  0.17200000000E+03 0. -1.
         -6    1    1    2    0  502 -0.16322508238E+03 -0.23920584573E+02 -0.22173866898E+02  0.23935392676E+03  0.17200000000E+03 0.  1.
</event>
<event>
 4    1 -0.3240665E-004  0.3128792E+03  0.7818608E-02  0.1078974E+00
         -5   -1    0    0    0  501 -0.00000000000E+00  0.00000000000E+00  0.23766548510E+03  0.23771195344E+03  0.47000000000E+01 0.  1.
          5   -1    0    0  501    0  0.00000000000E+00 -0.00000000000E+00 -0.43568598669E+03  0.43571133678E+03  0.47000000000E+01 0. -1.
          6    1    1    2  502    0 -0.12786394799E+03 -0.22794778697E+03 -0.17785040931E+03  0.35989463857E+03  0.17200000000E+03 0.  1.
         -6    1    1    2    0  502  0.12786394799E+03  0.22794778697E+03 -0.20170092280E+02  0.31352865164E+03  0.17200000000E+03 0.  1.
</event>
<event>
 4    1 -0.3240665E-004  0.2544947E+03  0.7818608E-02  0.1110497E+00
          5   -1    0    0  501    0  0.00000000000E+00  0.00000000000E+00  0.78804217484E+02  0.78944250540E+02  0.47000000000E+01 0. -1.
         -5   -1    0    0    0  501 -0.00000000000E+00 -0.00000000000E+00 -0.10142103077E+04  0.10142211979E+04  0.47000000000E+01 0.  1.
          6    1    1    2  502    0  0.84169546041E+02 -0.16762761970E+03 -0.22915741356E+03  0.34246262797E+03  0.17200000000E+03 0. -1.
         -6    1    1    2    0  502 -0.84169546041E+02  0.16762761970E+03 -0.70624867664E+03  0.75070282044E+03  0.17200000000E+03 0.  1.
</event>
<event>
 4    1 -0.3240665E-004  0.2273480E+03  0.7818608E-02  0.1128520E+00
         -5   -1    0    0    0  501 -0.00000000000E+00  0.00000000000E+00  0.53435121150E+03  0.53437188103E+03  0.47000000000E+01 0.  1.
          5   -1    0    0  501    0  0.00000000000E+00 -0.00000000000E+00 -0.14934310684E+03  0.14941704575E+03  0.47000000000E+01 0. -1.
          6    1    1    2  502    0  0.11601510802E+03  0.92971093809E+02 -0.10503992999E+02  0.22759056097E+03  0.17200000000E+03 0. -1.
         -6    1    1    2    0  502 -0.11601510802E+03 -0.92971093809E+02  0.39551209767E+03  0.45619836581E+03  0.17200000000E+03 0.  1.
</event>
<event>
 4    1 -0.3240665E-004  0.5186701E+03  0.7818608E-02  0.1009017E+00
         -5   -1    0    0    0  501 -0.00000000000E+00  0.00000000000E+00  0.19348545759E+03  0.19354253356E+03  0.47000000000E+01 0.  1.
          5   -1    0    0  501    0  0.00000000000E+00 -0.00000000000E+00 -0.17422688671E+04  0.17422752065E+04  0.47000000000E+01 0. -1.
          6    1    1    2  502    0  0.46168777090E+03 -0.16210832841E+03 -0.12095372239E+04  0.13160543317E+04  0.17200000000E+03 0. -1.
         -6    1    1    2    0  502 -0.46168777090E+03  0.16210832841E+03 -0.33924618560E+03  0.61976340839E+03  0.17200000000E+03 0.  1.
</event>
<event>
 4    1 -0.3240665E-004  0.2634452E+03  0.7818608E-02  0.1105091E+00
          5   -1    0    0  501    0  0.00000000000E+00  0.00000000000E+00  0.11317847831E+03  0.11327602550E+03  0.47000000000E+01 0. -1.
         -5   -1    0    0    0  501 -0.00000000000E+00 -0.00000000000E+00 -0.62589201936E+03  0.62590966593E+03  0.47000000000E+01 0.  1.
          6    1    1    2  502    0  0.15353717725E+01  0.19954201428E+03 -0.30970356546E+03  0.40659521798E+03  0.17200000000E+03 0.  1.
         -6    1    1    2    0  502 -0.15353717725E+01 -0.19954201428E+03 -0.20300997560E+03  0.33259047344E+03  0.17200000000E+03 0. -1.
</event>
<event>
 4    1 -0.3240665E-004  0.3630678E+03  0.7818608E-02  0.1057376E+00
          5   -1    0    0  501    0  0.00000000000E+00  0.00000000000E+00  0.33668910331E+03  0.33672190646E+03  0.47000000000E+01 0. -1.
         -5   -1    0    0    0  501 -0.00000000000E+00 -0.00000000000E+00 -0.39149839876E+03  0.39152660987E+03  0.47000000000E+01 0.  1.
          6    1    1    2  502    0 -0.29253434821E+03  0.12906536306E+03 -0.31569512209E+02  0.36443771337E+03  0.17200000000E+03 0. -1.
         -6    1    1    2    0  502  0.29253434821E+03 -0.12906536306E+03 -0.23239783244E+02  0.36381080296E+03  0.17200000000E+03 0.  1.
</event>
<event>
 4    1 -0.3240665E-004  0.1828748E+03  0.7818608E-02  0.1165049E+00
          5   -1    0    0  501    0  0.00000000000E+00  0.00000000000E+00  0.33315970254E+03  0.33319285316E+03  0.47000000000E+01 0. -1.
         -5   -1    0    0    0  501 -0.00000000000E+00 -0.00000000000E+00 -0.25761466313E+03  0.25765753367E+03  0.47000000000E+01 0.  1.
          6    1    1    2  502    0 -0.18870528505E+01 -0.62093674145E+02  0.26859074692E+03  0.32493718572E+03  0.17200000000E+03 0. -1.
         -6    1    1    2    0  502  0.18870528505E+01  0.62093674145E+02 -0.19304570750E+03  0.26591320111E+03  0.17200000000E+03 0.  1.
</event>
<event>
 4    1 -0.3240665E-004  0.1793379E+03  0.7818608E-02  0.1168445E+00
         -5   -1    0    0    0  501 -0.00000000000E+00  0.00000000000E+00  0.52953655977E+03  0.52955741722E+03  0.47000000000E+01 0.  1.
          5   -1    0    0  501    0  0.00000000000E+00 -0.00000000000E+00 -0.94499538727E+02  0.94616345415E+02  0.47000000000E+01 0. -1.
          6    1    1    2  502    0  0.33229353270E+02  0.38391485945E+02  0.30830059558E+02  0.18196864753E+03  0.17200000000E+03 0. -1.
         -6    1    1    2    0  502 -0.33229353270E+02 -0.38391485945E+02  0.40420696149E+03  0.44220511511E+03  0.17200000000E+03 0.  1.
</event>
<event>
 4    1 -0.3240665E-004  0.2035509E+03  0.7818608E-02  0.1146777E+00
         -5   -1    0    0    0  501 -0.00000000000E+00  0.00000000000E+00  0.24197644693E+03  0.24202208757E+03  0.47000000000E+01 0.  1.
          5   -1    0    0  501    0  0.00000000000E+00 -0.00000000000E+00 -0.20724912179E+03  0.20730240829E+03  0.47000000000E+01 0. -1.
          6    1    1    2  502    0  0.10430054854E+03  0.31150483551E+02 -0.76397657736E+02  0.21741563688E+03  0.17200000000E+03 0. -1.
         -6    1    1    2    0  502 -0.10430054854E+03 -0.31150483551E+02  0.11112498288E+03  0.23190885898E+03  0.17200000000E+03 0.  1.
</event>
<event>
 4    1 -0.3240665E-004  0.1989976E+03  0.7818608E-02  0.1150588E+00
         -5   -1    0    0    0  501 -0.00000000000E+00  0.00000000000E+00  0.33116052271E+02  0.33447913508E+02  0.47000000000E+01 0.  1.
          5   -1    0    0  501    0  0.00000000000E+00 -0.00000000000E+00 -0.13408425335E+04  0.13408507709E+04  0.47000000000E+01 0. -1.
          6    1    1    2  502    0  0.48158115866E+02 -0.87731552941E+02 -0.88469280819E+03  0.90679732817E+03  0.17200000000E+03 0. -1.
         -6    1    1    2    0  502 -0.48158115866E+02  0.87731552941E+02 -0.42303367308E+03  0.46750135622E+03  0.17200000000E+03 0.  1.
</event>
<event>
 4    1 -0.3240665E-004  0.1887834E+03  0.7818608E-02  0.1159563E+00
          5   -1    0    0  501    0  0.00000000000E+00  0.00000000000E+00  0.91031386671E+03  0.91032599981E+03  0.47000000000E+01 0. -1.
         -5   -1    0    0    0  501 -0.00000000000E+00 -0.00000000000E+00 -0.39312180062E+02  0.39592139387E+02  0.47000000000E+01 0.  1.
          6    1    1    2  502    0  0.15046314233E+01  0.77800346302E+02  0.39312470556E+03  0.43610341884E+03  0.17200000000E+03 0.  1.
         -6    1    1    2    0  502 -0.15046314233E+01 -0.77800346302E+02  0.47787698109E+03  0.51381472036E+03  0.17200000000E+03 0. -1.
</event>
<event>
 4    1 -0.3240665E-004  0.3132388E+03  0.7818608E-02  0.1078804E+00
         -5   -1    0    0    0  501 -0.00000000000E+00  0.00000000000E+00  0.17774864318E+03  0.17781077063E+03  0.47000000000E+01 0.  1.
          5   -1    0    0  501    0  0.00000000000E+00 -0.00000000000E+00 -0.55208891544E+03  0.55210892092E+03  0.47000000000E+01 0. -1.
          6    1    1    2  502    0 -0.25431340715E+03  0.62122716528E+02 -0.19493964413E+03  0.36894444815E+03  0.17200000000E+03 0. -1.
         -6    1    1    2    0  502  0.25431340715E+03 -0.62122716528E+02 -0.17940062813E+03  0.36097524339E+03  0.17200000000E+03 0.  1.
</event>
<event>
 4    1 -0.3240665E-004  0.8691106E+03  0.7818608E-02  0.9465040E-01
          5   -1    0    0  501    0  0.00000000000E+00  0.00000000000E+00  0.11261132993E+04  0.11261231074E+04  0.47000000000E+01 0. -1.
         -5   -1    0    0    0  501 -0.00000000000E+00 -0.00000000000E+00 -0.68624411163E+03  0.68626020630E+03  0.47000000000E+01 0.  1.
          6    1    1    2  502    0  0.85010774732E+03  0.55551970671E+02  0.35613908151E+03  0.93924876837E+03  0.17200000000E+03 0. -1.
         -6    1    1    2    0  502 -0.85010774732E+03 -0.55551970671E+02  0.83730106199E+02  0.87313454530E+03  0.17200000000E+03 0.  1.
</event>
<event>
 4    1 -0.3240665E-004  0.1887542E+03  0.7818608E-02  0.1159590E+00
          5   -1    0    0  501    0  0.00000000000E+00  0.00000000000E+00  0.85687963925E+03  0.85689252894E+03  0.47000000000E+01 0. -1.
         -5   -1    0    0    0  501 -0.00000000000E+00 -0.00000000000E+00 -0.57428206001E+02  0.57620212118E+02  0.47000000000E+01 0.  1.
          6    1    1    2  502    0  0.22015831545E+02 -0.74561697091E+02  0.64053958561E+03  0.66777174562E+03  0.17200000000E+03 0. -1.
         -6    1    1    2    0  502 -0.22015831545E+02  0.74561697091E+02  0.15891184763E+03  0.24674099544E+03  0.17200000000E+03 0.  1.
</event>
<event>
 4    1 -0.3240665E-004  0.1884518E+03  0.7818608E-02  0.1159865E+00
          5   -1    0    0  501    0  0.00000000000E+00  0.00000000000E+00  0.35187750194E+03  0.35190888931E+03  0.47000000000E+01 0. -1.
         -5   -1    0    0    0  501 -0.00000000000E+00 -0.00000000000E+00 -0.10538734951E+03  0.10549210131E+03  0.47000000000E+01 0.  1.
          6    1    1    2  502    0  0.75466035350E+02  0.15328784833E+02  0.17073693415E+03  0.25429352099E+03  0.17200000000E+03 0. -1.
         -6    1    1    2    0  502 -0.75466035350E+02 -0.15328784833E+02  0.75753218281E+02  0.20310746962E+03  0.17200000000E+03 0.  1.
</event>
<event>
 4    1 -0.3240665E-004  0.7309613E+03  0.7818608E-02  0.9665702E-01
         -5   -1    0    0    0  501 -0.00000000000E+00  0.00000000000E+00  0.15170008265E+03  0.15177287332E+03  0.47000000000E+01 0.  1.
          5   -1    0    0  501    0  0.00000000000E+00 -0.00000000000E+00 -0.35218857962E+04  0.35218889323E+04  0.47000000000E+01 0. -1.
          6    1    1    2  502    0  0.33147666672E+03  0.62836589201E+03 -0.16593024032E+04  0.18131709627E+04  0.17200000000E+03 0. -1.
         -6    1    1    2    0  502 -0.33147666672E+03 -0.62836589201E+03 -0.17108833103E+04  0.18604908428E+04  0.17200000000E+03 0.  1.
</event>
<event>
 4    1 -0.3240665E-004  0.1747936E+03  0.7818608E-02  0.1172939E+00
          5   -1    0    0  501    0  0.00000000000E+00  0.00000000000E+00  0.17176678001E+03  0.17183107028E+03  0.47000000000E+01 0. -1.
         -5   -1    0    0    0  501 -0.00000000000E+00 -0.00000000000E+00 -0.22557690592E+03  0.22562586396E+03  0.47000000000E+01 0.  1.
          6    1    1    2  502    0  0.67404969570E+01 -0.30387176459E+02 -0.11839122702E+03  0.21111441786E+03  0.17200000000E+03 0.  1.
         -6    1    1    2    0  502 -0.67404969570E+01  0.30387176459E+02  0.64581101100E+02  0.18634251638E+03  0.17200000000E+03 0. -1.
</event>
<event>
 4    1 -0.3240665E-004  0.1953393E+03  0.7818608E-02  0.1153732E+00
         -5   -1    0    0    0  501 -0.00000000000E+00  0.00000000000E+00  0.34897074926E+03  0.34900239804E+03  0.47000000000E+01 0.  1.
          5   -1    0    0  501    0  0.00000000000E+00 -0.00000000000E+00 -0.10934413270E+03  0.10944509745E+03  0.47000000000E+01 0. -1.
          6    1    1    2  502    0 -0.22243583972E+02 -0.89881415026E+02  0.12632862284E+03  0.23262924739E+03  0.17200000000E+03 0. -1.
         -6    1    1    2    0  502  0.22243583972E+02  0.89881415026E+02  0.11329799372E+03  0.22581824810E+03  0.17200000000E+03 0.  1.
</event>
<event>
 4    1 -0.3240665E-004  0.2062991E+03  0.7818608E-02  0.1144531E+00
          5   -1    0    0  501    0  0.00000000000E+00  0.00000000000E+00  0.14522519456E+03  0.14530122895E+03  0.47000000000E+01 0. -1.
         -5   -1    0    0    0  501 -0.00000000000E+00 -0.00000000000E+00 -0.31916701656E+03  0.31920162039E+03  0.47000000000E+01 0.  1.
          6    1    1    2  502    0 -0.58969781105E+02 -0.97456987969E+02 -0.20336777373E+02  0.20729902099E+03  0.17200000000E+03 0.  1.
         -6    1    1    2    0  502  0.58969781105E+02  0.97456987969E+02 -0.15360504463E+03  0.25720382836E+03  0.17200000000E+03 0.  1.
</event>
<event>
 4    1 -0.3240665E-004  0.3074859E+03  0.7818608E-02  0.1081557E+00
          5   -1    0    0  501    0  0.00000000000E+00  0.00000000000E+00  0.52637950770E+03  0.52640049024E+03  0.47000000000E+01 0. -1.
         -5   -1    0    0    0  501 -0.00000000000E+00 -0.00000000000E+00 -0.33682594476E+03  0.33685873458E+03  0.47000000000E+01 0.  1.
          6    1    1    2  502    0 -0.69981252474E+02 -0.24508407644E+03  0.38967847908E+03  0.49638382053E+03  0.17200000000E+03 0. -1.
         -6    1    1    2    0  502  0.69981252474E+02  0.24508407644E+03 -0.20012491614E+03  0.36687540430E+03  0.17200000000E+03 0.  1.
</event>
<event>
 4    1 -0.3240665E-004  0.2414509E+03  0.7818608E-02  0.1118830E+00
         -5   -1    0    0    0  501 -0.00000000000E+00  0.00000000000E+00  0.17382442757E+03  0.17388795709E+03  0.47000000000E+01 0.  1.
          5   -1    0    0  501    0  0.00000000000E+00 -0.00000000000E+00 -0.33526452991E+03  0.33529747242E+03  0.47000000000E+01 0. -1.
          6    1    1    2  502    0  0.10364918796E+03  0.13405736753E+03 -0.78836304217E+02  0.25399546220E+03  0.17200000000E+03 0. -1.
         -6    1    1    2    0  502 -0.10364918796E+03 -0.13405736753E+03 -0.82603798114E+02  0.25518996731E+03  0.17200000000E+03 0.  1.
</event>
<event>
 4    1 -0.3240665E-004  0.1948983E+03  0.7818608E-02  0.1154116E+00
         -5   -1    0    0    0  501 -0.00000000000E+00  0.00000000000E+00  0.20890541386E+03  0.20895827799E+03  0.47000000000E+01 0.  1.
          5   -1    0    0  501    0  0.00000000000E+00 -0.00000000000E+00 -0.20105913309E+03  0.20111405967E+03  0.47000000000E+01 0. -1.
          6    1    1    2  502    0 -0.33328091867E+02 -0.85384994886E+02  0.67488537520E+02  0.20625242242E+03  0.17200000000E+03 0.  1.
         -6    1    1    2    0  502  0.33328091867E+02  0.85384994886E+02 -0.59642256742E+02  0.20381991524E+03  0.17200000000E+03 0.  1.
</event>
<event>
 4    1 -0.3240665E-004  0.1799253E+03  0.7818608E-02  0.1167875E+00
          5   -1    0    0  501    0  0.00000000000E+00  0.00000000000E+00  0.29917360977E+04  0.29917397896E+04  0.47000000000E+01 0. -1.
         -5   -1    0    0    0  501 -0.00000000000E+00 -0.00000000000E+00 -0.10306894305E+02  0.11327933183E+02  0.47000000000E+01 0.  1.
          6    1    1    2  502    0 -0.46707659566E+00 -0.52809931405E+02  0.14982070856E+04  0.15089723583E+04  0.17200000000E+03 0. -1.
         -6    1    1    2    0  502  0.46707659566E+00  0.52809931405E+02  0.14832221179E+04  0.14940953644E+04  0.17200000000E+03 0.  1.
</event>
<event>
 4    1 -0.3240665E-004  0.4529250E+03  0.7818608E-02  0.1026853E+00
          5   -1    0    0  501    0  0.00000000000E+00  0.00000000000E+00  0.26186245517E+03  0.26190463040E+03  0.47000000000E+01 0. -1.
         -5   -1    0    0    0  501 -0.00000000000E+00 -0.00000000000E+00 -0.96317690000E+03  0.96318836719E+03  0.47000000000E+01 0.  1.
          6    1    1    2  502    0  0.32434819085E+03 -0.26524570496E+03 -0.85937997738E+02  0.46100582682E+03  0.17200000000E+03 0. -1.
         -6    1    1    2    0  502 -0.32434819085E+03  0.26524570496E+03 -0.61537644709E+03  0.76408717077E+03  0.17200000000E+03 0.  1.
</event>
<event>
 4    1 -0.3240665E-004  0.1934003E+03  0.7818608E-02  0.1155430E+00
         -5   -1    0    0    0  501 -0.00000000000E+00  0.00000000000E+00  0.53699555941E+03  0.53701612715E+03  0.47000000000E+01 0.  1.
          5   -1    0    0  501    0  0.00000000000E+00 -0.00000000000E+00 -0.69618475226E+02  0.69776945281E+02  0.47000000000E+01 0. -1.
          6    1    1    2  502    0  0.94492860467E+01  0.87922638239E+02  0.24302366717E+03  0.31058683508E+03  0.17200000000E+03 0. -1.
         -6    1    1    2    0  502 -0.94492860467E+01 -0.87922638239E+02  0.22435341701E+03  0.29620623735E+03  0.17200000000E+03 0.  1.
</event>
<event>
 4    1 -0.3240665E-004  0.1851735E+03  0.7818608E-02  0.1162888E+00
         -5   -1    0    0    0  501 -0.00000000000E+00  0.00000000000E+00  0.43247345520E+03  0.43249899358E+03  0.47000000000E+01 0.  1.
          5   -1    0    0  501    0  0.00000000000E+00 -0.00000000000E+00 -0.86505316142E+02  0.86632902069E+02  0.47000000000E+01 0. -1.
          6    1    1    2  502    0 -0.53738845101E+02  0.42630420373E+02  0.97564916769E+02  0.20930391587E+03  0.17200000000E+03 0. -1.
         -6    1    1    2    0  502  0.53738845101E+02 -0.42630420373E+02  0.24840322229E+03  0.30982797978E+03  0.17200000000E+03 0.  1.
</event>
<event>
 4    1 -0.3240665E-004  0.1732897E+03  0.7818608E-02  0.1174460E+00
          5   -1    0    0  501    0  0.00000000000E+00  0.00000000000E+00  0.85435079562E+02  0.85564261347E+02  0.47000000000E+01 0. -1.
         -5   -1    0    0    0  501 -0.00000000000E+00 -0.00000000000E+00 -0.40738090615E+03  0.40740801747E+03  0.47000000000E+01 0.  1.
          6    1    1    2  502    0  0.20819334431E+02  0.34484204355E+01 -0.25259031581E+03  0.30631879461E+03  0.17200000000E+03 0.  1.
         -6    1    1    2    0  502 -0.20819334431E+02 -0.34484204355E+01 -0.69355510773E+02  0.18665348420E+03  0.17200000000E+03 0. -1.
</event>
<event>
 4    1 -0.3240665E-004  0.3223864E+03  0.7818608E-02  0.1074556E+00
         -5   -1    0    0    0  501 -0.00000000000E+00  0.00000000000E+00  0.16898909822E+03  0.16905444483E+03  0.47000000000E+01 0.  1.
          5   -1    0    0  501    0  0.00000000000E+00 -0.00000000000E+00 -0.63134140924E+03  0.63135890350E+03  0.47000000000E+01 0. -1.
          6    1    1    2  502    0  0.12628214052E+03 -0.24166462248E+03 -0.16646824772E+03  0.36282867344E+03  0.17200000000E+03 0. -1.
         -6    1    1    2    0  502 -0.12628214052E+03  0.24166462248E+03 -0.29588406330E+03  0.43758467488E+03  0.17200000000E+03 0. -1.
</event>
<event>
 4    1 -0.3240665E-004  0.1856670E+03  0.7818608E-02  0.1162429E+00
          5   -1    0    0  501    0  0.00000000000E+00  0.00000000000E+00  0.15514544781E+03  0.15521662275E+03  0.47000000000E+01 0. -1.
         -5   -1    0    0    0  501 -0.00000000000E+00 -0.00000000000E+00 -0.28618182666E+03  0.28622041840E+03  0.47000000000E+01 0.  1.
          6    1    1    2  502    0  0.33545354624E+02 -0.61342758818E+02  0.38949206253E+02  0.18970836973E+03  0.17200000000E+03 0. -1.
         -6    1    1    2    0  502 -0.33545354624E+02  0.61342758818E+02 -0.16998558510E+03  0.25172867143E+03  0.17200000000E+03 0.  1.
</event>
<event>
 4    1 -0.3240665E-004  0.2045297E+03  0.7818608E-02  0.1145973E+00
         -5   -1    0    0    0  501 -0.00000000000E+00  0.00000000000E+00  0.65357591329E+02  0.65526366787E+02  0.47000000000E+01 0.  1.
          5   -1    0    0  501    0  0.00000000000E+00 -0.00000000000E+00 -0.14431899860E+04  0.14431976392E+04  0.47000000000E+01 0. -1.
          6    1    1    2  502    0 -0.97246142030E+02  0.52835429562E+02 -0.12519782395E+04  0.12685747542E+04  0.17200000000E+03 0. -1.
         -6    1    1    2    0  502  0.97246142030E+02 -0.52835429562E+02 -0.12585415518E+03  0.24014925179E+03  0.17200000000E+03 0.  1.
</event>
<event>
 4    1 -0.3240665E-004  0.2770454E+03  0.7818608E-02  0.1097314E+00
          5   -1    0    0  501    0  0.00000000000E+00  0.00000000000E+00  0.24853612002E+03  0.24858055627E+03  0.47000000000E+01 0. -1.
         -5   -1    0    0    0  501 -0.00000000000E+00 -0.00000000000E+00 -0.61558958431E+03  0.61560752620E+03  0.47000000000E+01 0.  1.
          6    1    1    2  502    0 -0.14048382362E+03  0.16563347090E+03  0.12152521441E+03  0.30252690644E+03  0.17200000000E+03 0. -1.
         -6    1    1    2    0  502  0.14048382362E+03 -0.16563347090E+03 -0.48857867870E+03  0.56166117603E+03  0.17200000000E+03 0.  1.
</event>
<event>
 4    1 -0.3240665E-004  0.2310320E+03  0.7818608E-02  0.1125916E+00
          5   -1    0    0  501    0  0.00000000000E+00  0.00000000000E+00  0.19835453181E+03  0.19841020712E+03  0.47000000000E+01 0. -1.
         -5   -1    0    0    0  501 -0.00000000000E+00 -0.00000000000E+00 -0.28307723003E+03  0.28311624497E+03  0.47000000000E+01 0.  1.
          6    1    1    2  502    0 -0.15174239782E+03  0.27677060549E+02 -0.96082988817E+02  0.25021533869E+03  0.17200000000E+03 0.  1.
         -6    1    1    2    0  502  0.15174239782E+03 -0.27677060549E+02  0.11360290589E+02  0.23131111339E+03  0.17200000000E+03 0. -1.
</event>
<event>
 4    1 -0.3240665E-004  0.2601405E+03  0.7818608E-02  0.1107059E+00
          5   -1    0    0  501    0  0.00000000000E+00  0.00000000000E+00  0.11052625621E+04  0.11052725552E+04  0.47000000000E+01 0. -1.
         -5   -1    0    0    0  501 -0.00000000000E+00 -0.00000000000E+00 -0.74448208066E+02  0.74596418709E+02  0.47000000000E+01 0.  1.
          6    1    1    2  502    0 -0.19446581088E+03  0.16495658030E+02  0.76465508622E+03  0.80769453336E+03  0.17200000000E+03 0. -1.
         -6    1    1    2    0  502  0.19446581088E+03 -0.16495658030E+02  0.26615926786E+03  0.37217444055E+03  0.17200000000E+03 0.  1.
</event>
<event>
 4    1 -0.3240665E-004  0.1898094E+03  0.7818608E-02  0.1158633E+00
         -5   -1    0    0    0  501 -0.00000000000E+00  0.00000000000E+00  0.75564051020E+02  0.75710077311E+02  0.47000000000E+01 0.  1.
          5   -1    0    0  501    0  0.00000000000E+00 -0.00000000000E+00 -0.48522706615E+03  0.48524982815E+03  0.47000000000E+01 0. -1.
          6    1    1    2  502    0  0.66639752374E+02  0.44752292648E+02 -0.24315579470E+03  0.30846776945E+03  0.17200000000E+03 0. -1.
         -6    1    1    2    0  502 -0.66639752374E+02 -0.44752292648E+02 -0.16650722043E+03  0.25249213601E+03  0.17200000000E+03 0.  1.
</event>
<event>
 4    1 -0.3240665E-004  0.2390372E+03  0.7818608E-02  0.1120436E+00
         -5   -1    0    0    0  501 -0.00000000000E+00  0.00000000000E+00  0.10212640962E+03  0.10223450269E+03  0.47000000000E+01 0.  1.
          5   -1    0    0  501    0  0.00000000000E+00 -0.00000000000E+00 -0.71064726667E+03  0.71066280867E+03  0.47000000000E+01 0. -1.
          6    1    1    2  502    0 -0.46412678123E+02 -0.15937575748E+03 -0.49195323929E+03  0.54695224509E+03  0.17200000000E+03 0. -1.
         -6    1    1    2    0  502  0.46412678123E+02  0.15937575748E+03 -0.11656761776E+03  0.26594506627E+03  0.17200000000E+03 0.  1.
</event>
<event>
 4    1 -0.3240665E-004  0.2345853E+03  0.7818608E-02  0.1123453E+00
          5   -1    0    0  501    0  0.00000000000E+00  0.00000000000E+00  0.29507567091E+03  0.29511309961E+03  0.47000000000E+01 0. -1.
         -5   -1    0    0    0  501 -0.00000000000E+00 -0.00000000000E+00 -0.18910638926E+03  0.18916478652E+03  0.47000000000E+01 0.  1.
          6    1    1    2  502    0 -0.96522799345E+02  0.12700240984E+03  0.81855808291E+02  0.24845650776E+03  0.17200000000E+03 0. -1.
         -6    1    1    2    0  502  0.96522799345E+02 -0.12700240984E+03  0.24113473360E+02  0.23582137837E+03  0.17200000000E+03 0.  1.
</event>
<event>
 4    1 -0.3240665E-004  0.6053758E+03  0.7818608E-02  0.9894315E-01
          5   -1    0    0  501    0  0.00000000000E+00  0.00000000000E+00  0.34250840301E+03  0.34254064888E+03  0.47000000000E+01 0. -1.
         -5   -1    0    0    0  501 -0.00000000000E+00 -0.00000000000E+00 -0.11255320895E+04  0.11255419026E+04  0.47000000000E+01 0.  1.
          6    1    1    2  502    0  0.33577972739E+03 -0.47344253785E+03 -0.55470253947E+03  0.82108146323E+03  0.17200000000E+03 0. -1.
         -6    1    1    2    0  502 -0.33577972739E+03  0.47344253785E+03 -0.22832114698E+03  0.64700108819E+03  0.17200000000E+03 0.  1.
</event>
<event>
 4    1 -0.3240665E-004  0.1989428E+03  0.7818608E-02  0.1150634E+00
         -5   -1    0    0    0  501 -0.00000000000E+00  0.00000000000E+00  0.58009536397E+03  0.58011440363E+03  0.47000000000E+01 0.  1.
          5   -1    0    0  501    0  0.00000000000E+00 -0.00000000000E+00 -0.70575974667E+02  0.70732299554E+02  0.47000000000E+01 0. -1.
          6    1    1    2  502    0 -0.99198996532E+02 -0.12401893898E+02  0.31531501965E+03  0.37282946437E+03  0.17200000000E+03 0.  1.
         -6    1    1    2    0  502  0.99198996532E+02  0.12401893898E+02  0.19420436965E+03  0.27801723881E+03  0.17200000000E+03 0. -1.
</event>
<event>
 4    1 -0.3240665E-004  0.2201101E+03  0.7818608E-02  0.1133801E+00
          5   -1    0    0  501    0  0.00000000000E+00  0.00000000000E+00  0.64086238937E+03  0.64087962373E+03  0.47000000000E+01 0. -1.
         -5   -1    0    0    0  501 -0.00000000000E+00 -0.00000000000E+00 -0.11747675209E+03  0.11757073310E+03  0.47000000000E+01 0.  1.
          6    1    1    2  502    0  0.13700318960E+03  0.97259822356E+01  0.48822657853E+03  0.53554986759E+03  0.17200000000E+03 0. -1.
         -6    1    1    2    0  502 -0.13700318960E+03 -0.97259822356E+01  0.35159058744E+02  0.22290048924E+03  0.17200000000E+03 0.  1.
</event>
<event>
 4    1 -0.3240665E-004  0.2634490E+03  0.7818608E-02  0.1105089E+00
         -5   -1    0    0    0  501 -0.00000000000E+00  0.00000000000E+00  0.10100609601E+04  0.10100718950E+04  0.47000000000E+01 0.  1.
          5   -1    0    0  501    0  0.00000000000E+00 -0.00000000000E+00 -0.68664199010E+02  0.68824866333E+02  0.47000000000E+01 0. -1.
          6    1    1    2  502    0  0.19928472758E+03  0.10343169322E+02  0.45739967767E+03  0.52784453103E+03  0.17200000000E+03 0.  1.
         -6    1    1    2    0  502 -0.19928472758E+03 -0.10343169322E+02  0.48399708344E+03  0.55105223035E+03  0.17200000000E+03 0.  1.
</event>
<event>
 4    1 -0.3240665E-004  0.2006298E+03  0.7818608E-02  0.1149209E+00
          5   -1    0    0  501    0  0.00000000000E+00  0.00000000000E+00  0.36595360317E+03  0.36598378335E+03  0.47000000000E+01 0. -1.
         -5   -1    0    0    0  501 -0.00000000000E+00 -0.00000000000E+00 -0.11044649615E+03  0.11054645409E+03  0.47000000000E+01 0.  1.
          6    1    1    2  502    0 -0.10316573591E+03 -0.50157034268E+01  0.11112689241E+03  0.22935019634E+03  0.17200000000E+03 0. -1.
         -6    1    1    2    0  502  0.10316573591E+03  0.50157034268E+01  0.14438021461E+03  0.24718004110E+03  0.17200000000E+03 0.  1.
</event>
<event>
 4    1 -0.3240665E-004  0.1764261E+03  0.7818608E-02  0.1171307E+00
          5   -1    0    0  501    0  0.00000000000E+00  0.00000000000E+00  0.26659045789E+02  0.27070181425E+02  0.47000000000E+01 0. -1.
         -5   -1    0    0    0  501 -0.00000000000E+00 -0.00000000000E+00 -0.11586061710E+04  0.11586157039E+04  0.47000000000E+01 0.  1.
          6    1    1    2  502    0 -0.11377201664E+01 -0.39254129014E+02 -0.57686035347E+03  0.60323631228E+03  0.17200000000E+03 0. -1.
         -6    1    1    2    0  502  0.11377201664E+01  0.39254129014E+02 -0.55508677172E+03  0.58244957309E+03  0.17200000000E+03 0.  1.
</event>
<event>
 4    1 -0.3240665E-004  0.2779409E+03  0.7818608E-02  0.1096819E+00
         -5   -1    0    0    0  501 -0.00000000000E+00  0.00000000000E+00  0.23789512924E+04  0.23789559352E+04  0.47000000000E+01 0.  1.
          5   -1    0    0  501    0  0.00000000000E+00 -0.00000000000E+00 -0.32733920058E+02  0.33069616302E+02  0.47000000000E+01 0. -1.
          6    1    1    2  502    0  0.21509089737E+03 -0.37457201848E+02  0.13115587588E+04  0.13406854642E+04  0.17200000000E+03 0. -1.
         -6    1    1    2    0  502 -0.21509089737E+03  0.37457201848E+02  0.10346586135E+04  0.10713400872E+04  0.17200000000E+03 0.  1.
</event>
<event>
 4    1 -0.3240665E-004  0.3277681E+03  0.7818608E-02  0.1072129E+00
         -5   -1    0    0    0  501 -0.00000000000E+00  0.00000000000E+00  0.53112147494E+03  0.53114227015E+03  0.47000000000E+01 0.  1.
          5   -1    0    0  501    0  0.00000000000E+00 -0.00000000000E+00 -0.20487267212E+03  0.20492657657E+03  0.47000000000E+01 0. -1.
          6    1    1    2  502    0  0.24057927810E+03 -0.14131356187E+03  0.20498192649E+03  0.38658699152E+03  0.17200000000E+03 0. -1.
         -6    1    1    2    0  502 -0.24057927810E+03  0.14131356187E+03  0.12126687633E+03  0.34948185520E+03  0.17200000000E+03 0.  1.
</event>
<event>
 4    1 -0.3240665E-004  0.1775500E+03  0.7818608E-02  0.1170195E+00
         -5   -1    0    0    0  501 -0.00000000000E+00  0.00000000000E+00  0.35646015135E+02  0.35954532329E+02  0.47000000000E+01 0.  1.
          5   -1    0    0  501    0  0.00000000000E+00 -0.00000000000E+00 -0.92136116287E+03  0.92137315049E+03  0.47000000000E+01 0. -1.
          6    1    1    2  502    0 -0.14447321421E+02 -0.41608813967E+02 -0.34174962424E+03  0.38511923370E+03  0.17200000000E+03 0. -1.
         -6    1    1    2    0  502  0.14447321421E+02  0.41608813967E+02 -0.54396552350E+03  0.57220844913E+03  0.17200000000E+03 0.  1.
</event>
<event>
 4    1 -0.3240665E-004  0.1776116E+03  0.7818608E-02  0.1170135E+00
         -5   -1    0    0    0  501 -0.00000000000E+00  0.00000000000E+00  0.17715429140E+03  0.17721662722E+03  0.47000000000E+01 0.  1.
          5   -1    0    0  501    0  0.00000000000E+00 -0.00000000000E+00 -0.17861343069E+03  0.17867525745E+03  0.47000000000E+01 0. -1.
          6    1    1    2  502    0  0.41706490581E+02 -0.14914190761E+02 -0.11609076447E+02  0.17799054778E+03  0.17200000000E+03 0. -1.
         -6    1    1    2    0  502 -0.41706490581E+02  0.14914190761E+02  0.10149937155E+02  0.17790133689E+03  0.17200000000E+03 0. -1.
</event>
<event>
 4    1 -0.3240665E-004  0.1826744E+03  0.7818608E-02  0.1165240E+00
         -5   -1    0    0    0  501 -0.00000000000E+00  0.00000000000E+00  0.60584322488E+02  0.60766356904E+02  0.47000000000E+01 0.  1.
          5   -1    0    0  501    0  0.00000000000E+00 -0.00000000000E+00 -0.79465742839E+03  0.79467132734E+03  0.47000000000E+01 0. -1.
          6    1    1    2  502    0 -0.63681884203E+01  0.61199580232E+02 -0.60443916551E+03  0.63144013750E+03  0.17200000000E+03 0. -1.
         -6    1    1    2    0  502  0.63681884203E+01 -0.61199580232E+02 -0.12963394039E+03  0.22399754674E+03  0.17200000000E+03 0.  1.
</event>
<event>
 4    1 -0.3240665E-004  0.2452311E+03  0.7818608E-02  0.1116356E+00
         -5   -1    0    0    0  501 -0.00000000000E+00  0.00000000000E+00  0.12173727673E+04  0.12173818401E+04  0.47000000000E+01 0.  1.
          5   -1    0    0  501    0  0.00000000000E+00 -0.00000000000E+00 -0.23114111686E+03  0.23118889658E+03  0.47000000000E+01 0. -1.
          6    1    1    2  502    0 -0.43044013752E+02  0.16941515139E+03 -0.14913737306E+03  0.28701957543E+03  0.17200000000E+03 0. -1.
         -6    1    1    2    0  502  0.43044013752E+02 -0.16941515139E+03  0.11353690235E+04  0.11615511612E+04  0.17200000000E+03 0.  1.
</event>
<event>
 4    1 -0.3240665E-004  0.2634234E+03  0.7818608E-02  0.1105104E+00
          5   -1    0    0  501    0  0.00000000000E+00  0.00000000000E+00  0.47048878219E+02  0.47283051315E+02  0.47000000000E+01 0. -1.
         -5   -1    0    0    0  501 -0.00000000000E+00 -0.00000000000E+00 -0.14777387412E+04  0.14777462154E+04  0.47000000000E+01 0.  1.
          6    1    1    2  502    0 -0.12902593138E+03  0.15218466112E+03 -0.76687264869E+03  0.81085480904E+03  0.17200000000E+03 0.  1.
         -6    1    1    2    0  502  0.12902593138E+03 -0.15218466112E+03 -0.66381721429E+03  0.71417445770E+03  0.17200000000E+03 0. -1.
</event>
<event>
 4    1 -0.3240665E-004  0.1914281E+03  0.7818608E-02  0.1157180E+00
          5   -1    0    0  501    0  0.00000000000E+00  0.00000000000E+00  0.75312968157E+02  0.75459480336E+02  0.47000000000E+01 0. -1.
         -5   -1    0    0    0  501 -0.00000000000E+00 -0.00000000000E+00 -0.58080568256E+03  0.58082469893E+03  0.47000000000E+01 0.  1.
          6    1    1    2  502    0  0.11701797003E+02  0.83209370791E+02 -0.12014461979E+03  0.22600765718E+03  0.17200000000E+03 0. -1.
         -6    1    1    2    0  502 -0.11701797003E+02 -0.83209370791E+02 -0.38534809461E+03  0.43027652209E+03  0.17200000000E+03 0.  1.
</event>
<event>
 4    1 -0.3240665E-004  0.1910647E+03  0.7818608E-02  0.1157505E+00
         -5   -1    0    0    0  501 -0.00000000000E+00  0.00000000000E+00  0.26343793634E+02  0.26759773225E+02  0.47000000000E+01 0.  1.
          5   -1    0    0  501    0  0.00000000000E+00 -0.00000000000E+00 -0.13746484666E+04  0.13746565013E+04  0.47000000000E+01 0. -1.
          6    1    1    2  502    0 -0.37018693268E+02 -0.74507317122E+02 -0.68218407524E+03  0.70843548504E+03  0.17200000000E+03 0. -1.
         -6    1    1    2    0  502  0.37018693268E+02  0.74507317122E+02 -0.66612059770E+03  0.69298078951E+03  0.17200000000E+03 0. -1.
</event>
<event>
 4    1 -0.3240665E-004  0.6422580E+03  0.7818608E-02  0.9821416E-01
         -5   -1    0    0    0  501 -0.00000000000E+00  0.00000000000E+00  0.44574145895E+03  0.44576623720E+03  0.47000000000E+01 0.  1.
          5   -1    0    0  501    0  0.00000000000E+00 -0.00000000000E+00 -0.10417095684E+04  0.10417201711E+04  0.47000000000E+01 0. -1.
          6    1    1    2  502    0 -0.47888288155E+03 -0.39189610884E+03 -0.54654289437E+03  0.84332941948E+03  0.17200000000E+03 0. -1.
         -6    1    1    2    0  502  0.47888288155E+03  0.39189610884E+03 -0.49425215067E+02  0.64415698882E+03  0.17200000000E+03 0.  1.
</event>
<event>
 4    1 -0.3240665E-004  0.3803834E+03  0.7818608E-02  0.1050792E+00
         -5   -1    0    0    0  501 -0.00000000000E+00  0.00000000000E+00  0.86657852069E+03  0.86659126612E+03  0.47000000000E+01 0.  1.
          5   -1    0    0  501    0  0.00000000000E+00 -0.00000000000E+00 -0.18095168105E+03  0.18101270915E+03  0.47000000000E+01 0. -1.
          6    1    1    2  502    0  0.27107461441E+02  0.33819030846E+03  0.19699130384E+03  0.42836558334E+03  0.17200000000E+03 0. -1.
         -6    1    1    2    0  502 -0.27107461441E+02 -0.33819030846E+03  0.48863553580E+03  0.61923839193E+03  0.17200000000E+03 0.  1.
</event>
<event>
 4    1 -0.3240665E-004  0.3423639E+03  0.7818608E-02  0.1065794E+00
          5   -1    0    0  501    0  0.00000000000E+00  0.00000000000E+00  0.58522340640E+03  0.58524227923E+03  0.47000000000E+01 0. -1.
         -5   -1    0    0    0  501 -0.00000000000E+00 -0.00000000000E+00 -0.20280288076E+03  0.20285733520E+03  0.47000000000E+01 0.  1.
          6    1    1    2  502    0 -0.22081706082E+03  0.19715185932E+03  0.23551701009E+03  0.41554938578E+03  0.17200000000E+03 0. -1.
         -6    1    1    2    0  502  0.22081706082E+03 -0.19715185932E+03  0.14690351555E+03  0.37255022865E+03  0.17200000000E+03 0.  1.
</event>
<event>
 4    1 -0.3240665E-004  0.2212275E+03  0.7818608E-02  0.1132971E+00
          5   -1    0    0  501    0  0.00000000000E+00  0.00000000000E+00  0.56398508987E+03  0.56400467338E+03  0.47000000000E+01 0. -1.
         -5   -1    0    0    0  501 -0.00000000000E+00 -0.00000000000E+00 -0.10583681419E+03  0.10594112156E+03  0.47000000000E+01 0.  1.
          6    1    1    2  502    0  0.43551989000E+01  0.13906347262E+03  0.37144549099E+03  0.43233478920E+03  0.17200000000E+03 0.  1.
         -6    1    1    2    0  502 -0.43551989000E+01 -0.13906347262E+03  0.86702784694E+02  0.23761100574E+03  0.17200000000E+03 0.  1.
</event>
<event>
 4    1 -0.3240665E-004  0.2263815E+03  0.7818608E-02  0.1129213E+00
          5   -1    0    0  501    0  0.00000000000E+00  0.00000000000E+00  0.86045946223E+03  0.86047229830E+03  0.47000000000E+01 0. -1.
         -5   -1    0    0    0  501 -0.00000000000E+00 -0.00000000000E+00 -0.79768787451E+02  0.79907130166E+02  0.47000000000E+01 0.  1.
          6    1    1    2  502    0  0.99490164379E+02 -0.10847261568E+03  0.62736933749E+03  0.66696393215E+03  0.17200000000E+03 0. -1.
         -6    1    1    2    0  502 -0.99490164379E+02  0.10847261568E+03  0.15332133729E+03  0.27341549632E+03  0.17200000000E+03 0.  1.
</event>
<event>
 4    1 -0.3240665E-004  0.1992559E+03  0.7818608E-02  0.1150368E+00
         -5   -1    0    0    0  501 -0.00000000000E+00  0.00000000000E+00  0.18522963010E+03  0.18528924919E+03  0.47000000000E+01 0.  1.
          5   -1    0    0  501    0  0.00000000000E+00 -0.00000000000E+00 -0.27400637526E+03  0.27404668158E+03  0.47000000000E+01 0. -1.
          6    1    1    2  502    0 -0.23095737416E+01  0.10056634294E+03  0.62867574049E+02  0.20893840080E+03  0.17200000000E+03 0. -1.
         -6    1    1    2    0  502  0.23095737416E+01 -0.10056634294E+03 -0.15164431921E+03  0.25039752996E+03  0.17200000000E+03 0.  1.
</event>
<event>
 4    1 -0.3240665E-004  0.1765421E+03  0.7818608E-02  0.1171192E+00
          5   -1    0    0  501    0  0.00000000000E+00  0.00000000000E+00  0.61258871698E+03  0.61260674676E+03  0.47000000000E+01 0. -1.
         -5   -1    0    0    0  501 -0.00000000000E+00 -0.00000000000E+00 -0.52152922060E+02  0.52364274839E+02  0.47000000000E+01 0.  1.
          6    1    1    2  502    0  0.85592530912E+01 -0.38856947951E+02  0.33462159975E+03  0.37833680529E+03  0.17200000000E+03 0. -1.
         -6    1    1    2    0  502 -0.85592530912E+01  0.38856947951E+02  0.22581419518E+03  0.28663421631E+03  0.17200000000E+03 0.  1.
</event>
<event>
 4    1 -0.3240665E-004  0.2315774E+03  0.7818608E-02  0.1125534E+00
          5   -1    0    0  501    0  0.00000000000E+00  0.00000000000E+00  0.39094096433E+03  0.39096921566E+03  0.47000000000E+01 0. -1.
         -5   -1    0    0    0  501 -0.00000000000E+00 -0.00000000000E+00 -0.17809798391E+03  0.17815998954E+03  0.47000000000E+01 0.  1.
          6    1    1    2  502    0 -0.97663952322E+01 -0.15475373711E+03  0.24290894674E+03  0.33560819125E+03  0.17200000000E+03 0. -1.
         -6    1    1    2    0  502  0.97663952322E+01  0.15475373711E+03 -0.30065966325E+02  0.23352101395E+03  0.17200000000E+03 0.  1.
</event>
<event>
 4    1 -0.3240665E-004  0.2360467E+03  0.7818608E-02  0.1122455E+00
         -5   -1    0    0    0  501 -0.00000000000E+00  0.00000000000E+00  0.87117166249E+03  0.87118434072E+03  0.47000000000E+01 0.  1.
          5   -1    0    0  501    0  0.00000000000E+00 -0.00000000000E+00 -0.10096995475E+03  0.10107928454E+03  0.47000000000E+01 0. -1.
          6    1    1    2  502    0  0.79824247069E+02 -0.14057780497E+03  0.90601647164E+02  0.25283727601E+03  0.17200000000E+03 0. -1.
         -6    1    1    2    0  502 -0.79824247069E+02  0.14057780497E+03  0.67960006057E+03  0.71942634925E+03  0.17200000000E+03 0.  1.
</event>
<event>
 4    1 -0.3240665E-004  0.4320179E+03  0.7818608E-02  0.1033224E+00
          5   -1    0    0  501    0  0.00000000000E+00  0.00000000000E+00  0.69954770368E+03  0.69956349228E+03  0.47000000000E+01 0. -1.
         -5   -1    0    0    0  501 -0.00000000000E+00 -0.00000000000E+00 -0.27824520396E+03  0.27828489633E+03  0.47000000000E+01 0.  1.
          6    1    1    2  502    0 -0.31933497544E+03 -0.23469268335E+03  0.30997187457E+03  0.53171613214E+03  0.17200000000E+03 0. -1.
         -6    1    1    2    0  502  0.31933497544E+03  0.23469268335E+03  0.11133062516E+03  0.44613225646E+03  0.17200000000E+03 0.  1.
</event>
<event>
 4    1 -0.3240665E-004  0.2315509E+03  0.7818608E-02  0.1125553E+00
          5   -1    0    0  501    0  0.00000000000E+00  0.00000000000E+00  0.12790747638E+03  0.12799379874E+03  0.47000000000E+01 0. -1.
         -5   -1    0    0    0  501 -0.00000000000E+00 -0.00000000000E+00 -0.71108943002E+03  0.71110496236E+03  0.47000000000E+01 0.  1.
          6    1    1    2  502    0 -0.89383413764E+01  0.15476402121E+03 -0.22688945352E+02  0.23265980411E+03  0.17200000000E+03 0. -1.
         -6    1    1    2    0  502  0.89383413764E+01 -0.15476402121E+03 -0.56049300829E+03  0.60643895698E+03  0.17200000000E+03 0.  1.
</event>
<event>
 4    1 -0.3240665E-004  0.2108153E+03  0.7818608E-02  0.1140922E+00
         -5   -1    0    0    0  501 -0.00000000000E+00  0.00000000000E+00  0.17120707237E+03  0.17127157274E+03  0.47000000000E+01 0.  1.
          5   -1    0    0  501    0  0.00000000000E+00 -0.00000000000E+00 -0.32951907513E+03  0.32955259197E+03  0.47000000000E+01 0. -1.
          6    1    1    2  502    0  0.12148060433E+03  0.10078056254E+02  0.36296644459E+02  0.21391715884E+03  0.17200000000E+03 0.  1.
         -6    1    1    2    0  502 -0.12148060433E+03 -0.10078056254E+02 -0.19460864722E+03  0.28690700587E+03  0.17200000000E+03 0. -1.
</event>
<event>
 4    1 -0.3240665E-004  0.1837651E+03  0.7818608E-02  0.1164208E+00
         -5   -1    0    0    0  501 -0.00000000000E+00  0.00000000000E+00  0.63425674489E+02  0.63599576920E+02  0.47000000000E+01 0.  1.
          5   -1    0    0  501    0  0.00000000000E+00 -0.00000000000E+00 -0.64945091985E+03  0.64946792630E+03  0.47000000000E+01 0. -1.
          6    1    1    2  502    0 -0.58883409017E+01 -0.64427729957E+02 -0.44492266224E+03  0.48137904017E+03  0.17200000000E+03 0. -1.
         -6    1    1    2    0  502  0.58883409017E+01  0.64427729957E+02 -0.14110258313E+03  0.23168846305E+03  0.17200000000E+03 0.  1.
</event>
<event>
 4    1 -0.3240665E-004  0.1881303E+03  0.7818608E-02  0.1160159E+00
         -5   -1    0    0    0  501 -0.00000000000E+00  0.00000000000E+00  0.87132794700E+02  0.87259463167E+02  0.47000000000E+01 0.  1.
          5   -1    0    0  501    0  0.00000000000E+00 -0.00000000000E+00 -0.40763659424E+03  0.40766368855E+03  0.47000000000E+01 0. -1.
          6    1    1    2  502    0  0.33859339943E+02  0.68282864603E+02 -0.17703532802E+03  0.25833023801E+03  0.17200000000E+03 0. -1.
         -6    1    1    2    0  502 -0.33859339943E+02 -0.68282864603E+02 -0.14346847152E+03  0.23659291371E+03  0.17200000000E+03 0.  1.
</event>
<event>
 4    1 -0.3240665E-004  0.1784145E+03  0.7818608E-02  0.1169346E+00
         -5   -1    0    0    0  501 -0.00000000000E+00  0.00000000000E+00  0.87022032867E+03  0.87023302077E+03  0.47000000000E+01 0.  1.
          5   -1    0    0  501    0  0.00000000000E+00 -0.00000000000E+00 -0.56377639994E+02  0.56573211782E+02  0.47000000000E+01 0. -1.
          6    1    1    2  502    0  0.43477677567E+02  0.18906087193E+02  0.68203353393E+03  0.70498332604E+03  0.17200000000E+03 0.  1.
         -6    1    1    2    0  502 -0.43477677567E+02 -0.18906087193E+02  0.13180915474E+03  0.22182290651E+03  0.17200000000E+03 0. -1.
</event>
<event>
 4    1 -0.3240665E-004  0.1878944E+03  0.7818608E-02  0.1160374E+00
         -5   -1    0    0    0  501 -0.00000000000E+00  0.00000000000E+00  0.87681507068E+03  0.87682766731E+03  0.47000000000E+01 0.  1.
          5   -1    0    0  501    0  0.00000000000E+00 -0.00000000000E+00 -0.44407594497E+02  0.44655620576E+02  0.47000000000E+01 0. -1.
          6    1    1    2  502    0 -0.39509029392E+02  0.64492915438E+02  0.27338136809E+03  0.33172529593E+03  0.17200000000E+03 0. -1.
         -6    1    1    2    0  502  0.39509029392E+02 -0.64492915438E+02  0.55902610809E+03  0.58975799196E+03  0.17200000000E+03 0.  1.
</event>
<event>
 4    1 -0.3240665E-004  0.1947780E+03  0.7818608E-02  0.1154221E+00
         -5   -1    0    0    0  501 -0.00000000000E+00  0.00000000000E+00  0.50886266896E+03  0.50888437377E+03  0.47000000000E+01 0.  1.
          5   -1    0    0  501    0  0.00000000000E+00 -0.00000000000E+00 -0.78727620266E+02  0.78867789323E+02  0.47000000000E+01 0. -1.
          6    1    1    2  502    0  0.91187028832E+02 -0.62780058414E+01  0.28343270885E+03  0.34390781909E+03  0.17200000000E+03 0.  1.
         -6    1    1    2    0  502 -0.91187028832E+02  0.62780058414E+01  0.14670233985E+03  0.24384434400E+03  0.17200000000E+03 0.  1.
</event>
<event>
 4    1 -0.3240665E-004  0.2142982E+03  0.7818608E-02  0.1138207E+00
          5   -1    0    0  501    0  0.00000000000E+00  0.00000000000E+00  0.50993448959E+03  0.50995614877E+03  0.47000000000E+01 0. -1.
         -5   -1    0    0    0  501 -0.00000000000E+00 -0.00000000000E+00 -0.13281514489E+03  0.13289827957E+03  0.47000000000E+01 0.  1.
          6    1    1    2  502    0 -0.96922800200E+02 -0.83340775979E+02  0.37102908562E+03  0.42846971481E+03  0.17200000000E+03 0. -1.
         -6    1    1    2    0  502  0.96922800200E+02  0.83340775979E+02  0.60902590821E+01  0.21438471353E+03  0.17200000000E+03 0.  1.
</event>
<event>
 4    1 -0.3240665E-004  0.2343013E+03  0.7818608E-02  0.1123648E+00
          5   -1    0    0  501    0  0.00000000000E+00  0.00000000000E+00  0.17100939219E+04  0.17101003806E+04  0.47000000000E+01 0. -1.
         -5   -1    0    0    0  501 -0.00000000000E+00 -0.00000000000E+00 -0.38047237926E+02  0.38336435852E+02  0.47000000000E+01 0.  1.
          6    1    1    2  502    0  0.80720886732E+02 -0.13710305531E+03  0.11852761568E+04  0.12082121822E+04  0.17200000000E+03 0. -1.
         -6    1    1    2    0  502 -0.80720886732E+02  0.13710305531E+03  0.48677052718E+03  0.54022463426E+03  0.17200000000E+03 0.  1.
</event>
<event>
 4    1 -0.3240665E-004  0.1730178E+03  0.7818608E-02  0.1174737E+00
         -5   -1    0    0    0  501 -0.00000000000E+00  0.00000000000E+00  0.55059549181E+03  0.55061555154E+03  0.47000000000E+01 0.  1.
          5   -1    0    0  501    0  0.00000000000E+00 -0.00000000000E+00 -0.55919671201E+02  0.56116839070E+02  0.47000000000E+01 0. -1.
          6    1    1    2  502    0  0.94739514742E+01  0.16167622432E+02  0.19495797604E+03  0.26066023900E+03  0.17200000000E+03 0. -1.
         -6    1    1    2    0  502 -0.94739514742E+01 -0.16167622432E+02  0.29971784456E+03  0.34607215161E+03  0.17200000000E+03 0.  1.
</event>
<event>
 4    1 -0.3240665E-004  0.2921389E+03  0.7818608E-02  0.1089238E+00
          5   -1    0    0  501    0  0.00000000000E+00  0.00000000000E+00  0.12307341869E+03  0.12316312917E+03  0.47000000000E+01 0. -1.
         -5   -1    0    0    0  501 -0.00000000000E+00 -0.00000000000E+00 -0.70221848472E+03  0.70223421327E+03  0.47000000000E+01 0.  1.
          6    1    1    2  502    0 -0.15414326597E+02 -0.23563427447E+03 -0.33660115359E+03  0.44569658891E+03  0.17200000000E+03 0. -1.
         -6    1    1    2    0  502  0.15414326597E+02  0.23563427447E+03 -0.24254391245E+03  0.37970075353E+03  0.17200000000E+03 0.  1.
</event>
<event>
 4    1 -0.3240665E-004  0.3263302E+03  0.7818608E-02  0.1072772E+00
         -5   -1    0    0    0  501 -0.00000000000E+00  0.00000000000E+00  0.32998011121E+03  0.33001358122E+03  0.47000000000E+01 0.  1.
          5   -1    0    0  501    0  0.00000000000E+00 -0.00000000000E+00 -0.32353682755E+03  0.32357096405E+03  0.47000000000E+01 0. -1.
          6    1    1    2  502    0 -0.21971063049E+03  0.16921766813E+03  0.20293796068E+02  0.32696057639E+03  0.17200000000E+03 0. -1.
         -6    1    1    2    0  502  0.21971063049E+03 -0.16921766813E+03 -0.13850512407E+02  0.32662396888E+03  0.17200000000E+03 0. -1.
</event>
<event>
 4    1 -0.3240665E-004  0.1951305E+03  0.7818608E-02  0.1153914E+00
          5   -1    0    0  501    0  0.00000000000E+00  0.00000000000E+00  0.27678034676E+03  0.27682024918E+03  0.47000000000E+01 0. -1.
         -5   -1    0    0    0  501 -0.00000000000E+00 -0.00000000000E+00 -0.13916012056E+03  0.13923946694E+03  0.47000000000E+01 0.  1.
          6    1    1    2  502    0 -0.27672547762E+02  0.87898441714E+02  0.91676977711E+02  0.21559353932E+03  0.17200000000E+03 0. -1.
         -6    1    1    2    0  502  0.27672547762E+02 -0.87898441714E+02  0.45943248495E+02  0.20046617679E+03  0.17200000000E+03 0.  1.
</event>
<event>
 4    1 -0.3240665E-004  0.1790690E+03  0.7818608E-02  0.1168707E+00
          5   -1    0    0  501    0  0.00000000000E+00  0.00000000000E+00  0.75544667166E+03  0.75546129200E+03  0.47000000000E+01 0. -1.
         -5   -1    0    0    0  501 -0.00000000000E+00 -0.00000000000E+00 -0.46772950713E+02  0.47008498364E+02  0.47000000000E+01 0.  1.
          6    1    1    2  502    0 -0.44621461907E+02  0.22150088325E+02  0.47805755420E+03  0.51049458999E+03  0.17200000000E+03 0. -1.
         -6    1    1    2    0  502  0.44621461907E+02 -0.22150088325E+02  0.23061616674E+03  0.29197520038E+03  0.17200000000E+03 0.  1.
</event>
<event>
 4    1 -0.3240665E-004  0.1784062E+03  0.7818608E-02  0.1169354E+00
          5   -1    0    0  501    0  0.00000000000E+00  0.00000000000E+00  0.24014054073E+03  0.24018653023E+03  0.47000000000E+01 0. -1.
         -5   -1    0    0    0  501 -0.00000000000E+00 -0.00000000000E+00 -0.14337445931E+03  0.14345147466E+03  0.47000000000E+01 0.  1.
          6    1    1    2  502    0 -0.75217688621E+01 -0.46778303138E+02  0.10132797132E+03  0.20517344961E+03  0.17200000000E+03 0. -1.
         -6    1    1    2    0  502  0.75217688621E+01  0.46778303138E+02 -0.45618898949E+01  0.17846455528E+03  0.17200000000E+03 0.  1.
</event>
<event>
 4    1 -0.3240665E-004  0.3002815E+03  0.7818608E-02  0.1085100E+00
         -5   -1    0    0    0  501 -0.00000000000E+00  0.00000000000E+00  0.15224910515E+03  0.15232163346E+03  0.47000000000E+01 0.  1.
          5   -1    0    0  501    0  0.00000000000E+00 -0.00000000000E+00 -0.60105378639E+03  0.60107216217E+03  0.47000000000E+01 0. -1.
          6    1    1    2  502    0 -0.22176782489E+03  0.10678963578E+03 -0.27057144666E+03  0.40420032436E+03  0.17200000000E+03 0. -1.
         -6    1    1    2    0  502  0.22176782489E+03 -0.10678963578E+03 -0.17823323457E+03  0.34919347127E+03  0.17200000000E+03 0. -1.
</event>
<event>
 4    1 -0.3240665E-004  0.2282232E+03  0.7818608E-02  0.1127897E+00
          5   -1    0    0  501    0  0.00000000000E+00  0.00000000000E+00  0.18474940795E+03  0.18480918196E+03  0.47000000000E+01 0. -1.
         -5   -1    0    0    0  501 -0.00000000000E+00 -0.00000000000E+00 -0.31178317276E+03  0.31181859601E+03  0.47000000000E+01 0.  1.
          6    1    1    2  502    0  0.73107969974E+02 -0.13098500838E+03  0.13472551255E+02  0.22862055317E+03  0.17200000000E+03 0. -1.
         -6    1    1    2    0  502 -0.73107969974E+02  0.13098500838E+03 -0.14050631607E+03  0.26800722481E+03  0.17200000000E+03 0.  1.
</event>
<event>
 4    1 -0.3240665E-004  0.2540398E+03  0.7818608E-02  0.1110778E+00
          5   -1    0    0  501    0  0.00000000000E+00  0.00000000000E+00  0.82368016508E+03  0.82369357430E+03  0.47000000000E+01 0. -1.
         -5   -1    0    0    0  501 -0.00000000000E+00 -0.00000000000E+00 -0.82720384707E+02  0.82853799225E+02  0.47000000000E+01 0.  1.
          6    1    1    2  502    0  0.33217837792E+02  0.18398039837E+03  0.26539795920E+03  0.36738574888E+03  0.17200000000E+03 0. -1.
         -6    1    1    2    0  502 -0.33217837792E+02 -0.18398039837E+03  0.47556182117E+03  0.53916162465E+03  0.17200000000E+03 0.  1.
</event>
<event>
 4    1 -0.3240665E-004  0.1728429E+03  0.7818608E-02  0.1174915E+00
         -5   -1    0    0    0  501 -0.00000000000E+00  0.00000000000E+00  0.95632525382E+02  0.95747949904E+02  0.47000000000E+01 0.  1.
          5   -1    0    0  501    0  0.00000000000E+00 -0.00000000000E+00 -0.41137484373E+03  0.41140169184E+03  0.47000000000E+01 0. -1.
          6    1    1    2  502    0 -0.13741653954E+01 -0.16993883466E+02 -0.28243662886E+03  0.33112705979E+03  0.17200000000E+03 0. -1.
         -6    1    1    2    0  502  0.13741653954E+01  0.16993883466E+02 -0.33305689487E+02  0.17602258195E+03  0.17200000000E+03 0.  1.
</event>
<event>
 4    1 -0.3240665E-004  0.2074993E+03  0.7818608E-02  0.1143562E+00
         -5   -1    0    0    0  501 -0.00000000000E+00  0.00000000000E+00  0.20707994560E+03  0.20713327562E+03  0.47000000000E+01 0.  1.
          5   -1    0    0  501    0  0.00000000000E+00 -0.00000000000E+00 -0.58051716092E+03  0.58053618674E+03  0.47000000000E+01 0. -1.
          6    1    1    2  502    0 -0.70003568225E+02 -0.92582071416E+02 -0.50225925452E+03  0.54343380302E+03  0.17200000000E+03 0. -1.
         -6    1    1    2    0  502  0.70003568225E+02  0.92582071416E+02  0.12882203920E+03  0.24423565934E+03  0.17200000000E+03 0.  1.
</event>
<event>
 4    1 -0.3240665E-004  0.1990519E+03  0.7818608E-02  0.1150541E+00
         -5   -1    0    0    0  501 -0.00000000000E+00  0.00000000000E+00  0.71192190448E+02  0.71347165191E+02  0.47000000000E+01 0.  1.
          5   -1    0    0  501    0  0.00000000000E+00 -0.00000000000E+00 -0.70792096840E+03  0.70793657026E+03  0.47000000000E+01 0. -1.
          6    1    1    2  502    0  0.43687691885E+02 -0.90161198828E+02 -0.13775075380E+03  0.24206802013E+03  0.17200000000E+03 0.  1.
         -6    1    1    2    0  502 -0.43687691885E+02  0.90161198828E+02 -0.49897802415E+03  0.53721571532E+03  0.17200000000E+03 0. -1.
</event>
<event>
 4    1 -0.3240665E-004  0.1978675E+03  0.7818608E-02  0.1151551E+00
         -5   -1    0    0    0  501 -0.00000000000E+00  0.00000000000E+00  0.25405390733E+03  0.25409737863E+03  0.47000000000E+01 0.  1.
          5   -1    0    0  501    0  0.00000000000E+00 -0.00000000000E+00 -0.15401902928E+03  0.15409072451E+03  0.47000000000E+01 0. -1.
          6    1    1    2  502    0  0.37967931167E+02  0.90144266158E+02  0.51091915658E+02  0.20435737414E+03  0.17200000000E+03 0. -1.
         -6    1    1    2    0  502 -0.37967931167E+02 -0.90144266158E+02  0.48942962395E+02  0.20383072900E+03  0.17200000000E+03 0.  1.
</event>
<event>
 4    1 -0.3240665E-004  0.1815235E+03  0.7818608E-02  0.1166337E+00
          5   -1    0    0  501    0  0.00000000000E+00  0.00000000000E+00  0.96113407460E+02  0.96228255173E+02  0.47000000000E+01 0. -1.
         -5   -1    0    0    0  501 -0.00000000000E+00 -0.00000000000E+00 -0.37790524870E+03  0.37793447447E+03  0.47000000000E+01 0.  1.
          6    1    1    2  502    0  0.64299554869E+01 -0.57666727211E+02 -0.68339486310E+02  0.19396154553E+03  0.17200000000E+03 0. -1.
         -6    1    1    2    0  502 -0.64299554869E+01  0.57666727211E+02 -0.21345235493E+03  0.28020118411E+03  0.17200000000E+03 0.  1.
</event>
<event>
 4    1 -0.3240665E-004  0.2090737E+03  0.7818608E-02  0.1142302E+00
          5   -1    0    0  501    0  0.00000000000E+00  0.00000000000E+00  0.26481659145E+03  0.26485829628E+03  0.47000000000E+01 0. -1.
         -5   -1    0    0    0  501 -0.00000000000E+00 -0.00000000000E+00 -0.32912830288E+03  0.32916185951E+03  0.47000000000E+01 0.  1.
          6    1    1    2  502    0  0.86676992129E+02  0.81332005742E+02  0.17756956484E+03  0.27430411313E+03  0.17200000000E+03 0. -1.
         -6    1    1    2    0  502 -0.86676992129E+02 -0.81332005742E+02 -0.24188127627E+03  0.31971604266E+03  0.17200000000E+03 0.  1.
</event>
<event>
 4    1 -0.3240665E-004  0.1743264E+03  0.7818608E-02  0.1173410E+00
          5   -1    0    0  501    0  0.00000000000E+00  0.00000000000E+00  0.14958097069E+02  0.15679115661E+02  0.47000000000E+01 0. -1.
         -5   -1    0    0    0  501 -0.00000000000E+00 -0.00000000000E+00 -0.19831286662E+04  0.19831342356E+04  0.47000000000E+01 0.  1.
          6    1    1    2  502    0  0.24683654090E+02 -0.14014262620E+02 -0.98647485812E+03  0.10017596159E+04  0.17200000000E+03 0.  1.
         -6    1    1    2    0  502 -0.24683654090E+02  0.14014262620E+02 -0.98169571098E+03  0.99705373540E+03  0.17200000000E+03 0.  1.
</event>
<event>
 4    1 -0.3240665E-004  0.2600925E+03  0.7818608E-02  0.1107088E+00
          5   -1    0    0  501    0  0.00000000000E+00  0.00000000000E+00  0.17111333391E+03  0.17117786960E+03  0.47000000000E+01 0. -1.
         -5   -1    0    0    0  501 -0.00000000000E+00 -0.00000000000E+00 -0.46901564013E+03  0.46903918886E+03  0.47000000000E+01 0.  1.
          6    1    1    2  502    0 -0.10617120377E+03 -0.16368202354E+03 -0.21960661561E+02  0.26101800704E+03  0.17200000000E+03 0. -1.
         -6    1    1    2    0  502  0.10617120377E+03  0.16368202354E+03 -0.27594164467E+03  0.37919905143E+03  0.17200000000E+03 0.  1.
</event>
<event>
 4    1 -0.3240665E-004  0.1912864E+03  0.7818608E-02  0.1157306E+00
         -5   -1    0    0    0  501 -0.00000000000E+00  0.00000000000E+00  0.10133571255E+04  0.10133680248E+04  0.47000000000E+01 0.  1.
          5   -1    0    0  501    0  0.00000000000E+00 -0.00000000000E+00 -0.36422328612E+02  0.36724324657E+02  0.47000000000E+01 0. -1.
          6    1    1    2  502    0  0.18784231703E+02 -0.81569931204E+02  0.54837130537E+03  0.58077671234E+03  0.17200000000E+03 0.  1.
         -6    1    1    2    0  502 -0.18784231703E+02  0.81569931204E+02  0.42856349150E+03  0.46931563716E+03  0.17200000000E+03 0. -1.
</event>
<event>
 4    1 -0.3240665E-004  0.2608581E+03  0.7818608E-02  0.1106629E+00
         -5   -1    0    0    0  501 -0.00000000000E+00  0.00000000000E+00  0.24150326149E+03  0.24154899153E+03  0.47000000000E+01 0.  1.
          5   -1    0    0  501    0  0.00000000000E+00 -0.00000000000E+00 -0.31856642885E+03  0.31860109791E+03  0.47000000000E+01 0. -1.
          6    1    1    2  502    0  0.17807303158E+03 -0.82176322569E+02 -0.13383266990E+03  0.29318617992E+03  0.17200000000E+03 0. -1.
         -6    1    1    2    0  502 -0.17807303158E+03  0.82176322569E+02  0.56769502538E+02  0.26696390952E+03  0.17200000000E+03 0.  1.
</event>
<event>
 4    1 -0.3240665E-004  0.2184148E+03  0.7818608E-02  0.1135070E+00
         -5   -1    0    0    0  501 -0.00000000000E+00  0.00000000000E+00  0.21846742540E+03  0.21851797629E+03  0.47000000000E+01 0.  1.
          5   -1    0    0  501    0  0.00000000000E+00 -0.00000000000E+00 -0.23671221786E+03  0.23675887330E+03  0.47000000000E+01 0. -1.
          6    1    1    2  502    0  0.12511418369E+03  0.49673511193E+02 -0.72663733972E+02  0.23018478427E+03  0.17200000000E+03 0. -1.
         -6    1    1    2    0  502 -0.12511418369E+03 -0.49673511193E+02  0.54418941513E+02  0.22509206532E+03  0.17200000000E+03 0.  1.
</event>
<event>
 4    1 -0.3240665E-004  0.1770400E+03  0.7818608E-02  0.1170699E+00
          5   -1    0    0  501    0  0.00000000000E+00  0.00000000000E+00  0.43467820334E+03  0.43470361220E+03  0.47000000000E+01 0. -1.
         -5   -1    0    0    0  501 -0.00000000000E+00 -0.00000000000E+00 -0.72006933037E+02  0.72160158020E+02  0.47000000000E+01 0.  1.
          6    1    1    2  502    0 -0.66264324953E+01 -0.41415533986E+02  0.18333544449E+03  0.25486278910E+03  0.17200000000E+03 0.  1.
         -6    1    1    2    0  502  0.66264324953E+01  0.41415533986E+02  0.17933582581E+03  0.25200098111E+03  0.17200000000E+03 0.  1.
</event>
<event>
 4    1 -0.3240665E-004  0.1783642E+03  0.7818608E-02  0.1169396E+00
          5   -1    0    0  501    0  0.00000000000E+00  0.00000000000E+00  0.11937417322E+03  0.11946666159E+03  0.47000000000E+01 0. -1.
         -5   -1    0    0    0  501 -0.00000000000E+00 -0.00000000000E+00 -0.30936533943E+03  0.30940103949E+03  0.47000000000E+01 0.  1.
          6    1    1    2  502    0 -0.27812694105E+02  0.38160860268E+02 -0.14995983380E+02  0.17899351029E+03  0.17200000000E+03 0. -1.
         -6    1    1    2    0  502  0.27812694105E+02 -0.38160860268E+02 -0.17499518283E+03  0.24987419079E+03  0.17200000000E+03 0.  1.
</event>
<event>
 4    1 -0.3240665E-004  0.2541248E+03  0.7818608E-02  0.1110725E+00
          5   -1    0    0  501    0  0.00000000000E+00  0.00000000000E+00  0.56432578944E+02  0.56627960993E+02  0.47000000000E+01 0. -1.
         -5   -1    0    0    0  501 -0.00000000000E+00 -0.00000000000E+00 -0.13207136435E+04  0.13207220064E+04  0.47000000000E+01 0.  1.
          6    1    1    2  502    0  0.16470355943E+03  0.88702690913E+02 -0.37896105458E+03  0.45627942179E+03  0.17200000000E+03 0. -1.
         -6    1    1    2    0  502 -0.16470355943E+03 -0.88702690913E+02 -0.88532000996E+03  0.92107054556E+03  0.17200000000E+03 0.  1.
</event>
<event>
 4    1 -0.3240665E-004  0.3329537E+03  0.7818608E-02  0.1069837E+00
         -5   -1    0    0    0  501 -0.00000000000E+00  0.00000000000E+00  0.50279828606E+03  0.50282025264E+03  0.47000000000E+01 0.  1.
          5   -1    0    0  501    0  0.00000000000E+00 -0.00000000000E+00 -0.22062405054E+03  0.22067410740E+03  0.47000000000E+01 0. -1.
          6    1    1    2  502    0  0.18965399415E+03  0.21285102352E+03  0.13037736274E+03  0.35757020629E+03  0.17200000000E+03 0. -1.
         -6    1    1    2    0  502 -0.18965399415E+03 -0.21285102352E+03  0.15179687279E+03  0.36592415375E+03  0.17200000000E+03 0. -1.
</event>
<event>
 4    1 -0.3240665E-004  0.1746656E+03  0.7818608E-02  0.1173068E+00
          5   -1    0    0  501    0  0.00000000000E+00  0.00000000000E+00  0.14656058805E+03  0.14663593001E+03  0.47000000000E+01 0. -1.
         -5   -1    0    0    0  501 -0.00000000000E+00 -0.00000000000E+00 -0.33301515036E+03  0.33304831537E+03  0.47000000000E+01 0.  1.
          6    1    1    2  502    0  0.30177869625E+02  0.36558653441E+01  0.53695560805E+02  0.18273281702E+03  0.17200000000E+03 0. -1.
         -6    1    1    2    0  502 -0.30177869625E+02 -0.36558653441E+01 -0.24015012312E+03  0.29695142835E+03  0.17200000000E+03 0.  1.
</event>
<event>
 4    1 -0.3240665E-004  0.2588838E+03  0.7818608E-02  0.1107816E+00
         -5   -1    0    0    0  501 -0.00000000000E+00  0.00000000000E+00  0.61545488169E+02  0.61724688042E+02  0.47000000000E+01 0.  1.
          5   -1    0    0  501    0  0.00000000000E+00 -0.00000000000E+00 -0.13391931312E+04  0.13392013786E+04  0.47000000000E+01 0. -1.
          6    1    1    2  502    0  0.16997996392E+03 -0.92431906721E+02 -0.33499431797E+03  0.42336986027E+03  0.17200000000E+03 0.  1.
         -6    1    1    2    0  502 -0.16997996392E+03  0.92431906721E+02 -0.94265332503E+03  0.97755620642E+03  0.17200000000E+03 0. -1.
</event>
<event>
 4    1 -0.3240665E-004  0.1967227E+03  0.7818608E-02  0.1152534E+00
          5   -1    0    0  501    0  0.00000000000E+00  0.00000000000E+00  0.15178065445E+03  0.15185340650E+03  0.47000000000E+01 0. -1.
         -5   -1    0    0    0  501 -0.00000000000E+00 -0.00000000000E+00 -0.30149298864E+03  0.30152962077E+03  0.47000000000E+01 0.  1.
          6    1    1    2  502    0  0.92647073938E+02 -0.23072588355E+02 -0.16403553898E+03  0.25613957658E+03  0.17200000000E+03 0. -1.
         -6    1    1    2    0  502 -0.92647073938E+02  0.23072588355E+02  0.14323204797E+02  0.19724345069E+03  0.17200000000E+03 0.  1.
</event>
<event>
 4    1 -0.3240665E-004  0.1929881E+03  0.7818608E-02  0.1155794E+00
          5   -1    0    0  501    0  0.00000000000E+00  0.00000000000E+00  0.31257207401E+02  0.31608590834E+02  0.47000000000E+01 0. -1.
         -5   -1    0    0    0  501 -0.00000000000E+00 -0.00000000000E+00 -0.22108100056E+04  0.22108150015E+04  0.47000000000E+01 0.  1.
          6    1    1    2  502    0 -0.35898062129E+02  0.79823141396E+02 -0.32592362322E+03  0.37877514826E+03  0.17200000000E+03 0. -1.
         -6    1    1    2    0  502  0.35898062129E+02 -0.79823141396E+02 -0.18536291750E+04  0.18636484441E+04  0.17200000000E+03 0.  1.
</event>
<event>
 4    1 -0.3240665E-004  0.1740096E+03  0.7818608E-02  0.1173730E+00
         -5   -1    0    0    0  501 -0.00000000000E+00  0.00000000000E+00  0.10846351638E+03  0.10856530010E+03  0.47000000000E+01 0.  1.
          5   -1    0    0  501    0  0.00000000000E+00 -0.00000000000E+00 -0.32038944187E+03  0.32042391369E+03  0.47000000000E+01 0. -1.
          6    1    1    2  502    0 -0.18372082269E+02  0.18915401359E+02 -0.18312104496E+03  0.25261164447E+03  0.17200000000E+03 0. -1.
         -6    1    1    2    0  502  0.18372082269E+02 -0.18915401359E+02 -0.28804880537E+02  0.17637756932E+03  0.17200000000E+03 0.  1.
</event>
<event>
 4    1 -0.3240665E-004  0.1752441E+03  0.7818608E-02  0.1172487E+00
          5   -1    0    0  501    0  0.00000000000E+00  0.00000000000E+00  0.64931036610E+03  0.64932737624E+03  0.47000000000E+01 0. -1.
         -5   -1    0    0    0  501 -0.00000000000E+00 -0.00000000000E+00 -0.79561225467E+02  0.79699928469E+02  0.47000000000E+01 0.  1.
          6    1    1    2  502    0  0.32976760484E+02  0.62480732252E+01  0.52562390321E+02  0.18295712620E+03  0.17200000000E+03 0.  1.
         -6    1    1    2    0  502 -0.32976760484E+02 -0.62480732252E+01  0.51718675031E+03  0.54607017850E+03  0.17200000000E+03 0. -1.
</event>
<event>
 4    1 -0.3240665E-004  0.3781495E+03  0.7818608E-02  0.1051620E+00
          5   -1    0    0  501    0  0.00000000000E+00  0.00000000000E+00  0.11777592002E+03  0.11786966249E+03  0.47000000000E+01 0. -1.
         -5   -1    0    0    0  501 -0.00000000000E+00 -0.00000000000E+00 -0.14406821169E+04  0.14406897834E+04  0.47000000000E+01 0.  1.
          6    1    1    2  502    0  0.29375691318E+03  0.16468133128E+03 -0.97085281092E+03  0.10418983853E+04  0.17200000000E+03 0. -1.
         -6    1    1    2    0  502 -0.29375691318E+03 -0.16468133128E+03 -0.35205338598E+03  0.51666106056E+03  0.17200000000E+03 0.  1.
</event>
<event>
 4    1 -0.3240665E-004  0.2279617E+03  0.7818608E-02  0.1128083E+00
          5   -1    0    0  501    0  0.00000000000E+00  0.00000000000E+00  0.82783180261E+03  0.82784514458E+03  0.47000000000E+01 0. -1.
         -5   -1    0    0    0  501 -0.00000000000E+00 -0.00000000000E+00 -0.64344457464E+02  0.64515883365E+02  0.47000000000E+01 0.  1.
          6    1    1    2  502    0 -0.52914901145E+02 -0.13993768948E+03  0.45356369640E+03  0.50762837824E+03  0.17200000000E+03 0.  1.
         -6    1    1    2    0  502  0.52914901145E+02  0.13993768948E+03  0.30992364874E+03  0.38473264971E+03  0.17200000000E+03 0.  1.
</event>
<event>
 4    1 -0.3240665E-004  0.1922926E+03  0.7818608E-02  0.1156410E+00
          5   -1    0    0  501    0  0.00000000000E+00  0.00000000000E+00  0.95345518151E+02  0.95461289702E+02  0.47000000000E+01 0. -1.
         -5   -1    0    0    0  501 -0.00000000000E+00 -0.00000000000E+00 -0.48713288548E+03  0.48715555843E+03  0.47000000000E+01 0.  1.
          6    1    1    2  502    0 -0.61232484594E+02  0.60357419105E+02 -0.32765169943E+03  0.37991060968E+03  0.17200000000E+03 0.  1.
         -6    1    1    2    0  502  0.61232484594E+02 -0.60357419105E+02 -0.64135667895E+02  0.20270623845E+03  0.17200000000E+03 0.  1.
</event>
<event>
 4    1 -0.3240665E-004  0.1999458E+03  0.7818608E-02  0.1149785E+00
         -5   -1    0    0    0  501 -0.00000000000E+00  0.00000000000E+00  0.32254955356E+03  0.32258379455E+03  0.47000000000E+01 0.  1.
          5   -1    0    0  501    0  0.00000000000E+00 -0.00000000000E+00 -0.12437609812E+03  0.12446486967E+03  0.47000000000E+01 0. -1.
          6    1    1    2  502    0 -0.72331112301E+02  0.71850736747E+02  0.11348747363E+03  0.22990807913E+03  0.17200000000E+03 0. -1.
         -6    1    1    2    0  502  0.72331112301E+02 -0.71850736747E+02  0.84685981818E+02  0.21714058509E+03  0.17200000000E+03 0. -1.
</event>
<event>
 4    1 -0.3240665E-004  0.2851357E+03  0.7818608E-02  0.1092917E+00
         -5   -1    0    0    0  501 -0.00000000000E+00  0.00000000000E+00  0.50974511193E+02  0.51190729545E+02  0.47000000000E+01 0.  1.
          5   -1    0    0  501    0  0.00000000000E+00 -0.00000000000E+00 -0.21861499624E+04  0.21861550146E+04  0.47000000000E+01 0. -1.
          6    1    1    2  502    0  0.99504383868E+02 -0.20449258587E+03 -0.16510608852E+04  0.16755012345E+04  0.17200000000E+03 0. -1.
         -6    1    1    2    0  502 -0.99504383868E+02  0.20449258587E+03 -0.48411456597E+03  0.56184450969E+03  0.17200000000E+03 0.  1.
</event>
<event>
 4    1 -0.3240665E-004  0.4667493E+03  0.7818608E-02  0.1022842E+00
         -5   -1    0    0    0  501 -0.00000000000E+00  0.00000000000E+00  0.10847335564E+04  0.10847437386E+04  0.47000000000E+01 0.  1.
          5   -1    0    0  501    0  0.00000000000E+00 -0.00000000000E+00 -0.44103661739E+03  0.44106165995E+03  0.47000000000E+01 0. -1.
          6    1    1    2  502    0  0.35596323061E+03 -0.24811503115E+03 -0.24117690286E+03  0.52537718708E+03  0.17200000000E+03 0. -1.
         -6    1    1    2    0  502 -0.35596323061E+03  0.24811503115E+03  0.88487384186E+03  0.10004282114E+04  0.17200000000E+03 0.  1.
</event>
<event>
 4    1 -0.3240665E-004  0.3050001E+03  0.7818608E-02  0.1082767E+00
         -5   -1    0    0    0  501 -0.00000000000E+00  0.00000000000E+00  0.12208850617E+04  0.12208941083E+04  0.47000000000E+01 0.  1.
          5   -1    0    0  501    0  0.00000000000E+00 -0.00000000000E+00 -0.11292912788E+03  0.11302689027E+03  0.47000000000E+01 0. -1.
          6    1    1    2  502    0 -0.24098382591E+03 -0.73265856758E+02  0.17338070750E+03  0.35083608687E+03  0.17200000000E+03 0. -1.
         -6    1    1    2    0  502  0.24098382591E+03  0.73265856758E+02  0.93457522627E+03  0.98308491173E+03  0.17200000000E+03 0.  1.
</event>
<event>
 4    1 -0.3240665E-004  0.2170164E+03  0.7818608E-02  0.1136127E+00
          5   -1    0    0  501    0  0.00000000000E+00  0.00000000000E+00  0.50128691533E+02  0.50348542331E+02  0.47000000000E+01 0. -1.
         -5   -1    0    0    0  501 -0.00000000000E+00 -0.00000000000E+00 -0.95337931371E+03  0.95339089875E+03  0.47000000000E+01 0.  1.
          6    1    1    2  502    0 -0.99622269201E+01  0.13195787302E+03 -0.51694998731E+03  0.56065445293E+03  0.17200000000E+03 0. -1.
         -6    1    1    2    0  502  0.99622269201E+01 -0.13195787302E+03 -0.38630063487E+03  0.44308498815E+03  0.17200000000E+03 0. -1.
</event>
<event>
 4    1 -0.3240665E-004  0.3078337E+03  0.7818608E-02  0.1081389E+00
         -5   -1    0    0    0  501 -0.00000000000E+00  0.00000000000E+00  0.10000766778E+03  0.10011804840E+03  0.47000000000E+01 0.  1.
          5   -1    0    0  501    0  0.00000000000E+00 -0.00000000000E+00 -0.11636097466E+04  0.11636192386E+04  0.47000000000E+01 0. -1.
          6    1    1    2  502    0  0.23715792195E+03 -0.94518442462E+02 -0.80446962474E+03  0.86135532333E+03  0.17200000000E+03 0. -1.
         -6    1    1    2    0  502 -0.23715792195E+03  0.94518442462E+02 -0.25913245409E+03  0.40238196365E+03  0.17200000000E+03 0. -1.
</event>
<event>
 4    1 -0.3240665E-004  0.1883277E+03  0.7818608E-02  0.1159978E+00
         -5   -1    0    0    0  501 -0.00000000000E+00  0.00000000000E+00  0.47416377311E+03  0.47418706618E+03  0.47000000000E+01 0.  1.
          5   -1    0    0  501    0  0.00000000000E+00 -0.00000000000E+00 -0.76621594610E+02  0.76765609231E+02  0.47000000000E+01 0. -1.
          6    1    1    2  502    0  0.72344819542E+02 -0.25485976793E+02  0.24234034384E+03  0.30691391330E+03  0.17200000000E+03 0. -1.
         -6    1    1    2    0  502 -0.72344819542E+02  0.25485976793E+02  0.15520183466E+03  0.24403876211E+03  0.17200000000E+03 0. -1.
</event>
<event>
 4    1 -0.3240665E-004  0.1962096E+03  0.7818608E-02  0.1152977E+00
          5   -1    0    0  501    0  0.00000000000E+00  0.00000000000E+00  0.47956370042E+03  0.47958673122E+03  0.47000000000E+01 0. -1.
         -5   -1    0    0    0  501 -0.00000000000E+00 -0.00000000000E+00 -0.82980343167E+02  0.83113340398E+02  0.47000000000E+01 0.  1.
          6    1    1    2  502    0  0.87298288069E+02  0.35961280957E+02  0.24989254719E+03  0.31771762615E+03  0.17200000000E+03 0. -1.
         -6    1    1    2    0  502 -0.87298288069E+02 -0.35961280957E+02  0.14669081006E+03  0.24498244546E+03  0.17200000000E+03 0. -1.
</event>
<event>
 4    1 -0.3240665E-004  0.2798046E+03  0.7818608E-02  0.1095796E+00
          5   -1    0    0  501    0  0.00000000000E+00  0.00000000000E+00  0.58298655188E+03  0.58300549712E+03  0.47000000000E+01 0. -1.
         -5   -1    0    0    0  501 -0.00000000000E+00 -0.00000000000E+00 -0.27782088025E+03  0.27786063323E+03  0.47000000000E+01 0.  1.
          6    1    1    2  502    0  0.19454384395E+03  0.10420786918E+03  0.46198554355E+03  0.54011223802E+03  0.17200000000E+03 0. -1.
         -6    1    1    2    0  502 -0.19454384395E+03 -0.10420786918E+03 -0.15681987192E+03  0.32075389233E+03  0.17200000000E+03 0.  1.
</event>
<event>
 4    1 -0.3240665E-004  0.2130858E+03  0.7818608E-02  0.1139145E+00
         -5   -1    0    0    0  501 -0.00000000000E+00  0.00000000000E+00  0.45730717784E+02  0.45971605900E+02  0.47000000000E+01 0.  1.
          5   -1    0    0  501    0  0.00000000000E+00 -0.00000000000E+00 -0.10811108386E+04  0.10811210549E+04  0.47000000000E+01 0. -1.
          6    1    1    2  502    0 -0.10842604196E+03 -0.63760235931E+02 -0.68123783855E+03  0.71378607925E+03  0.17200000000E+03 0. -1.
         -6    1    1    2    0  502  0.10842604196E+03  0.63760235931E+02 -0.35414228228E+03  0.41330658156E+03  0.17200000000E+03 0.  1.
</event>
<event>
 4    1 -0.3240665E-004  0.1737017E+03  0.7818608E-02  0.1174042E+00
          5   -1    0    0  501    0  0.00000000000E+00  0.00000000000E+00  0.42142042514E+03  0.42144663330E+03  0.47000000000E+01 0. -1.
         -5   -1    0    0    0  501 -0.00000000000E+00 -0.00000000000E+00 -0.71564482298E+02  0.71718652570E+02  0.47000000000E+01 0.  1.
          6    1    1    2  502    0 -0.24231093096E+02 -0.10574166755E+01  0.16703572882E+03  0.24098381420E+03  0.17200000000E+03 0.  1.
         -6    1    1    2    0  502  0.24231093096E+02  0.10574166755E+01  0.18282021402E+03  0.25218147167E+03  0.17200000000E+03 0. -1.
</event>
<event>
 4    1 -0.3240665E-004  0.4545757E+03  0.7818608E-02  0.1026366E+00
         -5   -1    0    0    0  501 -0.00000000000E+00  0.00000000000E+00  0.75121997927E+03  0.75123468187E+03  0.47000000000E+01 0.  1.
          5   -1    0    0  501    0  0.00000000000E+00 -0.00000000000E+00 -0.28746228894E+03  0.28750070880E+03  0.47000000000E+01 0. -1.
          6    1    1    2  502    0  0.72462677770E+02 -0.41449269893E+03  0.12389647859E+03  0.47115748380E+03  0.17200000000E+03 0. -1.
         -6    1    1    2    0  502 -0.72462677770E+02  0.41449269893E+03  0.33986121174E+03  0.56757790688E+03  0.17200000000E+03 0.  1.
</event>
<event>
 4    1 -0.3240665E-004  0.1799852E+03  0.7818608E-02  0.1167817E+00
         -5   -1    0    0    0  501 -0.00000000000E+00  0.00000000000E+00  0.74785153046E+02  0.74932697243E+02  0.47000000000E+01 0.  1.
          5   -1    0    0  501    0  0.00000000000E+00 -0.00000000000E+00 -0.50826475425E+03  0.50828648459E+03  0.47000000000E+01 0. -1.
          6    1    1    2  502    0  0.48436135722E+02  0.21554829893E+02 -0.32924702824E+03  0.37523096293E+03  0.17200000000E+03 0. -1.
         -6    1    1    2    0  502 -0.48436135722E+02 -0.21554829893E+02 -0.10423257297E+03  0.20798821890E+03  0.17200000000E+03 0.  1.
</event>
<event>
 4    1 -0.3240665E-004  0.4660843E+03  0.7818608E-02  0.1023031E+00
         -5   -1    0    0    0  501 -0.00000000000E+00  0.00000000000E+00  0.36682401794E+03  0.36685412651E+03  0.47000000000E+01 0.  1.
          5   -1    0    0  501    0  0.00000000000E+00 -0.00000000000E+00 -0.67581999592E+03  0.67583633883E+03  0.47000000000E+01 0. -1.
          6    1    1    2  502    0  0.40175126559E+03 -0.16200764447E+03  0.28946810739E+02  0.46698230601E+03  0.17200000000E+03 0. -1.
         -6    1    1    2    0  502 -0.40175126559E+03  0.16200764447E+03 -0.33794278872E+03  0.57570815933E+03  0.17200000000E+03 0.  1.
</event>
<event>
 4    1 -0.3240665E-004  0.3467699E+03  0.7818608E-02  0.1063949E+00
          5   -1    0    0  501    0  0.00000000000E+00  0.00000000000E+00  0.25776909342E+03  0.25781193829E+03  0.47000000000E+01 0. -1.
         -5   -1    0    0    0  501 -0.00000000000E+00 -0.00000000000E+00 -0.62950297498E+03  0.62952052032E+03  0.47000000000E+01 0.  1.
          6    1    1    2  502    0  0.71403561212E+02 -0.29251823264E+03  0.39950396456E+02  0.34906363196E+03  0.17200000000E+03 0. -1.
         -6    1    1    2    0  502 -0.71403561212E+02  0.29251823264E+03 -0.41168427801E+03  0.53826882665E+03  0.17200000000E+03 0.  1.
</event>
<event>
 4    1 -0.3240665E-004  0.2043513E+03  0.7818608E-02  0.1146119E+00
          5   -1    0    0  501    0  0.00000000000E+00  0.00000000000E+00  0.62033531319E+02  0.62211325399E+02  0.47000000000E+01 0. -1.
         -5   -1    0    0    0  501 -0.00000000000E+00 -0.00000000000E+00 -0.68497022954E+03  0.68498635414E+03  0.47000000000E+01 0.  1.
          6    1    1    2  502    0 -0.94516908217E+02  0.56938557245E+02 -0.36281897209E+03  0.41640971620E+03  0.17200000000E+03 0. -1.
         -6    1    1    2    0  502  0.94516908217E+02 -0.56938557245E+02 -0.26011772613E+03  0.33078796334E+03  0.17200000000E+03 0.  1.
</event>
<event>
 4    1 -0.3240665E-004  0.1762000E+03  0.7818608E-02  0.1171532E+00
         -5   -1    0    0    0  501 -0.00000000000E+00  0.00000000000E+00  0.56418815676E+03  0.56420773322E+03  0.47000000000E+01 0.  1.
          5   -1    0    0  501    0  0.00000000000E+00 -0.00000000000E+00 -0.97125169211E+02  0.97238821950E+02  0.47000000000E+01 0. -1.
          6    1    1    2  502    0  0.23028358996E+02  0.30530924324E+02  0.15685026111E+02  0.17689675718E+03  0.17200000000E+03 0. -1.
         -6    1    1    2    0  502 -0.23028358996E+02 -0.30530924324E+02  0.45137796144E+03  0.48454979799E+03  0.17200000000E+03 0.  1.
</event>
<event>
 4    1 -0.3240665E-004  0.2142803E+03  0.7818608E-02  0.1138221E+00
         -5   -1    0    0    0  501 -0.00000000000E+00  0.00000000000E+00  0.11264760542E+03  0.11274561192E+03  0.47000000000E+01 0.  1.
          5   -1    0    0  501    0  0.00000000000E+00 -0.00000000000E+00 -0.42078168296E+03  0.42080793090E+03  0.47000000000E+01 0. -1.
          6    1    1    2  502    0  0.12450949558E+03  0.28799672608E+02 -0.10635563520E+03  0.23922281825E+03  0.17200000000E+03 0. -1.
         -6    1    1    2    0  502 -0.12450949558E+03 -0.28799672608E+02 -0.20177844234E+03  0.29433072457E+03  0.17200000000E+03 0. -1.
</event>
<event>
 4    1 -0.3240665E-004  0.2215388E+03  0.7818608E-02  0.1132741E+00
          5   -1    0    0  501    0  0.00000000000E+00  0.00000000000E+00  0.10204367027E+03  0.10215185090E+03  0.47000000000E+01 0. -1.
         -5   -1    0    0    0  501 -0.00000000000E+00 -0.00000000000E+00 -0.51758667791E+03  0.51760801689E+03  0.47000000000E+01 0.  1.
          6    1    1    2  502    0 -0.13915611991E+03  0.11445651349E+02 -0.12493421323E+03  0.25433833034E+03  0.17200000000E+03 0. -1.
         -6    1    1    2    0  502  0.13915611991E+03 -0.11445651349E+02 -0.29060879441E+03  0.36542153745E+03  0.17200000000E+03 0.  1.
</event>
<event>
 4    1 -0.3240665E-004  0.3518027E+03  0.7818608E-02  0.1061878E+00
         -5   -1    0    0    0  501 -0.00000000000E+00  0.00000000000E+00  0.25883419388E+03  0.25887686247E+03  0.47000000000E+01 0.  1.
          5   -1    0    0  501    0  0.00000000000E+00 -0.00000000000E+00 -0.59674230114E+03  0.59676080968E+03  0.47000000000E+01 0. -1.
          6    1    1    2  502    0 -0.15265860136E+03  0.26622639286E+03 -0.35972743155E+03  0.50315898664E+03  0.17200000000E+03 0. -1.
         -6    1    1    2    0  502  0.15265860136E+03 -0.26622639286E+03  0.21819324289E+02  0.35247868551E+03  0.17200000000E+03 0.  1.
</event>
<event>
 4    1 -0.3240665E-004  0.1765524E+03  0.7818608E-02  0.1171182E+00
         -5   -1    0    0    0  501 -0.00000000000E+00  0.00000000000E+00  0.18234341257E+04  0.18234401830E+04  0.47000000000E+01 0.  1.
          5   -1    0    0  501    0  0.00000000000E+00 -0.00000000000E+00 -0.18092944802E+02  0.18693438732E+02  0.47000000000E+01 0. -1.
          6    1    1    2  502    0 -0.37403151172E+02  0.13702846270E+02  0.65739570992E+03  0.68069073972E+03  0.17200000000E+03 0. -1.
         -6    1    1    2    0  502  0.37403151172E+02 -0.13702846270E+02  0.11479454710E+04  0.11614428820E+04  0.17200000000E+03 0.  1.
</event>
<event>
 4    1 -0.3240665E-004  0.1796208E+03  0.7818608E-02  0.1168171E+00
          5   -1    0    0  501    0  0.00000000000E+00  0.00000000000E+00  0.18587278085E+02  0.19172295288E+02  0.47000000000E+01 0. -1.
         -5   -1    0    0    0  501 -0.00000000000E+00 -0.00000000000E+00 -0.18766426092E+04  0.18766484947E+04  0.47000000000E+01 0.  1.
          6    1    1    2  502    0 -0.51189950478E+02 -0.76959810006E+01 -0.64517566390E+03  0.66971283132E+03  0.17200000000E+03 0. -1.
         -6    1    1    2    0  502  0.51189950478E+02  0.76959810006E+01 -0.12128796672E+04  0.12261079587E+04  0.17200000000E+03 0.  1.
</event>
<event>
 4    1 -0.3240665E-004  0.4721095E+03  0.7818608E-02  0.1021326E+00
          5   -1    0    0  501    0  0.00000000000E+00  0.00000000000E+00  0.47980286760E+03  0.47982588692E+03  0.47000000000E+01 0. -1.
         -5   -1    0    0    0  501 -0.00000000000E+00 -0.00000000000E+00 -0.46567327747E+03  0.46569699521E+03  0.47000000000E+01 0.  1.
          6    1    1    2  502    0  0.22577854758E+03  0.37726311091E+03  0.30859497569E+02  0.47311702145E+03  0.17200000000E+03 0. -1.
         -6    1    1    2    0  502 -0.22577854758E+03 -0.37726311091E+03 -0.16729907435E+02  0.47240586068E+03  0.17200000000E+03 0.  1.
</event>
<event>
 4    1 -0.3240665E-004  0.1801647E+03  0.7818608E-02  0.1167644E+00
         -5   -1    0    0    0  501 -0.00000000000E+00  0.00000000000E+00  0.26318990770E+03  0.26323187025E+03  0.47000000000E+01 0.  1.
          5   -1    0    0  501    0  0.00000000000E+00 -0.00000000000E+00 -0.51346265828E+03  0.51348416865E+03  0.47000000000E+01 0. -1.
          6    1    1    2  502    0 -0.53507877298E+02  0.34942604193E+01 -0.46366572227E+03  0.49743864426E+03  0.17200000000E+03 0. -1.
         -6    1    1    2    0  502  0.53507877298E+02 -0.34942604193E+01  0.21339297169E+03  0.27927739464E+03  0.17200000000E+03 0.  1.
</event>
<event>
 4    1 -0.3240665E-004  0.2317905E+03  0.7818608E-02  0.1125386E+00
          5   -1    0    0  501    0  0.00000000000E+00  0.00000000000E+00  0.17337296838E+03  0.17343666326E+03  0.47000000000E+01 0. -1.
         -5   -1    0    0    0  501 -0.00000000000E+00 -0.00000000000E+00 -0.32846562683E+03  0.32849925116E+03  0.47000000000E+01 0.  1.
          6    1    1    2  502    0  0.13458299808E+03  0.77654674705E+02 -0.17653686429E+02  0.23246179153E+03  0.17200000000E+03 0. -1.
         -6    1    1    2    0  502 -0.13458299808E+03 -0.77654674705E+02 -0.13743897203E+03  0.26947412289E+03  0.17200000000E+03 0.  1.
</event>
<event>
 4    1 -0.3240665E-004  0.1971066E+03  0.7818608E-02  0.1152203E+00
          5   -1    0    0  501    0  0.00000000000E+00  0.00000000000E+00  0.13323881988E+03  0.13332169037E+03  0.47000000000E+01 0. -1.
         -5   -1    0    0    0  501 -0.00000000000E+00 -0.00000000000E+00 -0.34415740590E+03  0.34418949728E+03  0.47000000000E+01 0.  1.
          6    1    1    2  502    0 -0.70045289450E+02  0.66035394470E+02 -0.11992922668E+02  0.19747112723E+03  0.17200000000E+03 0. -1.
         -6    1    1    2    0  502  0.70045289450E+02 -0.66035394470E+02 -0.19892566335E+03  0.28004006041E+03  0.17200000000E+03 0.  1.
</event>
<event>
 4    1 -0.3240665E-004  0.4135888E+03  0.7818608E-02  0.1039173E+00
         -5   -1    0    0    0  501 -0.00000000000E+00  0.00000000000E+00  0.19855192469E+03  0.19860754466E+03  0.47000000000E+01 0.  1.
          5   -1    0    0  501    0  0.00000000000E+00 -0.00000000000E+00 -0.17908628746E+04  0.17908690420E+04  0.47000000000E+01 0. -1.
          6    1    1    2  502    0 -0.37110774412E+03 -0.61243082973E+02 -0.15127959970E+04  0.15683135533E+04  0.17200000000E+03 0. -1.
         -6    1    1    2    0  502  0.37110774412E+03  0.61243082973E+02 -0.79514952956E+02  0.42116303340E+03  0.17200000000E+03 0.  1.
</event>
<event>
 4    1 -0.3240665E-004  0.5700475E+03  0.7818608E-02  0.9969574E-01
         -5   -1    0    0    0  501 -0.00000000000E+00  0.00000000000E+00  0.29509578328E+03  0.29513320943E+03  0.47000000000E+01 0.  1.
          5   -1    0    0  501    0  0.00000000000E+00 -0.00000000000E+00 -0.13906012327E+04  0.13906091753E+04  0.47000000000E+01 0. -1.
          6    1    1    2  502    0  0.26411732563E+03  0.47498647904E+03 -0.93234511796E+03  0.10928044363E+04  0.17200000000E+03 0. -1.
         -6    1    1    2    0  502 -0.26411732563E+03 -0.47498647904E+03 -0.16316033150E+03  0.59293794848E+03  0.17200000000E+03 0.  1.
</event>
<event>
 4    1 -0.3240665E-004  0.1881966E+03  0.7818608E-02  0.1160098E+00
          5   -1    0    0  501    0  0.00000000000E+00  0.00000000000E+00  0.45284354211E+02  0.45527604114E+02  0.47000000000E+01 0. -1.
         -5   -1    0    0    0  501 -0.00000000000E+00 -0.00000000000E+00 -0.79334065362E+03  0.79335457564E+03  0.47000000000E+01 0.  1.
          6    1    1    2  502    0 -0.66762634042E+02 -0.37104139549E+02 -0.42886059197E+03  0.46833681664E+03  0.17200000000E+03 0. -1.
         -6    1    1    2    0  502  0.66762634042E+02  0.37104139549E+02 -0.31919570744E+03  0.37054536311E+03  0.17200000000E+03 0. -1.
</event>
<event>
 4    1 -0.3240665E-004  0.3142729E+03  0.7818608E-02  0.1078316E+00
         -5   -1    0    0    0  501 -0.00000000000E+00  0.00000000000E+00  0.93122057938E+03  0.93123244008E+03  0.47000000000E+01 0.  1.
          5   -1    0    0  501    0  0.00000000000E+00 -0.00000000000E+00 -0.12863099304E+03  0.12871683017E+03  0.47000000000E+01 0. -1.
          6    1    1    2  502    0 -0.86674075330E+02 -0.24833656340E+03  0.17907873293E+03  0.36171347313E+03  0.17200000000E+03 0. -1.
         -6    1    1    2    0  502  0.86674075330E+02  0.24833656340E+03  0.62351085341E+03  0.69823579712E+03  0.17200000000E+03 0.  1.
</event>
<event>
 4    1 -0.3240665E-004  0.4783925E+03  0.7818608E-02  0.1019578E+00
         -5   -1    0    0    0  501 -0.00000000000E+00  0.00000000000E+00  0.21898360780E+03  0.21903403955E+03  0.47000000000E+01 0.  1.
          5   -1    0    0  501    0  0.00000000000E+00 -0.00000000000E+00 -0.11061143261E+04  0.11061243115E+04  0.47000000000E+01 0. -1.
          6    1    1    2  502    0 -0.37077596640E+03 -0.24859725408E+03 -0.28772742563E+03  0.55825306399E+03  0.17200000000E+03 0. -1.
         -6    1    1    2    0  502  0.37077596640E+03  0.24859725408E+03 -0.59940329267E+03  0.76690528702E+03  0.17200000000E+03 0. -1.
</event>
<event>
 4    1 -0.3240665E-004  0.2330883E+03  0.7818608E-02  0.1124485E+00
          5   -1    0    0  501    0  0.00000000000E+00  0.00000000000E+00  0.32983482012E+03  0.32986830488E+03  0.47000000000E+01 0. -1.
         -5   -1    0    0    0  501 -0.00000000000E+00 -0.00000000000E+00 -0.19549972481E+03  0.19555621289E+03  0.47000000000E+01 0.  1.
          6    1    1    2  502    0 -0.78649289987E+02 -0.13623665182E+03 -0.37177165006E+02  0.23603448416E+03  0.17200000000E+03 0.  1.
         -6    1    1    2    0  502  0.78649289987E+02  0.13623665182E+03  0.17151226032E+03  0.28939003361E+03  0.17200000000E+03 0. -1.
</event>
<event>
 4    1 -0.3240665E-004  0.3452301E+03  0.7818608E-02  0.1064590E+00
          5   -1    0    0  501    0  0.00000000000E+00  0.00000000000E+00  0.42815740624E+03  0.42818320205E+03  0.47000000000E+01 0. -1.
         -5   -1    0    0    0  501 -0.00000000000E+00 -0.00000000000E+00 -0.32570121315E+03  0.32573512283E+03  0.47000000000E+01 0.  1.
          6    1    1    2  502    0 -0.23292898501E+03  0.18799975363E+03  0.19500517235E+03  0.39649821774E+03  0.17200000000E+03 0. -1.
         -6    1    1    2    0  502  0.23292898501E+03 -0.18799975363E+03 -0.92548979259E+02  0.35742010714E+03  0.17200000000E+03 0.  1.
</event>
<event>
 4    1 -0.3240665E-004  0.2066935E+03  0.7818608E-02  0.1144211E+00
         -5   -1    0    0    0  501 -0.00000000000E+00  0.00000000000E+00  0.33272907319E+03  0.33276226671E+03  0.47000000000E+01 0.  1.
          5   -1    0    0  501    0  0.00000000000E+00 -0.00000000000E+00 -0.24090821604E+03  0.24095405902E+03  0.47000000000E+01 0. -1.
          6    1    1    2  502    0  0.75195484574E+02  0.86509244255E+02 -0.15015668740E+03  0.25547845509E+03  0.17200000000E+03 0. -1.
         -6    1    1    2    0  502 -0.75195484574E+02 -0.86509244255E+02  0.24197754455E+03  0.31823787064E+03  0.17200000000E+03 0.  1.
</event>
<event>
 4    1 -0.3240665E-004  0.3819903E+03  0.7818608E-02  0.1050201E+00
          5   -1    0    0  501    0  0.00000000000E+00  0.00000000000E+00  0.35566931087E+03  0.35570036364E+03  0.47000000000E+01 0. -1.
         -5   -1    0    0    0  501 -0.00000000000E+00 -0.00000000000E+00 -0.69675136486E+03  0.69676721682E+03  0.47000000000E+01 0.  1.
          6    1    1    2  502    0 -0.19942545138E+03  0.27669850125E+03  0.16692280521E+03  0.41686903717E+03  0.17200000000E+03 0. -1.
         -6    1    1    2    0  502  0.19942545138E+03 -0.27669850125E+03 -0.50800485920E+03  0.63559854328E+03  0.17200000000E+03 0.  1.
</event>
<event>
 4    1 -0.3240665E-004  0.1737409E+03  0.7818608E-02  0.1174002E+00
          5   -1    0    0  501    0  0.00000000000E+00  0.00000000000E+00  0.69665296761E+02  0.69823660551E+02  0.47000000000E+01 0. -1.
         -5   -1    0    0    0  501 -0.00000000000E+00 -0.00000000000E+00 -0.50782908324E+03  0.50785083222E+03  0.47000000000E+01 0.  1.
          6    1    1    2  502    0 -0.80139490850E+01  0.23187733163E+02 -0.10795833954E+03  0.20455047647E+03  0.17200000000E+03 0. -1.
         -6    1    1    2    0  502  0.80139490850E+01 -0.23187733163E+02 -0.33020544694E+03  0.37312401630E+03  0.17200000000E+03 0.  1.
</event>
<event>
 4    1 -0.3240665E-004  0.1754396E+03  0.7818608E-02  0.1172291E+00
         -5   -1    0    0    0  501 -0.00000000000E+00  0.00000000000E+00  0.15747672824E+03  0.15754684997E+03  0.47000000000E+01 0.  1.
          5   -1    0    0  501    0  0.00000000000E+00 -0.00000000000E+00 -0.19576188151E+03  0.19581829396E+03  0.47000000000E+01 0. -1.
          6    1    1    2  502    0  0.33962669305E+02 -0.64487619615E+01 -0.10652006119E+02  0.17576266575E+03  0.17200000000E+03 0.  1.
         -6    1    1    2    0  502 -0.33962669305E+02  0.64487619615E+01 -0.27633147147E+02  0.17760247819E+03  0.17200000000E+03 0. -1.
</event>
<event>
 4    1 -0.3240665E-004  0.1918884E+03  0.7818608E-02  0.1156769E+00
          5   -1    0    0  501    0  0.00000000000E+00  0.00000000000E+00  0.24279124331E+03  0.24283673080E+03  0.47000000000E+01 0. -1.
         -5   -1    0    0    0  501 -0.00000000000E+00 -0.00000000000E+00 -0.22652441296E+03  0.22657316626E+03  0.47000000000E+01 0.  1.
          6    1    1    2  502    0  0.76279541553E+02 -0.37664179398E+02  0.14311853604E+03  0.23938269409E+03  0.17200000000E+03 0. -1.
         -6    1    1    2    0  502 -0.76279541553E+02  0.37664179398E+02 -0.12685170570E+03  0.23002720297E+03  0.17200000000E+03 0.  1.
</event>
<event>
 4    1 -0.3240665E-004  0.2599368E+03  0.7818608E-02  0.1107181E+00
         -5   -1    0    0    0  501 -0.00000000000E+00  0.00000000000E+00  0.15901955683E+03  0.15908899854E+03  0.47000000000E+01 0.  1.
          5   -1    0    0  501    0  0.00000000000E+00 -0.00000000000E+00 -0.11782010883E+04  0.11782104627E+04  0.47000000000E+01 0. -1.
          6    1    1    2  502    0  0.10240007714E+03 -0.16582329639E+03  0.25106774771E+02  0.26114649445E+03  0.17200000000E+03 0.  1.
         -6    1    1    2    0  502 -0.10240007714E+03  0.16582329639E+03 -0.10442883063E+04  0.10761529668E+04  0.17200000000E+03 0. -1.
</event>
<event>
 4    1 -0.3240665E-004  0.2748652E+03  0.7818608E-02  0.1098527E+00
         -5   -1    0    0    0  501 -0.00000000000E+00  0.00000000000E+00  0.23208524230E+03  0.23213282769E+03  0.47000000000E+01 0.  1.
          5   -1    0    0  501    0  0.00000000000E+00 -0.00000000000E+00 -0.32543349460E+03  0.32546743218E+03  0.47000000000E+01 0. -1.
          6    1    1    2  502    0  0.11078669518E+03  0.18355710549E+03 -0.47047630314E+02  0.27886265853E+03  0.17200000000E+03 0. -1.
         -6    1    1    2    0  502 -0.11078669518E+03 -0.18355710549E+03 -0.46300621990E+02  0.27873760134E+03  0.17200000000E+03 0.  1.
</event>
<event>
 4    1 -0.3240665E-004  0.1819146E+03  0.7818608E-02  0.1165963E+00
         -5   -1    0    0    0  501 -0.00000000000E+00  0.00000000000E+00  0.86368820748E+03  0.86370099556E+03  0.47000000000E+01 0.  1.
          5   -1    0    0  501    0  0.00000000000E+00 -0.00000000000E+00 -0.46541065774E+02  0.46777781087E+02  0.47000000000E+01 0. -1.
          6    1    1    2  502    0 -0.48360937035E+02  0.34207101412E+02  0.60120533329E+03  0.62812479555E+03  0.17200000000E+03 0.  1.
         -6    1    1    2    0  502  0.48360937035E+02 -0.34207101412E+02  0.21594180841E+03  0.28235398109E+03  0.17200000000E+03 0. -1.
</event>
<event>
 4    1 -0.3240665E-004  0.1841207E+03  0.7818608E-02  0.1163874E+00
          5   -1    0    0  501    0  0.00000000000E+00  0.00000000000E+00  0.11919323230E+03  0.11928586097E+03  0.47000000000E+01 0. -1.
         -5   -1    0    0    0  501 -0.00000000000E+00 -0.00000000000E+00 -0.49857911735E+03  0.49860126981E+03  0.47000000000E+01 0.  1.
          6    1    1    2  502    0 -0.52436571106E+02  0.39583321720E+02  0.12868411152E+02  0.18456984952E+03  0.17200000000E+03 0. -1.
         -6    1    1    2    0  502  0.52436571106E+02 -0.39583321720E+02 -0.39225429619E+03  0.43331728125E+03  0.17200000000E+03 0.  1.
</event>
<event>
 4    1 -0.3240665E-004  0.2330982E+03  0.7818608E-02  0.1124478E+00
          5   -1    0    0  501    0  0.00000000000E+00  0.00000000000E+00  0.11749706505E+03  0.11759102982E+03  0.47000000000E+01 0. -1.
         -5   -1    0    0    0  501 -0.00000000000E+00 -0.00000000000E+00 -0.11483339866E+04  0.11483436048E+04  0.47000000000E+01 0.  1.
          6    1    1    2  502    0 -0.73081042808E+02  0.13931959717E+03 -0.26148831237E+02  0.23456033414E+03  0.17200000000E+03 0. -1.
         -6    1    1    2    0  502  0.73081042808E+02 -0.13931959717E+03 -0.10046880903E+04  0.10313743005E+04  0.17200000000E+03 0.  1.
</event>
<event>
 4    1 -0.3240665E-004  0.1779120E+03  0.7818608E-02  0.1169839E+00
          5   -1    0    0  501    0  0.00000000000E+00  0.00000000000E+00  0.20427648639E+03  0.20433054811E+03  0.47000000000E+01 0. -1.
         -5   -1    0    0    0  501 -0.00000000000E+00 -0.00000000000E+00 -0.16899581710E+03  0.16906116112E+03  0.47000000000E+01 0.  1.
          6    1    1    2  502    0 -0.45395205443E+02  0.28193041228E+01  0.71654543219E+02  0.19179949613E+03  0.17200000000E+03 0. -1.
         -6    1    1    2    0  502  0.45395205443E+02 -0.28193041228E+01 -0.36373873928E+02  0.18159221310E+03  0.17200000000E+03 0.  1.
</event>
<event>
 4    1 -0.3240665E-004  0.1722279E+03  0.7818608E-02  0.1175544E+00
          5   -1    0    0  501    0  0.00000000000E+00  0.00000000000E+00  0.26326623307E+03  0.26330818346E+03  0.47000000000E+01 0. -1.
         -5   -1    0    0    0  501 -0.00000000000E+00 -0.00000000000E+00 -0.11307262026E+03  0.11317025870E+03  0.47000000000E+01 0.  1.
          6    1    1    2  502    0 -0.87954714493E+01 -0.10428010226E+01  0.87627422627E+02  0.19323822849E+03  0.17200000000E+03 0. -1.
         -6    1    1    2    0  502  0.87954714493E+01  0.10428010226E+01  0.62566190180E+02  0.18324021367E+03  0.17200000000E+03 0.  1.
</event>
<event>
 4    1 -0.3240665E-004  0.3739819E+03  0.7818608E-02  0.1053181E+00
         -5   -1    0    0    0  501 -0.00000000000E+00  0.00000000000E+00  0.11984232465E+03  0.11993445201E+03  0.47000000000E+01 0.  1.
          5   -1    0    0  501    0  0.00000000000E+00 -0.00000000000E+00 -0.12504492355E+04  0.12504580683E+04  0.47000000000E+01 0. -1.
          6    1    1    2  502    0 -0.12489379441E+03 -0.30770112108E+03 -0.74282484350E+03  0.83165569072E+03  0.17200000000E+03 0. -1.
         -6    1    1    2    0  502  0.12489379441E+03  0.30770112108E+03 -0.38778206737E+03  0.53873682960E+03  0.17200000000E+03 0.  1.
</event>
<event>
 4    1 -0.3240665E-004  0.2100596E+03  0.7818608E-02  0.1141519E+00
          5   -1    0    0  501    0  0.00000000000E+00  0.00000000000E+00  0.14642497503E+03  0.14650038673E+03  0.47000000000E+01 0. -1.
         -5   -1    0    0    0  501 -0.00000000000E+00 -0.00000000000E+00 -0.30309187760E+03  0.30312831651E+03  0.47000000000E+01 0.  1.
          6    1    1    2  502    0 -0.83159507017E+02  0.87324362965E+02 -0.60471471688E+02  0.21859059189E+03  0.17200000000E+03 0. -1.
         -6    1    1    2    0  502  0.83159507017E+02 -0.87324362965E+02 -0.96195430885E+02  0.23103811135E+03  0.17200000000E+03 0.  1.
</event>
<event>
 4    1 -0.3240665E-004  0.1745306E+03  0.7818608E-02  0.1173204E+00
         -5   -1    0    0    0  501 -0.00000000000E+00  0.00000000000E+00  0.27053551512E+03  0.27057633848E+03  0.47000000000E+01 0.  1.
          5   -1    0    0  501    0  0.00000000000E+00 -0.00000000000E+00 -0.14219299410E+03  0.14227064902E+03  0.47000000000E+01 0. -1.
          6    1    1    2  502    0  0.17931711223E+00  0.29612192642E+02 -0.30121026918E+02  0.17711067266E+03  0.17200000000E+03 0. -1.
         -6    1    1    2    0  502 -0.17931711223E+00 -0.29612192642E+02  0.15846354794E+03  0.23573631484E+03  0.17200000000E+03 0.  1.
</event>
<event>
 4    1 -0.3240665E-004  0.3222710E+03  0.7818608E-02  0.1074609E+00
          5   -1    0    0  501    0  0.00000000000E+00  0.00000000000E+00  0.12120331647E+04  0.12120422775E+04  0.47000000000E+01 0. -1.
         -5   -1    0    0    0  501 -0.00000000000E+00 -0.00000000000E+00 -0.13091435209E+03  0.13099869306E+03  0.47000000000E+01 0.  1.
          6    1    1    2  502    0 -0.27113338633E+03  0.27591017370E+02  0.93539524418E+03  0.98935475956E+03  0.17200000000E+03 0. -1.
         -6    1    1    2    0  502  0.27113338633E+03 -0.27591017370E+02  0.14572356843E+03  0.35368621096E+03  0.17200000000E+03 0.  1.
</event>
<event>
 4    1 -0.3240665E-004  0.2772283E+03  0.7818608E-02  0.1097212E+00
          5   -1    0    0  501    0  0.00000000000E+00  0.00000000000E+00  0.83770842422E+03  0.83772160890E+03  0.47000000000E+01 0. -1.
         -5   -1    0    0    0  501 -0.00000000000E+00 -0.00000000000E+00 -0.12972887516E+03  0.12981398635E+03  0.47000000000E+01 0.  1.
          6    1    1    2  502    0  0.87431517514E+02 -0.19906597033E+03  0.61589714775E+03  0.67541455967E+03  0.17200000000E+03 0. -1.
         -6    1    1    2    0  502 -0.87431517514E+02  0.19906597033E+03  0.92082401309E+02  0.29212103558E+03  0.17200000000E+03 0.  1.
</event>
<event>
 4    1 -0.3240665E-004  0.3351127E+03  0.7818608E-02  0.1068897E+00
          5   -1    0    0  501    0  0.00000000000E+00  0.00000000000E+00  0.13689946242E+03  0.13698011830E+03  0.47000000000E+01 0. -1.
         -5   -1    0    0    0  501 -0.00000000000E+00 -0.00000000000E+00 -0.90470305586E+03  0.90471526420E+03  0.47000000000E+01 0.  1.
          6    1    1    2  502    0 -0.49218584701E+02 -0.28336204143E+03 -0.54327810030E+03  0.63831936354E+03  0.17200000000E+03 0. -1.
         -6    1    1    2    0  502  0.49218584701E+02  0.28336204143E+03 -0.22452549315E+03  0.40337601897E+03  0.17200000000E+03 0.  1.
</event>
<event>
 4    1 -0.3240665E-004  0.1768002E+03  0.7818608E-02  0.1170936E+00
         -5   -1    0    0    0  501 -0.00000000000E+00  0.00000000000E+00  0.87817961846E+02  0.87943643447E+02  0.47000000000E+01 0.  1.
          5   -1    0    0  501    0  0.00000000000E+00 -0.00000000000E+00 -0.39415741057E+03  0.39418543137E+03  0.47000000000E+01 0. -1.
          6    1    1    2  502    0 -0.38665544439E+02 -0.13389820472E+02 -0.77737676513E+02  0.19313585366E+03  0.17200000000E+03 0.  1.
         -6    1    1    2    0  502  0.38665544439E+02  0.13389820472E+02 -0.22860177221E+03  0.28899322116E+03  0.17200000000E+03 0. -1.
</event>
<event>
 4    1 -0.3240665E-004  0.2918498E+03  0.7818608E-02  0.1089387E+00
         -5   -1    0    0    0  501 -0.00000000000E+00  0.00000000000E+00  0.45772930831E+03  0.45775343766E+03  0.47000000000E+01 0.  1.
          5   -1    0    0  501    0  0.00000000000E+00 -0.00000000000E+00 -0.19909783505E+03  0.19915330256E+03  0.47000000000E+01 0. -1.
          6    1    1    2  502    0 -0.22232233488E+03  0.78518030170E+02  0.21345998174E+03  0.36158189315E+03  0.17200000000E+03 0.  1.
         -6    1    1    2    0  502  0.22232233488E+03 -0.78518030170E+02  0.45171491517E+02  0.29532484707E+03  0.17200000000E+03 0. -1.
</event>
<event>
 4    1 -0.3240665E-004  0.2421138E+03  0.7818608E-02  0.1118393E+00
         -5   -1    0    0    0  501 -0.00000000000E+00  0.00000000000E+00  0.14805654955E+03  0.14813113063E+03  0.47000000000E+01 0.  1.
          5   -1    0    0  501    0  0.00000000000E+00 -0.00000000000E+00 -0.41026943842E+03  0.41029635887E+03  0.47000000000E+01 0. -1.
          6    1    1    2  502    0  0.40394330513E+01 -0.17034896634E+03 -0.18365264976E+03  0.30388712233E+03  0.17200000000E+03 0. -1.
         -6    1    1    2    0  502 -0.40394330513E+01  0.17034896634E+03 -0.78560239116E+02  0.25454036718E+03  0.17200000000E+03 0. -1.
</event>
<event>
 4    1 -0.3240665E-004  0.2282249E+03  0.7818608E-02  0.1127895E+00
          5   -1    0    0  501    0  0.00000000000E+00  0.00000000000E+00  0.20833032140E+03  0.20838333142E+03  0.47000000000E+01 0. -1.
         -5   -1    0    0    0  501 -0.00000000000E+00 -0.00000000000E+00 -0.61564057397E+03  0.61565851437E+03  0.47000000000E+01 0.  1.
          6    1    1    2  502    0  0.14472797917E+02 -0.14930896065E+03 -0.52120002449E+03  0.56897811306E+03  0.17200000000E+03 0.  1.
         -6    1    1    2    0  502 -0.14472797917E+02  0.14930896065E+03  0.11388977191E+03  0.25506373273E+03  0.17200000000E+03 0. -1.
</event>
<event>
 4    1 -0.3240665E-004  0.2834417E+03  0.7818608E-02  0.1093824E+00
         -5   -1    0    0    0  501 -0.00000000000E+00  0.00000000000E+00  0.80788207923E+02  0.80924807935E+02  0.47000000000E+01 0.  1.
          5   -1    0    0  501    0  0.00000000000E+00 -0.00000000000E+00 -0.11005296034E+04  0.11005396394E+04  0.47000000000E+01 0. -1.
          6    1    1    2  502    0 -0.11681127751E+03 -0.19264041720E+03 -0.32562652449E+03  0.43170804758E+03  0.17200000000E+03 0. -1.
         -6    1    1    2    0  502  0.11681127751E+03  0.19264041720E+03 -0.69411487096E+03  0.74975639976E+03  0.17200000000E+03 0.  1.
</event>
<event>
 4    1 -0.3240665E-004  0.3162883E+03  0.7818608E-02  0.1077370E+00
          5   -1    0    0  501    0  0.00000000000E+00  0.00000000000E+00  0.30895212975E+03  0.30898787756E+03  0.47000000000E+01 0. -1.
         -5   -1    0    0    0  501 -0.00000000000E+00 -0.00000000000E+00 -0.32918418494E+03  0.32921773587E+03  0.47000000000E+01 0.  1.
          6    1    1    2  502    0  0.26500203321E+03  0.15106340682E+02  0.30965406194E+02  0.31780046494E+03  0.17200000000E+03 0. -1.
         -6    1    1    2    0  502 -0.26500203321E+03 -0.15106340682E+02 -0.51197461381E+02  0.32040514850E+03  0.17200000000E+03 0.  1.
</event>
<event>
 4    1 -0.3240665E-004  0.2369814E+03  0.7818608E-02  0.1121820E+00
         -5   -1    0    0    0  501 -0.00000000000E+00  0.00000000000E+00  0.12605536907E+04  0.12605624527E+04  0.47000000000E+01 0.  1.
          5   -1    0    0  501    0  0.00000000000E+00 -0.00000000000E+00 -0.50728294620E+02  0.50945557952E+02  0.47000000000E+01 0. -1.
          6    1    1    2  502    0 -0.11955149208E+03 -0.11083146064E+03  0.37419957642E+03  0.44292831804E+03  0.17200000000E+03 0. -1.
         -6    1    1    2    0  502  0.11955149208E+03  0.11083146064E+03  0.83562581968E+03  0.86857969263E+03  0.17200000000E+03 0.  1.
</event>
<event>
 4    1 -0.3240665E-004  0.2193082E+03  0.7818608E-02  0.1134400E+00
          5   -1    0    0  501    0  0.00000000000E+00  0.00000000000E+00  0.58304457358E+02  0.58493587236E+02  0.47000000000E+01 0. -1.
         -5   -1    0    0    0  501 -0.00000000000E+00 -0.00000000000E+00 -0.87684168918E+03  0.87685428543E+03  0.47000000000E+01 0.  1.
          6    1    1    2  502    0 -0.13596880102E+03  0.49573782207E+01 -0.52473332126E+03  0.56871886630E+03  0.17200000000E+03 0.  1.
         -6    1    1    2    0  502  0.13596880102E+03 -0.49573782207E+01 -0.29380391056E+03  0.36662900637E+03  0.17200000000E+03 0. -1.
</event>
<event>
 4    1 -0.3240665E-004  0.3088989E+03  0.7818608E-02  0.1080875E+00
         -5   -1    0    0    0  501 -0.00000000000E+00  0.00000000000E+00  0.35333729547E+03  0.35336855317E+03  0.47000000000E+01 0.  1.
          5   -1    0    0  501    0  0.00000000000E+00 -0.00000000000E+00 -0.40622932632E+03  0.40625651449E+03  0.47000000000E+01 0. -1.
          6    1    1    2  502    0 -0.19796827613E+03 -0.16322713368E+03 -0.24638728476E+03  0.39512685256E+03  0.17200000000E+03 0. -1.
         -6    1    1    2    0  502  0.19796827613E+03  0.16322713368E+03  0.19349525391E+03  0.36449821510E+03  0.17200000000E+03 0.  1.
</event>
<event>
 4    1 -0.3240665E-004  0.2241198E+03  0.7818608E-02  0.1130848E+00
         -5   -1    0    0    0  501 -0.00000000000E+00  0.00000000000E+00  0.12883885349E+04  0.12883971076E+04  0.47000000000E+01 0.  1.
          5   -1    0    0  501    0  0.00000000000E+00 -0.00000000000E+00 -0.38910248674E+02  0.39193079132E+02  0.47000000000E+01 0. -1.
          6    1    1    2  502    0  0.14327686377E+03 -0.10835287739E+02  0.59585821467E+03  0.63661344248E+03  0.17200000000E+03 0. -1.
         -6    1    1    2    0  502 -0.14327686377E+03  0.10835287739E+02  0.65362007153E+03  0.69097674423E+03  0.17200000000E+03 0.  1.
</event>
<event>
 4    1 -0.3240665E-004  0.1786103E+03  0.7818608E-02  0.1169155E+00
          5   -1    0    0  501    0  0.00000000000E+00  0.00000000000E+00  0.27537843602E+03  0.27541854154E+03  0.47000000000E+01 0. -1.
         -5   -1    0    0    0  501 -0.00000000000E+00 -0.00000000000E+00 -0.12435576757E+03  0.12444455363E+03  0.47000000000E+01 0.  1.
          6    1    1    2  502    0  0.44427091747E+02 -0.18543600294E+02  0.22945276336E+02  0.18007808667E+03  0.17200000000E+03 0.  1.
         -6    1    1    2    0  502 -0.44427091747E+02  0.18543600294E+02  0.12807739211E+03  0.21978500851E+03  0.17200000000E+03 0. -1.
</event>
<event>
 4    1 -0.3240665E-004  0.1977591E+03  0.7818608E-02  0.1151644E+00
          5   -1    0    0  501    0  0.00000000000E+00  0.00000000000E+00  0.37652125770E+03  0.37655059089E+03  0.47000000000E+01 0. -1.
         -5   -1    0    0    0  501 -0.00000000000E+00 -0.00000000000E+00 -0.10574651374E+03  0.10585091009E+03  0.47000000000E+01 0.  1.
          6    1    1    2  502    0 -0.92623160806E+02 -0.30750741138E+02  0.10253128647E+03  0.22275844025E+03  0.17200000000E+03 0. -1.
         -6    1    1    2    0  502  0.92623160806E+02  0.30750741138E+02  0.16824345749E+03  0.25964306073E+03  0.17200000000E+03 0.  1.
</event>
<event>
 4    1 -0.3240665E-004  0.2612732E+03  0.7818608E-02  0.1106381E+00
          5   -1    0    0  501    0  0.00000000000E+00  0.00000000000E+00  0.52806156055E+03  0.52808247625E+03  0.47000000000E+01 0. -1.
         -5   -1    0    0    0  501 -0.00000000000E+00 -0.00000000000E+00 -0.14038652094E+03  0.14046517455E+03  0.47000000000E+01 0.  1.
          6    1    1    2  502    0  0.12422842494E+03  0.15246956098E+03  0.28813757582E+03  0.38895620729E+03  0.17200000000E+03 0. -1.
         -6    1    1    2    0  502 -0.12422842494E+03 -0.15246956098E+03  0.99537463787E+02  0.27959144352E+03  0.17200000000E+03 0.  1.
</event>
<event>
 4    1 -0.3240665E-004  0.1846175E+03  0.7818608E-02  0.1163408E+00
          5   -1    0    0  501    0  0.00000000000E+00  0.00000000000E+00  0.12013392152E+03  0.12022582542E+03  0.47000000000E+01 0. -1.
         -5   -1    0    0    0  501 -0.00000000000E+00 -0.00000000000E+00 -0.36944667595E+03  0.36947657080E+03  0.47000000000E+01 0.  1.
          6    1    1    2  502    0 -0.64005957294E+02  0.20071524336E+02 -0.65747145919E+01  0.18473455424E+03  0.17200000000E+03 0. -1.
         -6    1    1    2    0  502  0.64005957294E+02 -0.20071524336E+02 -0.24273803985E+03  0.30496784199E+03  0.17200000000E+03 0.  1.
</event>
<event>
 4    1 -0.3240665E-004  0.3059718E+03  0.7818608E-02  0.1082293E+00
          5   -1    0    0  501    0  0.00000000000E+00  0.00000000000E+00  0.73587703018E+03  0.73589203933E+03  0.47000000000E+01 0. -1.
         -5   -1    0    0    0  501 -0.00000000000E+00 -0.00000000000E+00 -0.19198564413E+03  0.19204316585E+03  0.47000000000E+01 0.  1.
          6    1    1    2  502    0 -0.42781468742E+02  0.24940825234E+03  0.54148685930E+03  0.62195397675E+03  0.17200000000E+03 0. -1.
         -6    1    1    2    0  502  0.42781468742E+02 -0.24940825234E+03  0.24045267469E+01  0.30598122843E+03  0.17200000000E+03 0.  1.
</event>
<event>
 4    1 -0.3240665E-004  0.3184051E+03  0.7818608E-02  0.1076386E+00
          5   -1    0    0  501    0  0.00000000000E+00  0.00000000000E+00  0.64780281656E+03  0.64781986627E+03  0.47000000000E+01 0. -1.
         -5   -1    0    0    0  501 -0.00000000000E+00 -0.00000000000E+00 -0.23764843444E+03  0.23769490611E+03  0.47000000000E+01 0.  1.
          6    1    1    2  502    0  0.26773889737E+03  0.10662710135E+02  0.46384611493E+03  0.56261445848E+03  0.17200000000E+03 0. -1.
         -6    1    1    2    0  502 -0.26773889737E+03 -0.10662710135E+02 -0.53691732814E+02  0.32290031391E+03  0.17200000000E+03 0.  1.
</event>
<event>
 4    1 -0.3240665E-004  0.1997967E+03  0.7818608E-02  0.1149911E+00
         -5   -1    0    0    0  501 -0.00000000000E+00  0.00000000000E+00  0.10775385784E+03  0.10785631126E+03  0.47000000000E+01 0.  1.
          5   -1    0    0  501    0  0.00000000000E+00 -0.00000000000E+00 -0.45358558153E+03  0.45360993130E+03  0.47000000000E+01 0. -1.
          6    1    1    2  502    0  0.55254873898E+02 -0.85332474914E+02 -0.29328876696E+03  0.35487608145E+03  0.17200000000E+03 0. -1.
         -6    1    1    2    0  502 -0.55254873898E+02  0.85332474914E+02 -0.52542956733E+02  0.20659016111E+03  0.17200000000E+03 0.  1.
</event>
<event>
 4    1 -0.3240665E-004  0.2012812E+03  0.7818608E-02  0.1148663E+00
         -5   -1    0    0    0  501 -0.00000000000E+00  0.00000000000E+00  0.10628275097E+04  0.10628379017E+04  0.47000000000E+01 0.  1.
          5   -1    0    0  501    0  0.00000000000E+00 -0.00000000000E+00 -0.38960882590E+02  0.39243348127E+02  0.47000000000E+01 0. -1.
          6    1    1    2  502    0 -0.89514353478E+02 -0.54011942470E+02  0.42410922564E+03  0.46944940588E+03  0.17200000000E+03 0. -1.
         -6    1    1    2    0  502  0.89514353478E+02  0.54011942470E+02  0.59975740145E+03  0.63263184397E+03  0.17200000000E+03 0.  1.
</event>
<event>
 4    1 -0.3240665E-004  0.2249172E+03  0.7818608E-02  0.1130269E+00
         -5   -1    0    0    0  501 -0.00000000000E+00  0.00000000000E+00  0.13063066522E+03  0.13071518923E+03  0.47000000000E+01 0.  1.
          5   -1    0    0  501    0  0.00000000000E+00 -0.00000000000E+00 -0.46044488133E+03  0.46046886838E+03  0.47000000000E+01 0. -1.
          6    1    1    2  502    0  0.42429692266E+02  0.13857654952E+03 -0.28292088305E+03  0.36143044272E+03  0.17200000000E+03 0. -1.
         -6    1    1    2    0  502 -0.42429692266E+02 -0.13857654952E+03 -0.46893333068E+02  0.22975361488E+03  0.17200000000E+03 0.  1.
</event>
<event>
 4    1 -0.3240665E-004  0.2330618E+03  0.7818608E-02  0.1124503E+00
         -5   -1    0    0    0  501 -0.00000000000E+00  0.00000000000E+00  0.49580753099E+03  0.49582980728E+03  0.47000000000E+01 0.  1.
          5   -1    0    0  501    0  0.00000000000E+00 -0.00000000000E+00 -0.13347118220E+03  0.13355390851E+03  0.47000000000E+01 0. -1.
          6    1    1    2  502    0  0.12622731158E+03 -0.93810878303E+02  0.47803617060E+02  0.23791385181E+03  0.17200000000E+03 0. -1.
         -6    1    1    2    0  502 -0.12622731158E+03  0.93810878303E+02  0.31453273173E+03  0.39146986398E+03  0.17200000000E+03 0.  1.
</event>
<event>
 4    1 -0.3240665E-004  0.1884386E+03  0.7818608E-02  0.1159877E+00
          5   -1    0    0  501    0  0.00000000000E+00  0.00000000000E+00  0.12759953498E+03  0.12768606552E+03  0.47000000000E+01 0. -1.
         -5   -1    0    0    0  501 -0.00000000000E+00 -0.00000000000E+00 -0.31085896574E+03  0.31089449429E+03  0.47000000000E+01 0.  1.
          6    1    1    2  502    0  0.45076707267E+02 -0.62395555596E+02 -0.20440177484E+02  0.18954396786E+03  0.17200000000E+03 0. -1.
         -6    1    1    2    0  502 -0.45076707267E+02  0.62395555596E+02 -0.16281925327E+03  0.24903659196E+03  0.17200000000E+03 0.  1.
</event>
<event>
 4    1 -0.3240665E-004  0.1889678E+03  0.7818608E-02  0.1159396E+00
          5   -1    0    0  501    0  0.00000000000E+00  0.00000000000E+00  0.31991952684E+03  0.31995404928E+03  0.47000000000E+01 0. -1.
         -5   -1    0    0    0  501 -0.00000000000E+00 -0.00000000000E+00 -0.11688523642E+03  0.11697969266E+03  0.47000000000E+01 0.  1.
          6    1    1    2  502    0  0.77703888901E+02  0.93242634152E+01  0.54773053605E+02  0.19674583513E+03  0.17200000000E+03 0. -1.
         -6    1    1    2    0  502 -0.77703888901E+02 -0.93242634152E+01  0.14826123681E+03  0.24018790681E+03  0.17200000000E+03 0.  1.
</event>
<event>
 4    1 -0.3240665E-004  0.4010582E+03  0.7818608E-02  0.1043414E+00
         -5   -1    0    0    0  501 -0.00000000000E+00  0.00000000000E+00  0.37626266806E+03  0.37629202140E+03  0.47000000000E+01 0.  1.
          5   -1    0    0  501    0  0.00000000000E+00 -0.00000000000E+00 -0.73613754723E+03  0.73615255106E+03  0.47000000000E+01 0. -1.
          6    1    1    2  502    0  0.35771611472E+03 -0.57470656610E+02 -0.54012495771E+03  0.67274264399E+03  0.17200000000E+03 0. -1.
         -6    1    1    2    0  502 -0.35771611472E+03  0.57470656610E+02  0.18025007854E+03  0.43970192848E+03  0.17200000000E+03 0.  1.
</event>
<event>
 4    1 -0.3240665E-004  0.2836493E+03  0.7818608E-02  0.1093712E+00
          5   -1    0    0  501    0  0.00000000000E+00  0.00000000000E+00  0.20551886365E+03  0.20557259865E+03  0.47000000000E+01 0. -1.
         -5   -1    0    0    0  501 -0.00000000000E+00 -0.00000000000E+00 -0.40029863137E+03  0.40032622232E+03  0.47000000000E+01 0.  1.
          6    1    1    2  502    0 -0.84543720001E+02 -0.20910588015E+03 -0.52131406163E+02  0.28840005758E+03  0.17200000000E+03 0. -1.
         -6    1    1    2    0  502  0.84543720001E+02  0.20910588015E+03 -0.14264836156E+03  0.31749876340E+03  0.17200000000E+03 0.  1.
</event>
<event>
 4    1 -0.3240665E-004  0.3290680E+03  0.7818608E-02  0.1071550E+00
          5   -1    0    0  501    0  0.00000000000E+00  0.00000000000E+00  0.75662818718E+03  0.75664278470E+03  0.47000000000E+01 0. -1.
         -5   -1    0    0    0  501 -0.00000000000E+00 -0.00000000000E+00 -0.25486550516E+03  0.25490883806E+03  0.47000000000E+01 0.  1.
          6    1    1    2  502    0  0.26795422968E+03  0.83079971467E+02  0.58582147058E+03  0.67191706799E+03  0.17200000000E+03 0. -1.
         -6    1    1    2    0  502 -0.26795422968E+03 -0.83079971467E+02 -0.84058788564E+02  0.33963455477E+03  0.17200000000E+03 0.  1.
</event>
<event>
 4    1 -0.3240665E-004  0.3342974E+03  0.7818608E-02  0.1069251E+00
         -5   -1    0    0    0  501 -0.00000000000E+00  0.00000000000E+00  0.11279542433E+04  0.11279640354E+04  0.47000000000E+01 0.  1.
          5   -1    0    0  501    0  0.00000000000E+00 -0.00000000000E+00 -0.10189360321E+03  0.10200194300E+03  0.47000000000E+01 0. -1.
          6    1    1    2  502    0  0.22792562823E+03  0.17384089533E+03  0.40965992673E+03  0.52874947231E+03  0.17200000000E+03 0.  1.
         -6    1    1    2    0  502 -0.22792562823E+03 -0.17384089533E+03  0.61640071340E+03  0.70121650606E+03  0.17200000000E+03 0.  1.
</event>
<event>
 4    1 -0.3240665E-004  0.3495410E+03  0.7818608E-02  0.1062804E+00
         -5   -1    0    0    0  501 -0.00000000000E+00  0.00000000000E+00  0.51588255220E+03  0.51590396166E+03  0.47000000000E+01 0.  1.
          5   -1    0    0  501    0  0.00000000000E+00 -0.00000000000E+00 -0.42182237029E+03  0.42184855348E+03  0.47000000000E+01 0. -1.
          6    1    1    2  502    0 -0.30217071824E+03 -0.35885432635E+02 -0.26349256508E+03  0.43772964155E+03  0.17200000000E+03 0. -1.
         -6    1    1    2    0  502  0.30217071824E+03  0.35885432635E+02  0.35755274699E+03  0.50002287360E+03  0.17200000000E+03 0.  1.
</event>
<event>
 4    1 -0.3240665E-004  0.1851068E+03  0.7818608E-02  0.1162950E+00
          5   -1    0    0  501    0  0.00000000000E+00  0.00000000000E+00  0.17938319366E+03  0.17944475520E+03  0.47000000000E+01 0. -1.
         -5   -1    0    0    0  501 -0.00000000000E+00 -0.00000000000E+00 -0.20139361668E+03  0.20144845206E+03  0.47000000000E+01 0.  1.
          6    1    1    2  502    0  0.78699479473E+01  0.67960135017E+02  0.32475718792E+02  0.18793399997E+03  0.17200000000E+03 0. -1.
         -6    1    1    2    0  502 -0.78699479473E+01 -0.67960135017E+02 -0.54486141805E+02  0.19295920730E+03  0.17200000000E+03 0.  1.
</event>
<event>
 4    1 -0.3240665E-004  0.2525619E+03  0.7818608E-02  0.1111696E+00
          5   -1    0    0  501    0  0.00000000000E+00  0.00000000000E+00  0.95554885509E+02  0.95670403703E+02  0.47000000000E+01 0. -1.
         -5   -1    0    0    0  501 -0.00000000000E+00 -0.00000000000E+00 -0.81345256720E+03  0.81346614501E+03  0.47000000000E+01 0.  1.
          6    1    1    2  502    0  0.13386773105E+03 -0.12760467265E+03 -0.16610097653E+03  0.30228638128E+03  0.17200000000E+03 0. -1.
         -6    1    1    2    0  502 -0.13386773105E+03  0.12760467265E+03 -0.55179670516E+03  0.60685016744E+03  0.17200000000E+03 0.  1.
</event>
<event>
 4    1 -0.3240665E-004  0.2329081E+03  0.7818608E-02  0.1124609E+00
          5   -1    0    0  501    0  0.00000000000E+00  0.00000000000E+00  0.40171251737E+03  0.40174001121E+03  0.47000000000E+01 0. -1.
         -5   -1    0    0    0  501 -0.00000000000E+00 -0.00000000000E+00 -0.14470957092E+03  0.14478587609E+03  0.47000000000E+01 0.  1.
          6    1    1    2  502    0  0.15695915774E+03 -0.51001504281E+01  0.19938884655E+03  0.30659762044E+03  0.17200000000E+03 0.  1.
         -6    1    1    2    0  502 -0.15695915774E+03  0.51001504281E+01  0.57614099896E+02  0.23992826686E+03  0.17200000000E+03 0. -1.
</event>
<event>
 4    1 -0.3240665E-004  0.2411955E+03  0.7818608E-02  0.1118999E+00
         -5   -1    0    0    0  501 -0.00000000000E+00  0.00000000000E+00  0.63175021582E+03  0.63176769876E+03  0.47000000000E+01 0.  1.
          5   -1    0    0  501    0  0.00000000000E+00 -0.00000000000E+00 -0.11916701804E+03  0.11925966706E+03  0.47000000000E+01 0. -1.
          6    1    1    2  502    0 -0.13644919340E+03 -0.99864327930E+02  0.77112941476E+02  0.25322257426E+03  0.17200000000E+03 0. -1.
         -6    1    1    2    0  502  0.13644919340E+03  0.99864327930E+02  0.43547025631E+03  0.49780479156E+03  0.17200000000E+03 0.  1.
</event>
<event>
 4    1 -0.3240665E-004  0.2383534E+03  0.7818608E-02  0.1120895E+00
          5   -1    0    0  501    0  0.00000000000E+00  0.00000000000E+00  0.51629512511E+03  0.51631651747E+03  0.47000000000E+01 0. -1.
         -5   -1    0    0    0  501 -0.00000000000E+00 -0.00000000000E+00 -0.14340028198E+03  0.14347728347E+03  0.47000000000E+01 0.  1.
          6    1    1    2  502    0  0.15139274038E+03  0.65639800852E+02  0.34568348244E+03  0.41989214725E+03  0.17200000000E+03 0.  1.
         -6    1    1    2    0  502 -0.15139274038E+03 -0.65639800852E+02  0.27211360692E+02  0.23990165370E+03  0.17200000000E+03 0.  1.
</event>
<event>
 4    1 -0.3240665E-004  0.2352582E+03  0.7818608E-02  0.1122993E+00
          5   -1    0    0  501    0  0.00000000000E+00  0.00000000000E+00  0.10792985993E+03  0.10803214644E+03  0.47000000000E+01 0. -1.
         -5   -1    0    0    0  501 -0.00000000000E+00 -0.00000000000E+00 -0.59588515826E+03  0.59590369342E+03  0.47000000000E+01 0.  1.
          6    1    1    2  502    0 -0.40908202022E+02 -0.15520611122E+03 -0.11228316519E+03  0.26067974056E+03  0.17200000000E+03 0.  1.
         -6    1    1    2    0  502  0.40908202022E+02  0.15520611122E+03 -0.37567213314E+03  0.44325609931E+03  0.17200000000E+03 0.  1.
</event>
<event>
 4    1 -0.3240665E-004  0.1878264E+03  0.7818608E-02  0.1160436E+00
         -5   -1    0    0    0  501 -0.00000000000E+00  0.00000000000E+00  0.71588366864E+02  0.71742485810E+02  0.47000000000E+01 0.  1.
          5   -1    0    0  501    0  0.00000000000E+00 -0.00000000000E+00 -0.51584015371E+03  0.51586156494E+03  0.47000000000E+01 0. -1.
          6    1    1    2  502    0 -0.16283070960E+02  0.73686055701E+02 -0.28513713639E+03  0.34144100479E+03  0.17200000000E+03 0. -1.
         -6    1    1    2    0  502  0.16283070960E+02 -0.73686055701E+02 -0.15911465046E+03  0.24616304596E+03  0.17200000000E+03 0.  1.
</event>
<event>
 4    1 -0.3240665E-004  0.2091110E+03  0.7818608E-02  0.1142272E+00
          5   -1    0    0  501    0  0.00000000000E+00  0.00000000000E+00  0.10765183524E+03  0.10775438567E+03  0.47000000000E+01 0. -1.
         -5   -1    0    0    0  501 -0.00000000000E+00 -0.00000000000E+00 -0.40789596088E+03  0.40792303797E+03  0.47000000000E+01 0.  1.
          6    1    1    2  502    0  0.33647434186E+02 -0.11406691658E+03 -0.13201352657E+03  0.24729533453E+03  0.17200000000E+03 0.  1.
         -6    1    1    2    0  502 -0.33647434186E+02  0.11406691658E+03 -0.16823059908E+03  0.26838208910E+03  0.17200000000E+03 0. -1.
</event>
<event>
 4    1 -0.3240665E-004  0.1751272E+03  0.7818608E-02  0.1172604E+00
         -5   -1    0    0    0  501 -0.00000000000E+00  0.00000000000E+00  0.32980450594E+03  0.32983799377E+03  0.47000000000E+01 0.  1.
          5   -1    0    0  501    0  0.00000000000E+00 -0.00000000000E+00 -0.95545242204E+02  0.95660772042E+02  0.47000000000E+01 0. -1.
          6    1    1    2  502    0 -0.15379104639E+02  0.29137842669E+02  0.81727585913E+02  0.19325871011E+03  0.17200000000E+03 0. -1.
         -6    1    1    2    0  502  0.15379104639E+02 -0.29137842669E+02  0.15253167782E+03  0.23224005571E+03  0.17200000000E+03 0.  1.
</event>
<event>
 4    1 -0.3240665E-004  0.1895895E+03  0.7818608E-02  0.1158832E+00
         -5   -1    0    0    0  501 -0.00000000000E+00  0.00000000000E+00  0.25547104513E+03  0.25551427534E+03  0.47000000000E+01 0.  1.
          5   -1    0    0  501    0  0.00000000000E+00 -0.00000000000E+00 -0.30031694359E+03  0.30035371915E+03  0.47000000000E+01 0. -1.
          6    1    1    2  502    0 -0.54457135401E+02  0.58263024378E+02 -0.22507452334E+03  0.29428336797E+03  0.17200000000E+03 0. -1.
         -6    1    1    2    0  502  0.54457135401E+02 -0.58263024378E+02  0.18022862488E+03  0.26158462652E+03  0.17200000000E+03 0.  1.
</event>
<event>
 4    1 -0.3240665E-004  0.2605377E+03  0.7818608E-02  0.1106821E+00
         -5   -1    0    0    0  501 -0.00000000000E+00  0.00000000000E+00  0.11070522727E+03  0.11080495181E+03  0.47000000000E+01 0.  1.
          5   -1    0    0  501    0  0.00000000000E+00 -0.00000000000E+00 -0.66393615993E+03  0.66395279536E+03  0.47000000000E+01 0. -1.
          6    1    1    2  502    0 -0.19145667744E+03  0.40499658734E+02 -0.38414034627E+03  0.46415911854E+03  0.17200000000E+03 0. -1.
         -6    1    1    2    0  502  0.19145667744E+03 -0.40499658734E+02 -0.16909058640E+03  0.31059862862E+03  0.17200000000E+03 0.  1.
</event>
<event>
 4    1 -0.3240665E-004  0.1740751E+03  0.7818608E-02  0.1173664E+00
         -5   -1    0    0    0  501 -0.00000000000E+00  0.00000000000E+00  0.60984025723E+03  0.60985836826E+03  0.47000000000E+01 0.  1.
          5   -1    0    0  501    0  0.00000000000E+00 -0.00000000000E+00 -0.49853222958E+02  0.50074283213E+02  0.47000000000E+01 0. -1.
          6    1    1    2  502    0 -0.68754459626E+01  0.25901169298E+02  0.25468895379E+03  0.30849409316E+03  0.17200000000E+03 0. -1.
         -6    1    1    2    0  502  0.68754459626E+01 -0.25901169298E+02  0.30529808048E+03  0.35143855832E+03  0.17200000000E+03 0. -1.
</event>
<event>
 4    1 -0.3240665E-004  0.2453019E+03  0.7818608E-02  0.1116310E+00
         -5   -1    0    0    0  501 -0.00000000000E+00  0.00000000000E+00  0.76206793076E+03  0.76208242408E+03  0.47000000000E+01 0.  1.
          5   -1    0    0  501    0  0.00000000000E+00 -0.00000000000E+00 -0.10408757253E+03  0.10419363107E+03  0.47000000000E+01 0. -1.
          6    1    1    2  502    0 -0.54037197132E+02  0.16634007472E+03  0.11595625186E+03  0.27132801455E+03  0.17200000000E+03 0. -1.
         -6    1    1    2    0  502  0.54037197132E+02 -0.16634007472E+03  0.54202410637E+03  0.59494804060E+03  0.17200000000E+03 0.  1.
</event>
<event>
 4    1 -0.3240665E-004  0.2467464E+03  0.7818608E-02  0.1115378E+00
         -5   -1    0    0    0  501 -0.00000000000E+00  0.00000000000E+00  0.10375695596E+04  0.10375802047E+04  0.47000000000E+01 0.  1.
          5   -1    0    0  501    0  0.00000000000E+00 -0.00000000000E+00 -0.62136264844E+02  0.62313765805E+02  0.47000000000E+01 0. -1.
          6    1    1    2  502    0  0.17647026089E+03 -0.12572074296E+02  0.61918618389E+03  0.66653982653E+03  0.17200000000E+03 0. -1.
         -6    1    1    2    0  502 -0.17647026089E+03  0.12572074296E+02  0.35624711091E+03  0.43335414393E+03  0.17200000000E+03 0.  1.
</event>
<event>
 4    1 -0.3240665E-004  0.2197263E+03  0.7818608E-02  0.1134087E+00
          5   -1    0    0  501    0  0.00000000000E+00  0.00000000000E+00  0.29895948221E+03  0.29899642473E+03  0.47000000000E+01 0. -1.
         -5   -1    0    0    0  501 -0.00000000000E+00 -0.00000000000E+00 -0.16176094851E+03  0.16182921388E+03  0.47000000000E+01 0.  1.
          6    1    1    2  502    0  0.13296310989E+03  0.31881947860E+02  0.57888044018E+02  0.22722383861E+03  0.17200000000E+03 0. -1.
         -6    1    1    2    0  502 -0.13296310989E+03 -0.31881947860E+02  0.79310489676E+02  0.23360180000E+03  0.17200000000E+03 0.  1.
</event>
<event>
 4    1 -0.3240665E-004  0.2464775E+03  0.7818608E-02  0.1115551E+00
          5   -1    0    0  501    0  0.00000000000E+00  0.00000000000E+00  0.34238568386E+03  0.34241794128E+03  0.47000000000E+01 0. -1.
         -5   -1    0    0    0  501 -0.00000000000E+00 -0.00000000000E+00 -0.20790630120E+03  0.20795941931E+03  0.47000000000E+01 0.  1.
          6    1    1    2  502    0 -0.11919471110E+03 -0.13022971617E+03  0.17269293712E+03  0.30095516055E+03  0.17200000000E+03 0. -1.
         -6    1    1    2    0  502  0.11919471110E+03  0.13022971617E+03 -0.38213554459E+02  0.24942220004E+03  0.17200000000E+03 0.  1.
</event>
<event>
 4    1 -0.3240665E-004  0.2589159E+03  0.7818608E-02  0.1107796E+00
         -5   -1    0    0    0  501 -0.00000000000E+00  0.00000000000E+00  0.75621880204E+03  0.75623340746E+03  0.47000000000E+01 0.  1.
          5   -1    0    0  501    0  0.00000000000E+00 -0.00000000000E+00 -0.21005391784E+03  0.21010649299E+03  0.47000000000E+01 0. -1.
          6    1    1    2  502    0  0.16152019438E+03 -0.10660508626E+03 -0.94273041174E+02  0.27554459512E+03  0.17200000000E+03 0. -1.
         -6    1    1    2    0  502 -0.16152019438E+03  0.10660508626E+03  0.64043792538E+03  0.69079530533E+03  0.17200000000E+03 0.  1.
</event>
<event>
 4    1 -0.3240665E-004  0.2176489E+03  0.7818608E-02  0.1135648E+00
          5   -1    0    0  501    0  0.00000000000E+00  0.00000000000E+00  0.18118660220E+03  0.18124755121E+03  0.47000000000E+01 0. -1.
         -5   -1    0    0    0  501 -0.00000000000E+00 -0.00000000000E+00 -0.26141094937E+03  0.26145319744E+03  0.47000000000E+01 0.  1.
          6    1    1    2  502    0 -0.71508228490E+02  0.11257721103E+03 -0.36051630439E+02  0.22061453996E+03  0.17200000000E+03 0. -1.
         -6    1    1    2    0  502  0.71508228490E+02 -0.11257721103E+03 -0.44172716730E+02  0.22208620868E+03  0.17200000000E+03 0.  1.
</event>
<event>
 4    1 -0.3240665E-004  0.2169632E+03  0.7818608E-02  0.1136168E+00
         -5   -1    0    0    0  501 -0.00000000000E+00  0.00000000000E+00  0.11750513382E+04  0.11750607377E+04  0.47000000000E+01 0.  1.
          5   -1    0    0  501    0  0.00000000000E+00 -0.00000000000E+00 -0.49029386274E+02  0.49254144175E+02  0.47000000000E+01 0. -1.
          6    1    1    2  502    0  0.12211917676E+03 -0.50753888978E+02  0.29974193878E+03  0.37002470247E+03  0.17200000000E+03 0. -1.
         -6    1    1    2    0  502 -0.12211917676E+03  0.50753888978E+02  0.82628001313E+03  0.85429017943E+03  0.17200000000E+03 0.  1.
</event>
<event>
 4    1 -0.3240665E-004  0.1747990E+03  0.7818608E-02  0.1172934E+00
          5   -1    0    0  501    0  0.00000000000E+00  0.00000000000E+00  0.12850366037E+03  0.12858958251E+03  0.47000000000E+01 0. -1.
         -5   -1    0    0    0  501 -0.00000000000E+00 -0.00000000000E+00 -0.24348054796E+03  0.24352590670E+03  0.47000000000E+01 0.  1.
          6    1    1    2  502    0  0.29964625895E+02  0.85335733389E+01 -0.86434116378E+02  0.19500142859E+03  0.17200000000E+03 0.  1.
         -6    1    1    2    0  502 -0.29964625895E+02 -0.85335733389E+01 -0.28542771208E+02  0.17711406061E+03  0.17200000000E+03 0. -1.
</event>
<event>
 4    1 -0.3240665E-004  0.2446871E+03  0.7818608E-02  0.1116709E+00
         -5   -1    0    0    0  501 -0.00000000000E+00  0.00000000000E+00  0.53893541062E+03  0.53895590434E+03  0.47000000000E+01 0.  1.
          5   -1    0    0  501    0  0.00000000000E+00 -0.00000000000E+00 -0.13161063306E+03  0.13169452811E+03  0.47000000000E+01 0. -1.
          6    1    1    2  502    0  0.84691253898E+02  0.15203674659E+03  0.71085803146E+02  0.25480379159E+03  0.17200000000E+03 0. -1.
         -6    1    1    2    0  502 -0.84691253898E+02 -0.15203674659E+03  0.33623897441E+03  0.41584664086E+03  0.17200000000E+03 0.  1.
</event>
<event>
 4    1 -0.3240665E-004  0.3102398E+03  0.7818608E-02  0.1080231E+00
         -5   -1    0    0    0  501 -0.00000000000E+00  0.00000000000E+00  0.73628332119E+02  0.73778189803E+02  0.47000000000E+01 0.  1.
          5   -1    0    0  501    0  0.00000000000E+00 -0.00000000000E+00 -0.13383368659E+04  0.13383451186E+04  0.47000000000E+01 0. -1.
          6    1    1    2  502    0 -0.25232807155E+03 -0.54729192183E+02 -0.52217134646E+03  0.60738098030E+03  0.17200000000E+03 0. -1.
         -6    1    1    2    0  502  0.25232807155E+03  0.54729192183E+02 -0.74253718730E+03  0.80474232813E+03  0.17200000000E+03 0. -1.
</event>
<event>
 4    1 -0.3240665E-004  0.2320160E+03  0.7818608E-02  0.1125229E+00
          5   -1    0    0  501    0  0.00000000000E+00  0.00000000000E+00  0.39428221694E+03  0.39431022887E+03  0.47000000000E+01 0. -1.
         -5   -1    0    0    0  501 -0.00000000000E+00 -0.00000000000E+00 -0.17443270377E+03  0.17449601183E+03  0.47000000000E+01 0.  1.
          6    1    1    2  502    0  0.54141942910E+02  0.14600026998E+03  0.24258763328E+03  0.33567869852E+03  0.17200000000E+03 0. -1.
         -6    1    1    2    0  502 -0.54141942910E+02 -0.14600026998E+03 -0.22738120114E+02  0.23312754218E+03  0.17200000000E+03 0.  1.
</event>
<event>
 4    1 -0.3240665E-004  0.1949928E+03  0.7818608E-02  0.1154034E+00
          5   -1    0    0  501    0  0.00000000000E+00  0.00000000000E+00  0.35515907062E+03  0.35519016800E+03  0.47000000000E+01 0. -1.
         -5   -1    0    0    0  501 -0.00000000000E+00 -0.00000000000E+00 -0.15001944290E+03  0.15009304863E+03  0.47000000000E+01 0.  1.
          6    1    1    2  502    0  0.54459755295E+02 -0.73975118553E+02  0.23785338548E+03  0.30756530379E+03  0.17200000000E+03 0. -1.
         -6    1    1    2    0  502 -0.54459755295E+02  0.73975118553E+02 -0.32713757761E+02  0.19771791284E+03  0.17200000000E+03 0.  1.
</event>
<event>
 4    1 -0.3240665E-004  0.3589863E+03  0.7818608E-02  0.1058986E+00
         -5   -1    0    0    0  501 -0.00000000000E+00  0.00000000000E+00  0.40532103223E+03  0.40534828132E+03  0.47000000000E+01 0.  1.
          5   -1    0    0  501    0  0.00000000000E+00 -0.00000000000E+00 -0.50197958813E+03  0.50200159054E+03  0.47000000000E+01 0. -1.
          6    1    1    2  502    0  0.19863541713E+03 -0.24460406292E+03 -0.32304825134E+03  0.48294031643E+03  0.17200000000E+03 0. -1.
         -6    1    1    2    0  502 -0.19863541713E+03  0.24460406292E+03  0.22638969544E+03  0.42440955543E+03  0.17200000000E+03 0.  1.
</event>
<event>
 4    1 -0.3240665E-004  0.2106602E+03  0.7818608E-02  0.1141044E+00
          5   -1    0    0  501    0  0.00000000000E+00  0.00000000000E+00  0.61657373617E+03  0.61659164942E+03  0.47000000000E+01 0. -1.
         -5   -1    0    0    0  501 -0.00000000000E+00 -0.00000000000E+00 -0.72186712850E+02  0.72339557035E+02  0.47000000000E+01 0.  1.
          6    1    1    2  502    0 -0.41394460078E+02 -0.11436870705E+03  0.29465767117E+03  0.36221657286E+03  0.17200000000E+03 0. -1.
         -6    1    1    2    0  502  0.41394460078E+02  0.11436870705E+03  0.24972935215E+03  0.32671463359E+03  0.17200000000E+03 0.  1.
</event>
<event>
 4    1 -0.3240665E-004  0.2308836E+03  0.7818608E-02  0.1126019E+00
         -5   -1    0    0    0  501 -0.00000000000E+00  0.00000000000E+00  0.11722073431E+03  0.11731492042E+03  0.47000000000E+01 0.  1.
          5   -1    0    0  501    0  0.00000000000E+00 -0.00000000000E+00 -0.12532247645E+04  0.12532335777E+04  0.47000000000E+01 0. -1.
          6    1    1    2  502    0 -0.89754832441E+02  0.12516919637E+03 -0.11150649486E+04  0.11387173035E+04  0.17200000000E+03 0. -1.
         -6    1    1    2    0  502  0.89754832441E+02 -0.12516919637E+03 -0.20939081548E+02  0.23183119463E+03  0.17200000000E+03 0.  1.
</event>
<event>
 4    1 -0.3240665E-004  0.2116050E+03  0.7818608E-02  0.1140301E+00
          5   -1    0    0  501    0  0.00000000000E+00  0.00000000000E+00  0.30845217408E+02  0.31201240952E+02  0.47000000000E+01 0. -1.
         -5   -1    0    0    0  501 -0.00000000000E+00 -0.00000000000E+00 -0.19622701776E+04  0.19622758063E+04  0.47000000000E+01 0.  1.
          6    1    1    2  502    0  0.11579447655E+03 -0.42241218936E+02 -0.45300232998E+03  0.49998779219E+03  0.17200000000E+03 0. -1.
         -6    1    1    2    0  502 -0.11579447655E+03  0.42241218936E+02 -0.14784226303E+04  0.14934892551E+04  0.17200000000E+03 0.  1.
</event>
<event>
 4    1 -0.3240665E-004  0.1767257E+03  0.7818608E-02  0.1171010E+00
          5   -1    0    0  501    0  0.00000000000E+00  0.00000000000E+00  0.12083184759E+03  0.12092322107E+03  0.47000000000E+01 0. -1.
         -5   -1    0    0    0  501 -0.00000000000E+00 -0.00000000000E+00 -0.28683219292E+03  0.28687069717E+03  0.47000000000E+01 0.  1.
          6    1    1    2  502    0 -0.40510927397E+02 -0.26166665548E+01 -0.14733349554E+03  0.23008507359E+03  0.17200000000E+03 0.  1.
         -6    1    1    2    0  502  0.40510927397E+02  0.26166665548E+01 -0.18666849784E+02  0.17770884464E+03  0.17200000000E+03 0. -1.
</event>
<event>
 4    1 -0.3240665E-004  0.2117932E+03  0.7818608E-02  0.1140154E+00
          5   -1    0    0  501    0  0.00000000000E+00  0.00000000000E+00  0.60393576367E+03  0.60395405176E+03  0.47000000000E+01 0. -1.
         -5   -1    0    0    0  501 -0.00000000000E+00 -0.00000000000E+00 -0.77722022087E+02  0.77864001421E+02  0.47000000000E+01 0.  1.
          6    1    1    2  502    0 -0.36432777206E+02 -0.11808905786E+03  0.33581081303E+03  0.39702049694E+03  0.17200000000E+03 0. -1.
         -6    1    1    2    0  502  0.36432777206E+02  0.11808905786E+03  0.19040292856E+03  0.28479755625E+03  0.17200000000E+03 0.  1.
</event>
<event>
 4    1 -0.3240665E-004  0.2223951E+03  0.7818608E-02  0.1132110E+00
          5   -1    0    0  501    0  0.00000000000E+00  0.00000000000E+00  0.17517014743E+03  0.17523318906E+03  0.47000000000E+01 0. -1.
         -5   -1    0    0    0  501 -0.00000000000E+00 -0.00000000000E+00 -0.55934910733E+03  0.55936885314E+03  0.47000000000E+01 0.  1.
          6    1    1    2  502    0 -0.13742894834E+03 -0.31446109444E+02 -0.45060536739E+03  0.50249852812E+03  0.17200000000E+03 0. -1.
         -6    1    1    2    0  502  0.13742894834E+03  0.31446109444E+02  0.66426407489E+02  0.23210351409E+03  0.17200000000E+03 0.  1.
</event>
<event>
 4    1 -0.3240665E-004  0.1970337E+03  0.7818608E-02  0.1152266E+00
          5   -1    0    0  501    0  0.00000000000E+00  0.00000000000E+00  0.12593802547E+03  0.12602569682E+03  0.47000000000E+01 0. -1.
         -5   -1    0    0    0  501 -0.00000000000E+00 -0.00000000000E+00 -0.51054362484E+03  0.51056525818E+03  0.47000000000E+01 0.  1.
          6    1    1    2  502    0 -0.95801584431E+02 -0.77673233480E+01  0.81296355505E+01  0.19720133333E+03  0.17200000000E+03 0. -1.
         -6    1    1    2    0  502  0.95801584431E+02  0.77673233480E+01 -0.39273523492E+03  0.43938962168E+03  0.17200000000E+03 0.  1.
</event>
<event>
 4    1 -0.3240665E-004  0.1733692E+03  0.7818608E-02  0.1174379E+00
          5   -1    0    0  501    0  0.00000000000E+00  0.00000000000E+00  0.25103725772E+04  0.25103769770E+04  0.47000000000E+01 0. -1.
         -5   -1    0    0    0  501 -0.00000000000E+00 -0.00000000000E+00 -0.11981733314E+02  0.12870584027E+02  0.47000000000E+01 0.  1.
          6    1    1    2  502    0 -0.72494501574E+01 -0.20501869964E+02  0.14912297643E+04  0.15012738229E+04  0.17200000000E+03 0. -1.
         -6    1    1    2    0  502  0.72494501574E+01  0.20501869964E+02  0.10071610796E+04  0.10219737381E+04  0.17200000000E+03 0.  1.
</event>
<event>
 4    1 -0.3240665E-004  0.2098351E+03  0.7818608E-02  0.1141697E+00
         -5   -1    0    0    0  501 -0.00000000000E+00  0.00000000000E+00  0.26504793793E+03  0.26508960636E+03  0.47000000000E+01 0.  1.
          5   -1    0    0  501    0  0.00000000000E+00 -0.00000000000E+00 -0.17506487368E+03  0.17512795322E+03  0.47000000000E+01 0. -1.
          6    1    1    2  502    0 -0.11444914898E+03  0.36717197406E+02 -0.49806075257E+01  0.20989417986E+03  0.17200000000E+03 0. -1.
         -6    1    1    2    0  502  0.11444914898E+03 -0.36717197406E+02  0.94963671767E+02  0.23032337971E+03  0.17200000000E+03 0.  1.
</event>
<event>
 4    1 -0.3240665E-004  0.1766853E+03  0.7818608E-02  0.1171050E+00
          5   -1    0    0  501    0  0.00000000000E+00  0.00000000000E+00  0.40332590246E+02  0.40605514847E+02  0.47000000000E+01 0. -1.
         -5   -1    0    0    0  501 -0.00000000000E+00 -0.00000000000E+00 -0.80931726458E+03  0.80933091177E+03  0.47000000000E+01 0.  1.
          6    1    1    2  502    0  0.36888289872E+02 -0.16520837341E+02 -0.47680407557E+03  0.50848776827E+03  0.17200000000E+03 0.  1.
         -6    1    1    2    0  502 -0.36888289872E+02  0.16520837341E+02 -0.29218059876E+03  0.34144865835E+03  0.17200000000E+03 0. -1.
</event>
<event>
 4    1 -0.3240665E-004  0.2371934E+03  0.7818608E-02  0.1121677E+00
         -5   -1    0    0    0  501 -0.00000000000E+00  0.00000000000E+00  0.16877781751E+03  0.16884324589E+03  0.47000000000E+01 0.  1.
          5   -1    0    0  501    0  0.00000000000E+00 -0.00000000000E+00 -0.46107099681E+03  0.46109495129E+03  0.47000000000E+01 0. -1.
          6    1    1    2  502    0 -0.11186422037E+03 -0.11900889885E+03 -0.31200357404E+03  0.39192722796E+03  0.17200000000E+03 0. -1.
         -6    1    1    2    0  502  0.11186422037E+03  0.11900889885E+03  0.19710394735E+02  0.23801096921E+03  0.17200000000E+03 0.  1.
</event>
<event>
 4    1 -0.3240665E-004  0.3133864E+03  0.7818608E-02  0.1078734E+00
          5   -1    0    0  501    0  0.00000000000E+00  0.00000000000E+00  0.17451223435E+04  0.17451286726E+04  0.47000000000E+01 0. -1.
         -5   -1    0    0    0  501 -0.00000000000E+00 -0.00000000000E+00 -0.71154581049E+02  0.71309637528E+02  0.47000000000E+01 0.  1.
          6    1    1    2  502    0 -0.22744703253E+03 -0.12998036674E+03  0.12531962476E+04  0.12917863149E+04  0.17200000000E+03 0. -1.
         -6    1    1    2    0  502  0.22744703253E+03  0.12998036674E+03  0.42077151481E+03  0.52465199516E+03  0.17200000000E+03 0.  1.
</event>
<event>
 4    1 -0.3240665E-004  0.2223834E+03  0.7818608E-02  0.1132118E+00
          5   -1    0    0  501    0  0.00000000000E+00  0.00000000000E+00  0.18674733428E+03  0.18680646900E+03  0.47000000000E+01 0. -1.
         -5   -1    0    0    0  501 -0.00000000000E+00 -0.00000000000E+00 -0.40413204890E+03  0.40415937815E+03  0.47000000000E+01 0.  1.
          6    1    1    2  502    0  0.14003144618E+03 -0.16173830055E+02  0.64849790047E+02  0.23164605321E+03  0.17200000000E+03 0. -1.
         -6    1    1    2    0  502 -0.14003144618E+03  0.16173830055E+02 -0.28223450467E+03  0.35931979395E+03  0.17200000000E+03 0.  1.
</event>
<event>
 4    1 -0.3240665E-004  0.2681469E+03  0.7818608E-02  0.1102345E+00
         -5   -1    0    0    0  501 -0.00000000000E+00  0.00000000000E+00  0.25528116710E+03  0.25532442946E+03  0.47000000000E+01 0.  1.
          5   -1    0    0  501    0  0.00000000000E+00 -0.00000000000E+00 -0.48593891263E+03  0.48596164130E+03  0.47000000000E+01 0. -1.
          6    1    1    2  502    0 -0.16270416102E+03 -0.12588129506E+03 -0.35567367828E+03  0.44542845652E+03  0.17200000000E+03 0. -1.
         -6    1    1    2    0  502  0.16270416102E+03  0.12588129506E+03  0.12501593275E+03  0.29585761423E+03  0.17200000000E+03 0.  1.
</event>
<event>
 4    1 -0.3240665E-004  0.1858807E+03  0.7818608E-02  0.1162230E+00
         -5   -1    0    0    0  501 -0.00000000000E+00  0.00000000000E+00  0.17756268807E+03  0.17762488057E+03  0.47000000000E+01 0.  1.
          5   -1    0    0  501    0  0.00000000000E+00 -0.00000000000E+00 -0.19450869900E+03  0.19456547480E+03  0.47000000000E+01 0. -1.
          6    1    1    2  502    0 -0.45299007758E+02  0.53996729052E+02 -0.56458065935E+01  0.18596645392E+03  0.17200000000E+03 0.  1.
         -6    1    1    2    0  502  0.45299007758E+02 -0.53996729052E+02 -0.11300204328E+02  0.18622390145E+03  0.17200000000E+03 0.  1.
</event>
<event>
 4    1 -0.3240665E-004  0.2862155E+03  0.7818608E-02  0.1092342E+00
         -5   -1    0    0    0  501 -0.00000000000E+00  0.00000000000E+00  0.18804005975E+03  0.18809878806E+03  0.47000000000E+01 0.  1.
          5   -1    0    0  501    0  0.00000000000E+00 -0.00000000000E+00 -0.44440261157E+03  0.44442746446E+03  0.47000000000E+01 0. -1.
          6    1    1    2  502    0 -0.15249523077E+02 -0.22826036190E+03 -0.17291761729E+03  0.33439474150E+03  0.17200000000E+03 0. -1.
         -6    1    1    2    0  502  0.15249523077E+02  0.22826036190E+03 -0.83444934531E+02  0.29813151103E+03  0.17200000000E+03 0.  1.
</event>
<event>
 4    1 -0.3240665E-004  0.2416046E+03  0.7818608E-02  0.1118729E+00
         -5   -1    0    0    0  501 -0.00000000000E+00  0.00000000000E+00  0.41573521074E+03  0.41576177728E+03  0.47000000000E+01 0.  1.
          5   -1    0    0  501    0  0.00000000000E+00 -0.00000000000E+00 -0.15426381078E+03  0.15433539230E+03  0.47000000000E+01 0. -1.
          6    1    1    2  502    0  0.32916623786E+02 -0.16644895699E+03  0.45120226911E+02  0.24578159874E+03  0.17200000000E+03 0. -1.
         -6    1    1    2    0  502 -0.32916623786E+02  0.16644895699E+03  0.21635117305E+03  0.32431557083E+03  0.17200000000E+03 0.  1.
</event>
<event>
 4    1 -0.3240665E-004  0.3161547E+03  0.7818608E-02  0.1077433E+00
          5   -1    0    0  501    0  0.00000000000E+00  0.00000000000E+00  0.15493220397E+03  0.15500347682E+03  0.47000000000E+01 0. -1.
         -5   -1    0    0    0  501 -0.00000000000E+00 -0.00000000000E+00 -0.11600208779E+04  0.11600303993E+04  0.47000000000E+01 0.  1.
          6    1    1    2  502    0 -0.20448949489E+02  0.26448371264E+03 -0.64411762875E+02  0.32264945217E+03  0.17200000000E+03 0. -1.
         -6    1    1    2    0  502  0.20448949489E+02 -0.26448371264E+03 -0.94067691110E+03  0.99238442393E+03  0.17200000000E+03 0.  1.
</event>
<event>
 4    1 -0.3240665E-004  0.3490375E+03  0.7818608E-02  0.1063011E+00
          5   -1    0    0  501    0  0.00000000000E+00  0.00000000000E+00  0.28184945119E+03  0.28188863605E+03  0.47000000000E+01 0. -1.
         -5   -1    0    0    0  501 -0.00000000000E+00 -0.00000000000E+00 -0.52823738094E+03  0.52825828968E+03  0.47000000000E+01 0.  1.
          6    1    1    2  502    0  0.22203897603E+03 -0.20722415567E+03  0.49550551734E+02  0.35253711116E+03  0.17200000000E+03 0. -1.
         -6    1    1    2    0  502 -0.22203897603E+03  0.20722415567E+03 -0.29593848148E+03  0.45760981457E+03  0.17200000000E+03 0.  1.
</event>
<event>
 4    1 -0.3240665E-004  0.5198453E+03  0.7818608E-02  0.1008725E+00
          5   -1    0    0  501    0  0.00000000000E+00  0.00000000000E+00  0.15815594825E+04  0.15815664661E+04  0.47000000000E+01 0. -1.
         -5   -1    0    0    0  501 -0.00000000000E+00 -0.00000000000E+00 -0.21768235969E+03  0.21773309284E+03  0.47000000000E+01 0.  1.
          6    1    1    2  502    0 -0.47942329405E+03 -0.10396372397E+03  0.10992566777E+04  0.12159787804E+04  0.17200000000E+03 0. -1.
         -6    1    1    2    0  502  0.47942329405E+03  0.10396372397E+03  0.26462044511E+03  0.58332077860E+03  0.17200000000E+03 0.  1.
</event>
<event>
 4    1 -0.3240665E-004  0.3312417E+03  0.7818608E-02  0.1070589E+00
          5   -1    0    0  501    0  0.00000000000E+00  0.00000000000E+00  0.15213925526E+03  0.15221183591E+03  0.47000000000E+01 0. -1.
         -5   -1    0    0    0  501 -0.00000000000E+00 -0.00000000000E+00 -0.11661120399E+04  0.11661215115E+04  0.47000000000E+01 0.  1.
          6    1    1    2  502    0  0.12657638710E+03  0.25321040022E+03 -0.99723337966E+02  0.34592749629E+03  0.17200000000E+03 0. -1.
         -6    1    1    2    0  502 -0.12657638710E+03 -0.25321040022E+03 -0.91424944666E+03  0.97240585111E+03  0.17200000000E+03 0.  1.
</event>
<event>
 4    1 -0.3240665E-004  0.2487382E+03  0.7818608E-02  0.1114105E+00
         -5   -1    0    0    0  501 -0.00000000000E+00  0.00000000000E+00  0.25355999369E+03  0.25360354966E+03  0.47000000000E+01 0.  1.
          5   -1    0    0  501    0  0.00000000000E+00 -0.00000000000E+00 -0.26739001973E+03  0.26743132325E+03  0.47000000000E+01 0. -1.
          6    1    1    2  502    0  0.17939015243E+03  0.10289088452E+02 -0.84083794126E+02  0.26256575665E+03  0.17200000000E+03 0. -1.
         -6    1    1    2    0  502 -0.17939015243E+03 -0.10289088452E+02  0.70253768079E+02  0.25846911626E+03  0.17200000000E+03 0.  1.
</event>
<event>
 4    1 -0.3240665E-004  0.3622892E+03  0.7818608E-02  0.1057681E+00
         -5   -1    0    0    0  501 -0.00000000000E+00  0.00000000000E+00  0.29474896919E+03  0.29478643937E+03  0.47000000000E+01 0.  1.
          5   -1    0    0  501    0  0.00000000000E+00 -0.00000000000E+00 -0.44541393071E+03  0.44543872718E+03  0.47000000000E+01 0. -1.
          6    1    1    2  502    0 -0.23855742481E+03 -0.21156525086E+03 -0.67768651709E+02  0.36857304630E+03  0.17200000000E+03 0. -1.
         -6    1    1    2    0  502  0.23855742481E+03  0.21156525086E+03 -0.82896309814E+02  0.37165212025E+03  0.17200000000E+03 0.  1.
</event>
<event>
 4    1 -0.3240665E-004  0.2882235E+03  0.7818608E-02  0.1091280E+00
         -5   -1    0    0    0  501 -0.00000000000E+00  0.00000000000E+00  0.71368698832E+02  0.71523291123E+02  0.47000000000E+01 0.  1.
          5   -1    0    0  501    0  0.00000000000E+00 -0.00000000000E+00 -0.15824582456E+04  0.15824652252E+04  0.47000000000E+01 0. -1.
          6    1    1    2  502    0 -0.23127169627E+03 -0.14760076871E+01 -0.11815136138E+04  0.12161608428E+04  0.17200000000E+03 0. -1.
         -6    1    1    2    0  502  0.23127169627E+03  0.14760076871E+01 -0.32957593297E+03  0.43782767350E+03  0.17200000000E+03 0.  1.
</event>
<event>
 4    1 -0.3240665E-004  0.2170062E+03  0.7818608E-02  0.1136135E+00
         -5   -1    0    0    0  501 -0.00000000000E+00  0.00000000000E+00  0.50037554708E+03  0.50039762001E+03  0.47000000000E+01 0.  1.
          5   -1    0    0  501    0  0.00000000000E+00 -0.00000000000E+00 -0.11669726002E+03  0.11679186828E+03  0.47000000000E+01 0. -1.
          6    1    1    2  502    0 -0.78617681987E+02 -0.10642817539E+03  0.55907416017E+02  0.22409224798E+03  0.17200000000E+03 0. -1.
         -6    1    1    2    0  502  0.78617681987E+02  0.10642817539E+03  0.32777087105E+03  0.39309724032E+03  0.17200000000E+03 0.  1.
</event>
<event>
 4    1 -0.3240665E-004  0.2449185E+03  0.7818608E-02  0.1116559E+00
          5   -1    0    0  501    0  0.00000000000E+00  0.00000000000E+00  0.47251573154E+03  0.47253910585E+03  0.47000000000E+01 0. -1.
         -5   -1    0    0    0  501 -0.00000000000E+00 -0.00000000000E+00 -0.30481642443E+03  0.30485265720E+03  0.47000000000E+01 0.  1.
          6    1    1    2  502    0  0.81185127268E+02  0.15430501926E+03  0.38078695469E+03  0.45275133210E+03  0.17200000000E+03 0. -1.
         -6    1    1    2    0  502 -0.81185127268E+02 -0.15430501926E+03 -0.21308764757E+03  0.32464043095E+03  0.17200000000E+03 0.  1.
</event>
<event>
 4    1 -0.3240665E-004  0.1757017E+03  0.7818608E-02  0.1172029E+00
          5   -1    0    0  501    0  0.00000000000E+00  0.00000000000E+00  0.22739706045E+03  0.22744562670E+03  0.47000000000E+01 0. -1.
         -5   -1    0    0    0  501 -0.00000000000E+00 -0.00000000000E+00 -0.13631139962E+03  0.13639240326E+03  0.47000000000E+01 0.  1.
          6    1    1    2  502    0 -0.69508040920E+01  0.35196232316E+02  0.32922516944E+02  0.17875956078E+03  0.17200000000E+03 0. -1.
         -6    1    1    2    0  502  0.69508040920E+01 -0.35196232316E+02  0.58163143890E+02  0.18507846918E+03  0.17200000000E+03 0. -1.
</event>
<event>
 4    1 -0.3240665E-004  0.2289955E+03  0.7818608E-02  0.1127349E+00
          5   -1    0    0  501    0  0.00000000000E+00  0.00000000000E+00  0.74150822884E+03  0.74152312400E+03  0.47000000000E+01 0. -1.
         -5   -1    0    0    0  501 -0.00000000000E+00 -0.00000000000E+00 -0.12013317266E+03  0.12022507714E+03  0.47000000000E+01 0.  1.
          6    1    1    2  502    0  0.57465361277E+02 -0.13983079557E+03  0.58712944217E+03  0.63020623687E+03  0.17200000000E+03 0. -1.
         -6    1    1    2    0  502 -0.57465361277E+02  0.13983079557E+03  0.34245614012E+02  0.23154196427E+03  0.17200000000E+03 0.  1.
</event>
<event>
 4    1 -0.3240665E-004  0.2024414E+03  0.7818608E-02  0.1147695E+00
         -5   -1    0    0    0  501 -0.00000000000E+00  0.00000000000E+00  0.16224135372E+03  0.16230941703E+03  0.47000000000E+01 0.  1.
          5   -1    0    0  501    0  0.00000000000E+00 -0.00000000000E+00 -0.25260763511E+03  0.25265135526E+03  0.47000000000E+01 0. -1.
          6    1    1    2  502    0  0.47396589540E+02 -0.95666426340E+02 -0.50212261401E+02  0.20857558108E+03  0.17200000000E+03 0. -1.
         -6    1    1    2    0  502 -0.47396589540E+02  0.95666426340E+02 -0.40154019988E+02  0.20638519121E+03  0.17200000000E+03 0. -1.
</event>
<event>
 4    1 -0.3240665E-004  0.2066589E+03  0.7818608E-02  0.1144239E+00
          5   -1    0    0  501    0  0.00000000000E+00  0.00000000000E+00  0.52846329047E+03  0.52848419028E+03  0.47000000000E+01 0. -1.
         -5   -1    0    0    0  501 -0.00000000000E+00 -0.00000000000E+00 -0.86112658846E+02  0.86240825678E+02  0.47000000000E+01 0.  1.
          6    1    1    2  502    0 -0.93816684671E+02  0.65744441101E+02  0.29799184689E+03  0.36263899773E+03  0.17200000000E+03 0. -1.
         -6    1    1    2    0  502  0.93816684671E+02 -0.65744441101E+02  0.14435878473E+03  0.25208601823E+03  0.17200000000E+03 0.  1.
</event>
<event>
 4    1 -0.3240665E-004  0.2352158E+03  0.7818608E-02  0.1123022E+00
         -5   -1    0    0    0  501 -0.00000000000E+00  0.00000000000E+00  0.25964089176E+03  0.25968342780E+03  0.47000000000E+01 0.  1.
          5   -1    0    0  501    0  0.00000000000E+00 -0.00000000000E+00 -0.51563714675E+03  0.51565856641E+03  0.47000000000E+01 0. -1.
          6    1    1    2  502    0 -0.15553059982E+03  0.39404345988E+02 -0.42497127760E+03  0.48572323061E+03  0.17200000000E+03 0. -1.
         -6    1    1    2    0  502  0.15553059982E+03 -0.39404345988E+02  0.16897502261E+03  0.28961876360E+03  0.17200000000E+03 0.  1.
</event>
<event>
 4    1 -0.3240665E-004  0.2322408E+03  0.7818608E-02  0.1125072E+00
         -5   -1    0    0    0  501 -0.00000000000E+00  0.00000000000E+00  0.34529552452E+03  0.34532751014E+03  0.47000000000E+01 0.  1.
          5   -1    0    0  501    0  0.00000000000E+00 -0.00000000000E+00 -0.29005628115E+03  0.29009435746E+03  0.47000000000E+01 0. -1.
          6    1    1    2  502    0 -0.55368245088E+02  0.14589768880E+03 -0.18823621516E+03  0.29894589955E+03  0.17200000000E+03 0. -1.
         -6    1    1    2    0  502  0.55368245088E+02 -0.14589768880E+03  0.24347545854E+03  0.33647596805E+03  0.17200000000E+03 0.  1.
</event>
<event>
 4    1 -0.3240665E-004  0.1914769E+03  0.7818608E-02  0.1157136E+00
          5   -1    0    0  501    0  0.00000000000E+00  0.00000000000E+00  0.12653670883E+04  0.12653758170E+04  0.47000000000E+01 0. -1.
         -5   -1    0    0    0  501 -0.00000000000E+00 -0.00000000000E+00 -0.50980703472E+02  0.51196895673E+02  0.47000000000E+01 0.  1.
          6    1    1    2  502    0  0.52848705729E+02  0.65470788273E+02  0.10403428110E+04  0.10578168906E+04  0.17200000000E+03 0. -1.
         -6    1    1    2    0  502 -0.52848705729E+02 -0.65470788273E+02  0.17404357389E+03  0.25875582202E+03  0.17200000000E+03 0.  1.
</event>
<event>
 4    1 -0.3240665E-004  0.1784697E+03  0.7818608E-02  0.1169292E+00
         -5   -1    0    0    0  501 -0.00000000000E+00  0.00000000000E+00  0.50579970523E+02  0.50797868243E+02  0.47000000000E+01 0.  1.
          5   -1    0    0  501    0  0.00000000000E+00 -0.00000000000E+00 -0.10440619133E+04  0.10440724921E+04  0.47000000000E+01 0. -1.
          6    1    1    2  502    0 -0.37946147390E+02 -0.28766849308E+02 -0.84222266675E+03  0.86092419068E+03  0.17200000000E+03 0. -1.
         -6    1    1    2    0  502  0.37946147390E+02  0.28766849308E+02 -0.15125927602E+03  0.23394616967E+03  0.17200000000E+03 0.  1.
</event>
<event>
 4    1 -0.3240665E-004  0.2164989E+03  0.7818608E-02  0.1136520E+00
          5   -1    0    0  501    0  0.00000000000E+00  0.00000000000E+00  0.12357060911E+03  0.12365995891E+03  0.47000000000E+01 0. -1.
         -5   -1    0    0    0  501 -0.00000000000E+00 -0.00000000000E+00 -0.38753943649E+03  0.38756793577E+03  0.47000000000E+01 0.  1.
          6    1    1    2  502    0 -0.10451249603E+02  0.13106693022E+03 -0.94203561558E+02  0.23610607749E+03  0.17200000000E+03 0.  1.
         -6    1    1    2    0  502  0.10451249603E+02 -0.13106693022E+03 -0.16976526582E+03  0.27512181719E+03  0.17200000000E+03 0.  1.
</event>
<event>
 4    1 -0.3240665E-004  0.1989944E+03  0.7818608E-02  0.1150590E+00
         -5   -1    0    0    0  501 -0.00000000000E+00  0.00000000000E+00  0.98289701152E+03  0.98290824864E+03  0.47000000000E+01 0.  1.
          5   -1    0    0  501    0  0.00000000000E+00 -0.00000000000E+00 -0.47866837732E+02  0.48097028541E+02  0.47000000000E+01 0. -1.
          6    1    1    2  502    0  0.29102176578E+02 -0.95748899401E+02  0.26095635006E+03  0.32817221859E+03  0.17200000000E+03 0. -1.
         -6    1    1    2    0  502 -0.29102176578E+02  0.95748899401E+02  0.67407382373E+03  0.70283305860E+03  0.17200000000E+03 0.  1.
</event>
<event>
 4    1 -0.3240665E-004  0.2221964E+03  0.7818608E-02  0.1132256E+00
          5   -1    0    0  501    0  0.00000000000E+00  0.00000000000E+00  0.12090293306E+03  0.12099425285E+03  0.47000000000E+01 0. -1.
         -5   -1    0    0    0  501 -0.00000000000E+00 -0.00000000000E+00 -0.43584441837E+03  0.43586975925E+03  0.47000000000E+01 0.  1.
          6    1    1    2  502    0 -0.81462597220E+02 -0.11467812261E+03 -0.87225004910E+02  0.23870364059E+03  0.17200000000E+03 0. -1.
         -6    1    1    2    0  502  0.81462597220E+02  0.11467812261E+03 -0.22771648040E+03  0.31816037151E+03  0.17200000000E+03 0. -1.
</event>
<event>
 4    1 -0.3240665E-004  0.2579599E+03  0.7818608E-02  0.1108375E+00
         -5   -1    0    0    0  501 -0.00000000000E+00  0.00000000000E+00  0.40533557257E+03  0.40536282068E+03  0.47000000000E+01 0.  1.
          5   -1    0    0  501    0  0.00000000000E+00 -0.00000000000E+00 -0.22664241035E+03  0.22669113827E+03  0.47000000000E+01 0. -1.
          6    1    1    2  502    0 -0.96027256501E+02 -0.16654754647E+03 -0.76632009414E+02  0.26910180990E+03  0.17200000000E+03 0. -1.
         -6    1    1    2    0  502  0.96027256501E+02  0.16654754647E+03  0.25532517163E+03  0.36295214904E+03  0.17200000000E+03 0.  1.
</event>
<event>
 4    1 -0.3240665E-004  0.1824005E+03  0.7818608E-02  0.1165500E+00
          5   -1    0    0  501    0  0.00000000000E+00  0.00000000000E+00  0.40889231473E+03  0.40891932584E+03  0.47000000000E+01 0. -1.
         -5   -1    0    0    0  501 -0.00000000000E+00 -0.00000000000E+00 -0.10223729793E+03  0.10234527389E+03  0.47000000000E+01 0.  1.
          6    1    1    2  502    0  0.59956354578E+02  0.95495539838E+01  0.37641165146E+02  0.18624396836E+03  0.17200000000E+03 0. -1.
         -6    1    1    2    0  502 -0.59956354578E+02 -0.95495539838E+01  0.26901385165E+03  0.32502063137E+03  0.17200000000E+03 0. -1.
</event>
<event>
 4    1 -0.3240665E-004  0.2508509E+03  0.7818608E-02  0.1112768E+00
          5   -1    0    0  501    0  0.00000000000E+00  0.00000000000E+00  0.25688027549E+03  0.25692326857E+03  0.47000000000E+01 0. -1.
         -5   -1    0    0    0  501 -0.00000000000E+00 -0.00000000000E+00 -0.25023975395E+03  0.25028388773E+03  0.47000000000E+01 0.  1.
          6    1    1    2  502    0  0.16479546420E+03  0.78642528006E+02 -0.33798395673E+02  0.25311760860E+03  0.17200000000E+03 0. -1.
         -6    1    1    2    0  502 -0.16479546420E+03 -0.78642528006E+02  0.40438917207E+02  0.25408954771E+03  0.17200000000E+03 0.  1.
</event>
<event>
 4    1 -0.3240665E-004  0.4229192E+03  0.7818608E-02  0.1036120E+00
         -5   -1    0    0    0  501 -0.00000000000E+00  0.00000000000E+00  0.12093046459E+04  0.12093137792E+04  0.47000000000E+01 0.  1.
          5   -1    0    0  501    0  0.00000000000E+00 -0.00000000000E+00 -0.17002804748E+03  0.17009299494E+03  0.47000000000E+01 0. -1.
          6    1    1    2  502    0 -0.37583707454E+03  0.89571863407E+02  0.27063925157E+03  0.50210181219E+03  0.17200000000E+03 0. -1.
         -6    1    1    2    0  502  0.37583707454E+03 -0.89571863407E+02  0.76863734684E+03  0.87730496196E+03  0.17200000000E+03 0.  1.
</event>
<event>
 4    1 -0.3240665E-004  0.2019985E+03  0.7818608E-02  0.1148064E+00
         -5   -1    0    0    0  501 -0.00000000000E+00  0.00000000000E+00  0.28286768233E+03  0.28290672617E+03  0.47000000000E+01 0.  1.
          5   -1    0    0  501    0  0.00000000000E+00 -0.00000000000E+00 -0.16919429634E+03  0.16925956373E+03  0.47000000000E+01 0. -1.
          6    1    1    2  502    0 -0.15799291981E+02 -0.10473672021E+03 -0.30096693466E+02  0.20422832601E+03  0.17200000000E+03 0. -1.
         -6    1    1    2    0  502  0.15799291981E+02  0.10473672021E+03  0.14377007946E+03  0.24793796388E+03  0.17200000000E+03 0.  1.
</event>
<event>
 4    1 -0.3240665E-004  0.1991241E+03  0.7818608E-02  0.1150480E+00
          5   -1    0    0  501    0  0.00000000000E+00  0.00000000000E+00  0.20985894296E+03  0.20991156696E+03  0.47000000000E+01 0. -1.
         -5   -1    0    0    0  501 -0.00000000000E+00 -0.00000000000E+00 -0.18900097380E+03  0.18905940362E+03  0.47000000000E+01 0.  1.
          6    1    1    2  502    0  0.49977181099E+02  0.86998217129E+02  0.44805885488E+01  0.19917450662E+03  0.17200000000E+03 0.  1.
         -6    1    1    2    0  502 -0.49977181099E+02 -0.86998217129E+02  0.16377380614E+02  0.19979646396E+03  0.17200000000E+03 0. -1.
</event>
<event>
 4    1 -0.3240665E-004  0.1937182E+03  0.7818608E-02  0.1155150E+00
          5   -1    0    0  501    0  0.00000000000E+00  0.00000000000E+00  0.14704480057E+03  0.14711989456E+03  0.47000000000E+01 0. -1.
         -5   -1    0    0    0  501 -0.00000000000E+00 -0.00000000000E+00 -0.37580128122E+03  0.37583067061E+03  0.47000000000E+01 0.  1.
          6    1    1    2  502    0  0.39541255035E+02 -0.79869975940E+02  0.33820154571E+02  0.19664823102E+03  0.17200000000E+03 0. -1.
         -6    1    1    2    0  502 -0.39541255035E+02  0.79869975940E+02 -0.26257663522E+03  0.32630233415E+03  0.17200000000E+03 0.  1.
</event>
<event>
 4    1 -0.3240665E-004  0.1731166E+03  0.7818608E-02  0.1174636E+00
         -5   -1    0    0    0  501 -0.00000000000E+00  0.00000000000E+00  0.44714275817E+03  0.44716745877E+03  0.47000000000E+01 0.  1.
          5   -1    0    0  501    0  0.00000000000E+00 -0.00000000000E+00 -0.81677840623E+02  0.81812955263E+02  0.47000000000E+01 0. -1.
          6    1    1    2  502    0 -0.18622286922E+02 -0.62098123566E+01  0.29505744342E+03  0.34209391438E+03  0.17200000000E+03 0.  1.
         -6    1    1    2    0  502  0.18622286922E+02  0.62098123566E+01  0.70407474130E+02  0.18688649965E+03  0.17200000000E+03 0. -1.
</event>
<event>
 4    1 -0.3240665E-004  0.1826734E+03  0.7818608E-02  0.1165240E+00
          5   -1    0    0  501    0  0.00000000000E+00  0.00000000000E+00  0.14066229573E+03  0.14074079523E+03  0.47000000000E+01 0. -1.
         -5   -1    0    0    0  501 -0.00000000000E+00 -0.00000000000E+00 -0.54524730115E+03  0.54526755764E+03  0.47000000000E+01 0.  1.
          6    1    1    2  502    0 -0.18807517143E+02  0.58582099267E+02  0.55554846415E+02  0.19093435002E+03  0.17200000000E+03 0. -1.
         -6    1    1    2    0  502  0.18807517143E+02 -0.58582099267E+02 -0.46013985183E+03  0.49507400285E+03  0.17200000000E+03 0.  1.
</event>
<event>
 4    1 -0.3240665E-004  0.3387535E+03  0.7818608E-02  0.1067328E+00
         -5   -1    0    0    0  501 -0.00000000000E+00  0.00000000000E+00  0.12782595533E+03  0.12791233270E+03  0.47000000000E+01 0.  1.
          5   -1    0    0  501    0  0.00000000000E+00 -0.00000000000E+00 -0.90164235884E+03  0.90165460862E+03  0.47000000000E+01 0. -1.
          6    1    1    2  502    0 -0.22669614024E+03 -0.18379004052E+03 -0.42246652712E+03  0.54150889700E+03  0.17200000000E+03 0. -1.
         -6    1    1    2    0  502  0.22669614024E+03  0.18379004052E+03 -0.35134987638E+03  0.48805804432E+03  0.17200000000E+03 0.  1.
</event>
<event>
 4    1 -0.3240665E-004  0.1860932E+03  0.7818608E-02  0.1162033E+00
          5   -1    0    0  501    0  0.00000000000E+00  0.00000000000E+00  0.17062562607E+03  0.17069034615E+03  0.47000000000E+01 0. -1.
         -5   -1    0    0    0  501 -0.00000000000E+00 -0.00000000000E+00 -0.33595035297E+03  0.33598322824E+03  0.47000000000E+01 0.  1.
          6    1    1    2  502    0 -0.23777968512E+02  0.66942426166E+02  0.76781858165E+02  0.20131103783E+03  0.17200000000E+03 0. -1.
         -6    1    1    2    0  502  0.23777968512E+02 -0.66942426166E+02 -0.24210658507E+03  0.30536253657E+03  0.17200000000E+03 0.  1.
</event>
<event>
 4    1 -0.3240665E-004  0.1991150E+03  0.7818608E-02  0.1150488E+00
         -5   -1    0    0    0  501 -0.00000000000E+00  0.00000000000E+00  0.53573907671E+02  0.53779676301E+02  0.47000000000E+01 0.  1.
          5   -1    0    0  501    0  0.00000000000E+00 -0.00000000000E+00 -0.12221188557E+04  0.12221278932E+04  0.47000000000E+01 0. -1.
          6    1    1    2  502    0  0.73929465398E+02  0.67802803576E+02 -0.18295598701E+03  0.27040650733E+03  0.17200000000E+03 0.  1.
         -6    1    1    2    0  502 -0.73929465398E+02 -0.67802803576E+02 -0.98558896098E+03  0.10055010622E+04  0.17200000000E+03 0. -1.
</event>
<event>
 4    1 -0.3240665E-004  0.2659566E+03  0.7818608E-02  0.1103616E+00
         -5   -1    0    0    0  501 -0.00000000000E+00  0.00000000000E+00  0.60051829078E+02  0.60235472735E+02  0.47000000000E+01 0.  1.
          5   -1    0    0  501    0  0.00000000000E+00 -0.00000000000E+00 -0.14679092452E+04  0.14679167695E+04  0.47000000000E+01 0. -1.
          6    1    1    2  502    0  0.17157751458E+03  0.10821302744E+03 -0.10447082593E+04  0.10780298001E+04  0.17200000000E+03 0. -1.
         -6    1    1    2    0  502 -0.17157751458E+03 -0.10821302744E+03 -0.36314915682E+03  0.45012244213E+03  0.17200000000E+03 0.  1.
</event>
<event>
 4    1 -0.3240665E-004  0.2228791E+03  0.7818608E-02  0.1131755E+00
         -5   -1    0    0    0  501 -0.00000000000E+00  0.00000000000E+00  0.27601095864E+03  0.27605097227E+03  0.47000000000E+01 0.  1.
          5   -1    0    0  501    0  0.00000000000E+00 -0.00000000000E+00 -0.25431534512E+03  0.25435877175E+03  0.47000000000E+01 0. -1.
          6    1    1    2  502    0  0.41736745420E+01  0.14168158689E+03 -0.13259305920E+03  0.25933763894E+03  0.17200000000E+03 0. -1.
         -6    1    1    2    0  502 -0.41736745420E+01 -0.14168158689E+03  0.15428867272E+03  0.27107210508E+03  0.17200000000E+03 0.  1.
</event>
<event>
 4    1 -0.3240665E-004  0.2664582E+03  0.7818608E-02  0.1103324E+00
         -5   -1    0    0    0  501 -0.00000000000E+00  0.00000000000E+00  0.29282689636E+03  0.29286461247E+03  0.47000000000E+01 0.  1.
          5   -1    0    0  501    0  0.00000000000E+00 -0.00000000000E+00 -0.25460925996E+03  0.25465263647E+03  0.47000000000E+01 0. -1.
          6    1    1    2  502    0  0.15853841423E+03  0.12759908953E+03  0.79077166518E+02  0.27794451731E+03  0.17200000000E+03 0. -1.
         -6    1    1    2    0  502 -0.15853841423E+03 -0.12759908953E+03 -0.40859530118E+02  0.26957273163E+03  0.17200000000E+03 0. -1.
</event>
<event>
 4    1 -0.3240665E-004  0.2355946E+03  0.7818608E-02  0.1122763E+00
         -5   -1    0    0    0  501 -0.00000000000E+00  0.00000000000E+00  0.20729354774E+03  0.20734682282E+03  0.47000000000E+01 0.  1.
          5   -1    0    0  501    0  0.00000000000E+00 -0.00000000000E+00 -0.27806175076E+03  0.27810146932E+03  0.47000000000E+01 0. -1.
          6    1    1    2  502    0  0.10070342193E+03  0.12561703938E+03 -0.82341706575E+02  0.24956958230E+03  0.17200000000E+03 0. -1.
         -6    1    1    2    0  502 -0.10070342193E+03 -0.12561703938E+03  0.11573503556E+02  0.23587870984E+03  0.17200000000E+03 0.  1.
</event>
<event>
 4    1 -0.3240665E-004  0.2245737E+03  0.7818608E-02  0.1130518E+00
          5   -1    0    0  501    0  0.00000000000E+00  0.00000000000E+00  0.15288799494E+04  0.15288871736E+04  0.47000000000E+01 0. -1.
         -5   -1    0    0    0  501 -0.00000000000E+00 -0.00000000000E+00 -0.39700763736E+02  0.39978001966E+02  0.47000000000E+01 0.  1.
          6    1    1    2  502    0  0.55504923399E+01  0.14428623125E+03  0.10700578985E+04  0.10933696679E+04  0.17200000000E+03 0. -1.
         -6    1    1    2    0  502 -0.55504923399E+01 -0.14428623125E+03  0.41912128707E+03  0.47549550763E+03  0.17200000000E+03 0.  1.
</event>
<event>
 4    1 -0.3240665E-004  0.1817359E+03  0.7818608E-02  0.1166134E+00
         -5   -1    0    0    0  501 -0.00000000000E+00  0.00000000000E+00  0.15192759640E+03  0.15200027812E+03  0.47000000000E+01 0.  1.
          5   -1    0    0  501    0  0.00000000000E+00 -0.00000000000E+00 -0.21988856699E+03  0.21993879124E+03  0.47000000000E+01 0. -1.
          6    1    1    2  502    0  0.52036549293E+02 -0.27131583116E+02 -0.13585469498E+02  0.18224294293E+03  0.17200000000E+03 0.  1.
         -6    1    1    2    0  502 -0.52036549293E+02  0.27131583116E+02 -0.54375501097E+02  0.18969612643E+03  0.17200000000E+03 0. -1.
</event>
<event>
 4    1 -0.3240665E-004  0.2740445E+03  0.7818608E-02  0.1098987E+00
          5   -1    0    0  501    0  0.00000000000E+00  0.00000000000E+00  0.14294567733E+03  0.14302292357E+03  0.47000000000E+01 0. -1.
         -5   -1    0    0    0  501 -0.00000000000E+00 -0.00000000000E+00 -0.54039666931E+03  0.54041710762E+03  0.47000000000E+01 0.  1.
          6    1    1    2  502    0  0.21166125061E+03  0.26755916555E+02 -0.14132692504E+03  0.30834017549E+03  0.17200000000E+03 0. -1.
         -6    1    1    2    0  502 -0.21166125061E+03 -0.26755916555E+02 -0.25612406694E+03  0.37509985570E+03  0.17200000000E+03 0.  1.
</event>
<event>
 4    1 -0.3240665E-004  0.1834990E+03  0.7818608E-02  0.1164459E+00
         -5   -1    0    0    0  501 -0.00000000000E+00  0.00000000000E+00  0.17405036672E+03  0.17411381380E+03  0.47000000000E+01 0.  1.
          5   -1    0    0  501    0  0.00000000000E+00 -0.00000000000E+00 -0.19925108413E+03  0.19930650899E+03  0.47000000000E+01 0. -1.
          6    1    1    2  502    0  0.46227348820E+02  0.44169143925E+02 -0.44767840929E+02  0.18888102243E+03  0.17200000000E+03 0.  1.
         -6    1    1    2    0  502 -0.46227348820E+02 -0.44169143925E+02  0.19567123524E+02  0.18453930036E+03  0.17200000000E+03 0. -1.
</event>
<event>
 4    1 -0.3240665E-004  0.1786510E+03  0.7818608E-02  0.1169115E+00
         -5   -1    0    0    0  501 -0.00000000000E+00  0.00000000000E+00  0.12420751224E+04  0.12420840148E+04  0.47000000000E+01 0.  1.
          5   -1    0    0  501    0  0.00000000000E+00 -0.00000000000E+00 -0.26105529664E+02  0.26525246069E+02  0.47000000000E+01 0. -1.
          6    1    1    2  502    0 -0.48266528339E+02  0.15910328914E+01  0.70599618560E+03  0.72824913541E+03  0.17200000000E+03 0.  1.
         -6    1    1    2    0  502  0.48266528339E+02 -0.15910328914E+01  0.50997340718E+03  0.54036012545E+03  0.17200000000E+03 0. -1.
</event>
<event>
 4    1 -0.3240665E-004  0.3248654E+03  0.7818608E-02  0.1073432E+00
          5   -1    0    0  501    0  0.00000000000E+00  0.00000000000E+00  0.61712131784E+03  0.61713921520E+03  0.47000000000E+01 0. -1.
         -5   -1    0    0    0  501 -0.00000000000E+00 -0.00000000000E+00 -0.18015845691E+03  0.18021975362E+03  0.47000000000E+01 0.  1.
          6    1    1    2  502    0  0.27302516631E+03  0.37560575782E+02  0.30853090686E+03  0.44802774331E+03  0.17200000000E+03 0. -1.
         -6    1    1    2    0  502 -0.27302516631E+03 -0.37560575782E+02  0.12843195408E+03  0.34933122551E+03  0.17200000000E+03 0.  1.
</event>
<event>
 4    1 -0.3240665E-004  0.2125344E+03  0.7818608E-02  0.1139575E+00
         -5   -1    0    0    0  501 -0.00000000000E+00  0.00000000000E+00  0.82574385882E+03  0.82575723453E+03  0.47000000000E+01 0.  1.
          5   -1    0    0  501    0  0.00000000000E+00 -0.00000000000E+00 -0.12127269768E+03  0.12136373924E+03  0.47000000000E+01 0. -1.
          6    1    1    2  502    0 -0.11626075111E+03 -0.45500496337E+02  0.13063681699E+01  0.21253838245E+03  0.17200000000E+03 0. -1.
         -6    1    1    2    0  502  0.11626075111E+03  0.45500496337E+02  0.70316479296E+03  0.73458259132E+03  0.17200000000E+03 0.  1.
</event>
<event>
 4    1 -0.3240665E-004  0.2099683E+03  0.7818608E-02  0.1141591E+00
         -5   -1    0    0    0  501 -0.00000000000E+00  0.00000000000E+00  0.91442955853E+02  0.91563661870E+02  0.47000000000E+01 0.  1.
          5   -1    0    0  501    0  0.00000000000E+00 -0.00000000000E+00 -0.48555535328E+03  0.48557809989E+03  0.47000000000E+01 0. -1.
          6    1    1    2  502    0  0.69578241793E+02 -0.98293237761E+02 -0.22285875647E+03  0.30619065573E+03  0.17200000000E+03 0. -1.
         -6    1    1    2    0  502 -0.69578241793E+02  0.98293237761E+02 -0.17125364095E+03  0.27095110603E+03  0.17200000000E+03 0.  1.
</event>
<event>
 4    1 -0.3240665E-004  0.2209720E+03  0.7818608E-02  0.1133160E+00
         -5   -1    0    0    0  501 -0.00000000000E+00  0.00000000000E+00  0.33983723888E+03  0.33986973818E+03  0.47000000000E+01 0.  1.
          5   -1    0    0  501    0  0.00000000000E+00 -0.00000000000E+00 -0.14911610212E+03  0.14919015353E+03  0.47000000000E+01 0. -1.
          6    1    1    2  502    0 -0.78177842174E+02 -0.11459861403E+03  0.48365776405E+02  0.22620315133E+03  0.17200000000E+03 0. -1.
         -6    1    1    2    0  502  0.78177842174E+02  0.11459861403E+03  0.14235536035E+03  0.26285674038E+03  0.17200000000E+03 0.  1.
</event>
<event>
 4    1 -0.3240665E-004  0.1778206E+03  0.7818608E-02  0.1169929E+00
          5   -1    0    0  501    0  0.00000000000E+00  0.00000000000E+00  0.18464182976E+03  0.18470163859E+03  0.47000000000E+01 0. -1.
         -5   -1    0    0    0  501 -0.00000000000E+00 -0.00000000000E+00 -0.18505926499E+03  0.18511893895E+03  0.47000000000E+01 0.  1.
          6    1    1    2  502    0  0.44402913435E+02 -0.80338265758E+01  0.50502361202E+02  0.18485304860E+03  0.17200000000E+03 0. -1.
         -6    1    1    2    0  502 -0.44402913435E+02  0.80338265758E+01 -0.50919796427E+02  0.18496752893E+03  0.17200000000E+03 0.  1.
</event>
<event>
 4    1 -0.3240665E-004  0.1890928E+03  0.7818608E-02  0.1159282E+00
          5   -1    0    0  501    0  0.00000000000E+00  0.00000000000E+00  0.11409121492E+03  0.11418798239E+03  0.47000000000E+01 0. -1.
         -5   -1    0    0    0  501 -0.00000000000E+00 -0.00000000000E+00 -0.32090243518E+03  0.32093685189E+03  0.47000000000E+01 0.  1.
          6    1    1    2  502    0  0.80390243720E+01  0.78150278762E+02 -0.69601160360E+02  0.20149544289E+03  0.17200000000E+03 0. -1.
         -6    1    1    2    0  502 -0.80390243720E+01 -0.78150278762E+02 -0.13721005990E+03  0.23362939139E+03  0.17200000000E+03 0.  1.
</event>
<event>
 4    1 -0.3240665E-004  0.2249027E+03  0.7818608E-02  0.1130280E+00
          5   -1    0    0  501    0  0.00000000000E+00  0.00000000000E+00  0.74397467310E+02  0.74545778835E+02  0.47000000000E+01 0. -1.
         -5   -1    0    0    0  501 -0.00000000000E+00 -0.00000000000E+00 -0.16719845840E+04  0.16719911899E+04  0.47000000000E+01 0.  1.
          6    1    1    2  502    0  0.13910543273E+03 -0.40581926102E+02 -0.12585970463E+03  0.25772442529E+03  0.17200000000E+03 0. -1.
         -6    1    1    2    0  502 -0.13910543273E+03  0.40581926102E+02 -0.14717274121E+04  0.14888125435E+04  0.17200000000E+03 0.  1.
</event>
<event>
 4    1 -0.3240665E-004  0.2251414E+03  0.7818608E-02  0.1130107E+00
          5   -1    0    0  501    0  0.00000000000E+00  0.00000000000E+00  0.12498761934E+03  0.12507595688E+03  0.47000000000E+01 0. -1.
         -5   -1    0    0    0  501 -0.00000000000E+00 -0.00000000000E+00 -0.40565448536E+03  0.40568171206E+03  0.47000000000E+01 0.  1.
          6    1    1    2  502    0 -0.33905524839E+02  0.14126247298E+03 -0.13253740302E+03  0.26125626133E+03  0.17200000000E+03 0. -1.
         -6    1    1    2    0  502  0.33905524839E+02 -0.14126247298E+03 -0.14812946301E+03  0.26950140760E+03  0.17200000000E+03 0.  1.
</event>
<event>
 4    1 -0.3240665E-004  0.1871630E+03  0.7818608E-02  0.1161045E+00
          5   -1    0    0  501    0  0.00000000000E+00  0.00000000000E+00  0.20066065796E+03  0.20071569359E+03  0.47000000000E+01 0. -1.
         -5   -1    0    0    0  501 -0.00000000000E+00 -0.00000000000E+00 -0.18689163146E+03  0.18695072054E+03  0.47000000000E+01 0.  1.
          6    1    1    2  502    0 -0.64743087387E+02  0.35416293679E+02  0.56855349839E+02  0.19560805716E+03  0.17200000000E+03 0. -1.
         -6    1    1    2    0  502  0.64743087387E+02 -0.35416293679E+02 -0.43086323337E+02  0.19205835697E+03  0.17200000000E+03 0.  1.
</event>
<event>
 4    1 -0.3240665E-004  0.1896235E+03  0.7818608E-02  0.1158801E+00
          5   -1    0    0  501    0  0.00000000000E+00  0.00000000000E+00  0.13070878996E+03  0.13079326348E+03  0.47000000000E+01 0. -1.
         -5   -1    0    0    0  501 -0.00000000000E+00 -0.00000000000E+00 -0.28881253298E+03  0.28885077325E+03  0.47000000000E+01 0.  1.
          6    1    1    2  502    0  0.36650057281E+01 -0.79747405100E+02 -0.12509437961E+03  0.22716884623E+03  0.17200000000E+03 0.  1.
         -6    1    1    2    0  502 -0.36650057281E+01  0.79747405100E+02 -0.33009363417E+02  0.19247519051E+03  0.17200000000E+03 0. -1.
</event>
<event>
 4    1 -0.3240665E-004  0.1907009E+03  0.7818608E-02  0.1157831E+00
         -5   -1    0    0    0  501 -0.00000000000E+00  0.00000000000E+00  0.14160726042E+03  0.14168523636E+03  0.47000000000E+01 0.  1.
          5   -1    0    0  501    0  0.00000000000E+00 -0.00000000000E+00 -0.26721996243E+03  0.26726129222E+03  0.47000000000E+01 0. -1.
          6    1    1    2  502    0  0.74997731091E+02  0.34032125816E+02 -0.10347418744E+03  0.21696486518E+03  0.17200000000E+03 0. -1.
         -6    1    1    2    0  502 -0.74997731091E+02 -0.34032125816E+02 -0.22138514571E+02  0.19198166341E+03  0.17200000000E+03 0.  1.
</event>
<event>
 4    1 -0.3240665E-004  0.2475347E+03  0.7818608E-02  0.1114873E+00
         -5   -1    0    0    0  501 -0.00000000000E+00  0.00000000000E+00  0.27777775964E+03  0.27781751879E+03  0.47000000000E+01 0.  1.
          5   -1    0    0  501    0  0.00000000000E+00 -0.00000000000E+00 -0.50854538969E+03  0.50856710804E+03  0.47000000000E+01 0. -1.
          6    1    1    2  502    0 -0.16154685788E+02  0.17728073331E+03 -0.41127734235E+03  0.48002342089E+03  0.17200000000E+03 0. -1.
         -6    1    1    2    0  502  0.16154685788E+02 -0.17728073331E+03  0.18050971229E+03  0.30636120594E+03  0.17200000000E+03 0.  1.
</event>
<event>
 4    1 -0.3240665E-004  0.1743239E+03  0.7818608E-02  0.1173412E+00
         -5   -1    0    0    0  501 -0.00000000000E+00  0.00000000000E+00  0.89281522233E+03  0.89282759322E+03  0.47000000000E+01 0.  1.
          5   -1    0    0  501    0  0.00000000000E+00 -0.00000000000E+00 -0.34652702025E+02  0.34969983667E+02  0.47000000000E+01 0. -1.
          6    1    1    2  502    0 -0.28144522773E+02 -0.35633571912E+01  0.35934784937E+03  0.39939915940E+03  0.17200000000E+03 0. -1.
         -6    1    1    2    0  502  0.28144522773E+02  0.35633571912E+01  0.49881467093E+03  0.52839841749E+03  0.17200000000E+03 0.  1.
</event>
<event>
 4    1 -0.3240665E-004  0.1790056E+03  0.7818608E-02  0.1168769E+00
         -5   -1    0    0    0  501 -0.00000000000E+00  0.00000000000E+00  0.41367560517E+03  0.41370230397E+03  0.47000000000E+01 0.  1.
          5   -1    0    0  501    0  0.00000000000E+00 -0.00000000000E+00 -0.23716613520E+03  0.23721270136E+03  0.47000000000E+01 0. -1.
          6    1    1    2  502    0 -0.30070937995E+02  0.39430107821E+02 -0.17883388303E+03  0.25303073417E+03  0.17200000000E+03 0. -1.
         -6    1    1    2    0  502  0.30070937995E+02 -0.39430107821E+02  0.35534335300E+03  0.39788427116E+03  0.17200000000E+03 0.  1.
</event>
<event>
 4    1 -0.3240665E-004  0.2571896E+03  0.7818608E-02  0.1108844E+00
         -5   -1    0    0    0  501 -0.00000000000E+00  0.00000000000E+00  0.11486469297E+04  0.11486565453E+04  0.47000000000E+01 0.  1.
          5   -1    0    0  501    0  0.00000000000E+00 -0.00000000000E+00 -0.58426776758E+02  0.58615511960E+02  0.47000000000E+01 0. -1.
          6    1    1    2  502    0  0.18091669973E+03 -0.61900104788E+02  0.46842680586E+03  0.53438763801E+03  0.17200000000E+03 0. -1.
         -6    1    1    2    0  502 -0.18091669973E+03  0.61900104788E+02  0.62179334705E+03  0.67288441924E+03  0.17200000000E+03 0.  1.
</event>
<event>
 4    1 -0.3240665E-004  0.1802751E+03  0.7818608E-02  0.1167537E+00
         -5   -1    0    0    0  501 -0.00000000000E+00  0.00000000000E+00  0.64573851361E+02  0.64744669893E+02  0.47000000000E+01 0.  1.
          5   -1    0    0  501    0  0.00000000000E+00 -0.00000000000E+00 -0.51282830919E+03  0.51284984616E+03  0.47000000000E+01 0. -1.
          6    1    1    2  502    0  0.13783560660E+02 -0.52202630556E+02 -0.26522474080E+03  0.32069185258E+03  0.17200000000E+03 0. -1.
         -6    1    1    2    0  502 -0.13783560660E+02  0.52202630556E+02 -0.18302971702E+03  0.25690266346E+03  0.17200000000E+03 0.  1.
</event>
<event>
 4    1 -0.3240665E-004  0.2043493E+03  0.7818608E-02  0.1146120E+00
         -5   -1    0    0    0  501 -0.00000000000E+00  0.00000000000E+00  0.12159677432E+03  0.12168757342E+03  0.47000000000E+01 0.  1.
          5   -1    0    0  501    0  0.00000000000E+00 -0.00000000000E+00 -0.34706645154E+03  0.34709827396E+03  0.47000000000E+01 0. -1.
          6    1    1    2  502    0  0.10853857138E+03  0.19850292024E+02 -0.13752116827E+03  0.24631428561E+03  0.17200000000E+03 0. -1.
         -6    1    1    2    0  502 -0.10853857138E+03 -0.19850292024E+02 -0.87948508951E+02  0.22247156177E+03  0.17200000000E+03 0.  1.
</event>
<event>
 4    1 -0.3240665E-004  0.2123158E+03  0.7818608E-02  0.1139745E+00
         -5   -1    0    0    0  501 -0.00000000000E+00  0.00000000000E+00  0.14717405796E+04  0.14717480843E+04  0.47000000000E+01 0.  1.
          5   -1    0    0  501    0  0.00000000000E+00 -0.00000000000E+00 -0.48698392392E+02  0.48924670888E+02  0.47000000000E+01 0. -1.
          6    1    1    2  502    0  0.76681493772E+02  0.98050718902E+02  0.24740304450E+03  0.32601573795E+03  0.17200000000E+03 0. -1.
         -6    1    1    2    0  502 -0.76681493772E+02 -0.98050718902E+02  0.11756391427E+04  0.11946570172E+04  0.17200000000E+03 0.  1.
</event>
<event>
 4    1 -0.3240665E-004  0.2096246E+03  0.7818608E-02  0.1141864E+00
          5   -1    0    0  501    0  0.00000000000E+00  0.00000000000E+00  0.38564883658E+03  0.38567747557E+03  0.47000000000E+01 0. -1.
         -5   -1    0    0    0  501 -0.00000000000E+00 -0.00000000000E+00 -0.12360862632E+03  0.12369794865E+03  0.47000000000E+01 0.  1.
          6    1    1    2  502    0  0.53818159722E+01  0.11970586689E+03  0.20249893188E+03  0.29145887518E+03  0.17200000000E+03 0. -1.
         -6    1    1    2    0  502 -0.53818159722E+01 -0.11970586689E+03  0.59541278388E+02  0.21791654903E+03  0.17200000000E+03 0.  1.
</event>
<event>
 4    1 -0.3240665E-004  0.1805236E+03  0.7818608E-02  0.1167297E+00
          5   -1    0    0  501    0  0.00000000000E+00  0.00000000000E+00  0.12139408277E+03  0.12148503337E+03  0.47000000000E+01 0. -1.
         -5   -1    0    0    0  501 -0.00000000000E+00 -0.00000000000E+00 -0.29126181508E+03  0.29129973382E+03  0.47000000000E+01 0.  1.
          6    1    1    2  502    0 -0.23821645354E+02 -0.49368864535E+02 -0.14294401633E+03  0.23026451611E+03  0.17200000000E+03 0.  1.
         -6    1    1    2    0  502  0.23821645354E+02  0.49368864535E+02 -0.26923715976E+02  0.18252025108E+03  0.17200000000E+03 0. -1.
</event>
<event>
 4    1 -0.3240665E-004  0.3293139E+03  0.7818608E-02  0.1071441E+00
          5   -1    0    0  501    0  0.00000000000E+00  0.00000000000E+00  0.35980638977E+03  0.35983708552E+03  0.47000000000E+01 0. -1.
         -5   -1    0    0    0  501 -0.00000000000E+00 -0.00000000000E+00 -0.77274500603E+03  0.77275929910E+03  0.47000000000E+01 0.  1.
          6    1    1    2  502    0  0.21517685257E+02  0.28000117805E+03  0.23582021954E+03  0.40504178356E+03  0.17200000000E+03 0. -1.
         -6    1    1    2    0  502 -0.21517685257E+02 -0.28000117805E+03 -0.64875883581E+03  0.72755460106E+03  0.17200000000E+03 0.  1.
</event>
<event>
 4    1 -0.3240665E-004  0.1829015E+03  0.7818608E-02  0.1165024E+00
          5   -1    0    0  501    0  0.00000000000E+00  0.00000000000E+00  0.99433492004E+03  0.99434602791E+03  0.47000000000E+01 0. -1.
         -5   -1    0    0    0  501 -0.00000000000E+00 -0.00000000000E+00 -0.44958811263E+02  0.45203813005E+02  0.47000000000E+01 0.  1.
          6    1    1    2  502    0 -0.40239670192E+02  0.47431135385E+02  0.73659600454E+03  0.75896417410E+03  0.17200000000E+03 0. -1.
         -6    1    1    2    0  502  0.40239670192E+02 -0.47431135385E+02  0.21278010424E+03  0.28058566681E+03  0.17200000000E+03 0.  1.
</event>
<event>
 4    1 -0.3240665E-004  0.1799505E+03  0.7818608E-02  0.1167851E+00
         -5   -1    0    0    0  501 -0.00000000000E+00  0.00000000000E+00  0.11198455204E+04  0.11198553833E+04  0.47000000000E+01 0.  1.
          5   -1    0    0  501    0  0.00000000000E+00 -0.00000000000E+00 -0.30707175895E+02  0.31064781529E+02  0.47000000000E+01 0. -1.
          6    1    1    2  502    0 -0.17840924721E+01 -0.52867661529E+02  0.39891464736E+03  0.43762434633E+03  0.17200000000E+03 0. -1.
         -6    1    1    2    0  502  0.17840924721E+01  0.52867661529E+02  0.69022369712E+03  0.71329581850E+03  0.17200000000E+03 0. -1.
</event>
<event>
 4    1 -0.3240665E-004  0.1991368E+03  0.7818608E-02  0.1150469E+00
         -5   -1    0    0    0  501 -0.00000000000E+00  0.00000000000E+00  0.93557107443E+02  0.93675089288E+02  0.47000000000E+01 0.  1.
          5   -1    0    0  501    0  0.00000000000E+00 -0.00000000000E+00 -0.42524352177E+03  0.42526949433E+03  0.47000000000E+01 0. -1.
          6    1    1    2  502    0 -0.78358819844E+02  0.62700698654E+02 -0.14906942801E+03  0.24875123442E+03  0.17200000000E+03 0.  1.
         -6    1    1    2    0  502  0.78358819844E+02 -0.62700698654E+02 -0.18261698632E+03  0.27019334920E+03  0.17200000000E+03 0.  1.
</event>
<event>
 4    1 -0.3240665E-004  0.4482924E+03  0.7818608E-02  0.1028232E+00
          5   -1    0    0  501    0  0.00000000000E+00  0.00000000000E+00  0.95630726152E+03  0.95631881109E+03  0.47000000000E+01 0. -1.
         -5   -1    0    0    0  501 -0.00000000000E+00 -0.00000000000E+00 -0.32833508793E+03  0.32836872562E+03  0.47000000000E+01 0.  1.
          6    1    1    2  502    0  0.25458833870E+03 -0.32644582935E+03  0.69940186106E+03  0.83074007063E+03  0.17200000000E+03 0. -1.
         -6    1    1    2    0  502 -0.25458833870E+03  0.32644582935E+03 -0.71429687465E+02  0.45394746607E+03  0.17200000000E+03 0.  1.
</event>
<event>
 4    1 -0.3240665E-004  0.2783306E+03  0.7818608E-02  0.1096604E+00
         -5   -1    0    0    0  501 -0.00000000000E+00  0.00000000000E+00  0.13595212418E+03  0.13603334176E+03  0.47000000000E+01 0.  1.
          5   -1    0    0  501    0  0.00000000000E+00 -0.00000000000E+00 -0.80525180362E+03  0.80526551971E+03  0.47000000000E+01 0. -1.
          6    1    1    2  502    0  0.20690104433E+03  0.71245382439E+02 -0.58926281299E+03  0.65168904351E+03  0.17200000000E+03 0. -1.
         -6    1    1    2    0  502 -0.20690104433E+03 -0.71245382439E+02 -0.80036866452E+02  0.28960981795E+03  0.17200000000E+03 0.  1.
</event>
<event>
 4    1 -0.3240665E-004  0.1745180E+03  0.7818608E-02  0.1173217E+00
         -5   -1    0    0    0  501 -0.00000000000E+00  0.00000000000E+00  0.20124679715E+03  0.20130167253E+03  0.47000000000E+01 0.  1.
          5   -1    0    0  501    0  0.00000000000E+00 -0.00000000000E+00 -0.15576092680E+03  0.15583182062E+03  0.47000000000E+01 0. -1.
          6    1    1    2  502    0 -0.28701981065E+01 -0.29398983504E+02 -0.77094308429E+01  0.17468821824E+03  0.17200000000E+03 0. -1.
         -6    1    1    2    0  502  0.28701981065E+01  0.29398983504E+02  0.53195301187E+02  0.18244527491E+03  0.17200000000E+03 0. -1.
</event>
<event>
 4    1 -0.3240665E-004  0.1723503E+03  0.7818608E-02  0.1175419E+00
          5   -1    0    0  501    0  0.00000000000E+00  0.00000000000E+00  0.10498241712E+03  0.10508757255E+03  0.47000000000E+01 0. -1.
         -5   -1    0    0    0  501 -0.00000000000E+00 -0.00000000000E+00 -0.28970855281E+03  0.28974667482E+03  0.47000000000E+01 0.  1.
          6    1    1    2  502    0 -0.98644882773E+00 -0.10939192783E+02 -0.61626443001E+02  0.18303676542E+03  0.17200000000E+03 0. -1.
         -6    1    1    2    0  502  0.98644882773E+00  0.10939192783E+02 -0.12309969269E+03  0.21179748195E+03  0.17200000000E+03 0.  1.
</event>
<event>
 4    1 -0.3240665E-004  0.1907257E+03  0.7818608E-02  0.1157808E+00
          5   -1    0    0  501    0  0.00000000000E+00  0.00000000000E+00  0.57156813640E+02  0.57349728381E+02  0.47000000000E+01 0. -1.
         -5   -1    0    0    0  501 -0.00000000000E+00 -0.00000000000E+00 -0.63614669845E+03  0.63616406056E+03  0.47000000000E+01 0.  1.
          6    1    1    2  502    0  0.19522012610E+02  0.80069812623E+02 -0.30317902616E+03  0.35818124710E+03  0.17200000000E+03 0. -1.
         -6    1    1    2    0  502 -0.19522012610E+02 -0.80069812623E+02 -0.27581085866E+03  0.33533254185E+03  0.17200000000E+03 0. -1.
</event>
<event>
 4    1 -0.3240665E-004  0.1991235E+03  0.7818608E-02  0.1150481E+00
          5   -1    0    0  501    0  0.00000000000E+00  0.00000000000E+00  0.80203271198E+03  0.80204648312E+03  0.47000000000E+01 0. -1.
         -5   -1    0    0    0  501 -0.00000000000E+00 -0.00000000000E+00 -0.49907225415E+02  0.50128047524E+02  0.47000000000E+01 0.  1.
          6    1    1    2  502    0  0.24380127093E+02 -0.97323153107E+02  0.42251760972E+03  0.46708812579E+03  0.17200000000E+03 0. -1.
         -6    1    1    2    0  502 -0.24380127093E+02  0.97323153107E+02  0.32960787685E+03  0.38508640486E+03  0.17200000000E+03 0. -1.
</event>
<event>
 4    1 -0.3240665E-004  0.4735775E+03  0.7818608E-02  0.1020915E+00
          5   -1    0    0  501    0  0.00000000000E+00  0.00000000000E+00  0.11818398473E+04  0.11818491928E+04  0.47000000000E+01 0. -1.
         -5   -1    0    0    0  501 -0.00000000000E+00 -0.00000000000E+00 -0.22856523801E+03  0.22861355608E+03  0.47000000000E+01 0.  1.
          6    1    1    2  502    0  0.33522941293E+03  0.28690227641E+03  0.76729737344E+03  0.90167673519E+03  0.17200000000E+03 0. -1.
         -6    1    1    2    0  502 -0.33522941293E+03 -0.28690227641E+03  0.18597723581E+03  0.50878601371E+03  0.17200000000E+03 0.  1.
</event>
<event>
 4    1 -0.3240665E-004  0.3973695E+03  0.7818608E-02  0.1044694E+00
         -5   -1    0    0    0  501 -0.00000000000E+00  0.00000000000E+00  0.10282554546E+04  0.10282661961E+04  0.47000000000E+01 0.  1.
          5   -1    0    0  501    0  0.00000000000E+00 -0.00000000000E+00 -0.24559277767E+03  0.24563774638E+03  0.47000000000E+01 0. -1.
          6    1    1    2  502    0  0.32308015846E+03  0.15471823186E+03  0.13778891775E+01  0.39737188959E+03  0.17200000000E+03 0. -1.
         -6    1    1    2    0  502 -0.32308015846E+03 -0.15471823186E+03  0.78128478777E+03  0.87653205284E+03  0.17200000000E+03 0.  1.
</event>
<event>
 4    1 -0.3240665E-004  0.1864850E+03  0.7818608E-02  0.1161670E+00
         -5   -1    0    0    0  501 -0.00000000000E+00  0.00000000000E+00  0.15731546811E+03  0.15738566169E+03  0.47000000000E+01 0.  1.
          5   -1    0    0  501    0  0.00000000000E+00 -0.00000000000E+00 -0.48498579313E+03  0.48500856646E+03  0.47000000000E+01 0. -1.
          6    1    1    2  502    0  0.59908513669E+02  0.40045272829E+02 -0.40081783253E+03  0.44207645126E+03  0.17200000000E+03 0. -1.
         -6    1    1    2    0  502 -0.59908513669E+02 -0.40045272829E+02  0.73147507506E+02  0.20031777690E+03  0.17200000000E+03 0.  1.
</event>
<event>
 4    1 -0.3240665E-004  0.3837454E+03  0.7818608E-02  0.1049558E+00
          5   -1    0    0  501    0  0.00000000000E+00  0.00000000000E+00  0.93746654702E+03  0.93747832870E+03  0.47000000000E+01 0. -1.
         -5   -1    0    0    0  501 -0.00000000000E+00 -0.00000000000E+00 -0.16272305386E+03  0.16279091577E+03  0.47000000000E+01 0.  1.
          6    1    1    2  502    0 -0.87400898201E+02 -0.33171921688E+03  0.28454754207E+03  0.47773199553E+03  0.17200000000E+03 0. -1.
         -6    1    1    2    0  502  0.87400898201E+02  0.33171921688E+03  0.49019595110E+03  0.62253724895E+03  0.17200000000E+03 0.  1.
</event>
<event>
 4    1 -0.3240665E-004  0.3120119E+03  0.7818608E-02  0.1079386E+00
         -5   -1    0    0    0  501 -0.00000000000E+00  0.00000000000E+00  0.36741928721E+03  0.36744934700E+03  0.47000000000E+01 0.  1.
          5   -1    0    0  501    0  0.00000000000E+00 -0.00000000000E+00 -0.30181914131E+03  0.30185573386E+03  0.47000000000E+01 0. -1.
          6    1    1    2  502    0 -0.12015157655E+03 -0.23093514153E+03  0.14983260022E+03  0.34612317031E+03  0.17200000000E+03 0.  1.
         -6    1    1    2    0  502  0.12015157655E+03  0.23093514153E+03 -0.84232454320E+02  0.32318191054E+03  0.17200000000E+03 0. -1.
</event>
<event>
 4    1 -0.3240665E-004  0.2207364E+03  0.7818608E-02  0.1133335E+00
          5   -1    0    0  501    0  0.00000000000E+00  0.00000000000E+00  0.45934446847E+03  0.45936851298E+03  0.47000000000E+01 0. -1.
         -5   -1    0    0    0  501 -0.00000000000E+00 -0.00000000000E+00 -0.11630200858E+03  0.11639693810E+03  0.47000000000E+01 0.  1.
          6    1    1    2  502    0 -0.12903344579E+03  0.49909099667E+02  0.25717639086E+03  0.33891627930E+03  0.17200000000E+03 0. -1.
         -6    1    1    2    0  502  0.12903344579E+03 -0.49909099667E+02  0.85866069040E+02  0.23684917178E+03  0.17200000000E+03 0.  1.
</event>
<event>
 4    1 -0.3240665E-004  0.2782306E+03  0.7818608E-02  0.1096659E+00
          5   -1    0    0  501    0  0.00000000000E+00  0.00000000000E+00  0.68798246458E+03  0.68799851858E+03  0.47000000000E+01 0. -1.
         -5   -1    0    0    0  501 -0.00000000000E+00 -0.00000000000E+00 -0.11246833580E+03  0.11256649838E+03  0.47000000000E+01 0.  1.
          6    1    1    2  502    0  0.21491083334E+03 -0.40516922973E+02  0.28328329393E+03  0.39706638230E+03  0.17200000000E+03 0. -1.
         -6    1    1    2    0  502 -0.21491083334E+03  0.40516922973E+02  0.29223083485E+03  0.40349863466E+03  0.17200000000E+03 0.  1.
</event>
<event>
 4    1 -0.3240665E-004  0.3556738E+03  0.7818608E-02  0.1060310E+00
         -5   -1    0    0    0  501 -0.00000000000E+00  0.00000000000E+00  0.42601490249E+03  0.42604082803E+03  0.47000000000E+01 0.  1.
          5   -1    0    0  501    0  0.00000000000E+00 -0.00000000000E+00 -0.29935467139E+03  0.29939156515E+03  0.47000000000E+01 0. -1.
          6    1    1    2  502    0 -0.27563394151E+03 -0.14472662163E+03  0.30444880182E+02  0.35697444649E+03  0.17200000000E+03 0. -1.
         -6    1    1    2    0  502  0.27563394151E+03  0.14472662163E+03  0.96215350926E+02  0.36845794668E+03  0.17200000000E+03 0. -1.
</event>
<event>
 4    1 -0.3240665E-004  0.2066539E+03  0.7818608E-02  0.1144244E+00
          5   -1    0    0  501    0  0.00000000000E+00  0.00000000000E+00  0.18199171051E+03  0.18205238997E+03  0.47000000000E+01 0. -1.
         -5   -1    0    0    0  501 -0.00000000000E+00 -0.00000000000E+00 -0.23777166136E+03  0.23781810895E+03  0.47000000000E+01 0.  1.
          6    1    1    2  502    0 -0.90792437824E+02 -0.69846599639E+02 -0.34006157907E+01  0.20668182899E+03  0.17200000000E+03 0. -1.
         -6    1    1    2    0  502  0.90792437824E+02  0.69846599639E+02 -0.52379335061E+02  0.21318866993E+03  0.17200000000E+03 0.  1.
</event>
<event>
 4    1 -0.3240665E-004  0.4059758E+03  0.7818608E-02  0.1041730E+00
          5   -1    0    0  501    0  0.00000000000E+00  0.00000000000E+00  0.37003392150E+03  0.37006376891E+03  0.47000000000E+01 0. -1.
         -5   -1    0    0    0  501 -0.00000000000E+00 -0.00000000000E+00 -0.11433617172E+04  0.11433713772E+04  0.47000000000E+01 0.  1.
          6    1    1    2  502    0  0.26055816829E+03 -0.25950304412E+03  0.20457749365E+03  0.45460789685E+03  0.17200000000E+03 0. -1.
         -6    1    1    2    0  502 -0.26055816829E+03  0.25950304412E+03 -0.97790528931E+03  0.10588272493E+04  0.17200000000E+03 0.  1.
</event>
<event>
 4    1 -0.3240665E-004  0.2783177E+03  0.7818608E-02  0.1096611E+00
         -5   -1    0    0    0  501 -0.00000000000E+00  0.00000000000E+00  0.17756113041E+03  0.17762332344E+03  0.47000000000E+01 0.  1.
          5   -1    0    0  501    0  0.00000000000E+00 -0.00000000000E+00 -0.44867000016E+03  0.44869461669E+03  0.47000000000E+01 0. -1.
          6    1    1    2  502    0  0.78686633157E+02  0.20416942155E+03 -0.83136741334E+02  0.29046937307E+03  0.17200000000E+03 0. -1.
         -6    1    1    2    0  502 -0.78686633157E+02 -0.20416942155E+03 -0.18797212842E+03  0.33584856706E+03  0.17200000000E+03 0.  1.
</event>
<event>
 4    1 -0.3240665E-004  0.1730981E+03  0.7818608E-02  0.1174655E+00
          5   -1    0    0  501    0  0.00000000000E+00  0.00000000000E+00  0.28166130418E+03  0.28170051521E+03  0.47000000000E+01 0. -1.
         -5   -1    0    0    0  501 -0.00000000000E+00 -0.00000000000E+00 -0.14578550955E+03  0.14586125186E+03  0.47000000000E+01 0.  1.
          6    1    1    2  502    0  0.61661812202E+01  0.18464753570E+02  0.17917344451E+03  0.24913067281E+03  0.17200000000E+03 0. -1.
         -6    1    1    2    0  502 -0.61661812202E+01 -0.18464753570E+02 -0.43297649881E+02  0.17843109426E+03  0.17200000000E+03 0.  1.
</event>
<event>
 4    1 -0.3240665E-004  0.1924448E+03  0.7818608E-02  0.1156275E+00
         -5   -1    0    0    0  501 -0.00000000000E+00  0.00000000000E+00  0.40659777809E+03  0.40662494162E+03  0.47000000000E+01 0.  1.
          5   -1    0    0  501    0  0.00000000000E+00 -0.00000000000E+00 -0.10498764303E+03  0.10509279323E+03  0.47000000000E+01 0. -1.
          6    1    1    2  502    0  0.15527776829E+02 -0.84911068800E+02  0.24415257512E+03  0.31087856374E+03  0.17200000000E+03 0. -1.
         -6    1    1    2    0  502 -0.15527776829E+02  0.84911068800E+02  0.57457559940E+02  0.20083917111E+03  0.17200000000E+03 0. -1.
</event>
<event>
 4    1 -0.3240665E-004  0.2685567E+03  0.7818608E-02  0.1102109E+00
          5   -1    0    0  501    0  0.00000000000E+00  0.00000000000E+00  0.34549099578E+03  0.34552296330E+03  0.47000000000E+01 0. -1.
         -5   -1    0    0    0  501 -0.00000000000E+00 -0.00000000000E+00 -0.24649585973E+03  0.24654066372E+03  0.47000000000E+01 0.  1.
          6    1    1    2  502    0  0.10640138311E+02 -0.20597446786E+03  0.16541914787E+03  0.31541431235E+03  0.17200000000E+03 0. -1.
         -6    1    1    2    0  502 -0.10640138311E+02  0.20597446786E+03 -0.66424011822E+02  0.27664931466E+03  0.17200000000E+03 0.  1.
</event>
<event>
 4    1 -0.3240665E-004  0.2418872E+03  0.7818608E-02  0.1118542E+00
          5   -1    0    0  501    0  0.00000000000E+00  0.00000000000E+00  0.62721200369E+02  0.62897050612E+02  0.47000000000E+01 0. -1.
         -5   -1    0    0    0  501 -0.00000000000E+00 -0.00000000000E+00 -0.96687828205E+03  0.96688970535E+03  0.47000000000E+01 0.  1.
          6    1    1    2  502    0  0.29860632591E+02 -0.16743289158E+03 -0.35340402532E+03  0.42825674037E+03  0.17200000000E+03 0. -1.
         -6    1    1    2    0  502 -0.29860632591E+02  0.16743289158E+03 -0.55075305637E+03  0.60153001559E+03  0.17200000000E+03 0. -1.
</event>
<event>
 4    1 -0.3240665E-004  0.3800335E+03  0.7818608E-02  0.1050921E+00
         -5   -1    0    0    0  501 -0.00000000000E+00  0.00000000000E+00  0.25518752235E+03  0.25523080057E+03  0.47000000000E+01 0.  1.
          5   -1    0    0  501    0  0.00000000000E+00 -0.00000000000E+00 -0.57972281267E+03  0.57974186456E+03  0.47000000000E+01 0. -1.
          6    1    1    2  502    0  0.33534675406E+03 -0.48826256500E+02 -0.97705207189E+02  0.39239234994E+03  0.17200000000E+03 0. -1.
         -6    1    1    2    0  502 -0.33534675406E+03  0.48826256500E+02 -0.22683008313E+03  0.44258031519E+03  0.17200000000E+03 0.  1.
</event>
<event>
 4    1 -0.3240665E-004  0.2998183E+03  0.7818608E-02  0.1085331E+00
         -5   -1    0    0    0  501 -0.00000000000E+00  0.00000000000E+00  0.30475787499E+03  0.30479411472E+03  0.47000000000E+01 0.  1.
          5   -1    0    0  501    0  0.00000000000E+00 -0.00000000000E+00 -0.47007178814E+03  0.47009528397E+03  0.47000000000E+01 0. -1.
          6    1    1    2  502    0 -0.12180510478E+03  0.21323815691E+03 -0.31916502976E+03  0.43790102916E+03  0.17200000000E+03 0. -1.
         -6    1    1    2    0  502  0.12180510478E+03 -0.21323815691E+03  0.15385111661E+03  0.33698836953E+03  0.17200000000E+03 0.  1.
</event>
<event>
 4    1 -0.3240665E-004  0.2274245E+03  0.7818608E-02  0.1128466E+00
          5   -1    0    0  501    0  0.00000000000E+00  0.00000000000E+00  0.13510465791E+03  0.13518638462E+03  0.47000000000E+01 0. -1.
         -5   -1    0    0    0  501 -0.00000000000E+00 -0.00000000000E+00 -0.42061610278E+03  0.42064236106E+03  0.47000000000E+01 0.  1.
          6    1    1    2  502    0  0.13842045341E+03  0.54568105687E+02 -0.22627779642E+03  0.32081699025E+03  0.17200000000E+03 0.  1.
         -6    1    1    2    0  502 -0.13842045341E+03 -0.54568105687E+02 -0.59233648451E+02  0.23501175543E+03  0.17200000000E+03 0. -1.
</event>
<event>
 4    1 -0.3240665E-004  0.2496539E+03  0.7818608E-02  0.1113524E+00
         -5   -1    0    0    0  501 -0.00000000000E+00  0.00000000000E+00  0.23627674742E+04  0.23627721488E+04  0.47000000000E+01 0.  1.
          5   -1    0    0  501    0  0.00000000000E+00 -0.00000000000E+00 -0.28512907307E+02  0.28897679545E+02  0.47000000000E+01 0. -1.
          6    1    1    2  502    0 -0.15814787316E+03  0.87933705133E+02  0.15078801764E+04  0.15284075741E+04  0.17200000000E+03 0. -1.
         -6    1    1    2    0  502  0.15814787316E+03 -0.87933705133E+02  0.82637439052E+03  0.86326225423E+03  0.17200000000E+03 0.  1.
</event>
<event>
 4    1 -0.3240665E-004  0.3043877E+03  0.7818608E-02  0.1083068E+00
          5   -1    0    0  501    0  0.00000000000E+00  0.00000000000E+00  0.68571376548E+03  0.68572987260E+03  0.47000000000E+01 0. -1.
         -5   -1    0    0    0  501 -0.00000000000E+00 -0.00000000000E+00 -0.22295559609E+03  0.22300512960E+03  0.47000000000E+01 0.  1.
          6    1    1    2  502    0  0.21826776230E+03  0.12420582185E+03  0.51661536616E+03  0.59961932823E+03  0.17200000000E+03 0. -1.
         -6    1    1    2    0  502 -0.21826776230E+03 -0.12420582185E+03 -0.53857196760E+02  0.30911567396E+03  0.17200000000E+03 0.  1.
</event>
<event>
 4    1 -0.3240665E-004  0.1740272E+03  0.7818608E-02  0.1173712E+00
         -5   -1    0    0    0  501 -0.00000000000E+00  0.00000000000E+00  0.42408329322E+03  0.42410933683E+03  0.47000000000E+01 0.  1.
          5   -1    0    0  501    0  0.00000000000E+00 -0.00000000000E+00 -0.91645690079E+02  0.91766129427E+02  0.47000000000E+01 0. -1.
          6    1    1    2  502    0  0.26354368448E+01  0.26353764411E+02  0.44818871362E+02  0.17970586428E+03  0.17200000000E+03 0. -1.
         -6    1    1    2    0  502 -0.26354368448E+01 -0.26353764411E+02  0.28761873178E+03  0.33616960198E+03  0.17200000000E+03 0.  1.
</event>
<event>
 4    1 -0.3240665E-004  0.3065480E+03  0.7818608E-02  0.1082012E+00
          5   -1    0    0  501    0  0.00000000000E+00  0.00000000000E+00  0.36184743641E+03  0.36187795904E+03  0.47000000000E+01 0. -1.
         -5   -1    0    0    0  501 -0.00000000000E+00 -0.00000000000E+00 -0.10897248094E+04  0.10897349449E+04  0.47000000000E+01 0.  1.
          6    1    1    2  502    0 -0.22726852439E+03 -0.11285694430E+03  0.26951242673E+03  0.40817719218E+03  0.17200000000E+03 0. -1.
         -6    1    1    2    0  502  0.22726852439E+03  0.11285694430E+03 -0.99738979970E+03  0.10434357118E+04  0.17200000000E+03 0.  1.
</event>
<event>
 4    1 -0.3240665E-004  0.1841578E+03  0.7818608E-02  0.1163839E+00
          5   -1    0    0  501    0  0.00000000000E+00  0.00000000000E+00  0.10729188714E+04  0.10729291657E+04  0.47000000000E+01 0. -1.
         -5   -1    0    0    0  501 -0.00000000000E+00 -0.00000000000E+00 -0.35310390092E+02  0.35621814222E+02  0.47000000000E+01 0.  1.
          6    1    1    2  502    0  0.63073853777E+02  0.18756189465E+02  0.70180912176E+03  0.72556884515E+03  0.17200000000E+03 0. -1.
         -6    1    1    2    0  502 -0.63073853777E+02 -0.18756189465E+02  0.33579935952E+03  0.38298213473E+03  0.17200000000E+03 0.  1.
</event>
<event>
 4    1 -0.3240665E-004  0.2200690E+03  0.7818608E-02  0.1133832E+00
         -5   -1    0    0    0  501 -0.00000000000E+00  0.00000000000E+00  0.17322877194E+04  0.17322940954E+04  0.47000000000E+01 0.  1.
          5   -1    0    0  501    0  0.00000000000E+00 -0.00000000000E+00 -0.35000779329E+02  0.35314933861E+02  0.47000000000E+01 0. -1.
          6    1    1    2  502    0 -0.11688005672E+03 -0.72009783355E+02  0.12487519437E+04  0.12679951788E+04  0.17200000000E+03 0.  1.
         -6    1    1    2    0  502  0.11688005672E+03  0.72009783355E+02  0.44853499641E+03  0.49961385045E+03  0.17200000000E+03 0. -1.
</event>
<event>
 4    1 -0.3240665E-004  0.1905299E+03  0.7818608E-02  0.1157984E+00
          5   -1    0    0  501    0  0.00000000000E+00  0.00000000000E+00  0.32652284970E+02  0.32988811948E+02  0.47000000000E+01 0. -1.
         -5   -1    0    0    0  501 -0.00000000000E+00 -0.00000000000E+00 -0.14581996087E+04  0.14582071831E+04  0.47000000000E+01 0.  1.
          6    1    1    2  502    0  0.52911958342E+02  0.62593618675E+02 -0.34624314892E+03  0.39520368749E+03  0.17200000000E+03 0. -1.
         -6    1    1    2    0  502 -0.52911958342E+02 -0.62593618675E+02 -0.10793041749E+04  0.10959923076E+04  0.17200000000E+03 0.  1.
</event>
<event>
 4    1 -0.3240665E-004  0.1835609E+03  0.7818608E-02  0.1164401E+00
         -5   -1    0    0    0  501 -0.00000000000E+00  0.00000000000E+00  0.37002188575E+02  0.37299490068E+02  0.47000000000E+01 0.  1.
          5   -1    0    0  501    0  0.00000000000E+00 -0.00000000000E+00 -0.96975761610E+03  0.96976900547E+03  0.47000000000E+01 0. -1.
          6    1    1    2  502    0 -0.35943596494E+02 -0.53090996508E+02 -0.59479436850E+03  0.62247484835E+03  0.17200000000E+03 0. -1.
         -6    1    1    2    0  502  0.35943596494E+02  0.53090996508E+02 -0.33796105903E+03  0.38459364719E+03  0.17200000000E+03 0.  1.
</event>
<event>
 4    1 -0.3240665E-004  0.2612325E+03  0.7818608E-02  0.1106405E+00
         -5   -1    0    0    0  501 -0.00000000000E+00  0.00000000000E+00  0.31450028290E+03  0.31453540015E+03  0.47000000000E+01 0.  1.
          5   -1    0    0  501    0  0.00000000000E+00 -0.00000000000E+00 -0.22110116905E+03  0.22115111792E+03  0.47000000000E+01 0. -1.
          6    1    1    2  502    0 -0.13835203868E+03 -0.13970370662E+03  0.83551068003E+02  0.27426846923E+03  0.17200000000E+03 0. -1.
         -6    1    1    2    0  502  0.13835203868E+03  0.13970370662E+03  0.98480458483E+01  0.26141804884E+03  0.17200000000E+03 0. -1.
</event>
<event>
 4    1 -0.3240665E-004  0.1825474E+03  0.7818608E-02  0.1165360E+00
         -5   -1    0    0    0  501 -0.00000000000E+00  0.00000000000E+00  0.11280444051E+04  0.11280541964E+04  0.47000000000E+01 0.  1.
          5   -1    0    0  501    0  0.00000000000E+00 -0.00000000000E+00 -0.29372707869E+02  0.29746360576E+02  0.47000000000E+01 0. -1.
          6    1    1    2  502    0 -0.39899929530E+02 -0.46341612680E+02  0.53137494355E+03  0.56185663658E+03  0.17200000000E+03 0.  1.
         -6    1    1    2    0  502  0.39899929530E+02  0.46341612680E+02  0.56729675372E+03  0.59594392037E+03  0.17200000000E+03 0.  1.
</event>
<event>
 4    1 -0.3240665E-004  0.4632964E+03  0.7818608E-02  0.1023829E+00
         -5   -1    0    0    0  501 -0.00000000000E+00  0.00000000000E+00  0.59199574435E+03  0.59201440129E+03  0.47000000000E+01 0.  1.
          5   -1    0    0  501    0  0.00000000000E+00 -0.00000000000E+00 -0.36260139007E+03  0.36263184923E+03  0.47000000000E+01 0. -1.
          6    1    1    2  502    0 -0.38097419547E+03  0.19979547032E+03  0.12107732510E+03  0.47885622710E+03  0.17200000000E+03 0. -1.
         -6    1    1    2    0  502  0.38097419547E+03 -0.19979547032E+03  0.10831702918E+03  0.47579002342E+03  0.17200000000E+03 0.  1.
</event>
<event>
 4    1 -0.3240665E-004  0.2658879E+03  0.7818608E-02  0.1103656E+00
          5   -1    0    0  501    0  0.00000000000E+00  0.00000000000E+00  0.17741477494E+03  0.17747701927E+03  0.47000000000E+01 0. -1.
         -5   -1    0    0    0  501 -0.00000000000E+00 -0.00000000000E+00 -0.49411150533E+03  0.49413385808E+03  0.47000000000E+01 0.  1.
          6    1    1    2  502    0  0.18380881731E+03 -0.85596163707E+02 -0.10516930944E+02  0.26609582935E+03  0.17200000000E+03 0. -1.
         -6    1    1    2    0  502 -0.18380881731E+03  0.85596163707E+02 -0.30617979944E+03  0.40551504799E+03  0.17200000000E+03 0.  1.
</event>
<event>
 4    1 -0.3240665E-004  0.3072192E+03  0.7818608E-02  0.1081686E+00
         -5   -1    0    0    0  501 -0.00000000000E+00  0.00000000000E+00  0.86739801738E+03  0.86741075077E+03  0.47000000000E+01 0.  1.
          5   -1    0    0  501    0  0.00000000000E+00 -0.00000000000E+00 -0.17424334469E+03  0.17430672153E+03  0.47000000000E+01 0. -1.
          6    1    1    2  502    0 -0.26628955660E+02  0.25316107654E+03  0.27329306210E+02  0.30843236362E+03  0.17200000000E+03 0. -1.
         -6    1    1    2    0  502  0.26628955660E+02 -0.25316107654E+03  0.66582536648E+03  0.73328510867E+03  0.17200000000E+03 0.  1.
</event>
<event>
 4    1 -0.3240665E-004  0.2316746E+03  0.7818608E-02  0.1125467E+00
         -5   -1    0    0    0  501 -0.00000000000E+00  0.00000000000E+00  0.42156256392E+03  0.42158876325E+03  0.47000000000E+01 0.  1.
          5   -1    0    0  501    0  0.00000000000E+00 -0.00000000000E+00 -0.12725842003E+03  0.12734518235E+03  0.47000000000E+01 0. -1.
          6    1    1    2  502    0  0.13297952763E+03 -0.80034885754E+02  0.14443790937E+03  0.27301180812E+03  0.17200000000E+03 0.  1.
         -6    1    1    2    0  502 -0.13297952763E+03  0.80034885754E+02  0.14986623452E+03  0.27592213749E+03  0.17200000000E+03 0.  1.
</event>
<event>
 4    1 -0.3240665E-004  0.1925228E+03  0.7818608E-02  0.1156205E+00
         -5   -1    0    0    0  501 -0.00000000000E+00  0.00000000000E+00  0.19548150533E+03  0.19553799868E+03  0.47000000000E+01 0.  1.
          5   -1    0    0  501    0  0.00000000000E+00 -0.00000000000E+00 -0.23486321389E+03  0.23491023656E+03  0.47000000000E+01 0. -1.
          6    1    1    2  502    0  0.12990760739E+02  0.85511833000E+02 -0.11426103256E+03  0.22387634312E+03  0.17200000000E+03 0. -1.
         -6    1    1    2    0  502 -0.12990760739E+02 -0.85511833000E+02  0.74879324004E+02  0.20657189211E+03  0.17200000000E+03 0.  1.
</event>
<event>
 4    1 -0.3240665E-004  0.1901108E+03  0.7818608E-02  0.1158361E+00
         -5   -1    0    0    0  501 -0.00000000000E+00  0.00000000000E+00  0.21007152906E+03  0.21012409981E+03  0.47000000000E+01 0.  1.
          5   -1    0    0  501    0  0.00000000000E+00 -0.00000000000E+00 -0.38684249115E+03  0.38687104177E+03  0.47000000000E+01 0. -1.
          6    1    1    2  502    0 -0.51652012974E+02 -0.62371222319E+02 -0.31083858257E+03  0.36436619524E+03  0.17200000000E+03 0. -1.
         -6    1    1    2    0  502  0.51652012974E+02  0.62371222319E+02  0.13406762048E+03  0.23262894635E+03  0.17200000000E+03 0.  1.
</event>
<event>
 4    1 -0.3240665E-004  0.2946082E+03  0.7818608E-02  0.1087967E+00
         -5   -1    0    0    0  501 -0.00000000000E+00  0.00000000000E+00  0.28653104829E+03  0.28656959300E+03  0.47000000000E+01 0.  1.
          5   -1    0    0  501    0  0.00000000000E+00 -0.00000000000E+00 -0.33380276364E+03  0.33383585040E+03  0.47000000000E+01 0. -1.
          6    1    1    2  502    0  0.18241570557E+03 -0.15470770063E+03 -0.11810769262E+03  0.31740099138E+03  0.17200000000E+03 0. -1.
         -6    1    1    2    0  502 -0.18241570557E+03  0.15470770063E+03  0.70835977266E+02  0.30300445203E+03  0.17200000000E+03 0.  1.
</event>
<event>
 4    1 -0.3240665E-004  0.1948999E+03  0.7818608E-02  0.1154115E+00
          5   -1    0    0  501    0  0.00000000000E+00  0.00000000000E+00  0.91887756035E+02  0.92007878516E+02  0.47000000000E+01 0. -1.
         -5   -1    0    0    0  501 -0.00000000000E+00 -0.00000000000E+00 -0.41791827543E+03  0.41794470321E+03  0.47000000000E+01 0.  1.
          6    1    1    2  502    0 -0.91360973079E+02 -0.74257697255E+01 -0.13533652465E+03  0.23728030757E+03  0.17200000000E+03 0. -1.
         -6    1    1    2    0  502  0.91360973079E+02  0.74257697255E+01 -0.19069399474E+03  0.27267227415E+03  0.17200000000E+03 0.  1.
</event>
<event>
 4    1 -0.3240665E-004  0.2407417E+03  0.7818608E-02  0.1119300E+00
         -5   -1    0    0    0  501 -0.00000000000E+00  0.00000000000E+00  0.79275801578E+02  0.79415003090E+02  0.47000000000E+01 0.  1.
          5   -1    0    0  501    0  0.00000000000E+00 -0.00000000000E+00 -0.10492708976E+04  0.10492814239E+04  0.47000000000E+01 0. -1.
          6    1    1    2  502    0 -0.72969005254E+02  0.15181594549E+03 -0.79613786941E+03  0.83174038266E+03  0.17200000000E+03 0. -1.
         -6    1    1    2    0  502  0.72969005254E+02 -0.15181594549E+03 -0.17385722665E+03  0.29695604437E+03  0.17200000000E+03 0.  1.
</event>
<event>
 4    1 -0.3240665E-004  0.1721790E+03  0.7818608E-02  0.1175594E+00
          5   -1    0    0  501    0  0.00000000000E+00  0.00000000000E+00  0.95889828272E+02  0.96004943446E+02  0.47000000000E+01 0. -1.
         -5   -1    0    0    0  501 -0.00000000000E+00 -0.00000000000E+00 -0.35742482602E+03  0.35745572629E+03  0.47000000000E+01 0.  1.
          6    1    1    2  502    0 -0.87579004847E+00 -0.78002813208E+01 -0.47196416757E+02  0.17853042640E+03  0.17200000000E+03 0. -1.
         -6    1    1    2    0  502  0.87579004847E+00  0.78002813208E+01 -0.21433858100E+03  0.27493024333E+03  0.17200000000E+03 0.  1.
</event>
<event>
 4    1 -0.3240665E-004  0.2571971E+03  0.7818608E-02  0.1108839E+00
         -5   -1    0    0    0  501 -0.00000000000E+00  0.00000000000E+00  0.55424328156E+02  0.55623251897E+02  0.47000000000E+01 0.  1.
          5   -1    0    0  501    0  0.00000000000E+00 -0.00000000000E+00 -0.12107917803E+04  0.12108009024E+04  0.47000000000E+01 0. -1.
          6    1    1    2  502    0  0.52673751787E+02 -0.18382554722E+03 -0.49711049172E+03  0.55970456218E+03  0.17200000000E+03 0. -1.
         -6    1    1    2    0  502 -0.52673751787E+02  0.18382554722E+03 -0.65825696038E+03  0.70671959208E+03  0.17200000000E+03 0. -1.
</event>
<event>
 4    1 -0.3240665E-004  0.2772373E+03  0.7818608E-02  0.1097207E+00
         -5   -1    0    0    0  501 -0.00000000000E+00  0.00000000000E+00  0.26503169848E+03  0.26507336946E+03  0.47000000000E+01 0.  1.
          5   -1    0    0  501    0  0.00000000000E+00 -0.00000000000E+00 -0.29065063503E+03  0.29068863350E+03  0.47000000000E+01 0. -1.
          6    1    1    2  502    0 -0.17520206738E+03 -0.12876636740E+03  0.11059254852E+01  0.27723954419E+03  0.17200000000E+03 0. -1.
         -6    1    1    2    0  502  0.17520206738E+03  0.12876636740E+03 -0.26724862042E+02  0.27852245877E+03  0.17200000000E+03 0.  1.
</event>
<event>
 4    1 -0.3240665E-004  0.3364204E+03  0.7818608E-02  0.1068331E+00
          5   -1    0    0  501    0  0.00000000000E+00  0.00000000000E+00  0.69864558415E+03  0.69866139313E+03  0.47000000000E+01 0. -1.
         -5   -1    0    0    0  501 -0.00000000000E+00 -0.00000000000E+00 -0.46413341720E+03  0.46415721363E+03  0.47000000000E+01 0.  1.
          6    1    1    2  502    0  0.15211765831E+03 -0.24587582483E+03  0.58636116939E+03  0.67601636383E+03  0.17200000000E+03 0. -1.
         -6    1    1    2    0  502 -0.15211765831E+03  0.24587582483E+03 -0.35184900244E+03  0.48680224293E+03  0.17200000000E+03 0.  1.
</event>
<event>
 4    1 -0.3240665E-004  0.4928002E+03  0.7818608E-02  0.1015675E+00
          5   -1    0    0  501    0  0.00000000000E+00  0.00000000000E+00  0.25718925172E+03  0.25723219317E+03  0.47000000000E+01 0. -1.
         -5   -1    0    0    0  501 -0.00000000000E+00 -0.00000000000E+00 -0.96874348938E+03  0.96875489068E+03  0.47000000000E+01 0.  1.
          6    1    1    2  502    0 -0.33878269028E+03  0.31383804351E+03 -0.25806328148E+03  0.55628112141E+03  0.17200000000E+03 0. -1.
         -6    1    1    2    0  502  0.33878269028E+03 -0.31383804351E+03 -0.45349095618E+03  0.66970596244E+03  0.17200000000E+03 0.  1.
</event>
<event>
 4    1 -0.3240665E-004  0.1887660E+03  0.7818608E-02  0.1159579E+00
         -5   -1    0    0    0  501 -0.00000000000E+00  0.00000000000E+00  0.36569739241E+03  0.36572759373E+03  0.47000000000E+01 0.  1.
          5   -1    0    0  501    0  0.00000000000E+00 -0.00000000000E+00 -0.11078491573E+03  0.11088456860E+03  0.47000000000E+01 0. -1.
          6    1    1    2  502    0  0.43844835229E+02 -0.64235717960E+02  0.44509055562E+02  0.19394239626E+03  0.17200000000E+03 0. -1.
         -6    1    1    2    0  502 -0.43844835229E+02  0.64235717960E+02  0.21040342112E+03  0.28266976608E+03  0.17200000000E+03 0.  1.
</event>
<event>
 4    1 -0.3240665E-004  0.1942058E+03  0.7818608E-02  0.1154722E+00
          5   -1    0    0  501    0  0.00000000000E+00  0.00000000000E+00  0.46638384772E+03  0.46640752933E+03  0.47000000000E+01 0. -1.
         -5   -1    0    0    0  501 -0.00000000000E+00 -0.00000000000E+00 -0.16605348957E+03  0.16611999097E+03  0.47000000000E+01 0.  1.
          6    1    1    2  502    0 -0.80886607146E+02 -0.39865387174E+02  0.37672460013E+03  0.42383642676E+03  0.17200000000E+03 0. -1.
         -6    1    1    2    0  502  0.80886607146E+02  0.39865387174E+02 -0.76394241981E+02  0.20869109353E+03  0.17200000000E+03 0.  1.
</event>
<event>
 4    1 -0.3240665E-004  0.2195846E+03  0.7818608E-02  0.1134193E+00
         -5   -1    0    0    0  501 -0.00000000000E+00  0.00000000000E+00  0.32638556001E+03  0.32641939860E+03  0.47000000000E+01 0.  1.
          5   -1    0    0  501    0  0.00000000000E+00 -0.00000000000E+00 -0.23056750387E+03  0.23061540243E+03  0.47000000000E+01 0. -1.
          6    1    1    2  502    0  0.41031066937E+01  0.13644248595E+03 -0.11907704781E+03  0.24979337616E+03  0.17200000000E+03 0. -1.
         -6    1    1    2    0  502 -0.41031066937E+01 -0.13644248595E+03  0.21489510396E+03  0.30724142488E+03  0.17200000000E+03 0.  1.
</event>
<event>
 4    1 -0.3240665E-004  0.1881038E+03  0.7818608E-02  0.1160183E+00
          5   -1    0    0  501    0  0.00000000000E+00  0.00000000000E+00  0.45873637288E+02  0.46113778831E+02  0.47000000000E+01 0. -1.
         -5   -1    0    0    0  501 -0.00000000000E+00 -0.00000000000E+00 -0.77004934444E+03  0.77006368754E+03  0.47000000000E+01 0.  1.
          6    1    1    2  502    0  0.67278067296E+02 -0.35675177574E+02 -0.34742418754E+03  0.39507799574E+03  0.17200000000E+03 0. -1.
         -6    1    1    2    0  502 -0.67278067296E+02  0.35675177574E+02 -0.37675151961E+03  0.42109947063E+03  0.17200000000E+03 0. -1.
</event>
<event>
 4    1 -0.3240665E-004  0.4368181E+03  0.7818608E-02  0.1031728E+00
          5   -1    0    0  501    0  0.00000000000E+00  0.00000000000E+00  0.67056314780E+03  0.67057961883E+03  0.47000000000E+01 0. -1.
         -5   -1    0    0    0  501 -0.00000000000E+00 -0.00000000000E+00 -0.28681208379E+03  0.28685059074E+03  0.47000000000E+01 0.  1.
          6    1    1    2  502    0 -0.36403679532E+03 -0.16942046957E+03  0.14901578298E+03  0.46153633382E+03  0.17200000000E+03 0. -1.
         -6    1    1    2    0  502  0.36403679532E+03  0.16942046957E+03  0.23473528103E+03  0.49589387576E+03  0.17200000000E+03 0.  1.
</event>
<event>
 4    1 -0.3240665E-004  0.2232046E+03  0.7818608E-02  0.1131516E+00
         -5   -1    0    0    0  501 -0.00000000000E+00  0.00000000000E+00  0.51842830416E+02  0.52055442228E+02  0.47000000000E+01 0.  1.
          5   -1    0    0  501    0  0.00000000000E+00 -0.00000000000E+00 -0.97927135161E+03  0.97928263034E+03  0.47000000000E+01 0. -1.
          6    1    1    2  502    0  0.14183067260E+03 -0.10970743706E+02 -0.53825927042E+03  0.58270347442E+03  0.17200000000E+03 0. -1.
         -6    1    1    2    0  502 -0.14183067260E+03  0.10970743706E+02 -0.38916925077E+03  0.44863459815E+03  0.17200000000E+03 0.  1.
</event>
<event>
 4    1 -0.3240665E-004  0.2837707E+03  0.7818608E-02  0.1093647E+00
         -5   -1    0    0    0  501 -0.00000000000E+00  0.00000000000E+00  0.29658868787E+03  0.29662592566E+03  0.47000000000E+01 0.  1.
          5   -1    0    0  501    0  0.00000000000E+00 -0.00000000000E+00 -0.27192896324E+03  0.27196957743E+03  0.47000000000E+01 0. -1.
          6    1    1    2  502    0 -0.46938382527E+02 -0.22076814662E+03  0.24482124636E+02  0.28482478955E+03  0.17200000000E+03 0.  1.
         -6    1    1    2    0  502  0.46938382527E+02  0.22076814662E+03  0.17759999637E+00  0.28377071353E+03  0.17200000000E+03 0.  1.
</event>
<event>
 4    1 -0.3240665E-004  0.3030026E+03  0.7818608E-02  0.1083749E+00
         -5   -1    0    0    0  501 -0.00000000000E+00  0.00000000000E+00  0.30800534861E+03  0.30804120629E+03  0.47000000000E+01 0.  1.
          5   -1    0    0  501    0  0.00000000000E+00 -0.00000000000E+00 -0.57949182470E+03  0.57951088419E+03  0.47000000000E+01 0. -1.
          6    1    1    2  502    0 -0.10865146358E+03  0.22454718052E+03 -0.44501616925E+03  0.53837716121E+03  0.17200000000E+03 0. -1.
         -6    1    1    2    0  502  0.10865146358E+03 -0.22454718052E+03  0.17352969317E+03  0.34917492927E+03  0.17200000000E+03 0.  1.
</event>
<event>
 4    1 -0.3240665E-004  0.3502307E+03  0.7818608E-02  0.1062520E+00
          5   -1    0    0  501    0  0.00000000000E+00  0.00000000000E+00  0.51645724012E+03  0.51647862576E+03  0.47000000000E+01 0. -1.
         -5   -1    0    0    0  501 -0.00000000000E+00 -0.00000000000E+00 -0.56956520018E+03  0.56958459183E+03  0.47000000000E+01 0.  1.
          6    1    1    2  502    0 -0.60051742016E+02  0.29911762368E+03  0.38808774114E+03  0.52275583147E+03  0.17200000000E+03 0. -1.
         -6    1    1    2    0  502  0.60051742016E+02 -0.29911762368E+03 -0.44119570120E+03  0.56330738613E+03  0.17200000000E+03 0.  1.
</event>
<event>
 4    1 -0.3240665E-004  0.1892089E+03  0.7818608E-02  0.1159177E+00
          5   -1    0    0  501    0  0.00000000000E+00  0.00000000000E+00  0.90671154555E+03  0.90672372685E+03  0.47000000000E+01 0. -1.
         -5   -1    0    0    0  501 -0.00000000000E+00 -0.00000000000E+00 -0.48796567342E+02  0.49022392683E+02  0.47000000000E+01 0.  1.
          6    1    1    2  502    0 -0.27264807953E+02 -0.73977381209E+02  0.63885866655E+03  0.66628853998E+03  0.17200000000E+03 0. -1.
         -6    1    1    2    0  502  0.27264807953E+02  0.73977381209E+02  0.21905631165E+03  0.28945757955E+03  0.17200000000E+03 0.  1.
</event>
<event>
 4    1 -0.3240665E-004  0.2910404E+03  0.7818608E-02  0.1089807E+00
          5   -1    0    0  501    0  0.00000000000E+00  0.00000000000E+00  0.36545090525E+03  0.36548112694E+03  0.47000000000E+01 0. -1.
         -5   -1    0    0    0  501 -0.00000000000E+00 -0.00000000000E+00 -0.26993182855E+03  0.26997274318E+03  0.47000000000E+01 0.  1.
          6    1    1    2  502    0 -0.23416633841E+03  0.16931252312E+02  0.16729079512E+03  0.33569443171E+03  0.17200000000E+03 0. -1.
         -6    1    1    2    0  502  0.23416633841E+03 -0.16931252312E+02 -0.71771718420E+02  0.29975943841E+03  0.17200000000E+03 0.  1.
</event>
<event>
 4    1 -0.3240665E-004  0.2107551E+03  0.7818608E-02  0.1140969E+00
          5   -1    0    0  501    0  0.00000000000E+00  0.00000000000E+00  0.15766738386E+04  0.15766808438E+04  0.47000000000E+01 0. -1.
         -5   -1    0    0    0  501 -0.00000000000E+00 -0.00000000000E+00 -0.28524293950E+02  0.28908914635E+02  0.47000000000E+01 0.  1.
          6    1    1    2  502    0  0.11051166196E+03  0.51194436000E+02  0.88535424074E+03  0.91009330802E+03  0.17200000000E+03 0.  1.
         -6    1    1    2    0  502 -0.11051166196E+03 -0.51194436000E+02  0.66279530388E+03  0.69549645042E+03  0.17200000000E+03 0.  1.
</event>
<event>
 4    1 -0.3240665E-004  0.3301607E+03  0.7818608E-02  0.1071066E+00
          5   -1    0    0  501    0  0.00000000000E+00  0.00000000000E+00  0.27502319780E+03  0.27506335512E+03  0.47000000000E+01 0. -1.
         -5   -1    0    0    0  501 -0.00000000000E+00 -0.00000000000E+00 -0.54389533574E+03  0.54391564258E+03  0.47000000000E+01 0.  1.
          6    1    1    2  502    0  0.28033861292E+03  0.28850547287E+02  0.78888507847E+02  0.33945469306E+03  0.17200000000E+03 0. -1.
         -6    1    1    2    0  502 -0.28033861292E+03 -0.28850547287E+02 -0.34776064579E+03  0.47952430463E+03  0.17200000000E+03 0.  1.
</event>
<event>
 4    1 -0.3240665E-004  0.1864299E+03  0.7818608E-02  0.1161721E+00
         -5   -1    0    0    0  501 -0.00000000000E+00  0.00000000000E+00  0.11628994805E+04  0.11629089783E+04  0.47000000000E+01 0.  1.
          5   -1    0    0  501    0  0.00000000000E+00 -0.00000000000E+00 -0.57637709157E+02  0.57829019678E+02  0.47000000000E+01 0. -1.
          6    1    1    2  502    0  0.68953147407E+02  0.20434439437E+02  0.12869611057E+03  0.22653651302E+03  0.17200000000E+03 0. -1.
         -6    1    1    2    0  502 -0.68953147407E+02 -0.20434439437E+02  0.97656566075E+03  0.99420148492E+03  0.17200000000E+03 0.  1.
</event>
<event>
 4    1 -0.3240665E-004  0.1842478E+03  0.7818608E-02  0.1163754E+00
          5   -1    0    0  501    0  0.00000000000E+00  0.00000000000E+00  0.66718397060E+02  0.66883738728E+02  0.47000000000E+01 0. -1.
         -5   -1    0    0    0  501 -0.00000000000E+00 -0.00000000000E+00 -0.51205665740E+03  0.51207822682E+03  0.47000000000E+01 0.  1.
          6    1    1    2  502    0  0.59883641937E+02  0.27878146920E+02 -0.19693300711E+03  0.26968472507E+03  0.17200000000E+03 0. -1.
         -6    1    1    2    0  502 -0.59883641937E+02 -0.27878146920E+02 -0.24840525322E+03  0.30927724047E+03  0.17200000000E+03 0. -1.
</event>
<event>
 4    1 -0.3240665E-004  0.1749845E+03  0.7818608E-02  0.1172747E+00
         -5   -1    0    0    0  501 -0.00000000000E+00  0.00000000000E+00  0.17105473519E+02  0.17739425704E+02  0.47000000000E+01 0.  1.
          5   -1    0    0  501    0  0.00000000000E+00 -0.00000000000E+00 -0.17926907650E+04  0.17926969261E+04  0.47000000000E+01 0. -1.
          6    1    1    2  502    0 -0.23003153255E+02  0.22504147732E+02 -0.10157790084E+04  0.10307407897E+04  0.17200000000E+03 0. -1.
         -6    1    1    2    0  502  0.23003153255E+02 -0.22504147732E+02 -0.75980628310E+03  0.77969556210E+03  0.17200000000E+03 0.  1.
</event>
<event>
 4    1 -0.3240665E-004  0.1873340E+03  0.7818608E-02  0.1160888E+00
          5   -1    0    0  501    0  0.00000000000E+00  0.00000000000E+00  0.36993051509E+02  0.37290425848E+02  0.47000000000E+01 0. -1.
         -5   -1    0    0    0  501 -0.00000000000E+00 -0.00000000000E+00 -0.14579116272E+04  0.14579192030E+04  0.47000000000E+01 0.  1.
          6    1    1    2  502    0 -0.38894575977E+02 -0.63223769569E+02 -0.26688506124E+03  0.32607003694E+03  0.17200000000E+03 0. -1.
         -6    1    1    2    0  502  0.38894575977E+02  0.63223769569E+02 -0.11540335144E+04  0.11691395919E+04  0.17200000000E+03 0.  1.
</event>
<event>
 4    1 -0.3240665E-004  0.4872719E+03  0.7818608E-02  0.1017156E+00
          5   -1    0    0  501    0  0.00000000000E+00  0.00000000000E+00  0.25247748309E+03  0.25252122578E+03  0.47000000000E+01 0. -1.
         -5   -1    0    0    0  501 -0.00000000000E+00 -0.00000000000E+00 -0.95869947668E+03  0.95871099743E+03  0.47000000000E+01 0.  1.
          6    1    1    2  502    0  0.41516047696E+03 -0.18839228158E+03 -0.26917972590E+03  0.55667908011E+03  0.17200000000E+03 0. -1.
         -6    1    1    2    0  502 -0.41516047696E+03  0.18839228158E+03 -0.43704226769E+03  0.65455314309E+03  0.17200000000E+03 0.  1.
</event>
<event>
 4    1 -0.3240665E-004  0.3941004E+03  0.7818608E-02  0.1045842E+00
          5   -1    0    0  501    0  0.00000000000E+00  0.00000000000E+00  0.16541997942E+03  0.16548673539E+03  0.47000000000E+01 0. -1.
         -5   -1    0    0    0  501 -0.00000000000E+00 -0.00000000000E+00 -0.94919328642E+03  0.94920492254E+03  0.47000000000E+01 0.  1.
          6    1    1    2  502    0  0.69578221348E+02 -0.34769244233E+03 -0.33315478615E+03  0.51604968257E+03  0.17200000000E+03 0. -1.
         -6    1    1    2    0  502 -0.69578221348E+02  0.34769244233E+03 -0.45061852085E+03  0.59864197537E+03  0.17200000000E+03 0.  1.
</event>
<event>
 4    1 -0.3240665E-004  0.1767055E+03  0.7818608E-02  0.1171030E+00
          5   -1    0    0  501    0  0.00000000000E+00  0.00000000000E+00  0.30432586051E+03  0.30436215168E+03  0.47000000000E+01 0. -1.
         -5   -1    0    0    0  501 -0.00000000000E+00 -0.00000000000E+00 -0.13016661543E+03  0.13025144057E+03  0.47000000000E+01 0.  1.
          6    1    1    2  502    0 -0.30291135921E+02 -0.26893953611E+02  0.18720062584E+03  0.25742748877E+03  0.17200000000E+03 0. -1.
         -6    1    1    2    0  502  0.30291135921E+02  0.26893953611E+02 -0.13041380762E+02  0.17718610349E+03  0.17200000000E+03 0.  1.
</event>
<event>
 4    1 -0.3240665E-004  0.1865538E+03  0.7818608E-02  0.1161607E+00
         -5   -1    0    0    0  501 -0.00000000000E+00  0.00000000000E+00  0.42822505284E+03  0.42825084458E+03  0.47000000000E+01 0.  1.
          5   -1    0    0  501    0  0.00000000000E+00 -0.00000000000E+00 -0.11951931223E+03  0.11961168838E+03  0.47000000000E+01 0. -1.
          6    1    1    2  502    0 -0.71614929377E+02  0.94669053119E+01 -0.71418768350E+00  0.18655516736E+03  0.17200000000E+03 0. -1.
         -6    1    1    2    0  502  0.71614929377E+02 -0.94669053119E+01  0.30941992829E+03  0.36130736559E+03  0.17200000000E+03 0.  1.
</event>
<event>
 4    1 -0.3240665E-004  0.3608745E+03  0.7818608E-02  0.1058238E+00
          5   -1    0    0  501    0  0.00000000000E+00  0.00000000000E+00  0.22435111546E+04  0.22435160777E+04  0.47000000000E+01 0. -1.
         -5   -1    0    0    0  501 -0.00000000000E+00 -0.00000000000E+00 -0.77803482726E+02  0.77945313678E+02  0.47000000000E+01 0.  1.
          6    1    1    2  502    0  0.28684761005E+03  0.13551694177E+03  0.16685892927E+04  0.17071674260E+04  0.17200000000E+03 0. -1.
         -6    1    1    2    0  502 -0.28684761005E+03 -0.13551694177E+03  0.49711837923E+03  0.61429396535E+03  0.17200000000E+03 0.  1.
</event>
<event>
 4    1 -0.3240665E-004  0.1890333E+03  0.7818608E-02  0.1159336E+00
          5   -1    0    0  501    0  0.00000000000E+00  0.00000000000E+00  0.62966151431E+02  0.63141319483E+02  0.47000000000E+01 0. -1.
         -5   -1    0    0    0  501 -0.00000000000E+00 -0.00000000000E+00 -0.57031910789E+03  0.57033847391E+03  0.47000000000E+01 0.  1.
          6    1    1    2  502    0  0.59474143727E+02 -0.51111642794E+02 -0.22786784738E+03  0.29606980540E+03  0.17200000000E+03 0.  1.
         -6    1    1    2    0  502 -0.59474143727E+02  0.51111642794E+02 -0.27948510908E+03  0.33740998799E+03  0.17200000000E+03 0.  1.
</event>
<event>
 4    1 -0.3240665E-004  0.1899697E+03  0.7818608E-02  0.1158489E+00
         -5   -1    0    0    0  501 -0.00000000000E+00  0.00000000000E+00  0.43319100554E+03  0.43321650162E+03  0.47000000000E+01 0.  1.
          5   -1    0    0  501    0  0.00000000000E+00 -0.00000000000E+00 -0.84086461978E+02  0.84217712437E+02  0.47000000000E+01 0. -1.
          6    1    1    2  502    0  0.78914624909E+02  0.16642412764E+02  0.14822701450E+03  0.24095587927E+03  0.17200000000E+03 0. -1.
         -6    1    1    2    0  502 -0.78914624909E+02 -0.16642412764E+02  0.20087752906E+03  0.27647833479E+03  0.17200000000E+03 0.  1.
</event>
<event>
 4    1 -0.3240665E-004  0.1944159E+03  0.7818608E-02  0.1154538E+00
          5   -1    0    0  501    0  0.00000000000E+00  0.00000000000E+00  0.94154347919E+02  0.94271582315E+02  0.47000000000E+01 0. -1.
         -5   -1    0    0    0  501 -0.00000000000E+00 -0.00000000000E+00 -0.61988968976E+03  0.61990750719E+03  0.47000000000E+01 0.  1.
          6    1    1    2  502    0  0.74160787768E+00 -0.90625604203E+02 -0.50727749667E+02  0.20092499771E+03  0.17200000000E+03 0. -1.
         -6    1    1    2    0  502 -0.74160787768E+00  0.90625604203E+02 -0.47500759218E+03  0.51325409180E+03  0.17200000000E+03 0.  1.
</event>
<event>
 4    1 -0.3240665E-004  0.2885797E+03  0.7818608E-02  0.1091093E+00
         -5   -1    0    0    0  501 -0.00000000000E+00  0.00000000000E+00  0.61908076752E+03  0.61909860823E+03  0.47000000000E+01 0.  1.
          5   -1    0    0  501    0  0.00000000000E+00 -0.00000000000E+00 -0.14822543086E+03  0.14829992702E+03  0.47000000000E+01 0. -1.
          6    1    1    2  502    0 -0.38712512462E+01 -0.23168788043E+03  0.11852907814E+03  0.31197340093E+03  0.17200000000E+03 0. -1.
         -6    1    1    2    0  502  0.38712512462E+01  0.23168788043E+03  0.35232625851E+03  0.45542513431E+03  0.17200000000E+03 0.  1.
</event>
<event>
 4    1 -0.3240665E-004  0.2042905E+03  0.7818608E-02  0.1146169E+00
          5   -1    0    0  501    0  0.00000000000E+00  0.00000000000E+00  0.13632516935E+03  0.13640616481E+03  0.47000000000E+01 0. -1.
         -5   -1    0    0    0  501 -0.00000000000E+00 -0.00000000000E+00 -0.31776271134E+03  0.31779746808E+03  0.47000000000E+01 0.  1.
          6    1    1    2  502    0 -0.10623730379E+03  0.29398041143E+02 -0.46940280011E+02  0.20961392947E+03  0.17200000000E+03 0. -1.
         -6    1    1    2    0  502  0.10623730379E+03 -0.29398041143E+02 -0.13449726199E+03  0.24458970342E+03  0.17200000000E+03 0.  1.
</event>
<event>
 4    1 -0.3240665E-004  0.1912024E+03  0.7818608E-02  0.1157381E+00
         -5   -1    0    0    0  501 -0.00000000000E+00  0.00000000000E+00  0.46681182327E+03  0.46683548317E+03  0.47000000000E+01 0.  1.
          5   -1    0    0  501    0  0.00000000000E+00 -0.00000000000E+00 -0.82593648270E+02  0.82727267177E+02  0.47000000000E+01 0. -1.
          6    1    1    2  502    0  0.20585021186E+02 -0.80935861255E+02  0.12893005098E+03  0.23061074299E+03  0.17200000000E+03 0.  1.
         -6    1    1    2    0  502 -0.20585021186E+02  0.80935861255E+02  0.25528812402E+03  0.31895200736E+03  0.17200000000E+03 0. -1.
</event>
<event>
 4    1 -0.3240665E-004  0.2111474E+03  0.7818608E-02  0.1140661E+00
          5   -1    0    0  501    0  0.00000000000E+00  0.00000000000E+00  0.37186183754E+03  0.37189153824E+03  0.47000000000E+01 0. -1.
         -5   -1    0    0    0  501 -0.00000000000E+00 -0.00000000000E+00 -0.13467256081E+03  0.13475454959E+03  0.47000000000E+01 0.  1.
          6    1    1    2  502    0  0.56618033029E+01  0.12234044719E+03  0.20270964939E+03  0.29270196957E+03  0.17200000000E+03 0. -1.
         -6    1    1    2    0  502 -0.56618033029E+01 -0.12234044719E+03  0.34479627343E+02  0.21394411826E+03  0.17200000000E+03 0.  1.
</event>
<event>
 4    1 -0.3240665E-004  0.2441092E+03  0.7818608E-02  0.1117085E+00
         -5   -1    0    0    0  501 -0.00000000000E+00  0.00000000000E+00  0.14057120258E+03  0.14064975291E+03  0.47000000000E+01 0.  1.
          5   -1    0    0  501    0  0.00000000000E+00 -0.00000000000E+00 -0.46606702857E+03  0.46609072627E+03  0.47000000000E+01 0. -1.
          6    1    1    2  502    0 -0.86963502640E+01 -0.17300197887E+03 -0.25420615510E+03  0.35243450525E+03  0.17200000000E+03 0. -1.
         -6    1    1    2    0  502  0.86963502640E+01  0.17300197887E+03 -0.71289670884E+02  0.25430597393E+03  0.17200000000E+03 0.  1.
</event>
<event>
 4    1 -0.3240665E-004  0.6640870E+03  0.7818608E-02  0.9780699E-01
          5   -1    0    0  501    0  0.00000000000E+00  0.00000000000E+00  0.58212489256E+03  0.58214386584E+03  0.47000000000E+01 0. -1.
         -5   -1    0    0    0  501 -0.00000000000E+00 -0.00000000000E+00 -0.12199494809E+04  0.12199585346E+04  0.47000000000E+01 0.  1.
          6    1    1    2  502    0  0.25394424814E+03  0.58901600596E+03  0.23581745037E+03  0.70471370522E+03  0.17200000000E+03 0. -1.
         -6    1    1    2    0  502 -0.25394424814E+03 -0.58901600596E+03 -0.87364203875E+03  0.10973886952E+04  0.17200000000E+03 0.  1.
</event>
<event>
 4    1 -0.3240665E-004  0.1959264E+03  0.7818608E-02  0.1153222E+00
         -5   -1    0    0    0  501 -0.00000000000E+00  0.00000000000E+00  0.60354951638E+03  0.60356781618E+03  0.47000000000E+01 0.  1.
          5   -1    0    0  501    0  0.00000000000E+00 -0.00000000000E+00 -0.66526952602E+02  0.66692768893E+02  0.47000000000E+01 0. -1.
          6    1    1    2  502    0  0.85017882615E+02 -0.39687714235E+02  0.19708198031E+03  0.27790009354E+03  0.17200000000E+03 0.  1.
         -6    1    1    2    0  502 -0.85017882615E+02  0.39687714235E+02  0.33994058347E+03  0.39236049153E+03  0.17200000000E+03 0.  1.
</event>
<event>
 4    1 -0.3240665E-004  0.1729650E+03  0.7818608E-02  0.1174791E+00
          5   -1    0    0  501    0  0.00000000000E+00  0.00000000000E+00  0.41841272200E+02  0.42104418525E+02  0.47000000000E+01 0. -1.
         -5   -1    0    0    0  501 -0.00000000000E+00 -0.00000000000E+00 -0.85070045879E+03  0.85071344211E+03  0.47000000000E+01 0.  1.
          6    1    1    2  502    0  0.67973984635E+01  0.16931787031E+02 -0.22452863397E+03  0.28342547082E+03  0.17200000000E+03 0. -1.
         -6    1    1    2    0  502 -0.67973984635E+01 -0.16931787031E+02 -0.58433055262E+03  0.60939238981E+03  0.17200000000E+03 0.  1.
</event>
<event>
 4    1 -0.3240665E-004  0.2902490E+03  0.7818608E-02  0.1090219E+00
         -5   -1    0    0    0  501 -0.00000000000E+00  0.00000000000E+00  0.21999508984E+03  0.22004528978E+03  0.47000000000E+01 0.  1.
          5   -1    0    0  501    0  0.00000000000E+00 -0.00000000000E+00 -0.40383044971E+03  0.40385779937E+03  0.47000000000E+01 0. -1.
          6    1    1    2  502    0  0.15999533068E+03  0.17047567596E+03 -0.20785868523E+02  0.29099229245E+03  0.17200000000E+03 0. -1.
         -6    1    1    2    0  502 -0.15999533068E+03 -0.17047567596E+03 -0.16304949134E+03  0.33291079670E+03  0.17200000000E+03 0.  1.
</event>
<event>
 4    1 -0.3240665E-004  0.2367703E+03  0.7818608E-02  0.1121963E+00
         -5   -1    0    0    0  501 -0.00000000000E+00  0.00000000000E+00  0.89338537376E+02  0.89462082809E+02  0.47000000000E+01 0.  1.
          5   -1    0    0  501    0  0.00000000000E+00 -0.00000000000E+00 -0.62912689261E+03  0.62914444844E+03  0.47000000000E+01 0. -1.
          6    1    1    2  502    0  0.11372153151E+03 -0.11637689272E+03 -0.24869665654E+03  0.34338053944E+03  0.17200000000E+03 0.  1.
         -6    1    1    2    0  502 -0.11372153151E+03  0.11637689272E+03 -0.29109169869E+03  0.37522599182E+03  0.17200000000E+03 0.  1.
</event>
<event>
 4    1 -0.3240665E-004  0.3558986E+03  0.7818608E-02  0.1060220E+00
         -5   -1    0    0    0  501 -0.00000000000E+00  0.00000000000E+00  0.25840373254E+03  0.25844647220E+03  0.47000000000E+01 0.  1.
          5   -1    0    0  501    0  0.00000000000E+00 -0.00000000000E+00 -0.52331081433E+03  0.52333191990E+03  0.47000000000E+01 0. -1.
          6    1    1    2  502    0  0.29583634111E+03 -0.97778681095E+02 -0.33962831005E+02  0.35751543336E+03  0.17200000000E+03 0.  1.
         -6    1    1    2    0  502 -0.29583634111E+03  0.97778681095E+02 -0.23094425078E+03  0.42426295875E+03  0.17200000000E+03 0.  1.
</event>
<event>
 4    1 -0.3240665E-004  0.1940066E+03  0.7818608E-02  0.1154896E+00
          5   -1    0    0  501    0  0.00000000000E+00  0.00000000000E+00  0.13846622462E+04  0.13846702228E+04  0.47000000000E+01 0. -1.
         -5   -1    0    0    0  501 -0.00000000000E+00 -0.00000000000E+00 -0.30988253997E+02  0.31342652820E+02  0.47000000000E+01 0.  1.
          6    1    1    2  502    0 -0.12742258235E+02 -0.88837997636E+02  0.93016738900E+03  0.95018415401E+03  0.17200000000E+03 0. -1.
         -6    1    1    2    0  502  0.12742258235E+02  0.88837997636E+02  0.42350660319E+03  0.46582872165E+03  0.17200000000E+03 0.  1.
</event>
<event>
 4    1 -0.3240665E-004  0.1938115E+03  0.7818608E-02  0.1155068E+00
         -5   -1    0    0    0  501 -0.00000000000E+00  0.00000000000E+00  0.31303932189E+03  0.31307460301E+03  0.47000000000E+01 0.  1.
          5   -1    0    0  501    0  0.00000000000E+00 -0.00000000000E+00 -0.23790686166E+03  0.23795328286E+03  0.47000000000E+01 0. -1.
          6    1    1    2  502    0  0.81739816402E+02  0.36020713990E+02 -0.15642725989E+03  0.24906299817E+03  0.17200000000E+03 0. -1.
         -6    1    1    2    0  502 -0.81739816402E+02 -0.36020713990E+02  0.23155972012E+03  0.30196488770E+03  0.17200000000E+03 0.  1.
</event>
<event>
 4    1 -0.3240665E-004  0.2175344E+03  0.7818608E-02  0.1135735E+00
         -5   -1    0    0    0  501 -0.00000000000E+00  0.00000000000E+00  0.21172870063E+03  0.21178086002E+03  0.47000000000E+01 0.  1.
          5   -1    0    0  501    0  0.00000000000E+00 -0.00000000000E+00 -0.22367442705E+03  0.22372380141E+03  0.47000000000E+01 0. -1.
          6    1    1    2  502    0 -0.79495919819E+02 -0.10685331689E+03 -0.13667951938E+02  0.21796340406E+03  0.17200000000E+03 0. -1.
         -6    1    1    2    0  502  0.79495919819E+02  0.10685331689E+03  0.17222255190E+01  0.21754125737E+03  0.17200000000E+03 0. -1.
</event>
<event>
 4    1 -0.3240665E-004  0.1990578E+03  0.7818608E-02  0.1150536E+00
         -5   -1    0    0    0  501 -0.00000000000E+00  0.00000000000E+00  0.40320114534E+03  0.40322853769E+03  0.47000000000E+01 0.  1.
          5   -1    0    0  501    0  0.00000000000E+00 -0.00000000000E+00 -0.10529159030E+03  0.10539643727E+03  0.47000000000E+01 0. -1.
          6    1    1    2  502    0 -0.86106088590E+02  0.51242111587E+02  0.82935358591E+02  0.21564388746E+03  0.17200000000E+03 0. -1.
         -6    1    1    2    0  502  0.86106088590E+02 -0.51242111587E+02  0.21497419645E+03  0.29298108750E+03  0.17200000000E+03 0. -1.
</event>
<event>
 4    1 -0.3240665E-004  0.2327794E+03  0.7818608E-02  0.1124699E+00
          5   -1    0    0  501    0  0.00000000000E+00  0.00000000000E+00  0.19133904988E+03  0.19139676593E+03  0.47000000000E+01 0. -1.
         -5   -1    0    0    0  501 -0.00000000000E+00 -0.00000000000E+00 -0.31069177154E+03  0.31072731921E+03  0.47000000000E+01 0.  1.
          6    1    1    2  502    0  0.13965615234E+02 -0.15622805582E+03  0.15164102191E+02  0.23327278844E+03  0.17200000000E+03 0. -1.
         -6    1    1    2    0  502 -0.13965615234E+02  0.15622805582E+03 -0.13451682385E+03  0.26885129669E+03  0.17200000000E+03 0.  1.
</event>
<event>
 4    1 -0.3240665E-004  0.2914689E+03  0.7818608E-02  0.1089585E+00
          5   -1    0    0  501    0  0.00000000000E+00  0.00000000000E+00  0.12405640663E+03  0.12414540679E+03  0.47000000000E+01 0. -1.
         -5   -1    0    0    0  501 -0.00000000000E+00 -0.00000000000E+00 -0.80110333566E+03  0.80111712278E+03  0.47000000000E+01 0.  1.
          6    1    1    2  502    0  0.84330474834E+02 -0.21967817072E+03 -0.16200388740E+03  0.33346572119E+03  0.17200000000E+03 0. -1.
         -6    1    1    2    0  502 -0.84330474834E+02  0.21967817072E+03 -0.51504304163E+03  0.59179680838E+03  0.17200000000E+03 0.  1.
</event>
<event>
 4    1 -0.3240665E-004  0.2070106E+03  0.7818608E-02  0.1143955E+00
          5   -1    0    0  501    0  0.00000000000E+00  0.00000000000E+00  0.13486396770E+03  0.13494584019E+03  0.47000000000E+01 0. -1.
         -5   -1    0    0    0  501 -0.00000000000E+00 -0.00000000000E+00 -0.31997147858E+03  0.32000599542E+03  0.47000000000E+01 0.  1.
          6    1    1    2  502    0  0.81325857540E+02 -0.81581098538E+02 -0.11231089479E+03  0.23551455970E+03  0.17200000000E+03 0.  1.
         -6    1    1    2    0  502 -0.81325857540E+02  0.81581098538E+02 -0.72796616093E+02  0.21943727591E+03  0.17200000000E+03 0. -1.
</event>
<event>
 4    1 -0.3240665E-004  0.2402077E+03  0.7818608E-02  0.1119655E+00
         -5   -1    0    0    0  501 -0.00000000000E+00  0.00000000000E+00  0.76702062289E+02  0.76845926108E+02  0.47000000000E+01 0.  1.
          5   -1    0    0  501    0  0.00000000000E+00 -0.00000000000E+00 -0.76038365724E+03  0.76039818266E+03  0.47000000000E+01 0. -1.
          6    1    1    2  502    0  0.13100859506E+03 -0.10465417823E+03 -0.38733296967E+03  0.45577031320E+03  0.17200000000E+03 0.  1.
         -6    1    1    2    0  502 -0.13100859506E+03  0.10465417823E+03 -0.29634862527E+03  0.38147379556E+03  0.17200000000E+03 0.  1.
</event>
<event>
 4    1 -0.3240665E-004  0.1748534E+03  0.7818608E-02  0.1172879E+00
          5   -1    0    0  501    0  0.00000000000E+00  0.00000000000E+00  0.11270723007E+03  0.11280518476E+03  0.47000000000E+01 0. -1.
         -5   -1    0    0    0  501 -0.00000000000E+00 -0.00000000000E+00 -0.28582801554E+03  0.28586665505E+03  0.47000000000E+01 0.  1.
          6    1    1    2  502    0  0.23075514738E+01 -0.31374845801E+02 -0.41215940750E+02  0.17964537154E+03  0.17200000000E+03 0. -1.
         -6    1    1    2    0  502 -0.23075514738E+01  0.31374845801E+02 -0.13190484472E+03  0.21902646827E+03  0.17200000000E+03 0.  1.
</event>
<event>
 4    1 -0.3240665E-004  0.2204280E+03  0.7818608E-02  0.1133564E+00
          5   -1    0    0  501    0  0.00000000000E+00  0.00000000000E+00  0.15971637133E+03  0.15978551020E+03  0.47000000000E+01 0. -1.
         -5   -1    0    0    0  501 -0.00000000000E+00 -0.00000000000E+00 -0.39234876958E+03  0.39237691954E+03  0.47000000000E+01 0.  1.
          6    1    1    2  502    0 -0.13773989227E+03 -0.56775947070E+01  0.14628112173E+02  0.22091286669E+03  0.17200000000E+03 0. -1.
         -6    1    1    2    0  502  0.13773989227E+03  0.56775947070E+01 -0.24726051042E+03  0.33124956305E+03  0.17200000000E+03 0.  1.
</event>
<event>
 4    1 -0.3240665E-004  0.1750215E+03  0.7818608E-02  0.1172710E+00
          5   -1    0    0  501    0  0.00000000000E+00  0.00000000000E+00  0.82565231761E+02  0.82698896581E+02  0.47000000000E+01 0. -1.
         -5   -1    0    0    0  501 -0.00000000000E+00 -0.00000000000E+00 -0.48538875029E+03  0.48541150472E+03  0.47000000000E+01 0.  1.
          6    1    1    2  502    0  0.96264511565E+01  0.30916747085E+02 -0.63274956887E+02  0.18610812444E+03  0.17200000000E+03 0. -1.
         -6    1    1    2    0  502 -0.96264511565E+01 -0.30916747085E+02 -0.33954856164E+03  0.38200227686E+03  0.17200000000E+03 0.  1.
</event>
<event>
 4    1 -0.3240665E-004  0.5011232E+03  0.7818608E-02  0.1013486E+00
         -5   -1    0    0    0  501 -0.00000000000E+00  0.00000000000E+00  0.43353321358E+03  0.43355868954E+03  0.47000000000E+01 0.  1.
          5   -1    0    0  501    0  0.00000000000E+00 -0.00000000000E+00 -0.60752699626E+03  0.60754517625E+03  0.47000000000E+01 0. -1.
          6    1    1    2  502    0  0.15283288717E+03 -0.44517702425E+03 -0.19939912985E+03  0.53933708133E+03  0.17200000000E+03 0. -1.
         -6    1    1    2    0  502 -0.15283288717E+03  0.44517702425E+03  0.25405347163E+02  0.50176678446E+03  0.17200000000E+03 0.  1.
</event>
<event>
 4    1 -0.3240665E-004  0.1808742E+03  0.7818608E-02  0.1166960E+00
          5   -1    0    0  501    0  0.00000000000E+00  0.00000000000E+00  0.15453722487E+04  0.15453793958E+04  0.47000000000E+01 0. -1.
         -5   -1    0    0    0  501 -0.00000000000E+00 -0.00000000000E+00 -0.22155296496E+02  0.22648336866E+02  0.47000000000E+01 0.  1.
          6    1    1    2  502    0  0.38504921544E+02 -0.40605940328E+02  0.57725236146E+03  0.60492624359E+03  0.17200000000E+03 0. -1.
         -6    1    1    2    0  502 -0.38504921544E+02  0.40605940328E+02  0.94596459074E+03  0.96310148910E+03  0.17200000000E+03 0. -1.
</event>
<event>
 4    1 -0.3240665E-004  0.1803578E+03  0.7818608E-02  0.1167457E+00
          5   -1    0    0  501    0  0.00000000000E+00  0.00000000000E+00  0.18644248587E+03  0.18650171725E+03  0.47000000000E+01 0. -1.
         -5   -1    0    0    0  501 -0.00000000000E+00 -0.00000000000E+00 -0.23547586951E+03  0.23552276986E+03  0.47000000000E+01 0.  1.
          6    1    1    2  502    0  0.37111643520E+02  0.39593553233E+02  0.82964095881E+02  0.19852446889E+03  0.17200000000E+03 0. -1.
         -6    1    1    2    0  502 -0.37111643520E+02 -0.39593553233E+02 -0.13199747953E+03  0.22350001822E+03  0.17200000000E+03 0.  1.
</event>
<event>
 4    1 -0.3240665E-004  0.2715168E+03  0.7818608E-02  0.1100415E+00
         -5   -1    0    0    0  501 -0.00000000000E+00  0.00000000000E+00  0.15617961246E+03  0.15625031631E+03  0.47000000000E+01 0.  1.
          5   -1    0    0  501    0  0.00000000000E+00 -0.00000000000E+00 -0.49301659120E+03  0.49303899359E+03  0.47000000000E+01 0. -1.
          6    1    1    2  502    0 -0.21008891824E+03 -0.73460373897E-01 -0.23569496134E+03  0.35954620533E+03  0.17200000000E+03 0. -1.
         -6    1    1    2    0  502  0.21008891824E+03  0.73460373897E-01 -0.10114201740E+03  0.28974310458E+03  0.17200000000E+03 0. -1.
</event>
<event>
 4    1 -0.3240665E-004  0.2225648E+03  0.7818608E-02  0.1131985E+00
         -5   -1    0    0    0  501 -0.00000000000E+00  0.00000000000E+00  0.76008276286E+02  0.76153450769E+02  0.47000000000E+01 0.  1.
          5   -1    0    0  501    0  0.00000000000E+00 -0.00000000000E+00 -0.68923971936E+03  0.68925574408E+03  0.47000000000E+01 0. -1.
          6    1    1    2  502    0 -0.13997058414E+03 -0.18955828062E+02 -0.39683017066E+03  0.45498271636E+03  0.17200000000E+03 0.  1.
         -6    1    1    2    0  502  0.13997058414E+03  0.18955828062E+02 -0.21640127242E+03  0.31042647849E+03  0.17200000000E+03 0.  1.
</event>
<event>
 4    1 -0.3240665E-004  0.2231941E+03  0.7818608E-02  0.1131524E+00
         -5   -1    0    0    0  501 -0.00000000000E+00  0.00000000000E+00  0.10382509108E+03  0.10393141748E+03  0.47000000000E+01 0.  1.
          5   -1    0    0  501    0  0.00000000000E+00 -0.00000000000E+00 -0.48532502273E+03  0.48534778014E+03  0.47000000000E+01 0. -1.
          6    1    1    2  502    0 -0.13975139683E+03 -0.26479071530E+02 -0.22319174023E+03  0.31564243544E+03  0.17200000000E+03 0. -1.
         -6    1    1    2    0  502  0.13975139683E+03  0.26479071530E+02 -0.15830819141E+03  0.27363676217E+03  0.17200000000E+03 0. -1.
</event>
<event>
 4    1 -0.3240665E-004  0.2321616E+03  0.7818608E-02  0.1125128E+00
          5   -1    0    0  501    0  0.00000000000E+00  0.00000000000E+00  0.55494235391E+03  0.55496225652E+03  0.47000000000E+01 0. -1.
         -5   -1    0    0    0  501 -0.00000000000E+00 -0.00000000000E+00 -0.12587580750E+03  0.12596352216E+03  0.47000000000E+01 0.  1.
          6    1    1    2  502    0 -0.15535408967E+03  0.13420248545E+02  0.37738968961E+03  0.44308235586E+03  0.17200000000E+03 0. -1.
         -6    1    1    2    0  502  0.15535408967E+03 -0.13420248545E+02  0.51676856798E+02  0.23784342282E+03  0.17200000000E+03 0.  1.
</event>
<event>
 4    1 -0.3240665E-004  0.1746557E+03  0.7818608E-02  0.1173078E+00
         -5   -1    0    0    0  501 -0.00000000000E+00  0.00000000000E+00  0.74155181856E+02  0.74303976987E+02  0.47000000000E+01 0.  1.
          5   -1    0    0  501    0  0.00000000000E+00 -0.00000000000E+00 -0.62844970178E+03  0.62846727653E+03  0.47000000000E+01 0. -1.
          6    1    1    2  502    0  0.24183749453E+02  0.18323988996E+02 -0.48391425253E+03  0.51446829457E+03  0.17200000000E+03 0. -1.
         -6    1    1    2    0  502 -0.24183749453E+02 -0.18323988996E+02 -0.70380267391E+02  0.18830295895E+03  0.17200000000E+03 0.  1.
</event>
<event>
 4    1 -0.3240665E-004  0.3682363E+03  0.7818608E-02  0.1055369E+00
         -5   -1    0    0    0  501 -0.00000000000E+00  0.00000000000E+00  0.27938201000E+03  0.27942154088E+03  0.47000000000E+01 0.  1.
          5   -1    0    0  501    0  0.00000000000E+00 -0.00000000000E+00 -0.13898010019E+04  0.13898089491E+04  0.47000000000E+01 0. -1.
          6    1    1    2  502    0  0.20715629478E+03  0.25119756383E+03 -0.12285186385E+04  0.12825193923E+04  0.17200000000E+03 0. -1.
         -6    1    1    2    0  502 -0.20715629478E+03 -0.25119756383E+03  0.11809964655E+03  0.38671109766E+03  0.17200000000E+03 0.  1.
</event>
<event>
 4    1 -0.3240665E-004  0.4566706E+03  0.7818608E-02  0.1025751E+00
         -5   -1    0    0    0  501 -0.00000000000E+00  0.00000000000E+00  0.23013896296E+03  0.23018695070E+03  0.47000000000E+01 0.  1.
          5   -1    0    0  501    0  0.00000000000E+00 -0.00000000000E+00 -0.11554042243E+04  0.11554137837E+04  0.47000000000E+01 0. -1.
          6    1    1    2  502    0  0.35061023051E+03  0.23672032927E+03 -0.78448140240E+03  0.90772193911E+03  0.17200000000E+03 0. -1.
         -6    1    1    2    0  502 -0.35061023051E+03 -0.23672032927E+03 -0.14078385893E+03  0.47787879526E+03  0.17200000000E+03 0.  1.
</event>
<event>
 4    1 -0.3240665E-004  0.2191352E+03  0.7818608E-02  0.1134529E+00
          5   -1    0    0  501    0  0.00000000000E+00  0.00000000000E+00  0.17716891133E+03  0.17723124200E+03  0.47000000000E+01 0. -1.
         -5   -1    0    0    0  501 -0.00000000000E+00 -0.00000000000E+00 -0.27139507959E+03  0.27143577366E+03  0.47000000000E+01 0.  1.
          6    1    1    2  502    0  0.41267903357E+02  0.12935692191E+03 -0.56577641225E+02  0.22632119339E+03  0.17200000000E+03 0. -1.
         -6    1    1    2    0  502 -0.41267903357E+02 -0.12935692191E+03 -0.37648527037E+02  0.22234582227E+03  0.17200000000E+03 0.  1.
</event>
<event>
 4    1 -0.3240665E-004  0.1931454E+03  0.7818608E-02  0.1155655E+00
          5   -1    0    0  501    0  0.00000000000E+00  0.00000000000E+00  0.43337723238E+03  0.43340271751E+03  0.47000000000E+01 0. -1.
         -5   -1    0    0    0  501 -0.00000000000E+00 -0.00000000000E+00 -0.87759541355E+02  0.87885306501E+02  0.47000000000E+01 0.  1.
          6    1    1    2  502    0  0.87865845029E+02 -0.85107787701E+00  0.13580749991E+03  0.23611185504E+03  0.17200000000E+03 0.  1.
         -6    1    1    2    0  502 -0.87865845029E+02  0.85107787701E+00  0.20981019111E+03  0.28517616897E+03  0.17200000000E+03 0. -1.
</event>
<event>
 4    1 -0.3240665E-004  0.2479150E+03  0.7818608E-02  0.1114630E+00
          5   -1    0    0  501    0  0.00000000000E+00  0.00000000000E+00  0.54169583219E+03  0.54171622148E+03  0.47000000000E+01 0. -1.
         -5   -1    0    0    0  501 -0.00000000000E+00 -0.00000000000E+00 -0.11858721790E+03  0.11868031955E+03  0.47000000000E+01 0.  1.
          6    1    1    2  502    0  0.90968299445E+02  0.15363140358E+03  0.28064199545E+03  0.37446197307E+03  0.17200000000E+03 0. -1.
         -6    1    1    2    0  502 -0.90968299445E+02 -0.15363140358E+03  0.14246661884E+03  0.28593456796E+03  0.17200000000E+03 0.  1.
</event>
<event>
 4    1 -0.3240665E-004  0.2403281E+03  0.7818608E-02  0.1119574E+00
         -5   -1    0    0    0  501 -0.00000000000E+00  0.00000000000E+00  0.18895305992E+03  0.18901150455E+03  0.47000000000E+01 0.  1.
          5   -1    0    0  501    0  0.00000000000E+00 -0.00000000000E+00 -0.48363363459E+03  0.48365647158E+03  0.47000000000E+01 0. -1.
          6    1    1    2  502    0 -0.16685113600E+03 -0.18283669598E+02 -0.35141426688E+03  0.42573416721E+03  0.17200000000E+03 0. -1.
         -6    1    1    2    0  502  0.16685113600E+03  0.18283669598E+02  0.56733692218E+02  0.24693380893E+03  0.17200000000E+03 0.  1.
</event>
<event>
 4    1 -0.3240665E-004  0.2073326E+03  0.7818608E-02  0.1143696E+00
         -5   -1    0    0    0  501 -0.00000000000E+00  0.00000000000E+00  0.22854477565E+03  0.22859309805E+03  0.47000000000E+01 0.  1.
          5   -1    0    0  501    0  0.00000000000E+00 -0.00000000000E+00 -0.24260684690E+03  0.24265236896E+03  0.47000000000E+01 0. -1.
          6    1    1    2  502    0 -0.11346091397E+03 -0.23009223216E+02 -0.11880293705E+03  0.23895803231E+03  0.17200000000E+03 0. -1.
         -6    1    1    2    0  502  0.11346091397E+03  0.23009223216E+02  0.10474086580E+03  0.23228743470E+03  0.17200000000E+03 0.  1.
</event>
<event>
 4    1 -0.3240665E-004  0.2025857E+03  0.7818608E-02  0.1147576E+00
          5   -1    0    0  501    0  0.00000000000E+00  0.00000000000E+00  0.23259951401E+03  0.23264699421E+03  0.47000000000E+01 0. -1.
         -5   -1    0    0    0  501 -0.00000000000E+00 -0.00000000000E+00 -0.18804754394E+03  0.18810626991E+03  0.47000000000E+01 0.  1.
          6    1    1    2  502    0 -0.21576782985E+02  0.10484000789E+03  0.74735282254E+02  0.21593134842E+03  0.17200000000E+03 0. -1.
         -6    1    1    2    0  502  0.21576782985E+02 -0.10484000789E+03 -0.30183312183E+02  0.20482191570E+03  0.17200000000E+03 0.  1.
</event>
<event>
 4    1 -0.3240665E-004  0.1742254E+03  0.7818608E-02  0.1173512E+00
          5   -1    0    0  501    0  0.00000000000E+00  0.00000000000E+00  0.13265335535E+02  0.14073348104E+02  0.47000000000E+01 0. -1.
         -5   -1    0    0    0  501 -0.00000000000E+00 -0.00000000000E+00 -0.22474854007E+04  0.22474903150E+04  0.47000000000E+01 0.  1.
          6    1    1    2  502    0 -0.28135664308E+01 -0.27614971006E+02 -0.99166535600E+03  0.10068538529E+04  0.17200000000E+03 0. -1.
         -6    1    1    2    0  502  0.28135664308E+01  0.27614971006E+02 -0.12425547091E+04  0.12547098103E+04  0.17200000000E+03 0.  1.
</event>
<event>
 4    1 -0.3240665E-004  0.1800712E+03  0.7818608E-02  0.1167734E+00
          5   -1    0    0  501    0  0.00000000000E+00  0.00000000000E+00  0.13071132719E+04  0.13071217218E+04  0.47000000000E+01 0. -1.
         -5   -1    0    0    0  501 -0.00000000000E+00 -0.00000000000E+00 -0.24643330122E+02  0.25087521191E+02  0.47000000000E+01 0.  1.
          6    1    1    2  502    0 -0.30387690461E+02 -0.43797508623E+02  0.60669023695E+03  0.63284964810E+03  0.17200000000E+03 0.  1.
         -6    1    1    2    0  502  0.30387690461E+02  0.43797508623E+02  0.67577970484E+03  0.69935959489E+03  0.17200000000E+03 0.  1.
</event>
<event>
 4    1 -0.3240665E-004  0.3460627E+03  0.7818608E-02  0.1064243E+00
         -5   -1    0    0    0  501 -0.00000000000E+00  0.00000000000E+00  0.23645319003E+03  0.23649989656E+03  0.47000000000E+01 0.  1.
          5   -1    0    0  501    0  0.00000000000E+00 -0.00000000000E+00 -0.53645199993E+03  0.53647258852E+03  0.47000000000E+01 0. -1.
          6    1    1    2  502    0  0.36532459463E+02  0.29806167827E+03 -0.24150757621E+03  0.42200153319E+03  0.17200000000E+03 0. -1.
         -6    1    1    2    0  502 -0.36532459463E+02 -0.29806167827E+03 -0.58491233692E+02  0.35097095189E+03  0.17200000000E+03 0.  1.
</event>
<event>
 4    1 -0.3240665E-004  0.2334970E+03  0.7818608E-02  0.1124202E+00
          5   -1    0    0  501    0  0.00000000000E+00  0.00000000000E+00  0.26108981173E+03  0.26113211175E+03  0.47000000000E+01 0. -1.
         -5   -1    0    0    0  501 -0.00000000000E+00 -0.00000000000E+00 -0.21810411352E+03  0.21815474860E+03  0.47000000000E+01 0.  1.
          6    1    1    2  502    0  0.21637607167E+02 -0.15642455099E+03 -0.28166399879E+02  0.23518965173E+03  0.17200000000E+03 0.  1.
         -6    1    1    2    0  502 -0.21637607167E+02  0.15642455099E+03  0.71152098084E+02  0.24409720863E+03  0.17200000000E+03 0. -1.
</event>
<event>
 4    1 -0.3240665E-004  0.2103436E+03  0.7818608E-02  0.1141294E+00
          5   -1    0    0  501    0  0.00000000000E+00  0.00000000000E+00  0.49707798539E+02  0.49929502658E+02  0.47000000000E+01 0. -1.
         -5   -1    0    0    0  501 -0.00000000000E+00 -0.00000000000E+00 -0.89206277763E+03  0.89207515896E+03  0.47000000000E+01 0.  1.
          6    1    1    2  502    0  0.11946518918E+03 -0.19710330493E+02 -0.38893656762E+03  0.44217200521E+03  0.17200000000E+03 0. -1.
         -6    1    1    2    0  502 -0.11946518918E+03  0.19710330493E+02 -0.45341841146E+03  0.49983265641E+03  0.17200000000E+03 0.  1.
</event>
<event>
 4    1 -0.3240665E-004  0.2679846E+03  0.7818608E-02  0.1102439E+00
         -5   -1    0    0    0  501 -0.00000000000E+00  0.00000000000E+00  0.46755993487E+03  0.46758355691E+03  0.47000000000E+01 0.  1.
          5   -1    0    0  501    0  0.00000000000E+00 -0.00000000000E+00 -0.15471017657E+03  0.15478155166E+03  0.47000000000E+01 0. -1.
          6    1    1    2  502    0 -0.16963208478E+03 -0.11600291623E+03  0.12929320635E+03  0.29754403702E+03  0.17200000000E+03 0.  1.
         -6    1    1    2    0  502  0.16963208478E+03  0.11600291623E+03  0.18355655195E+03  0.32482107155E+03  0.17200000000E+03 0.  1.
</event>
<event>
 4    1 -0.3240665E-004  0.1786738E+03  0.7818608E-02  0.1169093E+00
          5   -1    0    0  501    0  0.00000000000E+00  0.00000000000E+00  0.54174579875E+03  0.54176618616E+03  0.47000000000E+01 0. -1.
         -5   -1    0    0    0  501 -0.00000000000E+00 -0.00000000000E+00 -0.63244497326E+02  0.63418896569E+02  0.47000000000E+01 0.  1.
          6    1    1    2  502    0 -0.21225885107E+02  0.43471731576E+02  0.15928310425E+03  0.23936465266E+03  0.17200000000E+03 0.  1.
         -6    1    1    2    0  502  0.21225885107E+02 -0.43471731576E+02  0.31921819717E+03  0.36582043006E+03  0.17200000000E+03 0. -1.
</event>
<event>
 4    1 -0.3240665E-004  0.4458272E+03  0.7818608E-02  0.1028974E+00
          5   -1    0    0  501    0  0.00000000000E+00  0.00000000000E+00  0.50216662667E+03  0.50218862088E+03  0.47000000000E+01 0. -1.
         -5   -1    0    0    0  501 -0.00000000000E+00 -0.00000000000E+00 -0.63312020333E+03  0.63313764843E+03  0.47000000000E+01 0.  1.
          6    1    1    2  502    0 -0.32844712222E+03 -0.24758908726E+03  0.28208545689E+03  0.52757376092E+03  0.17200000000E+03 0. -1.
         -6    1    1    2    0  502  0.32844712222E+03  0.24758908726E+03 -0.41303903354E+03  0.60775250839E+03  0.17200000000E+03 0.  1.
</event>
<event>
 4    1 -0.3240665E-004  0.2626669E+03  0.7818608E-02  0.1105551E+00
         -5   -1    0    0    0  501 -0.00000000000E+00  0.00000000000E+00  0.70873333769E+02  0.71029004214E+02  0.47000000000E+01 0.  1.
          5   -1    0    0  501    0  0.00000000000E+00 -0.00000000000E+00 -0.11801724509E+04  0.11801818097E+04  0.47000000000E+01 0. -1.
          6    1    1    2  502    0 -0.30010621126E+02  0.19623775165E+03 -0.81721973634E+03  0.85839500815E+03  0.17200000000E+03 0. -1.
         -6    1    1    2    0  502  0.30010621126E+02 -0.19623775165E+03 -0.29207938083E+03  0.39281580577E+03  0.17200000000E+03 0. -1.
</event>
<event>
 4    1 -0.3240665E-004  0.1738946E+03  0.7818608E-02  0.1173846E+00
          5   -1    0    0  501    0  0.00000000000E+00  0.00000000000E+00  0.48525147015E+03  0.48527423101E+03  0.47000000000E+01 0. -1.
         -5   -1    0    0    0  501 -0.00000000000E+00 -0.00000000000E+00 -0.74801132345E+02  0.74948645086E+02  0.47000000000E+01 0.  1.
          6    1    1    2  502    0 -0.16642613937E+02  0.19451625589E+02  0.32003422471E+03  0.36422691735E+03  0.17200000000E+03 0. -1.
         -6    1    1    2    0  502  0.16642613937E+02 -0.19451625589E+02  0.90416113090E+02  0.19599595874E+03  0.17200000000E+03 0.  1.
</event>
<event>
 4    1 -0.3240665E-004  0.1946414E+03  0.7818608E-02  0.1154340E+00
          5   -1    0    0  501    0  0.00000000000E+00  0.00000000000E+00  0.31647478180E+03  0.31650967998E+03  0.47000000000E+01 0. -1.
         -5   -1    0    0    0  501 -0.00000000000E+00 -0.00000000000E+00 -0.12347524867E+03  0.12356466742E+03  0.47000000000E+01 0.  1.
          6    1    1    2  502    0 -0.90769644939E+02 -0.78838424732E+01  0.13534727884E+03  0.23707418523E+03  0.17200000000E+03 0. -1.
         -6    1    1    2    0  502  0.90769644939E+02  0.78838424732E+01  0.57652254293E+02  0.20300016217E+03  0.17200000000E+03 0. -1.
</event>
<event>
 4    1 -0.3240665E-004  0.1998317E+03  0.7818608E-02  0.1149881E+00
          5   -1    0    0  501    0  0.00000000000E+00  0.00000000000E+00  0.39845798650E+02  0.40122034720E+02  0.47000000000E+01 0. -1.
         -5   -1    0    0    0  501 -0.00000000000E+00 -0.00000000000E+00 -0.10048189389E+04  0.10048299308E+04  0.47000000000E+01 0.  1.
          6    1    1    2  502    0 -0.53371957345E+02  0.86603378467E+02 -0.52411765525E+03  0.56092069630E+03  0.17200000000E+03 0. -1.
         -6    1    1    2    0  502  0.53371957345E+02 -0.86603378467E+02 -0.44085548495E+03  0.48403126924E+03  0.17200000000E+03 0. -1.
</event>
<event>
 4    1 -0.3240665E-004  0.1741389E+03  0.7818608E-02  0.1173599E+00
         -5   -1    0    0    0  501 -0.00000000000E+00  0.00000000000E+00  0.15948574864E+03  0.15955498745E+03  0.47000000000E+01 0.  1.
          5   -1    0    0  501    0  0.00000000000E+00 -0.00000000000E+00 -0.19045668527E+03  0.19051466863E+03  0.47000000000E+01 0. -1.
          6    1    1    2  502    0 -0.18052467193E+02 -0.20358049536E+02 -0.24066017278E+02  0.17579395593E+03  0.17200000000E+03 0. -1.
         -6    1    1    2    0  502  0.18052467193E+02  0.20358049536E+02 -0.69049193480E+01  0.17427570015E+03  0.17200000000E+03 0. -1.
</event>
<event>
 4    1 -0.3240665E-004  0.2403663E+03  0.7818608E-02  0.1119549E+00
         -5   -1    0    0    0  501 -0.00000000000E+00  0.00000000000E+00  0.55214582680E+03  0.55216583021E+03  0.47000000000E+01 0.  1.
          5   -1    0    0  501    0  0.00000000000E+00 -0.00000000000E+00 -0.10694439580E+03  0.10704762394E+03  0.47000000000E+01 0. -1.
          6    1    1    2  502    0 -0.11306309584E+03  0.12413185501E+03  0.17345771577E+03  0.29641788109E+03  0.17200000000E+03 0. -1.
         -6    1    1    2    0  502  0.11306309584E+03 -0.12413185501E+03  0.27174371523E+03  0.36279557307E+03  0.17200000000E+03 0.  1.
</event>
<event>
 4    1 -0.3240665E-004  0.2048123E+03  0.7818608E-02  0.1145741E+00
          5   -1    0    0  501    0  0.00000000000E+00  0.00000000000E+00  0.46598905476E+03  0.46601275643E+03  0.47000000000E+01 0. -1.
         -5   -1    0    0    0  501 -0.00000000000E+00 -0.00000000000E+00 -0.21224548628E+03  0.21229751870E+03  0.47000000000E+01 0.  1.
          6    1    1    2  502    0  0.76777791741E+02 -0.80431643126E+02  0.38426823202E+03  0.43544247917E+03  0.17200000000E+03 0. -1.
         -6    1    1    2    0  502 -0.76777791741E+02  0.80431643126E+02 -0.13052466354E+03  0.24286779596E+03  0.17200000000E+03 0.  1.
</event>
<event>
 4    1 -0.3240665E-004  0.2050428E+03  0.7818608E-02  0.1145553E+00
         -5   -1    0    0    0  501 -0.00000000000E+00  0.00000000000E+00  0.74735777650E+03  0.74737255509E+03  0.47000000000E+01 0.  1.
          5   -1    0    0  501    0  0.00000000000E+00 -0.00000000000E+00 -0.87995948186E+02  0.88121375938E+02  0.47000000000E+01 0. -1.
          6    1    1    2  502    0  0.10868896487E+03  0.25401827919E+02  0.78587867720E+02  0.21958733319E+03  0.17200000000E+03 0. -1.
         -6    1    1    2    0  502 -0.10868896487E+03 -0.25401827919E+02  0.58077396059E+03  0.61590659783E+03  0.17200000000E+03 0.  1.
</event>
<event>
 4    1 -0.3240665E-004  0.1979634E+03  0.7818608E-02  0.1151469E+00
         -5   -1    0    0    0  501 -0.00000000000E+00  0.00000000000E+00  0.25876682964E+03  0.25880950934E+03  0.47000000000E+01 0.  1.
          5   -1    0    0  501    0  0.00000000000E+00 -0.00000000000E+00 -0.15136980331E+03  0.15144275273E+03  0.47000000000E+01 0. -1.
          6    1    1    2  502    0 -0.81629081099E+02 -0.54241931353E+02  0.51704039284E+02  0.20460401188E+03  0.17200000000E+03 0.  1.
         -6    1    1    2    0  502  0.81629081099E+02  0.54241931353E+02  0.55692987053E+02  0.20564825019E+03  0.17200000000E+03 0.  1.
</event>
<event>
 4    1 -0.3240665E-004  0.1964212E+03  0.7818608E-02  0.1152794E+00
          5   -1    0    0  501    0  0.00000000000E+00  0.00000000000E+00  0.38499783297E+03  0.38502652037E+03  0.47000000000E+01 0. -1.
         -5   -1    0    0    0  501 -0.00000000000E+00 -0.00000000000E+00 -0.10208433066E+03  0.10219246824E+03  0.47000000000E+01 0.  1.
          6    1    1    2  502    0  0.12938991093E+02 -0.93967362390E+02  0.17519098194E+03  0.26319795371E+03  0.17200000000E+03 0.  1.
         -6    1    1    2    0  502 -0.12938991093E+02  0.93967362390E+02  0.10772252037E+03  0.22402103491E+03  0.17200000000E+03 0. -1.
</event>
<event>
 4    1 -0.3240665E-004  0.3659681E+03  0.7818608E-02  0.1056245E+00
         -5   -1    0    0    0  501 -0.00000000000E+00  0.00000000000E+00  0.11074952090E+04  0.11075051820E+04  0.47000000000E+01 0.  1.
          5   -1    0    0  501    0  0.00000000000E+00 -0.00000000000E+00 -0.19684197460E+03  0.19689807760E+03  0.47000000000E+01 0. -1.
          6    1    1    2  502    0  0.10281672145E+03 -0.30623085318E+03  0.50249028567E+02  0.36940164932E+03  0.17200000000E+03 0. -1.
         -6    1    1    2    0  502 -0.10281672145E+03  0.30623085318E+03  0.86040420588E+03  0.93500161024E+03  0.17200000000E+03 0.  1.
</event>
<event>
 4    1 -0.3240665E-004  0.3678248E+03  0.7818608E-02  0.1055528E+00
          5   -1    0    0  501    0  0.00000000000E+00  0.00000000000E+00  0.29035598354E+03  0.29039402056E+03  0.47000000000E+01 0. -1.
         -5   -1    0    0    0  501 -0.00000000000E+00 -0.00000000000E+00 -0.59585084993E+03  0.59586938616E+03  0.47000000000E+01 0.  1.
          6    1    1    2  502    0 -0.59730539767E+02 -0.31959878017E+03  0.54200594817E+02  0.37179674844E+03  0.17200000000E+03 0. -1.
         -6    1    1    2    0  502  0.59730539767E+02  0.31959878017E+03 -0.35969546121E+03  0.51446665828E+03  0.17200000000E+03 0.  1.
</event>
<event>
 4    1 -0.3240665E-004  0.1900502E+03  0.7818608E-02  0.1158416E+00
          5   -1    0    0  501    0  0.00000000000E+00  0.00000000000E+00  0.19435706137E+02  0.19995916409E+02  0.47000000000E+01 0. -1.
         -5   -1    0    0    0  501 -0.00000000000E+00 -0.00000000000E+00 -0.22751210121E+04  0.22751258668E+04  0.47000000000E+01 0.  1.
          6    1    1    2  502    0 -0.77361930172E+02 -0.23456537680E+02 -0.16345575715E+04  0.16455690602E+04  0.17200000000E+03 0.  1.
         -6    1    1    2    0  502  0.77361930172E+02  0.23456537680E+02 -0.62112773441E+03  0.64955272292E+03  0.17200000000E+03 0. -1.
</event>
<event>
 4    1 -0.3240665E-004  0.1989598E+03  0.7818608E-02  0.1150620E+00
          5   -1    0    0  501    0  0.00000000000E+00  0.00000000000E+00  0.15583342796E+03  0.15590428881E+03  0.47000000000E+01 0. -1.
         -5   -1    0    0    0  501 -0.00000000000E+00 -0.00000000000E+00 -0.92062348906E+03  0.92063548629E+03  0.47000000000E+01 0.  1.
          6    1    1    2  502    0 -0.66230939722E+02 -0.74929741623E+02  0.75660524433E+02  0.21286032630E+03  0.17200000000E+03 0. -1.
         -6    1    1    2    0  502  0.66230939722E+02  0.74929741623E+02 -0.84045058553E+03  0.86367944880E+03  0.17200000000E+03 0.  1.
</event>
<event>
 4    1 -0.3240665E-004  0.3644707E+03  0.7818608E-02  0.1056828E+00
          5   -1    0    0  501    0  0.00000000000E+00  0.00000000000E+00  0.51067939690E+03  0.51070102450E+03  0.47000000000E+01 0. -1.
         -5   -1    0    0    0  501 -0.00000000000E+00 -0.00000000000E+00 -0.34801199325E+03  0.34804372922E+03  0.47000000000E+01 0.  1.
          6    1    1    2  502    0 -0.26746321983E+03  0.17809634077E+03  0.29715279129E+03  0.47025382712E+03  0.17200000000E+03 0. -1.
         -6    1    1    2    0  502  0.26746321983E+03 -0.17809634077E+03 -0.13448538764E+03  0.38849092659E+03  0.17200000000E+03 0.  1.
</event>
<event>
 4    1 -0.3240665E-004  0.2407411E+03  0.7818608E-02  0.1119300E+00
          5   -1    0    0  501    0  0.00000000000E+00  0.00000000000E+00  0.39404068612E+03  0.39406871523E+03  0.47000000000E+01 0. -1.
         -5   -1    0    0    0  501 -0.00000000000E+00 -0.00000000000E+00 -0.21987136806E+03  0.21992159624E+03  0.47000000000E+01 0.  1.
          6    1    1    2  502    0  0.16813841308E+03  0.10086387428E+02 -0.89601687003E+02  0.25687491796E+03  0.17200000000E+03 0.  1.
         -6    1    1    2    0  502 -0.16813841308E+03 -0.10086387428E+02  0.26377100507E+03  0.35711539350E+03  0.17200000000E+03 0. -1.
</event>
<event>
 4    1 -0.3240665E-004  0.2391175E+03  0.7818608E-02  0.1120382E+00
         -5   -1    0    0    0  501 -0.00000000000E+00  0.00000000000E+00  0.10321972429E+03  0.10332667362E+03  0.47000000000E+01 0.  1.
          5   -1    0    0  501    0  0.00000000000E+00 -0.00000000000E+00 -0.70903273090E+03  0.70904830829E+03  0.47000000000E+01 0. -1.
          6    1    1    2  502    0  0.79712228369E+02  0.14573655670E+03 -0.49311076679E+03  0.54802865950E+03  0.17200000000E+03 0. -1.
         -6    1    1    2    0  502 -0.79712228369E+02 -0.14573655670E+03 -0.11270223982E+03  0.26434632241E+03  0.17200000000E+03 0.  1.
</event>
<event>
 4    1 -0.3240665E-004  0.1792898E+03  0.7818608E-02  0.1168492E+00
         -5   -1    0    0    0  501 -0.00000000000E+00  0.00000000000E+00  0.63979898785E+03  0.63981625085E+03  0.47000000000E+01 0.  1.
          5   -1    0    0  501    0  0.00000000000E+00 -0.00000000000E+00 -0.52499874223E+02  0.52709835832E+02  0.47000000000E+01 0. -1.
          6    1    1    2  502    0 -0.28487251585E+02  0.41824787687E+02  0.21999913293E+03  0.28380354977E+03  0.17200000000E+03 0.  1.
         -6    1    1    2    0  502  0.28487251585E+02 -0.41824787687E+02  0.36729998070E+03  0.40872253692E+03  0.17200000000E+03 0.  1.
</event>
<event>
 4    1 -0.3240665E-004  0.2279199E+03  0.7818608E-02  0.1128112E+00
          5   -1    0    0  501    0  0.00000000000E+00  0.00000000000E+00  0.15378464591E+03  0.15385645036E+03  0.47000000000E+01 0. -1.
         -5   -1    0    0    0  501 -0.00000000000E+00 -0.00000000000E+00 -0.34747875816E+03  0.34751054282E+03  0.47000000000E+01 0.  1.
          6    1    1    2  502    0 -0.12062139754E+03  0.88396562961E+02 -0.54642266027E+02  0.23437843571E+03  0.17200000000E+03 0. -1.
         -6    1    1    2    0  502  0.12062139754E+03 -0.88396562961E+02 -0.13905184622E+03  0.26698855748E+03  0.17200000000E+03 0.  1.
</event>
<event>
 4    1 -0.3240665E-004  0.2195029E+03  0.7818608E-02  0.1134254E+00
         -5   -1    0    0    0  501 -0.00000000000E+00  0.00000000000E+00  0.13157213113E+03  0.13165605071E+03  0.47000000000E+01 0.  1.
          5   -1    0    0  501    0  0.00000000000E+00 -0.00000000000E+00 -0.78138601947E+03  0.78140015448E+03  0.47000000000E+01 0. -1.
          6    1    1    2  502    0  0.32897114141E+02  0.13234531769E+03 -0.65775056295E+03  0.69340991217E+03  0.17200000000E+03 0. -1.
         -6    1    1    2    0  502 -0.32897114141E+02 -0.13234531769E+03  0.79366746098E+01  0.21964629302E+03  0.17200000000E+03 0.  1.
</event>
<event>
 4    1 -0.3240665E-004  0.1928649E+03  0.7818608E-02  0.1155902E+00
         -5   -1    0    0    0  501 -0.00000000000E+00  0.00000000000E+00  0.55990413822E+02  0.56187333447E+02  0.47000000000E+01 0.  1.
          5   -1    0    0  501    0  0.00000000000E+00 -0.00000000000E+00 -0.93762842006E+03  0.93764019971E+03  0.47000000000E+01 0. -1.
          6    1    1    2  502    0 -0.27686878883E+02  0.82742340446E+02 -0.70973196313E+03  0.73547013376E+03  0.17200000000E+03 0. -1.
         -6    1    1    2    0  502  0.27686878883E+02 -0.82742340446E+02 -0.17190604311E+03  0.25835739940E+03  0.17200000000E+03 0.  1.
</event>
<event>
 4    1 -0.3240665E-004  0.2530963E+03  0.7818608E-02  0.1111364E+00
         -5   -1    0    0    0  501 -0.00000000000E+00  0.00000000000E+00  0.18857840324E+03  0.18863696395E+03  0.47000000000E+01 0.  1.
          5   -1    0    0  501    0  0.00000000000E+00 -0.00000000000E+00 -0.34391311959E+03  0.34394523376E+03  0.47000000000E+01 0. -1.
          6    1    1    2  502    0 -0.11815985460E+03 -0.14322002257E+03 -0.10762297726E+03  0.27502805554E+03  0.17200000000E+03 0.  1.
         -6    1    1    2    0  502  0.11815985460E+03  0.14322002257E+03 -0.47711739092E+02  0.25755414217E+03  0.17200000000E+03 0.  1.
</event>
<event>
 4    1 -0.3240665E-004  0.2762749E+03  0.7818608E-02  0.1097741E+00
         -5   -1    0    0    0  501 -0.00000000000E+00  0.00000000000E+00  0.11715626105E+03  0.11725049894E+03  0.47000000000E+01 0.  1.
          5   -1    0    0  501    0  0.00000000000E+00 -0.00000000000E+00 -0.65329596778E+03  0.65331287414E+03  0.47000000000E+01 0. -1.
          6    1    1    2  502    0  0.73740936931E+02  0.20323894451E+03 -0.24593615967E+03  0.36988158778E+03  0.17200000000E+03 0. -1.
         -6    1    1    2    0  502 -0.73740936931E+02 -0.20323894451E+03 -0.29020354706E+03  0.40068178530E+03  0.17200000000E+03 0. -1.
</event>
<event>
 4    1 -0.3240665E-004  0.2179478E+03  0.7818608E-02  0.1135422E+00
         -5   -1    0    0    0  501 -0.00000000000E+00  0.00000000000E+00  0.21350452941E+03  0.21355625507E+03  0.47000000000E+01 0.  1.
          5   -1    0    0  501    0  0.00000000000E+00 -0.00000000000E+00 -0.27201390916E+03  0.27205451067E+03  0.47000000000E+01 0. -1.
          6    1    1    2  502    0  0.11879674668E+03  0.61681084245E+02 -0.13295378138E+03  0.25529968892E+03  0.17200000000E+03 0.  1.
         -6    1    1    2    0  502 -0.11879674668E+03 -0.61681084245E+02  0.74444401636E+02  0.23031107683E+03  0.17200000000E+03 0.  1.
</event>
<event>
 4    1 -0.3240665E-004  0.1873691E+03  0.7818608E-02  0.1160856E+00
          5   -1    0    0  501    0  0.00000000000E+00  0.00000000000E+00  0.18553578852E+03  0.18559530926E+03  0.47000000000E+01 0. -1.
         -5   -1    0    0    0  501 -0.00000000000E+00 -0.00000000000E+00 -0.20375928070E+03  0.20381347961E+03  0.47000000000E+01 0.  1.
          6    1    1    2  502    0 -0.43290884396E+02 -0.60407678694E+02  0.43095131387E+02  0.19226122507E+03  0.17200000000E+03 0. -1.
         -6    1    1    2    0  502  0.43290884396E+02  0.60407678694E+02 -0.61318623573E+02  0.19714756380E+03  0.17200000000E+03 0.  1.
</event>
<event>
 4    1 -0.3240665E-004  0.2042606E+03  0.7818608E-02  0.1146193E+00
         -5   -1    0    0    0  501 -0.00000000000E+00  0.00000000000E+00  0.72868331359E+02  0.73019748801E+02  0.47000000000E+01 0.  1.
          5   -1    0    0  501    0  0.00000000000E+00 -0.00000000000E+00 -0.58287596809E+03  0.58289491692E+03  0.47000000000E+01 0. -1.
          6    1    1    2  502    0 -0.72117903272E+02  0.83290942518E+02 -0.20983609208E+03  0.29283708546E+03  0.17200000000E+03 0.  1.
         -6    1    1    2    0  502  0.72117903272E+02 -0.83290942518E+02 -0.30017154464E+03  0.36307758027E+03  0.17200000000E+03 0. -1.
</event>
<event>
 4    1 -0.3240665E-004  0.2324807E+03  0.7818608E-02  0.1124906E+00
         -5   -1    0    0    0  501 -0.00000000000E+00  0.00000000000E+00  0.35112149181E+03  0.35115294675E+03  0.47000000000E+01 0.  1.
          5   -1    0    0  501    0  0.00000000000E+00 -0.00000000000E+00 -0.23067648453E+03  0.23072436047E+03  0.47000000000E+01 0. -1.
          6    1    1    2  502    0 -0.15637783567E+03 -0.30433155248E+01 -0.10764236560E+03  0.25619166288E+03  0.17200000000E+03 0. -1.
         -6    1    1    2    0  502  0.15637783567E+03  0.30433155248E+01  0.22808737288E+03  0.32568564434E+03  0.17200000000E+03 0.  1.
</event>
<event>
 4    1 -0.3240665E-004  0.2484933E+03  0.7818608E-02  0.1114261E+00
          5   -1    0    0  501    0  0.00000000000E+00  0.00000000000E+00  0.38442881330E+03  0.38445754316E+03  0.47000000000E+01 0. -1.
         -5   -1    0    0    0  501 -0.00000000000E+00 -0.00000000000E+00 -0.22647353557E+03  0.22652229982E+03  0.47000000000E+01 0.  1.
          6    1    1    2  502    0 -0.10437900530E+03 -0.14584214073E+03  0.24375779354E+03  0.34809017319E+03  0.17200000000E+03 0. -1.
         -6    1    1    2    0  502  0.10437900530E+03  0.14584214073E+03 -0.85802515812E+02  0.26288966979E+03  0.17200000000E+03 0.  1.
</event>
<event>
 4    1 -0.3240665E-004  0.6983868E+03  0.7818608E-02  0.9719995E-01
         -5   -1    0    0    0  501 -0.00000000000E+00  0.00000000000E+00  0.76291764310E+03  0.76293212028E+03  0.47000000000E+01 0.  1.
          5   -1    0    0  501    0  0.00000000000E+00 -0.00000000000E+00 -0.68695519691E+03  0.68697127492E+03  0.47000000000E+01 0. -1.
          6    1    1    2  502    0 -0.46601640338E+03 -0.49090612985E+03 -0.15298572296E+03  0.71494667491E+03  0.17200000000E+03 0. -1.
         -6    1    1    2    0  502  0.46601640338E+03  0.49090612985E+03  0.22894816915E+03  0.73495672028E+03  0.17200000000E+03 0.  1.
</event>
<event>
 4    1 -0.3240665E-004  0.3418673E+03  0.7818608E-02  0.1066003E+00
         -5   -1    0    0    0  501 -0.00000000000E+00  0.00000000000E+00  0.12010883802E+04  0.12010975760E+04  0.47000000000E+01 0.  1.
          5   -1    0    0  501    0  0.00000000000E+00 -0.00000000000E+00 -0.98485588336E+02  0.98597672943E+02  0.47000000000E+01 0. -1.
          6    1    1    2  502    0  0.17460522669E+03 -0.23833232988E+03  0.47825902621E+03  0.58788177452E+03  0.17200000000E+03 0. -1.
         -6    1    1    2    0  502 -0.17460522669E+03  0.23833232988E+03  0.62434376567E+03  0.71181347443E+03  0.17200000000E+03 0.  1.
</event>
<event>
 4    1 -0.3240665E-004  0.2283600E+03  0.7818608E-02  0.1127799E+00
          5   -1    0    0  501    0  0.00000000000E+00  0.00000000000E+00  0.11941876193E+03  0.11951121580E+03  0.47000000000E+01 0. -1.
         -5   -1    0    0    0  501 -0.00000000000E+00 -0.00000000000E+00 -0.66659561995E+03  0.66661218901E+03  0.47000000000E+01 0.  1.
          6    1    1    2  502    0 -0.14379984106E+03 -0.43426797962E+02 -0.50454567710E+03  0.55381822050E+03  0.17200000000E+03 0.  1.
         -6    1    1    2    0  502  0.14379984106E+03  0.43426797962E+02 -0.42631180914E+02  0.23230518431E+03  0.17200000000E+03 0.  1.
</event>
<event>
 4    1 -0.3240665E-004  0.1762367E+03  0.7818608E-02  0.1171496E+00
         -5   -1    0    0    0  501 -0.00000000000E+00  0.00000000000E+00  0.43313158728E+03  0.43315708686E+03  0.47000000000E+01 0.  1.
          5   -1    0    0  501    0  0.00000000000E+00 -0.00000000000E+00 -0.74320829085E+02  0.74469293241E+02  0.47000000000E+01 0. -1.
          6    1    1    2  502    0  0.37922284343E+02 -0.61066026917E+01  0.13093745455E+03  0.21955411008E+03  0.17200000000E+03 0. -1.
         -6    1    1    2    0  502 -0.37922284343E+02  0.61066026917E+01  0.22787330364E+03  0.28807227003E+03  0.17200000000E+03 0.  1.
</event>
<event>
 4    1 -0.3240665E-004  0.1808242E+03  0.7818608E-02  0.1167008E+00
          5   -1    0    0  501    0  0.00000000000E+00  0.00000000000E+00  0.78126592809E+03  0.78128006528E+03  0.47000000000E+01 0. -1.
         -5   -1    0    0    0  501 -0.00000000000E+00 -0.00000000000E+00 -0.74930224593E+02  0.75077483692E+02  0.47000000000E+01 0.  1.
          6    1    1    2  502    0  0.22403337762E+01  0.55752726421E+02  0.63787128192E+03  0.66300615223E+03  0.17200000000E+03 0. -1.
         -6    1    1    2    0  502 -0.22403337762E+01 -0.55752726421E+02  0.68464421584E+02  0.19335139674E+03  0.17200000000E+03 0.  1.
</event>
<event>
 4    1 -0.3240665E-004  0.2018449E+03  0.7818608E-02  0.1148192E+00
          5   -1    0    0  501    0  0.00000000000E+00  0.00000000000E+00  0.22942209820E+03  0.22947023585E+03  0.47000000000E+01 0. -1.
         -5   -1    0    0    0  501 -0.00000000000E+00 -0.00000000000E+00 -0.20082763767E+03  0.20088262755E+03  0.47000000000E+01 0.  1.
          6    1    1    2  502    0 -0.27349093869E+02 -0.10202634785E+03 -0.59043646863E+02  0.21030335429E+03  0.17200000000E+03 0.  1.
         -6    1    1    2    0  502  0.27349093869E+02  0.10202634785E+03  0.87638107391E+02  0.22004950911E+03  0.17200000000E+03 0. -1.
</event>
<event>
 4    1 -0.3240665E-004  0.1869308E+03  0.7818608E-02  0.1161259E+00
          5   -1    0    0  501    0  0.00000000000E+00  0.00000000000E+00  0.21019157906E+03  0.21024411979E+03  0.47000000000E+01 0. -1.
         -5   -1    0    0    0  501 -0.00000000000E+00 -0.00000000000E+00 -0.26371776572E+03  0.26375964429E+03  0.47000000000E+01 0.  1.
          6    1    1    2  502    0 -0.69689659870E+02 -0.22415896193E+02  0.11737375297E+03  0.22072543800E+03  0.17200000000E+03 0. -1.
         -6    1    1    2    0  502  0.69689659870E+02  0.22415896193E+02 -0.17089993963E+03  0.25327832608E+03  0.17200000000E+03 0.  1.
</event>
<event>
 4    1 -0.3240665E-004  0.1990212E+03  0.7818608E-02  0.1150567E+00
          5   -1    0    0  501    0  0.00000000000E+00  0.00000000000E+00  0.91977786794E+03  0.91978987619E+03  0.47000000000E+01 0. -1.
         -5   -1    0    0    0  501 -0.00000000000E+00 -0.00000000000E+00 -0.47991122245E+02  0.48220719761E+02  0.47000000000E+01 0.  1.
          6    1    1    2  502    0 -0.98348022385E+02  0.18790675918E+02  0.27903119157E+03  0.34273580040E+03  0.17200000000E+03 0. -1.
         -6    1    1    2    0  502  0.98348022385E+02 -0.18790675918E+02  0.59275555413E+03  0.62527479555E+03  0.17200000000E+03 0. -1.
</event>
<event>
 4    1 -0.3240665E-004  0.1821893E+03  0.7818608E-02  0.1165701E+00
         -5   -1    0    0    0  501 -0.00000000000E+00  0.00000000000E+00  0.13040855028E+03  0.13049321816E+03  0.47000000000E+01 0.  1.
          5   -1    0    0  501    0  0.00000000000E+00 -0.00000000000E+00 -0.28068759789E+03  0.28072694493E+03  0.47000000000E+01 0. -1.
          6    1    1    2  502    0 -0.52445779407E+02 -0.29297841016E+02 -0.13811844698E+03  0.22862552058E+03  0.17200000000E+03 0. -1.
         -6    1    1    2    0  502  0.52445779407E+02  0.29297841016E+02 -0.12160600630E+02  0.18259464251E+03  0.17200000000E+03 0.  1.
</event>
<event>
 4    1 -0.3240665E-004  0.1760770E+03  0.7818608E-02  0.1171655E+00
          5   -1    0    0  501    0  0.00000000000E+00  0.00000000000E+00  0.18573352158E+03  0.18579297898E+03  0.47000000000E+01 0. -1.
         -5   -1    0    0    0  501 -0.00000000000E+00 -0.00000000000E+00 -0.20486137168E+03  0.20491527909E+03  0.47000000000E+01 0.  1.
          6    1    1    2  502    0 -0.37479544038E+02  0.37952190696E+01  0.74612258136E+02  0.19123312729E+03  0.17200000000E+03 0. -1.
         -6    1    1    2    0  502  0.37479544038E+02 -0.37952190696E+01 -0.93740108233E+02  0.19947513078E+03  0.17200000000E+03 0.  1.
</event>
<event>
 4    1 -0.3240665E-004  0.3010616E+03  0.7818608E-02  0.1084711E+00
         -5   -1    0    0    0  501 -0.00000000000E+00  0.00000000000E+00  0.32065962352E+03  0.32069406630E+03  0.47000000000E+01 0.  1.
          5   -1    0    0  501    0  0.00000000000E+00 -0.00000000000E+00 -0.41794238953E+03  0.41796881578E+03  0.47000000000E+01 0. -1.
          6    1    1    2  502    0 -0.24227612054E+03  0.48542659805E+02 -0.25880255599E+03  0.39700991347E+03  0.17200000000E+03 0. -1.
         -6    1    1    2    0  502  0.24227612054E+03 -0.48542659805E+02  0.16151978998E+03  0.34165296861E+03  0.17200000000E+03 0.  1.
</event>
<event>
 4    1 -0.3240665E-004  0.1727579E+03  0.7818608E-02  0.1175002E+00
          5   -1    0    0  501    0  0.00000000000E+00  0.00000000000E+00  0.81169262612E+02  0.81305222421E+02  0.47000000000E+01 0. -1.
         -5   -1    0    0    0  501 -0.00000000000E+00 -0.00000000000E+00 -0.55412824297E+03  0.55414817482E+03  0.47000000000E+01 0.  1.
          6    1    1    2  502    0  0.14890394775E+02 -0.62903542988E+01 -0.51984657994E+02  0.18040980317E+03  0.17200000000E+03 0. -1.
         -6    1    1    2    0  502 -0.14890394775E+02  0.62903542988E+01 -0.42097432236E+03  0.45504359407E+03  0.17200000000E+03 0.  1.
</event>
<event>
 4    1 -0.3240665E-004  0.5054088E+03  0.7818608E-02  0.1012377E+00
         -5   -1    0    0    0  501 -0.00000000000E+00  0.00000000000E+00  0.16418454855E+04  0.16418522127E+04  0.47000000000E+01 0.  1.
          5   -1    0    0  501    0  0.00000000000E+00 -0.00000000000E+00 -0.15919998280E+03  0.15926934583E+03  0.47000000000E+01 0. -1.
          6    1    1    2  502    0 -0.27943366037E+03 -0.38440976534E+03  0.60475843438E+03  0.78814389688E+03  0.17200000000E+03 0. -1.
         -6    1    1    2    0  502  0.27943366037E+03  0.38440976534E+03  0.87788706837E+03  0.10129776617E+04  0.17200000000E+03 0.  1.
</event>
<event>
 4    1 -0.3240665E-004  0.1871147E+03  0.7818608E-02  0.1161090E+00
         -5   -1    0    0    0  501 -0.00000000000E+00  0.00000000000E+00  0.95566597956E+02  0.95682102009E+02  0.47000000000E+01 0.  1.
          5   -1    0    0  501    0  0.00000000000E+00 -0.00000000000E+00 -0.42389133650E+03  0.42391739191E+03  0.47000000000E+01 0. -1.
          6    1    1    2  502    0  0.73262534588E+02  0.77789462694E+01 -0.26014860548E+03  0.32045156875E+03  0.17200000000E+03 0. -1.
         -6    1    1    2    0  502 -0.73262534588E+02 -0.77789462694E+01 -0.68176133064E+02  0.19914792517E+03  0.17200000000E+03 0.  1.
</event>
<event>
 4    1 -0.3240665E-004  0.2529769E+03  0.7818608E-02  0.1111438E+00
         -5   -1    0    0    0  501 -0.00000000000E+00  0.00000000000E+00  0.71657465029E+02  0.71811435679E+02  0.47000000000E+01 0.  1.
          5   -1    0    0  501    0  0.00000000000E+00 -0.00000000000E+00 -0.13206104734E+04  0.13206188370E+04  0.47000000000E+01 0. -1.
          6    1    1    2  502    0 -0.32728021848E+02  0.18259848643E+03 -0.10210918920E+04  0.10519629188E+04  0.17200000000E+03 0. -1.
         -6    1    1    2    0  502  0.32728021848E+02 -0.18259848643E+03 -0.22786111645E+03  0.34046735387E+03  0.17200000000E+03 0. -1.
</event>
<event>
 4    1 -0.3240665E-004  0.2048516E+03  0.7818608E-02  0.1145709E+00
          5   -1    0    0  501    0  0.00000000000E+00  0.00000000000E+00  0.11496491228E+04  0.11496587300E+04  0.47000000000E+01 0. -1.
         -5   -1    0    0    0  501 -0.00000000000E+00 -0.00000000000E+00 -0.50983032974E+02  0.51199215338E+02  0.47000000000E+01 0.  1.
          6    1    1    2  502    0  0.10780108642E+03 -0.27551939686E+02  0.87026422128E+03  0.89404921478E+03  0.17200000000E+03 0. -1.
         -6    1    1    2    0  502 -0.10780108642E+03  0.27551939686E+02  0.22840186854E+03  0.30680873059E+03  0.17200000000E+03 0.  1.
</event>
<event>
 4    1 -0.3240665E-004  0.1984239E+03  0.7818608E-02  0.1151076E+00
         -5   -1    0    0    0  501 -0.00000000000E+00  0.00000000000E+00  0.15998786576E+03  0.16005688736E+03  0.47000000000E+01 0.  1.
          5   -1    0    0  501    0  0.00000000000E+00 -0.00000000000E+00 -0.38159019221E+03  0.38161913577E+03  0.47000000000E+01 0. -1.
          6    1    1    2  502    0  0.62992114133E+02 -0.76289189859E+02 -0.27225407333E+03  0.33688919154E+03  0.17200000000E+03 0. -1.
         -6    1    1    2    0  502 -0.62992114133E+02  0.76289189859E+02  0.50651746887E+02  0.20478683160E+03  0.17200000000E+03 0.  1.
</event>
<event>
 4    1 -0.3240665E-004  0.1966531E+03  0.7818608E-02  0.1152594E+00
          5   -1    0    0  501    0  0.00000000000E+00  0.00000000000E+00  0.35627146275E+03  0.35630246305E+03  0.47000000000E+01 0. -1.
         -5   -1    0    0    0  501 -0.00000000000E+00 -0.00000000000E+00 -0.16809167326E+03  0.16815736861E+03  0.47000000000E+01 0.  1.
          6    1    1    2  502    0  0.74793564282E+02 -0.59113001197E+02 -0.62043478147E+02  0.20620818934E+03  0.17200000000E+03 0. -1.
         -6    1    1    2    0  502 -0.74793564282E+02  0.59113001197E+02  0.25022326765E+03  0.31825164232E+03  0.17200000000E+03 0. -1.
</event>
<event>
 4    1 -0.3240665E-004  0.2590509E+03  0.7818608E-02  0.1107715E+00
         -5   -1    0    0    0  501 -0.00000000000E+00  0.00000000000E+00  0.12012212630E+03  0.12021403923E+03  0.47000000000E+01 0.  1.
          5   -1    0    0  501    0  0.00000000000E+00 -0.00000000000E+00 -0.94323724727E+03  0.94324895687E+03  0.47000000000E+01 0. -1.
          6    1    1    2  502    0 -0.12165702506E+03  0.15074133492E+03 -0.75120409232E+03  0.79461624078E+03  0.17200000000E+03 0. -1.
         -6    1    1    2    0  502  0.12165702506E+03 -0.15074133492E+03 -0.71911028649E+02  0.26884675531E+03  0.17200000000E+03 0.  1.
</event>
<event>
 4    1 -0.3240665E-004  0.3485633E+03  0.7818608E-02  0.1063206E+00
         -5   -1    0    0    0  501 -0.00000000000E+00  0.00000000000E+00  0.12613619576E+03  0.12622372947E+03  0.47000000000E+01 0.  1.
          5   -1    0    0  501    0  0.00000000000E+00 -0.00000000000E+00 -0.14534720270E+04  0.14534796260E+04  0.47000000000E+01 0. -1.
          6    1    1    2  502    0  0.40977023275E+02 -0.30038849621E+03 -0.20475686442E+03  0.40425454682E+03  0.17200000000E+03 0. -1.
         -6    1    1    2    0  502 -0.40977023275E+02  0.30038849621E+03 -0.11225789668E+04  0.11754488086E+04  0.17200000000E+03 0.  1.
</event>
<event>
 4    1 -0.3240665E-004  0.1792256E+03  0.7818608E-02  0.1168555E+00
         -5   -1    0    0    0  501 -0.00000000000E+00  0.00000000000E+00  0.44570961557E+02  0.44818083562E+02  0.47000000000E+01 0.  1.
          5   -1    0    0  501    0  0.00000000000E+00 -0.00000000000E+00 -0.86002066681E+03  0.86003350943E+03  0.47000000000E+01 0. -1.
          6    1    1    2  502    0 -0.10950189907E+02  0.49172113977E+02 -0.59126291766E+03  0.61782978340E+03  0.17200000000E+03 0. -1.
         -6    1    1    2    0  502  0.10950189907E+02 -0.49172113977E+02 -0.22418678760E+03  0.28702180960E+03  0.17200000000E+03 0.  1.
</event>
<event>
 4    1 -0.3240665E-004  0.2600732E+03  0.7818608E-02  0.1107099E+00
          5   -1    0    0  501    0  0.00000000000E+00  0.00000000000E+00  0.99395932758E+02  0.99506991959E+02  0.47000000000E+01 0. -1.
         -5   -1    0    0    0  501 -0.00000000000E+00 -0.00000000000E+00 -0.75018812760E+03  0.75020285043E+03  0.47000000000E+01 0.  1.
          6    1    1    2  502    0 -0.18236747182E+03 -0.69254237103E+02 -0.19544625684E+03  0.32532642599E+03  0.17200000000E+03 0. -1.
         -6    1    1    2    0  502  0.18236747182E+03  0.69254237103E+02 -0.45534593800E+03  0.52438341639E+03  0.17200000000E+03 0.  1.
</event>
<event>
 4    1 -0.3240665E-004  0.2201569E+03  0.7818608E-02  0.1133766E+00
         -5   -1    0    0    0  501 -0.00000000000E+00  0.00000000000E+00  0.14061669359E+03  0.14069521852E+03  0.47000000000E+01 0.  1.
          5   -1    0    0  501    0  0.00000000000E+00 -0.00000000000E+00 -0.65054610278E+03  0.65056308061E+03  0.47000000000E+01 0. -1.
          6    1    1    2  502    0  0.94451869667E+02 -0.99819399835E+02 -0.52630189764E+03  0.57049343180E+03  0.17200000000E+03 0. -1.
         -6    1    1    2    0  502 -0.94451869667E+02  0.99819399835E+02  0.16372488446E+02  0.22076486732E+03  0.17200000000E+03 0.  1.
</event>
<event>
 4    1 -0.3240665E-004  0.1821235E+03  0.7818608E-02  0.1165764E+00
         -5   -1    0    0    0  501 -0.00000000000E+00  0.00000000000E+00  0.97289074880E+03  0.97290210149E+03  0.47000000000E+01 0.  1.
          5   -1    0    0  501    0  0.00000000000E+00 -0.00000000000E+00 -0.44580629400E+02  0.44827698108E+02  0.47000000000E+01 0. -1.
          6    1    1    2  502    0 -0.54506595287E+01 -0.59625898308E+02  0.21613483573E+03  0.28263620549E+03  0.17200000000E+03 0. -1.
         -6    1    1    2    0  502  0.54506595287E+01  0.59625898308E+02  0.71217528367E+03  0.73509359411E+03  0.17200000000E+03 0.  1.
</event>
<event>
 4    1 -0.3240665E-004  0.2634973E+03  0.7818608E-02  0.1105060E+00
          5   -1    0    0  501    0  0.00000000000E+00  0.00000000000E+00  0.62988998964E+02  0.63164103654E+02  0.47000000000E+01 0. -1.
         -5   -1    0    0    0  501 -0.00000000000E+00 -0.00000000000E+00 -0.11181304018E+04  0.11181402799E+04  0.47000000000E+01 0.  1.
          6    1    1    2  502    0  0.18936954305E+03 -0.63134624534E+02 -0.45353222593E+03  0.52452100493E+03  0.17200000000E+03 0. -1.
         -6    1    1    2    0  502 -0.18936954305E+03  0.63134624534E+02 -0.60160917694E+03  0.65678337861E+03  0.17200000000E+03 0.  1.
</event>
<event>
 4    1 -0.3240665E-004  0.1788697E+03  0.7818608E-02  0.1168901E+00
          5   -1    0    0  501    0  0.00000000000E+00  0.00000000000E+00  0.43264898634E+02  0.43519437655E+02  0.47000000000E+01 0. -1.
         -5   -1    0    0    0  501 -0.00000000000E+00 -0.00000000000E+00 -0.81465412605E+03  0.81466768384E+03  0.47000000000E+01 0.  1.
          6    1    1    2  502    0  0.27678715071E+02  0.40549669161E+02 -0.51809319883E+03  0.54810122205E+03  0.17200000000E+03 0.  1.
         -6    1    1    2    0  502 -0.27678715071E+02 -0.40549669161E+02 -0.25329602858E+03  0.31008589944E+03  0.17200000000E+03 0. -1.
</event>
<event>
 4    1 -0.3240665E-004  0.4159553E+03  0.7818608E-02  0.1038391E+00
         -5   -1    0    0    0  501 -0.00000000000E+00  0.00000000000E+00  0.99255361420E+03  0.99256474200E+03  0.47000000000E+01 0.  1.
          5   -1    0    0  501    0  0.00000000000E+00 -0.00000000000E+00 -0.18341124904E+03  0.18347145902E+03  0.47000000000E+01 0. -1.
          6    1    1    2  502    0 -0.12524664228E+03 -0.35741866080E+03  0.53579763802E+03  0.67830518898E+03  0.17200000000E+03 0. -1.
         -6    1    1    2    0  502  0.12524664228E+03  0.35741866080E+03  0.27334472714E+03  0.49773101204E+03  0.17200000000E+03 0.  1.
</event>
<event>
 4    1 -0.3240665E-004  0.1793969E+03  0.7818608E-02  0.1168388E+00
         -5   -1    0    0    0  501 -0.00000000000E+00  0.00000000000E+00  0.20854520511E+03  0.20859816053E+03  0.47000000000E+01 0.  1.
          5   -1    0    0  501    0  0.00000000000E+00 -0.00000000000E+00 -0.17754521920E+03  0.17760741781E+03  0.47000000000E+01 0. -1.
          6    1    1    2  502    0  0.64465729538E+01  0.50573575767E+02 -0.54476732334E+02  0.18748589076E+03  0.17200000000E+03 0. -1.
         -6    1    1    2    0  502 -0.64465729538E+01 -0.50573575767E+02  0.85476718248E+02  0.19871968758E+03  0.17200000000E+03 0.  1.
</event>
<event>
 4    1 -0.3240665E-004  0.2023408E+03  0.7818608E-02  0.1147779E+00
         -5   -1    0    0    0  501 -0.00000000000E+00  0.00000000000E+00  0.11353073784E+03  0.11362798262E+03  0.47000000000E+01 0.  1.
          5   -1    0    0  501    0  0.00000000000E+00 -0.00000000000E+00 -0.38524684990E+03  0.38527551876E+03  0.47000000000E+01 0. -1.
          6    1    1    2  502    0 -0.60764243702E+02  0.87552971594E+02 -0.19925427428E+03  0.28397901677E+03  0.17200000000E+03 0.  1.
         -6    1    1    2    0  502  0.60764243702E+02 -0.87552971594E+02 -0.72461837780E+02  0.21492448460E+03  0.17200000000E+03 0.  1.
</event>
<event>
 4    1 -0.3240665E-004  0.2172485E+03  0.7818608E-02  0.1135951E+00
         -5   -1    0    0    0  501 -0.00000000000E+00  0.00000000000E+00  0.37180438971E+03  0.37183409501E+03  0.47000000000E+01 0.  1.
          5   -1    0    0  501    0  0.00000000000E+00 -0.00000000000E+00 -0.13517506469E+03  0.13525674886E+03  0.47000000000E+01 0. -1.
          6    1    1    2  502    0 -0.12714493236E+03  0.38040655706E+02  0.55464380863E+02  0.22421691028E+03  0.17200000000E+03 0. -1.
         -6    1    1    2    0  502  0.12714493236E+03 -0.38040655706E+02  0.18116494416E+03  0.28287393359E+03  0.17200000000E+03 0.  1.
</event>
<event>
 4    1 -0.3240665E-004  0.2854599E+03  0.7818608E-02  0.1092744E+00
         -5   -1    0    0    0  501 -0.00000000000E+00  0.00000000000E+00  0.20703410993E+03  0.20708745176E+03  0.47000000000E+01 0.  1.
          5   -1    0    0  501    0  0.00000000000E+00 -0.00000000000E+00 -0.42905319402E+03  0.42907893597E+03  0.47000000000E+01 0. -1.
          6    1    1    2  502    0  0.27362479017E+02 -0.22617394790E+03 -0.20259605917E+03  0.35004645857E+03  0.17200000000E+03 0. -1.
         -6    1    1    2    0  502 -0.27362479017E+02  0.22617394790E+03 -0.19423024911E+02  0.28611992916E+03  0.17200000000E+03 0.  1.
</event>
<event>
 4    1 -0.3240665E-004  0.2062910E+03  0.7818608E-02  0.1144537E+00
          5   -1    0    0  501    0  0.00000000000E+00  0.00000000000E+00  0.39538965604E+03  0.39541758952E+03  0.47000000000E+01 0. -1.
         -5   -1    0    0    0  501 -0.00000000000E+00 -0.00000000000E+00 -0.11047529927E+03  0.11057523117E+03  0.47000000000E+01 0.  1.
          6    1    1    2  502    0  0.73719906310E+02  0.86817970268E+02  0.18361984247E+03  0.27617427668E+03  0.17200000000E+03 0. -1.
         -6    1    1    2    0  502 -0.73719906310E+02 -0.86817970268E+02  0.10129451430E+03  0.22981854402E+03  0.17200000000E+03 0.  1.
</event>
<event>
 4    1 -0.3240665E-004  0.1989855E+03  0.7818608E-02  0.1150598E+00
         -5   -1    0    0    0  501 -0.00000000000E+00  0.00000000000E+00  0.37112028199E+03  0.37115004204E+03  0.47000000000E+01 0.  1.
          5   -1    0    0  501    0  0.00000000000E+00 -0.00000000000E+00 -0.11349434160E+03  0.11359161754E+03  0.47000000000E+01 0. -1.
          6    1    1    2  502    0  0.80710885049E+02  0.59135263931E+02  0.18849239867E+03  0.27408869142E+03  0.17200000000E+03 0.  1.
         -6    1    1    2    0  502 -0.80710885049E+02 -0.59135263931E+02  0.69133541713E+02  0.21065296816E+03  0.17200000000E+03 0. -1.
</event>
<event>
 4    1 -0.3240665E-004  0.1859243E+03  0.7818608E-02  0.1162190E+00
         -5   -1    0    0    0  501 -0.00000000000E+00  0.00000000000E+00  0.92088642099E+02  0.92208502881E+02  0.47000000000E+01 0.  1.
          5   -1    0    0  501    0  0.00000000000E+00 -0.00000000000E+00 -0.55859570339E+03  0.55861547584E+03  0.47000000000E+01 0. -1.
          6    1    1    2  502    0 -0.32434942086E+02  0.62704107693E+02 -0.41978990537E+03  0.45912024050E+03  0.17200000000E+03 0. -1.
         -6    1    1    2    0  502  0.32434942086E+02 -0.62704107693E+02 -0.46717155926E+02  0.19170373822E+03  0.17200000000E+03 0.  1.
</event>
<event>
 4    1 -0.3240665E-004  0.3466691E+03  0.7818608E-02  0.1063991E+00
         -5   -1    0    0    0  501 -0.00000000000E+00  0.00000000000E+00  0.22953901743E+03  0.22958713057E+03  0.47000000000E+01 0.  1.
          5   -1    0    0  501    0  0.00000000000E+00 -0.00000000000E+00 -0.54185328921E+03  0.54187367258E+03  0.47000000000E+01 0. -1.
          6    1    1    2  502    0  0.21304200210E+03  0.21262303189E+03 -0.22722969672E+03  0.41450305598E+03  0.17200000000E+03 0.  1.
         -6    1    1    2    0  502 -0.21304200210E+03 -0.21262303189E+03 -0.85084575063E+02  0.35695774717E+03  0.17200000000E+03 0.  1.
</event>
<event>
 4    1 -0.3240665E-004  0.1923480E+03  0.7818608E-02  0.1156360E+00
         -5   -1    0    0    0  501 -0.00000000000E+00  0.00000000000E+00  0.14564225191E+04  0.14564301028E+04  0.47000000000E+01 0.  1.
          5   -1    0    0  501    0  0.00000000000E+00 -0.00000000000E+00 -0.28728253600E+02  0.29110179575E+02  0.47000000000E+01 0. -1.
          6    1    1    2  502    0 -0.86063490781E+02 -0.26150560067E+01  0.45460659885E+03  0.49362427279E+03  0.17200000000E+03 0. -1.
         -6    1    1    2    0  502  0.86063490781E+02  0.26150560067E+01  0.97308766668E+03  0.99191600955E+03  0.17200000000E+03 0.  1.
</event>
<event>
 4    1 -0.3240665E-004  0.1797391E+03  0.7818608E-02  0.1168056E+00
         -5   -1    0    0    0  501 -0.00000000000E+00  0.00000000000E+00  0.16499039334E+03  0.16505732305E+03  0.47000000000E+01 0.  1.
          5   -1    0    0  501    0  0.00000000000E+00 -0.00000000000E+00 -0.20362931746E+03  0.20368355096E+03  0.47000000000E+01 0. -1.
          6    1    1    2  502    0 -0.36343960593E+02 -0.37433616916E+02  0.17117262321E+02  0.18055237416E+03  0.17200000000E+03 0. -1.
         -6    1    1    2    0  502  0.36343960593E+02  0.37433616916E+02 -0.55756186450E+02  0.18818849985E+03  0.17200000000E+03 0. -1.
</event>
<event>
 4    1 -0.3240665E-004  0.2142497E+03  0.7818608E-02  0.1138244E+00
         -5   -1    0    0    0  501 -0.00000000000E+00  0.00000000000E+00  0.12036141324E+04  0.12036233089E+04  0.47000000000E+01 0.  1.
          5   -1    0    0  501    0  0.00000000000E+00 -0.00000000000E+00 -0.40231695704E+02  0.40505300138E+02  0.47000000000E+01 0. -1.
          6    1    1    2  502    0  0.18094737044E+02 -0.12645756009E+03  0.43516625204E+03  0.48504907063E+03  0.17200000000E+03 0. -1.
         -6    1    1    2    0  502 -0.18094737044E+02  0.12645756009E+03  0.72821618467E+03  0.75907953841E+03  0.17200000000E+03 0.  1.
</event>
<event>
 4    1 -0.3240665E-004  0.2561292E+03  0.7818608E-02  0.1109491E+00
          5   -1    0    0  501    0  0.00000000000E+00  0.00000000000E+00  0.36765973197E+03  0.36768977211E+03  0.47000000000E+01 0. -1.
         -5   -1    0    0    0  501 -0.00000000000E+00 -0.00000000000E+00 -0.32580244834E+03  0.32583634749E+03  0.47000000000E+01 0.  1.
          6    1    1    2  502    0  0.17849879882E+03 -0.64469921256E+02  0.25417226723E+03  0.36084031559E+03  0.17200000000E+03 0. -1.
         -6    1    1    2    0  502 -0.17849879882E+03  0.64469921256E+02 -0.21231498359E+03  0.33268580400E+03  0.17200000000E+03 0.  1.
</event>
<event>
 4    1 -0.3240665E-004  0.3263368E+03  0.7818608E-02  0.1072769E+00
          5   -1    0    0  501    0  0.00000000000E+00  0.00000000000E+00  0.77880890610E+03  0.77882308789E+03  0.47000000000E+01 0. -1.
         -5   -1    0    0    0  501 -0.00000000000E+00 -0.00000000000E+00 -0.38656115408E+03  0.38658972548E+03  0.47000000000E+01 0.  1.
          6    1    1    2  502    0  0.27182780916E+03  0.54966988162E+02  0.66457422613E+03  0.74037465493E+03  0.17200000000E+03 0. -1.
         -6    1    1    2    0  502 -0.27182780916E+03 -0.54966988162E+02 -0.27232647411E+03  0.42503815843E+03  0.17200000000E+03 0.  1.
</event>
<event>
 4    1 -0.3240665E-004  0.1984444E+03  0.7818608E-02  0.1151058E+00
          5   -1    0    0  501    0  0.00000000000E+00  0.00000000000E+00  0.70983964993E+02  0.71139393350E+02  0.47000000000E+01 0. -1.
         -5   -1    0    0    0  501 -0.00000000000E+00 -0.00000000000E+00 -0.59032634682E+03  0.59034505652E+03  0.47000000000E+01 0.  1.
          6    1    1    2  502    0  0.35641247650E+02 -0.92335802732E+02 -0.17764226192E+03  0.26633995611E+03  0.17200000000E+03 0. -1.
         -6    1    1    2    0  502 -0.35641247650E+02  0.92335802732E+02 -0.34170011991E+03  0.39514449376E+03  0.17200000000E+03 0. -1.
</event>
<event>
 4    1 -0.3240665E-004  0.3462846E+03  0.7818608E-02  0.1064150E+00
          5   -1    0    0  501    0  0.00000000000E+00  0.00000000000E+00  0.25669215214E+04  0.25669258242E+04  0.47000000000E+01 0. -1.
         -5   -1    0    0    0  501 -0.00000000000E+00 -0.00000000000E+00 -0.48262480608E+02  0.48490793296E+02  0.47000000000E+01 0.  1.
          6    1    1    2  502    0  0.30042169009E+03 -0.87075870176E+01  0.15020158440E+04  0.15414164297E+04  0.17200000000E+03 0. -1.
         -6    1    1    2    0  502 -0.30042169009E+03  0.87075870176E+01  0.10166431967E+04  0.10740001878E+04  0.17200000000E+03 0.  1.
</event>
<event>
 4    1 -0.3240665E-004  0.3525807E+03  0.7818608E-02  0.1061561E+00
          5   -1    0    0  501    0  0.00000000000E+00  0.00000000000E+00  0.12087166502E+03  0.12096300842E+03  0.47000000000E+01 0. -1.
         -5   -1    0    0    0  501 -0.00000000000E+00 -0.00000000000E+00 -0.12462634016E+04  0.12462722640E+04  0.47000000000E+01 0.  1.
          6    1    1    2  502    0  0.13278665801E+03 -0.27766321806E+03 -0.84878014541E+03  0.91909786990E+03  0.17200000000E+03 0. -1.
         -6    1    1    2    0  502 -0.13278665801E+03  0.27766321806E+03 -0.27661159114E+03  0.44813740255E+03  0.17200000000E+03 0. -1.
</event>
<event>
 4    1 -0.3240665E-004  0.1788368E+03  0.7818608E-02  0.1168934E+00
         -5   -1    0    0    0  501 -0.00000000000E+00  0.00000000000E+00  0.17048765538E+04  0.17048830323E+04  0.47000000000E+01 0.  1.
          5   -1    0    0  501    0  0.00000000000E+00 -0.00000000000E+00 -0.21707534139E+02  0.22210516392E+02  0.47000000000E+01 0. -1.
          6    1    1    2  502    0 -0.43967530411E+02  0.21574666533E+02  0.51167062042E+03  0.54202346237E+03  0.17200000000E+03 0. -1.
         -6    1    1    2    0  502  0.43967530411E+02 -0.21574666533E+02  0.11714983992E+04  0.11850700863E+04  0.17200000000E+03 0.  1.
</event>
<event>
 4    1 -0.3240665E-004  0.2574389E+03  0.7818608E-02  0.1108692E+00
         -5   -1    0    0    0  501 -0.00000000000E+00  0.00000000000E+00  0.22753933322E+03  0.22758786910E+03  0.47000000000E+01 0.  1.
          5   -1    0    0  501    0  0.00000000000E+00 -0.00000000000E+00 -0.29158323055E+03  0.29162110749E+03  0.47000000000E+01 0. -1.
          6    1    1    2  502    0 -0.16462332060E+03  0.97928294204E+02 -0.22236574817E+02  0.25839747242E+03  0.17200000000E+03 0. -1.
         -6    1    1    2    0  502  0.16462332060E+03 -0.97928294204E+02 -0.41807322514E+02  0.26081150417E+03  0.17200000000E+03 0.  1.
</event>
<event>
 4    1 -0.3240665E-004  0.2358933E+03  0.7818608E-02  0.1122559E+00
          5   -1    0    0  501    0  0.00000000000E+00  0.00000000000E+00  0.60841546624E+02  0.61022813731E+02  0.47000000000E+01 0. -1.
         -5   -1    0    0    0  501 -0.00000000000E+00 -0.00000000000E+00 -0.12513605343E+04  0.12513693607E+04  0.47000000000E+01 0.  1.
          6    1    1    2  502    0 -0.13105632060E+03 -0.94264952322E+02 -0.93642558070E+03  0.96568033458E+03  0.17200000000E+03 0.  1.
         -6    1    1    2    0  502  0.13105632060E+03  0.94264952322E+02 -0.25409340701E+03  0.34671183985E+03  0.17200000000E+03 0. -1.
</event>
<event>
 4    1 -0.3240665E-004  0.2637389E+03  0.7818608E-02  0.1104917E+00
         -5   -1    0    0    0  501 -0.00000000000E+00  0.00000000000E+00  0.11299689296E+04  0.11299787041E+04  0.47000000000E+01 0.  1.
          5   -1    0    0  501    0  0.00000000000E+00 -0.00000000000E+00 -0.67934215942E+02  0.68096605610E+02  0.47000000000E+01 0. -1.
          6    1    1    2  502    0  0.18774104070E+03 -0.68756732980E+02  0.71573099100E+03  0.76277718777E+03  0.17200000000E+03 0. -1.
         -6    1    1    2    0  502 -0.18774104070E+03  0.68756732980E+02  0.34630372262E+03  0.43529812197E+03  0.17200000000E+03 0.  1.
</event>
<event>
 4    1 -0.3240665E-004  0.2273536E+03  0.7818608E-02  0.1128516E+00
          5   -1    0    0  501    0  0.00000000000E+00  0.00000000000E+00  0.25356389492E+03  0.25360745022E+03  0.47000000000E+01 0. -1.
         -5   -1    0    0    0  501 -0.00000000000E+00 -0.00000000000E+00 -0.25421751808E+03  0.25426096141E+03  0.47000000000E+01 0.  1.
          6    1    1    2  502    0 -0.95935085106E+02 -0.11358742158E+03  0.11277868064E+03  0.25378863982E+03  0.17200000000E+03 0. -1.
         -6    1    1    2    0  502  0.95935085106E+02  0.11358742158E+03 -0.11343230381E+03  0.25407977181E+03  0.17200000000E+03 0.  1.
</event>
<event>
 4    1 -0.3240665E-004  0.2496400E+03  0.7818608E-02  0.1113533E+00
         -5   -1    0    0    0  501 -0.00000000000E+00  0.00000000000E+00  0.15341542041E+03  0.15348739759E+03  0.47000000000E+01 0.  1.
          5   -1    0    0  501    0  0.00000000000E+00 -0.00000000000E+00 -0.42968565668E+03  0.42971136075E+03  0.47000000000E+01 0. -1.
          6    1    1    2  502    0  0.15854561489E+03 -0.87174671348E+02 -0.20653596653E+03  0.32400191480E+03  0.17200000000E+03 0. -1.
         -6    1    1    2    0  502 -0.15854561489E+03  0.87174671348E+02 -0.69734269742E+02  0.25919684354E+03  0.17200000000E+03 0.  1.
</event>
<event>
 4    1 -0.3240665E-004  0.1743111E+03  0.7818608E-02  0.1173425E+00
          5   -1    0    0  501    0  0.00000000000E+00  0.00000000000E+00  0.12109178686E+03  0.12118296434E+03  0.47000000000E+01 0. -1.
         -5   -1    0    0    0  501 -0.00000000000E+00 -0.00000000000E+00 -0.27973756560E+03  0.27977704625E+03  0.47000000000E+01 0.  1.
          6    1    1    2  502    0 -0.15517305061E+02 -0.23655624634E+02 -0.14760639884E+02  0.17493499313E+03  0.17200000000E+03 0. -1.
         -6    1    1    2    0  502  0.15517305061E+02  0.23655624634E+02 -0.14388513886E+03  0.22602501746E+03  0.17200000000E+03 0.  1.
</event>
<event>
 4    1 -0.3240665E-004  0.1736908E+03  0.7818608E-02  0.1174053E+00
          5   -1    0    0  501    0  0.00000000000E+00  0.00000000000E+00  0.22790529417E+02  0.23270114549E+02  0.47000000000E+01 0. -1.
         -5   -1    0    0    0  501 -0.00000000000E+00 -0.00000000000E+00 -0.16407340815E+04  0.16407408133E+04  0.47000000000E+01 0.  1.
          6    1    1    2  502    0  0.19449922035E+02 -0.14359037885E+02 -0.43517562392E+03  0.46855768598E+03  0.17200000000E+03 0. -1.
         -6    1    1    2    0  502 -0.19449922035E+02  0.14359037885E+02 -0.11827679282E+04  0.11954532418E+04  0.17200000000E+03 0.  1.
</event>
<event>
 4    1 -0.3240665E-004  0.2690169E+03  0.7818608E-02  0.1101844E+00
         -5   -1    0    0    0  501 -0.00000000000E+00  0.00000000000E+00  0.11925802586E+03  0.11935060423E+03  0.47000000000E+01 0.  1.
          5   -1    0    0  501    0  0.00000000000E+00 -0.00000000000E+00 -0.74260470142E+03  0.74261957460E+03  0.47000000000E+01 0. -1.
          6    1    1    2  502    0  0.43494792745E+02 -0.20222334180E+03 -0.49617049681E+03  0.56440697982E+03  0.17200000000E+03 0. -1.
         -6    1    1    2    0  502 -0.43494792745E+02  0.20222334180E+03 -0.12717617876E+03  0.29756319901E+03  0.17200000000E+03 0.  1.
</event>
<event>
 4    1 -0.3240665E-004  0.1845622E+03  0.7818608E-02  0.1163459E+00
         -5   -1    0    0    0  501 -0.00000000000E+00  0.00000000000E+00  0.62203292778E+03  0.62205068382E+03  0.47000000000E+01 0.  1.
          5   -1    0    0  501    0  0.00000000000E+00 -0.00000000000E+00 -0.68468109202E+02  0.68629235590E+02  0.47000000000E+01 0. -1.
          6    1    1    2  502    0 -0.28652148071E+02 -0.60483486245E+02  0.43174504465E+03  0.46953911581E+03  0.17200000000E+03 0. -1.
         -6    1    1    2    0  502  0.28652148071E+02  0.60483486245E+02  0.12181977393E+03  0.22114080360E+03  0.17200000000E+03 0. -1.
</event>
<event>
 4    1 -0.3240665E-004  0.1765104E+03  0.7818608E-02  0.1171224E+00
          5   -1    0    0  501    0  0.00000000000E+00  0.00000000000E+00  0.17130006787E+03  0.17136453324E+03  0.47000000000E+01 0. -1.
         -5   -1    0    0    0  501 -0.00000000000E+00 -0.00000000000E+00 -0.18535848127E+03  0.18541805894E+03  0.47000000000E+01 0.  1.
          6    1    1    2  502    0  0.36104739289E+02  0.16381914547E+02 -0.31910658766E+02  0.17937170754E+03  0.17200000000E+03 0.  1.
         -6    1    1    2    0  502 -0.36104739289E+02 -0.16381914547E+02  0.17852245363E+02  0.17741088464E+03  0.17200000000E+03 0. -1.
</event>
<event>
 4    1 -0.3240665E-004  0.2028805E+03  0.7818608E-02  0.1147331E+00
          5   -1    0    0  501    0  0.00000000000E+00  0.00000000000E+00  0.77148456168E+02  0.77291489112E+02  0.47000000000E+01 0. -1.
         -5   -1    0    0    0  501 -0.00000000000E+00 -0.00000000000E+00 -0.56594634668E+03  0.56596586233E+03  0.47000000000E+01 0.  1.
          6    1    1    2  502    0  0.91973714289E+02 -0.55833104584E+02 -0.32213550297E+03  0.38069907009E+03  0.17200000000E+03 0.  1.
         -6    1    1    2    0  502 -0.91973714289E+02  0.55833104584E+02 -0.16666238754E+03  0.26255828135E+03  0.17200000000E+03 0. -1.
</event>
<event>
 4    1 -0.3240665E-004  0.2112320E+03  0.7818608E-02  0.1140594E+00
          5   -1    0    0  501    0  0.00000000000E+00  0.00000000000E+00  0.36142285289E+03  0.36145341137E+03  0.47000000000E+01 0. -1.
         -5   -1    0    0    0  501 -0.00000000000E+00 -0.00000000000E+00 -0.12528643174E+03  0.12537455874E+03  0.47000000000E+01 0.  1.
          6    1    1    2  502    0  0.11690180676E+03 -0.36998746459E+02  0.88001307229E+02  0.22883000183E+03  0.17200000000E+03 0.  1.
         -6    1    1    2    0  502 -0.11690180676E+03  0.36998746459E+02  0.14813511391E+03  0.25799796828E+03  0.17200000000E+03 0. -1.
</event>
<event>
 4    1 -0.3240665E-004  0.2059347E+03  0.7818608E-02  0.1144826E+00
          5   -1    0    0  501    0  0.00000000000E+00  0.00000000000E+00  0.11897412095E+03  0.11906692008E+03  0.47000000000E+01 0. -1.
         -5   -1    0    0    0  501 -0.00000000000E+00 -0.00000000000E+00 -0.44945333057E+03  0.44947790420E+03  0.47000000000E+01 0.  1.
          6    1    1    2  502    0 -0.79521075945E+02 -0.80631981976E+02 -0.35776964520E+02  0.20901939916E+03  0.17200000000E+03 0.  1.
         -6    1    1    2    0  502  0.79521075945E+02  0.80631981976E+02 -0.29470224510E+03  0.35952542511E+03  0.17200000000E+03 0.  1.
</event>
<event>
 4    1 -0.3240665E-004  0.2103619E+03  0.7818608E-02  0.1141280E+00
         -5   -1    0    0    0  501 -0.00000000000E+00  0.00000000000E+00  0.54772781698E+03  0.54774798173E+03  0.47000000000E+01 0.  1.
          5   -1    0    0  501    0  0.00000000000E+00 -0.00000000000E+00 -0.12606555985E+03  0.12615314257E+03  0.47000000000E+01 0. -1.
          6    1    1    2  502    0 -0.89806669836E+02  0.81258144234E+02  0.88117883530E+01  0.21054636441E+03  0.17200000000E+03 0. -1.
         -6    1    1    2    0  502  0.89806669836E+02 -0.81258144234E+02  0.41285046877E+03  0.46335475990E+03  0.17200000000E+03 0.  1.
</event>
<event>
 4    1 -0.3240665E-004  0.2305201E+03  0.7818608E-02  0.1126274E+00
         -5   -1    0    0    0  501 -0.00000000000E+00  0.00000000000E+00  0.80447063974E+02  0.80584242268E+02  0.47000000000E+01 0.  1.
          5   -1    0    0  501    0  0.00000000000E+00 -0.00000000000E+00 -0.66609167000E+03  0.66610825160E+03  0.47000000000E+01 0. -1.
          6    1    1    2  502    0  0.12218658267E+03 -0.92875925125E+02 -0.25666882758E+03  0.34499041364E+03  0.17200000000E+03 0.  1.
         -6    1    1    2    0  502 -0.12218658267E+03  0.92875925125E+02 -0.32897577845E+03  0.40170208023E+03  0.17200000000E+03 0. -1.
</event>
<event>
 4    1 -0.3240665E-004  0.2276379E+03  0.7818608E-02  0.1128313E+00
          5   -1    0    0  501    0  0.00000000000E+00  0.00000000000E+00  0.10233392071E+03  0.10244179482E+03  0.47000000000E+01 0. -1.
         -5   -1    0    0    0  501 -0.00000000000E+00 -0.00000000000E+00 -0.10391883974E+04  0.10391990258E+04  0.47000000000E+01 0.  1.
          6    1    1    2  502    0 -0.14645341882E+03  0.28043095647E+02 -0.59569398455E+02  0.23530306485E+03  0.17200000000E+03 0. -1.
         -6    1    1    2    0  502  0.14645341882E+03 -0.28043095647E+02 -0.87728507822E+03  0.90633775579E+03  0.17200000000E+03 0.  1.
</event>
<event>
 4    1 -0.3240665E-004  0.1727771E+03  0.7818608E-02  0.1174982E+00
          5   -1    0    0  501    0  0.00000000000E+00  0.00000000000E+00  0.43809669724E+02  0.44061061737E+02  0.47000000000E+01 0. -1.
         -5   -1    0    0    0  501 -0.00000000000E+00 -0.00000000000E+00 -0.69223872548E+03  0.69225468078E+03  0.47000000000E+01 0.  1.
          6    1    1    2  502    0 -0.87468544240E+01 -0.13835353264E+02 -0.27368054898E+03  0.32365563081E+03  0.17200000000E+03 0. -1.
         -6    1    1    2    0  502  0.87468544240E+01  0.13835353264E+02 -0.37474850678E+03  0.41266011171E+03  0.17200000000E+03 0.  1.
</event>
<event>
 4    1 -0.3240665E-004  0.2765122E+03  0.7818608E-02  0.1097609E+00
         -5   -1    0    0    0  501 -0.00000000000E+00  0.00000000000E+00  0.28504322449E+03  0.28508197037E+03  0.47000000000E+01 0.  1.
          5   -1    0    0  501    0  0.00000000000E+00 -0.00000000000E+00 -0.27606114744E+03  0.27610115379E+03  0.47000000000E+01 0. -1.
          6    1    1    2  502    0 -0.13574509133E+03  0.16866607624E+03  0.51957420062E+02  0.28135129037E+03  0.17200000000E+03 0. -1.
         -6    1    1    2    0  502  0.13574509133E+03 -0.16866607624E+03 -0.42975343005E+02  0.27983183379E+03  0.17200000000E+03 0.  1.
</event>
<event>
 4    1 -0.3240665E-004  0.1820565E+03  0.7818608E-02  0.1165828E+00
          5   -1    0    0  501    0  0.00000000000E+00  0.00000000000E+00  0.10364504500E+03  0.10375155591E+03  0.47000000000E+01 0. -1.
         -5   -1    0    0    0  501 -0.00000000000E+00 -0.00000000000E+00 -0.38394269886E+03  0.38397146510E+03  0.47000000000E+01 0.  1.
          6    1    1    2  502    0 -0.57073619059E+02 -0.17411337608E+02 -0.24003727694E+03  0.30126806500E+03  0.17200000000E+03 0.  1.
         -6    1    1    2    0  502  0.57073619059E+02  0.17411337608E+02 -0.40260376926E+02  0.18645495601E+03  0.17200000000E+03 0. -1.
</event>
<event>
 4    1 -0.3240665E-004  0.2270188E+03  0.7818608E-02  0.1128756E+00
         -5   -1    0    0    0  501 -0.00000000000E+00  0.00000000000E+00  0.32960086026E+02  0.33293501931E+02  0.47000000000E+01 0.  1.
          5   -1    0    0  501    0  0.00000000000E+00 -0.00000000000E+00 -0.15556580096E+04  0.15556651094E+04  0.47000000000E+01 0. -1.
          6    1    1    2  502    0 -0.34319542735E+01  0.14812752367E+03 -0.77098587102E+03  0.80371434907E+03  0.17200000000E+03 0. -1.
         -6    1    1    2    0  502  0.34319542735E+01 -0.14812752367E+03 -0.75171205253E+03  0.78524426231E+03  0.17200000000E+03 0. -1.
</event>
<event>
 4    1 -0.3240665E-004  0.1770804E+03  0.7818608E-02  0.1170659E+00
          5   -1    0    0  501    0  0.00000000000E+00  0.00000000000E+00  0.41157496426E+03  0.41160179933E+03  0.47000000000E+01 0. -1.
         -5   -1    0    0    0  501 -0.00000000000E+00 -0.00000000000E+00 -0.10466464156E+03  0.10477011593E+03  0.47000000000E+01 0.  1.
          6    1    1    2  502    0 -0.37178749301E+02 -0.19779121704E+02  0.28826743126E+03  0.33831285074E+03  0.17200000000E+03 0. -1.
         -6    1    1    2    0  502  0.37178749301E+02  0.19779121704E+02  0.18642891448E+02  0.17805906452E+03  0.17200000000E+03 0.  1.
</event>
<event>
 4    1 -0.3240665E-004  0.3473053E+03  0.7818608E-02  0.1063727E+00
         -5   -1    0    0    0  501 -0.00000000000E+00  0.00000000000E+00  0.13917050204E+03  0.13924984251E+03  0.47000000000E+01 0.  1.
          5   -1    0    0  501    0  0.00000000000E+00 -0.00000000000E+00 -0.88765052603E+03  0.88766296891E+03  0.47000000000E+01 0. -1.
          6    1    1    2  502    0 -0.27328193274E+03 -0.12788255942E+03 -0.45371678759E+03  0.57138418521E+03  0.17200000000E+03 0. -1.
         -6    1    1    2    0  502  0.27328193274E+03  0.12788255942E+03 -0.29476323640E+03  0.45552862621E+03  0.17200000000E+03 0.  1.
</event>
<event>
 4    1 -0.3240665E-004  0.2917773E+03  0.7818608E-02  0.1089425E+00
          5   -1    0    0  501    0  0.00000000000E+00  0.00000000000E+00  0.86641916090E+03  0.86643190868E+03  0.47000000000E+01 0. -1.
         -5   -1    0    0    0  501 -0.00000000000E+00 -0.00000000000E+00 -0.11308953638E+03  0.11318716022E+03  0.47000000000E+01 0.  1.
          6    1    1    2  502    0 -0.16015145582E+03  0.17292058430E+03  0.55436065805E+03  0.62645810432E+03  0.17200000000E+03 0. -1.
         -6    1    1    2    0  502  0.16015145582E+03 -0.17292058430E+03  0.19896896648E+03  0.35316096457E+03  0.17200000000E+03 0.  1.
</event>
<event>
 4    1 -0.3240665E-004  0.2560395E+03  0.7818608E-02  0.1109546E+00
         -5   -1    0    0    0  501 -0.00000000000E+00  0.00000000000E+00  0.61446464675E+03  0.61448262149E+03  0.47000000000E+01 0.  1.
          5   -1    0    0  501    0  0.00000000000E+00 -0.00000000000E+00 -0.11008277696E+03  0.11018306486E+03  0.47000000000E+01 0. -1.
          6    1    1    2  502    0  0.39803858268E+00 -0.18966308503E+03  0.31644591227E+03  0.40705559774E+03  0.17200000000E+03 0. -1.
         -6    1    1    2    0  502 -0.39803858268E+00  0.18966308503E+03  0.18793595752E+03  0.31761008861E+03  0.17200000000E+03 0.  1.
</event>
<event>
 4    1 -0.3240665E-004  0.1987135E+03  0.7818608E-02  0.1150829E+00
         -5   -1    0    0    0  501 -0.00000000000E+00  0.00000000000E+00  0.36769568177E+03  0.36772571897E+03  0.47000000000E+01 0.  1.
          5   -1    0    0  501    0  0.00000000000E+00 -0.00000000000E+00 -0.10879159012E+03  0.10889306719E+03  0.47000000000E+01 0. -1.
          6    1    1    2  502    0 -0.17338115832E+02  0.97992081207E+02  0.15729497396E+03  0.25343395012E+03  0.17200000000E+03 0. -1.
         -6    1    1    2    0  502  0.17338115832E+02 -0.97992081207E+02  0.10160911768E+03  0.22318483603E+03  0.17200000000E+03 0. -1.
</event>
<event>
 4    1 -0.3240665E-004  0.3551891E+03  0.7818608E-02  0.1060505E+00
          5   -1    0    0  501    0  0.00000000000E+00  0.00000000000E+00  0.67540051348E+03  0.67541686654E+03  0.47000000000E+01 0. -1.
         -5   -1    0    0    0  501 -0.00000000000E+00 -0.00000000000E+00 -0.35960367420E+03  0.35963438725E+03  0.47000000000E+01 0.  1.
          6    1    1    2  502    0  0.26674272730E+03 -0.15944790428E+03  0.51667992885E+03  0.62699080187E+03  0.17200000000E+03 0. -1.
         -6    1    1    2    0  502 -0.26674272730E+03  0.15944790428E+03 -0.20088308957E+03  0.40806045192E+03  0.17200000000E+03 0.  1.
</event>
<event>
 4    1 -0.3240665E-004  0.2260278E+03  0.7818608E-02  0.1129467E+00
         -5   -1    0    0    0  501 -0.00000000000E+00  0.00000000000E+00  0.14201938876E+03  0.14209713855E+03  0.47000000000E+01 0.  1.
          5   -1    0    0  501    0  0.00000000000E+00 -0.00000000000E+00 -0.37828865388E+03  0.37831785003E+03  0.47000000000E+01 0. -1.
          6    1    1    2  502    0 -0.13928734434E+03 -0.45865064087E+02 -0.17605813060E+03  0.28650485816E+03  0.17200000000E+03 0. -1.
         -6    1    1    2    0  502  0.13928734434E+03  0.45865064087E+02 -0.60211134521E+02  0.23391013043E+03  0.17200000000E+03 0.  1.
</event>
<event>
 4    1 -0.3240665E-004  0.1836254E+03  0.7818608E-02  0.1164340E+00
          5   -1    0    0  501    0  0.00000000000E+00  0.00000000000E+00  0.41804816592E+03  0.41807458549E+03  0.47000000000E+01 0. -1.
         -5   -1    0    0    0  501 -0.00000000000E+00 -0.00000000000E+00 -0.17965667898E+03  0.17971814684E+03  0.47000000000E+01 0.  1.
          6    1    1    2  502    0 -0.62638538712E+02 -0.14515195209E+02  0.34110678539E+03  0.38739142539E+03  0.17200000000E+03 0. -1.
         -6    1    1    2    0  502  0.62638538712E+02  0.14515195209E+02 -0.10271529845E+03  0.21040130694E+03  0.17200000000E+03 0.  1.
</event>
<event>
 4    1 -0.3240665E-004  0.2918999E+03  0.7818608E-02  0.1089361E+00
         -5   -1    0    0    0  501 -0.00000000000E+00  0.00000000000E+00  0.61167365974E+03  0.61169171649E+03  0.47000000000E+01 0.  1.
          5   -1    0    0  501    0  0.00000000000E+00 -0.00000000000E+00 -0.17516299910E+03  0.17522604331E+03  0.47000000000E+01 0. -1.
          6    1    1    2  502    0 -0.10011309336E+02  0.23562967844E+03  0.40116719309E+02  0.29464372188E+03  0.17200000000E+03 0. -1.
         -6    1    1    2    0  502  0.10011309336E+02 -0.23562967844E+03  0.39639394133E+03  0.49227403791E+03  0.17200000000E+03 0.  1.
</event>
<event>
 4    1 -0.3240665E-004  0.2234540E+03  0.7818608E-02  0.1131334E+00
          5   -1    0    0  501    0  0.00000000000E+00  0.00000000000E+00  0.64333842467E+02  0.64505296578E+02  0.47000000000E+01 0. -1.
         -5   -1    0    0    0  501 -0.00000000000E+00 -0.00000000000E+00 -0.10534168408E+04  0.10534273257E+04  0.47000000000E+01 0.  1.
          6    1    1    2  502    0  0.11984887113E+03 -0.77355900556E+02 -0.20716205914E+03  0.30470937959E+03  0.17200000000E+03 0. -1.
         -6    1    1    2    0  502 -0.11984887113E+03  0.77355900556E+02 -0.78192093922E+03  0.81322324270E+03  0.17200000000E+03 0.  1.
</event>
<event>
 4    1 -0.3240665E-004  0.2114378E+03  0.7818608E-02  0.1140432E+00
         -5   -1    0    0    0  501 -0.00000000000E+00  0.00000000000E+00  0.56093228299E+03  0.56095197308E+03  0.47000000000E+01 0.  1.
          5   -1    0    0  501    0  0.00000000000E+00 -0.00000000000E+00 -0.15282120164E+03  0.15289345856E+03  0.47000000000E+01 0. -1.
          6    1    1    2  502    0  0.12102947627E+03 -0.21766955243E+02 -0.42887360331E+02  0.21574350545E+03  0.17200000000E+03 0. -1.
         -6    1    1    2    0  502 -0.12102947627E+03  0.21766955243E+02  0.45099844169E+03  0.49810192619E+03  0.17200000000E+03 0.  1.
</event>
<event>
 4    1 -0.3240665E-004  0.2130665E+03  0.7818608E-02  0.1139160E+00
          5   -1    0    0  501    0  0.00000000000E+00  0.00000000000E+00  0.74769406684E+03  0.74770883877E+03  0.47000000000E+01 0. -1.
         -5   -1    0    0    0  501 -0.00000000000E+00 -0.00000000000E+00 -0.61579701246E+02  0.61758801847E+02  0.47000000000E+01 0.  1.
          6    1    1    2  502    0 -0.99726825875E+02 -0.76602212307E+02  0.39376291921E+03  0.44771260344E+03  0.17200000000E+03 0. -1.
         -6    1    1    2    0  502  0.99726825875E+02  0.76602212307E+02  0.29235144638E+03  0.36175503718E+03  0.17200000000E+03 0.  1.
</event>
<event>
 4    1 -0.3240665E-004  0.2953331E+03  0.7818608E-02  0.1087597E+00
         -5   -1    0    0    0  501 -0.00000000000E+00  0.00000000000E+00  0.18166771564E+03  0.18172850328E+03  0.47000000000E+01 0.  1.
          5   -1    0    0  501    0  0.00000000000E+00 -0.00000000000E+00 -0.53284005739E+03  0.53286078554E+03  0.47000000000E+01 0. -1.
          6    1    1    2  502    0 -0.67292505652E+02  0.23045464813E+03 -0.28813093728E+03  0.41260279104E+03  0.17200000000E+03 0. -1.
         -6    1    1    2    0  502  0.67292505652E+02 -0.23045464813E+03 -0.63041404476E+02  0.30198649778E+03  0.17200000000E+03 0. -1.
</event>
<event>
 4    1 -0.3240665E-004  0.1961560E+03  0.7818608E-02  0.1153023E+00
         -5   -1    0    0    0  501 -0.00000000000E+00  0.00000000000E+00  0.96788749309E+02  0.96902796621E+02  0.47000000000E+01 0.  1.
          5   -1    0    0  501    0  0.00000000000E+00 -0.00000000000E+00 -0.43465902045E+03  0.43468443043E+03  0.47000000000E+01 0. -1.
          6    1    1    2  502    0  0.91816089872E+02  0.21516595587E+02 -0.24697567362E+03  0.31539521493E+03  0.17200000000E+03 0.  1.
         -6    1    1    2    0  502 -0.91816089872E+02 -0.21516595587E+02 -0.90894597529E+02  0.21619201212E+03  0.17200000000E+03 0.  1.
</event>
<event>
 4    1 -0.3240665E-004  0.1777656E+03  0.7818608E-02  0.1169983E+00
         -5   -1    0    0    0  501 -0.00000000000E+00  0.00000000000E+00  0.87723935238E+03  0.87725194292E+03  0.47000000000E+01 0.  1.
          5   -1    0    0  501    0  0.00000000000E+00 -0.00000000000E+00 -0.54668373355E+02  0.54870037773E+02  0.47000000000E+01 0. -1.
          6    1    1    2  502    0 -0.36044767608E+02  0.26783980882E+02  0.68401526666E+03  0.70673721561E+03  0.17200000000E+03 0.  1.
         -6    1    1    2    0  502  0.36044767608E+02 -0.26783980882E+02  0.13855571236E+03  0.22538476508E+03  0.17200000000E+03 0.  1.
</event>
<event>
 4    1 -0.3240665E-004  0.2256863E+03  0.7818608E-02  0.1129713E+00
          5   -1    0    0  501    0  0.00000000000E+00  0.00000000000E+00  0.99868403183E+03  0.99869509133E+03  0.47000000000E+01 0. -1.
         -5   -1    0    0    0  501 -0.00000000000E+00 -0.00000000000E+00 -0.14046048663E+03  0.14053909885E+03  0.47000000000E+01 0.  1.
          6    1    1    2  502    0 -0.73944602214E+01  0.14593022357E+03  0.88374707580E+03  0.91210920518E+03  0.17200000000E+03 0. -1.
         -6    1    1    2    0  502  0.73944602214E+01 -0.14593022357E+03 -0.25523530602E+02  0.22712498499E+03  0.17200000000E+03 0.  1.
</event>
<event>
 4    1 -0.3240665E-004  0.1815374E+03  0.7818608E-02  0.1166323E+00
          5   -1    0    0  501    0  0.00000000000E+00  0.00000000000E+00  0.16711576998E+03  0.16718184882E+03  0.47000000000E+01 0. -1.
         -5   -1    0    0    0  501 -0.00000000000E+00 -0.00000000000E+00 -0.21904046588E+03  0.21909088455E+03  0.47000000000E+01 0.  1.
          6    1    1    2  502    0  0.55241761109E+02  0.17893316183E+02  0.35187960211E+02  0.18491623909E+03  0.17200000000E+03 0. -1.
         -6    1    1    2    0  502 -0.55241761109E+02 -0.17893316183E+02 -0.87112656109E+02  0.20135649428E+03  0.17200000000E+03 0. -1.
</event>
<event>
 4    1 -0.3240665E-004  0.2131750E+03  0.7818608E-02  0.1139076E+00
          5   -1    0    0  501    0  0.00000000000E+00  0.00000000000E+00  0.11115523522E+03  0.11125455639E+03  0.47000000000E+01 0. -1.
         -5   -1    0    0    0  501 -0.00000000000E+00 -0.00000000000E+00 -0.40853758732E+03  0.40856462188E+03  0.47000000000E+01 0.  1.
          6    1    1    2  502    0  0.22098679749E+02  0.12398069243E+03 -0.14942772121E+03  0.26033095784E+03  0.17200000000E+03 0.  1.
         -6    1    1    2    0  502 -0.22098679749E+02 -0.12398069243E+03 -0.14795463089E+03  0.25948822043E+03  0.17200000000E+03 0.  1.
</event>
<event>
 4    1 -0.3240665E-004  0.1806113E+03  0.7818608E-02  0.1167213E+00
         -5   -1    0    0    0  501 -0.00000000000E+00  0.00000000000E+00  0.20879142416E+03  0.20884431714E+03  0.47000000000E+01 0.  1.
          5   -1    0    0  501    0  0.00000000000E+00 -0.00000000000E+00 -0.15621741656E+03  0.15628810331E+03  0.47000000000E+01 0. -1.
          6    1    1    2  502    0 -0.48705741377E+02  0.25771605899E+02  0.21883407400E+02  0.18193215338E+03  0.17200000000E+03 0. -1.
         -6    1    1    2    0  502  0.48705741377E+02 -0.25771605899E+02  0.30690600199E+02  0.18320026707E+03  0.17200000000E+03 0.  1.
</event>
<event>
 4    1 -0.3240665E-004  0.1759088E+03  0.7818608E-02  0.1171822E+00
          5   -1    0    0  501    0  0.00000000000E+00  0.00000000000E+00  0.24854884198E+03  0.24859327595E+03  0.47000000000E+01 0. -1.
         -5   -1    0    0    0  501 -0.00000000000E+00 -0.00000000000E+00 -0.19236075919E+03  0.19241816878E+03  0.47000000000E+01 0.  1.
          6    1    1    2  502    0  0.96692322179E+01 -0.35586616123E+02  0.15912183772E+03  0.23719962171E+03  0.17200000000E+03 0. -1.
         -6    1    1    2    0  502 -0.96692322179E+01  0.35586616123E+02 -0.10293375493E+03  0.20381182302E+03  0.17200000000E+03 0.  1.
</event>
<event>
 4    1 -0.3240665E-004  0.5842098E+03  0.7818608E-02  0.9938718E-01
         -5   -1    0    0    0  501 -0.00000000000E+00  0.00000000000E+00  0.11450548175E+04  0.11450644633E+04  0.47000000000E+01 0.  1.
          5   -1    0    0  501    0  0.00000000000E+00 -0.00000000000E+00 -0.45314681620E+03  0.45317118955E+03  0.47000000000E+01 0. -1.
          6    1    1    2  502    0 -0.52306649594E+03  0.19523977997E+03 -0.12155847761E+03  0.59672237626E+03  0.17200000000E+03 0. -1.
         -6    1    1    2    0  502  0.52306649594E+03 -0.19523977997E+03  0.81346647893E+03  0.10015132766E+04  0.17200000000E+03 0.  1.
</event>
<event>
 4    1 -0.3240665E-004  0.2023577E+03  0.7818608E-02  0.1147765E+00
         -5   -1    0    0    0  501 -0.00000000000E+00  0.00000000000E+00  0.30129726542E+03  0.30133392134E+03  0.47000000000E+01 0.  1.
          5   -1    0    0  501    0  0.00000000000E+00 -0.00000000000E+00 -0.18443312864E+03  0.18449300512E+03  0.47000000000E+01 0. -1.
          6    1    1    2  502    0  0.77423510940E+02  0.73281935841E+02 -0.66241045936E+02  0.21292373830E+03  0.17200000000E+03 0. -1.
         -6    1    1    2    0  502 -0.77423510940E+02 -0.73281935841E+02  0.18310518272E+03  0.27290318815E+03  0.17200000000E+03 0.  1.
</event>
<event>
 4    1 -0.3240665E-004  0.2272095E+03  0.7818608E-02  0.1128619E+00
          5   -1    0    0  501    0  0.00000000000E+00  0.00000000000E+00  0.72261232931E+02  0.72413919827E+02  0.47000000000E+01 0. -1.
         -5   -1    0    0    0  501 -0.00000000000E+00 -0.00000000000E+00 -0.77893629539E+03  0.77895047486E+03  0.47000000000E+01 0.  1.
          6    1    1    2  502    0  0.14836692828E+03 -0.52363509549E+01 -0.22996712383E+03  0.32327858392E+03  0.17200000000E+03 0. -1.
         -6    1    1    2    0  502 -0.14836692828E+03  0.52363509549E+01 -0.47670793863E+03  0.52808581076E+03  0.17200000000E+03 0.  1.
</event>
<event>
 4    1 -0.3240665E-004  0.1827660E+03  0.7818608E-02  0.1165153E+00
         -5   -1    0    0    0  501 -0.00000000000E+00  0.00000000000E+00  0.86173116283E+02  0.86301193328E+02  0.47000000000E+01 0.  1.
          5   -1    0    0  501    0  0.00000000000E+00 -0.00000000000E+00 -0.40841763745E+03  0.40844467995E+03  0.47000000000E+01 0. -1.
          6    1    1    2  502    0 -0.60300257395E+02  0.13537803902E+02 -0.21749313705E+03  0.28408917234E+03  0.17200000000E+03 0. -1.
         -6    1    1    2    0  502  0.60300257395E+02 -0.13537803902E+02 -0.10475138412E+03  0.21065670094E+03  0.17200000000E+03 0. -1.
</event>
<event>
 4    1 -0.3240665E-004  0.1791598E+03  0.7818608E-02  0.1168619E+00
         -5   -1    0    0    0  501 -0.00000000000E+00  0.00000000000E+00  0.62057825136E+03  0.62059604902E+03  0.47000000000E+01 0.  1.
          5   -1    0    0  501    0  0.00000000000E+00 -0.00000000000E+00 -0.52599514639E+02  0.52809080093E+02  0.47000000000E+01 0. -1.
          6    1    1    2  502    0  0.38198156866E+02  0.32482959723E+02  0.33035427777E+03  0.37580871557E+03  0.17200000000E+03 0. -1.
         -6    1    1    2    0  502 -0.38198156866E+02 -0.32482959723E+02  0.23762445895E+03  0.29759641354E+03  0.17200000000E+03 0. -1.
</event>
<event>
 4    1 -0.3240665E-004  0.2037507E+03  0.7818608E-02  0.1146613E+00
          5   -1    0    0  501    0  0.00000000000E+00  0.00000000000E+00  0.40614764534E+03  0.40617483898E+03  0.47000000000E+01 0. -1.
         -5   -1    0    0    0  501 -0.00000000000E+00 -0.00000000000E+00 -0.11491251603E+03  0.11500859247E+03  0.47000000000E+01 0.  1.
          6    1    1    2  502    0 -0.57643061858E+00  0.10922452074E+03  0.23248108257E+03  0.30913068751E+03  0.17200000000E+03 0.  1.
         -6    1    1    2    0  502  0.57643061858E+00 -0.10922452074E+03  0.58754046737E+02  0.21205274394E+03  0.17200000000E+03 0.  1.
</event>
<event>
 4    1 -0.3240665E-004  0.2211423E+03  0.7818608E-02  0.1133034E+00
         -5   -1    0    0    0  501 -0.00000000000E+00  0.00000000000E+00  0.31375253754E+03  0.31378773846E+03  0.47000000000E+01 0.  1.
          5   -1    0    0  501    0  0.00000000000E+00 -0.00000000000E+00 -0.21777737049E+03  0.21782808152E+03  0.47000000000E+01 0. -1.
          6    1    1    2  502    0  0.11292347801E+03 -0.81044469183E+02 -0.93795031689E+02  0.24021121090E+03  0.17200000000E+03 0. -1.
         -6    1    1    2    0  502 -0.11292347801E+03  0.81044469183E+02  0.18977019873E+03  0.29140460909E+03  0.17200000000E+03 0.  1.
</event>
<event>
 4    1 -0.3240665E-004  0.1734586E+03  0.7818608E-02  0.1174288E+00
         -5   -1    0    0    0  501 -0.00000000000E+00  0.00000000000E+00  0.13467800826E+03  0.13475999373E+03  0.47000000000E+01 0.  1.
          5   -1    0    0  501    0  0.00000000000E+00 -0.00000000000E+00 -0.25771978071E+03  0.25776263377E+03  0.47000000000E+01 0. -1.
          6    1    1    2  502    0 -0.18971031411E+02  0.11998768522E+02 -0.13329868857E+03  0.21876108167E+03  0.17200000000E+03 0. -1.
         -6    1    1    2    0  502  0.18971031411E+02 -0.11998768522E+02  0.10256916129E+02  0.17376154582E+03  0.17200000000E+03 0.  1.
</event>
<event>
 4    1 -0.3240665E-004  0.1960422E+03  0.7818608E-02  0.1153122E+00
         -5   -1    0    0    0  501 -0.00000000000E+00  0.00000000000E+00  0.42894782998E+03  0.42897357826E+03  0.47000000000E+01 0.  1.
          5   -1    0    0  501    0  0.00000000000E+00 -0.00000000000E+00 -0.13873073946E+03  0.13881033128E+03  0.47000000000E+01 0. -1.
          6    1    1    2  502    0 -0.78272220888E+02 -0.52172701186E+02 -0.23917828680E+02  0.19749580715E+03  0.17200000000E+03 0.  1.
         -6    1    1    2    0  502  0.78272220888E+02  0.52172701186E+02  0.31413491921E+03  0.37028810240E+03  0.17200000000E+03 0.  1.
</event>
<event>
 4    1 -0.3240665E-004  0.2045718E+03  0.7818608E-02  0.1145938E+00
          5   -1    0    0  501    0  0.00000000000E+00  0.00000000000E+00  0.11153783960E+03  0.11163682037E+03  0.47000000000E+01 0. -1.
         -5   -1    0    0    0  501 -0.00000000000E+00 -0.00000000000E+00 -0.43615135154E+03  0.43617667458E+03  0.47000000000E+01 0.  1.
          6    1    1    2  502    0  0.60252470399E+02 -0.92926209746E+02 -0.59697126970E+02  0.21310417081E+03  0.17200000000E+03 0.  1.
         -6    1    1    2    0  502 -0.60252470399E+02  0.92926209746E+02 -0.26491638497E+03  0.33470932415E+03  0.17200000000E+03 0. -1.
</event>
<event>
 4    1 -0.3240665E-004  0.3648499E+03  0.7818608E-02  0.1056680E+00
         -5   -1    0    0    0  501 -0.00000000000E+00  0.00000000000E+00  0.61128614579E+03  0.61130421398E+03  0.47000000000E+01 0.  1.
          5   -1    0    0  501    0  0.00000000000E+00 -0.00000000000E+00 -0.23203209777E+03  0.23207969406E+03  0.47000000000E+01 0. -1.
          6    1    1    2  502    0  0.22675701026E+03 -0.22828204927E+03  0.84897989350E+02  0.37459725615E+03  0.17200000000E+03 0. -1.
         -6    1    1    2    0  502 -0.22675701026E+03  0.22828204927E+03  0.29435605867E+03  0.46878665189E+03  0.17200000000E+03 0.  1.
</event>
<event>
 4    1 -0.3240665E-004  0.2684794E+03  0.7818608E-02  0.1102153E+00
          5   -1    0    0  501    0  0.00000000000E+00  0.00000000000E+00  0.76558198579E+02  0.76702332231E+02  0.47000000000E+01 0. -1.
         -5   -1    0    0    0  501 -0.00000000000E+00 -0.00000000000E+00 -0.10774059755E+04  0.10774162269E+04  0.47000000000E+01 0.  1.
          6    1    1    2  502    0 -0.53613069894E+02  0.19905488313E+03 -0.29472475910E+03  0.39867767857E+03  0.17200000000E+03 0. -1.
         -6    1    1    2    0  502  0.53613069894E+02 -0.19905488313E+03 -0.70612301779E+03  0.75544088055E+03  0.17200000000E+03 0.  1.
</event>
<event>
 4    1 -0.3240665E-004  0.6572259E+03  0.7818608E-02  0.9793314E-01
          5   -1    0    0  501    0  0.00000000000E+00  0.00000000000E+00  0.73011520431E+03  0.73013033191E+03  0.47000000000E+01 0. -1.
         -5   -1    0    0    0  501 -0.00000000000E+00 -0.00000000000E+00 -0.59253211357E+03  0.59255075362E+03  0.47000000000E+01 0.  1.
          6    1    1    2  502    0  0.23230475521E+03  0.59025113548E+03  0.42320501104E+02  0.65858706868E+03  0.17200000000E+03 0. -1.
         -6    1    1    2    0  502 -0.23230475521E+03 -0.59025113548E+03  0.95262589635E+02  0.66409401684E+03  0.17200000000E+03 0.  1.
</event>
<event>
 4    1 -0.3240665E-004  0.1883279E+03  0.7818608E-02  0.1159978E+00
          5   -1    0    0  501    0  0.00000000000E+00  0.00000000000E+00  0.92480769880E+02  0.92600123097E+02  0.47000000000E+01 0. -1.
         -5   -1    0    0    0  501 -0.00000000000E+00 -0.00000000000E+00 -0.38370334217E+03  0.38373212635E+03  0.47000000000E+01 0.  1.
          6    1    1    2  502    0  0.76696006288E+02 -0.10551370443E+01 -0.13640578710E+03  0.23253801722E+03  0.17200000000E+03 0. -1.
         -6    1    1    2    0  502 -0.76696006288E+02  0.10551370443E+01 -0.15481678519E+03  0.24379423223E+03  0.17200000000E+03 0.  1.
</event>
<event>
 4    1 -0.3240665E-004  0.1818520E+03  0.7818608E-02  0.1166023E+00
         -5   -1    0    0    0  501 -0.00000000000E+00  0.00000000000E+00  0.35387754519E+03  0.35390875518E+03  0.47000000000E+01 0.  1.
          5   -1    0    0  501    0  0.00000000000E+00 -0.00000000000E+00 -0.94129070540E+02  0.94246336378E+02  0.47000000000E+01 0. -1.
          6    1    1    2  502    0 -0.52652461853E+02 -0.26718363152E+02  0.15016013447E+03  0.23583515143E+03  0.17200000000E+03 0.  1.
         -6    1    1    2    0  502  0.52652461853E+02  0.26718363152E+02  0.10958834019E+03  0.21231994012E+03  0.17200000000E+03 0. -1.
</event>
<event>
 4    1 -0.3240665E-004  0.1730513E+03  0.7818608E-02  0.1174703E+00
         -5   -1    0    0    0  501 -0.00000000000E+00  0.00000000000E+00  0.16030736728E+04  0.16030805627E+04  0.47000000000E+01 0.  1.
          5   -1    0    0  501    0  0.00000000000E+00 -0.00000000000E+00 -0.18503143265E+02  0.19090738873E+02  0.47000000000E+01 0. -1.
          6    1    1    2  502    0 -0.14422326186E+02 -0.12439141299E+02  0.72667347572E+03  0.74699469613E+03  0.17200000000E+03 0. -1.
         -6    1    1    2    0  502  0.14422326186E+02  0.12439141299E+02  0.85789705383E+03  0.87517660544E+03  0.17200000000E+03 0.  1.
</event>
<event>
 4    1 -0.3240665E-004  0.1943199E+03  0.7818608E-02  0.1154622E+00
          5   -1    0    0  501    0  0.00000000000E+00  0.00000000000E+00  0.31369160548E+03  0.31372681324E+03  0.47000000000E+01 0. -1.
         -5   -1    0    0    0  501 -0.00000000000E+00 -0.00000000000E+00 -0.16836257567E+03  0.16842816536E+03  0.47000000000E+01 0.  1.
          6    1    1    2  502    0 -0.47106446387E+02  0.77182820694E+02  0.20144637598E+03  0.27989435060E+03  0.17200000000E+03 0. -1.
         -6    1    1    2    0  502  0.47106446387E+02 -0.77182820694E+02 -0.56117346173E+02  0.20226062801E+03  0.17200000000E+03 0.  1.
</event>
<event>
 4    1 -0.3240665E-004  0.4118205E+03  0.7818608E-02  0.1039762E+00
         -5   -1    0    0    0  501 -0.00000000000E+00  0.00000000000E+00  0.51065713822E+03  0.51067876676E+03  0.47000000000E+01 0.  1.
          5   -1    0    0  501    0  0.00000000000E+00 -0.00000000000E+00 -0.35788305207E+03  0.35791391278E+03  0.47000000000E+01 0. -1.
          6    1    1    2  502    0 -0.34696163575E+03 -0.14010619260E+03  0.19301909181E+03  0.45481039092E+03  0.17200000000E+03 0.  1.
         -6    1    1    2    0  502  0.34696163575E+03  0.14010619260E+03 -0.40245005655E+02  0.41378228861E+03  0.17200000000E+03 0.  1.
</event>
<event>
 4    1 -0.3240665E-004  0.2978049E+03  0.7818608E-02  0.1086343E+00
          5   -1    0    0  501    0  0.00000000000E+00  0.00000000000E+00  0.29173994801E+03  0.29177780461E+03  0.47000000000E+01 0. -1.
         -5   -1    0    0    0  501 -0.00000000000E+00 -0.00000000000E+00 -0.20117638409E+04  0.20117693311E+04  0.47000000000E+01 0.  1.
          6    1    1    2  502    0 -0.20377250941E+03  0.13259156202E+03  0.20118580329E+03  0.35939321830E+03  0.17200000000E+03 0. -1.
         -6    1    1    2    0  502  0.20377250941E+03 -0.13259156202E+03 -0.19212096962E+04  0.19441539174E+04  0.17200000000E+03 0.  1.
</event>
<event>
 4    1 -0.3240665E-004  0.1958835E+03  0.7818608E-02  0.1153259E+00
          5   -1    0    0  501    0  0.00000000000E+00  0.00000000000E+00  0.52029478816E+03  0.52031601608E+03  0.47000000000E+01 0. -1.
         -5   -1    0    0    0  501 -0.00000000000E+00 -0.00000000000E+00 -0.76244747467E+02  0.76389472549E+02  0.47000000000E+01 0.  1.
          6    1    1    2  502    0  0.93724689352E+02  0.14293844486E+01  0.27700666895E+03  0.33926841170E+03  0.17200000000E+03 0. -1.
         -6    1    1    2    0  502 -0.93724689352E+02 -0.14293844486E+01  0.16704337175E+03  0.25743707693E+03  0.17200000000E+03 0.  1.
</event>
<event>
 4    1 -0.3240665E-004  0.3762605E+03  0.7818608E-02  0.1052325E+00
         -5   -1    0    0    0  501 -0.00000000000E+00  0.00000000000E+00  0.83149109037E+03  0.83150437363E+03  0.47000000000E+01 0.  1.
          5   -1    0    0  501    0  0.00000000000E+00 -0.00000000000E+00 -0.20166959194E+03  0.20172435231E+03  0.47000000000E+01 0. -1.
          6    1    1    2  502    0  0.32509345329E+03  0.79386567637E+02  0.11092266205E+03  0.39227008227E+03  0.17200000000E+03 0. -1.
         -6    1    1    2    0  502 -0.32509345329E+03 -0.79386567637E+02  0.51889883638E+03  0.64095864366E+03  0.17200000000E+03 0.  1.
</event>
<event>
 4    1 -0.3240665E-004  0.1797059E+03  0.7818608E-02  0.1168088E+00
         -5   -1    0    0    0  501 -0.00000000000E+00  0.00000000000E+00  0.40008391580E+03  0.40011152155E+03  0.47000000000E+01 0.  1.
          5   -1    0    0  501    0  0.00000000000E+00 -0.00000000000E+00 -0.94778140849E+02  0.94894604603E+02  0.47000000000E+01 0. -1.
          6    1    1    2  502    0 -0.48807470806E+02  0.18112250864E+02  0.57070117668E+02  0.18855031469E+03  0.17200000000E+03 0. -1.
         -6    1    1    2    0  502  0.48807470806E+02 -0.18112250864E+02  0.24823565728E+03  0.30645581147E+03  0.17200000000E+03 0.  1.
</event>
<event>
 4    1 -0.3240665E-004  0.5053401E+03  0.7818608E-02  0.1012394E+00
          5   -1    0    0  501    0  0.00000000000E+00  0.00000000000E+00  0.31729261719E+03  0.31732742542E+03  0.47000000000E+01 0. -1.
         -5   -1    0    0    0  501 -0.00000000000E+00 -0.00000000000E+00 -0.80709397852E+03  0.80710766331E+03  0.47000000000E+01 0.  1.
          6    1    1    2  502    0 -0.38433569870E+03 -0.27941138968E+03 -0.21460713429E+03  0.54902174462E+03  0.17200000000E+03 0. -1.
         -6    1    1    2    0  502  0.38433569870E+03  0.27941138968E+03 -0.27519422704E+03  0.57541334411E+03  0.17200000000E+03 0.  1.
</event>
<event>
 4    1 -0.3240665E-004  0.1774289E+03  0.7818608E-02  0.1170315E+00
         -5   -1    0    0    0  501 -0.00000000000E+00  0.00000000000E+00  0.24197312662E+03  0.24201876788E+03  0.47000000000E+01 0.  1.
          5   -1    0    0  501    0  0.00000000000E+00 -0.00000000000E+00 -0.17196186138E+03  0.17202607875E+03  0.47000000000E+01 0. -1.
          6    1    1    2  502    0  0.84126430488E+01 -0.42734356685E+02 -0.67223010865E+02  0.18973647776E+03  0.17200000000E+03 0. -1.
         -6    1    1    2    0  502 -0.84126430488E+01  0.42734356685E+02  0.13723427611E+03  0.22430836887E+03  0.17200000000E+03 0.  1.
</event>
<event>
 4    1 -0.3240665E-004  0.3017344E+03  0.7818608E-02  0.1084377E+00
          5   -1    0    0  501    0  0.00000000000E+00  0.00000000000E+00  0.37016435747E+03  0.37019419437E+03  0.47000000000E+01 0. -1.
         -5   -1    0    0    0  501 -0.00000000000E+00 -0.00000000000E+00 -0.32245347920E+03  0.32248773038E+03  0.47000000000E+01 0.  1.
          6    1    1    2  502    0 -0.69556198822E+02 -0.23795285923E+03  0.19259915595E+03  0.35796377314E+03  0.17200000000E+03 0. -1.
         -6    1    1    2    0  502  0.69556198822E+02  0.23795285923E+03 -0.14488827768E+03  0.33471815161E+03  0.17200000000E+03 0.  1.
</event>
<event>
 4    1 -0.3240665E-004  0.2398798E+03  0.7818608E-02  0.1119873E+00
         -5   -1    0    0    0  501 -0.00000000000E+00  0.00000000000E+00  0.31599225496E+02  0.31946847292E+02  0.47000000000E+01 0.  1.
          5   -1    0    0  501    0  0.00000000000E+00 -0.00000000000E+00 -0.20209380043E+04  0.20209434696E+04  0.47000000000E+01 0. -1.
          6    1    1    2  502    0  0.16076156543E+03  0.45978486723E+02 -0.13257135320E+04  0.13472411333E+04  0.17200000000E+03 0. -1.
         -6    1    1    2    0  502 -0.16076156543E+03 -0.45978486723E+02 -0.66362524676E+03  0.70564918359E+03  0.17200000000E+03 0.  1.
</event>
<event>
 4    1 -0.3240665E-004  0.2372580E+03  0.7818608E-02  0.1121633E+00
          5   -1    0    0  501    0  0.00000000000E+00  0.00000000000E+00  0.13494367054E+04  0.13494448903E+04  0.47000000000E+01 0. -1.
         -5   -1    0    0    0  501 -0.00000000000E+00 -0.00000000000E+00 -0.44600060767E+02  0.44847022426E+02  0.47000000000E+01 0.  1.
          6    1    1    2  502    0  0.14697654765E+03 -0.71451109345E+02  0.83347458274E+03  0.86658597188E+03  0.17200000000E+03 0. -1.
         -6    1    1    2    0  502 -0.14697654765E+03  0.71451109345E+02  0.47136206191E+03  0.52770594084E+03  0.17200000000E+03 0.  1.
</event>
<event>
 4    1 -0.3240665E-004  0.2252179E+03  0.7818608E-02  0.1130052E+00
         -5   -1    0    0    0  501 -0.00000000000E+00  0.00000000000E+00  0.31480381287E+03  0.31483889625E+03  0.47000000000E+01 0.  1.
          5   -1    0    0  501    0  0.00000000000E+00 -0.00000000000E+00 -0.16122305809E+03  0.16129155111E+03  0.47000000000E+01 0. -1.
          6    1    1    2  502    0 -0.46013648061E+02 -0.13791975548E+03  0.68943013283E+02  0.23553397598E+03  0.17200000000E+03 0. -1.
         -6    1    1    2    0  502  0.46013648061E+02  0.13791975548E+03  0.84637741495E+02  0.24059647139E+03  0.17200000000E+03 0. -1.
</event>
<event>
 4    1 -0.3240665E-004  0.2257809E+03  0.7818608E-02  0.1129645E+00
         -5   -1    0    0    0  501 -0.00000000000E+00  0.00000000000E+00  0.54799359473E+03  0.54801374970E+03  0.47000000000E+01 0.  1.
          5   -1    0    0  501    0  0.00000000000E+00 -0.00000000000E+00 -0.93069288026E+02  0.93187887484E+02  0.47000000000E+01 0. -1.
          6    1    1    2  502    0  0.14591205066E+03  0.10133021743E+02  0.23923640364E+03  0.32895449759E+03  0.17200000000E+03 0. -1.
         -6    1    1    2    0  502 -0.14591205066E+03 -0.10133021743E+02  0.21568790306E+03  0.31224713960E+03  0.17200000000E+03 0.  1.
</event>
<event>
 4    1 -0.3240665E-004  0.2043021E+03  0.7818608E-02  0.1146159E+00
         -5   -1    0    0    0  501 -0.00000000000E+00  0.00000000000E+00  0.42592054673E+03  0.42594647801E+03  0.47000000000E+01 0.  1.
          5   -1    0    0  501    0  0.00000000000E+00 -0.00000000000E+00 -0.13188171051E+03  0.13196543323E+03  0.47000000000E+01 0. -1.
          6    1    1    2  502    0 -0.10755459342E+03 -0.24235272879E+02  0.55115176596E+01  0.20437640726E+03  0.17200000000E+03 0. -1.
         -6    1    1    2    0  502  0.10755459342E+03  0.24235272879E+02  0.28852731856E+03  0.35353550398E+03  0.17200000000E+03 0.  1.
</event>
<event>
 4    1 -0.3240665E-004  0.2545516E+03  0.7818608E-02  0.1110462E+00
         -5   -1    0    0    0  501 -0.00000000000E+00  0.00000000000E+00  0.11005396850E+03  0.11015428263E+03  0.47000000000E+01 0.  1.
          5   -1    0    0  501    0  0.00000000000E+00 -0.00000000000E+00 -0.59500099453E+03  0.59501955723E+03  0.47000000000E+01 0. -1.
          6    1    1    2  502    0  0.15800813719E+03  0.10122226537E+03 -0.27962839066E+03  0.37813827535E+03  0.17200000000E+03 0. -1.
         -6    1    1    2    0  502 -0.15800813719E+03 -0.10122226537E+03 -0.20531863537E+03  0.32703556451E+03  0.17200000000E+03 0.  1.
</event>
<event>
 4    1 -0.3240665E-004  0.2445131E+03  0.7818608E-02  0.1116822E+00
          5   -1    0    0  501    0  0.00000000000E+00  0.00000000000E+00  0.16151804868E+03  0.16158641666E+03  0.47000000000E+01 0. -1.
         -5   -1    0    0    0  501 -0.00000000000E+00 -0.00000000000E+00 -0.42865903329E+03  0.42868479891E+03  0.47000000000E+01 0.  1.
          6    1    1    2  502    0 -0.17374834482E+03  0.37628024095E+01 -0.24398710338E+02  0.24572737551E+03  0.17200000000E+03 0.  1.
         -6    1    1    2    0  502  0.17374834482E+03 -0.37628024095E+01 -0.24274227427E+03  0.34454384006E+03  0.17200000000E+03 0.  1.
</event>
<event>
 4    1 -0.3240665E-004  0.2467725E+03  0.7818608E-02  0.1115362E+00
          5   -1    0    0  501    0  0.00000000000E+00  0.00000000000E+00  0.64801468569E+03  0.64803172984E+03  0.47000000000E+01 0. -1.
         -5   -1    0    0    0  501 -0.00000000000E+00 -0.00000000000E+00 -0.25244044937E+03  0.25248419848E+03  0.47000000000E+01 0.  1.
          6    1    1    2  502    0  0.16563644762E+03 -0.62267488835E+02  0.55454357247E+03  0.60697219600E+03  0.17200000000E+03 0. -1.
         -6    1    1    2    0  502 -0.16563644762E+03  0.62267488835E+02 -0.15896933615E+03  0.29354373231E+03  0.17200000000E+03 0.  1.
</event>
<event>
 4    1 -0.3240665E-004  0.2015152E+03  0.7818608E-02  0.1148467E+00
          5   -1    0    0  501    0  0.00000000000E+00  0.00000000000E+00  0.72538390244E+02  0.72690494972E+02  0.47000000000E+01 0. -1.
         -5   -1    0    0    0  501 -0.00000000000E+00 -0.00000000000E+00 -0.10503858918E+04  0.10503964069E+04  0.47000000000E+01 0.  1.
          6    1    1    2  502    0 -0.70971995466E+02 -0.77377900886E+02 -0.10490317999E+03  0.22718503661E+03  0.17200000000E+03 0. -1.
         -6    1    1    2    0  502  0.70971995466E+02  0.77377900886E+02 -0.87294432153E+03  0.89590186526E+03  0.17200000000E+03 0.  1.
</event>
<event>
 4    1 -0.3240665E-004  0.2223035E+03  0.7818608E-02  0.1132177E+00
          5   -1    0    0  501    0  0.00000000000E+00  0.00000000000E+00  0.14669571036E+03  0.14677098295E+03  0.47000000000E+01 0. -1.
         -5   -1    0    0    0  501 -0.00000000000E+00 -0.00000000000E+00 -0.52359117669E+03  0.52361227097E+03  0.47000000000E+01 0.  1.
          6    1    1    2  502    0  0.51850738458E+02 -0.13094405647E+03  0.11790419538E+02  0.22261594506E+03  0.17200000000E+03 0. -1.
         -6    1    1    2    0  502 -0.51850738458E+02  0.13094405647E+03 -0.38868588588E+03  0.44776730886E+03  0.17200000000E+03 0.  1.
</event>
<event>
 4    1 -0.3240665E-004  0.1834550E+03  0.7818608E-02  0.1164501E+00
          5   -1    0    0  501    0  0.00000000000E+00  0.00000000000E+00  0.94920154274E+03  0.94921317877E+03  0.47000000000E+01 0. -1.
         -5   -1    0    0    0  501 -0.00000000000E+00 -0.00000000000E+00 -0.35926272636E+02  0.36232403529E+02  0.47000000000E+01 0.  1.
          6    1    1    2  502    0  0.13429908147E+02 -0.62380872568E+02  0.52195838295E+03  0.55325969420E+03  0.17200000000E+03 0. -1.
         -6    1    1    2    0  502 -0.13429908147E+02  0.62380872568E+02  0.39131688716E+03  0.43218588809E+03  0.17200000000E+03 0.  1.
</event>
<event>
 4    1 -0.3240665E-004  0.1818610E+03  0.7818608E-02  0.1166014E+00
         -5   -1    0    0    0  501 -0.00000000000E+00  0.00000000000E+00  0.28307728408E+03  0.28311629900E+03  0.47000000000E+01 0.  1.
          5   -1    0    0  501    0  0.00000000000E+00 -0.00000000000E+00 -0.18032557100E+03  0.18038681092E+03  0.47000000000E+01 0. -1.
          6    1    1    2  502    0  0.58987708518E+02  0.31414590577E+01 -0.86195906265E+02  0.20125395096E+03  0.17200000000E+03 0. -1.
         -6    1    1    2    0  502 -0.58987708518E+02 -0.31414590577E+01  0.18894761935E+03  0.26224915897E+03  0.17200000000E+03 0.  1.
</event>
<event>
 4    1 -0.3240665E-004  0.2658004E+03  0.7818608E-02  0.1103707E+00
          5   -1    0    0  501    0  0.00000000000E+00  0.00000000000E+00  0.11193961600E+04  0.11194060269E+04  0.47000000000E+01 0. -1.
         -5   -1    0    0    0  501 -0.00000000000E+00 -0.00000000000E+00 -0.80391422288E+02  0.80528695367E+02  0.47000000000E+01 0.  1.
          6    1    1    2  502    0  0.16760396680E+03  0.11390690553E+03  0.79813681578E+03  0.84123257755E+03  0.17200000000E+03 0. -1.
         -6    1    1    2    0  502 -0.16760396680E+03 -0.11390690553E+03  0.24086792197E+03  0.35870214475E+03  0.17200000000E+03 0.  1.
</event>
<event>
 4    1 -0.3240665E-004  0.1846081E+03  0.7818608E-02  0.1163416E+00
         -5   -1    0    0    0  501 -0.00000000000E+00  0.00000000000E+00  0.76495781297E+02  0.76640032334E+02  0.47000000000E+01 0.  1.
          5   -1    0    0  501    0  0.00000000000E+00 -0.00000000000E+00 -0.70095131709E+03  0.70096707407E+03  0.47000000000E+01 0. -1.
          6    1    1    2  502    0 -0.41435632352E+02 -0.52718561710E+02 -0.54717183777E+03  0.57747482925E+03  0.17200000000E+03 0. -1.
         -6    1    1    2    0  502  0.41435632352E+02  0.52718561710E+02 -0.77283698029E+02  0.20013227715E+03  0.17200000000E+03 0.  1.
</event>
<event>
 4    1 -0.3240665E-004  0.2300638E+03  0.7818608E-02  0.1126595E+00
          5   -1    0    0  501    0  0.00000000000E+00  0.00000000000E+00  0.47497045658E+02  0.47729019958E+02  0.47000000000E+01 0. -1.
         -5   -1    0    0    0  501 -0.00000000000E+00 -0.00000000000E+00 -0.13218165982E+04  0.13218249541E+04  0.47000000000E+01 0.  1.
          6    1    1    2  502    0 -0.15227086489E+03  0.12607174624E+02 -0.36398327176E+03  0.43059630661E+03  0.17200000000E+03 0. -1.
         -6    1    1    2    0  502  0.15227086489E+03 -0.12607174624E+02 -0.91033628077E+03  0.93895766743E+03  0.17200000000E+03 0.  1.
</event>
<event>
 4    1 -0.3240665E-004  0.2577995E+03  0.7818608E-02  0.1108473E+00
          5   -1    0    0  501    0  0.00000000000E+00  0.00000000000E+00  0.25343749807E+03  0.25348107509E+03  0.47000000000E+01 0. -1.
         -5   -1    0    0    0  501 -0.00000000000E+00 -0.00000000000E+00 -0.29708221905E+03  0.29711939499E+03  0.47000000000E+01 0.  1.
          6    1    1    2  502    0 -0.52795647360E+02  0.18463256997E+03  0.72567356073E+02  0.26781819848E+03  0.17200000000E+03 0. -1.
         -6    1    1    2    0  502  0.52795647360E+02 -0.18463256997E+03 -0.11621207706E+03  0.28278227159E+03  0.17200000000E+03 0.  1.
</event>
<event>
 4    1 -0.3240665E-004  0.1871071E+03  0.7818608E-02  0.1161097E+00
         -5   -1    0    0    0  501 -0.00000000000E+00  0.00000000000E+00  0.29997427748E+03  0.30001109504E+03  0.47000000000E+01 0.  1.
          5   -1    0    0  501    0  0.00000000000E+00 -0.00000000000E+00 -0.11746929357E+03  0.11756328055E+03  0.47000000000E+01 0. -1.
          6    1    1    2  502    0 -0.73367662279E+02  0.64999952497E+01  0.10904178996E+03  0.21656217528E+03  0.17200000000E+03 0. -1.
         -6    1    1    2    0  502  0.73367662279E+02 -0.64999952497E+01  0.73463193948E+02  0.20101220031E+03  0.17200000000E+03 0.  1.
</event>
<event>
 4    1 -0.3240665E-004  0.3126967E+03  0.7818608E-02  0.1079060E+00
         -5   -1    0    0    0  501 -0.00000000000E+00  0.00000000000E+00  0.68721172424E+02  0.68881706856E+02  0.47000000000E+01 0.  1.
          5   -1    0    0  501    0  0.00000000000E+00 -0.00000000000E+00 -0.15923544629E+04  0.15923613991E+04  0.47000000000E+01 0. -1.
          6    1    1    2  502    0  0.18022000384E+03 -0.18898667002E+03 -0.10342678572E+04  0.10805041470E+04  0.17200000000E+03 0. -1.
         -6    1    1    2    0  502 -0.18022000384E+03  0.18898667002E+03 -0.48936543322E+03  0.58073895897E+03  0.17200000000E+03 0.  1.
</event>
<event>
 4    1 -0.3240665E-004  0.2789934E+03  0.7818608E-02  0.1096240E+00
         -5   -1    0    0    0  501 -0.00000000000E+00  0.00000000000E+00  0.30449010953E+03  0.30452638113E+03  0.47000000000E+01 0.  1.
          5   -1    0    0  501    0  0.00000000000E+00 -0.00000000000E+00 -0.27015348336E+03  0.27019436443E+03  0.47000000000E+01 0. -1.
          6    1    1    2  502    0  0.21785291815E+03  0.28167875931E+02 -0.49613636831E+02  0.28337049271E+03  0.17200000000E+03 0.  1.
         -6    1    1    2    0  502 -0.21785291815E+03 -0.28167875931E+02  0.83950263003E+02  0.29135025285E+03  0.17200000000E+03 0.  1.
</event>
<event>
 4    1 -0.3240665E-004  0.1868231E+03  0.7818608E-02  0.1161358E+00
         -5   -1    0    0    0  501 -0.00000000000E+00  0.00000000000E+00  0.33726913417E+03  0.33730188091E+03  0.47000000000E+01 0.  1.
          5   -1    0    0  501    0  0.00000000000E+00 -0.00000000000E+00 -0.10492868555E+03  0.10503389477E+03  0.47000000000E+01 0. -1.
          6    1    1    2  502    0  0.69520577218E+02 -0.22039592331E+02  0.14288710303E+03  0.23520114476E+03  0.17200000000E+03 0.  1.
         -6    1    1    2    0  502 -0.69520577218E+02  0.22039592331E+02  0.89453345599E+02  0.20713463092E+03  0.17200000000E+03 0.  1.
</event>
<event>
 4    1 -0.3240665E-004  0.2915823E+03  0.7818608E-02  0.1089526E+00
         -5   -1    0    0    0  501 -0.00000000000E+00  0.00000000000E+00  0.44334392475E+02  0.44582825798E+02  0.47000000000E+01 0.  1.
          5   -1    0    0  501    0  0.00000000000E+00 -0.00000000000E+00 -0.20505472862E+04  0.20505526726E+04  0.47000000000E+01 0. -1.
          6    1    1    2  502    0  0.76312065402E+02  0.22273909456E+03 -0.12752958309E+04  0.13082047592E+04  0.17200000000E+03 0. -1.
         -6    1    1    2    0  502 -0.76312065402E+02 -0.22273909456E+03 -0.73091706280E+03  0.78693073918E+03  0.17200000000E+03 0.  1.
</event>
<event>
 4    1 -0.3240665E-004  0.3680461E+03  0.7818608E-02  0.1055443E+00
          5   -1    0    0  501    0  0.00000000000E+00  0.00000000000E+00  0.40909359113E+03  0.40912058895E+03  0.47000000000E+01 0. -1.
         -5   -1    0    0    0  501 -0.00000000000E+00 -0.00000000000E+00 -0.36811469551E+03  0.36814469852E+03  0.47000000000E+01 0.  1.
          6    1    1    2  502    0  0.31365083877E+03  0.86585512892E+02 -0.10279828114E+03  0.38213268155E+03  0.17200000000E+03 0. -1.
         -6    1    1    2    0  502 -0.31365083877E+03 -0.86585512892E+02  0.14377717676E+03  0.39513260592E+03  0.17200000000E+03 0.  1.
</event>
<event>
 4    1 -0.3240665E-004  0.1759157E+03  0.7818608E-02  0.1171815E+00
         -5   -1    0    0    0  501 -0.00000000000E+00  0.00000000000E+00  0.11875311413E+04  0.11875404421E+04  0.47000000000E+01 0.  1.
          5   -1    0    0  501    0  0.00000000000E+00 -0.00000000000E+00 -0.26043977719E+02  0.26464670325E+02  0.47000000000E+01 0. -1.
          6    1    1    2  502    0 -0.13796417968E+02  0.34234532051E+02  0.63428390222E+03  0.65822671850E+03  0.17200000000E+03 0.  1.
         -6    1    1    2    0  502  0.13796417968E+02 -0.34234532051E+02  0.52720326139E+03  0.55577839393E+03  0.17200000000E+03 0. -1.
</event>
<event>
 4    1 -0.3240665E-004  0.4483703E+03  0.7818608E-02  0.1028209E+00
         -5   -1    0    0    0  501 -0.00000000000E+00  0.00000000000E+00  0.16084139840E+04  0.16084208510E+04  0.47000000000E+01 0.  1.
          5   -1    0    0  501    0  0.00000000000E+00 -0.00000000000E+00 -0.12952062615E+03  0.12960587409E+03  0.47000000000E+01 0. -1.
          6    1    1    2  502    0 -0.18329213339E+03 -0.37128949794E+03  0.57605945657E+03  0.72998657176E+03  0.17200000000E+03 0. -1.
         -6    1    1    2    0  502  0.18329213339E+03  0.37128949794E+03  0.90283390129E+03  0.10080401533E+04  0.17200000000E+03 0.  1.
</event>
<event>
 4    1 -0.3240665E-004  0.1856258E+03  0.7818608E-02  0.1162467E+00
         -5   -1    0    0    0  501 -0.00000000000E+00  0.00000000000E+00  0.19779707869E+03  0.19785291087E+03  0.47000000000E+01 0.  1.
          5   -1    0    0  501    0  0.00000000000E+00 -0.00000000000E+00 -0.17819618802E+03  0.17825815949E+03  0.47000000000E+01 0. -1.
          6    1    1    2  502    0 -0.16120322772E+02  0.67919557095E+02 -0.18732266166E+02  0.18656856337E+03  0.17200000000E+03 0. -1.
         -6    1    1    2    0  502  0.16120322772E+02 -0.67919557095E+02  0.38333156833E+02  0.18954250699E+03  0.17200000000E+03 0.  1.
</event>
<event>
 4    1 -0.3240665E-004  0.4466229E+03  0.7818608E-02  0.1028734E+00
         -5   -1    0    0    0  501 -0.00000000000E+00  0.00000000000E+00  0.67626454362E+03  0.67628087579E+03  0.47000000000E+01 0.  1.
          5   -1    0    0  501    0  0.00000000000E+00 -0.00000000000E+00 -0.42028521486E+03  0.42031149382E+03  0.47000000000E+01 0. -1.
          6    1    1    2  502    0 -0.38731253352E+03 -0.14098600276E+03 -0.17144472664E+03  0.47839873107E+03  0.17200000000E+03 0. -1.
         -6    1    1    2    0  502  0.38731253352E+03  0.14098600276E+03  0.42742405540E+03  0.61819363854E+03  0.17200000000E+03 0.  1.
</event>
<event>
 4    1 -0.3240665E-004  0.2010244E+03  0.7818608E-02  0.1148878E+00
         -5   -1    0    0    0  501 -0.00000000000E+00  0.00000000000E+00  0.11225666758E+03  0.11235501509E+03  0.47000000000E+01 0.  1.
          5   -1    0    0  501    0  0.00000000000E+00 -0.00000000000E+00 -0.37233678082E+03  0.37236644365E+03  0.47000000000E+01 0. -1.
          6    1    1    2  502    0 -0.10374805263E+03  0.79467464344E+01 -0.85424298590E+02  0.21842188533E+03  0.17200000000E+03 0. -1.
         -6    1    1    2    0  502  0.10374805263E+03 -0.79467464344E+01 -0.17465581465E+03  0.26629957340E+03  0.17200000000E+03 0.  1.
</event>
<event>
 4    1 -0.3240665E-004  0.2794090E+03  0.7818608E-02  0.1096012E+00
         -5   -1    0    0    0  501 -0.00000000000E+00  0.00000000000E+00  0.10836198633E+03  0.10846386533E+03  0.47000000000E+01 0.  1.
          5   -1    0    0  501    0  0.00000000000E+00 -0.00000000000E+00 -0.75853085697E+03  0.75854541788E+03  0.47000000000E+01 0. -1.
          6    1    1    2  502    0 -0.33712665489E+02 -0.21759789475E+03 -0.42277832585E+03  0.50676513339E+03  0.17200000000E+03 0. -1.
         -6    1    1    2    0  502  0.33712665489E+02  0.21759789475E+03 -0.22739054480E+03  0.36024414982E+03  0.17200000000E+03 0.  1.
</event>
<event>
 4    1 -0.3240665E-004  0.1977411E+03  0.7818608E-02  0.1151659E+00
          5   -1    0    0  501    0  0.00000000000E+00  0.00000000000E+00  0.25323933819E+03  0.25328294930E+03  0.47000000000E+01 0. -1.
         -5   -1    0    0    0  501 -0.00000000000E+00 -0.00000000000E+00 -0.20908827247E+03  0.20914109038E+03  0.47000000000E+01 0.  1.
          6    1    1    2  502    0  0.68634266561E+02  0.69331730886E+02  0.14038749305E+03  0.24250814349E+03  0.17200000000E+03 0. -1.
         -6    1    1    2    0  502 -0.68634266561E+02 -0.69331730886E+02 -0.96236427325E+02  0.21991589619E+03  0.17200000000E+03 0. -1.
</event>
<event>
 4    1 -0.3240665E-004  0.1948534E+03  0.7818608E-02  0.1154155E+00
         -5   -1    0    0    0  501 -0.00000000000E+00  0.00000000000E+00  0.32283670588E+02  0.32624000163E+02  0.47000000000E+01 0.  1.
          5   -1    0    0  501    0  0.00000000000E+00 -0.00000000000E+00 -0.11757096377E+04  0.11757190319E+04  0.47000000000E+01 0. -1.
          6    1    1    2  502    0  0.34915775777E+02  0.84644680570E+02 -0.61540984265E+03  0.64552080352E+03  0.17200000000E+03 0. -1.
         -6    1    1    2    0  502 -0.34915775777E+02 -0.84644680570E+02 -0.52801612442E+03  0.56282222859E+03  0.17200000000E+03 0.  1.
</event>
<event>
 4    1 -0.3240665E-004  0.2121743E+03  0.7818608E-02  0.1139856E+00
         -5   -1    0    0    0  501 -0.00000000000E+00  0.00000000000E+00  0.74515820365E+02  0.74663896795E+02  0.47000000000E+01 0.  1.
          5   -1    0    0  501    0  0.00000000000E+00 -0.00000000000E+00 -0.72506030266E+03  0.72507553571E+03  0.47000000000E+01 0. -1.
          6    1    1    2  502    0  0.92908901587E+02 -0.82473368625E+02 -0.48906259264E+03  0.53310424876E+03  0.17200000000E+03 0. -1.
         -6    1    1    2    0  502 -0.92908901587E+02  0.82473368625E+02 -0.16148188965E+03  0.26663518375E+03  0.17200000000E+03 0.  1.
</event>
<event>
 4    1 -0.3240665E-004  0.1855161E+03  0.7818608E-02  0.1162569E+00
          5   -1    0    0  501    0  0.00000000000E+00  0.00000000000E+00  0.55685664167E+02  0.55883657663E+02  0.47000000000E+01 0. -1.
         -5   -1    0    0    0  501 -0.00000000000E+00 -0.00000000000E+00 -0.71495186643E+03  0.71496731485E+03  0.47000000000E+01 0.  1.
          6    1    1    2  502    0 -0.69355427822E+02  0.46963530242E+01 -0.18680401064E+03  0.26327166481E+03  0.17200000000E+03 0.  1.
         -6    1    1    2    0  502  0.69355427822E+02 -0.46963530242E+01 -0.47246219162E+03  0.50757930771E+03  0.17200000000E+03 0.  1.
</event>
<event>
 4    1 -0.3240665E-004  0.2713767E+03  0.7818608E-02  0.1100494E+00
         -5   -1    0    0    0  501 -0.00000000000E+00  0.00000000000E+00  0.14069048301E+03  0.14076896679E+03  0.47000000000E+01 0.  1.
          5   -1    0    0  501    0  0.00000000000E+00 -0.00000000000E+00 -0.63086389297E+03  0.63088140046E+03  0.47000000000E+01 0. -1.
          6    1    1    2  502    0 -0.14549271694E+03 -0.15130492266E+03 -0.85725980627E+02  0.28459489464E+03  0.17200000000E+03 0. -1.
         -6    1    1    2    0  502  0.14549271694E+03  0.15130492266E+03 -0.40444742933E+03  0.48705547260E+03  0.17200000000E+03 0. -1.
</event>
<event>
 4    1 -0.3240665E-004  0.2833773E+03  0.7818608E-02  0.1093859E+00
         -5   -1    0    0    0  501 -0.00000000000E+00  0.00000000000E+00  0.17232674708E+03  0.17239082852E+03  0.47000000000E+01 0.  1.
          5   -1    0    0  501    0  0.00000000000E+00 -0.00000000000E+00 -0.74689090134E+03  0.74690568916E+03  0.47000000000E+01 0. -1.
          6    1    1    2  502    0  0.15190123802E+03 -0.16626690464E+03 -0.56923358969E+03  0.63586912908E+03  0.17200000000E+03 0. -1.
         -6    1    1    2    0  502 -0.15190123802E+03  0.16626690464E+03 -0.53305645727E+01  0.28342738860E+03  0.17200000000E+03 0.  1.
</event>
<event>
 4    1 -0.3240665E-004  0.2936975E+03  0.7818608E-02  0.1088434E+00
          5   -1    0    0  501    0  0.00000000000E+00  0.00000000000E+00  0.59476384323E+03  0.59478241334E+03  0.47000000000E+01 0. -1.
         -5   -1    0    0    0  501 -0.00000000000E+00 -0.00000000000E+00 -0.14915776398E+03  0.14923179472E+03  0.47000000000E+01 0.  1.
          6    1    1    2  502    0  0.23026062655E+03  0.60450417915E+02  0.16049256053E+03  0.33468802063E+03  0.17200000000E+03 0. -1.
         -6    1    1    2    0  502 -0.23026062655E+03 -0.60450417915E+02  0.28511351872E+03  0.40932618744E+03  0.17200000000E+03 0.  1.
</event>
<event>
 4    1 -0.3240665E-004  0.2422974E+03  0.7818608E-02  0.1118272E+00
          5   -1    0    0  501    0  0.00000000000E+00  0.00000000000E+00  0.25350872737E+03  0.25355229215E+03  0.47000000000E+01 0. -1.
         -5   -1    0    0    0  501 -0.00000000000E+00 -0.00000000000E+00 -0.23911736760E+03  0.23916355384E+03  0.47000000000E+01 0.  1.
          6    1    1    2  502    0  0.16543820881E+03 -0.41883670634E+02 -0.36782219087E+02  0.24507340623E+03  0.17200000000E+03 0.  1.
         -6    1    1    2    0  502 -0.16543820881E+03  0.41883670634E+02  0.51173578861E+02  0.24764243976E+03  0.17200000000E+03 0.  1.
</event>
<event>
 4    1 -0.3240665E-004  0.1846320E+03  0.7818608E-02  0.1163394E+00
          5   -1    0    0  501    0  0.00000000000E+00  0.00000000000E+00  0.29827348602E+03  0.29831051350E+03  0.47000000000E+01 0. -1.
         -5   -1    0    0    0  501 -0.00000000000E+00 -0.00000000000E+00 -0.11608851585E+03  0.11618361981E+03  0.47000000000E+01 0.  1.
          6    1    1    2  502    0 -0.57655091454E+02 -0.34363886333E+02  0.11754422806E+03  0.21887355209E+03  0.17200000000E+03 0. -1.
         -6    1    1    2    0  502  0.57655091454E+02  0.34363886333E+02  0.64640742105E+02  0.19562058121E+03  0.17200000000E+03 0.  1.
</event>
<event>
 4    1 -0.3240665E-004  0.1805577E+03  0.7818608E-02  0.1167264E+00
          5   -1    0    0  501    0  0.00000000000E+00  0.00000000000E+00  0.14082772589E+03  0.14090613322E+03  0.47000000000E+01 0. -1.
         -5   -1    0    0    0  501 -0.00000000000E+00 -0.00000000000E+00 -0.23191615473E+03  0.23196377481E+03  0.47000000000E+01 0.  1.
          6    1    1    2  502    0 -0.44157338926E+01  0.54750232334E+02 -0.54918332177E+02  0.18872495822E+03  0.17200000000E+03 0. -1.
         -6    1    1    2    0  502  0.44157338926E+01 -0.54750232334E+02 -0.36170096667E+02  0.18414494981E+03  0.17200000000E+03 0. -1.
</event>
<event>
 4    1 -0.3240665E-004  0.1809335E+03  0.7818608E-02  0.1166903E+00
         -5   -1    0    0    0  501 -0.00000000000E+00  0.00000000000E+00  0.53663791764E+02  0.53869217059E+02  0.47000000000E+01 0.  1.
          5   -1    0    0  501    0  0.00000000000E+00 -0.00000000000E+00 -0.69033060933E+03  0.69034660873E+03  0.47000000000E+01 0. -1.
          6    1    1    2  502    0 -0.25361375275E+02  0.50097125395E+02 -0.19036292035E+03  0.26263084886E+03  0.17200000000E+03 0.  1.
         -6    1    1    2    0  502  0.25361375275E+02 -0.50097125395E+02 -0.44630389722E+03  0.48158497693E+03  0.17200000000E+03 0. -1.
</event>
<event>
 4    1 -0.3240665E-004  0.3180346E+03  0.7818608E-02  0.1076557E+00
          5   -1    0    0  501    0  0.00000000000E+00  0.00000000000E+00  0.16087462916E+03  0.16094327046E+03  0.47000000000E+01 0. -1.
         -5   -1    0    0    0  501 -0.00000000000E+00 -0.00000000000E+00 -0.64619521067E+03  0.64621230280E+03  0.47000000000E+01 0.  1.
          6    1    1    2  502    0  0.97777177386E+02  0.24900132341E+03 -0.17590759932E+03  0.36344121805E+03  0.17200000000E+03 0. -1.
         -6    1    1    2    0  502 -0.97777177386E+02 -0.24900132341E+03 -0.30941298219E+03  0.44371435522E+03  0.17200000000E+03 0.  1.
</event>
<event>
 4    1 -0.3240665E-004  0.2169520E+03  0.7818608E-02  0.1136176E+00
         -5   -1    0    0    0  501 -0.00000000000E+00  0.00000000000E+00  0.37013707711E+02  0.37310917417E+02  0.47000000000E+01 0.  1.
          5   -1    0    0  501    0  0.00000000000E+00 -0.00000000000E+00 -0.12700977536E+04  0.12701064498E+04  0.47000000000E+01 0. -1.
          6    1    1    2  502    0 -0.20544375841E+02 -0.13062202869E+03 -0.58059081809E+03  0.61980148742E+03  0.17200000000E+03 0. -1.
         -6    1    1    2    0  502  0.20544375841E+02  0.13062202869E+03 -0.65249322780E+03  0.68761587975E+03  0.17200000000E+03 0.  1.
</event>
<event>
 4    1 -0.3240665E-004  0.2524939E+03  0.7818608E-02  0.1111739E+00
          5   -1    0    0  501    0  0.00000000000E+00  0.00000000000E+00  0.12796460786E+03  0.12805089169E+03  0.47000000000E+01 0. -1.
         -5   -1    0    0    0  501 -0.00000000000E+00 -0.00000000000E+00 -0.87310258936E+03  0.87311523956E+03  0.47000000000E+01 0.  1.
          6    1    1    2  502    0 -0.92018577543E+02 -0.16031772318E+03 -0.44454799950E+02  0.25637749554E+03  0.17200000000E+03 0.  1.
         -6    1    1    2    0  502  0.92018577543E+02  0.16031772318E+03 -0.70068318155E+03  0.74478863572E+03  0.17200000000E+03 0.  1.
</event>
<event>
 4    1 -0.3240665E-004  0.2269629E+03  0.7818608E-02  0.1128796E+00
         -5   -1    0    0    0  501 -0.00000000000E+00  0.00000000000E+00  0.48084874396E+03  0.48087171321E+03  0.47000000000E+01 0.  1.
          5   -1    0    0  501    0  0.00000000000E+00 -0.00000000000E+00 -0.22102875234E+03  0.22107871757E+03  0.47000000000E+01 0. -1.
          6    1    1    2  502    0  0.40870561843E+02  0.14232981799E+03 -0.12206953369E+03  0.25770749110E+03  0.17200000000E+03 0. -1.
         -6    1    1    2    0  502 -0.40870561843E+02 -0.14232981799E+03  0.38188952531E+03  0.44424293968E+03  0.17200000000E+03 0.  1.
</event>
<event>
 4    1 -0.3240665E-004  0.1924752E+03  0.7818608E-02  0.1156248E+00
          5   -1    0    0  501    0  0.00000000000E+00  0.00000000000E+00  0.87663720138E+02  0.87789622555E+02  0.47000000000E+01 0. -1.
         -5   -1    0    0    0  501 -0.00000000000E+00 -0.00000000000E+00 -0.91117718527E+03  0.91118930687E+03  0.47000000000E+01 0.  1.
          6    1    1    2  502    0  0.86258175741E+02 -0.47134374356E+01 -0.45864325171E+02  0.19786415971E+03  0.17200000000E+03 0. -1.
         -6    1    1    2    0  502 -0.86258175741E+02  0.47134374356E+01 -0.77764913996E+03  0.80111476972E+03  0.17200000000E+03 0.  1.
</event>
<event>
 4    1 -0.3240665E-004  0.1860577E+03  0.7818608E-02  0.1162066E+00
         -5   -1    0    0    0  501 -0.00000000000E+00  0.00000000000E+00  0.81674870850E+02  0.81809990394E+02  0.47000000000E+01 0.  1.
          5   -1    0    0  501    0  0.00000000000E+00 -0.00000000000E+00 -0.47213188816E+03  0.47215528147E+03  0.47000000000E+01 0. -1.
          6    1    1    2  502    0 -0.49462297443E+02 -0.50861900449E+02 -0.28424982140E+03  0.33972843972E+03  0.17200000000E+03 0. -1.
         -6    1    1    2    0  502  0.49462297443E+02  0.50861900449E+02 -0.10620719591E+03  0.21423683215E+03  0.17200000000E+03 0.  1.
</event>
<event>
 4    1 -0.3240665E-004  0.1747164E+03  0.7818608E-02  0.1173017E+00
         -5   -1    0    0    0  501 -0.00000000000E+00  0.00000000000E+00  0.23593085997E+04  0.23593132812E+04  0.47000000000E+01 0.  1.
          5   -1    0    0  501    0  0.00000000000E+00 -0.00000000000E+00 -0.27856547167E+02  0.28250260531E+02  0.47000000000E+01 0. -1.
          6    1    1    2  502    0  0.26382235244E+02 -0.15677723387E+02  0.28939806852E+03  0.33804889500E+03  0.17200000000E+03 0. -1.
         -6    1    1    2    0  502 -0.26382235244E+02  0.15677723387E+02  0.20420539840E+04  0.20495146467E+04  0.17200000000E+03 0.  1.
</event>
<event>
 4    1 -0.3240665E-004  0.2703229E+03  0.7818608E-02  0.1101095E+00
         -5   -1    0    0    0  501 -0.00000000000E+00  0.00000000000E+00  0.13244171776E+04  0.13244255171E+04  0.47000000000E+01 0.  1.
          5   -1    0    0  501    0  0.00000000000E+00 -0.00000000000E+00 -0.72068731845E+02  0.72221825716E+02  0.47000000000E+01 0. -1.
          6    1    1    2  502    0 -0.87283098057E+02 -0.18939936126E+03  0.28742085753E+03  0.39456964733E+03  0.17200000000E+03 0. -1.
         -6    1    1    2    0  502  0.87283098057E+02  0.18939936126E+03  0.96492758823E+03  0.10020776955E+04  0.17200000000E+03 0.  1.
</event>
<event>
 4    1 -0.3240665E-004  0.3081017E+03  0.7818608E-02  0.1081259E+00
         -5   -1    0    0    0  501 -0.00000000000E+00  0.00000000000E+00  0.48413152200E+03  0.48415433552E+03  0.47000000000E+01 0.  1.
          5   -1    0    0  501    0  0.00000000000E+00 -0.00000000000E+00 -0.31342462093E+03  0.31345985868E+03  0.47000000000E+01 0. -1.
          6    1    1    2  502    0 -0.22486717029E+03  0.12156242144E+03 -0.15870300456E+03  0.34657367217E+03  0.17200000000E+03 0. -1.
         -6    1    1    2    0  502  0.22486717029E+03 -0.12156242144E+03  0.32940990563E+03  0.45104052203E+03  0.17200000000E+03 0.  1.
</event>
<event>
 4    1 -0.3240665E-004  0.2297101E+03  0.7818608E-02  0.1126844E+00
          5   -1    0    0  501    0  0.00000000000E+00  0.00000000000E+00  0.38605766457E+03  0.38608627323E+03  0.47000000000E+01 0. -1.
         -5   -1    0    0    0  501 -0.00000000000E+00 -0.00000000000E+00 -0.17548226767E+03  0.17554519722E+03  0.47000000000E+01 0.  1.
          6    1    1    2  502    0 -0.97816813710E+02 -0.11668170763E+03  0.23742263355E+03  0.33035777100E+03  0.17200000000E+03 0. -1.
         -6    1    1    2    0  502  0.97816813710E+02  0.11668170763E+03 -0.26847236647E+02  0.23127369944E+03  0.17200000000E+03 0.  1.
</event>
<event>
 4    1 -0.3240665E-004  0.2448612E+03  0.7818608E-02  0.1116596E+00
          5   -1    0    0  501    0  0.00000000000E+00  0.00000000000E+00  0.10974704478E+04  0.10974805118E+04  0.47000000000E+01 0. -1.
         -5   -1    0    0    0  501 -0.00000000000E+00 -0.00000000000E+00 -0.81468504382E+02  0.81603965628E+02  0.47000000000E+01 0.  1.
          6    1    1    2  502    0  0.11586478277E+03 -0.13018584948E+03  0.84669409120E+03  0.88138974770E+03  0.17200000000E+03 0. -1.
         -6    1    1    2    0  502 -0.11586478277E+03  0.13018584948E+03  0.16930785225E+03  0.29769472976E+03  0.17200000000E+03 0.  1.
</event>
<event>
 4    1 -0.3240665E-004  0.1869262E+03  0.7818608E-02  0.1161263E+00
         -5   -1    0    0    0  501 -0.00000000000E+00  0.00000000000E+00  0.19604746509E+04  0.19604802847E+04  0.47000000000E+01 0.  1.
          5   -1    0    0  501    0  0.00000000000E+00 -0.00000000000E+00 -0.17517742605E+02  0.18137290480E+02  0.47000000000E+01 0. -1.
          6    1    1    2  502    0  0.62262396451E+02 -0.38481214501E+02  0.99518803841E+03  0.10125910535E+04  0.17200000000E+03 0.  1.
         -6    1    1    2    0  502 -0.62262396451E+02  0.38481214501E+02  0.94776886987E+03  0.96602652168E+03  0.17200000000E+03 0.  1.
</event>
<event>
 4    1 -0.3240665E-004  0.2852458E+03  0.7818608E-02  0.1092858E+00
          5   -1    0    0  501    0  0.00000000000E+00  0.00000000000E+00  0.17002431741E+03  0.17008926631E+03  0.47000000000E+01 0. -1.
         -5   -1    0    0    0  501 -0.00000000000E+00 -0.00000000000E+00 -0.73340983015E+03  0.73342488979E+03  0.47000000000E+01 0.  1.
          6    1    1    2  502    0 -0.11121602896E+03 -0.19852501291E+03 -0.15313644415E+02  0.28565660075E+03  0.17200000000E+03 0. -1.
         -6    1    1    2    0  502  0.11121602896E+03  0.19852501291E+03 -0.54807186832E+03  0.61785755534E+03  0.17200000000E+03 0.  1.
</event>
<event>
 4    1 -0.3240665E-004  0.2266164E+03  0.7818608E-02  0.1129044E+00
         -5   -1    0    0    0  501 -0.00000000000E+00  0.00000000000E+00  0.22467185325E+03  0.22472100846E+03  0.47000000000E+01 0.  1.
          5   -1    0    0  501    0  0.00000000000E+00 -0.00000000000E+00 -0.23752156262E+03  0.23756805911E+03  0.47000000000E+01 0. -1.
          6    1    1    2  502    0  0.12765747701E+03 -0.73990160824E+02  0.38665190839E+02  0.22989121844E+03  0.17200000000E+03 0. -1.
         -6    1    1    2    0  502 -0.12765747701E+03  0.73990160824E+02 -0.51514900213E+02  0.23239784913E+03  0.17200000000E+03 0. -1.
</event>
<event>
 4    1 -0.3240665E-004  0.1828876E+03  0.7818608E-02  0.1165037E+00
         -5   -1    0    0    0  501 -0.00000000000E+00  0.00000000000E+00  0.20313622234E+03  0.20319058744E+03  0.47000000000E+01 0.  1.
          5   -1    0    0  501    0  0.00000000000E+00 -0.00000000000E+00 -0.16910657820E+03  0.16917187943E+03  0.47000000000E+01 0. -1.
          6    1    1    2  502    0 -0.49770607937E+02  0.37239369431E+02  0.47573993401E+02  0.18897399000E+03  0.17200000000E+03 0. -1.
         -6    1    1    2    0  502  0.49770607937E+02 -0.37239369431E+02 -0.13544349261E+02  0.18338847687E+03  0.17200000000E+03 0. -1.
</event>
<event>
 4    1 -0.3240665E-004  0.1936690E+03  0.7818608E-02  0.1155193E+00
          5   -1    0    0  501    0  0.00000000000E+00  0.00000000000E+00  0.14043571615E+03  0.14051434223E+03  0.47000000000E+01 0. -1.
         -5   -1    0    0    0  501 -0.00000000000E+00 -0.00000000000E+00 -0.27923078455E+03  0.27927033685E+03  0.47000000000E+01 0.  1.
          6    1    1    2  502    0  0.83665858017E+02 -0.30392315424E+02 -0.25311511723E+02  0.19531600359E+03  0.17200000000E+03 0. -1.
         -6    1    1    2    0  502 -0.83665858017E+02  0.30392315424E+02 -0.11348355668E+03  0.22446867548E+03  0.17200000000E+03 0.  1.
</event>
<event>
 4    1 -0.3240665E-004  0.2927914E+03  0.7818608E-02  0.1088901E+00
         -5   -1    0    0    0  501 -0.00000000000E+00  0.00000000000E+00  0.86290143797E+03  0.86291423771E+03  0.47000000000E+01 0.  1.
          5   -1    0    0  501    0  0.00000000000E+00 -0.00000000000E+00 -0.26454820866E+03  0.26458995579E+03  0.47000000000E+01 0. -1.
          6    1    1    2  502    0 -0.14764656723E+03  0.18531940326E+03 -0.14633575947E+03  0.32732391379E+03  0.17200000000E+03 0. -1.
         -6    1    1    2    0  502  0.14764656723E+03 -0.18531940326E+03  0.74468898878E+03  0.80018027972E+03  0.17200000000E+03 0.  1.
</event>
<event>
 4    1 -0.3240665E-004  0.2394485E+03  0.7818608E-02  0.1120161E+00
          5   -1    0    0  501    0  0.00000000000E+00  0.00000000000E+00  0.36240504719E+03  0.36243552285E+03  0.47000000000E+01 0. -1.
         -5   -1    0    0    0  501 -0.00000000000E+00 -0.00000000000E+00 -0.15913952319E+03  0.15920891257E+03  0.47000000000E+01 0.  1.
          6    1    1    2  502    0 -0.16232152558E+03  0.37460671401E+02  0.80932701938E+02  0.25275617067E+03  0.17200000000E+03 0.  1.
         -6    1    1    2    0  502  0.16232152558E+03 -0.37460671401E+02  0.12233282206E+03  0.26888826475E+03  0.17200000000E+03 0. -1.
</event>
<event>
 4    1 -0.3240665E-004  0.2071703E+03  0.7818608E-02  0.1143827E+00
         -5   -1    0    0    0  501 -0.00000000000E+00  0.00000000000E+00  0.53198673000E+02  0.53405887399E+02  0.47000000000E+01 0.  1.
          5   -1    0    0  501    0  0.00000000000E+00 -0.00000000000E+00 -0.10260677634E+04  0.10260785277E+04  0.47000000000E+01 0. -1.
          6    1    1    2  502    0  0.10137468963E+03 -0.55305488397E+02 -0.23592820710E+03  0.31397713873E+03  0.17200000000E+03 0.  1.
         -6    1    1    2    0  502 -0.10137468963E+03  0.55305488397E+02 -0.73694088331E+03  0.76550727641E+03  0.17200000000E+03 0. -1.
</event>
<event>
 4    1 -0.3240665E-004  0.1742602E+03  0.7818608E-02  0.1173477E+00
          5   -1    0    0  501    0  0.00000000000E+00  0.00000000000E+00  0.14273228291E+03  0.14280964458E+03  0.47000000000E+01 0. -1.
         -5   -1    0    0    0  501 -0.00000000000E+00 -0.00000000000E+00 -0.22504845773E+03  0.22509753070E+03  0.47000000000E+01 0.  1.
          6    1    1    2  502    0  0.18536027009E+02  0.20952719084E+02  0.21090933207E+01  0.17427291531E+03  0.17200000000E+03 0. -1.
         -6    1    1    2    0  502 -0.18536027009E+02 -0.20952719084E+02 -0.84425268147E+02  0.19363425997E+03  0.17200000000E+03 0.  1.
</event>
<event>
 4    1 -0.3240665E-004  0.2164376E+03  0.7818608E-02  0.1136567E+00
          5   -1    0    0  501    0  0.00000000000E+00  0.00000000000E+00  0.24168124399E+03  0.24172694036E+03  0.47000000000E+01 0. -1.
         -5   -1    0    0    0  501 -0.00000000000E+00 -0.00000000000E+00 -0.19693906460E+03  0.19699513996E+03  0.47000000000E+01 0.  1.
          6    1    1    2  502    0 -0.61034564586E+02  0.11634438995E+03  0.50329901879E+02  0.22221236277E+03  0.17200000000E+03 0. -1.
         -6    1    1    2    0  502  0.61034564586E+02 -0.11634438995E+03 -0.55877224974E+01  0.21650971754E+03  0.17200000000E+03 0.  1.
</event>
<event>
 4    1 -0.3240665E-004  0.2139640E+03  0.7818608E-02  0.1138465E+00
          5   -1    0    0  501    0  0.00000000000E+00  0.00000000000E+00  0.43250404190E+03  0.43252957848E+03  0.47000000000E+01 0. -1.
         -5   -1    0    0    0  501 -0.00000000000E+00 -0.00000000000E+00 -0.11052611916E+03  0.11062600516E+03  0.47000000000E+01 0.  1.
          6    1    1    2  502    0  0.41475992555E+02 -0.12031758784E+03  0.21729738785E+03  0.30495693904E+03  0.17200000000E+03 0. -1.
         -6    1    1    2    0  502 -0.41475992555E+02  0.12031758784E+03  0.10468053488E+03  0.23819864459E+03  0.17200000000E+03 0.  1.
</event>
<event>
 4    1 -0.3240665E-004  0.2197721E+03  0.7818608E-02  0.1134053E+00
         -5   -1    0    0    0  501 -0.00000000000E+00  0.00000000000E+00  0.10190042457E+03  0.10200875711E+03  0.47000000000E+01 0.  1.
          5   -1    0    0  501    0  0.00000000000E+00 -0.00000000000E+00 -0.47362441587E+03  0.47364773546E+03  0.47000000000E+01 0. -1.
          6    1    1    2  502    0 -0.10490857230E+03 -0.87806329478E+02 -0.18692426990E+03  0.28851419847E+03  0.17200000000E+03 0. -1.
         -6    1    1    2    0  502  0.10490857230E+03  0.87806329478E+02 -0.18479972139E+03  0.28714229411E+03  0.17200000000E+03 0.  1.
</event>
<event>
 4    1 -0.3240665E-004  0.1798950E+03  0.7818608E-02  0.1167905E+00
          5   -1    0    0  501    0  0.00000000000E+00  0.00000000000E+00  0.32396853386E+02  0.32736006313E+02  0.47000000000E+01 0. -1.
         -5   -1    0    0    0  501 -0.00000000000E+00 -0.00000000000E+00 -0.13701859004E+04  0.13701939613E+04  0.47000000000E+01 0.  1.
          6    1    1    2  502    0  0.12852391066E+02 -0.51117726467E+02 -0.30108974270E+03  0.35073813462E+03  0.17200000000E+03 0. -1.
         -6    1    1    2    0  502 -0.12852391066E+02  0.51117726467E+02 -0.10366993043E+04  0.10521918330E+04  0.17200000000E+03 0.  1.
</event>
<event>
 4    1 -0.3240665E-004  0.1983250E+03  0.7818608E-02  0.1151160E+00
          5   -1    0    0  501    0  0.00000000000E+00  0.00000000000E+00  0.30415072737E+03  0.30418703943E+03  0.47000000000E+01 0. -1.
         -5   -1    0    0    0  501 -0.00000000000E+00 -0.00000000000E+00 -0.12981543486E+03  0.12990048933E+03  0.47000000000E+01 0.  1.
          6    1    1    2  502    0  0.41002646140E+02  0.89819810006E+02  0.72641203707E+02  0.21120975294E+03  0.17200000000E+03 0.  1.
         -6    1    1    2    0  502 -0.41002646140E+02 -0.89819810006E+02  0.10169408880E+03  0.22287777583E+03  0.17200000000E+03 0.  1.
</event>
<event>
 4    1 -0.3240665E-004  0.1816584E+03  0.7818608E-02  0.1166208E+00
         -5   -1    0    0    0  501 -0.00000000000E+00  0.00000000000E+00  0.30208958029E+03  0.30212614008E+03  0.47000000000E+01 0.  1.
          5   -1    0    0  501    0  0.00000000000E+00 -0.00000000000E+00 -0.11377324756E+03  0.11387028523E+03  0.47000000000E+01 0. -1.
          6    1    1    2  502    0  0.50861357067E+02  0.28790355188E+02  0.13608658175E+03  0.22697867725E+03  0.17200000000E+03 0.  1.
         -6    1    1    2    0  502 -0.50861357067E+02 -0.28790355188E+02  0.52229750983E+02  0.18901774806E+03  0.17200000000E+03 0. -1.
</event>
<event>
 4    1 -0.3240665E-004  0.4048908E+03  0.7818608E-02  0.1042099E+00
         -5   -1    0    0    0  501 -0.00000000000E+00  0.00000000000E+00  0.45010200095E+03  0.45012653917E+03  0.47000000000E+01 0.  1.
          5   -1    0    0  501    0  0.00000000000E+00 -0.00000000000E+00 -0.51711786370E+03  0.51713922203E+03  0.47000000000E+01 0. -1.
          6    1    1    2  502    0 -0.81954577032E+02  0.35726183569E+03 -0.29651640936E+03  0.50185511152E+03  0.17200000000E+03 0. -1.
         -6    1    1    2    0  502  0.81954577032E+02 -0.35726183569E+03  0.22950054661E+03  0.46541064968E+03  0.17200000000E+03 0.  1.
</event>
<event>
 4    1 -0.3240665E-004  0.2487369E+03  0.7818608E-02  0.1114106E+00
         -5   -1    0    0    0  501 -0.00000000000E+00  0.00000000000E+00  0.87350424749E+02  0.87476778084E+02  0.47000000000E+01 0.  1.
          5   -1    0    0  501    0  0.00000000000E+00 -0.00000000000E+00 -0.85339961200E+03  0.85341255425E+03  0.47000000000E+01 0. -1.
          6    1    1    2  502    0  0.61343440537E+02  0.16888768097E+03 -0.57742558730E+03  0.62872122228E+03  0.17200000000E+03 0. -1.
         -6    1    1    2    0  502 -0.61343440537E+02 -0.16888768097E+03 -0.18862359995E+03  0.31216811006E+03  0.17200000000E+03 0.  1.
</event>
<event>
 4    1 -0.3240665E-004  0.2653256E+03  0.7818608E-02  0.1103985E+00
         -5   -1    0    0    0  501 -0.00000000000E+00  0.00000000000E+00  0.17806511233E+03  0.17812712940E+03  0.47000000000E+01 0.  1.
          5   -1    0    0  501    0  0.00000000000E+00 -0.00000000000E+00 -0.59558451976E+03  0.59560306428E+03  0.47000000000E+01 0. -1.
          6    1    1    2  502    0  0.23046258034E+02 -0.20070508393E+03  0.15621029301E+02  0.26578502080E+03  0.17200000000E+03 0.  1.
         -6    1    1    2    0  502 -0.23046258034E+02  0.20070508393E+03 -0.43314043673E+03  0.50794517289E+03  0.17200000000E+03 0. -1.
</event>
<event>
 4    1 -0.3240665E-004  0.3335464E+03  0.7818608E-02  0.1069578E+00
         -5   -1    0    0    0  501 -0.00000000000E+00  0.00000000000E+00  0.13121070851E+03  0.13129485911E+03  0.47000000000E+01 0.  1.
          5   -1    0    0  501    0  0.00000000000E+00 -0.00000000000E+00 -0.12464006637E+04  0.12464095252E+04  0.47000000000E+01 0. -1.
          6    1    1    2  502    0  0.28442047352E+03 -0.27823836240E+02 -0.16792746119E+03  0.37343380115E+03  0.17200000000E+03 0. -1.
         -6    1    1    2    0  502 -0.28442047352E+03  0.27823836240E+02 -0.94726249404E+03  0.10042705832E+04  0.17200000000E+03 0. -1.
</event>
<event>
 4    1 -0.3240665E-004  0.1827601E+03  0.7818608E-02  0.1165158E+00
         -5   -1    0    0    0  501 -0.00000000000E+00  0.00000000000E+00  0.76885263904E+03  0.76886700447E+03  0.47000000000E+01 0.  1.
          5   -1    0    0  501    0  0.00000000000E+00 -0.00000000000E+00 -0.52221668366E+02  0.52432744034E+02  0.47000000000E+01 0. -1.
          6    1    1    2  502    0 -0.52391140159E+02 -0.32748088511E+02  0.18899158181E+03  0.26290509098E+03  0.17200000000E+03 0. -1.
         -6    1    1    2    0  502  0.52391140159E+02  0.32748088511E+02  0.52763938887E+03  0.55839465753E+03  0.17200000000E+03 0.  1.
</event>
<event>
 4    1 -0.3240665E-004  0.1730182E+03  0.7818608E-02  0.1174736E+00
         -5   -1    0    0    0  501 -0.00000000000E+00  0.00000000000E+00  0.15847979463E+04  0.15848049156E+04  0.47000000000E+01 0.  1.
          5   -1    0    0  501    0  0.00000000000E+00 -0.00000000000E+00 -0.33761914774E+02  0.34087488748E+02  0.47000000000E+01 0. -1.
          6    1    1    2  502    0 -0.13204921050E+02  0.13302043946E+02  0.23656879616E+03  0.29308720482E+03  0.17200000000E+03 0. -1.
         -6    1    1    2    0  502  0.13204921050E+02 -0.13302043946E+02  0.13144672353E+04  0.13258051995E+04  0.17200000000E+03 0.  1.
</event>
<event>
 4    1 -0.3240665E-004  0.2314531E+03  0.7818608E-02  0.1125621E+00
         -5   -1    0    0    0  501 -0.00000000000E+00  0.00000000000E+00  0.35281152460E+03  0.35284282888E+03  0.47000000000E+01 0.  1.
          5   -1    0    0  501    0  0.00000000000E+00 -0.00000000000E+00 -0.41395832831E+03  0.41398500888E+03  0.47000000000E+01 0. -1.
          6    1    1    2  502    0 -0.19205060944E+02  0.15368046169E+03 -0.33568470767E+03  0.40774347528E+03  0.17200000000E+03 0. -1.
         -6    1    1    2    0  502  0.19205060944E+02 -0.15368046169E+03  0.27453790395E+03  0.35908436248E+03  0.17200000000E+03 0.  1.
</event>
<event>
 4    1 -0.3240665E-004  0.2094260E+03  0.7818608E-02  0.1142021E+00
         -5   -1    0    0    0  501 -0.00000000000E+00  0.00000000000E+00  0.63771691924E+03  0.63773423860E+03  0.47000000000E+01 0.  1.
          5   -1    0    0  501    0  0.00000000000E+00 -0.00000000000E+00 -0.70421896962E+02  0.70578563118E+02  0.47000000000E+01 0. -1.
          6    1    1    2  502    0 -0.89057556192E+02  0.79649234623E+02  0.22796700008E+03  0.30956130575E+03  0.17200000000E+03 0.  1.
         -6    1    1    2    0  502  0.89057556192E+02 -0.79649234623E+02  0.33932802219E+03  0.39875149597E+03  0.17200000000E+03 0.  1.
</event>
<event>
 4    1 -0.3240665E-004  0.1913364E+03  0.7818608E-02  0.1157261E+00
          5   -1    0    0  501    0  0.00000000000E+00  0.00000000000E+00  0.19915990470E+03  0.19921535494E+03  0.47000000000E+01 0. -1.
         -5   -1    0    0    0  501 -0.00000000000E+00 -0.00000000000E+00 -0.26837817788E+03  0.26841932933E+03  0.47000000000E+01 0.  1.
          6    1    1    2  502    0  0.34170397514E+02 -0.76537635156E+02  0.96695343321E+02  0.21438193740E+03  0.17200000000E+03 0. -1.
         -6    1    1    2    0  502 -0.34170397514E+02  0.76537635156E+02 -0.16591361649E+03  0.25325274687E+03  0.17200000000E+03 0.  1.
</event>
<event>
 4    1 -0.3240665E-004  0.2401156E+03  0.7818608E-02  0.1119716E+00
         -5   -1    0    0    0  501 -0.00000000000E+00  0.00000000000E+00  0.51352930794E+02  0.51567562490E+02  0.47000000000E+01 0.  1.
          5   -1    0    0  501    0  0.00000000000E+00 -0.00000000000E+00 -0.17318911696E+04  0.17318975470E+04  0.47000000000E+01 0. -1.
          6    1    1    2  502    0 -0.80608928452E+02  0.14687995560E+03 -0.13702048097E+04  0.13910847355E+04  0.17200000000E+03 0. -1.
         -6    1    1    2    0  502  0.80608928452E+02 -0.14687995560E+03 -0.31033342906E+03  0.39238037399E+03  0.17200000000E+03 0.  1.
</event>
<event>
 4    1 -0.3240665E-004  0.2109956E+03  0.7818608E-02  0.1140780E+00
         -5   -1    0    0    0  501 -0.00000000000E+00  0.00000000000E+00  0.25509673890E+03  0.25514003253E+03  0.47000000000E+01 0.  1.
          5   -1    0    0  501    0  0.00000000000E+00 -0.00000000000E+00 -0.33714579676E+03  0.33717855547E+03  0.47000000000E+01 0. -1.
          6    1    1    2  502    0 -0.11357406290E+03 -0.45122898803E+02 -0.24674332926E+03  0.32465583976E+03  0.17200000000E+03 0. -1.
         -6    1    1    2    0  502  0.11357406290E+03  0.45122898803E+02  0.16469427141E+03  0.26766274824E+03  0.17200000000E+03 0.  1.
</event>
<event>
 4    1 -0.3240665E-004  0.1874768E+03  0.7818608E-02  0.1160757E+00
          5   -1    0    0  501    0  0.00000000000E+00  0.00000000000E+00  0.13276946719E+03  0.13285263045E+03  0.47000000000E+01 0. -1.
         -5   -1    0    0    0  501 -0.00000000000E+00 -0.00000000000E+00 -0.28946946292E+03  0.28950761641E+03  0.47000000000E+01 0.  1.
          6    1    1    2  502    0  0.70739089846E+02  0.23654771982E+02 -0.14031142511E+03  0.23416845024E+03  0.17200000000E+03 0.  1.
         -6    1    1    2    0  502 -0.70739089846E+02 -0.23654771982E+02 -0.16388570619E+02  0.18819179662E+03  0.17200000000E+03 0. -1.
</event>
<event>
 4    1 -0.3240665E-004  0.1863713E+03  0.7818608E-02  0.1161775E+00
          5   -1    0    0  501    0  0.00000000000E+00  0.00000000000E+00  0.44834839351E+03  0.44837302769E+03  0.47000000000E+01 0. -1.
         -5   -1    0    0    0  501 -0.00000000000E+00 -0.00000000000E+00 -0.27247155458E+03  0.27251208791E+03  0.47000000000E+01 0.  1.
          6    1    1    2  502    0  0.19414989910E+02 -0.69089276472E+02  0.39287484854E+03  0.43483895475E+03  0.17200000000E+03 0. -1.
         -6    1    1    2    0  502 -0.19414989910E+02  0.69089276472E+02 -0.21699800961E+03  0.28604616084E+03  0.17200000000E+03 0.  1.
</event>
<event>
 4    1 -0.3240665E-004  0.2496506E+03  0.7818608E-02  0.1113526E+00
         -5   -1    0    0    0  501 -0.00000000000E+00  0.00000000000E+00  0.21446779150E+03  0.21451928489E+03  0.47000000000E+01 0.  1.
          5   -1    0    0  501    0  0.00000000000E+00 -0.00000000000E+00 -0.41126028691E+03  0.41128714251E+03  0.47000000000E+01 0. -1.
          6    1    1    2  502    0 -0.16560768130E+03 -0.72907473093E+02 -0.26793545997E+03  0.36621689536E+03  0.17200000000E+03 0. -1.
         -6    1    1    2    0  502  0.16560768130E+03  0.72907473093E+02  0.71142964555E+02  0.25958953204E+03  0.17200000000E+03 0.  1.
</event>
<event>
 4    1 -0.3240665E-004  0.1903111E+03  0.7818608E-02  0.1158181E+00
         -5   -1    0    0    0  501 -0.00000000000E+00  0.00000000000E+00  0.47427665292E+02  0.47659977288E+02  0.47000000000E+01 0.  1.
          5   -1    0    0  501    0  0.00000000000E+00 -0.00000000000E+00 -0.13400302616E+04  0.13400385040E+04  0.47000000000E+01 0. -1.
          6    1    1    2  502    0  0.26915510763E+02 -0.76875633506E+02 -0.11021421346E+04  0.11184523202E+04  0.17200000000E+03 0. -1.
         -6    1    1    2    0  502 -0.26915510763E+02  0.76875633506E+02 -0.19046046178E+03  0.26924616107E+03  0.17200000000E+03 0. -1.
</event>
<event>
 4    1 -0.3240665E-004  0.1762124E+03  0.7818608E-02  0.1171520E+00
         -5   -1    0    0    0  501 -0.00000000000E+00  0.00000000000E+00  0.55074020865E+02  0.55274205325E+02  0.47000000000E+01 0.  1.
          5   -1    0    0  501    0  0.00000000000E+00 -0.00000000000E+00 -0.74404798458E+03  0.74406282891E+03  0.47000000000E+01 0. -1.
          6    1    1    2  502    0  0.25157100639E+02 -0.28877666966E+02 -0.54184279217E+03  0.56977575482E+03  0.17200000000E+03 0. -1.
         -6    1    1    2    0  502 -0.25157100639E+02  0.28877666966E+02 -0.14713117155E+03  0.22956127941E+03  0.17200000000E+03 0.  1.
</event>
<event>
 4    1 -0.3240665E-004  0.3127388E+03  0.7818608E-02  0.1079040E+00
         -5   -1    0    0    0  501 -0.00000000000E+00  0.00000000000E+00  0.20995147304E+03  0.21000407385E+03  0.47000000000E+01 0.  1.
          5   -1    0    0  501    0  0.00000000000E+00 -0.00000000000E+00 -0.62268752101E+03  0.62270525839E+03  0.47000000000E+01 0. -1.
          6    1    1    2  502    0 -0.45975893650E+02  0.25711437678E+03 -0.41539376241E+03  0.51995919397E+03  0.17200000000E+03 0. -1.
         -6    1    1    2    0  502  0.45975893650E+02 -0.25711437678E+03  0.26577144373E+01  0.31275013827E+03  0.17200000000E+03 0. -1.
</event>
<event>
 4    1 -0.3240665E-004  0.1918156E+03  0.7818608E-02  0.1156834E+00
         -5   -1    0    0    0  501 -0.00000000000E+00  0.00000000000E+00  0.26238124147E+02  0.26655752827E+02  0.47000000000E+01 0.  1.
          5   -1    0    0  501    0  0.00000000000E+00 -0.00000000000E+00 -0.15855085776E+04  0.15855155438E+04  0.47000000000E+01 0. -1.
          6    1    1    2  502    0 -0.23400179984E+02  0.81618908784E+02 -0.10620877608E+04  0.10792699506E+04  0.17200000000E+03 0. -1.
         -6    1    1    2    0  502  0.23400179984E+02 -0.81618908784E+02 -0.49718269266E+03  0.53290134601E+03  0.17200000000E+03 0.  1.
</event>
<event>
 4    1 -0.3240665E-004  0.3791022E+03  0.7818608E-02  0.1051266E+00
          5   -1    0    0  501    0  0.00000000000E+00  0.00000000000E+00  0.37969792814E+03  0.37972701594E+03  0.47000000000E+01 0. -1.
         -5   -1    0    0    0  501 -0.00000000000E+00 -0.00000000000E+00 -0.40006736066E+03  0.40009496756E+03  0.47000000000E+01 0.  1.
          6    1    1    2  502    0 -0.20523370370E+03 -0.26835353703E+03  0.80446202025E+02  0.38754365611E+03  0.17200000000E+03 0. -1.
         -6    1    1    2    0  502  0.20523370370E+03  0.26835353703E+03 -0.10081563455E+03  0.39227832739E+03  0.17200000000E+03 0.  1.
</event>
<event>
 4    1 -0.3240665E-004  0.3577679E+03  0.7818608E-02  0.1059471E+00
         -5   -1    0    0    0  501 -0.00000000000E+00  0.00000000000E+00  0.79697982026E+02  0.79836447435E+02  0.47000000000E+01 0.  1.
          5   -1    0    0  501    0  0.00000000000E+00 -0.00000000000E+00 -0.20279746488E+04  0.20279800951E+04  0.47000000000E+01 0. -1.
          6    1    1    2  502    0 -0.30141524542E+03  0.86963818492E+02 -0.14557195241E+04  0.14990387549E+04  0.17200000000E+03 0. -1.
         -6    1    1    2    0  502  0.30141524542E+03 -0.86963818492E+02 -0.49255714263E+03  0.60877778758E+03  0.17200000000E+03 0.  1.
</event>
<event>
 4    1 -0.3240665E-004  0.1726227E+03  0.7818608E-02  0.1175140E+00
         -5   -1    0    0    0  501 -0.00000000000E+00  0.00000000000E+00  0.47455404569E+03  0.47457731960E+03  0.47000000000E+01 0.  1.
          5   -1    0    0  501    0  0.00000000000E+00 -0.00000000000E+00 -0.64654587522E+02  0.64825193310E+02  0.47000000000E+01 0. -1.
          6    1    1    2  502    0  0.11872660465E+02  0.85818490305E+01  0.15788940845E+03  0.23393946546E+03  0.17200000000E+03 0. -1.
         -6    1    1    2    0  502 -0.11872660465E+02 -0.85818490305E+01  0.25201004972E+03  0.30546304745E+03  0.17200000000E+03 0.  1.
</event>
<event>
 4    1 -0.3240665E-004  0.2282268E+03  0.7818608E-02  0.1127894E+00
          5   -1    0    0  501    0  0.00000000000E+00  0.00000000000E+00  0.42450843436E+03  0.42453445189E+03  0.47000000000E+01 0. -1.
         -5   -1    0    0    0  501 -0.00000000000E+00 -0.00000000000E+00 -0.13729011866E+03  0.13737054517E+03  0.47000000000E+01 0.  1.
          6    1    1    2  502    0  0.56278503882E+02  0.13905469054E+03  0.23539315343E+03  0.32786798203E+03  0.17200000000E+03 0. -1.
         -6    1    1    2    0  502 -0.56278503882E+02 -0.13905469054E+03  0.51825162274E+02  0.23403701503E+03  0.17200000000E+03 0.  1.
</event>
<event>
 4    1 -0.3240665E-004  0.2694492E+03  0.7818608E-02  0.1101595E+00
         -5   -1    0    0    0  501 -0.00000000000E+00  0.00000000000E+00  0.16563800596E+03  0.16570467410E+03  0.47000000000E+01 0.  1.
          5   -1    0    0  501    0  0.00000000000E+00 -0.00000000000E+00 -0.44172410574E+03  0.44174910933E+03  0.47000000000E+01 0. -1.
          6    1    1    2  502    0  0.70543737010E+02 -0.19504470518E+03 -0.11074424600E+03  0.29131965926E+03  0.17200000000E+03 0. -1.
         -6    1    1    2    0  502 -0.70543737010E+02  0.19504470518E+03 -0.16534185378E+03  0.31613412417E+03  0.17200000000E+03 0. -1.
</event>
<event>
 4    1 -0.3240665E-004  0.2079729E+03  0.7818608E-02  0.1143181E+00
         -5   -1    0    0    0  501 -0.00000000000E+00  0.00000000000E+00  0.93398557098E+03  0.93399739657E+03  0.47000000000E+01 0.  1.
          5   -1    0    0  501    0  0.00000000000E+00 -0.00000000000E+00 -0.46187068633E+02  0.46425588945E+02  0.47000000000E+01 0. -1.
          6    1    1    2  502    0  0.65044964283E+02 -0.97148798364E+02  0.45057633749E+03  0.49625776801E+03  0.17200000000E+03 0. -1.
         -6    1    1    2    0  502 -0.65044964283E+02  0.97148798364E+02  0.43722216486E+03  0.48416521751E+03  0.17200000000E+03 0.  1.
</event>
<event>
 4    1 -0.3240665E-004  0.1958209E+03  0.7818608E-02  0.1153314E+00
         -5   -1    0    0    0  501 -0.00000000000E+00  0.00000000000E+00  0.10350490006E+03  0.10361155504E+03  0.47000000000E+01 0.  1.
          5   -1    0    0  501    0  0.00000000000E+00 -0.00000000000E+00 -0.39834440040E+03  0.39837212670E+03  0.47000000000E+01 0. -1.
          6    1    1    2  502    0 -0.14908109013E+02 -0.92409906667E+02 -0.21416963599E+03  0.29019730451E+03  0.17200000000E+03 0. -1.
         -6    1    1    2    0  502  0.14908109013E+02  0.92409906667E+02 -0.80669864346E+02  0.21178637723E+03  0.17200000000E+03 0. -1.
</event>
<event>
 4    1 -0.3240665E-004  0.1885872E+03  0.7818608E-02  0.1159742E+00
          5   -1    0    0  501    0  0.00000000000E+00  0.00000000000E+00  0.44819342578E+02  0.45065102564E+02  0.47000000000E+01 0. -1.
         -5   -1    0    0    0  501 -0.00000000000E+00 -0.00000000000E+00 -0.80562834990E+03  0.80564205958E+03  0.47000000000E+01 0.  1.
          6    1    1    2  502    0 -0.36594816639E+02  0.68131904454E+02 -0.43751630236E+03  0.47643011223E+03  0.17200000000E+03 0.  1.
         -6    1    1    2    0  502  0.36594816639E+02 -0.68131904454E+02 -0.32329270497E+03  0.37427704992E+03  0.17200000000E+03 0.  1.
</event>
<event>
 4    1 -0.3240665E-004  0.2917269E+03  0.7818608E-02  0.1089451E+00
         -5   -1    0    0    0  501 -0.00000000000E+00  0.00000000000E+00  0.15635644693E+03  0.15642707086E+03  0.47000000000E+01 0.  1.
          5   -1    0    0  501    0  0.00000000000E+00 -0.00000000000E+00 -0.55780831645E+03  0.55782811681E+03  0.47000000000E+01 0. -1.
          6    1    1    2  502    0  0.14096737430E+03 -0.18880883558E+03 -0.25671714788E+03  0.38859782684E+03  0.17200000000E+03 0. -1.
         -6    1    1    2    0  502 -0.14096737430E+03  0.18880883558E+03 -0.14473472164E+03  0.32565736082E+03  0.17200000000E+03 0. -1.
</event>
<event>
 4    1 -0.3240665E-004  0.1888466E+03  0.7818608E-02  0.1159506E+00
         -5   -1    0    0    0  501 -0.00000000000E+00  0.00000000000E+00  0.25081187893E+03  0.25085591205E+03  0.47000000000E+01 0.  1.
          5   -1    0    0  501    0  0.00000000000E+00 -0.00000000000E+00 -0.14528879766E+03  0.14536479878E+03  0.47000000000E+01 0. -1.
          6    1    1    2  502    0 -0.69649676258E+02 -0.35042225295E+02  0.23401005089E+02  0.19029094039E+03  0.17200000000E+03 0. -1.
         -6    1    1    2    0  502  0.69649676258E+02  0.35042225295E+02  0.82122076181E+02  0.20592977044E+03  0.17200000000E+03 0.  1.
</event>
<event>
 4    1 -0.3240665E-004  0.4057434E+03  0.7818608E-02  0.1041809E+00
         -5   -1    0    0    0  501 -0.00000000000E+00  0.00000000000E+00  0.19497478204E+03  0.19503142216E+03  0.47000000000E+01 0.  1.
          5   -1    0    0  501    0  0.00000000000E+00 -0.00000000000E+00 -0.91980803711E+03  0.91982004497E+03  0.47000000000E+01 0. -1.
          6    1    1    2  502    0  0.26844095177E+03  0.25096445621E+03 -0.52226120166E+03  0.66135048622E+03  0.17200000000E+03 0. -1.
         -6    1    1    2    0  502 -0.26844095177E+03 -0.25096445621E+03 -0.20257205341E+03  0.45350098091E+03  0.17200000000E+03 0.  1.
</event>
<event>
 4    1 -0.3240665E-004  0.2155720E+03  0.7818608E-02  0.1137228E+00
         -5   -1    0    0    0  501 -0.00000000000E+00  0.00000000000E+00  0.38508231537E+03  0.38511099648E+03  0.47000000000E+01 0.  1.
          5   -1    0    0  501    0  0.00000000000E+00 -0.00000000000E+00 -0.27575848039E+03  0.27579853065E+03  0.47000000000E+01 0. -1.
          6    1    1    2  502    0 -0.12947354594E+03 -0.11129939988E+02  0.30249606545E+03  0.37145005623E+03  0.17200000000E+03 0.  1.
         -6    1    1    2    0  502  0.12947354594E+03  0.11129939988E+02 -0.19317223047E+03  0.28945947089E+03  0.17200000000E+03 0. -1.
</event>
<event>
 4    1 -0.3240665E-004  0.2810489E+03  0.7818608E-02  0.1095117E+00
          5   -1    0    0  501    0  0.00000000000E+00  0.00000000000E+00  0.25282618349E+03  0.25286986586E+03  0.47000000000E+01 0. -1.
         -5   -1    0    0    0  501 -0.00000000000E+00 -0.00000000000E+00 -0.38869779000E+03  0.38872620436E+03  0.47000000000E+01 0.  1.
          6    1    1    2  502    0  0.22226457900E+03 -0.17202716422E+01  0.74240667405E+02  0.29068914515E+03  0.17200000000E+03 0. -1.
         -6    1    1    2    0  502 -0.22226457900E+03  0.17202716422E+01 -0.21011227391E+03  0.35090692507E+03  0.17200000000E+03 0. -1.
</event>
<event>
 4    1 -0.3240665E-004  0.2743950E+03  0.7818608E-02  0.1098790E+00
         -5   -1    0    0    0  501 -0.00000000000E+00  0.00000000000E+00  0.16077541627E+03  0.16084409992E+03  0.47000000000E+01 0.  1.
          5   -1    0    0  501    0  0.00000000000E+00 -0.00000000000E+00 -0.78374517144E+03  0.78375926390E+03  0.47000000000E+01 0. -1.
          6    1    1    2  502    0  0.47197654136E+02  0.20852100893E+03 -0.61118541983E+03  0.66995540682E+03  0.17200000000E+03 0. -1.
         -6    1    1    2    0  502 -0.47197654136E+02 -0.20852100893E+03 -0.11784335333E+02  0.27464795699E+03  0.17200000000E+03 0.  1.
</event>
<event>
 4    1 -0.3240665E-004  0.1773887E+03  0.7818608E-02  0.1170354E+00
          5   -1    0    0  501    0  0.00000000000E+00  0.00000000000E+00  0.14055273263E+03  0.14063129328E+03  0.47000000000E+01 0. -1.
         -5   -1    0    0    0  501 -0.00000000000E+00 -0.00000000000E+00 -0.27059533823E+03  0.27063615255E+03  0.47000000000E+01 0.  1.
          6    1    1    2  502    0 -0.43037872399E+02 -0.55229172561E+01  0.20552360786E+02  0.17857536395E+03  0.17200000000E+03 0. -1.
         -6    1    1    2    0  502  0.43037872399E+02  0.55229172561E+01 -0.15059496638E+03  0.23269208189E+03  0.17200000000E+03 0.  1.
</event>
<event>
 4    1 -0.3240665E-004  0.2397525E+03  0.7818608E-02  0.1119958E+00
          5   -1    0    0  501    0  0.00000000000E+00  0.00000000000E+00  0.11065094122E+04  0.11065193940E+04  0.47000000000E+01 0. -1.
         -5   -1    0    0    0  501 -0.00000000000E+00 -0.00000000000E+00 -0.62893317216E+02  0.63068687559E+02  0.47000000000E+01 0.  1.
          6    1    1    2  502    0 -0.95811345975E+02  0.13681171393E+03  0.76666142804E+03  0.80327517348E+03  0.17200000000E+03 0. -1.
         -6    1    1    2    0  502  0.95811345975E+02 -0.13681171393E+03  0.27695466699E+03  0.36631290812E+03  0.17200000000E+03 0. -1.
</event>
<event>
 4    1 -0.3240665E-004  0.1798782E+03  0.7818608E-02  0.1167921E+00
         -5   -1    0    0    0  501 -0.00000000000E+00  0.00000000000E+00  0.88347624762E+02  0.88472553942E+02  0.47000000000E+01 0.  1.
          5   -1    0    0  501    0  0.00000000000E+00 -0.00000000000E+00 -0.72146233072E+03  0.72147763975E+03  0.47000000000E+01 0. -1.
          6    1    1    2  502    0  0.41453663163E+02 -0.32461684871E+02 -0.32260103634E+02  0.18274813668E+03  0.17200000000E+03 0.  1.
         -6    1    1    2    0  502 -0.41453663163E+02  0.32461684871E+02 -0.60085460233E+03  0.62720205701E+03  0.17200000000E+03 0. -1.
</event>
<event>
 4    1 -0.3240665E-004  0.1901761E+03  0.7818608E-02  0.1158303E+00
         -5   -1    0    0    0  501 -0.00000000000E+00  0.00000000000E+00  0.14183317622E+03  0.14191102803E+03  0.47000000000E+01 0.  1.
          5   -1    0    0  501    0  0.00000000000E+00 -0.00000000000E+00 -0.25586467259E+03  0.25590783630E+03  0.47000000000E+01 0. -1.
          6    1    1    2  502    0 -0.80729341541E+02 -0.81069381206E+01 -0.44350979893E+02  0.19527918079E+03  0.17200000000E+03 0.  1.
         -6    1    1    2    0  502  0.80729341541E+02  0.81069381206E+01 -0.69680516477E+02  0.20253968354E+03  0.17200000000E+03 0.  1.
</event>
<event>
 4    1 -0.3240665E-004  0.3566925E+03  0.7818608E-02  0.1059901E+00
          5   -1    0    0  501    0  0.00000000000E+00  0.00000000000E+00  0.16012785222E+03  0.16019681351E+03  0.47000000000E+01 0. -1.
         -5   -1    0    0    0  501 -0.00000000000E+00 -0.00000000000E+00 -0.80083709470E+03  0.80085088640E+03  0.47000000000E+01 0.  1.
          6    1    1    2  502    0 -0.20911217018E+03 -0.23220174574E+03 -0.27695166582E+03  0.45158805968E+03  0.17200000000E+03 0. -1.
         -6    1    1    2    0  502  0.20911217018E+03  0.23220174574E+03 -0.36375757666E+03  0.50945964023E+03  0.17200000000E+03 0.  1.
</event>
<event>
 4    1 -0.3240665E-004  0.4265203E+03  0.7818608E-02  0.1034965E+00
         -5   -1    0    0    0  501 -0.00000000000E+00  0.00000000000E+00  0.25370486555E+04  0.25370530090E+04  0.47000000000E+01 0.  1.
          5   -1    0    0  501    0  0.00000000000E+00 -0.00000000000E+00 -0.11021074497E+03  0.11031091653E+03  0.47000000000E+01 0. -1.
          6    1    1    2  502    0 -0.24097288468E+02 -0.38955725018E+03  0.43065047363E+03  0.60611827304E+03  0.17200000000E+03 0. -1.
         -6    1    1    2    0  502  0.24097288468E+02  0.38955725018E+03  0.19961874369E+04  0.20412456525E+04  0.17200000000E+03 0.  1.
</event>
<event>
 4    1 -0.3240665E-004  0.1888418E+03  0.7818608E-02  0.1159510E+00
          5   -1    0    0  501    0  0.00000000000E+00  0.00000000000E+00  0.28035544587E+02  0.28426778929E+02  0.47000000000E+01 0. -1.
         -5   -1    0    0    0  501 -0.00000000000E+00 -0.00000000000E+00 -0.12736932830E+04  0.12737019546E+04  0.47000000000E+01 0.  1.
          6    1    1    2  502    0  0.38866114423E+02 -0.67577001293E+02 -0.56260310984E+03  0.59345049090E+03  0.17200000000E+03 0. -1.
         -6    1    1    2    0  502 -0.38866114423E+02  0.67577001293E+02 -0.68305462853E+03  0.70867824258E+03  0.17200000000E+03 0.  1.
</event>
<event>
 4    1 -0.3240665E-004  0.1736510E+03  0.7818608E-02  0.1174093E+00
         -5   -1    0    0    0  501 -0.00000000000E+00  0.00000000000E+00  0.20940163735E+04  0.20940216481E+04  0.47000000000E+01 0.  1.
          5   -1    0    0  501    0  0.00000000000E+00 -0.00000000000E+00 -0.21524080452E+02  0.22031251424E+02  0.47000000000E+01 0. -1.
          6    1    1    2  502    0  0.14079919985E+02 -0.19298780771E+02  0.42030170808E+03  0.45476171002E+03  0.17200000000E+03 0. -1.
         -6    1    1    2    0  502 -0.14079919985E+02  0.19298780771E+02  0.16521905850E+04  0.16612911895E+04  0.17200000000E+03 0.  1.
</event>
<event>
 4    1 -0.3240665E-004  0.2032289E+03  0.7818608E-02  0.1147043E+00
          5   -1    0    0  501    0  0.00000000000E+00  0.00000000000E+00  0.16357547215E+03  0.16364298057E+03  0.47000000000E+01 0. -1.
         -5   -1    0    0    0  501 -0.00000000000E+00 -0.00000000000E+00 -0.28236645949E+03  0.28240557262E+03  0.47000000000E+01 0.  1.
          6    1    1    2  502    0  0.35884622871E+02 -0.10212873777E+03  0.13301472275E+02  0.20366372873E+03  0.17200000000E+03 0. -1.
         -6    1    1    2    0  502 -0.35884622871E+02  0.10212873777E+03 -0.13209245962E+03  0.24238482445E+03  0.17200000000E+03 0.  1.
</event>
<event>
 4    1 -0.3240665E-004  0.2042039E+03  0.7818608E-02  0.1146240E+00
         -5   -1    0    0    0  501 -0.00000000000E+00  0.00000000000E+00  0.42445260010E+03  0.42447862105E+03  0.47000000000E+01 0.  1.
          5   -1    0    0  501    0  0.00000000000E+00 -0.00000000000E+00 -0.99679451022E+02  0.99790194689E+02  0.47000000000E+01 0. -1.
          6    1    1    2  502    0 -0.10776589883E+03  0.22399553116E+02  0.13001392736E+03  0.24208025578E+03  0.17200000000E+03 0. -1.
         -6    1    1    2    0  502  0.10776589883E+03 -0.22399553116E+02  0.19475922171E+03  0.28218855996E+03  0.17200000000E+03 0. -1.
</event>
<event>
 4    1 -0.3240665E-004  0.2237270E+03  0.7818608E-02  0.1131135E+00
         -5   -1    0    0    0  501 -0.00000000000E+00  0.00000000000E+00  0.13325687683E+03  0.13333973610E+03  0.47000000000E+01 0.  1.
          5   -1    0    0  501    0  0.00000000000E+00 -0.00000000000E+00 -0.60259356161E+03  0.60261189043E+03  0.47000000000E+01 0. -1.
          6    1    1    2  502    0  0.69959429331E+02  0.12480158866E+03 -0.46059241509E+03  0.51205383615E+03  0.17200000000E+03 0. -1.
         -6    1    1    2    0  502 -0.69959429331E+02 -0.12480158866E+03 -0.87442696908E+01  0.22389779038E+03  0.17200000000E+03 0.  1.
</event>
<event>
 4    1 -0.3240665E-004  0.2335077E+03  0.7818608E-02  0.1124195E+00
         -5   -1    0    0    0  501 -0.00000000000E+00  0.00000000000E+00  0.29376402416E+03  0.29380161996E+03  0.47000000000E+01 0.  1.
          5   -1    0    0  501    0  0.00000000000E+00 -0.00000000000E+00 -0.18878799570E+03  0.18884649142E+03  0.47000000000E+01 0. -1.
          6    1    1    2  502    0 -0.11695943564E+03  0.10612412799E+03  0.20802657721E+02  0.23443248643E+03  0.17200000000E+03 0.  1.
         -6    1    1    2    0  502  0.11695943564E+03 -0.10612412799E+03  0.84173370741E+02  0.24821562495E+03  0.17200000000E+03 0.  1.
</event>
<event>
 4    1 -0.3240665E-004  0.2478974E+03  0.7818608E-02  0.1114641E+00
         -5   -1    0    0    0  501 -0.00000000000E+00  0.00000000000E+00  0.28703886502E+03  0.28707734155E+03  0.47000000000E+01 0.  1.
          5   -1    0    0  501    0  0.00000000000E+00 -0.00000000000E+00 -0.22812945949E+03  0.22817786985E+03  0.47000000000E+01 0. -1.
          6    1    1    2  502    0 -0.99637147069E+02  0.14812684430E+03 -0.34615088938E+02  0.25030247194E+03  0.17200000000E+03 0. -1.
         -6    1    1    2    0  502  0.99637147069E+02 -0.14812684430E+03  0.93524494462E+02  0.26495273945E+03  0.17200000000E+03 0. -1.
</event>
<event>
 4    1 -0.3240665E-004  0.1822677E+03  0.7818608E-02  0.1165626E+00
          5   -1    0    0  501    0  0.00000000000E+00  0.00000000000E+00  0.17491746267E+03  0.17498059535E+03  0.47000000000E+01 0. -1.
         -5   -1    0    0    0  501 -0.00000000000E+00 -0.00000000000E+00 -0.25282885596E+03  0.25287253786E+03  0.47000000000E+01 0.  1.
          6    1    1    2  502    0  0.60127082674E+02 -0.47179439480E+01 -0.14574355990E+03  0.23337247121E+03  0.17200000000E+03 0.  1.
         -6    1    1    2    0  502 -0.60127082674E+02  0.47179439480E+01  0.67832166611E+02  0.19448066200E+03  0.17200000000E+03 0. -1.
</event>
<event>
 4    1 -0.3240665E-004  0.1823424E+03  0.7818608E-02  0.1165555E+00
          5   -1    0    0  501    0  0.00000000000E+00  0.00000000000E+00  0.59919026744E+02  0.60103076177E+02  0.47000000000E+01 0. -1.
         -5   -1    0    0    0  501 -0.00000000000E+00 -0.00000000000E+00 -0.62828110698E+03  0.62829868645E+03  0.47000000000E+01 0.  1.
          6    1    1    2  502    0 -0.50428754118E+02  0.33491487416E+02 -0.40263331173E+03  0.44199810258E+03  0.17200000000E+03 0.  1.
         -6    1    1    2    0  502  0.50428754118E+02 -0.33491487416E+02 -0.16572876851E+03  0.24640366005E+03  0.17200000000E+03 0. -1.
</event>
<event>
 4    1 -0.3240665E-004  0.2069133E+03  0.7818608E-02  0.1144034E+00
          5   -1    0    0  501    0  0.00000000000E+00  0.00000000000E+00  0.38142102757E+02  0.38430586812E+02  0.47000000000E+01 0. -1.
         -5   -1    0    0    0  501 -0.00000000000E+00 -0.00000000000E+00 -0.11257932063E+04  0.11258030171E+04  0.47000000000E+01 0.  1.
          6    1    1    2  502    0  0.93412250571E+02 -0.67106380931E+02 -0.49521672307E+03  0.53670542919E+03  0.17200000000E+03 0. -1.
         -6    1    1    2    0  502 -0.93412250571E+02  0.67106380931E+02 -0.59243438044E+03  0.62752817470E+03  0.17200000000E+03 0.  1.
</event>
<event>
 4    1 -0.3240665E-004  0.3220775E+03  0.7818608E-02  0.1074697E+00
         -5   -1    0    0    0  501 -0.00000000000E+00  0.00000000000E+00  0.13265786554E+03  0.13274109872E+03  0.47000000000E+01 0.  1.
          5   -1    0    0  501    0  0.00000000000E+00 -0.00000000000E+00 -0.83513726802E+03  0.83515049329E+03  0.47000000000E+01 0. -1.
          6    1    1    2  502    0 -0.14832865462E+03 -0.22836045571E+03 -0.47372916172E+03  0.57284658171E+03  0.17200000000E+03 0. -1.
         -6    1    1    2    0  502  0.14832865462E+03  0.22836045571E+03 -0.22875024076E+03  0.39504501030E+03  0.17200000000E+03 0.  1.
</event>
<event>
 4    1 -0.3240665E-004  0.1962909E+03  0.7818608E-02  0.1152907E+00
          5   -1    0    0  501    0  0.00000000000E+00  0.00000000000E+00  0.18448174704E+03  0.18454160775E+03  0.47000000000E+01 0. -1.
         -5   -1    0    0    0  501 -0.00000000000E+00 -0.00000000000E+00 -0.20965879150E+03  0.20971146572E+03  0.47000000000E+01 0.  1.
          6    1    1    2  502    0  0.78800759329E+02  0.52311941337E+02  0.48813904527E+00  0.19629145971E+03  0.17200000000E+03 0.  1.
         -6    1    1    2    0  502 -0.78800759329E+02 -0.52311941337E+02 -0.25665183508E+02  0.19796161376E+03  0.17200000000E+03 0.  1.
</event>
<event>
 4    1 -0.3240665E-004  0.1822969E+03  0.7818608E-02  0.1165598E+00
         -5   -1    0    0    0  501 -0.00000000000E+00  0.00000000000E+00  0.25587343616E+02  0.26015421452E+02  0.47000000000E+01 0.  1.
          5   -1    0    0  501    0  0.00000000000E+00 -0.00000000000E+00 -0.13894255295E+04  0.13894334788E+04  0.47000000000E+01 0. -1.
          6    1    1    2  502    0  0.20731266361E+02 -0.56730778214E+02 -0.87351091193E+03  0.89233036476E+03  0.17200000000E+03 0. -1.
         -6    1    1    2    0  502 -0.20731266361E+02  0.56730778214E+02 -0.49032727392E+03  0.52311853547E+03  0.17200000000E+03 0.  1.
</event>
<event>
 4    1 -0.3240665E-004  0.1009616E+04  0.7818608E-02  0.9298060E-01
          5   -1    0    0  501    0  0.00000000000E+00  0.00000000000E+00  0.49655314277E+03  0.49657538561E+03  0.47000000000E+01 0. -1.
         -5   -1    0    0    0  501 -0.00000000000E+00 -0.00000000000E+00 -0.23264054291E+04  0.23264101768E+04  0.47000000000E+01 0.  1.
          6    1    1    2  502    0 -0.75809990948E+03 -0.64422494115E+03 -0.43080894765E+03  0.10976892078E+04  0.17200000000E+03 0. -1.
         -6    1    1    2    0  502  0.75809990948E+03  0.64422494115E+03 -0.13990433387E+04  0.17252963546E+04  0.17200000000E+03 0.  1.
</event>
<event>
 4    1 -0.3240665E-004  0.1950479E+03  0.7818608E-02  0.1153986E+00
         -5   -1    0    0    0  501 -0.00000000000E+00  0.00000000000E+00  0.42345785898E+03  0.42348394105E+03  0.47000000000E+01 0.  1.
          5   -1    0    0  501    0  0.00000000000E+00 -0.00000000000E+00 -0.89862994793E+02  0.89985820179E+02  0.47000000000E+01 0. -1.
          6    1    1    2  502    0  0.69517614833E+02  0.60224329607E+02  0.15770784785E+03  0.25082949173E+03  0.17200000000E+03 0. -1.
         -6    1    1    2    0  502 -0.69517614833E+02 -0.60224329607E+02  0.17588701634E+03  0.26264026950E+03  0.17200000000E+03 0.  1.
</event>
<event>
 4    1 -0.3240665E-004  0.1943039E+03  0.7818608E-02  0.1154636E+00
          5   -1    0    0  501    0  0.00000000000E+00  0.00000000000E+00  0.50151006344E+03  0.50153208644E+03  0.47000000000E+01 0. -1.
         -5   -1    0    0    0  501 -0.00000000000E+00 -0.00000000000E+00 -0.75185435206E+02  0.75332195422E+02  0.47000000000E+01 0.  1.
          6    1    1    2  502    0 -0.90344649459E+02 -0.28002379406E+01  0.21173021818E+03  0.28737376761E+03  0.17200000000E+03 0. -1.
         -6    1    1    2    0  502  0.90344649459E+02  0.28002379406E+01  0.21459441006E+03  0.28949051426E+03  0.17200000000E+03 0.  1.
</event>
<event>
 4    1 -0.3240665E-004  0.2530692E+03  0.7818608E-02  0.1111380E+00
         -5   -1    0    0    0  501 -0.00000000000E+00  0.00000000000E+00  0.63282558000E+03  0.63284303323E+03  0.47000000000E+01 0.  1.
          5   -1    0    0  501    0  0.00000000000E+00 -0.00000000000E+00 -0.22514413932E+03  0.22519319144E+03  0.47000000000E+01 0. -1.
          6    1    1    2  502    0 -0.17166715691E+03  0.70642694291E+02 -0.11449700684E+03  0.27776531028E+03  0.17200000000E+03 0. -1.
         -6    1    1    2    0  502  0.17166715691E+03 -0.70642694291E+02  0.52217844753E+03  0.58027091439E+03  0.17200000000E+03 0.  1.
</event>
<event>
 4    1 -0.3240665E-004  0.2136525E+03  0.7818608E-02  0.1138706E+00
         -5   -1    0    0    0  501 -0.00000000000E+00  0.00000000000E+00  0.85661146371E+02  0.85789987747E+02  0.47000000000E+01 0.  1.
          5   -1    0    0  501    0  0.00000000000E+00 -0.00000000000E+00 -0.60313986398E+03  0.60315817620E+03  0.47000000000E+01 0. -1.
          6    1    1    2  502    0 -0.11119044166E+03  0.60828170088E+02 -0.14073455332E+03  0.25583900228E+03  0.17200000000E+03 0.  1.
         -6    1    1    2    0  502  0.11119044166E+03 -0.60828170088E+02 -0.37674416429E+03  0.43310916166E+03  0.17200000000E+03 0. -1.
</event>
<event>
 4    1 -0.3240665E-004  0.1992207E+03  0.7818608E-02  0.1150398E+00
          5   -1    0    0  501    0  0.00000000000E+00  0.00000000000E+00  0.84788507635E+03  0.84789810278E+03  0.47000000000E+01 0. -1.
         -5   -1    0    0    0  501 -0.00000000000E+00 -0.00000000000E+00 -0.25630524482E+03  0.25634833434E+03  0.47000000000E+01 0.  1.
          6    1    1    2  502    0 -0.23550354623E+02  0.97725488299E+02  0.79496397849E+03  0.81954659255E+03  0.17200000000E+03 0. -1.
         -6    1    1    2    0  502  0.23550354623E+02 -0.97725488299E+02 -0.20338414696E+03  0.28469984457E+03  0.17200000000E+03 0.  1.
</event>
<event>
 4    1 -0.3240665E-004  0.1855560E+03  0.7818608E-02  0.1162532E+00
         -5   -1    0    0    0  501 -0.00000000000E+00  0.00000000000E+00  0.26292766982E+03  0.26296967422E+03  0.47000000000E+01 0.  1.
          5   -1    0    0  501    0  0.00000000000E+00 -0.00000000000E+00 -0.14361404588E+03  0.14369093282E+03  0.47000000000E+01 0. -1.
          6    1    1    2  502    0 -0.92634791128E+01  0.69001526102E+02 -0.91628876715E+00  0.18555824486E+03  0.17200000000E+03 0.  1.
         -6    1    1    2    0  502  0.92634791128E+01 -0.69001526102E+02  0.12022991271E+03  0.22110236218E+03  0.17200000000E+03 0.  1.
</event>
<event>
 4    1 -0.3240665E-004  0.1887966E+03  0.7818608E-02  0.1159551E+00
          5   -1    0    0  501    0  0.00000000000E+00  0.00000000000E+00  0.34408407404E+03  0.34411617226E+03  0.47000000000E+01 0. -1.
         -5   -1    0    0    0  501 -0.00000000000E+00 -0.00000000000E+00 -0.11579698920E+03  0.11589233239E+03  0.47000000000E+01 0.  1.
          6    1    1    2  502    0 -0.72360447328E+02 -0.28707275569E+02  0.18904969632E+03  0.26717771181E+03  0.17200000000E+03 0. -1.
         -6    1    1    2    0  502  0.72360447328E+02  0.28707275569E+02  0.39237388519E+02  0.19283079284E+03  0.17200000000E+03 0.  1.
</event>
<event>
 4    1 -0.3240665E-004  0.1875716E+03  0.7818608E-02  0.1160670E+00
          5   -1    0    0  501    0  0.00000000000E+00  0.00000000000E+00  0.50635317875E+03  0.50637499112E+03  0.47000000000E+01 0. -1.
         -5   -1    0    0    0  501 -0.00000000000E+00 -0.00000000000E+00 -0.77705555987E+02  0.77847565352E+02  0.47000000000E+01 0.  1.
          6    1    1    2  502    0  0.70209507572E+02 -0.25878827047E+02  0.11881679519E+03  0.22203720288E+03  0.17200000000E+03 0.  1.
         -6    1    1    2    0  502 -0.70209507572E+02  0.25878827047E+02  0.30983082757E+03  0.36218535359E+03  0.17200000000E+03 0.  1.
</event>
<event>
 4    1 -0.3240665E-004  0.2626133E+03  0.7818608E-02  0.1105583E+00
          5   -1    0    0  501    0  0.00000000000E+00  0.00000000000E+00  0.12124161197E+04  0.12124252296E+04  0.47000000000E+01 0. -1.
         -5   -1    0    0    0  501 -0.00000000000E+00 -0.00000000000E+00 -0.77638433942E+02  0.77780565857E+02  0.47000000000E+01 0.  1.
          6    1    1    2  502    0  0.18566087834E+03  0.70084298905E+02  0.90140897090E+03  0.93888439305E+03  0.17200000000E+03 0. -1.
         -6    1    1    2    0  502 -0.18566087834E+03 -0.70084298905E+02  0.23336871487E+03  0.35132140239E+03  0.17200000000E+03 0.  1.
</event>
<event>
 4    1 -0.3240665E-004  0.1720581E+03  0.7818608E-02  0.1175718E+00
          5   -1    0    0  501    0  0.00000000000E+00  0.00000000000E+00  0.20500979241E+03  0.20506366081E+03  0.47000000000E+01 0. -1.
         -5   -1    0    0    0  501 -0.00000000000E+00 -0.00000000000E+00 -0.14892702804E+03  0.14900117342E+03  0.47000000000E+01 0.  1.
          6    1    1    2  502    0  0.34863621757E+01 -0.28007936134E+01  0.59260142591E+02  0.18197737130E+03  0.17200000000E+03 0. -1.
         -6    1    1    2    0  502 -0.34863621757E+01  0.28007936134E+01 -0.31773782219E+01  0.17208746293E+03  0.17200000000E+03 0.  1.
</event>
<event>
 4    1 -0.3240665E-004  0.1968410E+03  0.7818608E-02  0.1152432E+00
          5   -1    0    0  501    0  0.00000000000E+00  0.00000000000E+00  0.38273243774E+03  0.38276129493E+03  0.47000000000E+01 0. -1.
         -5   -1    0    0    0  501 -0.00000000000E+00 -0.00000000000E+00 -0.13180352250E+03  0.13188729485E+03  0.47000000000E+01 0.  1.
          6    1    1    2  502    0  0.62671599443E+02 -0.72350942247E+02  0.14254464018E+01  0.19684618391E+03  0.17200000000E+03 0.  1.
         -6    1    1    2    0  502 -0.62671599443E+02  0.72350942247E+02  0.24950346883E+03  0.31780240588E+03  0.17200000000E+03 0. -1.
</event>
<event>
 4    1 -0.3240665E-004  0.3033842E+03  0.7818608E-02  0.1083561E+00
         -5   -1    0    0    0  501 -0.00000000000E+00  0.00000000000E+00  0.24743104341E+03  0.24747567808E+03  0.47000000000E+01 0.  1.
          5   -1    0    0  501    0  0.00000000000E+00 -0.00000000000E+00 -0.54873872238E+03  0.54875884998E+03  0.47000000000E+01 0. -1.
          6    1    1    2  502    0 -0.13948797403E+03  0.20736708142E+03 -0.37664552590E+03  0.48363607551E+03  0.17200000000E+03 0. -1.
         -6    1    1    2    0  502  0.13948797403E+03 -0.20736708142E+03  0.75337846932E+02  0.31259845255E+03  0.17200000000E+03 0.  1.
</event>
<event>
 4    1 -0.3240665E-004  0.1818795E+03  0.7818608E-02  0.1165996E+00
         -5   -1    0    0    0  501 -0.00000000000E+00  0.00000000000E+00  0.75141320857E+03  0.75142790740E+03  0.47000000000E+01 0.  1.
          5   -1    0    0  501    0  0.00000000000E+00 -0.00000000000E+00 -0.44300644812E+02  0.44549266333E+02  0.47000000000E+01 0. -1.
          6    1    1    2  502    0 -0.40956638962E+02 -0.42646310890E+02  0.31504222353E+03  0.36377432113E+03  0.17200000000E+03 0. -1.
         -6    1    1    2    0  502  0.40956638962E+02  0.42646310890E+02  0.39207034023E+03  0.43220285260E+03  0.17200000000E+03 0. -1.
</event>
<event>
 4    1 -0.3240665E-004  0.2053748E+03  0.7818608E-02  0.1145282E+00
         -5   -1    0    0    0  501 -0.00000000000E+00  0.00000000000E+00  0.10396735451E+04  0.10396841686E+04  0.47000000000E+01 0.  1.
          5   -1    0    0  501    0  0.00000000000E+00 -0.00000000000E+00 -0.11230869820E+03  0.11240700019E+03  0.47000000000E+01 0. -1.
          6    1    1    2  502    0 -0.62039242769E+02 -0.93519674847E+02  0.92414575295E+03  0.94669116925E+03  0.17200000000E+03 0.  1.
         -6    1    1    2    0  502  0.62039242769E+02  0.93519674847E+02  0.32190939311E+01  0.20539999950E+03  0.17200000000E+03 0. -1.
</event>
<event>
 4    1 -0.3240665E-004  0.3152922E+03  0.7818608E-02  0.1077837E+00
         -5   -1    0    0    0  501 -0.00000000000E+00  0.00000000000E+00  0.13455056474E+04  0.13455138562E+04  0.47000000000E+01 0.  1.
          5   -1    0    0  501    0  0.00000000000E+00 -0.00000000000E+00 -0.73805103645E+02  0.73954603130E+02  0.47000000000E+01 0. -1.
          6    1    1    2  502    0  0.25157279972E+03 -0.80847534917E+02  0.64218141223E+03  0.71540629273E+03  0.17200000000E+03 0. -1.
         -6    1    1    2    0  502 -0.25157279972E+03  0.80847534917E+02  0.62951913155E+03  0.70406216661E+03  0.17200000000E+03 0. -1.
</event>
<event>
 4    1 -0.3240665E-004  0.2181768E+03  0.7818608E-02  0.1135250E+00
          5   -1    0    0  501    0  0.00000000000E+00  0.00000000000E+00  0.15907386886E+03  0.15914328687E+03  0.47000000000E+01 0. -1.
         -5   -1    0    0    0  501 -0.00000000000E+00 -0.00000000000E+00 -0.29932298386E+03  0.29935988153E+03  0.47000000000E+01 0.  1.
          6    1    1    2  502    0 -0.13020526690E+03  0.32614579709E+02 -0.63674299908E+02  0.22727854893E+03  0.17200000000E+03 0. -1.
         -6    1    1    2    0  502  0.13020526690E+03 -0.32614579709E+02 -0.76574815092E+02  0.23122461946E+03  0.17200000000E+03 0.  1.
</event>
<event>
 4    1 -0.3240665E-004  0.3625183E+03  0.7818608E-02  0.1057591E+00
         -5   -1    0    0    0  501 -0.00000000000E+00  0.00000000000E+00  0.56543828011E+03  0.56545781330E+03  0.47000000000E+01 0.  1.
          5   -1    0    0  501    0  0.00000000000E+00 -0.00000000000E+00 -0.27252287112E+03  0.27256339682E+03  0.47000000000E+01 0. -1.
          6    1    1    2  502    0 -0.74168912928E+02  0.31037802297E+03 -0.14352285848E+02  0.36280233309E+03  0.17200000000E+03 0. -1.
         -6    1    1    2    0  502  0.74168912928E+02 -0.31037802297E+03  0.30726769484E+03  0.47521887702E+03  0.17200000000E+03 0.  1.
</event>
<event>
 4    1 -0.3240665E-004  0.1838116E+03  0.7818608E-02  0.1164164E+00
          5   -1    0    0  501    0  0.00000000000E+00  0.00000000000E+00  0.15484608961E+04  0.15484680289E+04  0.47000000000E+01 0. -1.
         -5   -1    0    0    0  501 -0.00000000000E+00 -0.00000000000E+00 -0.21851072564E+02  0.22350824866E+02  0.47000000000E+01 0.  1.
          6    1    1    2  502    0 -0.28042590697E+02  0.58449363668E+02  0.85303909386E+03  0.87261813565E+03  0.17200000000E+03 0. -1.
         -6    1    1    2    0  502  0.28042590697E+02 -0.58449363668E+02  0.67357072964E+03  0.69820071815E+03  0.17200000000E+03 0.  1.
</event>
<event>
 4    1 -0.3240665E-004  0.2041835E+03  0.7818608E-02  0.1146257E+00
          5   -1    0    0  501    0  0.00000000000E+00  0.00000000000E+00  0.21875410646E+03  0.21880459111E+03  0.47000000000E+01 0. -1.
         -5   -1    0    0    0  501 -0.00000000000E+00 -0.00000000000E+00 -0.22809364982E+03  0.22814206777E+03  0.47000000000E+01 0.  1.
          6    1    1    2  502    0  0.26225217424E+02  0.10686033725E+03 -0.95395857863E+02  0.22536917137E+03  0.17200000000E+03 0.  1.
         -6    1    1    2    0  502 -0.26225217424E+02 -0.10686033725E+03  0.86056314505E+02  0.22157748751E+03  0.17200000000E+03 0. -1.
</event>
<event>
 4    1 -0.3240665E-004  0.1946981E+03  0.7818608E-02  0.1154291E+00
         -5   -1    0    0    0  501 -0.00000000000E+00  0.00000000000E+00  0.13903473599E+03  0.13911415389E+03  0.47000000000E+01 0.  1.
          5   -1    0    0  501    0  0.00000000000E+00 -0.00000000000E+00 -0.27794012336E+03  0.27797985929E+03  0.47000000000E+01 0. -1.
          6    1    1    2  502    0  0.86061058317E+02 -0.30279178967E+02 -0.98705975474E+02  0.21828926687E+03  0.17200000000E+03 0. -1.
         -6    1    1    2    0  502 -0.86061058317E+02  0.30279178967E+02 -0.40199411892E+02  0.19880474631E+03  0.17200000000E+03 0.  1.
</event>
<event>
 4    1 -0.3240665E-004  0.1822353E+03  0.7818608E-02  0.1165657E+00
          5   -1    0    0  501    0  0.00000000000E+00  0.00000000000E+00  0.64282421813E+03  0.64284139989E+03  0.47000000000E+01 0. -1.
         -5   -1    0    0    0  501 -0.00000000000E+00 -0.00000000000E+00 -0.61428181621E+02  0.61607722708E+02  0.47000000000E+01 0.  1.
          6    1    1    2  502    0 -0.30355711646E+02  0.52002151710E+02  0.43178829286E+03  0.46866920409E+03  0.17200000000E+03 0. -1.
         -6    1    1    2    0  502  0.30355711646E+02 -0.52002151710E+02  0.14960774365E+03  0.23577991851E+03  0.17200000000E+03 0.  1.
</event>
<event>
 4    1 -0.3240665E-004  0.1765500E+03  0.7818608E-02  0.1171184E+00
          5   -1    0    0  501    0  0.00000000000E+00  0.00000000000E+00  0.99822140355E+03  0.99823246817E+03  0.47000000000E+01 0. -1.
         -5   -1    0    0    0  501 -0.00000000000E+00 -0.00000000000E+00 -0.32647069726E+02  0.32983649915E+02  0.47000000000E+01 0.  1.
          6    1    1    2  502    0 -0.26505317070E+02 -0.29721350723E+02  0.36891261361E+03  0.40898215976E+03  0.17200000000E+03 0.  1.
         -6    1    1    2    0  502  0.26505317070E+02  0.29721350723E+02  0.59666172021E+03  0.62223395832E+03  0.17200000000E+03 0. -1.
</event>
<event>
 4    1 -0.3240665E-004  0.1902640E+03  0.7818608E-02  0.1158223E+00
          5   -1    0    0  501    0  0.00000000000E+00  0.00000000000E+00  0.34683529222E+02  0.35000531415E+02  0.47000000000E+01 0. -1.
         -5   -1    0    0    0  501 -0.00000000000E+00 -0.00000000000E+00 -0.12671329513E+04  0.12671416678E+04  0.47000000000E+01 0.  1.
          6    1    1    2  502    0 -0.29728226653E+02  0.75714184082E+02 -0.33980142581E+03  0.38944244005E+03  0.17200000000E+03 0.  1.
         -6    1    1    2    0  502  0.29728226653E+02 -0.75714184082E+02 -0.89264799623E+03  0.91269975913E+03  0.17200000000E+03 0.  1.
</event>
<event>
 4    1 -0.3240665E-004  0.3971048E+03  0.7818608E-02  0.1044787E+00
          5   -1    0    0  501    0  0.00000000000E+00  0.00000000000E+00  0.24803127646E+03  0.24807580313E+03  0.47000000000E+01 0. -1.
         -5   -1    0    0    0  501 -0.00000000000E+00 -0.00000000000E+00 -0.64907288476E+03  0.64908990112E+03  0.47000000000E+01 0.  1.
          6    1    1    2  502    0 -0.34182709978E+03 -0.10612454111E+03 -0.13605143676E+03  0.41976443134E+03  0.17200000000E+03 0. -1.
         -6    1    1    2    0  502  0.34182709978E+03  0.10612454111E+03 -0.26499017154E+03  0.47740127292E+03  0.17200000000E+03 0.  1.
</event>
<event>
 4    1 -0.3240665E-004  0.2647031E+03  0.7818608E-02  0.1104350E+00
         -5   -1    0    0    0  501 -0.00000000000E+00  0.00000000000E+00  0.28536319976E+03  0.28540190219E+03  0.47000000000E+01 0.  1.
          5   -1    0    0  501    0  0.00000000000E+00 -0.00000000000E+00 -0.26089902291E+03  0.26094135386E+03  0.47000000000E+01 0. -1.
          6    1    1    2  502    0 -0.44138865381E+01 -0.20115723707E+03  0.78671902098E+02  0.27614667226E+03  0.17200000000E+03 0.  1.
         -6    1    1    2    0  502  0.44138865381E+01  0.20115723707E+03 -0.54207725247E+02  0.27019658380E+03  0.17200000000E+03 0. -1.
</event>
<event>
 4    1 -0.3240665E-004  0.1880918E+03  0.7818608E-02  0.1160194E+00
          5   -1    0    0  501    0  0.00000000000E+00  0.00000000000E+00  0.78109335524E+02  0.78250612112E+02  0.47000000000E+01 0. -1.
         -5   -1    0    0    0  501 -0.00000000000E+00 -0.00000000000E+00 -0.64981543186E+03  0.64983242878E+03  0.47000000000E+01 0.  1.
          6    1    1    2  502    0  0.55016637404E+02  0.52608788485E+02 -0.85211001987E+02  0.20649317150E+03  0.17200000000E+03 0. -1.
         -6    1    1    2    0  502 -0.55016637404E+02 -0.52608788485E+02 -0.48649509435E+03  0.52158986939E+03  0.17200000000E+03 0.  1.
</event>
<event>
 4    1 -0.3240665E-004  0.2159250E+03  0.7818608E-02  0.1136958E+00
          5   -1    0    0  501    0  0.00000000000E+00  0.00000000000E+00  0.12800148696E+03  0.12808774595E+03  0.47000000000E+01 0. -1.
         -5   -1    0    0    0  501 -0.00000000000E+00 -0.00000000000E+00 -0.41351488806E+03  0.41354159724E+03  0.47000000000E+01 0.  1.
          6    1    1    2  502    0  0.13029267944E+03 -0.79627681925E+01 -0.49075291598E+02  0.22143164236E+03  0.17200000000E+03 0. -1.
         -6    1    1    2    0  502 -0.13029267944E+03  0.79627681925E+01 -0.23643810950E+03  0.32019770083E+03  0.17200000000E+03 0.  1.
</event>
<event>
 4    1 -0.3240665E-004  0.3545998E+03  0.7818608E-02  0.1060743E+00
          5   -1    0    0  501    0  0.00000000000E+00  0.00000000000E+00  0.50733851918E+03  0.50736028918E+03  0.47000000000E+01 0. -1.
         -5   -1    0    0    0  501 -0.00000000000E+00 -0.00000000000E+00 -0.26389914408E+03  0.26394099387E+03  0.47000000000E+01 0.  1.
          6    1    1    2  502    0  0.20070597979E+03  0.23637703926E+03  0.21697527902E+03  0.41571536743E+03  0.17200000000E+03 0. -1.
         -6    1    1    2    0  502 -0.20070597979E+03 -0.23637703926E+03  0.26464096073E+02  0.35558591563E+03  0.17200000000E+03 0.  1.
</event>
<event>
 4    1 -0.3240665E-004  0.5110508E+03  0.7818608E-02  0.1010934E+00
          5   -1    0    0  501    0  0.00000000000E+00  0.00000000000E+00  0.66186556824E+03  0.66188225570E+03  0.47000000000E+01 0. -1.
         -5   -1    0    0    0  501 -0.00000000000E+00 -0.00000000000E+00 -0.39985497457E+03  0.39988259613E+03  0.47000000000E+01 0.  1.
          6    1    1    2  502    0  0.41308673177E+03  0.24687701752E+03  0.69949090423E+02  0.51581565020E+03  0.17200000000E+03 0. -1.
         -6    1    1    2    0  502 -0.41308673177E+03 -0.24687701752E+03  0.19206150324E+03  0.54594920164E+03  0.17200000000E+03 0. -1.
</event>
<event>
 4    1 -0.3240665E-004  0.2993882E+03  0.7818608E-02  0.1085547E+00
          5   -1    0    0  501    0  0.00000000000E+00  0.00000000000E+00  0.18852574586E+03  0.18858432292E+03  0.47000000000E+01 0. -1.
         -5   -1    0    0    0  501 -0.00000000000E+00 -0.00000000000E+00 -0.55833773994E+03  0.55835752153E+03  0.47000000000E+01 0.  1.
          6    1    1    2  502    0  0.19070503618E+03 -0.15388601289E+03 -0.40888024402E+02  0.30216741440E+03  0.17200000000E+03 0. -1.
         -6    1    1    2    0  502 -0.19070503618E+03  0.15388601289E+03 -0.32892396969E+03  0.44477443004E+03  0.17200000000E+03 0.  1.
</event>
<event>
 4    1 -0.3240665E-004  0.4540330E+03  0.7818608E-02  0.1026526E+00
         -5   -1    0    0    0  501 -0.00000000000E+00  0.00000000000E+00  0.10194270918E+04  0.10194379263E+04  0.47000000000E+01 0.  1.
          5   -1    0    0  501    0  0.00000000000E+00 -0.00000000000E+00 -0.45928826042E+03  0.45931230787E+03  0.47000000000E+01 0. -1.
          6    1    1    2  502    0  0.28056568858E+02  0.41925509755E+03 -0.27309966764E+03  0.52983906646E+03  0.17200000000E+03 0. -1.
         -6    1    1    2    0  502 -0.28056568858E+02 -0.41925509755E+03  0.83323849904E+03  0.94891116769E+03  0.17200000000E+03 0.  1.
</event>
<event>
 4    1 -0.3240665E-004  0.2382940E+03  0.7818608E-02  0.1120935E+00
          5   -1    0    0  501    0  0.00000000000E+00  0.00000000000E+00  0.80615733325E+02  0.80752625093E+02  0.47000000000E+01 0. -1.
         -5   -1    0    0    0  501 -0.00000000000E+00 -0.00000000000E+00 -0.70701642621E+03  0.70703204802E+03  0.47000000000E+01 0.  1.
          6    1    1    2  502    0  0.14153288850E+02  0.16431595045E+03 -0.28597071682E+03  0.37224091397E+03  0.17200000000E+03 0. -1.
         -6    1    1    2    0  502 -0.14153288850E+02 -0.16431595045E+03 -0.34042997607E+03  0.41554375915E+03  0.17200000000E+03 0.  1.
</event>
<event>
 4    1 -0.3240665E-004  0.1937420E+03  0.7818608E-02  0.1155129E+00
         -5   -1    0    0    0  501 -0.00000000000E+00  0.00000000000E+00  0.27638964732E+03  0.27642960613E+03  0.47000000000E+01 0.  1.
          5   -1    0    0  501    0  0.00000000000E+00 -0.00000000000E+00 -0.13749214365E+03  0.13757245206E+03  0.47000000000E+01 0. -1.
          6    1    1    2  502    0  0.21023194463E+01  0.89149012997E+02  0.45942953403E+02  0.19911484433E+03  0.17200000000E+03 0. -1.
         -6    1    1    2    0  502 -0.21023194463E+01 -0.89149012997E+02  0.92954550263E+02  0.21488721386E+03  0.17200000000E+03 0.  1.
</event>
<event>
 4    1 -0.3240665E-004  0.2825751E+03  0.7818608E-02  0.1094291E+00
         -5   -1    0    0    0  501 -0.00000000000E+00  0.00000000000E+00  0.53606810190E+03  0.53608870523E+03  0.47000000000E+01 0.  1.
          5   -1    0    0  501    0  0.00000000000E+00 -0.00000000000E+00 -0.15259315806E+03  0.15266552292E+03  0.47000000000E+01 0. -1.
          6    1    1    2  502    0  0.21990035192E+03 -0.43686786919E+02  0.24535453952E+03  0.37422927490E+03  0.17200000000E+03 0. -1.
         -6    1    1    2    0  502 -0.21990035192E+03  0.43686786919E+02  0.13812040432E+03  0.31452495325E+03  0.17200000000E+03 0.  1.
</event>
<event>
 4    1 -0.3240665E-004  0.1946143E+03  0.7818608E-02  0.1154364E+00
         -5   -1    0    0    0  501 -0.00000000000E+00  0.00000000000E+00  0.21021143678E+03  0.21026397255E+03  0.47000000000E+01 0.  1.
          5   -1    0    0  501    0  0.00000000000E+00 -0.00000000000E+00 -0.20936476278E+03  0.20941751095E+03  0.47000000000E+01 0. -1.
          6    1    1    2  502    0 -0.90987309021E+02 -0.34665031277E+01 -0.78051344910E+02  0.20968242532E+03  0.17200000000E+03 0. -1.
         -6    1    1    2    0  502  0.90987309021E+02  0.34665031277E+01  0.78898018908E+02  0.20999905818E+03  0.17200000000E+03 0.  1.
</event>
<event>
 4    1 -0.3240665E-004  0.1764379E+03  0.7818608E-02  0.1171296E+00
         -5   -1    0    0    0  501 -0.00000000000E+00  0.00000000000E+00  0.55202664751E+03  0.55204665524E+03  0.47000000000E+01 0.  1.
          5   -1    0    0  501    0  0.00000000000E+00 -0.00000000000E+00 -0.57717133744E+02  0.57908181871E+02  0.47000000000E+01 0. -1.
          6    1    1    2  502    0 -0.25480516209E+01 -0.39240906280E+02  0.19901622657E+03  0.26596578677E+03  0.17200000000E+03 0. -1.
         -6    1    1    2    0  502  0.25480516209E+01  0.39240906280E+02  0.29529328719E+03  0.34398905034E+03  0.17200000000E+03 0.  1.
</event>
<event>
 4    1 -0.3240665E-004  0.2580170E+03  0.7818608E-02  0.1108341E+00
         -5   -1    0    0    0  501 -0.00000000000E+00  0.00000000000E+00  0.10222146950E+03  0.10232946216E+03  0.47000000000E+01 0.  1.
          5   -1    0    0  501    0  0.00000000000E+00 -0.00000000000E+00 -0.65373779896E+03  0.65375469389E+03  0.47000000000E+01 0. -1.
          6    1    1    2  502    0  0.14921240104E+03  0.12134436206E+03 -0.30109788737E+03  0.39652582842E+03  0.17200000000E+03 0. -1.
         -6    1    1    2    0  502 -0.14921240104E+03 -0.12134436206E+03 -0.25041844209E+03  0.35955832763E+03  0.17200000000E+03 0. -1.
</event>
<event>
 4    1 -0.3240665E-004  0.2707091E+03  0.7818608E-02  0.1100874E+00
          5   -1    0    0  501    0  0.00000000000E+00  0.00000000000E+00  0.50192771644E+02  0.50412342986E+02  0.47000000000E+01 0. -1.
         -5   -1    0    0    0  501 -0.00000000000E+00 -0.00000000000E+00 -0.14568750278E+04  0.14568826091E+04  0.47000000000E+01 0.  1.
          6    1    1    2  502    0 -0.20903920508E+03  0.14263463342E+01 -0.69355757386E+03  0.74451697897E+03  0.17200000000E+03 0. -1.
         -6    1    1    2    0  502  0.20903920508E+03 -0.14263463342E+01 -0.71312468228E+03  0.76277797307E+03  0.17200000000E+03 0.  1.
</event>
<event>
 4    1 -0.3240665E-004  0.2024384E+03  0.7818608E-02  0.1147698E+00
         -5   -1    0    0    0  501 -0.00000000000E+00  0.00000000000E+00  0.37067791475E+03  0.37070771031E+03  0.47000000000E+01 0.  1.
          5   -1    0    0  501    0  0.00000000000E+00 -0.00000000000E+00 -0.11392188085E+03  0.11401879203E+03  0.47000000000E+01 0. -1.
          6    1    1    2  502    0  0.10540585615E+03 -0.16938363310E+02  0.17052108481E+03  0.26468612171E+03  0.17200000000E+03 0.  1.
         -6    1    1    2    0  502 -0.10540585615E+03  0.16938363310E+02  0.86234949097E+02  0.22004038063E+03  0.17200000000E+03 0. -1.
</event>
<event>
 4    1 -0.3240665E-004  0.1957608E+03  0.7818608E-02  0.1153366E+00
          5   -1    0    0  501    0  0.00000000000E+00  0.00000000000E+00  0.97914253770E+02  0.98026991646E+02  0.47000000000E+01 0. -1.
         -5   -1    0    0    0  501 -0.00000000000E+00 -0.00000000000E+00 -0.40356408557E+03  0.40359145329E+03  0.47000000000E+01 0.  1.
          6    1    1    2  502    0 -0.10631907302E+02  0.92872273894E+02 -0.10863892488E+03  0.22388549017E+03  0.17200000000E+03 0. -1.
         -6    1    1    2    0  502  0.10631907302E+02 -0.92872273894E+02 -0.19701090693E+03  0.27773295476E+03  0.17200000000E+03 0.  1.
</event>
<event>
 4    1 -0.3240665E-004  0.2258641E+03  0.7818608E-02  0.1129585E+00
          5   -1    0    0  501    0  0.00000000000E+00  0.00000000000E+00  0.19468407198E+03  0.19474079666E+03  0.47000000000E+01 0. -1.
         -5   -1    0    0    0  501 -0.00000000000E+00 -0.00000000000E+00 -0.26219473454E+03  0.26223685634E+03  0.47000000000E+01 0.  1.
          6    1    1    2  502    0 -0.12538005059E+03 -0.75567541666E+02 -0.41123914316E+02  0.22957740910E+03  0.17200000000E+03 0. -1.
         -6    1    1    2    0  502  0.12538005059E+03  0.75567541666E+02 -0.26386748244E+02  0.22740024389E+03  0.17200000000E+03 0. -1.
</event>
<event>
 4    1 -0.3240665E-004  0.1784942E+03  0.7818608E-02  0.1169268E+00
         -5   -1    0    0    0  501 -0.00000000000E+00  0.00000000000E+00  0.20141284548E+04  0.20141339386E+04  0.47000000000E+01 0.  1.
          5   -1    0    0  501    0  0.00000000000E+00 -0.00000000000E+00 -0.48271051805E+02  0.48499324144E+02  0.47000000000E+01 0. -1.
          6    1    1    2  502    0 -0.13734903206E+01 -0.47689520903E+02  0.13680134348E+03  0.22488838222E+03  0.17200000000E+03 0. -1.
         -6    1    1    2    0  502  0.13734903206E+01  0.47689520903E+02  0.18290560595E+04  0.18377448805E+04  0.17200000000E+03 0. -1.
</event>
<event>
 4    1 -0.3240665E-004  0.1813469E+03  0.7818608E-02  0.1166506E+00
          5   -1    0    0  501    0  0.00000000000E+00  0.00000000000E+00  0.11188267853E+04  0.11188366572E+04  0.47000000000E+01 0. -1.
         -5   -1    0    0    0  501 -0.00000000000E+00 -0.00000000000E+00 -0.29559197218E+02  0.29930521882E+02  0.47000000000E+01 0.  1.
          6    1    1    2  502    0  0.13465041232E+02 -0.55869353928E+02  0.60789677608E+03  0.63436990976E+03  0.17200000000E+03 0. -1.
         -6    1    1    2    0  502 -0.13465041232E+02  0.55869353928E+02  0.48137081205E+03  0.51439726937E+03  0.17200000000E+03 0. -1.
</event>
<event>
 4    1 -0.3240665E-004  0.6280491E+03  0.7818608E-02  0.9848863E-01
          5   -1    0    0  501    0  0.00000000000E+00  0.00000000000E+00  0.39343225686E+03  0.39346032931E+03  0.47000000000E+01 0. -1.
         -5   -1    0    0    0  501 -0.00000000000E+00 -0.00000000000E+00 -0.10600639630E+04  0.10600743821E+04  0.47000000000E+01 0.  1.
          6    1    1    2  502    0 -0.35835359056E+03  0.48625549697E+03 -0.16397099793E+03  0.64910106483E+03  0.17200000000E+03 0. -1.
         -6    1    1    2    0  502  0.35835359056E+03 -0.48625549697E+03 -0.50266070818E+03  0.80443364658E+03  0.17200000000E+03 0.  1.
</event>
<event>
 4    1 -0.3240665E-004  0.1913972E+03  0.7818608E-02  0.1157207E+00
          5   -1    0    0  501    0  0.00000000000E+00  0.00000000000E+00  0.34980010449E+03  0.34983167824E+03  0.47000000000E+01 0. -1.
         -5   -1    0    0    0  501 -0.00000000000E+00 -0.00000000000E+00 -0.10948537207E+03  0.10958620669E+03  0.47000000000E+01 0.  1.
          6    1    1    2  502    0 -0.15488110505E-01  0.83957653705E+02  0.71843844623E+02  0.20443685056E+03  0.17200000000E+03 0. -1.
         -6    1    1    2    0  502  0.15488110505E-01 -0.83957653705E+02  0.16847088779E+03  0.25498103437E+03  0.17200000000E+03 0.  1.
</event>
<event>
 4    1 -0.3240665E-004  0.1731469E+03  0.7818608E-02  0.1174605E+00
          5   -1    0    0  501    0  0.00000000000E+00  0.00000000000E+00  0.18184928123E+03  0.18191000820E+03  0.47000000000E+01 0. -1.
         -5   -1    0    0    0  501 -0.00000000000E+00 -0.00000000000E+00 -0.16492063883E+03  0.16498759685E+03  0.47000000000E+01 0.  1.
          6    1    1    2  502    0  0.96047282340E+01 -0.17424493746E+02  0.27147732129E+01  0.17316822393E+03  0.17200000000E+03 0. -1.
         -6    1    1    2    0  502 -0.96047282340E+01  0.17424493746E+02  0.14213869185E+02  0.17372938112E+03  0.17200000000E+03 0. -1.
</event>
<event>
 4    1 -0.3240665E-004  0.2099053E+03  0.7818608E-02  0.1141641E+00
         -5   -1    0    0    0  501 -0.00000000000E+00  0.00000000000E+00  0.31087249692E+03  0.31090802393E+03  0.47000000000E+01 0.  1.
          5   -1    0    0  501    0  0.00000000000E+00 -0.00000000000E+00 -0.31774810679E+03  0.31778286513E+03  0.47000000000E+01 0. -1.
          6    1    1    2  502    0  0.91037249136E+02 -0.78666607722E+02 -0.23741979603E+03  0.31690436325E+03  0.17200000000E+03 0. -1.
         -6    1    1    2    0  502 -0.91037249136E+02  0.78666607722E+02  0.23054418616E+03  0.31178652581E+03  0.17200000000E+03 0.  1.
</event>
<event>
 4    1 -0.3240665E-004  0.3478450E+03  0.7818608E-02  0.1063503E+00
          5   -1    0    0  501    0  0.00000000000E+00  0.00000000000E+00  0.36119034335E+03  0.36122092150E+03  0.47000000000E+01 0. -1.
         -5   -1    0    0    0  501 -0.00000000000E+00 -0.00000000000E+00 -0.62146763093E+03  0.62148540312E+03  0.47000000000E+01 0.  1.
          6    1    1    2  502    0  0.29929199647E+03  0.42853501619E+02  0.20348336554E+03  0.40299082099E+03  0.17200000000E+03 0. -1.
         -6    1    1    2    0  502 -0.29929199647E+03 -0.42853501619E+02 -0.46376065313E+03  0.57971550362E+03  0.17200000000E+03 0.  1.
</event>
<event>
 4    1 -0.3240665E-004  0.2281199E+03  0.7818608E-02  0.1127970E+00
          5   -1    0    0  501    0  0.00000000000E+00  0.00000000000E+00  0.50355109613E+03  0.50357302987E+03  0.47000000000E+01 0. -1.
         -5   -1    0    0    0  501 -0.00000000000E+00 -0.00000000000E+00 -0.10993311541E+03  0.11003353972E+03  0.47000000000E+01 0.  1.
          6    1    1    2  502    0  0.12364853504E+03  0.84650499108E+02  0.27232263507E+03  0.35524397924E+03  0.17200000000E+03 0. -1.
         -6    1    1    2    0  502 -0.12364853504E+03 -0.84650499108E+02  0.12129534566E+03  0.25836259035E+03  0.17200000000E+03 0.  1.
</event>
<event>
 4    1 -0.3240665E-004  0.2707281E+03  0.7818608E-02  0.1100864E+00
         -5   -1    0    0    0  501 -0.00000000000E+00  0.00000000000E+00  0.29431153575E+03  0.29434906161E+03  0.47000000000E+01 0.  1.
          5   -1    0    0  501    0  0.00000000000E+00 -0.00000000000E+00 -0.26029767902E+03  0.26034010775E+03  0.47000000000E+01 0. -1.
          6    1    1    2  502    0  0.20810543838E+03  0.20046266820E+02  0.74883107796E+02  0.28089358507E+03  0.17200000000E+03 0.  1.
         -6    1    1    2    0  502 -0.20810543838E+03 -0.20046266820E+02 -0.40869251069E+02  0.27379558430E+03  0.17200000000E+03 0. -1.
</event>
<event>
 4    1 -0.3240665E-004  0.1888762E+03  0.7818608E-02  0.1159479E+00
         -5   -1    0    0    0  501 -0.00000000000E+00  0.00000000000E+00  0.22833836182E+03  0.22838672790E+03  0.47000000000E+01 0.  1.
          5   -1    0    0  501    0  0.00000000000E+00 -0.00000000000E+00 -0.18400994929E+03  0.18406996343E+03  0.47000000000E+01 0. -1.
          6    1    1    2  502    0 -0.71610920804E+02  0.31017434538E+02 -0.58079476969E+02  0.19760422786E+03  0.17200000000E+03 0. -1.
         -6    1    1    2    0  502  0.71610920804E+02 -0.31017434538E+02  0.10240788951E+03  0.21485246347E+03  0.17200000000E+03 0.  1.
</event>
<event>
 4    1 -0.3240665E-004  0.1823019E+03  0.7818608E-02  0.1165594E+00
          5   -1    0    0  501    0  0.00000000000E+00  0.00000000000E+00  0.34206203400E+02  0.34527588260E+02  0.47000000000E+01 0. -1.
         -5   -1    0    0    0  501 -0.00000000000E+00 -0.00000000000E+00 -0.10988588977E+04  0.10988689490E+04  0.47000000000E+01 0.  1.
          6    1    1    2  502    0 -0.59168256819E+02  0.12210009026E+02 -0.33583125467E+03  0.38212118307E+03  0.17200000000E+03 0. -1.
         -6    1    1    2    0  502  0.59168256819E+02 -0.12210009026E+02 -0.72882143960E+03  0.75127535415E+03  0.17200000000E+03 0.  1.
</event>
<event>
 4    1 -0.3240665E-004  0.1758379E+03  0.7818608E-02  0.1171893E+00
          5   -1    0    0  501    0  0.00000000000E+00  0.00000000000E+00  0.12883891075E+04  0.12883976802E+04  0.47000000000E+01 0. -1.
         -5   -1    0    0    0  501 -0.00000000000E+00 -0.00000000000E+00 -0.23762364198E+02  0.24222715626E+02  0.47000000000E+01 0.  1.
          6    1    1    2  502    0 -0.20248699011E+02 -0.30413234276E+02  0.63968515964E+03  0.66341244946E+03  0.17200000000E+03 0. -1.
         -6    1    1    2    0  502  0.20248699011E+02  0.30413234276E+02  0.62494158369E+03  0.64920794639E+03  0.17200000000E+03 0.  1.
</event>
<event>
 4    1 -0.3240665E-004  0.2056271E+03  0.7818608E-02  0.1145076E+00
         -5   -1    0    0    0  501 -0.00000000000E+00  0.00000000000E+00  0.37084833632E+03  0.37087811819E+03  0.47000000000E+01 0.  1.
          5   -1    0    0  501    0  0.00000000000E+00 -0.00000000000E+00 -0.14285429396E+03  0.14293158959E+03  0.47000000000E+01 0. -1.
          6    1    1    2  502    0 -0.13702403911E+02  0.11185142103E+03 -0.15499297539E+01  0.20563292183E+03  0.17200000000E+03 0. -1.
         -6    1    1    2    0  502  0.13702403911E+02 -0.11185142103E+03  0.22954397212E+03  0.30817678594E+03  0.17200000000E+03 0.  1.
</event>
<event>
 4    1 -0.3240665E-004  0.5268652E+03  0.7818608E-02  0.1006995E+00
          5   -1    0    0  501    0  0.00000000000E+00  0.00000000000E+00  0.69519094632E+03  0.69520683386E+03  0.47000000000E+01 0. -1.
         -5   -1    0    0    0  501 -0.00000000000E+00 -0.00000000000E+00 -0.66787040829E+03  0.66788694572E+03  0.47000000000E+01 0.  1.
          6    1    1    2  502    0 -0.88164667463E+02  0.49013261449E+03  0.44587273602E+03  0.69020973993E+03  0.17200000000E+03 0. -1.
         -6    1    1    2    0  502  0.88164667463E+02 -0.49013261449E+03 -0.41855219799E+03  0.67288403965E+03  0.17200000000E+03 0.  1.
</event>
<event>
 4    1 -0.3240665E-004  0.1892561E+03  0.7818608E-02  0.1159134E+00
         -5   -1    0    0    0  501 -0.00000000000E+00  0.00000000000E+00  0.32683907422E+03  0.32687286586E+03  0.47000000000E+01 0.  1.
          5   -1    0    0  501    0  0.00000000000E+00 -0.00000000000E+00 -0.11252936140E+03  0.11262747079E+03  0.47000000000E+01 0. -1.
          6    1    1    2  502    0  0.69072813471E+02  0.38247010030E+02  0.71114033372E+02  0.20217589639E+03  0.17200000000E+03 0. -1.
         -6    1    1    2    0  502 -0.69072813471E+02 -0.38247010030E+02  0.14319567945E+03  0.23732444027E+03  0.17200000000E+03 0.  1.
</event>
<event>
 4    1 -0.3240665E-004  0.2242473E+03  0.7818608E-02  0.1130756E+00
          5   -1    0    0  501    0  0.00000000000E+00  0.00000000000E+00  0.73310540358E+03  0.73312046947E+03  0.47000000000E+01 0. -1.
         -5   -1    0    0    0  501 -0.00000000000E+00 -0.00000000000E+00 -0.82458086529E+02  0.82591924750E+02  0.47000000000E+01 0.  1.
          6    1    1    2  502    0 -0.14360651709E+03  0.89448047417E+01  0.49297503704E+03  0.54158215298E+03  0.17200000000E+03 0. -1.
         -6    1    1    2    0  502  0.14360651709E+03 -0.89448047417E+01  0.15767228002E+03  0.27413024125E+03  0.17200000000E+03 0.  1.
</event>
<event>
 4    1 -0.3240665E-004  0.1854168E+03  0.7818608E-02  0.1162661E+00
          5   -1    0    0  501    0  0.00000000000E+00  0.00000000000E+00  0.98982528676E+02  0.99094051200E+02  0.47000000000E+01 0. -1.
         -5   -1    0    0    0  501 -0.00000000000E+00 -0.00000000000E+00 -0.39787761754E+03  0.39790537636E+03  0.47000000000E+01 0.  1.
          6    1    1    2  502    0  0.33751811780E+02  0.60466567926E+02 -0.60605892730E+02  0.19507041003E+03  0.17200000000E+03 0. -1.
         -6    1    1    2    0  502 -0.33751811780E+02 -0.60466567926E+02 -0.23828919613E+03  0.30192901753E+03  0.17200000000E+03 0.  1.
</event>
<event>
 4    1 -0.3240665E-004  0.2653083E+03  0.7818608E-02  0.1103995E+00
         -5   -1    0    0    0  501 -0.00000000000E+00  0.00000000000E+00  0.24833965450E+03  0.24838412589E+03  0.47000000000E+01 0.  1.
          5   -1    0    0  501    0  0.00000000000E+00 -0.00000000000E+00 -0.46609262940E+03  0.46611632580E+03  0.47000000000E+01 0. -1.
          6    1    1    2  502    0 -0.20041357485E+03  0.25276229937E+02 -0.33255514366E+03  0.42541910202E+03  0.17200000000E+03 0. -1.
         -6    1    1    2    0  502  0.20041357485E+03 -0.25276229937E+02  0.11480216876E+03  0.28908134968E+03  0.17200000000E+03 0.  1.
</event>
<event>
 4    1 -0.3240665E-004  0.2218587E+03  0.7818608E-02  0.1132505E+00
          5   -1    0    0  501    0  0.00000000000E+00  0.00000000000E+00  0.10460844410E+03  0.10471397508E+03  0.47000000000E+01 0. -1.
         -5   -1    0    0    0  501 -0.00000000000E+00 -0.00000000000E+00 -0.50840455285E+03  0.50842627721E+03  0.47000000000E+01 0.  1.
          6    1    1    2  502    0  0.12719884687E+03  0.58802660795E+02 -0.11784118141E+03  0.25121274569E+03  0.17200000000E+03 0. -1.
         -6    1    1    2    0  502 -0.12719884687E+03 -0.58802660795E+02 -0.28595492734E+03  0.36192750659E+03  0.17200000000E+03 0.  1.
</event>
<event>
 4    1 -0.3240665E-004  0.3218782E+03  0.7818608E-02  0.1074788E+00
          5   -1    0    0  501    0  0.00000000000E+00  0.00000000000E+00  0.81448099422E+03  0.81449455489E+03  0.47000000000E+01 0. -1.
         -5   -1    0    0    0  501 -0.00000000000E+00 -0.00000000000E+00 -0.30271891941E+03  0.30275540321E+03  0.47000000000E+01 0.  1.
          6    1    1    2  502    0  0.27715857689E+02  0.27065368759E+03  0.68125891763E+03  0.75347149928E+03  0.17200000000E+03 0. -1.
         -6    1    1    2    0  502 -0.27715857689E+02 -0.27065368759E+03 -0.16949684282E+03  0.36377845882E+03  0.17200000000E+03 0.  1.
</event>
<event>
 4    1 -0.3240665E-004  0.3102581E+03  0.7818608E-02  0.1080222E+00
          5   -1    0    0  501    0  0.00000000000E+00  0.00000000000E+00  0.17087262192E+04  0.17087326831E+04  0.47000000000E+01 0. -1.
         -5   -1    0    0    0  501 -0.00000000000E+00 -0.00000000000E+00 -0.61086609943E+02  0.61267152001E+02  0.47000000000E+01 0.  1.
          6    1    1    2  502    0 -0.24854647301E+03 -0.70005365236E+02  0.10729659255E+04  0.11169225477E+04  0.17200000000E+03 0. -1.
         -6    1    1    2    0  502  0.24854647301E+03  0.70005365236E+02  0.57467368385E+03  0.65307728740E+03  0.17200000000E+03 0.  1.
</event>
<event>
 4    1 -0.3240665E-004  0.2396663E+03  0.7818608E-02  0.1120015E+00
         -5   -1    0    0    0  501 -0.00000000000E+00  0.00000000000E+00  0.54270177767E+03  0.54272212917E+03  0.47000000000E+01 0.  1.
          5   -1    0    0  501    0  0.00000000000E+00 -0.00000000000E+00 -0.10741707147E+03  0.10751984582E+03  0.47000000000E+01 0. -1.
          6    1    1    2  502    0 -0.10447497067E+03 -0.13015733883E+03  0.17736007956E+03  0.29815524508E+03  0.17200000000E+03 0. -1.
         -6    1    1    2    0  502  0.10447497067E+03  0.13015733883E+03  0.25792462664E+03  0.35208672990E+03  0.17200000000E+03 0.  1.
</event>
<event>
 4    1 -0.3240665E-004  0.1740617E+03  0.7818608E-02  0.1173677E+00
          5   -1    0    0  501    0  0.00000000000E+00  0.00000000000E+00  0.37460295224E+02  0.37753989435E+02  0.47000000000E+01 0. -1.
         -5   -1    0    0    0  501 -0.00000000000E+00 -0.00000000000E+00 -0.87170289762E+03  0.87171556813E+03  0.47000000000E+01 0.  1.
          6    1    1    2  502    0 -0.82337587614E+01 -0.25410185391E+02 -0.29166510092E+03  0.33965571304E+03  0.17200000000E+03 0. -1.
         -6    1    1    2    0  502  0.82337587614E+01  0.25410185391E+02 -0.54257750148E+03  0.56981384453E+03  0.17200000000E+03 0.  1.
</event>
<event>
 4    1 -0.3240665E-004  0.2868552E+03  0.7818608E-02  0.1092003E+00
         -5   -1    0    0    0  501 -0.00000000000E+00  0.00000000000E+00  0.23630047240E+03  0.23634720912E+03  0.47000000000E+01 0.  1.
          5   -1    0    0  501    0  0.00000000000E+00 -0.00000000000E+00 -0.34814481890E+03  0.34817654276E+03  0.47000000000E+01 0. -1.
          6    1    1    2  502    0 -0.17956928199E+03  0.14302726174E+03 -0.57905621297E+02  0.29264139422E+03  0.17200000000E+03 0. -1.
         -6    1    1    2    0  502  0.17956928199E+03 -0.14302726174E+03 -0.53938725205E+02  0.29188235766E+03  0.17200000000E+03 0.  1.
</event>
<event>
 4    1 -0.3240665E-004  0.2111782E+03  0.7818608E-02  0.1140636E+00
          5   -1    0    0  501    0  0.00000000000E+00  0.00000000000E+00  0.12018123655E+03  0.12027310430E+03  0.47000000000E+01 0. -1.
         -5   -1    0    0    0  501 -0.00000000000E+00 -0.00000000000E+00 -0.37099115937E+03  0.37102092977E+03  0.47000000000E+01 0.  1.
          6    1    1    2  502    0 -0.79392023373E+02 -0.93322745285E+02 -0.12022690564E+03  0.24300357405E+03  0.17200000000E+03 0. -1.
         -6    1    1    2    0  502  0.79392023373E+02  0.93322745285E+02 -0.13058301718E+03  0.24829046002E+03  0.17200000000E+03 0.  1.
</event>
<event>
 4    1 -0.3240665E-004  0.3061627E+03  0.7818608E-02  0.1082200E+00
          5   -1    0    0  501    0  0.00000000000E+00  0.00000000000E+00  0.20337611719E+03  0.20343041819E+03  0.47000000000E+01 0. -1.
         -5   -1    0    0    0  501 -0.00000000000E+00 -0.00000000000E+00 -0.50410878342E+03  0.50413069289E+03  0.47000000000E+01 0.  1.
          6    1    1    2  502    0 -0.20900664882E+03 -0.14306588784E+03 -0.46643014544E+02  0.30969533145E+03  0.17200000000E+03 0. -1.
         -6    1    1    2    0  502  0.20900664882E+03  0.14306588784E+03 -0.25408965168E+03  0.39786577964E+03  0.17200000000E+03 0.  1.
</event>
<event>
 4    1 -0.3240665E-004  0.1732201E+03  0.7818608E-02  0.1174531E+00
         -5   -1    0    0    0  501 -0.00000000000E+00  0.00000000000E+00  0.69608138967E+02  0.69766632500E+02  0.47000000000E+01 0.  1.
          5   -1    0    0  501    0  0.00000000000E+00 -0.00000000000E+00 -0.55642813880E+03  0.55644798827E+03  0.47000000000E+01 0. -1.
          6    1    1    2  502    0  0.12504870440E+02 -0.16273345341E+02 -0.39239981295E+03  0.42893217035E+03  0.17200000000E+03 0. -1.
         -6    1    1    2    0  502 -0.12504870440E+02  0.16273345341E+02 -0.94420186877E+02  0.19728245042E+03  0.17200000000E+03 0.  1.
</event>
<event>
 4    1 -0.3240665E-004  0.3122213E+03  0.7818608E-02  0.1079286E+00
         -5   -1    0    0    0  501 -0.00000000000E+00  0.00000000000E+00  0.17667020783E+03  0.17673271439E+03  0.47000000000E+01 0.  1.
          5   -1    0    0  501    0  0.00000000000E+00 -0.00000000000E+00 -0.59520554402E+03  0.59522410035E+03  0.47000000000E+01 0. -1.
          6    1    1    2  502    0 -0.25164284874E+03  0.67631513199E+02 -0.10480818722E+03  0.32934313566E+03  0.17200000000E+03 0. -1.
         -6    1    1    2    0  502  0.25164284874E+03 -0.67631513199E+02 -0.31372714898E+03  0.44261367908E+03  0.17200000000E+03 0.  1.
</event>
<event>
 4    1 -0.3240665E-004  0.2260010E+03  0.7818608E-02  0.1129486E+00
         -5   -1    0    0    0  501 -0.00000000000E+00  0.00000000000E+00  0.33788545454E+03  0.33791814155E+03  0.47000000000E+01 0.  1.
          5   -1    0    0  501    0  0.00000000000E+00 -0.00000000000E+00 -0.20326552514E+03  0.20331985567E+03  0.47000000000E+01 0. -1.
          6    1    1    2  502    0  0.53045661254E+02  0.13666977520E+03  0.20438649670E+03  0.30471348783E+03  0.17200000000E+03 0.  1.
         -6    1    1    2    0  502 -0.53045661254E+02 -0.13666977520E+03 -0.69766567303E+02  0.23652450939E+03  0.17200000000E+03 0. -1.
</event>
<event>
 4    1 -0.3240665E-004  0.2064336E+03  0.7818608E-02  0.1144422E+00
         -5   -1    0    0    0  501 -0.00000000000E+00  0.00000000000E+00  0.69924030262E+02  0.70081809395E+02  0.47000000000E+01 0.  1.
          5   -1    0    0  501    0  0.00000000000E+00 -0.00000000000E+00 -0.66050832464E+03  0.66052504640E+03  0.47000000000E+01 0. -1.
          6    1    1    2  502    0 -0.93424629927E+01  0.11376973746E+03 -0.39769516119E+03  0.44808065793E+03  0.17200000000E+03 0.  1.
         -6    1    1    2    0  502  0.93424629927E+01 -0.11376973746E+03 -0.19288913318E+03  0.28252619786E+03  0.17200000000E+03 0. -1.
</event>
<event>
 4    1 -0.3240665E-004  0.3214024E+03  0.7818608E-02  0.1075006E+00
          5   -1    0    0  501    0  0.00000000000E+00  0.00000000000E+00  0.29523307503E+03  0.29527048378E+03  0.47000000000E+01 0. -1.
         -5   -1    0    0    0  501 -0.00000000000E+00 -0.00000000000E+00 -0.35025872674E+03  0.35029025915E+03  0.47000000000E+01 0.  1.
          6    1    1    2  502    0 -0.25542256749E+03  0.92058917058E+02 -0.16039517211E+02  0.32180242122E+03  0.17200000000E+03 0.  1.
         -6    1    1    2    0  502  0.25542256749E+03 -0.92058917058E+02 -0.38986134498E+02  0.32375832171E+03  0.17200000000E+03 0.  1.
</event>
<event>
 4    1 -0.3240665E-004  0.1978008E+03  0.7818608E-02  0.1151608E+00
         -5   -1    0    0    0  501 -0.00000000000E+00  0.00000000000E+00  0.12192679965E+03  0.12201735316E+03  0.47000000000E+01 0.  1.
          5   -1    0    0  501    0  0.00000000000E+00 -0.00000000000E+00 -0.50837444266E+03  0.50839616831E+03  0.47000000000E+01 0. -1.
          6    1    1    2  502    0  0.92293165240E+02 -0.31986237003E+02 -0.38473657889E+03  0.43260534306E+03  0.17200000000E+03 0. -1.
         -6    1    1    2    0  502 -0.92293165240E+02  0.31986237003E+02 -0.17110641275E+01  0.19780817842E+03  0.17200000000E+03 0.  1.
</event>
<event>
 4    1 -0.3240665E-004  0.2174219E+03  0.7818608E-02  0.1135820E+00
          5   -1    0    0  501    0  0.00000000000E+00  0.00000000000E+00  0.54948919716E+02  0.55149558275E+02  0.47000000000E+01 0. -1.
         -5   -1    0    0    0  501 -0.00000000000E+00 -0.00000000000E+00 -0.86214444589E+03  0.86215725688E+03  0.47000000000E+01 0.  1.
          6    1    1    2  502    0  0.11511200221E+03 -0.66614671123E+02 -0.37386431524E+03  0.43248909081E+03  0.17200000000E+03 0. -1.
         -6    1    1    2    0  502 -0.11511200221E+03  0.66614671123E+02 -0.43333121094E+03  0.48481772434E+03  0.17200000000E+03 0. -1.
</event>
<event>
 4    1 -0.3240665E-004  0.2199246E+03  0.7818608E-02  0.1133939E+00
          5   -1    0    0  501    0  0.00000000000E+00  0.00000000000E+00  0.10840755808E+03  0.10850939429E+03  0.47000000000E+01 0. -1.
         -5   -1    0    0    0  501 -0.00000000000E+00 -0.00000000000E+00 -0.47796446667E+03  0.47798757453E+03  0.47000000000E+01 0.  1.
          6    1    1    2  502    0 -0.10502177547E+03  0.88052626494E+02 -0.10875615040E+03  0.24534616077E+03  0.17200000000E+03 0. -1.
         -6    1    1    2    0  502  0.10502177547E+03 -0.88052626494E+02 -0.26080075820E+03  0.34115080805E+03  0.17200000000E+03 0.  1.
</event>
<event>
 4    1 -0.3240665E-004  0.1851476E+03  0.7818608E-02  0.1162912E+00
          5   -1    0    0  501    0  0.00000000000E+00  0.00000000000E+00  0.78000828879E+03  0.78002244877E+03  0.47000000000E+01 0. -1.
         -5   -1    0    0    0  501 -0.00000000000E+00 -0.00000000000E+00 -0.43840560819E+02  0.44091776704E+02  0.47000000000E+01 0.  1.
          6    1    1    2  502    0 -0.64241865929E+02 -0.23845825756E+02  0.37936050236E+03  0.42213034893E+03  0.17200000000E+03 0. -1.
         -6    1    1    2    0  502  0.64241865929E+02  0.23845825756E+02  0.35680722561E+03  0.40198387653E+03  0.17200000000E+03 0. -1.
</event>
<event>
 4    1 -0.3240665E-004  0.3776868E+03  0.7818608E-02  0.1051792E+00
         -5   -1    0    0    0  501 -0.00000000000E+00  0.00000000000E+00  0.11884010192E+04  0.11884103132E+04  0.47000000000E+01 0.  1.
          5   -1    0    0  501    0  0.00000000000E+00 -0.00000000000E+00 -0.12092314720E+03  0.12101445173E+03  0.47000000000E+01 0. -1.
          6    1    1    2  502    0 -0.26797688499E+03  0.20310510892E+03  0.47585596719E+03  0.60752464778E+03  0.17200000000E+03 0. -1.
         -6    1    1    2    0  502  0.26797688499E+03 -0.20310510892E+03  0.59162190485E+03  0.70190011715E+03  0.17200000000E+03 0.  1.
</event>
<event>
 4    1 -0.3240665E-004  0.4330921E+03  0.7818608E-02  0.1032888E+00
          5   -1    0    0  501    0  0.00000000000E+00  0.00000000000E+00  0.55041482214E+03  0.55043488845E+03  0.47000000000E+01 0. -1.
         -5   -1    0    0    0  501 -0.00000000000E+00 -0.00000000000E+00 -0.69717458926E+03  0.69719043159E+03  0.47000000000E+01 0.  1.
          6    1    1    2  502    0 -0.19413562959E+03 -0.34683731562E+03  0.37264886037E+03  0.57134572661E+03  0.17200000000E+03 0. -1.
         -6    1    1    2    0  502  0.19413562959E+03  0.34683731562E+03 -0.51940862749E+03  0.67627959343E+03  0.17200000000E+03 0.  1.
</event>
<event>
 4    1 -0.3240665E-004  0.2113690E+03  0.7818608E-02  0.1140486E+00
          5   -1    0    0  501    0  0.00000000000E+00  0.00000000000E+00  0.19823953955E+03  0.19829524714E+03  0.47000000000E+01 0. -1.
         -5   -1    0    0    0  501 -0.00000000000E+00 -0.00000000000E+00 -0.24214018968E+03  0.24218579945E+03  0.47000000000E+01 0.  1.
          6    1    1    2  502    0  0.12282310500E+03 -0.27108562087E+01 -0.80094881064E+02  0.22603551455E+03  0.17200000000E+03 0. -1.
         -6    1    1    2    0  502 -0.12282310500E+03  0.27108562087E+01  0.36194230933E+02  0.21444553205E+03  0.17200000000E+03 0.  1.
</event>
<event>
 4    1 -0.3240665E-004  0.2309352E+03  0.7818608E-02  0.1125983E+00
         -5   -1    0    0    0  501 -0.00000000000E+00  0.00000000000E+00  0.40288860176E+02  0.40562079018E+02  0.47000000000E+01 0.  1.
          5   -1    0    0  501    0  0.00000000000E+00 -0.00000000000E+00 -0.14997767919E+04  0.14997841563E+04  0.47000000000E+01 0. -1.
          6    1    1    2  502    0 -0.94842883489E+02  0.12145729960E+03 -0.99713455576E+03  0.10235274156E+04  0.17200000000E+03 0. -1.
         -6    1    1    2    0  502  0.94842883489E+02 -0.12145729960E+03 -0.46235337600E+03  0.51681881978E+03  0.17200000000E+03 0.  1.
</event>
<event>
 4    1 -0.3240665E-004  0.1785040E+03  0.7818608E-02  0.1169259E+00
          5   -1    0    0  501    0  0.00000000000E+00  0.00000000000E+00  0.13353458897E+04  0.13353541609E+04  0.47000000000E+01 0. -1.
         -5   -1    0    0    0  501 -0.00000000000E+00 -0.00000000000E+00 -0.24237538155E+02  0.24689031083E+02  0.47000000000E+01 0.  1.
          6    1    1    2  502    0  0.40601070103E+02 -0.25124401969E+02  0.54820067341E+03  0.57653071106E+03  0.17200000000E+03 0.  1.
         -6    1    1    2    0  502 -0.40601070103E+02  0.25124401969E+02  0.76290767811E+03  0.78351248094E+03  0.17200000000E+03 0.  1.
</event>
<event>
 4    1 -0.3240665E-004  0.2324875E+03  0.7818608E-02  0.1124901E+00
         -5   -1    0    0    0  501 -0.00000000000E+00  0.00000000000E+00  0.29932143273E+03  0.29935833059E+03  0.47000000000E+01 0.  1.
          5   -1    0    0  501    0  0.00000000000E+00 -0.00000000000E+00 -0.35768455433E+03  0.35771543216E+03  0.47000000000E+01 0. -1.
          6    1    1    2  502    0  0.14935877979E+03  0.46458446385E+02 -0.26038759191E+03  0.34907324498E+03  0.17200000000E+03 0. -1.
         -6    1    1    2    0  502 -0.14935877979E+03 -0.46458446385E+02  0.20202447032E+03  0.30800051777E+03  0.17200000000E+03 0.  1.
</event>
<event>
 4    1 -0.3240665E-004  0.1989844E+03  0.7818608E-02  0.1150599E+00
          5   -1    0    0  501    0  0.00000000000E+00  0.00000000000E+00  0.10077618388E+03  0.10088572366E+03  0.47000000000E+01 0. -1.
         -5   -1    0    0    0  501 -0.00000000000E+00 -0.00000000000E+00 -0.41815659225E+03  0.41818300497E+03  0.47000000000E+01 0.  1.
          6    1    1    2  502    0  0.64883151122E+02  0.76164013571E+02 -0.94490120449E+02  0.22027973834E+03  0.17200000000E+03 0. -1.
         -6    1    1    2    0  502 -0.64883151122E+02 -0.76164013571E+02 -0.22289028792E+03  0.29878899028E+03  0.17200000000E+03 0.  1.
</event>
<event>
 4    1 -0.3240665E-004  0.2257233E+03  0.7818608E-02  0.1129687E+00
         -5   -1    0    0    0  501 -0.00000000000E+00  0.00000000000E+00  0.16044231497E+03  0.16051114115E+03  0.47000000000E+01 0.  1.
          5   -1    0    0  501    0  0.00000000000E+00 -0.00000000000E+00 -0.75983291048E+03  0.75984744643E+03  0.47000000000E+01 0. -1.
          6    1    1    2  502    0 -0.26601895175E+02 -0.14373364934E+03 -0.65081830878E+03  0.68885085020E+03  0.17200000000E+03 0. -1.
         -6    1    1    2    0  502  0.26601895175E+02  0.14373364934E+03  0.51427713271E+02  0.23150773739E+03  0.17200000000E+03 0.  1.
</event>
<event>
 4    1 -0.3240665E-004  0.2040288E+03  0.7818608E-02  0.1146384E+00
         -5   -1    0    0    0  501 -0.00000000000E+00  0.00000000000E+00  0.34481078025E+03  0.34484281083E+03  0.47000000000E+01 0.  1.
          5   -1    0    0  501    0  0.00000000000E+00 -0.00000000000E+00 -0.15031832968E+03  0.15039178913E+03  0.47000000000E+01 0. -1.
          6    1    1    2  502    0 -0.65736239771E+02 -0.87877647526E+02 -0.12732333403E+02  0.20442565022E+03  0.17200000000E+03 0. -1.
         -6    1    1    2    0  502  0.65736239771E+02  0.87877647526E+02  0.20722478398E+03  0.29080894974E+03  0.17200000000E+03 0.  1.
</event>
<event>
 4    1 -0.3240665E-004  0.1815205E+03  0.7818608E-02  0.1166340E+00
          5   -1    0    0  501    0  0.00000000000E+00  0.00000000000E+00  0.13029640295E+03  0.13038114366E+03  0.47000000000E+01 0. -1.
         -5   -1    0    0    0  501 -0.00000000000E+00 -0.00000000000E+00 -0.29232288318E+03  0.29236066430E+03  0.47000000000E+01 0.  1.
          6    1    1    2  502    0  0.55808705838E+02 -0.15845136044E+02 -0.32045336911E+01  0.18154875108E+03  0.17200000000E+03 0. -1.
         -6    1    1    2    0  502 -0.55808705838E+02  0.15845136044E+02 -0.15882194654E+03  0.24119305688E+03  0.17200000000E+03 0.  1.
</event>
<event>
 4    1 -0.3240665E-004  0.1871158E+03  0.7818608E-02  0.1161089E+00
          5   -1    0    0  501    0  0.00000000000E+00  0.00000000000E+00  0.39188760531E+02  0.39469595285E+02  0.47000000000E+01 0. -1.
         -5   -1    0    0    0  501 -0.00000000000E+00 -0.00000000000E+00 -0.14555571458E+04  0.14555647340E+04  0.47000000000E+01 0.  1.
          6    1    1    2  502    0  0.67942235382E+02  0.28498933103E+02 -0.24225474777E+03  0.30610406621E+03  0.17200000000E+03 0. -1.
         -6    1    1    2    0  502 -0.67942235382E+02 -0.28498933103E+02 -0.11741136375E+04  0.11889302630E+04  0.17200000000E+03 0.  1.
</event>
<event>
 4    1 -0.3240665E-004  0.1841511E+03  0.7818608E-02  0.1163845E+00
          5   -1    0    0  501    0  0.00000000000E+00  0.00000000000E+00  0.19834918675E+03  0.19840486356E+03  0.47000000000E+01 0. -1.
         -5   -1    0    0    0  501 -0.00000000000E+00 -0.00000000000E+00 -0.24106667470E+03  0.24111248755E+03  0.47000000000E+01 0.  1.
          6    1    1    2  502    0  0.65066461049E+02  0.96939890552E+01  0.97211342029E+02  0.20823463400E+03  0.17200000000E+03 0. -1.
         -6    1    1    2    0  502 -0.65066461049E+02 -0.96939890552E+01 -0.13992882998E+03  0.23128271712E+03  0.17200000000E+03 0.  1.
</event>
<event>
 4    1 -0.3240665E-004  0.2143978E+03  0.7818608E-02  0.1138130E+00
         -5   -1    0    0    0  501 -0.00000000000E+00  0.00000000000E+00  0.76628640279E+02  0.76772641683E+02  0.47000000000E+01 0.  1.
          5   -1    0    0  501    0  0.00000000000E+00 -0.00000000000E+00 -0.59955665227E+03  0.59957507394E+03  0.47000000000E+01 0. -1.
          6    1    1    2  502    0  0.25958345320E+01  0.12796741739E+03 -0.27034636366E+03  0.34504138102E+03  0.17200000000E+03 0. -1.
         -6    1    1    2    0  502 -0.25958345320E+01 -0.12796741739E+03 -0.25258164833E+03  0.33130633460E+03  0.17200000000E+03 0. -1.
</event>
<event>
 4    1 -0.3240665E-004  0.2168283E+03  0.7818608E-02  0.1136270E+00
          5   -1    0    0  501    0  0.00000000000E+00  0.00000000000E+00  0.72401136484E+03  0.72402661996E+03  0.47000000000E+01 0. -1.
         -5   -1    0    0    0  501 -0.00000000000E+00 -0.00000000000E+00 -0.64977078541E+02  0.65146839798E+02  0.47000000000E+01 0.  1.
          6    1    1    2  502    0 -0.70168146065E+00  0.13202273568E+03  0.31110004386E+03  0.37920671458E+03  0.17200000000E+03 0. -1.
         -6    1    1    2    0  502  0.70168146065E+00 -0.13202273568E+03  0.34793424243E+03  0.40996674518E+03  0.17200000000E+03 0.  1.
</event>
<event>
 4    1 -0.3240665E-004  0.1889022E+03  0.7818608E-02  0.1159455E+00
          5   -1    0    0  501    0  0.00000000000E+00  0.00000000000E+00  0.68593023140E+03  0.68594633343E+03  0.47000000000E+01 0. -1.
         -5   -1    0    0    0  501 -0.00000000000E+00 -0.00000000000E+00 -0.53581392167E+02  0.53787132166E+02  0.47000000000E+01 0.  1.
          6    1    1    2  502    0  0.20284101209E+02 -0.75422706452E+02  0.25079034562E+03  0.31397424555E+03  0.17200000000E+03 0.  1.
         -6    1    1    2    0  502 -0.20284101209E+02  0.75422706452E+02  0.38155849361E+03  0.42575922005E+03  0.17200000000E+03 0. -1.
</event>
<event>
 4    1 -0.3240665E-004  0.3031699E+03  0.7818608E-02  0.1083667E+00
         -5   -1    0    0    0  501 -0.00000000000E+00  0.00000000000E+00  0.63248227383E+03  0.63249973653E+03  0.47000000000E+01 0.  1.
          5   -1    0    0  501    0  0.00000000000E+00 -0.00000000000E+00 -0.15925681544E+03  0.15932615374E+03  0.47000000000E+01 0. -1.
          6    1    1    2  502    0 -0.24521680840E+03  0.46869203294E+02  0.11928218096E+03  0.32579171879E+03  0.17200000000E+03 0. -1.
         -6    1    1    2    0  502  0.24521680840E+03 -0.46869203294E+02  0.35394327743E+03  0.46603417147E+03  0.17200000000E+03 0.  1.
</event>
<event>
 4    1 -0.3240665E-004  0.2541791E+03  0.7818608E-02  0.1110692E+00
         -5   -1    0    0    0  501 -0.00000000000E+00  0.00000000000E+00  0.18667497950E+04  0.18667557117E+04  0.47000000000E+01 0.  1.
          5   -1    0    0  501    0  0.00000000000E+00 -0.00000000000E+00 -0.44843867964E+02  0.45089494275E+02  0.47000000000E+01 0. -1.
          6    1    1    2  502    0 -0.95967069229E+02 -0.16066527294E+03  0.45207446297E+03  0.51863120652E+03  0.17200000000E+03 0. -1.
         -6    1    1    2    0  502  0.95967069229E+02  0.16066527294E+03  0.13698314641E+04  0.13932139994E+04  0.17200000000E+03 0.  1.
</event>
<event>
 4    1 -0.3240665E-004  0.1871051E+03  0.7818608E-02  0.1161099E+00
         -5   -1    0    0    0  501 -0.00000000000E+00  0.00000000000E+00  0.11702921853E+03  0.11712355864E+03  0.47000000000E+01 0.  1.
          5   -1    0    0  501    0  0.00000000000E+00 -0.00000000000E+00 -0.30186320713E+03  0.30189979433E+03  0.47000000000E+01 0. -1.
          6    1    1    2  502    0  0.70546797025E+02  0.21153560133E+02 -0.71692969928E+02  0.20037017147E+03  0.17200000000E+03 0.  1.
         -6    1    1    2    0  502 -0.70546797025E+02 -0.21153560133E+02 -0.11314101867E+03  0.21865318151E+03  0.17200000000E+03 0. -1.
</event>
<event>
 4    1 -0.3240665E-004  0.3533136E+03  0.7818608E-02  0.1061263E+00
          5   -1    0    0  501    0  0.00000000000E+00  0.00000000000E+00  0.23861249499E+03  0.23865877894E+03  0.47000000000E+01 0. -1.
         -5   -1    0    0    0  501 -0.00000000000E+00 -0.00000000000E+00 -0.55504633108E+03  0.55506622996E+03  0.47000000000E+01 0.  1.
          6    1    1    2  502    0  0.14566293265E+03  0.27208241037E+03 -0.25350518195E+03  0.43485101501E+03  0.17200000000E+03 0.  1.
         -6    1    1    2    0  502 -0.14566293265E+03 -0.27208241037E+03 -0.62928654144E+02  0.35887399389E+03  0.17200000000E+03 0.  1.
</event>
<event>
 4    1 -0.3240665E-004  0.2610042E+03  0.7818608E-02  0.1106541E+00
          5   -1    0    0  501    0  0.00000000000E+00  0.00000000000E+00  0.71809488294E+02  0.71963133680E+02  0.47000000000E+01 0. -1.
         -5   -1    0    0    0  501 -0.00000000000E+00 -0.00000000000E+00 -0.10055527618E+04  0.10055637457E+04  0.47000000000E+01 0.  1.
          6    1    1    2  502    0  0.18916864050E+03  0.52482794865E+02 -0.59632068490E+03  0.65093899679E+03  0.17200000000E+03 0. -1.
         -6    1    1    2    0  502 -0.18916864050E+03 -0.52482794865E+02 -0.33742258857E+03  0.42658788260E+03  0.17200000000E+03 0. -1.
</event>
<event>
 4    1 -0.3240665E-004  0.2541506E+03  0.7818608E-02  0.1110710E+00
         -5   -1    0    0    0  501 -0.00000000000E+00  0.00000000000E+00  0.33127953434E+03  0.33131287309E+03  0.47000000000E+01 0.  1.
          5   -1    0    0  501    0  0.00000000000E+00 -0.00000000000E+00 -0.19496525093E+03  0.19502189383E+03  0.47000000000E+01 0. -1.
          6    1    1    2  502    0 -0.12854130900E+03 -0.13596189741E+03  0.72690171149E+02  0.26434138278E+03  0.17200000000E+03 0. -1.
         -6    1    1    2    0  502  0.12854130900E+03  0.13596189741E+03  0.63624112260E+02  0.26199338413E+03  0.17200000000E+03 0. -1.
</event>
<event>
 4    1 -0.3240665E-004  0.2496276E+03  0.7818608E-02  0.1113540E+00
         -5   -1    0    0    0  501 -0.00000000000E+00  0.00000000000E+00  0.11651701611E+04  0.11651796403E+04  0.47000000000E+01 0.  1.
          5   -1    0    0  501    0  0.00000000000E+00 -0.00000000000E+00 -0.13231533070E+03  0.13239877921E+03  0.47000000000E+01 0. -1.
          6    1    1    2  502    0  0.59130677807E+02 -0.17097801507E+03  0.15568860997E+02  0.25011259090E+03  0.17200000000E+03 0. -1.
         -6    1    1    2    0  502 -0.59130677807E+02  0.17097801507E+03  0.10172859694E+04  0.10474658286E+04  0.17200000000E+03 0.  1.
</event>
<event>
 4    1 -0.3240665E-004  0.1950171E+03  0.7818608E-02  0.1154013E+00
         -5   -1    0    0    0  501 -0.00000000000E+00  0.00000000000E+00  0.21148397576E+02  0.21664365212E+02  0.47000000000E+01 0.  1.
          5   -1    0    0  501    0  0.00000000000E+00 -0.00000000000E+00 -0.18470626292E+04  0.18470686089E+04  0.47000000000E+01 0. -1.
          6    1    1    2  502    0 -0.77598886541E+02  0.49255100384E+02 -0.10960345114E+04  0.11132489849E+04  0.17200000000E+03 0. -1.
         -6    1    1    2    0  502  0.77598886541E+02 -0.49255100384E+02 -0.72987972018E+03  0.75548398926E+03  0.17200000000E+03 0.  1.
</event>
<event>
 4    1 -0.3240665E-004  0.1762446E+03  0.7818608E-02  0.1171488E+00
          5   -1    0    0  501    0  0.00000000000E+00  0.00000000000E+00  0.34530807120E+03  0.34534005565E+03  0.47000000000E+01 0. -1.
         -5   -1    0    0    0  501 -0.00000000000E+00 -0.00000000000E+00 -0.18465770860E+03  0.18471751229E+03  0.47000000000E+01 0.  1.
          6    1    1    2  502    0  0.44855246239E+01 -0.38184434649E+02  0.27015711536E+03  0.32256323095E+03  0.17200000000E+03 0. -1.
         -6    1    1    2    0  502 -0.44855246239E+01  0.38184434649E+02 -0.10950675276E+03  0.20749433698E+03  0.17200000000E+03 0.  1.
</event>
<event>
 4    1 -0.3240665E-004  0.2760288E+03  0.7818608E-02  0.1097878E+00
         -5   -1    0    0    0  501 -0.00000000000E+00  0.00000000000E+00  0.16534361813E+03  0.16541040492E+03  0.47000000000E+01 0.  1.
          5   -1    0    0  501    0  0.00000000000E+00 -0.00000000000E+00 -0.46148232894E+03  0.46150626207E+03  0.47000000000E+01 0. -1.
          6    1    1    2  502    0 -0.86576215959E+02 -0.19776874614E+03 -0.13466065950E+03  0.30712442322E+03  0.17200000000E+03 0.  1.
         -6    1    1    2    0  502  0.86576215959E+02  0.19776874614E+03 -0.16147805132E+03  0.31979224377E+03  0.17200000000E+03 0. -1.
</event>
<event>
 4    1 -0.3240665E-004  0.4268351E+03  0.7818608E-02  0.1034864E+00
          5   -1    0    0  501    0  0.00000000000E+00  0.00000000000E+00  0.15719296654E+04  0.15719366918E+04  0.47000000000E+01 0. -1.
         -5   -1    0    0    0  501 -0.00000000000E+00 -0.00000000000E+00 -0.24097217055E+03  0.24101800136E+03  0.47000000000E+01 0.  1.
          6    1    1    2  502    0  0.39041678073E+03 -0.13375533104E+02  0.13185756500E+04  0.13859400826E+04  0.17200000000E+03 0. -1.
         -6    1    1    2    0  502 -0.39041678073E+03  0.13375533104E+02  0.12381844804E+02  0.42701461058E+03  0.17200000000E+03 0.  1.
</event>
<event>
 4    1 -0.3240665E-004  0.3784300E+03  0.7818608E-02  0.1051516E+00
          5   -1    0    0  501    0  0.00000000000E+00  0.00000000000E+00  0.11763739141E+04  0.11763833031E+04  0.47000000000E+01 0. -1.
         -5   -1    0    0    0  501 -0.00000000000E+00 -0.00000000000E+00 -0.14133126481E+03  0.14140939295E+03  0.47000000000E+01 0.  1.
          6    1    1    2  502    0 -0.16942216703E+03 -0.29141277951E+03  0.76311651766E+03  0.85179580785E+03  0.17200000000E+03 0. -1.
         -6    1    1    2    0  502  0.16942216703E+03  0.29141277951E+03  0.27192613165E+03  0.46599688821E+03  0.17200000000E+03 0.  1.
</event>
<event>
 4    1 -0.3240665E-004  0.1802273E+03  0.7818608E-02  0.1167583E+00
         -5   -1    0    0    0  501 -0.00000000000E+00  0.00000000000E+00  0.83652833586E+03  0.83654153914E+03  0.47000000000E+01 0.  1.
          5   -1    0    0  501    0  0.00000000000E+00 -0.00000000000E+00 -0.40322432018E+02  0.40595424912E+02  0.47000000000E+01 0. -1.
          6    1    1    2  502    0 -0.53408926271E+02 -0.67353042277E+01  0.30973682701E+03  0.35835566095E+03  0.17200000000E+03 0. -1.
         -6    1    1    2    0  502  0.53408926271E+02  0.67353042277E+01  0.48646907684E+03  0.51878130311E+03  0.17200000000E+03 0.  1.
</event>
<event>
 4    1 -0.3240665E-004  0.1798950E+03  0.7818608E-02  0.1167905E+00
          5   -1    0    0  501    0  0.00000000000E+00  0.00000000000E+00  0.74349803020E+03  0.74351288551E+03  0.47000000000E+01 0. -1.
         -5   -1    0    0    0  501 -0.00000000000E+00 -0.00000000000E+00 -0.44665904852E+02  0.44912504453E+02  0.47000000000E+01 0.  1.
          6    1    1    2  502    0  0.44393763346E+02 -0.28415007141E+02  0.41598264267E+03  0.45321493560E+03  0.17200000000E+03 0. -1.
         -6    1    1    2    0  502 -0.44393763346E+02  0.28415007141E+02  0.28284948269E+03  0.33521045436E+03  0.17200000000E+03 0.  1.
</event>
<event>
 4    1 -0.3240665E-004  0.1809767E+03  0.7818608E-02  0.1166861E+00
         -5   -1    0    0    0  501 -0.00000000000E+00  0.00000000000E+00  0.13041325139E+04  0.13041409831E+04  0.47000000000E+01 0.  1.
          5   -1    0    0  501    0  0.00000000000E+00 -0.00000000000E+00 -0.26537078876E+02  0.26950075237E+02  0.47000000000E+01 0. -1.
          6    1    1    2  502    0  0.36010659109E+02  0.43264270066E+02  0.47412782167E+03  0.50749360184E+03  0.17200000000E+03 0. -1.
         -6    1    1    2    0  502 -0.36010659109E+02 -0.43264270066E+02  0.80346761332E+03  0.82359745646E+03  0.17200000000E+03 0.  1.
</event>
<event>
 4    1 -0.3240665E-004  0.2507520E+03  0.7818608E-02  0.1112831E+00
         -5   -1    0    0    0  501 -0.00000000000E+00  0.00000000000E+00  0.11751419531E+04  0.11751513519E+04  0.47000000000E+01 0.  1.
          5   -1    0    0  501    0  0.00000000000E+00 -0.00000000000E+00 -0.70424917508E+02  0.70581576959E+02  0.47000000000E+01 0. -1.
          6    1    1    2  502    0 -0.52425897940E+02 -0.17476863371E+03  0.24645816232E+03  0.35159376542E+03  0.17200000000E+03 0. -1.
         -6    1    1    2    0  502  0.52425897940E+02  0.17476863371E+03  0.85825887327E+03  0.89413916347E+03  0.17200000000E+03 0.  1.
</event>
<event>
 4    1 -0.3240665E-004  0.1851820E+03  0.7818608E-02  0.1162880E+00
         -5   -1    0    0    0  501 -0.00000000000E+00  0.00000000000E+00  0.88641304787E+02  0.88765820642E+02  0.47000000000E+01 0.  1.
          5   -1    0    0  501    0  0.00000000000E+00 -0.00000000000E+00 -0.61129363912E+03  0.61131170710E+03  0.47000000000E+01 0. -1.
          6    1    1    2  502    0  0.30355887537E+02 -0.61537646442E+02 -0.47358849808E+03  0.50850607406E+03  0.17200000000E+03 0. -1.
         -6    1    1    2    0  502 -0.30355887537E+02  0.61537646442E+02 -0.49063836256E+02  0.19157145368E+03  0.17200000000E+03 0.  1.
</event>
<event>
 4    1 -0.3240665E-004  0.2512227E+03  0.7818608E-02  0.1112535E+00
         -5   -1    0    0    0  501 -0.00000000000E+00  0.00000000000E+00  0.26658859100E+03  0.26663001866E+03  0.47000000000E+01 0.  1.
          5   -1    0    0  501    0  0.00000000000E+00 -0.00000000000E+00 -0.29635446525E+03  0.29639173246E+03  0.47000000000E+01 0. -1.
          6    1    1    2  502    0 -0.15887463393E+03  0.91036859142E+02 -0.14121035725E+03  0.28818956265E+03  0.17200000000E+03 0. -1.
         -6    1    1    2    0  502  0.15887463393E+03 -0.91036859142E+02  0.11144448300E+03  0.27483218847E+03  0.17200000000E+03 0.  1.
</event>
<event>
 4    1 -0.3240665E-004  0.3264548E+03  0.7818608E-02  0.1072716E+00
          5   -1    0    0  501    0  0.00000000000E+00  0.00000000000E+00  0.18445528461E+04  0.18445588340E+04  0.47000000000E+01 0. -1.
         -5   -1    0    0    0  501 -0.00000000000E+00 -0.00000000000E+00 -0.60733600576E+02  0.60915188902E+02  0.47000000000E+01 0.  1.
          6    1    1    2  502    0 -0.11464939439E+03 -0.25267417571E+03  0.11053665878E+04  0.11525658403E+04  0.17200000000E+03 0. -1.
         -6    1    1    2    0  502  0.11464939439E+03  0.25267417571E+03  0.67845265772E+03  0.75290818263E+03  0.17200000000E+03 0.  1.
</event>
<event>
 4    1 -0.3240665E-004  0.1810809E+03  0.7818608E-02  0.1166761E+00
          5   -1    0    0  501    0  0.00000000000E+00  0.00000000000E+00  0.15993092042E+03  0.15999996659E+03  0.47000000000E+01 0. -1.
         -5   -1    0    0    0  501 -0.00000000000E+00 -0.00000000000E+00 -0.22999138750E+03  0.23003940603E+03  0.47000000000E+01 0.  1.
          6    1    1    2  502    0  0.55712076838E+02  0.10121452264E+02  0.29383686816E+02  0.18344939453E+03  0.17200000000E+03 0.  1.
         -6    1    1    2    0  502 -0.55712076838E+02 -0.10121452264E+02 -0.99444153897E+02  0.20658997809E+03  0.17200000000E+03 0.  1.
</event>
<event>
 4    1 -0.3240665E-004  0.1779088E+03  0.7818608E-02  0.1169842E+00
         -5   -1    0    0    0  501 -0.00000000000E+00  0.00000000000E+00  0.35292883152E+03  0.35296012539E+03  0.47000000000E+01 0.  1.
          5   -1    0    0  501    0  0.00000000000E+00 -0.00000000000E+00 -0.13377987160E+03  0.13386240714E+03  0.47000000000E+01 0. -1.
          6    1    1    2  502    0 -0.43056266376E+02 -0.14617928296E+02 -0.30258836622E+02  0.18046363372E+03  0.17200000000E+03 0. -1.
         -6    1    1    2    0  502  0.43056266376E+02  0.14617928296E+02  0.24940779655E+03  0.30635889881E+03  0.17200000000E+03 0.  1.
</event>
<event>
 4    1 -0.3240665E-004  0.2219946E+03  0.7818608E-02  0.1132405E+00
          5   -1    0    0  501    0  0.00000000000E+00  0.00000000000E+00  0.12440310886E+03  0.12449186116E+03  0.47000000000E+01 0. -1.
         -5   -1    0    0    0  501 -0.00000000000E+00 -0.00000000000E+00 -0.39663906746E+03  0.39666691296E+03  0.47000000000E+01 0.  1.
          6    1    1    2  502    0 -0.10121901823E+03 -0.97222975402E+02 -0.12487480930E+03  0.25470633010E+03  0.17200000000E+03 0. -1.
         -6    1    1    2    0  502  0.10121901823E+03  0.97222975402E+02 -0.14736114930E+03  0.26645244402E+03  0.17200000000E+03 0. -1.
</event>
<event>
 4    1 -0.3240665E-004  0.5291183E+03  0.7818608E-02  0.1006446E+00
         -5   -1    0    0    0  501 -0.00000000000E+00  0.00000000000E+00  0.45329482991E+03  0.45331919530E+03  0.47000000000E+01 0.  1.
          5   -1    0    0  501    0  0.00000000000E+00 -0.00000000000E+00 -0.61872120265E+03  0.61873905373E+03  0.47000000000E+01 0. -1.
          6    1    1    2  502    0 -0.30450849511E+03  0.39706011851E+03 -0.10578402086E+03  0.53958912181E+03  0.17200000000E+03 0.  1.
         -6    1    1    2    0  502  0.30450849511E+03 -0.39706011851E+03 -0.59642351877E+02  0.53246912722E+03  0.17200000000E+03 0.  1.
</event>
<event>
 4    1 -0.3240665E-004  0.4254086E+03  0.7818608E-02  0.1035320E+00
          5   -1    0    0  501    0  0.00000000000E+00  0.00000000000E+00  0.24269279504E+03  0.24273830098E+03  0.47000000000E+01 0. -1.
         -5   -1    0    0    0  501 -0.00000000000E+00 -0.00000000000E+00 -0.14584945676E+04  0.14585021404E+04  0.47000000000E+01 0.  1.
          6    1    1    2  502    0  0.42302232554E+02  0.38678024424E+03 -0.13199501678E+02  0.42561327877E+03  0.17200000000E+03 0. -1.
         -6    1    1    2    0  502 -0.42302232554E+02 -0.38678024424E+03 -0.12026022708E+04  0.12756271626E+04  0.17200000000E+03 0.  1.
</event>
<event>
 4    1 -0.3240665E-004  0.1780398E+03  0.7818608E-02  0.1169714E+00
         -5   -1    0    0    0  501 -0.00000000000E+00  0.00000000000E+00  0.15521852596E+03  0.15528966740E+03  0.47000000000E+01 0.  1.
          5   -1    0    0  501    0  0.00000000000E+00 -0.00000000000E+00 -0.23223856337E+03  0.23228611736E+03  0.47000000000E+01 0. -1.
          6    1    1    2  502    0 -0.22914046290E+02 -0.39863916737E+02 -0.10598085773E+03  0.20719586767E+03  0.17200000000E+03 0. -1.
         -6    1    1    2    0  502  0.22914046290E+02  0.39863916737E+02  0.28960820318E+02  0.18037991709E+03  0.17200000000E+03 0.  1.
</event>
<event>
 4    1 -0.3240665E-004  0.2064210E+03  0.7818608E-02  0.1144432E+00
         -5   -1    0    0    0  501 -0.00000000000E+00  0.00000000000E+00  0.33137954197E+03  0.33141287066E+03  0.47000000000E+01 0.  1.
          5   -1    0    0  501    0  0.00000000000E+00 -0.00000000000E+00 -0.31274059686E+03  0.31277591168E+03  0.47000000000E+01 0. -1.
          6    1    1    2  502    0 -0.50900556229E+02 -0.10215070263E+03 -0.23786358215E+03  0.31494240170E+03  0.17200000000E+03 0. -1.
         -6    1    1    2    0  502  0.50900556229E+02  0.10215070263E+03  0.25650252726E+03  0.32924638064E+03  0.17200000000E+03 0.  1.
</event>
<event>
 4    1 -0.3240665E-004  0.2494308E+03  0.7818608E-02  0.1113665E+00
          5   -1    0    0  501    0  0.00000000000E+00  0.00000000000E+00  0.91680039225E+02  0.91800433508E+02  0.47000000000E+01 0. -1.
         -5   -1    0    0    0  501 -0.00000000000E+00 -0.00000000000E+00 -0.73730758693E+03  0.73732256696E+03  0.47000000000E+01 0.  1.
          6    1    1    2  502    0 -0.18059875911E+03  0.39745640098E+01 -0.20529194455E+03  0.32304874469E+03  0.17200000000E+03 0. -1.
         -6    1    1    2    0  502  0.18059875911E+03 -0.39745640098E+01 -0.44033560316E+03  0.50607425578E+03  0.17200000000E+03 0.  1.
</event>
<event>
 4    1 -0.3240665E-004  0.1865870E+03  0.7818608E-02  0.1161576E+00
          5   -1    0    0  501    0  0.00000000000E+00  0.00000000000E+00  0.44353381446E+03  0.44355871603E+03  0.47000000000E+01 0. -1.
         -5   -1    0    0    0  501 -0.00000000000E+00 -0.00000000000E+00 -0.13765364565E+03  0.13773385989E+03  0.47000000000E+01 0.  1.
          6    1    1    2  502    0 -0.71365274775E+02  0.11734976575E+02  0.34354232469E+03  0.39094250341E+03  0.17200000000E+03 0. -1.
         -6    1    1    2    0  502  0.71365274775E+02 -0.11734976575E+02 -0.37662155885E+02  0.19035007251E+03  0.17200000000E+03 0.  1.
</event>
<event>
 4    1 -0.3240665E-004  0.4160050E+03  0.7818608E-02  0.1038374E+00
          5   -1    0    0  501    0  0.00000000000E+00  0.00000000000E+00  0.25536865236E+04  0.25536908487E+04  0.47000000000E+01 0. -1.
         -5   -1    0    0    0  501 -0.00000000000E+00 -0.00000000000E+00 -0.11949411085E+03  0.11958650646E+03  0.47000000000E+01 0.  1.
          6    1    1    2  502    0  0.32371708767E+03 -0.19668102218E+03  0.20967523226E+04  0.21376226233E+04  0.17200000000E+03 0. -1.
         -6    1    1    2    0  502 -0.32371708767E+03  0.19668102218E+03  0.33744009015E+03  0.53565473187E+03  0.17200000000E+03 0.  1.
</event>
<event>
 4    1 -0.3240665E-004  0.1968401E+03  0.7818608E-02  0.1152433E+00
          5   -1    0    0  501    0  0.00000000000E+00  0.00000000000E+00  0.41743524909E+03  0.41746170745E+03  0.47000000000E+01 0. -1.
         -5   -1    0    0    0  501 -0.00000000000E+00 -0.00000000000E+00 -0.38765641460E+03  0.38768490528E+03  0.47000000000E+01 0.  1.
          6    1    1    2  502    0 -0.82719269731E+02 -0.48161640928E+02  0.36598224132E+03  0.41555868683E+03  0.17200000000E+03 0. -1.
         -6    1    1    2    0  502  0.82719269731E+02  0.48161640928E+02 -0.33620340682E+03  0.38958792589E+03  0.17200000000E+03 0.  1.
</event>
<event>
 4    1 -0.3240665E-004  0.2302578E+03  0.7818608E-02  0.1126458E+00
          5   -1    0    0  501    0  0.00000000000E+00  0.00000000000E+00  0.50208644180E+03  0.50210843952E+03  0.47000000000E+01 0. -1.
         -5   -1    0    0    0  501 -0.00000000000E+00 -0.00000000000E+00 -0.11063147831E+03  0.11073126927E+03  0.47000000000E+01 0.  1.
          6    1    1    2  502    0 -0.42272675380E+02 -0.14713156131E+03  0.26155439346E+03  0.34846718089E+03  0.17200000000E+03 0. -1.
         -6    1    1    2    0  502  0.42272675380E+02  0.14713156131E+03  0.12990057002E+03  0.26437252790E+03  0.17200000000E+03 0.  1.
</event>
<event>
 4    1 -0.3240665E-004  0.2204675E+03  0.7818608E-02  0.1133535E+00
         -5   -1    0    0    0  501 -0.00000000000E+00  0.00000000000E+00  0.23724078440E+03  0.23728733590E+03  0.47000000000E+01 0.  1.
          5   -1    0    0  501    0  0.00000000000E+00 -0.00000000000E+00 -0.21446886857E+03  0.21452036171E+03  0.47000000000E+01 0. -1.
          6    1    1    2  502    0 -0.11766171943E+02 -0.13741715212E+03 -0.36601981947E+02  0.22348517083E+03  0.17200000000E+03 0. -1.
         -6    1    1    2    0  502  0.11766171943E+02  0.13741715212E+03  0.59373897768E+02  0.22832252678E+03  0.17200000000E+03 0.  1.
</event>
<event>
 4    1 -0.3240665E-004  0.4386297E+03  0.7818608E-02  0.1031168E+00
          5   -1    0    0  501    0  0.00000000000E+00  0.00000000000E+00  0.30437601856E+03  0.30441230375E+03  0.47000000000E+01 0. -1.
         -5   -1    0    0    0  501 -0.00000000000E+00 -0.00000000000E+00 -0.63296240042E+03  0.63297984988E+03  0.47000000000E+01 0.  1.
          6    1    1    2  502    0  0.27577475983E+03 -0.29455101684E+03 -0.14618108301E+03  0.46234719498E+03  0.17200000000E+03 0. -1.
         -6    1    1    2    0  502 -0.27577475983E+03  0.29455101684E+03 -0.18240529886E+03  0.47504495864E+03  0.17200000000E+03 0.  1.
</event>
<event>
 4    1 -0.3240665E-004  0.1847766E+03  0.7818608E-02  0.1163259E+00
          5   -1    0    0  501    0  0.00000000000E+00  0.00000000000E+00  0.72589759743E+02  0.72741757056E+02  0.47000000000E+01 0. -1.
         -5   -1    0    0    0  501 -0.00000000000E+00 -0.00000000000E+00 -0.57810140210E+03  0.57812050743E+03  0.47000000000E+01 0.  1.
          6    1    1    2  502    0 -0.32339029439E+01 -0.67438388123E+02 -0.11185084648E+03  0.21599306975E+03  0.17200000000E+03 0. -1.
         -6    1    1    2    0  502  0.32339029439E+01  0.67438388123E+02 -0.39366079588E+03  0.43486919474E+03  0.17200000000E+03 0.  1.
</event>
<event>
 4    1 -0.3240665E-004  0.1803468E+03  0.7818608E-02  0.1167468E+00
         -5   -1    0    0    0  501 -0.00000000000E+00  0.00000000000E+00  0.12795155851E+03  0.12803785114E+03  0.47000000000E+01 0.  1.
          5   -1    0    0  501    0  0.00000000000E+00 -0.00000000000E+00 -0.30672219161E+03  0.30675819928E+03  0.47000000000E+01 0. -1.
          6    1    1    2  502    0  0.42291022380E+02  0.33947685543E+02 -0.17949566194E+03  0.25444777182E+03  0.17200000000E+03 0. -1.
         -6    1    1    2    0  502 -0.42291022380E+02 -0.33947685543E+02  0.72502883450E+00  0.18034827860E+03  0.17200000000E+03 0.  1.
</event>
<event>
 4    1 -0.3240665E-004  0.2283231E+03  0.7818608E-02  0.1127826E+00
          5   -1    0    0  501    0  0.00000000000E+00  0.00000000000E+00  0.16103156086E+04  0.16103224675E+04  0.47000000000E+01 0. -1.
         -5   -1    0    0    0  501 -0.00000000000E+00 -0.00000000000E+00 -0.45206623651E+02  0.45450289570E+02  0.47000000000E+01 0.  1.
          6    1    1    2  502    0  0.72266077245E+02  0.13162464488E+03  0.12252322820E+04  0.12463248285E+04  0.17200000000E+03 0. -1.
         -6    1    1    2    0  502 -0.72266077245E+02 -0.13162464488E+03  0.33987670291E+03  0.40944792861E+03  0.17200000000E+03 0.  1.
</event>
<event>
 4    1 -0.3240665E-004  0.3376507E+03  0.7818608E-02  0.1067801E+00
          5   -1    0    0  501    0  0.00000000000E+00  0.00000000000E+00  0.53991669801E+03  0.53993715449E+03  0.47000000000E+01 0. -1.
         -5   -1    0    0    0  501 -0.00000000000E+00 -0.00000000000E+00 -0.25409379381E+03  0.25413725830E+03  0.47000000000E+01 0.  1.
          6    1    1    2  502    0  0.11655338840E+03 -0.26615650476E+03  0.30619372486E+03  0.45580980081E+03  0.17200000000E+03 0. -1.
         -6    1    1    2    0  502 -0.11655338840E+03  0.26615650476E+03 -0.20370820657E+02  0.33826461197E+03  0.17200000000E+03 0.  1.
</event>
<event>
 4    1 -0.3240665E-004  0.4725169E+03  0.7818608E-02  0.1021212E+00
         -5   -1    0    0    0  501 -0.00000000000E+00  0.00000000000E+00  0.10944319180E+04  0.10944420100E+04  0.47000000000E+01 0.  1.
          5   -1    0    0  501    0  0.00000000000E+00 -0.00000000000E+00 -0.24394396593E+03  0.24398923852E+03  0.47000000000E+01 0. -1.
          6    1    1    2  502    0 -0.11392791779E+03 -0.42509840252E+03  0.15437442362E+03  0.49709524736E+03  0.17200000000E+03 0. -1.
         -6    1    1    2    0  502  0.11392791779E+03  0.42509840252E+03  0.69611352849E+03  0.84133600115E+03  0.17200000000E+03 0.  1.
</event>
<event>
 4    1 -0.3240665E-004  0.2253994E+03  0.7818608E-02  0.1129920E+00
          5   -1    0    0  501    0  0.00000000000E+00  0.00000000000E+00  0.11703212419E+03  0.11712646196E+03  0.47000000000E+01 0. -1.
         -5   -1    0    0    0  501 -0.00000000000E+00 -0.00000000000E+00 -0.63095077997E+03  0.63096828506E+03  0.47000000000E+01 0.  1.
          6    1    1    2  502    0 -0.13265557827E+03  0.60194412351E+02 -0.47906104547E+02  0.23043407859E+03  0.17200000000E+03 0. -1.
         -6    1    1    2    0  502  0.13265557827E+03 -0.60194412351E+02 -0.46601255124E+03  0.51766066843E+03  0.17200000000E+03 0.  1.
</event>
<event>
 4    1 -0.3240665E-004  0.1839167E+03  0.7818608E-02  0.1164065E+00
         -5   -1    0    0    0  501 -0.00000000000E+00  0.00000000000E+00  0.83858330262E+02  0.83989937220E+02  0.47000000000E+01 0.  1.
          5   -1    0    0  501    0  0.00000000000E+00 -0.00000000000E+00 -0.97080533873E+03  0.97081671581E+03  0.47000000000E+01 0. -1.
          6    1    1    2  502    0  0.21562552970E+02 -0.61452500423E+02 -0.84682198120E+03  0.86656380108E+03  0.17200000000E+03 0. -1.
         -6    1    1    2    0  502 -0.21562552970E+02  0.61452500423E+02 -0.40125027267E+02  0.18824285195E+03  0.17200000000E+03 0.  1.
</event>
<event>
 4    1 -0.3240665E-004  0.1755879E+03  0.7818608E-02  0.1172143E+00
          5   -1    0    0  501    0  0.00000000000E+00  0.00000000000E+00  0.76786426012E+02  0.76930132066E+02  0.47000000000E+01 0. -1.
         -5   -1    0    0    0  501 -0.00000000000E+00 -0.00000000000E+00 -0.40856268978E+03  0.40858972268E+03  0.47000000000E+01 0.  1.
          6    1    1    2  502    0 -0.12859261648E+02  0.32889974575E+02 -0.13283374724E+03  0.22017246749E+03  0.17200000000E+03 0. -1.
         -6    1    1    2    0  502  0.12859261648E+02 -0.32889974575E+02 -0.19894251653E+03  0.26534738725E+03  0.17200000000E+03 0.  1.
</event>
<event>
 4    1 -0.3240665E-004  0.2846588E+03  0.7818608E-02  0.1093171E+00
         -5   -1    0    0    0  501 -0.00000000000E+00  0.00000000000E+00  0.70841588575E+02  0.70997328625E+02  0.47000000000E+01 0.  1.
          5   -1    0    0  501    0  0.00000000000E+00 -0.00000000000E+00 -0.13540106391E+04  0.13540187964E+04  0.47000000000E+01 0. -1.
          6    1    1    2  502    0 -0.22565868320E+03 -0.22908401039E+02 -0.92323381914E+03  0.96612179405E+03  0.17200000000E+03 0. -1.
         -6    1    1    2    0  502  0.22565868320E+03  0.22908401039E+02 -0.35993523141E+03  0.45889433092E+03  0.17200000000E+03 0.  1.
</event>
<event>
 4    1 -0.3240665E-004  0.1949645E+03  0.7818608E-02  0.1154058E+00
          5   -1    0    0  501    0  0.00000000000E+00  0.00000000000E+00  0.50661330759E+02  0.50878880042E+02  0.47000000000E+01 0. -1.
         -5   -1    0    0    0  501 -0.00000000000E+00 -0.00000000000E+00 -0.75321261822E+03  0.75322728193E+03  0.47000000000E+01 0.  1.
          6    1    1    2  502    0 -0.84212169265E+02  0.36543895877E+02 -0.31936578647E+03  0.37417329053E+03  0.17200000000E+03 0. -1.
         -6    1    1    2    0  502  0.84212169265E+02 -0.36543895877E+02 -0.38318550100E+03  0.42993287145E+03  0.17200000000E+03 0. -1.
</event>
<event>
 4    1 -0.3240665E-004  0.1762461E+03  0.7818608E-02  0.1171486E+00
         -5   -1    0    0    0  501 -0.00000000000E+00  0.00000000000E+00  0.35894430854E+03  0.35897507801E+03  0.47000000000E+01 0.  1.
          5   -1    0    0  501    0  0.00000000000E+00 -0.00000000000E+00 -0.86721089606E+02  0.86848358548E+02  0.47000000000E+01 0. -1.
          6    1    1    2  502    0  0.35076872594E+02  0.15757157531E+02  0.12344715512E+03  0.21517870506E+03  0.17200000000E+03 0. -1.
         -6    1    1    2    0  502 -0.35076872594E+02 -0.15757157531E+02  0.14877606382E+03  0.23064473150E+03  0.17200000000E+03 0. -1.
</event>
<event>
 4    1 -0.3240665E-004  0.2533179E+03  0.7818608E-02  0.1111226E+00
         -5   -1    0    0    0  501 -0.00000000000E+00  0.00000000000E+00  0.12639322165E+03  0.12648057748E+03  0.47000000000E+01 0.  1.
          5   -1    0    0  501    0  0.00000000000E+00 -0.00000000000E+00 -0.65805858901E+03  0.65807537302E+03  0.47000000000E+01 0. -1.
          6    1    1    2  502    0 -0.16841392480E+03 -0.78884152119E+02 -0.78167367500E+02  0.26510393597E+03  0.17200000000E+03 0.  1.
         -6    1    1    2    0  502  0.16841392480E+03  0.78884152119E+02 -0.45349799986E+03  0.51945201453E+03  0.17200000000E+03 0. -1.
</event>
<event>
 4    1 -0.3240665E-004  0.2254640E+03  0.7818608E-02  0.1129874E+00
         -5   -1    0    0    0  501 -0.00000000000E+00  0.00000000000E+00  0.12270468934E+04  0.12270558947E+04  0.47000000000E+01 0.  1.
          5   -1    0    0  501    0  0.00000000000E+00 -0.00000000000E+00 -0.42354478726E+02  0.42614456093E+02  0.47000000000E+01 0. -1.
          6    1    1    2  502    0 -0.11766918441E+03  0.86046253726E+02  0.49181091243E+03  0.54102862061E+03  0.17200000000E+03 0. -1.
         -6    1    1    2    0  502  0.11766918441E+03 -0.86046253726E+02  0.69288150228E+03  0.72864173017E+03  0.17200000000E+03 0.  1.
</event>
<event>
 4    1 -0.3240665E-004  0.1884288E+03  0.7818608E-02  0.1159886E+00
          5   -1    0    0  501    0  0.00000000000E+00  0.00000000000E+00  0.48932938344E+02  0.49158137221E+02  0.47000000000E+01 0. -1.
         -5   -1    0    0    0  501 -0.00000000000E+00 -0.00000000000E+00 -0.79591601074E+03  0.79592988771E+03  0.47000000000E+01 0.  1.
          6    1    1    2  502    0 -0.21032385521E+02 -0.74020587250E+02 -0.24622739630E+03  0.31005376835E+03  0.17200000000E+03 0. -1.
         -6    1    1    2    0  502  0.21032385521E+02  0.74020587250E+02 -0.50075567609E+03  0.53503425658E+03  0.17200000000E+03 0.  1.
</event>
<event>
 4    1 -0.3240665E-004  0.2179819E+03  0.7818608E-02  0.1135397E+00
          5   -1    0    0  501    0  0.00000000000E+00  0.00000000000E+00  0.36767087778E+03  0.36770091700E+03  0.47000000000E+01 0. -1.
         -5   -1    0    0    0  501 -0.00000000000E+00 -0.00000000000E+00 -0.16493465490E+03  0.16500160723E+03  0.47000000000E+01 0.  1.
          6    1    1    2  502    0 -0.60480854996E+02 -0.11947458230E+03  0.22537978104E+03  0.31354769229E+03  0.17200000000E+03 0. -1.
         -6    1    1    2    0  502  0.60480854996E+02  0.11947458230E+03 -0.22643558162E+02  0.21915483194E+03  0.17200000000E+03 0.  1.
</event>
<event>
 4    1 -0.3240665E-004  0.2566233E+03  0.7818608E-02  0.1109189E+00
         -5   -1    0    0    0  501 -0.00000000000E+00  0.00000000000E+00  0.12713330612E+03  0.12722015377E+03  0.47000000000E+01 0.  1.
          5   -1    0    0  501    0  0.00000000000E+00 -0.00000000000E+00 -0.59811758780E+03  0.59813605378E+03  0.47000000000E+01 0. -1.
          6    1    1    2  502    0 -0.49941564491E+01  0.19038534210E+03 -0.36844133590E+03  0.44900393995E+03  0.17200000000E+03 0. -1.
         -6    1    1    2    0  502  0.49941564491E+01 -0.19038534210E+03 -0.10254294578E+03  0.27635226761E+03  0.17200000000E+03 0.  1.
</event>
<event>
 4    1 -0.3240665E-004  0.1992453E+03  0.7818608E-02  0.1150377E+00
         -5   -1    0    0    0  501 -0.00000000000E+00  0.00000000000E+00  0.72743427667E+03  0.72744946002E+03  0.47000000000E+01 0.  1.
          5   -1    0    0  501    0  0.00000000000E+00 -0.00000000000E+00 -0.54775263413E+02  0.54976535740E+02  0.47000000000E+01 0. -1.
          6    1    1    2  502    0 -0.59333143274E+02  0.81205209463E+02  0.36610862362E+03  0.41681438582E+03  0.17200000000E+03 0. -1.
         -6    1    1    2    0  502  0.59333143274E+02 -0.81205209463E+02  0.30655038963E+03  0.36561160994E+03  0.17200000000E+03 0.  1.
</event>
<event>
 4    1 -0.3240665E-004  0.2333034E+03  0.7818608E-02  0.1124336E+00
         -5   -1    0    0    0  501 -0.00000000000E+00  0.00000000000E+00  0.40978873307E+03  0.40981568509E+03  0.47000000000E+01 0.  1.
          5   -1    0    0  501    0  0.00000000000E+00 -0.00000000000E+00 -0.14690094349E+03  0.14697611097E+03  0.47000000000E+01 0. -1.
          6    1    1    2  502    0  0.37161091531E+02 -0.15318468408E+03  0.45077884381E+02  0.23761841221E+03  0.17200000000E+03 0. -1.
         -6    1    1    2    0  502 -0.37161091531E+02  0.15318468408E+03  0.21780990520E+03  0.31917338386E+03  0.17200000000E+03 0.  1.
</event>
<event>
 4    1 -0.3240665E-004  0.1895035E+03  0.7818608E-02  0.1158910E+00
          5   -1    0    0  501    0  0.00000000000E+00  0.00000000000E+00  0.35958288002E+03  0.35961359485E+03  0.47000000000E+01 0. -1.
         -5   -1    0    0    0  501 -0.00000000000E+00 -0.00000000000E+00 -0.12975077588E+03  0.12983587271E+03  0.47000000000E+01 0.  1.
          6    1    1    2  502    0  0.79186325439E+02  0.75558751181E+01  0.23247575053E+03  0.29992755787E+03  0.17200000000E+03 0.  1.
         -6    1    1    2    0  502 -0.79186325439E+02 -0.75558751181E+01 -0.26436463992E+01  0.18952190969E+03  0.17200000000E+03 0.  1.
</event>
<event>
 4    1 -0.3240665E-004  0.2145948E+03  0.7818608E-02  0.1137978E+00
         -5   -1    0    0    0  501 -0.00000000000E+00  0.00000000000E+00  0.63338739367E+03  0.63340483141E+03  0.47000000000E+01 0.  1.
          5   -1    0    0  501    0  0.00000000000E+00 -0.00000000000E+00 -0.11637065931E+03  0.11646553288E+03  0.47000000000E+01 0. -1.
          6    1    1    2  502    0 -0.10681312635E+03 -0.71118953768E+02  0.48828545282E+03  0.53336069688E+03  0.17200000000E+03 0.  1.
         -6    1    1    2    0  502  0.10681312635E+03  0.71118953768E+02  0.28731281537E+02  0.21650966741E+03  0.17200000000E+03 0. -1.
</event>
<event>
 4    1 -0.3240665E-004  0.6848030E+03  0.7818608E-02  0.9743580E-01
         -5   -1    0    0    0  501 -0.00000000000E+00  0.00000000000E+00  0.15064305503E+04  0.15064378822E+04  0.47000000000E+01 0.  1.
          5   -1    0    0  501    0  0.00000000000E+00 -0.00000000000E+00 -0.34751067525E+03  0.34754245699E+03  0.47000000000E+01 0. -1.
          6    1    1    2  502    0  0.28741640507E+03  0.59729640697E+03  0.87877271381E+03  0.11140900638E+04  0.17200000000E+03 0.  1.
         -6    1    1    2    0  502 -0.28741640507E+03 -0.59729640697E+03  0.28014716124E+03  0.73989027540E+03  0.17200000000E+03 0.  1.
</event>
<event>
 4    1 -0.3240665E-004  0.1727021E+03  0.7818608E-02  0.1175059E+00
         -5   -1    0    0    0  501 -0.00000000000E+00  0.00000000000E+00  0.26884591958E+03  0.26888699945E+03  0.47000000000E+01 0.  1.
          5   -1    0    0  501    0  0.00000000000E+00 -0.00000000000E+00 -0.11117202482E+03  0.11127133100E+03  0.47000000000E+01 0. -1.
          6    1    1    2  502    0 -0.22039719554E+01 -0.15399908708E+02  0.68480221965E+02  0.18578362544E+03  0.17200000000E+03 0. -1.
         -6    1    1    2    0  502  0.22039719554E+01  0.15399908708E+02  0.89193672797E+02  0.19437470501E+03  0.17200000000E+03 0.  1.
</event>
<event>
 4    1 -0.3240665E-004  0.1885247E+03  0.7818608E-02  0.1159799E+00
          5   -1    0    0  501    0  0.00000000000E+00  0.00000000000E+00  0.68423624443E+02  0.68584855339E+02  0.47000000000E+01 0. -1.
         -5   -1    0    0    0  501 -0.00000000000E+00 -0.00000000000E+00 -0.53261550647E+03  0.53263624336E+03  0.47000000000E+01 0.  1.
          6    1    1    2  502    0 -0.40366902130E+02 -0.65787972938E+02 -0.28076367999E+03  0.33818602599E+03  0.17200000000E+03 0.  1.
         -6    1    1    2    0  502  0.40366902130E+02  0.65787972938E+02 -0.18342820204E+03  0.26303507271E+03  0.17200000000E+03 0. -1.
</event>
<event>
 4    1 -0.3240665E-004  0.1864309E+03  0.7818608E-02  0.1161720E+00
         -5   -1    0    0    0  501 -0.00000000000E+00  0.00000000000E+00  0.15845326692E+03  0.15852295669E+03  0.47000000000E+01 0.  1.
          5   -1    0    0  501    0  0.00000000000E+00 -0.00000000000E+00 -0.25671318884E+03  0.25675620990E+03  0.47000000000E+01 0. -1.
          6    1    1    2  502    0 -0.67095719409E+02  0.25896525734E+02 -0.12848037006E+03  0.22641482084E+03  0.17200000000E+03 0. -1.
         -6    1    1    2    0  502  0.67095719409E+02 -0.25896525734E+02  0.30220448135E+02  0.18886434574E+03  0.17200000000E+03 0.  1.
</event>
<event>
 4    1 -0.3240665E-004  0.3024771E+03  0.7818608E-02  0.1084009E+00
         -5   -1    0    0    0  501 -0.00000000000E+00  0.00000000000E+00  0.11858985822E+04  0.11859078957E+04  0.47000000000E+01 0.  1.
          5   -1    0    0  501    0  0.00000000000E+00 -0.00000000000E+00 -0.13771459687E+03  0.13779477563E+03  0.47000000000E+01 0. -1.
          6    1    1    2  502    0 -0.15394097270E+03  0.19547528795E+03  0.85077233233E+02  0.31421417359E+03  0.17200000000E+03 0. -1.
         -6    1    1    2    0  502  0.15394097270E+03 -0.19547528795E+03  0.96310675206E+03  0.10094884978E+04  0.17200000000E+03 0.  1.
</event>
<event>
 4    1 -0.3240665E-004  0.2349783E+03  0.7818608E-02  0.1123184E+00
         -5   -1    0    0    0  501 -0.00000000000E+00  0.00000000000E+00  0.12635544940E+03  0.12644283133E+03  0.47000000000E+01 0.  1.
          5   -1    0    0  501    0  0.00000000000E+00 -0.00000000000E+00 -0.43968077430E+03  0.43970589408E+03  0.47000000000E+01 0. -1.
          6    1    1    2  502    0 -0.82201618986E+02 -0.13738156077E+03 -0.13347129938E+03  0.27023949963E+03  0.17200000000E+03 0. -1.
         -6    1    1    2    0  502  0.82201618986E+02  0.13738156077E+03 -0.17985402552E+03  0.29590922577E+03  0.17200000000E+03 0.  1.
</event>
<event>
 4    1 -0.3240665E-004  0.1939487E+03  0.7818608E-02  0.1154947E+00
         -5   -1    0    0    0  501 -0.00000000000E+00  0.00000000000E+00  0.20720231007E+03  0.20725560861E+03  0.47000000000E+01 0.  1.
          5   -1    0    0  501    0  0.00000000000E+00 -0.00000000000E+00 -0.21853956612E+03  0.21859010032E+03  0.47000000000E+01 0. -1.
          6    1    1    2  502    0  0.86561007390E+02 -0.23223038141E+02 -0.93380337594E+02  0.21525799625E+03  0.17200000000E+03 0. -1.
         -6    1    1    2    0  502 -0.86561007390E+02  0.23223038141E+02  0.82043081552E+02  0.21058771268E+03  0.17200000000E+03 0.  1.
</event>
<event>
 4    1 -0.3240665E-004  0.2181229E+03  0.7818608E-02  0.1135290E+00
          5   -1    0    0  501    0  0.00000000000E+00  0.00000000000E+00  0.78749682336E+02  0.78889812194E+02  0.47000000000E+01 0. -1.
         -5   -1    0    0    0  501 -0.00000000000E+00 -0.00000000000E+00 -0.61270591553E+03  0.61272394186E+03  0.47000000000E+01 0.  1.
          6    1    1    2  502    0  0.68890400366E+02  0.11509864569E+03 -0.22454035117E+03  0.31304305583E+03  0.17200000000E+03 0. -1.
         -6    1    1    2    0  502 -0.68890400366E+02 -0.11509864569E+03 -0.30941588203E+03  0.37857069822E+03  0.17200000000E+03 0.  1.
</event>
<event>
 4    1 -0.3240665E-004  0.2601875E+03  0.7818608E-02  0.1107031E+00
         -5   -1    0    0    0  501 -0.00000000000E+00  0.00000000000E+00  0.88994347168E+03  0.88995588249E+03  0.47000000000E+01 0.  1.
          5   -1    0    0  501    0  0.00000000000E+00 -0.00000000000E+00 -0.75998315357E+02  0.76143508831E+02  0.47000000000E+01 0. -1.
          6    1    1    2  502    0 -0.22119413352E+02 -0.19396971017E+03  0.40032786749E+03  0.47745148277E+03  0.17200000000E+03 0. -1.
         -6    1    1    2    0  502  0.22119413352E+02  0.19396971017E+03  0.41361728883E+03  0.48864790855E+03  0.17200000000E+03 0.  1.
</event>
<event>
 4    1 -0.3240665E-004  0.1738576E+03  0.7818608E-02  0.1173884E+00
         -5   -1    0    0    0  501 -0.00000000000E+00  0.00000000000E+00  0.84696545603E+02  0.84826852100E+02  0.47000000000E+01 0.  1.
          5   -1    0    0  501    0  0.00000000000E+00 -0.00000000000E+00 -0.41681562078E+03  0.41684211846E+03  0.47000000000E+01 0. -1.
          6    1    1    2  502    0  0.17970999413E+02 -0.17874607050E+02 -0.26149145021E+03  0.31401311586E+03  0.17200000000E+03 0. -1.
         -6    1    1    2    0  502 -0.17970999413E+02  0.17874607050E+02 -0.70627624964E+02  0.18765585471E+03  0.17200000000E+03 0.  1.
</event>
<event>
 4    1 -0.3240665E-004  0.1844355E+03  0.7818608E-02  0.1163578E+00
          5   -1    0    0  501    0  0.00000000000E+00  0.00000000000E+00  0.27922728033E+03  0.27926683312E+03  0.47000000000E+01 0. -1.
         -5   -1    0    0    0  501 -0.00000000000E+00 -0.00000000000E+00 -0.12426328762E+03  0.12435213970E+03  0.47000000000E+01 0.  1.
          6    1    1    2  502    0  0.37038497337E+02  0.55322739225E+02  0.10628156148E+03  0.21286668615E+03  0.17200000000E+03 0. -1.
         -6    1    1    2    0  502 -0.37038497337E+02 -0.55322739225E+02  0.48682431227E+02  0.19075228667E+03  0.17200000000E+03 0.  1.
</event>
<event>
 4    1 -0.3240665E-004  0.2155740E+03  0.7818608E-02  0.1137227E+00
          5   -1    0    0  501    0  0.00000000000E+00  0.00000000000E+00  0.39135333335E+02  0.39416548748E+02  0.47000000000E+01 0. -1.
         -5   -1    0    0    0  501 -0.00000000000E+00 -0.00000000000E+00 -0.12134760775E+04  0.12134851795E+04  0.47000000000E+01 0.  1.
          6    1    1    2  502    0  0.44394837000E+01 -0.12987848176E+03 -0.48779953560E+03  0.53331089992E+03  0.17200000000E+03 0. -1.
         -6    1    1    2    0  502 -0.44394837000E+01  0.12987848176E+03 -0.68654120861E+03  0.71959082829E+03  0.17200000000E+03 0. -1.
</event>
<event>
 4    1 -0.3240665E-004  0.2408693E+03  0.7818608E-02  0.1119215E+00
         -5   -1    0    0    0  501 -0.00000000000E+00  0.00000000000E+00  0.14195257737E+04  0.14195335544E+04  0.47000000000E+01 0.  1.
          5   -1    0    0  501    0  0.00000000000E+00 -0.00000000000E+00 -0.43776348504E+02  0.44027930775E+02  0.47000000000E+01 0. -1.
          6    1    1    2  502    0  0.33229202727E+02  0.16531741315E+03  0.88037779343E+03  0.91273385286E+03  0.17200000000E+03 0. -1.
         -6    1    1    2    0  502 -0.33229202727E+02 -0.16531741315E+03  0.49537163177E+03  0.55082763236E+03  0.17200000000E+03 0.  1.
</event>
<event>
 4    1 -0.3240665E-004  0.2424566E+03  0.7818608E-02  0.1118167E+00
          5   -1    0    0  501    0  0.00000000000E+00  0.00000000000E+00  0.60087160379E+02  0.60270696382E+02  0.47000000000E+01 0. -1.
         -5   -1    0    0    0  501 -0.00000000000E+00 -0.00000000000E+00 -0.10973708557E+04  0.10973809207E+04  0.47000000000E+01 0.  1.
          6    1    1    2  502    0 -0.12276343724E+03 -0.11887111680E+03 -0.32667692796E+03  0.40682062287E+03  0.17200000000E+03 0. -1.
         -6    1    1    2    0  502  0.12276343724E+03  0.11887111680E+03 -0.71060676740E+03  0.75083099417E+03  0.17200000000E+03 0.  1.
</event>
<event>
 4    1 -0.3240665E-004  0.4129123E+03  0.7818608E-02  0.1039398E+00
          5   -1    0    0  501    0  0.00000000000E+00  0.00000000000E+00  0.94596073539E+02  0.94712761173E+02  0.47000000000E+01 0. -1.
         -5   -1    0    0    0  501 -0.00000000000E+00 -0.00000000000E+00 -0.25032926715E+04  0.25032970837E+04  0.47000000000E+01 0.  1.
          6    1    1    2  502    0  0.33825286333E+03 -0.16278083212E+03 -0.51638999074E+03  0.66117714827E+03  0.17200000000E+03 0. -1.
         -6    1    1    2    0  502 -0.33825286333E+03  0.16278083212E+03 -0.18923066072E+04  0.19368326966E+04  0.17200000000E+03 0.  1.
</event>
<event>
 4    1 -0.3240665E-004  0.2223890E+03  0.7818608E-02  0.1132114E+00
          5   -1    0    0  501    0  0.00000000000E+00  0.00000000000E+00  0.33572122362E+03  0.33575412133E+03  0.47000000000E+01 0. -1.
         -5   -1    0    0    0  501 -0.00000000000E+00 -0.00000000000E+00 -0.31360599193E+03  0.31364120931E+03  0.47000000000E+01 0.  1.
          6    1    1    2  502    0 -0.12823339104E+03 -0.58558142593E+02  0.24751964449E+03  0.33275040654E+03  0.17200000000E+03 0. -1.
         -6    1    1    2    0  502  0.12823339104E+03  0.58558142593E+02 -0.22540441281E+03  0.31664492410E+03  0.17200000000E+03 0.  1.
</event>
<event>
 4    1 -0.3240665E-004  0.1722381E+03  0.7818608E-02  0.1175534E+00
          5   -1    0    0  501    0  0.00000000000E+00  0.00000000000E+00  0.19990625334E+03  0.19996149660E+03  0.47000000000E+01 0. -1.
         -5   -1    0    0    0  501 -0.00000000000E+00 -0.00000000000E+00 -0.17837034154E+03  0.17843225253E+03  0.47000000000E+01 0.  1.
          6    1    1    2  502    0  0.31213723399E+01  0.84977173682E+01  0.88440967619E+02  0.19361755840E+03  0.17200000000E+03 0. -1.
         -6    1    1    2    0  502 -0.31213723399E+01 -0.84977173682E+01 -0.66905055824E+02  0.18477619073E+03  0.17200000000E+03 0.  1.
</event>
<event>
 4    1 -0.3240665E-004  0.1893368E+03  0.7818608E-02  0.1159061E+00
          5   -1    0    0  501    0  0.00000000000E+00  0.00000000000E+00  0.12980963917E+03  0.12989469743E+03  0.47000000000E+01 0. -1.
         -5   -1    0    0    0  501 -0.00000000000E+00 -0.00000000000E+00 -0.29100612740E+03  0.29104407945E+03  0.47000000000E+01 0.  1.
          6    1    1    2  502    0  0.70246370704E+02  0.36467213328E+02 -0.32760244277E+02  0.19215005556E+03  0.17200000000E+03 0.  1.
         -6    1    1    2    0  502 -0.70246370704E+02 -0.36467213328E+02 -0.12843624396E+03  0.22878872133E+03  0.17200000000E+03 0.  1.
</event>
<event>
 4    1 -0.3240665E-004  0.2270856E+03  0.7818608E-02  0.1128708E+00
          5   -1    0    0  501    0  0.00000000000E+00  0.00000000000E+00  0.22367522082E+03  0.22372459500E+03  0.47000000000E+01 0. -1.
         -5   -1    0    0    0  501 -0.00000000000E+00 -0.00000000000E+00 -0.28217045616E+03  0.28220959645E+03  0.47000000000E+01 0.  1.
          6    1    1    2  502    0  0.14791754791E+03  0.10210715078E+02 -0.13753341779E+03  0.26548691247E+03  0.17200000000E+03 0. -1.
         -6    1    1    2    0  502 -0.14791754791E+03 -0.10210715078E+02  0.79038182449E+02  0.24044727898E+03  0.17200000000E+03 0.  1.
</event>
<event>
 4    1 -0.3240665E-004  0.1980033E+03  0.7818608E-02  0.1151435E+00
         -5   -1    0    0    0  501 -0.00000000000E+00  0.00000000000E+00  0.21186532594E+03  0.21191745170E+03  0.47000000000E+01 0.  1.
          5   -1    0    0  501    0  0.00000000000E+00 -0.00000000000E+00 -0.55359837690E+03  0.55361832783E+03  0.47000000000E+01 0. -1.
          6    1    1    2  502    0 -0.71777710903E+02  0.66852524253E+02 -0.48319532778E+03  0.52219060176E+03  0.17200000000E+03 0. -1.
         -6    1    1    2    0  502  0.71777710903E+02 -0.66852524253E+02  0.14146227681E+03  0.24334517777E+03  0.17200000000E+03 0.  1.
</event>
<event>
 4    1 -0.3240665E-004  0.2169744E+03  0.7818608E-02  0.1136159E+00
          5   -1    0    0  501    0  0.00000000000E+00  0.00000000000E+00  0.40928401861E+03  0.40931100387E+03  0.47000000000E+01 0. -1.
         -5   -1    0    0    0  501 -0.00000000000E+00 -0.00000000000E+00 -0.20636425838E+03  0.20641777330E+03  0.47000000000E+01 0.  1.
          6    1    1    2  502    0  0.11472638242E+03  0.65816030896E+02  0.30631704600E+03  0.37537717754E+03  0.17200000000E+03 0. -1.
         -6    1    1    2    0  502 -0.11472638242E+03 -0.65816030896E+02 -0.10339728576E+03  0.24035159964E+03  0.17200000000E+03 0.  1.
</event>
<event>
 4    1 -0.3240665E-004  0.2218443E+03  0.7818608E-02  0.1132515E+00
         -5   -1    0    0    0  501 -0.00000000000E+00  0.00000000000E+00  0.49392199325E+03  0.49394435457E+03  0.47000000000E+01 0.  1.
          5   -1    0    0  501    0  0.00000000000E+00 -0.00000000000E+00 -0.27854943736E+03  0.27858908639E+03  0.47000000000E+01 0. -1.
          6    1    1    2  502    0 -0.34064995697E+02  0.13590615817E+03 -0.20189347204E+03  0.29995980033E+03  0.17200000000E+03 0. -1.
         -6    1    1    2    0  502  0.34064995697E+02 -0.13590615817E+03  0.41726602792E+03  0.47257364063E+03  0.17200000000E+03 0.  1.
</event>
<event>
 4    1 -0.3240665E-004  0.2153375E+03  0.7818608E-02  0.1137408E+00
         -5   -1    0    0    0  501 -0.00000000000E+00  0.00000000000E+00  0.97772135018E+03  0.97773264679E+03  0.47000000000E+01 0.  1.
          5   -1    0    0  501    0  0.00000000000E+00 -0.00000000000E+00 -0.50931728868E+02  0.51148128074E+02  0.47000000000E+01 0. -1.
          6    1    1    2  502    0 -0.98283361399E+02 -0.84419188496E+02  0.32631719550E+03  0.39096435975E+03  0.17200000000E+03 0. -1.
         -6    1    1    2    0  502  0.98283361399E+02  0.84419188496E+02  0.60047242581E+03  0.63791641512E+03  0.17200000000E+03 0.  1.
</event>
<event>
 4    1 -0.3240665E-004  0.2662024E+03  0.7818608E-02  0.1103473E+00
         -5   -1    0    0    0  501 -0.00000000000E+00  0.00000000000E+00  0.56429053902E+02  0.56624448115E+02  0.47000000000E+01 0.  1.
          5   -1    0    0  501    0  0.00000000000E+00 -0.00000000000E+00 -0.13896502091E+04  0.13896581571E+04  0.47000000000E+01 0. -1.
          6    1    1    2  502    0 -0.18899066487E+03 -0.74580633919E+02 -0.89299987797E+03  0.93183288439E+03  0.17200000000E+03 0. -1.
         -6    1    1    2    0  502  0.18899066487E+03  0.74580633919E+02 -0.44022127725E+03  0.51444972088E+03  0.17200000000E+03 0. -1.
</event>
<event>
 4    1 -0.3240665E-004  0.1757431E+03  0.7818608E-02  0.1171988E+00
          5   -1    0    0  501    0  0.00000000000E+00  0.00000000000E+00  0.17312223599E+03  0.17318602309E+03  0.47000000000E+01 0. -1.
         -5   -1    0    0    0  501 -0.00000000000E+00 -0.00000000000E+00 -0.20931549514E+03  0.20936825573E+03  0.47000000000E+01 0.  1.
          6    1    1    2  502    0  0.13747555521E+02 -0.33356209915E+02 -0.91733300588E+02  0.19824386613E+03  0.17200000000E+03 0.  1.
         -6    1    1    2    0  502 -0.13747555521E+02  0.33356209915E+02  0.55540041434E+02  0.18431041269E+03  0.17200000000E+03 0. -1.
</event>
<event>
 4    1 -0.3240665E-004  0.1741393E+03  0.7818608E-02  0.1173599E+00
         -5   -1    0    0    0  501 -0.00000000000E+00  0.00000000000E+00  0.35755342432E+03  0.35758431347E+03  0.47000000000E+01 0.  1.
          5   -1    0    0  501    0  0.00000000000E+00 -0.00000000000E+00 -0.84894231083E+02  0.85024234611E+02  0.47000000000E+01 0. -1.
          6    1    1    2  502    0 -0.19748195826E+02 -0.18722054058E+02  0.14658933616E+03  0.22762455936E+03  0.17200000000E+03 0.  1.
         -6    1    1    2    0  502  0.19748195826E+02  0.18722054058E+02  0.12606985707E+03  0.21498398873E+03  0.17200000000E+03 0.  1.
</event>
<event>
 4    1 -0.3240665E-004  0.3523225E+03  0.7818608E-02  0.1061666E+00
         -5   -1    0    0    0  501 -0.00000000000E+00  0.00000000000E+00  0.40132567945E+03  0.40135319979E+03  0.47000000000E+01 0.  1.
          5   -1    0    0  501    0  0.00000000000E+00 -0.00000000000E+00 -0.66314540162E+03  0.66316205688E+03  0.47000000000E+01 0. -1.
          6    1    1    2  502    0 -0.15438128579E+03  0.26592021698E+03 -0.51972159269E+03  0.62788667537E+03  0.17200000000E+03 0. -1.
         -6    1    1    2    0  502  0.15438128579E+03 -0.26592021698E+03  0.25790187052E+03  0.43662858131E+03  0.17200000000E+03 0.  1.
</event>
<event>
 4    1 -0.3240665E-004  0.1763942E+03  0.7818608E-02  0.1171339E+00
          5   -1    0    0  501    0  0.00000000000E+00  0.00000000000E+00  0.38644425910E+03  0.38647283914E+03  0.47000000000E+01 0. -1.
         -5   -1    0    0    0  501 -0.00000000000E+00 -0.00000000000E+00 -0.85257209619E+02  0.85386660504E+02  0.47000000000E+01 0.  1.
          6    1    1    2  502    0 -0.23706308668E+01 -0.39054940278E+02  0.20676221027E+03  0.27178211833E+03  0.17200000000E+03 0.  1.
         -6    1    1    2    0  502  0.23706308668E+01  0.39054940278E+02  0.94424839211E+02  0.20007738131E+03  0.17200000000E+03 0.  1.
</event>
<event>
 4    1 -0.3240665E-004  0.2579117E+03  0.7818608E-02  0.1108404E+00
         -5   -1    0    0    0  501 -0.00000000000E+00  0.00000000000E+00  0.97149629916E+03  0.97150766815E+03  0.47000000000E+01 0.  1.
          5   -1    0    0  501    0  0.00000000000E+00 -0.00000000000E+00 -0.90734489796E+02  0.90856137044E+02  0.47000000000E+01 0. -1.
          6    1    1    2  502    0 -0.12793078372E+03 -0.14341605828E+03  0.70382993298E+03  0.74959657534E+03  0.17200000000E+03 0.  1.
         -6    1    1    2    0  502  0.12793078372E+03  0.14341605828E+03  0.17693187638E+03  0.31276722986E+03  0.17200000000E+03 0. -1.
</event>
<event>
 4    1 -0.3240665E-004  0.1824105E+03  0.7818608E-02  0.1165490E+00
          5   -1    0    0  501    0  0.00000000000E+00  0.00000000000E+00  0.47047977639E+02  0.47282155196E+02  0.47000000000E+01 0. -1.
         -5   -1    0    0    0  501 -0.00000000000E+00 -0.00000000000E+00 -0.11568709223E+04  0.11568804695E+04  0.47000000000E+01 0.  1.
          6    1    1    2  502    0  0.36226693027E+02  0.48756796063E+02 -0.17875946129E+03  0.25539879297E+03  0.17200000000E+03 0. -1.
         -6    1    1    2    0  502 -0.36226693027E+02 -0.48756796063E+02 -0.93106348334E+03  0.94876383176E+03  0.17200000000E+03 0.  1.
</event>
<event>
 4    1 -0.3240665E-004  0.2228658E+03  0.7818608E-02  0.1131764E+00
          5   -1    0    0  501    0  0.00000000000E+00  0.00000000000E+00  0.12189116211E+03  0.12198174208E+03  0.47000000000E+01 0. -1.
         -5   -1    0    0    0  501 -0.00000000000E+00 -0.00000000000E+00 -0.40750764591E+03  0.40753474880E+03  0.47000000000E+01 0.  1.
          6    1    1    2  502    0 -0.69035366980E+02 -0.12377105706E+03 -0.14968981151E+03  0.26847010286E+03  0.17200000000E+03 0. -1.
         -6    1    1    2    0  502  0.69035366980E+02  0.12377105706E+03 -0.13592667229E+03  0.26104638802E+03  0.17200000000E+03 0. -1.
</event>
<event>
 4    1 -0.3240665E-004  0.2362503E+03  0.7818608E-02  0.1122316E+00
          5   -1    0    0  501    0  0.00000000000E+00  0.00000000000E+00  0.42789116616E+03  0.42791697802E+03  0.47000000000E+01 0. -1.
         -5   -1    0    0    0  501 -0.00000000000E+00 -0.00000000000E+00 -0.13447722005E+03  0.13455932786E+03  0.47000000000E+01 0.  1.
          6    1    1    2  502    0  0.16194633444E+03  0.18932644774E+01  0.19584852675E+03  0.30687268552E+03  0.17200000000E+03 0. -1.
         -6    1    1    2    0  502 -0.16194633444E+03 -0.18932644774E+01  0.97565419361E+02  0.25560362036E+03  0.17200000000E+03 0.  1.
</event>
<event>
 4    1 -0.3240665E-004  0.1795879E+03  0.7818608E-02  0.1168203E+00
          5   -1    0    0  501    0  0.00000000000E+00  0.00000000000E+00  0.48797569533E+03  0.48799832913E+03  0.47000000000E+01 0. -1.
         -5   -1    0    0    0  501 -0.00000000000E+00 -0.00000000000E+00 -0.66002931702E+02  0.66170061155E+02  0.47000000000E+01 0.  1.
          6    1    1    2  502    0  0.13668535179E+02 -0.49809331362E+02  0.20646246561E+03  0.27363944900E+03  0.17200000000E+03 0.  1.
         -6    1    1    2    0  502 -0.13668535179E+02  0.49809331362E+02  0.21551029801E+03  0.28052894128E+03  0.17200000000E+03 0.  1.
</event>
<event>
 4    1 -0.3240665E-004  0.4634561E+03  0.7818608E-02  0.1023784E+00
          5   -1    0    0  501    0  0.00000000000E+00  0.00000000000E+00  0.29370582549E+03  0.29374342874E+03  0.47000000000E+01 0. -1.
         -5   -1    0    0    0  501 -0.00000000000E+00 -0.00000000000E+00 -0.12858083141E+04  0.12858169040E+04  0.47000000000E+01 0.  1.
          6    1    1    2  502    0  0.39512007287E+03  0.17055100101E+03  0.22622033590E+02  0.46400783650E+03  0.17200000000E+03 0. -1.
         -6    1    1    2    0  502 -0.39512007287E+03 -0.17055100101E+03 -0.10147245222E+04  0.11155524963E+04  0.17200000000E+03 0.  1.
</event>
<event>
 4    1 -0.3240665E-004  0.3018617E+03  0.7818608E-02  0.1084314E+00
          5   -1    0    0  501    0  0.00000000000E+00  0.00000000000E+00  0.16058046224E+03  0.16064922923E+03  0.47000000000E+01 0. -1.
         -5   -1    0    0    0  501 -0.00000000000E+00 -0.00000000000E+00 -0.65733883397E+03  0.65735563635E+03  0.47000000000E+01 0.  1.
          6    1    1    2  502    0 -0.95869354365E+02  0.22879152831E+03 -0.96970328177E+02  0.31705479192E+03  0.17200000000E+03 0. -1.
         -6    1    1    2    0  502  0.95869354365E+02 -0.22879152831E+03 -0.39978804355E+03  0.50095007366E+03  0.17200000000E+03 0.  1.
</event>
<event>
 4    1 -0.3240665E-004  0.2238626E+03  0.7818608E-02  0.1131036E+00
         -5   -1    0    0    0  501 -0.00000000000E+00  0.00000000000E+00  0.23982372056E+03  0.23986977080E+03  0.47000000000E+01 0.  1.
          5   -1    0    0  501    0  0.00000000000E+00 -0.00000000000E+00 -0.23197616821E+03  0.23202377597E+03  0.47000000000E+01 0. -1.
          6    1    1    2  502    0 -0.18733128140E+02  0.14205462576E+03 -0.70524661572E+02  0.23470870176E+03  0.17200000000E+03 0. -1.
         -6    1    1    2    0  502  0.18733128140E+02 -0.14205462576E+03  0.78372213923E+02  0.23718484502E+03  0.17200000000E+03 0.  1.
</event>
<event>
 4    1 -0.3240665E-004  0.1751997E+03  0.7818608E-02  0.1172531E+00
          5   -1    0    0  501    0  0.00000000000E+00  0.00000000000E+00  0.28763870555E+03  0.28767710186E+03  0.47000000000E+01 0. -1.
         -5   -1    0    0    0  501 -0.00000000000E+00 -0.00000000000E+00 -0.10672381839E+03  0.10682725968E+03  0.47000000000E+01 0.  1.
          6    1    1    2  502    0 -0.84782042279E+01  0.32234426362E+02  0.84198537117E+02  0.19438192262E+03  0.17200000000E+03 0.  1.
         -6    1    1    2    0  502  0.84782042279E+01 -0.32234426362E+02  0.96716350051E+02  0.20012243891E+03  0.17200000000E+03 0.  1.
</event>
<event>
 4    1 -0.3240665E-004  0.1823664E+03  0.7818608E-02  0.1165532E+00
          5   -1    0    0  501    0  0.00000000000E+00  0.00000000000E+00  0.36470659666E+03  0.36473688002E+03  0.47000000000E+01 0. -1.
         -5   -1    0    0    0  501 -0.00000000000E+00 -0.00000000000E+00 -0.95559966708E+02  0.95675478766E+02  0.47000000000E+01 0.  1.
          6    1    1    2  502    0  0.49231069288E+00  0.60607581118E+02  0.84851890351E+02  0.20114016147E+03  0.17200000000E+03 0.  1.
         -6    1    1    2    0  502 -0.49231069288E+00 -0.60607581118E+02  0.18429473960E+03  0.25927219732E+03  0.17200000000E+03 0.  1.
</event>
<event>
 4    1 -0.3240665E-004  0.2121011E+03  0.7818608E-02  0.1139913E+00
          5   -1    0    0  501    0  0.00000000000E+00  0.00000000000E+00  0.48235194106E+02  0.48463635340E+02  0.47000000000E+01 0. -1.
         -5   -1    0    0    0  501 -0.00000000000E+00 -0.00000000000E+00 -0.10477397427E+04  0.10477502844E+04  0.47000000000E+01 0.  1.
          6    1    1    2  502    0 -0.11777172202E+03  0.39149444731E+02 -0.31620542035E+03  0.38075284029E+03  0.17200000000E+03 0.  1.
         -6    1    1    2    0  502  0.11777172202E+03 -0.39149444731E+02 -0.68329912823E+03  0.71546107942E+03  0.17200000000E+03 0.  1.
</event>
<event>
 4    1 -0.3240665E-004  0.1948943E+03  0.7818608E-02  0.1154120E+00
         -5   -1    0    0    0  501 -0.00000000000E+00  0.00000000000E+00  0.63103449361E+02  0.63278237344E+02  0.47000000000E+01 0.  1.
          5   -1    0    0  501    0  0.00000000000E+00 -0.00000000000E+00 -0.10430128406E+04  0.10430234301E+04  0.47000000000E+01 0. -1.
          6    1    1    2  502    0 -0.71792850198E+02  0.56969828282E+02 -0.85005203634E+03  0.87210792861E+03  0.17200000000E+03 0. -1.
         -6    1    1    2    0  502  0.71792850198E+02 -0.56969828282E+02 -0.12985735494E+03  0.23419373883E+03  0.17200000000E+03 0.  1.
</event>
<event>
 4    1 -0.3240665E-004  0.2048686E+03  0.7818608E-02  0.1145695E+00
         -5   -1    0    0    0  501 -0.00000000000E+00  0.00000000000E+00  0.97170432018E+03  0.97171568674E+03  0.47000000000E+01 0.  1.
          5   -1    0    0  501    0  0.00000000000E+00 -0.00000000000E+00 -0.50135059874E+02  0.50354882868E+02  0.47000000000E+01 0. -1.
          6    1    1    2  502    0  0.10587927110E+03 -0.34303252490E+02  0.26920096219E+03  0.33829024701E+03  0.17200000000E+03 0. -1.
         -6    1    1    2    0  502 -0.10587927110E+03  0.34303252490E+02  0.65236829811E+03  0.68378032259E+03  0.17200000000E+03 0. -1.
</event>
<event>
 4    1 -0.3240665E-004  0.1774795E+03  0.7818608E-02  0.1170265E+00
         -5   -1    0    0    0  501 -0.00000000000E+00  0.00000000000E+00  0.48600657251E+03  0.48602929801E+03  0.47000000000E+01 0.  1.
          5   -1    0    0  501    0  0.00000000000E+00 -0.00000000000E+00 -0.66193534726E+02  0.66360184144E+02  0.47000000000E+01 0. -1.
          6    1    1    2  502    0  0.43427595509E+02  0.53853181671E+01  0.25130194160E+03  0.30765503987E+03  0.17200000000E+03 0.  1.
         -6    1    1    2    0  502 -0.43427595509E+02 -0.53853181671E+01  0.16851109618E+03  0.24473444228E+03  0.17200000000E+03 0. -1.
</event>
<event>
 4    1 -0.3240665E-004  0.4405635E+03  0.7818608E-02  0.1030574E+00
          5   -1    0    0  501    0  0.00000000000E+00  0.00000000000E+00  0.15891307590E+03  0.15898256411E+03  0.47000000000E+01 0. -1.
         -5   -1    0    0    0  501 -0.00000000000E+00 -0.00000000000E+00 -0.12676503162E+04  0.12676590292E+04  0.47000000000E+01 0.  1.
          6    1    1    2  502    0  0.37494494470E+03 -0.15468845782E+03 -0.69111948159E+03  0.81959890701E+03  0.17200000000E+03 0.  1.
         -6    1    1    2    0  502 -0.37494494470E+03  0.15468845782E+03 -0.41761775875E+03  0.60704268628E+03  0.17200000000E+03 0.  1.
</event>
<event>
 4    1 -0.3240665E-004  0.2590116E+03  0.7818608E-02  0.1107739E+00
         -5   -1    0    0    0  501 -0.00000000000E+00  0.00000000000E+00  0.52249381684E+02  0.52460345847E+02  0.47000000000E+01 0.  1.
          5   -1    0    0  501    0  0.00000000000E+00 -0.00000000000E+00 -0.19787682213E+04  0.19787738030E+04  0.47000000000E+01 0. -1.
          6    1    1    2  502    0  0.90379491103E+01 -0.19344593804E+03 -0.15662488716E+04  0.15875208796E+04  0.17200000000E+03 0. -1.
         -6    1    1    2    0  502 -0.90379491103E+01  0.19344593804E+03 -0.36026996802E+03  0.44371326927E+03  0.17200000000E+03 0.  1.
</event>
<event>
 4    1 -0.3240665E-004  0.2439772E+03  0.7818608E-02  0.1117171E+00
         -5   -1    0    0    0  501 -0.00000000000E+00  0.00000000000E+00  0.65954500572E+02  0.66121752439E+02  0.47000000000E+01 0.  1.
          5   -1    0    0  501    0  0.00000000000E+00 -0.00000000000E+00 -0.10680933984E+04  0.10681037392E+04  0.47000000000E+01 0. -1.
          6    1    1    2  502    0  0.55081640170E+02 -0.16403313671E+03 -0.72522581731E+03  0.76516491237E+03  0.17200000000E+03 0. -1.
         -6    1    1    2    0  502 -0.55081640170E+02  0.16403313671E+03 -0.27691308056E+03  0.36906057932E+03  0.17200000000E+03 0.  1.
</event>
<event>
 4    1 -0.3240665E-004  0.1778883E+03  0.7818608E-02  0.1169863E+00
          5   -1    0    0  501    0  0.00000000000E+00  0.00000000000E+00  0.33144953353E+03  0.33148285518E+03  0.47000000000E+01 0. -1.
         -5   -1    0    0    0  501 -0.00000000000E+00 -0.00000000000E+00 -0.14667968215E+03  0.14675496297E+03  0.47000000000E+01 0.  1.
          6    1    1    2  502    0 -0.34759800880E+02 -0.29189180677E+02 -0.48970082464E+02  0.18450561239E+03  0.17200000000E+03 0.  1.
         -6    1    1    2    0  502  0.34759800880E+02  0.29189180677E+02  0.23373993385E+03  0.29373220576E+03  0.17200000000E+03 0. -1.
</event>
<event>
 4    1 -0.3240665E-004  0.1939288E+03  0.7818608E-02  0.1154965E+00
          5   -1    0    0  501    0  0.00000000000E+00  0.00000000000E+00  0.36445102756E+03  0.36448133215E+03  0.47000000000E+01 0. -1.
         -5   -1    0    0    0  501 -0.00000000000E+00 -0.00000000000E+00 -0.12109951382E+03  0.12119068548E+03  0.47000000000E+01 0.  1.
          6    1    1    2  502    0  0.70325028807E+02 -0.55486658030E+02  0.21523685790E+03  0.28971586752E+03  0.17200000000E+03 0. -1.
         -6    1    1    2    0  502 -0.70325028807E+02  0.55486658030E+02  0.28114655839E+02  0.19595615012E+03  0.17200000000E+03 0.  1.
</event>
<event>
 4    1 -0.3240665E-004  0.3107691E+03  0.7818608E-02  0.1079978E+00
          5   -1    0    0  501    0  0.00000000000E+00  0.00000000000E+00  0.17188084776E+03  0.17194509538E+03  0.47000000000E+01 0. -1.
         -5   -1    0    0    0  501 -0.00000000000E+00 -0.00000000000E+00 -0.56264608595E+03  0.56266571606E+03  0.47000000000E+01 0.  1.
          6    1    1    2  502    0  0.19519039424E+03 -0.16998269710E+03 -0.18037561212E+03  0.35932265273E+03  0.17200000000E+03 0.  1.
         -6    1    1    2    0  502 -0.19519039424E+03  0.16998269710E+03 -0.21038962607E+03  0.37528815872E+03  0.17200000000E+03 0.  1.
</event>
<event>
 4    1 -0.3240665E-004  0.1803500E+03  0.7818608E-02  0.1167465E+00
          5   -1    0    0  501    0  0.00000000000E+00  0.00000000000E+00  0.32756463758E+03  0.32759835438E+03  0.47000000000E+01 0. -1.
         -5   -1    0    0    0  501 -0.00000000000E+00 -0.00000000000E+00 -0.99206120472E+02  0.99317391927E+02  0.47000000000E+01 0.  1.
          6    1    1    2  502    0  0.42442287862E+02 -0.33775293015E+02  0.11286008263E+03  0.21275224198E+03  0.17200000000E+03 0.  1.
         -6    1    1    2    0  502 -0.42442287862E+02  0.33775293015E+02  0.11549843447E+03  0.21416350432E+03  0.17200000000E+03 0.  1.
</event>
<event>
 4    1 -0.3240665E-004  0.1759360E+03  0.7818608E-02  0.1171795E+00
          5   -1    0    0  501    0  0.00000000000E+00  0.00000000000E+00  0.15301734151E+03  0.15308950585E+03  0.47000000000E+01 0. -1.
         -5   -1    0    0    0  501 -0.00000000000E+00 -0.00000000000E+00 -0.23647970779E+03  0.23652640908E+03  0.47000000000E+01 0.  1.
          6    1    1    2  502    0 -0.31828605120E+02  0.18878710578E+02  0.32484288113E+02  0.17890973923E+03  0.17200000000E+03 0. -1.
         -6    1    1    2    0  502  0.31828605120E+02 -0.18878710578E+02 -0.11594665439E+03  0.21070617571E+03  0.17200000000E+03 0.  1.
</event>
<event>
 4    1 -0.3240665E-004  0.2637911E+03  0.7818608E-02  0.1104887E+00
         -5   -1    0    0    0  501 -0.00000000000E+00  0.00000000000E+00  0.69499984586E+03  0.69501573777E+03  0.47000000000E+01 0.  1.
          5   -1    0    0  501    0  0.00000000000E+00 -0.00000000000E+00 -0.21423943693E+03  0.21429098519E+03  0.47000000000E+01 0. -1.
          6    1    1    2  502    0  0.19899544345E+03  0.20063339580E+02 -0.91470942062E+02  0.27920003107E+03  0.17200000000E+03 0. -1.
         -6    1    1    2    0  502 -0.19899544345E+03 -0.20063339580E+02  0.57223135099E+03  0.63010669189E+03  0.17200000000E+03 0.  1.
</event>
<event>
 4    1 -0.3240665E-004  0.2392264E+03  0.7818608E-02  0.1120309E+00
         -5   -1    0    0    0  501 -0.00000000000E+00  0.00000000000E+00  0.32967276074E+03  0.32970626196E+03  0.47000000000E+01 0.  1.
          5   -1    0    0  501    0  0.00000000000E+00 -0.00000000000E+00 -0.18935233085E+03  0.18941065229E+03  0.47000000000E+01 0. -1.
          6    1    1    2  502    0  0.13591475197E+03 -0.95772865802E+02  0.14519521720E+03  0.27984087036E+03  0.17200000000E+03 0.  1.
         -6    1    1    2    0  502 -0.13591475197E+03  0.95772865802E+02 -0.48747873144E+01  0.23927604388E+03  0.17200000000E+03 0. -1.
</event>
<event>
 4    1 -0.3240665E-004  0.2254108E+03  0.7818608E-02  0.1129912E+00
         -5   -1    0    0    0  501 -0.00000000000E+00  0.00000000000E+00  0.35238989784E+03  0.35242123957E+03  0.47000000000E+01 0.  1.
          5   -1    0    0  501    0  0.00000000000E+00 -0.00000000000E+00 -0.16673181677E+03  0.16679804772E+03  0.47000000000E+01 0. -1.
          6    1    1    2  502    0  0.83894280218E+02  0.11911242464E+03 -0.27655125302E+01  0.22542774456E+03  0.17200000000E+03 0. -1.
         -6    1    1    2    0  502 -0.83894280218E+02 -0.11911242464E+03  0.18842359360E+03  0.29379154273E+03  0.17200000000E+03 0. -1.
</event>
<event>
 4    1 -0.3240665E-004  0.1995557E+03  0.7818608E-02  0.1150114E+00
         -5   -1    0    0    0  501 -0.00000000000E+00  0.00000000000E+00  0.83069982305E+02  0.83202836251E+02  0.47000000000E+01 0.  1.
          5   -1    0    0  501    0  0.00000000000E+00 -0.00000000000E+00 -0.65727036319E+03  0.65728716732E+03  0.47000000000E+01 0. -1.
          6    1    1    2  502    0  0.10040711008E+03 -0.12526083212E+02 -0.47997694376E+03  0.51980800019E+03  0.17200000000E+03 0. -1.
         -6    1    1    2    0  502 -0.10040711008E+03  0.12526083212E+02 -0.94223437126E+02  0.22068200339E+03  0.17200000000E+03 0.  1.
</event>
<event>
 4    1 -0.3240665E-004  0.3440652E+03  0.7818608E-02  0.1065078E+00
         -5   -1    0    0    0  501 -0.00000000000E+00  0.00000000000E+00  0.18488527405E+03  0.18494500415E+03  0.47000000000E+01 0.  1.
          5   -1    0    0  501    0  0.00000000000E+00 -0.00000000000E+00 -0.16186041247E+04  0.16186109485E+04  0.47000000000E+01 0. -1.
          6    1    1    2  502    0 -0.22316485005E+03 -0.19746968718E+03 -0.14179856259E+04  0.14591312700E+04  0.17200000000E+03 0. -1.
         -6    1    1    2    0  502  0.22316485005E+03  0.19746968718E+03 -0.15733224718E+02  0.34442468264E+03  0.17200000000E+03 0.  1.
</event>
<event>
 4    1 -0.3240665E-004  0.2753274E+03  0.7818608E-02  0.1098269E+00
         -5   -1    0    0    0  501 -0.00000000000E+00  0.00000000000E+00  0.27229216838E+03  0.27233272841E+03  0.47000000000E+01 0.  1.
          5   -1    0    0  501    0  0.00000000000E+00 -0.00000000000E+00 -0.36212277343E+03  0.36215327286E+03  0.47000000000E+01 0. -1.
          6    1    1    2  502    0  0.18458690785E+03 -0.11022176222E+03 -0.19751729234E+03  0.33884840887E+03  0.17200000000E+03 0. -1.
         -6    1    1    2    0  502 -0.18458690785E+03  0.11022176222E+03  0.10768668729E+03  0.29563759239E+03  0.17200000000E+03 0.  1.
</event>
<event>
 4    1 -0.3240665E-004  0.1996157E+03  0.7818608E-02  0.1150064E+00
          5   -1    0    0  501    0  0.00000000000E+00  0.00000000000E+00  0.28701690467E+03  0.28705538415E+03  0.47000000000E+01 0. -1.
         -5   -1    0    0    0  501 -0.00000000000E+00 -0.00000000000E+00 -0.15232222202E+03  0.15239471553E+03  0.47000000000E+01 0.  1.
          6    1    1    2  502    0  0.45134220508E+02  0.90693713495E+02  0.13292977677E+03  0.23982654791E+03  0.17200000000E+03 0. -1.
         -6    1    1    2    0  502 -0.45134220508E+02 -0.90693713495E+02  0.17649058826E+01  0.19962355177E+03  0.17200000000E+03 0.  1.
</event>
<event>
 4    1 -0.3240665E-004  0.2563267E+03  0.7818608E-02  0.1109370E+00
          5   -1    0    0  501    0  0.00000000000E+00  0.00000000000E+00  0.10801495085E+04  0.10801597339E+04  0.47000000000E+01 0. -1.
         -5   -1    0    0    0  501 -0.00000000000E+00 -0.00000000000E+00 -0.61118745335E+02  0.61299192746E+02  0.47000000000E+01 0.  1.
          6    1    1    2  502    0  0.16776817729E+03 -0.89293000229E+02  0.55515147494E+03  0.61147081805E+03  0.17200000000E+03 0. -1.
         -6    1    1    2    0  502 -0.16776817729E+03  0.89293000229E+02  0.46387928826E+03  0.52998810862E+03  0.17200000000E+03 0.  1.
</event>
<event>
 4    1 -0.3240665E-004  0.2122447E+03  0.7818608E-02  0.1139801E+00
          5   -1    0    0  501    0  0.00000000000E+00  0.00000000000E+00  0.73030320614E+02  0.73181402890E+02  0.47000000000E+01 0. -1.
         -5   -1    0    0    0  501 -0.00000000000E+00 -0.00000000000E+00 -0.63945019153E+03  0.63946746395E+03  0.47000000000E+01 0.  1.
          6    1    1    2  502    0 -0.25144512693E+02 -0.12178499617E+03 -0.35137910270E+03  0.41050591424E+03  0.17200000000E+03 0. -1.
         -6    1    1    2    0  502  0.25144512693E+02  0.12178499617E+03 -0.21504076822E+03  0.30214295260E+03  0.17200000000E+03 0. -1.
</event>
<event>
 4    1 -0.3240665E-004  0.2368733E+03  0.7818608E-02  0.1121893E+00
         -5   -1    0    0    0  501 -0.00000000000E+00  0.00000000000E+00  0.67063262221E+02  0.67227755724E+02  0.47000000000E+01 0.  1.
          5   -1    0    0  501    0  0.00000000000E+00 -0.00000000000E+00 -0.99314275308E+03  0.99315387428E+03  0.47000000000E+01 0. -1.
          6    1    1    2  502    0 -0.15098275940E+03 -0.61066978481E+02 -0.67428060179E+03  0.71467705955E+03  0.17200000000E+03 0. -1.
         -6    1    1    2    0  502  0.15098275940E+03  0.61066978481E+02 -0.25179888907E+03  0.34570457045E+03  0.17200000000E+03 0.  1.
</event>
<event>
 4    1 -0.3240665E-004  0.1809558E+03  0.7818608E-02  0.1166881E+00
          5   -1    0    0  501    0  0.00000000000E+00  0.00000000000E+00  0.13952449248E+04  0.13952528409E+04  0.47000000000E+01 0. -1.
         -5   -1    0    0    0  501 -0.00000000000E+00 -0.00000000000E+00 -0.28341083303E+02  0.28728156968E+02  0.47000000000E+01 0.  1.
          6    1    1    2  502    0  0.65568148359E+01  0.55839137855E+02  0.38326882437E+03  0.42383958389E+03  0.17200000000E+03 0.  1.
         -6    1    1    2    0  502 -0.65568148359E+01 -0.55839137855E+02  0.98363501709E+03  0.10001414140E+04  0.17200000000E+03 0. -1.
</event>
<event>
 4    1 -0.3240665E-004  0.1771644E+03  0.7818608E-02  0.1170576E+00
         -5   -1    0    0    0  501 -0.00000000000E+00  0.00000000000E+00  0.24327185931E+03  0.24331725695E+03  0.47000000000E+01 0.  1.
          5   -1    0    0  501    0  0.00000000000E+00 -0.00000000000E+00 -0.16819329588E+03  0.16825895156E+03  0.47000000000E+01 0. -1.
          6    1    1    2  502    0  0.41518934057E+02 -0.89111892400E+01 -0.61864537799E+02  0.18765514173E+03  0.17200000000E+03 0. -1.
         -6    1    1    2    0  502 -0.41518934057E+02  0.89111892400E+01  0.13694310122E+03  0.22392106679E+03  0.17200000000E+03 0.  1.
</event>
<event>
 4    1 -0.3240665E-004  0.1734100E+03  0.7818608E-02  0.1174338E+00
         -5   -1    0    0    0  501 -0.00000000000E+00  0.00000000000E+00  0.88364856551E+03  0.88366106474E+03  0.47000000000E+01 0.  1.
          5   -1    0    0  501    0  0.00000000000E+00 -0.00000000000E+00 -0.42410895383E+02  0.42670529024E+02  0.47000000000E+01 0. -1.
          6    1    1    2  502    0 -0.16475285933E+02 -0.14683297013E+02  0.62790219398E+03  0.65140785954E+03  0.17200000000E+03 0.  1.
         -6    1    1    2    0  502  0.16475285933E+02  0.14683297013E+02  0.21333547615E+03  0.27492373423E+03  0.17200000000E+03 0. -1.
</event>
<event>
 4    1 -0.3240665E-004  0.1838265E+03  0.7818608E-02  0.1164150E+00
          5   -1    0    0  501    0  0.00000000000E+00  0.00000000000E+00  0.15246957686E+03  0.15254200034E+03  0.47000000000E+01 0. -1.
         -5   -1    0    0    0  501 -0.00000000000E+00 -0.00000000000E+00 -0.30187284372E+03  0.30190942976E+03  0.47000000000E+01 0.  1.
          6    1    1    2  502    0 -0.48381880255E+02  0.43213315055E+02  0.42535305344E+02  0.18868346280E+03  0.17200000000E+03 0. -1.
         -6    1    1    2    0  502  0.48381880255E+02 -0.43213315055E+02 -0.19193857221E+03  0.26576796729E+03  0.17200000000E+03 0.  1.
</event>
<event>
 4    1 -0.3240665E-004  0.1734160E+03  0.7818608E-02  0.1174332E+00
          5   -1    0    0  501    0  0.00000000000E+00  0.00000000000E+00  0.10212483760E+03  0.10223293234E+03  0.47000000000E+01 0. -1.
         -5   -1    0    0    0  501 -0.00000000000E+00 -0.00000000000E+00 -0.42985147744E+03  0.42987717159E+03  0.47000000000E+01 0.  1.
          6    1    1    2  502    0  0.90518238312E+01 -0.20178782221E+02 -0.14423043077E+02  0.17401477793E+03  0.17200000000E+03 0. -1.
         -6    1    1    2    0  502 -0.90518238312E+01  0.20178782221E+02 -0.31330359676E+03  0.35809532601E+03  0.17200000000E+03 0.  1.
</event>
<event>
 4    1 -0.3240665E-004  0.1908506E+03  0.7818608E-02  0.1157696E+00
          5   -1    0    0  501    0  0.00000000000E+00  0.00000000000E+00  0.35174240879E+03  0.35177380821E+03  0.47000000000E+01 0. -1.
         -5   -1    0    0    0  501 -0.00000000000E+00 -0.00000000000E+00 -0.26068804644E+03  0.26073041164E+03  0.47000000000E+01 0.  1.
          6    1    1    2  502    0  0.27740544564E+02  0.77912874505E+02  0.28331544218E+03  0.34160151288E+03  0.17200000000E+03 0. -1.
         -6    1    1    2    0  502 -0.27740544564E+02 -0.77912874505E+02 -0.19226107983E+03  0.27090270697E+03  0.17200000000E+03 0.  1.
</event>
<event>
 4    1 -0.3240665E-004  0.1872218E+03  0.7818608E-02  0.1160991E+00
          5   -1    0    0  501    0  0.00000000000E+00  0.00000000000E+00  0.12401493190E+04  0.12401582252E+04  0.47000000000E+01 0. -1.
         -5   -1    0    0    0  501 -0.00000000000E+00 -0.00000000000E+00 -0.28064973313E+02  0.28455803047E+02  0.47000000000E+01 0.  1.
          6    1    1    2  502    0 -0.48286336084E+01 -0.73788022598E+02  0.59754932917E+03  0.62619261316E+03  0.17200000000E+03 0. -1.
         -6    1    1    2    0  502  0.48286336084E+01  0.73788022598E+02  0.61453501652E+03  0.64242141504E+03  0.17200000000E+03 0. -1.
</event>
<event>
 4    1 -0.3240665E-004  0.1902568E+03  0.7818608E-02  0.1158230E+00
         -5   -1    0    0    0  501 -0.00000000000E+00  0.00000000000E+00  0.37376014244E+03  0.37378969231E+03  0.47000000000E+01 0.  1.
          5   -1    0    0  501    0  0.00000000000E+00 -0.00000000000E+00 -0.96759173189E+02  0.96873255320E+02  0.47000000000E+01 0. -1.
          6    1    1    2  502    0  0.41975091520E+02 -0.69654378479E+02  0.13734176779E+03  0.23464953000E+03  0.17200000000E+03 0. -1.
         -6    1    1    2    0  502 -0.41975091520E+02  0.69654378479E+02  0.13965920146E+03  0.23601341763E+03  0.17200000000E+03 0. -1.
</event>
<event>
 4    1 -0.3240665E-004  0.1861304E+03  0.7818608E-02  0.1161998E+00
          5   -1    0    0  501    0  0.00000000000E+00  0.00000000000E+00  0.56870970270E+03  0.56872912352E+03  0.47000000000E+01 0. -1.
         -5   -1    0    0    0  501 -0.00000000000E+00 -0.00000000000E+00 -0.61919478352E+02  0.62097598983E+02  0.47000000000E+01 0.  1.
          6    1    1    2  502    0 -0.62541777320E+02  0.33897841635E+02  0.29561186768E+03  0.34932923424E+03  0.17200000000E+03 0. -1.
         -6    1    1    2    0  502  0.62541777320E+02 -0.33897841635E+02  0.21117835666E+03  0.28149748827E+03  0.17200000000E+03 0.  1.
</event>
<event>
 4    1 -0.3240665E-004  0.1921797E+03  0.7818608E-02  0.1156510E+00
         -5   -1    0    0    0  501 -0.00000000000E+00  0.00000000000E+00  0.18418628613E+03  0.18424624283E+03  0.47000000000E+01 0.  1.
          5   -1    0    0  501    0  0.00000000000E+00 -0.00000000000E+00 -0.20507809113E+03  0.20513194159E+03  0.47000000000E+01 0. -1.
          6    1    1    2  502    0  0.56904765926E+02  0.64116300301E+02 -0.39842520151E+02  0.19626634648E+03  0.17200000000E+03 0. -1.
         -6    1    1    2    0  502 -0.56904765926E+02 -0.64116300301E+02  0.18950715149E+02  0.19311183794E+03  0.17200000000E+03 0.  1.
</event>
<event>
 4    1 -0.3240665E-004  0.1906921E+03  0.7818608E-02  0.1157839E+00
          5   -1    0    0  501    0  0.00000000000E+00  0.00000000000E+00  0.23475570041E+02  0.23941436648E+02  0.47000000000E+01 0. -1.
         -5   -1    0    0    0  501 -0.00000000000E+00 -0.00000000000E+00 -0.18682213296E+04  0.18682272416E+04  0.47000000000E+01 0.  1.
          6    1    1    2  502    0  0.55875601030E+02  0.60476300620E+02 -0.52184770216E+03  0.55559741718E+03  0.17200000000E+03 0. -1.
         -6    1    1    2    0  502 -0.55875601030E+02 -0.60476300620E+02 -0.13228980573E+04  0.13365712611E+04  0.17200000000E+03 0.  1.
</event>
<event>
 4    1 -0.3240665E-004  0.2876711E+03  0.7818608E-02  0.1091571E+00
          5   -1    0    0  501    0  0.00000000000E+00  0.00000000000E+00  0.33607056232E+03  0.33610342583E+03  0.47000000000E+01 0. -1.
         -5   -1    0    0    0  501 -0.00000000000E+00 -0.00000000000E+00 -0.32300522327E+03  0.32303941595E+03  0.47000000000E+01 0.  1.
          6    1    1    2  502    0 -0.19096302536E+03 -0.12924313651E+03  0.16725021359E+03  0.33275711763E+03  0.17200000000E+03 0.  1.
         -6    1    1    2    0  502  0.19096302536E+03  0.12924313651E+03 -0.15418487454E+03  0.32638572415E+03  0.17200000000E+03 0.  1.
</event>
<event>
 4    1 -0.3240665E-004  0.1921692E+03  0.7818608E-02  0.1156519E+00
          5   -1    0    0  501    0  0.00000000000E+00  0.00000000000E+00  0.47035219103E+03  0.47037567285E+03  0.47000000000E+01 0. -1.
         -5   -1    0    0    0  501 -0.00000000000E+00 -0.00000000000E+00 -0.90762120906E+02  0.90883731169E+02  0.47000000000E+01 0.  1.
          6    1    1    2  502    0 -0.82316896374E+02  0.23852141602E+02  0.86388722808E+02  0.21069410888E+03  0.17200000000E+03 0.  1.
         -6    1    1    2    0  502  0.82316896374E+02 -0.23852141602E+02  0.29320134732E+03  0.35056529514E+03  0.17200000000E+03 0.  1.
</event>
<event>
 4    1 -0.3240665E-004  0.1845078E+03  0.7818608E-02  0.1163510E+00
         -5   -1    0    0    0  501 -0.00000000000E+00  0.00000000000E+00  0.30539311015E+02  0.30898859482E+02  0.47000000000E+01 0.  1.
          5   -1    0    0  501    0  0.00000000000E+00 -0.00000000000E+00 -0.13565689250E+04  0.13565770669E+04  0.47000000000E+01 0. -1.
          6    1    1    2  502    0 -0.62629900812E+02 -0.23165143642E+02 -0.96002810120E+03  0.97759760814E+03  0.17200000000E+03 0. -1.
         -6    1    1    2    0  502  0.62629900812E+02  0.23165143642E+02 -0.36600151284E+03  0.40987831823E+03  0.17200000000E+03 0.  1.
</event>
<event>
 4    1 -0.3240665E-004  0.4177870E+03  0.7818608E-02  0.1037789E+00
         -5   -1    0    0    0  501 -0.00000000000E+00  0.00000000000E+00  0.67574851597E+03  0.67576486061E+03  0.47000000000E+01 0.  1.
          5   -1    0    0  501    0  0.00000000000E+00 -0.00000000000E+00 -0.38602882731E+03  0.38605743811E+03  0.47000000000E+01 0. -1.
          6    1    1    2  502    0  0.38072508671E+03 -0.32196022035E+01 -0.16055934356E+03  0.44757709983E+03  0.17200000000E+03 0. -1.
         -6    1    1    2    0  502 -0.38072508671E+03  0.32196022035E+01  0.45027903222E+03  0.61424519888E+03  0.17200000000E+03 0.  1.
</event>
<event>
 4    1 -0.3240665E-004  0.2994432E+03  0.7818608E-02  0.1085519E+00
          5   -1    0    0  501    0  0.00000000000E+00  0.00000000000E+00  0.50877196242E+03  0.50879367109E+03  0.47000000000E+01 0. -1.
         -5   -1    0    0    0  501 -0.00000000000E+00 -0.00000000000E+00 -0.17629708051E+03  0.17635971931E+03  0.47000000000E+01 0.  1.
          6    1    1    2  502    0 -0.22418500958E+03 -0.99112655695E+02  0.15755239259E+03  0.33836222225E+03  0.17200000000E+03 0. -1.
         -6    1    1    2    0  502  0.22418500958E+03  0.99112655695E+02  0.17492248932E+03  0.34679116815E+03  0.17200000000E+03 0.  1.
</event>
<event>
 4    1 -0.3240665E-004  0.2736459E+03  0.7818608E-02  0.1099211E+00
         -5   -1    0    0    0  501 -0.00000000000E+00  0.00000000000E+00  0.36464293629E+03  0.36467322494E+03  0.47000000000E+01 0.  1.
          5   -1    0    0  501    0  0.00000000000E+00 -0.00000000000E+00 -0.37716004113E+03  0.37718932464E+03  0.47000000000E+01 0. -1.
          6    1    1    2  502    0 -0.12726487007E+03 -0.17059233443E+03 -0.25663146469E+03  0.37515570153E+03  0.17200000000E+03 0. -1.
         -6    1    1    2    0  502  0.12726487007E+03  0.17059233443E+03  0.24411435986E+03  0.36670684805E+03  0.17200000000E+03 0.  1.
</event>
<event>
 4    1 -0.3240665E-004  0.2023673E+03  0.7818608E-02  0.1147757E+00
          5   -1    0    0  501    0  0.00000000000E+00  0.00000000000E+00  0.17615957792E+03  0.17622226559E+03  0.47000000000E+01 0. -1.
         -5   -1    0    0    0  501 -0.00000000000E+00 -0.00000000000E+00 -0.60387531227E+03  0.60389360219E+03  0.47000000000E+01 0.  1.
          6    1    1    2  502    0  0.99414954992E+02  0.38538140187E+02  0.92068941185E+02  0.22232681227E+03  0.17200000000E+03 0. -1.
         -6    1    1    2    0  502 -0.99414954992E+02 -0.38538140187E+02 -0.51978467554E+03  0.55778905551E+03  0.17200000000E+03 0.  1.
</event>
<event>
 4    1 -0.3240665E-004  0.1770559E+03  0.7818608E-02  0.1170683E+00
          5   -1    0    0  501    0  0.00000000000E+00  0.00000000000E+00  0.38915615542E+03  0.38918453631E+03  0.47000000000E+01 0. -1.
         -5   -1    0    0    0  501 -0.00000000000E+00 -0.00000000000E+00 -0.12013311467E+03  0.12022501920E+03  0.47000000000E+01 0.  1.
          6    1    1    2  502    0 -0.19283596629E+02 -0.37321978902E+02  0.28080268245E+03  0.33196224737E+03  0.17200000000E+03 0. -1.
         -6    1    1    2    0  502  0.19283596629E+02  0.37321978902E+02 -0.11779641698E+02  0.17744730814E+03  0.17200000000E+03 0.  1.
</event>
<event>
 4    1 -0.3240665E-004  0.1725870E+03  0.7818608E-02  0.1175177E+00
         -5   -1    0    0    0  501 -0.00000000000E+00  0.00000000000E+00  0.15196988236E+03  0.15204254386E+03  0.47000000000E+01 0.  1.
          5   -1    0    0  501    0  0.00000000000E+00 -0.00000000000E+00 -0.24328142405E+03  0.24332681991E+03  0.47000000000E+01 0. -1.
          6    1    1    2  502    0  0.10008503552E+02  0.10104775151E+02 -0.13291782754E+03  0.21783807175E+03  0.17200000000E+03 0. -1.
         -6    1    1    2    0  502 -0.10008503552E+02 -0.10104775151E+02  0.41606285852E+02  0.17753129202E+03  0.17200000000E+03 0.  1.
</event>
<event>
 4    1 -0.3240665E-004  0.2768361E+03  0.7818608E-02  0.1097430E+00
         -5   -1    0    0    0  501 -0.00000000000E+00  0.00000000000E+00  0.12152043831E+03  0.12161129441E+03  0.47000000000E+01 0.  1.
          5   -1    0    0  501    0  0.00000000000E+00 -0.00000000000E+00 -0.67224479747E+03  0.67226122730E+03  0.47000000000E+01 0. -1.
          6    1    1    2  502    0  0.15777545795E+03 -0.14886624275E+03 -0.37447410602E+03  0.46569207577E+03  0.17200000000E+03 0.  1.
         -6    1    1    2    0  502 -0.15777545795E+03  0.14886624275E+03 -0.17625025314E+03  0.32818044593E+03  0.17200000000E+03 0. -1.
</event>
<event>
 4    1 -0.3240665E-004  0.1781280E+03  0.7818608E-02  0.1169627E+00
         -5   -1    0    0    0  501 -0.00000000000E+00  0.00000000000E+00  0.98563385911E+02  0.98675382149E+02  0.47000000000E+01 0.  1.
          5   -1    0    0  501    0  0.00000000000E+00 -0.00000000000E+00 -0.33208810012E+03  0.33212135770E+03  0.47000000000E+01 0. -1.
          6    1    1    2  502    0 -0.35728987665E+02 -0.29479283969E+02 -0.15501744072E+03  0.23613554512E+03  0.17200000000E+03 0.  1.
         -6    1    1    2    0  502  0.35728987665E+02  0.29479283969E+02 -0.78507273490E+02  0.19466119473E+03  0.17200000000E+03 0.  1.
</event>
<event>
 4    1 -0.3240665E-004  0.2907612E+03  0.7818608E-02  0.1089952E+00
         -5   -1    0    0    0  501 -0.00000000000E+00  0.00000000000E+00  0.57351108487E+02  0.57543371858E+02  0.47000000000E+01 0.  1.
          5   -1    0    0  501    0  0.00000000000E+00 -0.00000000000E+00 -0.14974862717E+04  0.14974936474E+04  0.47000000000E+01 0. -1.
          6    1    1    2  502    0  0.22828484758E+03  0.53330363810E+02 -0.82257981472E+03  0.87245610258E+03  0.17200000000E+03 0. -1.
         -6    1    1    2    0  502 -0.22828484758E+03 -0.53330363810E+02 -0.61755534853E+03  0.68258091669E+03  0.17200000000E+03 0.  1.
</event>
<event>
 4    1 -0.3240665E-004  0.2718018E+03  0.7818608E-02  0.1100253E+00
         -5   -1    0    0    0  501 -0.00000000000E+00  0.00000000000E+00  0.44895117528E+03  0.44897577639E+03  0.47000000000E+01 0.  1.
          5   -1    0    0  501    0  0.00000000000E+00 -0.00000000000E+00 -0.17512292745E+03  0.17518598608E+03  0.47000000000E+01 0. -1.
          6    1    1    2  502    0  0.68251903181E+02  0.19908259159E+03  0.60035231947E+02  0.27835306651E+03  0.17200000000E+03 0. -1.
         -6    1    1    2    0  502 -0.68251903181E+02 -0.19908259159E+03  0.21379301588E+03  0.34580869596E+03  0.17200000000E+03 0.  1.
</event>
<event>
 4    1 -0.3240665E-004  0.1948876E+03  0.7818608E-02  0.1154125E+00
         -5   -1    0    0    0  501 -0.00000000000E+00  0.00000000000E+00  0.50574788963E+02  0.50792708913E+02  0.47000000000E+01 0.  1.
          5   -1    0    0  501    0  0.00000000000E+00 -0.00000000000E+00 -0.13620040934E+04  0.13620122028E+04  0.47000000000E+01 0. -1.
          6    1    1    2  502    0  0.81049577207E+02 -0.42756601156E+02 -0.11295253879E+04  0.11462149723E+04  0.17200000000E+03 0. -1.
         -6    1    1    2    0  502 -0.81049577207E+02  0.42756601156E+02 -0.18190391661E+03  0.26658993939E+03  0.17200000000E+03 0.  1.
</event>
<event>
 4    1 -0.3240665E-004  0.2327013E+03  0.7818608E-02  0.1124753E+00
          5   -1    0    0  501    0  0.00000000000E+00  0.00000000000E+00  0.71706901058E+03  0.71708441339E+03  0.47000000000E+01 0. -1.
         -5   -1    0    0    0  501 -0.00000000000E+00 -0.00000000000E+00 -0.94637151082E+02  0.94753788129E+02  0.47000000000E+01 0.  1.
          6    1    1    2  502    0 -0.11011437443E+03  0.11153790829E+03  0.49396119940E+03  0.54602888839E+03  0.17200000000E+03 0. -1.
         -6    1    1    2    0  502  0.11011437443E+03 -0.11153790829E+03  0.12847066009E+03  0.26580931313E+03  0.17200000000E+03 0.  1.
</event>
<event>
 4    1 -0.3240665E-004  0.2187787E+03  0.7818608E-02  0.1134797E+00
          5   -1    0    0  501    0  0.00000000000E+00  0.00000000000E+00  0.29655710454E+03  0.29659434630E+03  0.47000000000E+01 0. -1.
         -5   -1    0    0    0  501 -0.00000000000E+00 -0.00000000000E+00 -0.18037131367E+03  0.18043253807E+03  0.47000000000E+01 0.  1.
          6    1    1    2  502    0  0.95601883889E+02 -0.95605371768E+02  0.13559170738E+03  0.25738923525E+03  0.17200000000E+03 0. -1.
         -6    1    1    2    0  502 -0.95601883889E+02  0.95605371768E+02 -0.19405916500E+02  0.21963764912E+03  0.17200000000E+03 0.  1.
</event>
<event>
 4    1 -0.3240665E-004  0.1788630E+03  0.7818608E-02  0.1168908E+00
         -5   -1    0    0    0  501 -0.00000000000E+00  0.00000000000E+00  0.19333823973E+03  0.19339535916E+03  0.47000000000E+01 0.  1.
          5   -1    0    0  501    0  0.00000000000E+00 -0.00000000000E+00 -0.17758763038E+03  0.17764981414E+03  0.47000000000E+01 0. -1.
          6    1    1    2  502    0 -0.44007516256E+02 -0.21709596792E+02  0.56546757252E+02  0.18758865594E+03  0.17200000000E+03 0.  1.
         -6    1    1    2    0  502  0.44007516256E+02  0.21709596792E+02 -0.40796147900E+02  0.18345651736E+03  0.17200000000E+03 0. -1.
</event>
<event>
 4    1 -0.3240665E-004  0.2140697E+03  0.7818608E-02  0.1138383E+00
          5   -1    0    0  501    0  0.00000000000E+00  0.00000000000E+00  0.11538153813E+03  0.11547722434E+03  0.47000000000E+01 0. -1.
         -5   -1    0    0    0  501 -0.00000000000E+00 -0.00000000000E+00 -0.55695761855E+03  0.55697744915E+03  0.47000000000E+01 0.  1.
          6    1    1    2  502    0  0.49940998676E+02  0.11725066193E+03 -0.40559998386E+02  0.21787825624E+03  0.17200000000E+03 0. -1.
         -6    1    1    2    0  502 -0.49940998676E+02 -0.11725066193E+03 -0.40101608203E+03  0.45457641725E+03  0.17200000000E+03 0.  1.
</event>
<event>
 4    1 -0.3240665E-004  0.2177134E+03  0.7818608E-02  0.1135599E+00
         -5   -1    0    0    0  501 -0.00000000000E+00  0.00000000000E+00  0.39591083324E+03  0.39593872996E+03  0.47000000000E+01 0.  1.
          5   -1    0    0  501    0  0.00000000000E+00 -0.00000000000E+00 -0.12855295761E+03  0.12863884682E+03  0.47000000000E+01 0. -1.
          6    1    1    2  502    0  0.10068333101E+03 -0.87624248313E+02  0.20269762311E+03  0.29746507097E+03  0.17200000000E+03 0.  1.
         -6    1    1    2    0  502 -0.10068333101E+03  0.87624248313E+02  0.64660252519E+02  0.22711250580E+03  0.17200000000E+03 0. -1.
</event>
<event>
 4    1 -0.3240665E-004  0.1812183E+03  0.7818608E-02  0.1166629E+00
         -5   -1    0    0    0  501 -0.00000000000E+00  0.00000000000E+00  0.10583121023E+03  0.10593552312E+03  0.47000000000E+01 0.  1.
          5   -1    0    0  501    0  0.00000000000E+00 -0.00000000000E+00 -0.58963004079E+03  0.58964877258E+03  0.47000000000E+01 0. -1.
          6    1    1    2  502    0  0.11370225298E+02  0.55917803893E+02 -0.24304695838E+01  0.18123462693E+03  0.17200000000E+03 0.  1.
         -6    1    1    2    0  502 -0.11370225298E+02 -0.55917803893E+02 -0.48136836098E+03  0.51434966877E+03  0.17200000000E+03 0. -1.
</event>
<event>
 4    1 -0.3240665E-004  0.2006359E+03  0.7818608E-02  0.1149204E+00
         -5   -1    0    0    0  501 -0.00000000000E+00  0.00000000000E+00  0.11256527820E+03  0.11266335631E+03  0.47000000000E+01 0.  1.
          5   -1    0    0  501    0  0.00000000000E+00 -0.00000000000E+00 -0.37241400651E+03  0.37244366318E+03  0.47000000000E+01 0. -1.
          6    1    1    2  502    0 -0.92948835861E+02 -0.45069830658E+02 -0.17870913099E+03  0.26868518608E+03  0.17200000000E+03 0. -1.
         -6    1    1    2    0  502  0.92948835861E+02  0.45069830658E+02 -0.81139597329E+02  0.21642183341E+03  0.17200000000E+03 0.  1.
</event>
<event>
 4    1 -0.3240665E-004  0.1795597E+03  0.7818608E-02  0.1168230E+00
         -5   -1    0    0    0  501 -0.00000000000E+00  0.00000000000E+00  0.33545090850E+03  0.33548383271E+03  0.47000000000E+01 0.  1.
          5   -1    0    0  501    0  0.00000000000E+00 -0.00000000000E+00 -0.11282498531E+03  0.11292283785E+03  0.47000000000E+01 0. -1.
          6    1    1    2  502    0 -0.46250471394E+02  0.22772213429E+02  0.24836252881E+02  0.18126919006E+03  0.17200000000E+03 0. -1.
         -6    1    1    2    0  502  0.46250471394E+02 -0.22772213429E+02  0.19778967031E+03  0.26713748050E+03  0.17200000000E+03 0.  1.
</event>
<event>
 4    1 -0.3240665E-004  0.1773573E+03  0.7818608E-02  0.1170385E+00
          5   -1    0    0  501    0  0.00000000000E+00  0.00000000000E+00  0.39080454410E+03  0.39083280529E+03  0.47000000000E+01 0. -1.
         -5   -1    0    0    0  501 -0.00000000000E+00 -0.00000000000E+00 -0.13783754801E+03  0.13791765530E+03  0.47000000000E+01 0.  1.
          6    1    1    2  502    0 -0.24638420094E+02  0.35560806571E+02  0.29707548586E+03  0.34599055913E+03  0.17200000000E+03 0. -1.
         -6    1    1    2    0  502  0.24638420094E+02 -0.35560806571E+02 -0.44108489773E+02  0.18275990145E+03  0.17200000000E+03 0.  1.
</event>
<event>
 4    1 -0.3240665E-004  0.1869969E+03  0.7818608E-02  0.1161198E+00
          5   -1    0    0  501    0  0.00000000000E+00  0.00000000000E+00  0.14437772353E+03  0.14445420399E+03  0.47000000000E+01 0. -1.
         -5   -1    0    0    0  501 -0.00000000000E+00 -0.00000000000E+00 -0.24581538901E+03  0.24586031700E+03  0.47000000000E+01 0.  1.
          6    1    1    2  502    0 -0.68743908248E+02  0.25653619780E+02 -0.74919675977E+02  0.20144674477E+03  0.17200000000E+03 0.  1.
         -6    1    1    2    0  502  0.68743908248E+02 -0.25653619780E+02 -0.26517989510E+02  0.18886777623E+03  0.17200000000E+03 0. -1.
</event>
<event>
 4    1 -0.3240665E-004  0.2307689E+03  0.7818608E-02  0.1126100E+00
          5   -1    0    0  501    0  0.00000000000E+00  0.00000000000E+00  0.97503547620E+03  0.97504680393E+03  0.47000000000E+01 0. -1.
         -5   -1    0    0    0  501 -0.00000000000E+00 -0.00000000000E+00 -0.92081170923E+02  0.92201041418E+02  0.47000000000E+01 0.  1.
          6    1    1    2  502    0 -0.13332090296E+03  0.76784314925E+02  0.78204198969E+03  0.81537964644E+03  0.17200000000E+03 0. -1.
         -6    1    1    2    0  502  0.13332090296E+03 -0.76784314925E+02  0.10091231559E+03  0.25186819891E+03  0.17200000000E+03 0.  1.
</event>
<event>
 4    1 -0.3240665E-004  0.2112099E+03  0.7818608E-02  0.1140611E+00
          5   -1    0    0  501    0  0.00000000000E+00  0.00000000000E+00  0.71388318858E+03  0.71389866013E+03  0.47000000000E+01 0. -1.
         -5   -1    0    0    0  501 -0.00000000000E+00 -0.00000000000E+00 -0.71391952942E+02  0.71546494986E+02  0.47000000000E+01 0.  1.
          6    1    1    2  502    0  0.74208855263E+02 -0.97563744990E+02  0.18192348849E+03  0.27875759039E+03  0.17200000000E+03 0.  1.
         -6    1    1    2    0  502 -0.74208855263E+02  0.97563744990E+02  0.46056774715E+03  0.50668756472E+03  0.17200000000E+03 0. -1.
</event>
<event>
 4    1 -0.3240665E-004  0.4078290E+03  0.7818608E-02  0.1041102E+00
         -5   -1    0    0    0  501 -0.00000000000E+00  0.00000000000E+00  0.49816246403E+03  0.49818463502E+03  0.47000000000E+01 0.  1.
          5   -1    0    0  501    0  0.00000000000E+00 -0.00000000000E+00 -0.37072507005E+03  0.37075486182E+03  0.47000000000E+01 0. -1.
          6    1    1    2  502    0 -0.36782940960E+03 -0.37974048001E+02 -0.73333825528E+02  0.41436982619E+03  0.17200000000E+03 0.  1.
         -6    1    1    2    0  502  0.36782940960E+03  0.37974048001E+02  0.20077121951E+03  0.45456967065E+03  0.17200000000E+03 0. -1.
</event>
<event>
 4    1 -0.3240665E-004  0.3930567E+03  0.7818608E-02  0.1046211E+00
         -5   -1    0    0    0  501 -0.00000000000E+00  0.00000000000E+00  0.68814630058E+03  0.68816235076E+03  0.47000000000E+01 0.  1.
          5   -1    0    0  501    0  0.00000000000E+00 -0.00000000000E+00 -0.42424614209E+03  0.42427217571E+03  0.47000000000E+01 0. -1.
          6    1    1    2  502    0 -0.33474835209E+03 -0.11337164695E+03 -0.24971882979E+03  0.46567486888E+03  0.17200000000E+03 0. -1.
         -6    1    1    2    0  502  0.33474835209E+03  0.11337164695E+03  0.51361898828E+03  0.64675965758E+03  0.17200000000E+03 0.  1.
</event>
<event>
 4    1 -0.3240665E-004  0.2137480E+03  0.7818608E-02  0.1138632E+00
          5   -1    0    0  501    0  0.00000000000E+00  0.00000000000E+00  0.81645789666E+02  0.81780957259E+02  0.47000000000E+01 0. -1.
         -5   -1    0    0    0  501 -0.00000000000E+00 -0.00000000000E+00 -0.57688963674E+03  0.57690878220E+03  0.47000000000E+01 0.  1.
          6    1    1    2  502    0  0.11887567018E+03  0.44415786641E+02 -0.18960413908E+03  0.28572349679E+03  0.17200000000E+03 0. -1.
         -6    1    1    2    0  502 -0.11887567018E+03 -0.44415786641E+02 -0.30563970799E+03  0.37296624266E+03  0.17200000000E+03 0. -1.
</event>
<event>
 4    1 -0.3240665E-004  0.1765615E+03  0.7818608E-02  0.1171173E+00
         -5   -1    0    0    0  501 -0.00000000000E+00  0.00000000000E+00  0.20647574355E+03  0.20652922959E+03  0.47000000000E+01 0.  1.
          5   -1    0    0  501    0  0.00000000000E+00 -0.00000000000E+00 -0.15918864670E+03  0.15925801467E+03  0.47000000000E+01 0. -1.
          6    1    1    2  502    0  0.33030207812E+02  0.22337559605E+02 -0.18144994157E+02  0.17749141391E+03  0.17200000000E+03 0. -1.
         -6    1    1    2    0  502 -0.33030207812E+02 -0.22337559605E+02  0.65432091012E+02  0.18829583036E+03  0.17200000000E+03 0.  1.
</event>
<event>
 4    1 -0.3240665E-004  0.1829493E+03  0.7818608E-02  0.1164979E+00
         -5   -1    0    0    0  501 -0.00000000000E+00  0.00000000000E+00  0.82013748294E+03  0.82015095009E+03  0.47000000000E+01 0.  1.
          5   -1    0    0  501    0  0.00000000000E+00 -0.00000000000E+00 -0.40754156323E+02  0.41024276443E+02  0.47000000000E+01 0. -1.
          6    1    1    2  502    0  0.29373453289E+02  0.54987638154E+02  0.41014075727E+03  0.44909451220E+03  0.17200000000E+03 0.  1.
         -6    1    1    2    0  502 -0.29373453289E+02 -0.54987638154E+02  0.36924256935E+03  0.41208071433E+03  0.17200000000E+03 0. -1.
</event>
<event>
 4    1 -0.3240665E-004  0.2216872E+03  0.7818608E-02  0.1132631E+00
          5   -1    0    0  501    0  0.00000000000E+00  0.00000000000E+00  0.22239609539E+03  0.22244575349E+03  0.47000000000E+01 0. -1.
         -5   -1    0    0    0  501 -0.00000000000E+00 -0.00000000000E+00 -0.23189228641E+03  0.23193991139E+03  0.47000000000E+01 0.  1.
          6    1    1    2  502    0 -0.11602454375E+03 -0.78099377395E+02 -0.54244572486E+02  0.22822725768E+03  0.17200000000E+03 0.  1.
         -6    1    1    2    0  502  0.11602454375E+03  0.78099377395E+02  0.44748381470E+02  0.22615840720E+03  0.17200000000E+03 0.  1.
</event>
<event>
 4    1 -0.3240665E-004  0.2006818E+03  0.7818608E-02  0.1149165E+00
          5   -1    0    0  501    0  0.00000000000E+00  0.00000000000E+00  0.25589817146E+03  0.25594132952E+03  0.47000000000E+01 0. -1.
         -5   -1    0    0    0  501 -0.00000000000E+00 -0.00000000000E+00 -0.31436037948E+03  0.31439551236E+03  0.47000000000E+01 0.  1.
          6    1    1    2  502    0  0.75355958851E+02 -0.70786132415E+02  0.17231337914E+03  0.26450916375E+03  0.17200000000E+03 0. -1.
         -6    1    1    2    0  502 -0.75355958851E+02  0.70786132415E+02 -0.23077558716E+03  0.30582767813E+03  0.17200000000E+03 0.  1.
</event>
<event>
 4    1 -0.3240665E-004  0.1934050E+03  0.7818608E-02  0.1155426E+00
          5   -1    0    0  501    0  0.00000000000E+00  0.00000000000E+00  0.95926533825E+02  0.96041605004E+02  0.47000000000E+01 0. -1.
         -5   -1    0    0    0  501 -0.00000000000E+00 -0.00000000000E+00 -0.59076983337E+03  0.59078852902E+03  0.47000000000E+01 0.  1.
          6    1    1    2  502    0 -0.52345908856E+02 -0.71283908140E+02 -0.47035983420E+02  0.19904239114E+03  0.17200000000E+03 0. -1.
         -6    1    1    2    0  502  0.52345908856E+02  0.71283908140E+02 -0.44780731613E+03  0.48778774289E+03  0.17200000000E+03 0.  1.
</event>
<event>
 4    1 -0.3240665E-004  0.2007638E+03  0.7818608E-02  0.1149096E+00
          5   -1    0    0  501    0  0.00000000000E+00  0.00000000000E+00  0.22057432415E+02  0.22552612371E+02  0.47000000000E+01 0. -1.
         -5   -1    0    0    0  501 -0.00000000000E+00 -0.00000000000E+00 -0.18118439343E+04  0.18118500303E+04  0.47000000000E+01 0.  1.
          6    1    1    2  502    0  0.81491517718E+02 -0.63884673000E+02 -0.84529362958E+03  0.86880805654E+03  0.17200000000E+03 0. -1.
         -6    1    1    2    0  502 -0.81491517718E+02  0.63884673000E+02 -0.94449287230E+03  0.96559458611E+03  0.17200000000E+03 0.  1.
</event>
<event>
 4    1 -0.3240665E-004  0.3357650E+03  0.7818608E-02  0.1068614E+00
          5   -1    0    0  501    0  0.00000000000E+00  0.00000000000E+00  0.65709695880E+02  0.65877569268E+02  0.47000000000E+01 0. -1.
         -5   -1    0    0    0  501 -0.00000000000E+00 -0.00000000000E+00 -0.18059856290E+04  0.18059917448E+04  0.47000000000E+01 0.  1.
          6    1    1    2  502    0  0.26483260453E+03  0.11409556993E+03 -0.10821108701E+04  0.11330057558E+04  0.17200000000E+03 0. -1.
         -6    1    1    2    0  502 -0.26483260453E+03 -0.11409556993E+03 -0.65816506303E+03  0.73886355824E+03  0.17200000000E+03 0. -1.
</event>
<event>
 4    1 -0.3240665E-004  0.1897992E+03  0.7818608E-02  0.1158643E+00
         -5   -1    0    0    0  501 -0.00000000000E+00  0.00000000000E+00  0.82190648581E+03  0.82191992397E+03  0.47000000000E+01 0.  1.
          5   -1    0    0  501    0  0.00000000000E+00 -0.00000000000E+00 -0.87464262982E+02  0.87590452100E+02  0.47000000000E+01 0. -1.
          6    1    1    2  502    0  0.62100653281E+02  0.50825691200E+02  0.45876450249E+02  0.19526492443E+03  0.17200000000E+03 0. -1.
         -6    1    1    2    0  502 -0.62100653281E+02 -0.50825691200E+02  0.68856577258E+03  0.71424545165E+03  0.17200000000E+03 0.  1.
</event>
<event>
 4    1 -0.3240665E-004  0.1771026E+03  0.7818608E-02  0.1170637E+00
         -5   -1    0    0    0  501 -0.00000000000E+00  0.00000000000E+00  0.13931704068E+03  0.13939629774E+03  0.47000000000E+01 0.  1.
          5   -1    0    0  501    0  0.00000000000E+00 -0.00000000000E+00 -0.29437792448E+03  0.29441544189E+03  0.47000000000E+01 0. -1.
          6    1    1    2  502    0  0.42076221745E+02  0.33034708933E+01 -0.18283268917E+03  0.25454491467E+03  0.17200000000E+03 0. -1.
         -6    1    1    2    0  502 -0.42076221745E+02 -0.33034708933E+01  0.27771805364E+02  0.17926682496E+03  0.17200000000E+03 0.  1.
</event>
<event>
 4    1 -0.3240665E-004  0.2707596E+03  0.7818608E-02  0.1100846E+00
          5   -1    0    0  501    0  0.00000000000E+00  0.00000000000E+00  0.69267583877E+03  0.69269178400E+03  0.47000000000E+01 0. -1.
         -5   -1    0    0    0  501 -0.00000000000E+00 -0.00000000000E+00 -0.10581995955E+03  0.10592428352E+03  0.47000000000E+01 0.  1.
          6    1    1    2  502    0  0.17001808267E+03  0.12173988185E+03  0.28455662141E+03  0.39278902486E+03  0.17200000000E+03 0. -1.
         -6    1    1    2    0  502 -0.17001808267E+03 -0.12173988185E+03  0.30229925782E+03  0.40582704265E+03  0.17200000000E+03 0.  1.
</event>
<event>
 4    1 -0.3240665E-004  0.5035575E+03  0.7818608E-02  0.1012855E+00
          5   -1    0    0  501    0  0.00000000000E+00  0.00000000000E+00  0.36693351312E+03  0.36696361271E+03  0.47000000000E+01 0. -1.
         -5   -1    0    0    0  501 -0.00000000000E+00 -0.00000000000E+00 -0.11755326738E+04  0.11755420695E+04  0.47000000000E+01 0.  1.
          6    1    1    2  502    0 -0.16259309861E+03 -0.44446551995E+03  0.90853576907E+02  0.51168788004E+03  0.17200000000E+03 0. -1.
         -6    1    1    2    0  502  0.16259309861E+03  0.44446551995E+03 -0.89945273763E+03  0.10308178022E+04  0.17200000000E+03 0.  1.
</event>
<event>
 4    1 -0.3240665E-004  0.2765313E+03  0.7818608E-02  0.1097599E+00
         -5   -1    0    0    0  501 -0.00000000000E+00  0.00000000000E+00  0.22932188040E+03  0.22937003909E+03  0.47000000000E+01 0.  1.
          5   -1    0    0  501    0  0.00000000000E+00 -0.00000000000E+00 -0.33739091616E+03  0.33742365108E+03  0.47000000000E+01 0. -1.
          6    1    1    2  502    0  0.45572320031E+02 -0.21168068206E+03 -0.85008252123E+02  0.28930252408E+03  0.17200000000E+03 0. -1.
         -6    1    1    2    0  502 -0.45572320031E+02  0.21168068206E+03 -0.23060783634E+02  0.27749116608E+03  0.17200000000E+03 0.  1.
</event>
<event>
 4    1 -0.3240665E-004  0.1838796E+03  0.7818608E-02  0.1164100E+00
          5   -1    0    0  501    0  0.00000000000E+00  0.00000000000E+00  0.30159741749E+02  0.30523761602E+02  0.47000000000E+01 0. -1.
         -5   -1    0    0    0  501 -0.00000000000E+00 -0.00000000000E+00 -0.11304179911E+04  0.11304277617E+04  0.47000000000E+01 0.  1.
          6    1    1    2  502    0 -0.34856494953E+02 -0.54888505452E+02 -0.62008643797E+03  0.64677578327E+03  0.17200000000E+03 0.  1.
         -6    1    1    2    0  502  0.34856494953E+02  0.54888505452E+02 -0.48017181134E+03  0.51417574007E+03  0.17200000000E+03 0. -1.
</event>
<event>
 4    1 -0.3240665E-004  0.2851248E+03  0.7818608E-02  0.1092922E+00
         -5   -1    0    0    0  501 -0.00000000000E+00  0.00000000000E+00  0.64283045983E+03  0.64284764143E+03  0.47000000000E+01 0.  1.
          5   -1    0    0  501    0  0.00000000000E+00 -0.00000000000E+00 -0.13268276792E+03  0.13276598549E+03  0.47000000000E+01 0. -1.
          6    1    1    2  502    0  0.16747086311E+03  0.15383652698E+03  0.17074070740E+03  0.33233801496E+03  0.17200000000E+03 0. -1.
         -6    1    1    2    0  502 -0.16747086311E+03 -0.15383652698E+03  0.33940698450E+03  0.44327561196E+03  0.17200000000E+03 0. -1.
</event>
<event>
 4    1 -0.3240665E-004  0.2140676E+03  0.7818608E-02  0.1138385E+00
          5   -1    0    0  501    0  0.00000000000E+00  0.00000000000E+00  0.22096406668E+04  0.22096456653E+04  0.47000000000E+01 0. -1.
         -5   -1    0    0    0  501 -0.00000000000E+00 -0.00000000000E+00 -0.22275730072E+02  0.22766162396E+02  0.47000000000E+01 0.  1.
          6    1    1    2  502    0 -0.98074830514E+02  0.81377298250E+02  0.77926599629E+03  0.80813391837E+03  0.17200000000E+03 0.  1.
         -6    1    1    2    0  502  0.98074830514E+02 -0.81377298250E+02  0.14080989404E+04  0.14242779093E+04  0.17200000000E+03 0. -1.
</event>
<event>
 4    1 -0.3240665E-004  0.1742322E+03  0.7818608E-02  0.1173505E+00
         -5   -1    0    0    0  501 -0.00000000000E+00  0.00000000000E+00  0.48509833935E+02  0.48736987888E+02  0.47000000000E+01 0.  1.
          5   -1    0    0  501    0  0.00000000000E+00 -0.00000000000E+00 -0.63489589148E+03  0.63491328779E+03  0.47000000000E+01 0. -1.
          6    1    1    2  502    0 -0.14209970936E+02  0.23894584957E+02 -0.33777853396E+03  0.38006737885E+03  0.17200000000E+03 0. -1.
         -6    1    1    2    0  502  0.14209970936E+02 -0.23894584957E+02 -0.24860752359E+03  0.30358289683E+03  0.17200000000E+03 0.  1.
</event>
<event>
 4    1 -0.3240665E-004  0.1801052E+03  0.7818608E-02  0.1167701E+00
         -5   -1    0    0    0  501 -0.00000000000E+00  0.00000000000E+00  0.27422787279E+02  0.27822639382E+02  0.47000000000E+01 0.  1.
          5   -1    0    0  501    0  0.00000000000E+00 -0.00000000000E+00 -0.12004022597E+04  0.12004114608E+04  0.47000000000E+01 0. -1.
          6    1    1    2  502    0 -0.35918062187E+02 -0.39544439595E+02 -0.49528041338E+03  0.52701096551E+03  0.17200000000E+03 0.  1.
         -6    1    1    2    0  502  0.35918062187E+02  0.39544439595E+02 -0.67769905904E+03  0.70122313462E+03  0.17200000000E+03 0. -1.
</event>
<event>
 4    1 -0.3240665E-004  0.2217212E+03  0.7818608E-02  0.1132606E+00
          5   -1    0    0  501    0  0.00000000000E+00  0.00000000000E+00  0.34503373193E+02  0.34822015474E+02  0.47000000000E+01 0. -1.
         -5   -1    0    0    0  501 -0.00000000000E+00 -0.00000000000E+00 -0.19457473117E+04  0.19457529882E+04  0.47000000000E+01 0.  1.
          6    1    1    2  502    0  0.17118008404E+02 -0.13886425313E+03 -0.43988847796E+03  0.49260753146E+03  0.17200000000E+03 0. -1.
         -6    1    1    2    0  502 -0.17118008404E+02  0.13886425313E+03 -0.14713554606E+04  0.14879674722E+04  0.17200000000E+03 0.  1.
</event>
<event>
 4    1 -0.3240665E-004  0.2573140E+03  0.7818608E-02  0.1108768E+00
          5   -1    0    0  501    0  0.00000000000E+00  0.00000000000E+00  0.69269921133E+03  0.69271515602E+03  0.47000000000E+01 0. -1.
         -5   -1    0    0    0  501 -0.00000000000E+00 -0.00000000000E+00 -0.97826568440E+02  0.97939407252E+02  0.47000000000E+01 0.  1.
          6    1    1    2  502    0 -0.18642729167E+03  0.43258976142E+02  0.23662195999E+03  0.34957177524E+03  0.17200000000E+03 0. -1.
         -6    1    1    2    0  502  0.18642729167E+03 -0.43258976142E+02  0.35825068290E+03  0.44108278803E+03  0.17200000000E+03 0. -1.
</event>
<event>
 4    1 -0.3240665E-004  0.2180061E+03  0.7818608E-02  0.1135378E+00
         -5   -1    0    0    0  501 -0.00000000000E+00  0.00000000000E+00  0.13393411617E+03  0.13401655672E+03  0.47000000000E+01 0.  1.
          5   -1    0    0  501    0  0.00000000000E+00 -0.00000000000E+00 -0.96460561063E+03  0.96461706084E+03  0.47000000000E+01 0. -1.
          6    1    1    2  502    0 -0.13248310995E+03 -0.19770664514E+02 -0.85212904659E+03  0.87957408195E+03  0.17200000000E+03 0. -1.
         -6    1    1    2    0  502  0.13248310995E+03  0.19770664514E+02  0.21457552125E+02  0.21905953561E+03  0.17200000000E+03 0.  1.
</event>
<event>
 4    1 -0.3240665E-004  0.1758151E+03  0.7818608E-02  0.1171916E+00
         -5   -1    0    0    0  501 -0.00000000000E+00  0.00000000000E+00  0.33412160170E+03  0.33415465689E+03  0.47000000000E+01 0.  1.
          5   -1    0    0  501    0  0.00000000000E+00 -0.00000000000E+00 -0.11001894959E+03  0.11011929563E+03  0.47000000000E+01 0. -1.
          6    1    1    2  502    0  0.19286911426E+02 -0.30902615174E+02  0.20084636571E+03  0.26692736689E+03  0.17200000000E+03 0.  1.
         -6    1    1    2    0  502 -0.19286911426E+02  0.30902615174E+02  0.23256286397E+02  0.17734658563E+03  0.17200000000E+03 0. -1.
</event>
<event>
 4    1 -0.3240665E-004  0.1747307E+03  0.7818608E-02  0.1173002E+00
         -5   -1    0    0    0  501 -0.00000000000E+00  0.00000000000E+00  0.71671072745E+02  0.71825014225E+02  0.47000000000E+01 0.  1.
          5   -1    0    0  501    0  0.00000000000E+00 -0.00000000000E+00 -0.42558025503E+03  0.42560620704E+03  0.47000000000E+01 0. -1.
          6    1    1    2  502    0  0.25954730078E+02 -0.16527721850E+02 -0.17131346143E+03  0.24470209576E+03  0.17200000000E+03 0. -1.
         -6    1    1    2    0  502 -0.25954730078E+02  0.16527721850E+02 -0.18259572085E+03  0.25272912550E+03  0.17200000000E+03 0.  1.
</event>
<event>
 4    1 -0.3240665E-004  0.2073490E+03  0.7818608E-02  0.1143683E+00
          5   -1    0    0  501    0  0.00000000000E+00  0.00000000000E+00  0.56689670410E+03  0.56691618703E+03  0.47000000000E+01 0. -1.
         -5   -1    0    0    0  501 -0.00000000000E+00 -0.00000000000E+00 -0.91362367319E+02  0.91483179668E+02  0.47000000000E+01 0.  1.
          6    1    1    2  502    0  0.88594574977E+02  0.74569431459E+02  0.37375312025E+03  0.42741665119E+03  0.17200000000E+03 0. -1.
         -6    1    1    2    0  502 -0.88594574977E+02 -0.74569431459E+02  0.10178121654E+03  0.23098271551E+03  0.17200000000E+03 0.  1.
</event>
<event>
 4    1 -0.3240665E-004  0.2011611E+03  0.7818608E-02  0.1148763E+00
         -5   -1    0    0    0  501 -0.00000000000E+00  0.00000000000E+00  0.19100743865E+03  0.19106525488E+03  0.47000000000E+01 0.  1.
          5   -1    0    0  501    0  0.00000000000E+00 -0.00000000000E+00 -0.21323392415E+03  0.21328571544E+03  0.47000000000E+01 0. -1.
          6    1    1    2  502    0 -0.26238709309E+02  0.10096191522E+03  0.58133675939E+01  0.20124505816E+03  0.17200000000E+03 0.  1.
         -6    1    1    2    0  502  0.26238709309E+02 -0.10096191522E+03 -0.28039853095E+02  0.20310591216E+03  0.17200000000E+03 0. -1.
</event>
<event>
 4    1 -0.3240665E-004  0.2432968E+03  0.7818608E-02  0.1117616E+00
          5   -1    0    0  501    0  0.00000000000E+00  0.00000000000E+00  0.40493757586E+03  0.40496485075E+03  0.47000000000E+01 0. -1.
         -5   -1    0    0    0  501 -0.00000000000E+00 -0.00000000000E+00 -0.15274487668E+03  0.15281716969E+03  0.47000000000E+01 0.  1.
          6    1    1    2  502    0  0.12381023866E+03 -0.11950046484E+03  0.18420740528E+03  0.30516504461E+03  0.17200000000E+03 0. -1.
         -6    1    1    2    0  502 -0.12381023866E+03  0.11950046484E+03  0.67985293896E+02  0.25261697583E+03  0.17200000000E+03 0.  1.
</event>
<event>
 4    1 -0.3240665E-004  0.2483617E+03  0.7818608E-02  0.1114345E+00
         -5   -1    0    0    0  501 -0.00000000000E+00  0.00000000000E+00  0.19412759126E+03  0.19418447849E+03  0.47000000000E+01 0.  1.
          5   -1    0    0  501    0  0.00000000000E+00 -0.00000000000E+00 -0.34483431174E+03  0.34486634012E+03  0.47000000000E+01 0. -1.
          6    1    1    2  502    0 -0.37791966294E+02  0.17513225215E+03 -0.15105125324E+03  0.29068887072E+03  0.17200000000E+03 0. -1.
         -6    1    1    2    0  502  0.37791966294E+02 -0.17513225215E+03  0.34453275869E+00  0.24836194789E+03  0.17200000000E+03 0.  1.
</event>
<event>
 4    1 -0.3240665E-004  0.4567982E+03  0.7818608E-02  0.1025714E+00
          5   -1    0    0  501    0  0.00000000000E+00  0.00000000000E+00  0.33644638127E+03  0.33647920808E+03  0.47000000000E+01 0. -1.
         -5   -1    0    0    0  501 -0.00000000000E+00 -0.00000000000E+00 -0.71103802433E+03  0.71105355779E+03  0.47000000000E+01 0.  1.
          6    1    1    2  502    0  0.34881805781E+03 -0.23959663250E+03 -0.21545247511E-01  0.45679818763E+03  0.17200000000E+03 0. -1.
         -6    1    1    2    0  502 -0.34881805781E+03  0.23959663250E+03 -0.37457009782E+03  0.59073457824E+03  0.17200000000E+03 0.  1.
</event>
<event>
 4    1 -0.3240665E-004  0.1872605E+03  0.7818608E-02  0.1160956E+00
          5   -1    0    0  501    0  0.00000000000E+00  0.00000000000E+00  0.11648750712E+04  0.11648845529E+04  0.47000000000E+01 0. -1.
         -5   -1    0    0    0  501 -0.00000000000E+00 -0.00000000000E+00 -0.30721415526E+02  0.31078857314E+02  0.47000000000E+01 0.  1.
          6    1    1    2  502    0  0.73879141854E+02  0.49355317480E+01  0.66367075024E+03  0.68958346253E+03  0.17200000000E+03 0.  1.
         -6    1    1    2    0  502 -0.73879141854E+02 -0.49355317480E+01  0.47048290546E+03  0.50637994767E+03  0.17200000000E+03 0. -1.
</event>
<event>
 4    1 -0.3240665E-004  0.2116574E+03  0.7818608E-02  0.1140260E+00
         -5   -1    0    0    0  501 -0.00000000000E+00  0.00000000000E+00  0.67767046892E+02  0.67929836187E+02  0.47000000000E+01 0.  1.
          5   -1    0    0  501    0  0.00000000000E+00 -0.00000000000E+00 -0.66962046682E+03  0.66963696103E+03  0.47000000000E+01 0. -1.
          6    1    1    2  502    0  0.21552716634E+02 -0.12145093209E+03 -0.34487751999E+03  0.40464719484E+03  0.17200000000E+03 0. -1.
         -6    1    1    2    0  502 -0.21552716634E+02  0.12145093209E+03 -0.25697589994E+03  0.33291960238E+03  0.17200000000E+03 0.  1.
</event>
<event>
 4    1 -0.3240665E-004  0.1767370E+03  0.7818608E-02  0.1170999E+00
          5   -1    0    0  501    0  0.00000000000E+00  0.00000000000E+00  0.16115045273E+03  0.16121897660E+03  0.47000000000E+01 0. -1.
         -5   -1    0    0    0  501 -0.00000000000E+00 -0.00000000000E+00 -0.23111868759E+03  0.23116647195E+03  0.47000000000E+01 0.  1.
          6    1    1    2  502    0  0.12728883640E+01 -0.40624283187E+02 -0.11391338469E+03  0.21026700131E+03  0.17200000000E+03 0.  1.
         -6    1    1    2    0  502 -0.12728883640E+01  0.40624283187E+02  0.43945149838E+02  0.18211844724E+03  0.17200000000E+03 0. -1.
</event>
<event>
 4    1 -0.3240665E-004  0.2691631E+03  0.7818608E-02  0.1101760E+00
         -5   -1    0    0    0  501 -0.00000000000E+00  0.00000000000E+00  0.21075419904E+03  0.21080659955E+03  0.47000000000E+01 0.  1.
          5   -1    0    0  501    0  0.00000000000E+00 -0.00000000000E+00 -0.34368810021E+03  0.34372023541E+03  0.47000000000E+01 0. -1.
          6    1    1    2  502    0 -0.69873933733E+02  0.19489076939E+03 -0.69446680185E+02  0.27797773292E+03  0.17200000000E+03 0. -1.
         -6    1    1    2    0  502  0.69873933733E+02 -0.19489076939E+03 -0.63487220989E+02  0.27654910204E+03  0.17200000000E+03 0.  1.
</event>
<event>
 4    1 -0.3240665E-004  0.1849703E+03  0.7818608E-02  0.1163078E+00
         -5   -1    0    0    0  501 -0.00000000000E+00  0.00000000000E+00  0.10985919997E+03  0.10995969179E+03  0.47000000000E+01 0.  1.
          5   -1    0    0  501    0  0.00000000000E+00 -0.00000000000E+00 -0.31825747080E+03  0.31829217352E+03  0.47000000000E+01 0. -1.
          6    1    1    2  502    0 -0.53616424393E+02 -0.41896195779E+02 -0.13613623527E+03  0.22966733929E+03  0.17200000000E+03 0. -1.
         -6    1    1    2    0  502  0.53616424393E+02  0.41896195779E+02 -0.72262035565E+02  0.19858452601E+03  0.17200000000E+03 0. -1.
</event>
<event>
 4    1 -0.3240665E-004  0.2386793E+03  0.7818608E-02  0.1120676E+00
         -5   -1    0    0    0  501 -0.00000000000E+00  0.00000000000E+00  0.16911626677E+03  0.16918156426E+03  0.47000000000E+01 0.  1.
          5   -1    0    0  501    0  0.00000000000E+00 -0.00000000000E+00 -0.33843039685E+03  0.33846303123E+03  0.47000000000E+01 0. -1.
          6    1    1    2  502    0 -0.55703945042E+02  0.15582322728E+03 -0.66558111012E+02  0.24778577400E+03  0.17200000000E+03 0. -1.
         -6    1    1    2    0  502  0.55703945042E+02 -0.15582322728E+03 -0.10275601907E+03  0.25985882150E+03  0.17200000000E+03 0.  1.
</event>
<event>
 4    1 -0.3240665E-004  0.1750439E+03  0.7818608E-02  0.1172688E+00
         -5   -1    0    0    0  501 -0.00000000000E+00  0.00000000000E+00  0.34137534652E+03  0.34140769940E+03  0.47000000000E+01 0.  1.
          5   -1    0    0  501    0  0.00000000000E+00 -0.00000000000E+00 -0.11268847977E+03  0.11278645075E+03  0.47000000000E+01 0. -1.
          6    1    1    2  502    0  0.31976971701E+02 -0.58161405087E+01  0.11742050872E+02  0.17543725365E+03  0.17200000000E+03 0. -1.
         -6    1    1    2    0  502 -0.31976971701E+02  0.58161405087E+01  0.21694481588E+03  0.27875689650E+03  0.17200000000E+03 0.  1.
</event>
<event>
 4    1 -0.3240665E-004  0.1946097E+03  0.7818608E-02  0.1154368E+00
          5   -1    0    0  501    0  0.00000000000E+00  0.00000000000E+00  0.25595672854E+03  0.25599987673E+03  0.47000000000E+01 0. -1.
         -5   -1    0    0    0  501 -0.00000000000E+00 -0.00000000000E+00 -0.16003804605E+03  0.16010704601E+03  0.47000000000E+01 0.  1.
          6    1    1    2  502    0 -0.31055057108E+02 -0.85583345961E+02  0.10529980852E+03  0.22127127096E+03  0.17200000000E+03 0. -1.
         -6    1    1    2    0  502  0.31055057108E+02  0.85583345961E+02 -0.93811260322E+01  0.19483565178E+03  0.17200000000E+03 0.  1.
</event>
<event>
 4    1 -0.3240665E-004  0.3249447E+03  0.7818608E-02  0.1073396E+00
         -5   -1    0    0    0  501 -0.00000000000E+00  0.00000000000E+00  0.70993937537E+02  0.71149344108E+02  0.47000000000E+01 0.  1.
          5   -1    0    0  501    0  0.00000000000E+00 -0.00000000000E+00 -0.21018537239E+04  0.21018589788E+04  0.47000000000E+01 0. -1.
          6    1    1    2  502    0 -0.12861271992E+03  0.24385212425E+03 -0.16037642307E+04  0.16363522842E+04  0.17200000000E+03 0. -1.
         -6    1    1    2    0  502  0.12861271992E+03 -0.24385212425E+03 -0.42709555565E+03  0.53665603870E+03  0.17200000000E+03 0.  1.
</event>
<event>
 4    1 -0.3240665E-004  0.2283475E+03  0.7818608E-02  0.1127808E+00
          5   -1    0    0  501    0  0.00000000000E+00  0.00000000000E+00  0.83476269231E+02  0.83608477589E+02  0.47000000000E+01 0. -1.
         -5   -1    0    0    0  501 -0.00000000000E+00 -0.00000000000E+00 -0.93144395857E+03  0.93145581643E+03  0.47000000000E+01 0.  1.
          6    1    1    2  502    0  0.25813908171E+02 -0.14796019007E+03 -0.13242182648E+03  0.26396612629E+03  0.17200000000E+03 0. -1.
         -6    1    1    2    0  502 -0.25813908171E+02  0.14796019007E+03 -0.71554586286E+03  0.75109816772E+03  0.17200000000E+03 0.  1.
</event>
<event>
 4    1 -0.3240665E-004  0.2646568E+03  0.7818608E-02  0.1104377E+00
         -5   -1    0    0    0  501 -0.00000000000E+00  0.00000000000E+00  0.34704213067E+02  0.35021028034E+02  0.47000000000E+01 0.  1.
          5   -1    0    0  501    0  0.00000000000E+00 -0.00000000000E+00 -0.20129555497E+04  0.20129610367E+04  0.47000000000E+01 0. -1.
          6    1    1    2  502    0 -0.52173208102E+02 -0.19426064038E+03 -0.10356369899E+04  0.10689187129E+04  0.17200000000E+03 0.  1.
         -6    1    1    2    0  502  0.52173208102E+02  0.19426064038E+03 -0.94261434677E+03  0.97906335177E+03  0.17200000000E+03 0.  1.
</event>
<event>
 4    1 -0.3240665E-004  0.3038010E+03  0.7818608E-02  0.1083356E+00
         -5   -1    0    0    0  501 -0.00000000000E+00  0.00000000000E+00  0.14565241904E+03  0.14572823053E+03  0.47000000000E+01 0.  1.
          5   -1    0    0  501    0  0.00000000000E+00 -0.00000000000E+00 -0.76710819062E+03  0.76712258872E+03  0.47000000000E+01 0. -1.
          6    1    1    2  502    0  0.25037940883E+03  0.46051334461E+01 -0.50125939345E+03  0.58613653285E+03  0.17200000000E+03 0.  1.
         -6    1    1    2    0  502 -0.25037940883E+03 -0.46051334461E+01 -0.12019637813E+03  0.32671428639E+03  0.17200000000E+03 0.  1.
</event>
<event>
 4    1 -0.3240665E-004  0.3070809E+03  0.7818608E-02  0.1081754E+00
         -5   -1    0    0    0  501 -0.00000000000E+00  0.00000000000E+00  0.69319748814E+02  0.69478900219E+02  0.47000000000E+01 0.  1.
          5   -1    0    0  501    0  0.00000000000E+00 -0.00000000000E+00 -0.15811072476E+04  0.15811142332E+04  0.47000000000E+01 0. -1.
          6    1    1    2  502    0 -0.25244772581E+03 -0.31381798106E+02 -0.10654635333E+04  0.11088332662E+04  0.17200000000E+03 0. -1.
         -6    1    1    2    0  502  0.25244772581E+03  0.31381798106E+02 -0.44632396547E+03  0.54175986716E+03  0.17200000000E+03 0. -1.
</event>
<event>
 4    1 -0.3240665E-004  0.5427415E+03  0.7818608E-02  0.1003188E+00
         -5   -1    0    0    0  501 -0.00000000000E+00  0.00000000000E+00  0.38328833304E+03  0.38331714838E+03  0.47000000000E+01 0.  1.
          5   -1    0    0  501    0  0.00000000000E+00 -0.00000000000E+00 -0.87234902781E+03  0.87236168893E+03  0.47000000000E+01 0. -1.
          6    1    1    2  502    0  0.37355356167E+03 -0.35417798888E+03 -0.46118525955E+03  0.71222198427E+03  0.17200000000E+03 0. -1.
         -6    1    1    2    0  502 -0.37355356167E+03  0.35417798888E+03 -0.27875435212E+02  0.54345685305E+03  0.17200000000E+03 0.  1.
</event>
<event>
 4    1 -0.3240665E-004  0.2188947E+03  0.7818608E-02  0.1134710E+00
          5   -1    0    0  501    0  0.00000000000E+00  0.00000000000E+00  0.80387553070E+02  0.80524832744E+02  0.47000000000E+01 0. -1.
         -5   -1    0    0    0  501 -0.00000000000E+00 -0.00000000000E+00 -0.66136458969E+03  0.66138128980E+03  0.47000000000E+01 0.  1.
          6    1    1    2  502    0 -0.10907428178E+03  0.80210165226E+02 -0.40763389125E+03  0.46268807943E+03  0.17200000000E+03 0.  1.
         -6    1    1    2    0  502  0.10907428178E+03 -0.80210165226E+02 -0.17334314537E+03  0.27921804311E+03  0.17200000000E+03 0. -1.
</event>
<event>
 4    1 -0.3240665E-004  0.2614746E+03  0.7818608E-02  0.1106260E+00
          5   -1    0    0  501    0  0.00000000000E+00  0.00000000000E+00  0.55699193655E+03  0.55701176592E+03  0.47000000000E+01 0. -1.
         -5   -1    0    0    0  501 -0.00000000000E+00 -0.00000000000E+00 -0.12393987296E+03  0.12402895674E+03  0.47000000000E+01 0.  1.
          6    1    1    2  502    0 -0.12438848431E+03  0.15268420784E+03  0.18220573094E+03  0.31869717718E+03  0.17200000000E+03 0.  1.
         -6    1    1    2    0  502  0.12438848431E+03 -0.15268420784E+03  0.25084633264E+03  0.36234354548E+03  0.17200000000E+03 0. -1.
</event>
<event>
 4    1 -0.3240665E-004  0.1767650E+03  0.7818608E-02  0.1170971E+00
         -5   -1    0    0    0  501 -0.00000000000E+00  0.00000000000E+00  0.57220103921E+02  0.57412805999E+02  0.47000000000E+01 0.  1.
          5   -1    0    0  501    0  0.00000000000E+00 -0.00000000000E+00 -0.54519175503E+03  0.54521201358E+03  0.47000000000E+01 0. -1.
          6    1    1    2  502    0 -0.12378122087E+02 -0.38841095705E+02 -0.25041603440E+03  0.30651923089E+03  0.17200000000E+03 0.  1.
         -6    1    1    2    0  502  0.12378122087E+02  0.38841095705E+02 -0.23755561671E+03  0.29610558869E+03  0.17200000000E+03 0. -1.
</event>
<event>
 4    1 -0.3240665E-004  0.1743467E+03  0.7818608E-02  0.1173389E+00
          5   -1    0    0  501    0  0.00000000000E+00  0.00000000000E+00  0.54143752558E+03  0.54145792459E+03  0.47000000000E+01 0. -1.
         -5   -1    0    0    0  501 -0.00000000000E+00 -0.00000000000E+00 -0.76851582377E+02  0.76995166821E+02  0.47000000000E+01 0.  1.
          6    1    1    2  502    0 -0.27931466342E+02 -0.57100574624E+01  0.39308447557E+03  0.43001415849E+03  0.17200000000E+03 0. -1.
         -6    1    1    2    0  502  0.27931466342E+02  0.57100574624E+01  0.71501467634E+02  0.18843893293E+03  0.17200000000E+03 0.  1.
</event>
<event>
 4    1 -0.3240665E-004  0.2232138E+03  0.7818608E-02  0.1131509E+00
          5   -1    0    0  501    0  0.00000000000E+00  0.00000000000E+00  0.14857549479E+03  0.14864981551E+03  0.47000000000E+01 0. -1.
         -5   -1    0    0    0  501 -0.00000000000E+00 -0.00000000000E+00 -0.71521946548E+03  0.71523490813E+03  0.47000000000E+01 0.  1.
          6    1    1    2  502    0  0.14102723450E+03 -0.18753749692E+02  0.31521566068E+02  0.22542846565E+03  0.17200000000E+03 0. -1.
         -6    1    1    2    0  502 -0.14102723450E+03  0.18753749692E+02 -0.59816553676E+03  0.63845625799E+03  0.17200000000E+03 0.  1.
</event>
<event>
 4    1 -0.3240665E-004  0.2208142E+03  0.7818608E-02  0.1133277E+00
          5   -1    0    0  501    0  0.00000000000E+00  0.00000000000E+00  0.47557734081E+02  0.47789413795E+02  0.47000000000E+01 0. -1.
         -5   -1    0    0    0  501 -0.00000000000E+00 -0.00000000000E+00 -0.17493325340E+04  0.17493388479E+04  0.47000000000E+01 0.  1.
          6    1    1    2  502    0  0.36208512604E+02 -0.13365575110E+03 -0.27173671052E+03  0.35014247962E+03  0.17200000000E+03 0. -1.
         -6    1    1    2    0  502 -0.36208512604E+02  0.13365575110E+03 -0.14300380894E+04  0.14469857820E+04  0.17200000000E+03 0.  1.
</event>
<event>
 4    1 -0.3240665E-004  0.2207848E+03  0.7818608E-02  0.1133299E+00
         -5   -1    0    0    0  501 -0.00000000000E+00  0.00000000000E+00  0.81873217162E+02  0.82008009904E+02  0.47000000000E+01 0.  1.
          5   -1    0    0  501    0  0.00000000000E+00 -0.00000000000E+00 -0.69825566733E+03  0.69827148514E+03  0.47000000000E+01 0. -1.
          6    1    1    2  502    0  0.55555519864E+02  0.12678926122E+03 -0.45838403456E+03  0.50878468500E+03  0.17200000000E+03 0. -1.
         -6    1    1    2    0  502 -0.55555519864E+02 -0.12678926122E+03 -0.15799841561E+03  0.27149481005E+03  0.17200000000E+03 0.  1.
</event>
<event>
 4    1 -0.3240665E-004  0.1727484E+03  0.7818608E-02  0.1175012E+00
          5   -1    0    0  501    0  0.00000000000E+00  0.00000000000E+00  0.94677574851E+02  0.94794162160E+02  0.47000000000E+01 0. -1.
         -5   -1    0    0    0  501 -0.00000000000E+00 -0.00000000000E+00 -0.33918090346E+03  0.33921346564E+03  0.47000000000E+01 0.  1.
          6    1    1    2  502    0 -0.13349822820E+02 -0.89324165887E+01 -0.64165414867E+02  0.18428023850E+03  0.17200000000E+03 0. -1.
         -6    1    1    2    0  502  0.13349822820E+02  0.89324165887E+01 -0.18033791374E+03  0.24972738930E+03  0.17200000000E+03 0.  1.
</event>
<event>
 4    1 -0.3240665E-004  0.1961231E+03  0.7818608E-02  0.1153052E+00
          5   -1    0    0  501    0  0.00000000000E+00  0.00000000000E+00  0.30521970776E+03  0.30525589266E+03  0.47000000000E+01 0. -1.
         -5   -1    0    0    0  501 -0.00000000000E+00 -0.00000000000E+00 -0.16465475025E+03  0.16472181635E+03  0.47000000000E+01 0.  1.
          6    1    1    2  502    0  0.42033828409E+02 -0.84341163851E+02  0.18419769012E+03  0.26905959135E+03  0.17200000000E+03 0. -1.
         -6    1    1    2    0  502 -0.42033828409E+02  0.84341163851E+02 -0.43632732612E+02  0.20091811766E+03  0.17200000000E+03 0.  1.
</event>
<event>
 4    1 -0.3240665E-004  0.2142344E+03  0.7818608E-02  0.1138256E+00
         -5   -1    0    0    0  501 -0.00000000000E+00  0.00000000000E+00  0.74646599361E+02  0.74794416879E+02  0.47000000000E+01 0.  1.
          5   -1    0    0  501    0  0.00000000000E+00 -0.00000000000E+00 -0.10262025419E+04  0.10262133049E+04  0.47000000000E+01 0. -1.
          6    1    1    2  502    0  0.30598065131E+02  0.12400055102E+03 -0.82461344142E+03  0.85198809030E+03  0.17200000000E+03 0. -1.
         -6    1    1    2    0  502 -0.30598065131E+02 -0.12400055102E+03 -0.12694250115E+03  0.24901963144E+03  0.17200000000E+03 0.  1.
</event>
<event>
 4    1 -0.3240665E-004  0.5553855E+03  0.7818608E-02  0.1000255E+00
          5   -1    0    0  501    0  0.00000000000E+00  0.00000000000E+00  0.14012527267E+03  0.14020407284E+03  0.47000000000E+01 0. -1.
         -5   -1    0    0    0  501 -0.00000000000E+00 -0.00000000000E+00 -0.23672049437E+04  0.23672096095E+04  0.47000000000E+01 0.  1.
          6    1    1    2  502    0  0.17217660606E+03 -0.49922364785E+03 -0.78091212920E+03  0.95826759717E+03  0.17200000000E+03 0. -1.
         -6    1    1    2    0  502 -0.17217660606E+03  0.49922364785E+03 -0.14461675418E+04  0.15491460852E+04  0.17200000000E+03 0.  1.
</event>
<event>
 4    1 -0.3240665E-004  0.3435796E+03  0.7818608E-02  0.1065282E+00
          5   -1    0    0  501    0  0.00000000000E+00  0.00000000000E+00  0.95364057052E+03  0.95365215239E+03  0.47000000000E+01 0. -1.
         -5   -1    0    0    0  501 -0.00000000000E+00 -0.00000000000E+00 -0.15483132658E+03  0.15490264584E+03  0.47000000000E+01 0.  1.
          6    1    1    2  502    0  0.22043539503E+03  0.19967767636E+03  0.64775686480E+03  0.73323658782E+03  0.17200000000E+03 0. -1.
         -6    1    1    2    0  502 -0.22043539503E+03 -0.19967767636E+03  0.15105237914E+03  0.37531821041E+03  0.17200000000E+03 0.  1.
</event>
<event>
 4    1 -0.3240665E-004  0.1972055E+03  0.7818608E-02  0.1152118E+00
         -5   -1    0    0    0  501 -0.00000000000E+00  0.00000000000E+00  0.54733286917E+03  0.54735304848E+03  0.47000000000E+01 0.  1.
          5   -1    0    0  501    0  0.00000000000E+00 -0.00000000000E+00 -0.15656227476E+03  0.15663280588E+03  0.47000000000E+01 0. -1.
          6    1    1    2  502    0 -0.96260859212E+02  0.63142080526E+01 -0.64787818578E+02  0.20757524822E+03  0.17200000000E+03 0. -1.
         -6    1    1    2    0  502  0.96260859212E+02 -0.63142080526E+01  0.45555841299E+03  0.49641060613E+03  0.17200000000E+03 0.  1.
</event>
<event>
 4    1 -0.3240665E-004  0.1945825E+03  0.7818608E-02  0.1154392E+00
         -5   -1    0    0    0  501 -0.00000000000E+00  0.00000000000E+00  0.58111160778E+03  0.58113061415E+03  0.47000000000E+01 0.  1.
          5   -1    0    0  501    0  0.00000000000E+00 -0.00000000000E+00 -0.85939187862E+02  0.86067613017E+02  0.47000000000E+01 0. -1.
          6    1    1    2  502    0 -0.85886675172E+02  0.30030284653E+02  0.83276127983E+02  0.21165361433E+03  0.17200000000E+03 0. -1.
         -6    1    1    2    0  502  0.85886675172E+02 -0.30030284653E+02  0.41189629194E+03  0.45554461283E+03  0.17200000000E+03 0.  1.
</event>
<event>
 4    1 -0.3240665E-004  0.1806361E+03  0.7818608E-02  0.1167189E+00
          5   -1    0    0  501    0  0.00000000000E+00  0.00000000000E+00  0.31032206139E+03  0.31035765140E+03  0.47000000000E+01 0. -1.
         -5   -1    0    0    0  501 -0.00000000000E+00 -0.00000000000E+00 -0.10880186912E+03  0.10890333661E+03  0.47000000000E+01 0.  1.
          6    1    1    2  502    0 -0.32238549292E+01 -0.55090786569E+02  0.13964915997E+03  0.22832274500E+03  0.17200000000E+03 0. -1.
         -6    1    1    2    0  502  0.32238549292E+01  0.55090786569E+02  0.61871032294E+02  0.19093824301E+03  0.17200000000E+03 0.  1.
</event>
<event>
 4    1 -0.3240665E-004  0.2029173E+03  0.7818608E-02  0.1147301E+00
          5   -1    0    0  501    0  0.00000000000E+00  0.00000000000E+00  0.57609226664E+02  0.57800631457E+02  0.47000000000E+01 0. -1.
         -5   -1    0    0    0  501 -0.00000000000E+00 -0.00000000000E+00 -0.94524488371E+03  0.94525656844E+03  0.47000000000E+01 0.  1.
          6    1    1    2  502    0 -0.10127248261E+03  0.36542089313E+02 -0.19543600315E+03  0.28172800953E+03  0.17200000000E+03 0. -1.
         -6    1    1    2    0  502  0.10127248261E+03 -0.36542089313E+02 -0.69219965389E+03  0.72132919036E+03  0.17200000000E+03 0.  1.
</event>
<event>
 4    1 -0.3240665E-004  0.2205467E+03  0.7818608E-02  0.1133476E+00
          5   -1    0    0  501    0  0.00000000000E+00  0.00000000000E+00  0.15027556861E+03  0.15034904895E+03  0.47000000000E+01 0. -1.
         -5   -1    0    0    0  501 -0.00000000000E+00 -0.00000000000E+00 -0.37380893535E+03  0.37383848136E+03  0.47000000000E+01 0.  1.
          6    1    1    2  502    0  0.39845369073E+02  0.13217099509E+03 -0.20789675975E+03  0.30308726152E+03  0.17200000000E+03 0.  1.
         -6    1    1    2    0  502 -0.39845369073E+02 -0.13217099509E+03 -0.15636606981E+02  0.22110026879E+03  0.17200000000E+03 0. -1.
</event>
<event>
 4    1 -0.3240665E-004  0.2089548E+03  0.7818608E-02  0.1142396E+00
         -5   -1    0    0    0  501 -0.00000000000E+00  0.00000000000E+00  0.16160206181E+03  0.16167039426E+03  0.47000000000E+01 0.  1.
          5   -1    0    0  501    0  0.00000000000E+00 -0.00000000000E+00 -0.40482423408E+03  0.40485151660E+03  0.47000000000E+01 0. -1.
          6    1    1    2  502    0  0.20849356406E+02  0.11680508992E+03 -0.28503770348E+03  0.35342413203E+03  0.17200000000E+03 0. -1.
         -6    1    1    2    0  502 -0.20849356406E+02 -0.11680508992E+03  0.41815531215E+02  0.21309777883E+03  0.17200000000E+03 0.  1.
</event>
<event>
 4    1 -0.3240665E-004  0.2835910E+03  0.7818608E-02  0.1093744E+00
         -5   -1    0    0    0  501 -0.00000000000E+00  0.00000000000E+00  0.13935304477E+04  0.13935383736E+04  0.47000000000E+01 0.  1.
          5   -1    0    0  501    0  0.00000000000E+00 -0.00000000000E+00 -0.13677587967E+03  0.13685660838E+03  0.47000000000E+01 0. -1.
          6    1    1    2  502    0 -0.10475448557E+03 -0.19966557289E+03  0.46524107337E+02  0.28738186409E+03  0.17200000000E+03 0. -1.
         -6    1    1    2    0  502  0.10475448557E+03  0.19966557289E+03  0.12102304607E+04  0.12430131179E+04  0.17200000000E+03 0.  1.
</event>
<event>
 4    1 -0.3240665E-004  0.1755928E+03  0.7818608E-02  0.1172138E+00
          5   -1    0    0  501    0  0.00000000000E+00  0.00000000000E+00  0.86959911612E+03  0.86961181728E+03  0.47000000000E+01 0. -1.
         -5   -1    0    0    0  501 -0.00000000000E+00 -0.00000000000E+00 -0.41672648981E+02  0.41936853400E+02  0.47000000000E+01 0.  1.
          6    1    1    2  502    0 -0.91901463228E+01 -0.34123139482E+02  0.59172759392E+03  0.61723123126E+03  0.17200000000E+03 0. -1.
         -6    1    1    2    0  502  0.91901463228E+01  0.34123139482E+02  0.23619887322E+03  0.29431743942E+03  0.17200000000E+03 0.  1.
</event>
<event>
 4    1 -0.3240665E-004  0.2364319E+03  0.7818608E-02  0.1122193E+00
          5   -1    0    0  501    0  0.00000000000E+00  0.00000000000E+00  0.10556174570E+03  0.10566632460E+03  0.47000000000E+01 0. -1.
         -5   -1    0    0    0  501 -0.00000000000E+00 -0.00000000000E+00 -0.80195526457E+03  0.80196903704E+03  0.47000000000E+01 0.  1.
          6    1    1    2  502    0  0.15542152958E+03  0.46478087248E+02 -0.83540147636E+02  0.25075689565E+03  0.17200000000E+03 0.  1.
         -6    1    1    2    0  502 -0.15542152958E+03 -0.46478087248E+02 -0.61285337124E+03  0.65687846600E+03  0.17200000000E+03 0.  1.
</event>
<event>
 4    1 -0.3240665E-004  0.2017153E+03  0.7818608E-02  0.1148300E+00
          5   -1    0    0  501    0  0.00000000000E+00  0.00000000000E+00  0.35899073140E+02  0.36205434016E+02  0.47000000000E+01 0. -1.
         -5   -1    0    0    0  501 -0.00000000000E+00 -0.00000000000E+00 -0.11284672447E+04  0.11284770323E+04  0.47000000000E+01 0.  1.
          6    1    1    2  502    0 -0.24155310114E+02  0.10257470505E+03 -0.55333169373E+03  0.58895247042E+03  0.17200000000E+03 0.  1.
         -6    1    1    2    0  502  0.24155310114E+02 -0.10257470505E+03 -0.53923647786E+03  0.57572999590E+03  0.17200000000E+03 0.  1.
</event>
<event>
 4    1 -0.3240665E-004  0.3327309E+03  0.7818608E-02  0.1069935E+00
          5   -1    0    0  501    0  0.00000000000E+00  0.00000000000E+00  0.23809587901E+03  0.23814226337E+03  0.47000000000E+01 0. -1.
         -5   -1    0    0    0  501 -0.00000000000E+00 -0.00000000000E+00 -0.47313135737E+03  0.47315470126E+03  0.47000000000E+01 0.  1.
          6    1    1    2  502    0 -0.10238882158E+03 -0.26578638145E+03 -0.70544696218E+02  0.34012707260E+03  0.17200000000E+03 0. -1.
         -6    1    1    2    0  502  0.10238882158E+03  0.26578638145E+03 -0.16449078214E+03  0.37116989204E+03  0.17200000000E+03 0.  1.
</event>
<event>
 4    1 -0.3240665E-004  0.1963843E+03  0.7818608E-02  0.1152826E+00
         -5   -1    0    0    0  501 -0.00000000000E+00  0.00000000000E+00  0.18366882371E+04  0.18366942506E+04  0.47000000000E+01 0.  1.
          5   -1    0    0  501    0  0.00000000000E+00 -0.00000000000E+00 -0.25234223558E+02  0.25668191182E+02  0.47000000000E+01 0. -1.
          6    1    1    2  502    0 -0.82359805213E+02  0.46900681401E+02  0.51600130184E+03  0.55210882526E+03  0.17200000000E+03 0. -1.
         -6    1    1    2    0  502  0.82359805213E+02 -0.46900681401E+02  0.12954527117E+04  0.13102536165E+04  0.17200000000E+03 0.  1.
</event>
<event>
 4    1 -0.3240665E-004  0.2339085E+03  0.7818608E-02  0.1123919E+00
         -5   -1    0    0    0  501 -0.00000000000E+00  0.00000000000E+00  0.15941001114E+03  0.15947928283E+03  0.47000000000E+01 0.  1.
          5   -1    0    0  501    0  0.00000000000E+00 -0.00000000000E+00 -0.98743784370E+03  0.98744902915E+03  0.47000000000E+01 0. -1.
          6    1    1    2  502    0  0.10736864946E+03  0.11662408694E+03 -0.87724810868E+03  0.90789726771E+03  0.17200000000E+03 0. -1.
         -6    1    1    2    0  502 -0.10736864946E+03 -0.11662408694E+03  0.49220276116E+02  0.23903104426E+03  0.17200000000E+03 0.  1.
</event>
<event>
 4    1 -0.3240665E-004  0.1746897E+03  0.7818608E-02  0.1173044E+00
          5   -1    0    0  501    0  0.00000000000E+00  0.00000000000E+00  0.77719204379E+02  0.77861188851E+02  0.47000000000E+01 0. -1.
         -5   -1    0    0    0  501 -0.00000000000E+00 -0.00000000000E+00 -0.40305580365E+03  0.40308320588E+03  0.47000000000E+01 0.  1.
          6    1    1    2  502    0  0.58037889403E+01  0.29980404121E+02 -0.12309607895E+03  0.21370342358E+03  0.17200000000E+03 0. -1.
         -6    1    1    2    0  502 -0.58037889403E+01 -0.29980404121E+02 -0.20224052033E+03  0.26724097115E+03  0.17200000000E+03 0.  1.
</event>
<event>
 4    1 -0.3240665E-004  0.2542292E+03  0.7818608E-02  0.1110661E+00
          5   -1    0    0  501    0  0.00000000000E+00  0.00000000000E+00  0.59375314867E+03  0.59377175039E+03  0.47000000000E+01 0. -1.
         -5   -1    0    0    0  501 -0.00000000000E+00 -0.00000000000E+00 -0.11829731676E+03  0.11839064639E+03  0.47000000000E+01 0.  1.
          6    1    1    2  502    0  0.10957977275E+03  0.15179187175E+03  0.13679447432E+03  0.28869573452E+03  0.17200000000E+03 0.  1.
         -6    1    1    2    0  502 -0.10957977275E+03 -0.15179187175E+03  0.33866135758E+03  0.42346666226E+03  0.17200000000E+03 0. -1.
</event>
<event>
 4    1 -0.3240665E-004  0.1841255E+03  0.7818608E-02  0.1163869E+00
          5   -1    0    0  501    0  0.00000000000E+00  0.00000000000E+00  0.31437560267E+02  0.31786950083E+02  0.47000000000E+01 0. -1.
         -5   -1    0    0    0  501 -0.00000000000E+00 -0.00000000000E+00 -0.12520003232E+04  0.12520091451E+04  0.47000000000E+01 0.  1.
          6    1    1    2  502    0  0.13647330040E+02 -0.64280373416E+02 -0.36698462765E+03  0.41058486693E+03  0.17200000000E+03 0. -1.
         -6    1    1    2    0  502 -0.13647330040E+02  0.64280373416E+02 -0.85357813533E+03  0.87321122825E+03  0.17200000000E+03 0.  1.
</event>
<event>
 4    1 -0.3240665E-004  0.2104370E+03  0.7818608E-02  0.1141220E+00
         -5   -1    0    0    0  501 -0.00000000000E+00  0.00000000000E+00  0.26593525127E+03  0.26597678069E+03  0.47000000000E+01 0.  1.
          5   -1    0    0  501    0  0.00000000000E+00 -0.00000000000E+00 -0.23972072668E+03  0.23976679670E+03  0.47000000000E+01 0. -1.
          6    1    1    2  502    0 -0.40799315043E+02  0.11417156669E+03 -0.12668226535E+03  0.24562599029E+03  0.17200000000E+03 0. -1.
         -6    1    1    2    0  502  0.40799315043E+02 -0.11417156669E+03  0.15289678994E+03  0.26011758711E+03  0.17200000000E+03 0.  1.
</event>
<event>
 4    1 -0.3240665E-004  0.1932205E+03  0.7818608E-02  0.1155588E+00
          5   -1    0    0  501    0  0.00000000000E+00  0.00000000000E+00  0.10436802969E+04  0.10436908796E+04  0.47000000000E+01 0. -1.
         -5   -1    0    0    0  501 -0.00000000000E+00 -0.00000000000E+00 -0.65790130925E+02  0.65957799592E+02  0.47000000000E+01 0.  1.
          6    1    1    2  502    0  0.27775577900E+02  0.83538454681E+02  0.86404016963E+03  0.88538103146E+03  0.17200000000E+03 0. -1.
         -6    1    1    2    0  502 -0.27775577900E+02 -0.83538454681E+02  0.11384999631E+03  0.22426764769E+03  0.17200000000E+03 0.  1.
</event>
<event>
 4    1 -0.3240665E-004  0.3281964E+03  0.7818608E-02  0.1071938E+00
          5   -1    0    0  501    0  0.00000000000E+00  0.00000000000E+00  0.10547360617E+03  0.10557827238E+03  0.47000000000E+01 0. -1.
         -5   -1    0    0    0  501 -0.00000000000E+00 -0.00000000000E+00 -0.10557069204E+04  0.10557173825E+04  0.47000000000E+01 0.  1.
          6    1    1    2  502    0 -0.27936015447E+03  0.93152177740E+01 -0.58097547668E+03  0.66726709322E+03  0.17200000000E+03 0. -1.
         -6    1    1    2    0  502  0.27936015447E+03 -0.93152177740E+01 -0.36925783756E+03  0.49402856171E+03  0.17200000000E+03 0.  1.
</event>
<event>
 4    1 -0.3240665E-004  0.2033336E+03  0.7818608E-02  0.1146957E+00
         -5   -1    0    0    0  501 -0.00000000000E+00  0.00000000000E+00  0.21374265091E+04  0.21374316765E+04  0.47000000000E+01 0.  1.
          5   -1    0    0  501    0  0.00000000000E+00 -0.00000000000E+00 -0.48899604087E+02  0.49124955774E+02  0.47000000000E+01 0. -1.
          6    1    1    2  502    0  0.70097901860E+02 -0.82745708548E+02  0.19362353225E+03  0.28077507078E+03  0.17200000000E+03 0. -1.
         -6    1    1    2    0  502 -0.70097901860E+02  0.82745708548E+02  0.18949033728E+04  0.19057815615E+04  0.17200000000E+03 0.  1.
</event>
<event>
 4    1 -0.3240665E-004  0.2090435E+03  0.7818608E-02  0.1142326E+00
          5   -1    0    0  501    0  0.00000000000E+00  0.00000000000E+00  0.10476377449E+03  0.10486914916E+03  0.47000000000E+01 0. -1.
         -5   -1    0    0    0  501 -0.00000000000E+00 -0.00000000000E+00 -0.96455776039E+03  0.96456921117E+03  0.47000000000E+01 0.  1.
          6    1    1    2  502    0 -0.97682314211E+02  0.67626526016E+02 -0.26965911261E+02  0.21077557235E+03  0.17200000000E+03 0. -1.
         -6    1    1    2    0  502  0.97682314211E+02 -0.67626526016E+02 -0.83282807465E+03  0.85866278797E+03  0.17200000000E+03 0.  1.
</event>
<event>
 4    1 -0.3240665E-004  0.2465246E+03  0.7818608E-02  0.1115521E+00
          5   -1    0    0  501    0  0.00000000000E+00  0.00000000000E+00  0.45815922495E+03  0.45818333166E+03  0.47000000000E+01 0. -1.
         -5   -1    0    0    0  501 -0.00000000000E+00 -0.00000000000E+00 -0.13581505434E+03  0.13589635384E+03  0.47000000000E+01 0.  1.
          6    1    1    2  502    0  0.73838453565E+02  0.16043149582E+03  0.20699943061E+03  0.32190549289E+03  0.17200000000E+03 0.  1.
         -6    1    1    2    0  502 -0.73838453565E+02 -0.16043149582E+03  0.11534474000E+03  0.27217419261E+03  0.17200000000E+03 0.  1.
</event>
<event>
 4    1 -0.3240665E-004  0.2863839E+03  0.7818608E-02  0.1092252E+00
          5   -1    0    0  501    0  0.00000000000E+00  0.00000000000E+00  0.58805604725E+03  0.58807482917E+03  0.47000000000E+01 0. -1.
         -5   -1    0    0    0  501 -0.00000000000E+00 -0.00000000000E+00 -0.33786388381E+03  0.33789657291E+03  0.47000000000E+01 0.  1.
          6    1    1    2  502    0 -0.22356506329E+03  0.49501368722E+02  0.47989311824E+03  0.55884982595E+03  0.17200000000E+03 0. -1.
         -6    1    1    2    0  502  0.22356506329E+03 -0.49501368722E+02 -0.22970095480E+03  0.36712157614E+03  0.17200000000E+03 0.  1.
</event>
<event>
 4    1 -0.3240665E-004  0.4057120E+03  0.7818608E-02  0.1041820E+00
         -5   -1    0    0    0  501 -0.00000000000E+00  0.00000000000E+00  0.10651499074E+04  0.10651602768E+04  0.47000000000E+01 0.  1.
          5   -1    0    0  501    0  0.00000000000E+00 -0.00000000000E+00 -0.20529245378E+03  0.20534624803E+03  0.47000000000E+01 0. -1.
          6    1    1    2  502    0  0.36737170300E+03 -0.75014758727E+01  0.11396566701E+03  0.42141477616E+03  0.17200000000E+03 0. -1.
         -6    1    1    2    0  502 -0.36737170300E+03  0.75014758727E+01  0.74589178661E+03  0.84909174866E+03  0.17200000000E+03 0.  1.
</event>
<event>
 4    1 -0.3240665E-004  0.1960723E+03  0.7818608E-02  0.1153096E+00
          5   -1    0    0  501    0  0.00000000000E+00  0.00000000000E+00  0.12478365478E+03  0.12487213661E+03  0.47000000000E+01 0. -1.
         -5   -1    0    0    0  501 -0.00000000000E+00 -0.00000000000E+00 -0.34493773883E+03  0.34496975761E+03  0.47000000000E+01 0.  1.
          6    1    1    2  502    0  0.34237309697E+02  0.87682063370E+02 -0.33082698142E+02  0.19884366354E+03  0.17200000000E+03 0. -1.
         -6    1    1    2    0  502 -0.34237309697E+02 -0.87682063370E+02 -0.18707138590E+03  0.27099823069E+03  0.17200000000E+03 0.  1.
</event>
<event>
 4    1 -0.3240665E-004  0.6152205E+03  0.7818608E-02  0.9874322E-01
         -5   -1    0    0    0  501 -0.00000000000E+00  0.00000000000E+00  0.30726281640E+03  0.30729876073E+03  0.47000000000E+01 0.  1.
          5   -1    0    0  501    0  0.00000000000E+00 -0.00000000000E+00 -0.20279425185E+04  0.20279479649E+04  0.47000000000E+01 0. -1.
          6    1    1    2  502    0 -0.23028472317E+03  0.54394961596E+03 -0.15919633258E+04  0.17067054430E+04  0.17200000000E+03 0. -1.
         -6    1    1    2    0  502  0.23028472317E+03 -0.54394961596E+03 -0.12871637626E+03  0.62854128261E+03  0.17200000000E+03 0.  1.
</event>
<event>
 4    1 -0.3240665E-004  0.2285973E+03  0.7818608E-02  0.1127631E+00
          5   -1    0    0  501    0  0.00000000000E+00  0.00000000000E+00  0.25851664854E+03  0.25855936953E+03  0.47000000000E+01 0. -1.
         -5   -1    0    0    0  501 -0.00000000000E+00 -0.00000000000E+00 -0.21028455300E+03  0.21033707051E+03  0.47000000000E+01 0.  1.
          6    1    1    2  502    0  0.10294263821E+03  0.10988871846E+03  0.70488669668E+02  0.23921824713E+03  0.17200000000E+03 0. -1.
         -6    1    1    2    0  502 -0.10294263821E+03 -0.10988871846E+03 -0.22256574128E+02  0.22967819291E+03  0.17200000000E+03 0.  1.
</event>
<event>
 4    1 -0.3240665E-004  0.2269471E+03  0.7818608E-02  0.1128807E+00
          5   -1    0    0  501    0  0.00000000000E+00  0.00000000000E+00  0.78519259885E+03  0.78520666533E+03  0.47000000000E+01 0. -1.
         -5   -1    0    0    0  501 -0.00000000000E+00 -0.00000000000E+00 -0.89164083546E+02  0.89287870366E+02  0.47000000000E+01 0.  1.
          6    1    1    2  502    0 -0.10799961785E+03 -0.10127709772E+03  0.57308530977E+03  0.61638603184E+03  0.17200000000E+03 0. -1.
         -6    1    1    2    0  502  0.10799961785E+03  0.10127709772E+03  0.12294320554E+03  0.25810850386E+03  0.17200000000E+03 0.  1.
</event>
<event>
 4    1 -0.3240665E-004  0.2511621E+03  0.7818608E-02  0.1112573E+00
          5   -1    0    0  501    0  0.00000000000E+00  0.00000000000E+00  0.16028558443E+03  0.16035447788E+03  0.47000000000E+01 0. -1.
         -5   -1    0    0    0  501 -0.00000000000E+00 -0.00000000000E+00 -0.62391807425E+03  0.62393577664E+03  0.47000000000E+01 0.  1.
          6    1    1    2  502    0  0.41249746743E+02  0.17831669174E+03  0.65300245274E+01  0.25124694104E+03  0.17200000000E+03 0. -1.
         -6    1    1    2    0  502 -0.41249746743E+02 -0.17831669174E+03 -0.47016251435E+03  0.53304331349E+03  0.17200000000E+03 0.  1.
</event>
<event>
 4    1 -0.3240665E-004  0.3420968E+03  0.7818608E-02  0.1065906E+00
         -5   -1    0    0    0  501 -0.00000000000E+00  0.00000000000E+00  0.31023621516E+03  0.31027181502E+03  0.47000000000E+01 0.  1.
          5   -1    0    0  501    0  0.00000000000E+00 -0.00000000000E+00 -0.46329568908E+03  0.46331952853E+03  0.47000000000E+01 0. -1.
          6    1    1    2  502    0 -0.42169286485E+02  0.29269085916E+03 -0.24330108722E+03  0.41979233771E+03  0.17200000000E+03 0. -1.
         -6    1    1    2    0  502  0.42169286485E+02 -0.29269085916E+03  0.90241613301E+02  0.35379900584E+03  0.17200000000E+03 0.  1.
</event>
<event>
 4    1 -0.3240665E-004  0.2311711E+03  0.7818608E-02  0.1125818E+00
          5   -1    0    0  501    0  0.00000000000E+00  0.00000000000E+00  0.55405961770E+02  0.55604951215E+02  0.47000000000E+01 0. -1.
         -5   -1    0    0    0  501 -0.00000000000E+00 -0.00000000000E+00 -0.10772403824E+04  0.10772506354E+04  0.47000000000E+01 0.  1.
          6    1    1    2  502    0  0.10141233541E+03 -0.11649732926E+03 -0.32614231216E+03  0.39976105022E+03  0.17200000000E+03 0. -1.
         -6    1    1    2    0  502 -0.10141233541E+03  0.11649732926E+03 -0.69569210842E+03  0.73309453634E+03  0.17200000000E+03 0. -1.
</event>
<event>
 4    1 -0.3240665E-004  0.3476457E+03  0.7818608E-02  0.1063585E+00
          5   -1    0    0  501    0  0.00000000000E+00  0.00000000000E+00  0.45929307344E+03  0.45931712064E+03  0.47000000000E+01 0. -1.
         -5   -1    0    0    0  501 -0.00000000000E+00 -0.00000000000E+00 -0.26778143060E+03  0.26782267375E+03  0.47000000000E+01 0.  1.
          6    1    1    2  502    0 -0.28729073155E+03  0.93475080435E+02  0.47619907040E+02  0.35089202134E+03  0.17200000000E+03 0. -1.
         -6    1    1    2    0  502  0.28729073155E+03 -0.93475080435E+02  0.14389173580E+03  0.37624777305E+03  0.17200000000E+03 0.  1.
</event>
<event>
 4    1 -0.3240665E-004  0.3002681E+03  0.7818608E-02  0.1085107E+00
          5   -1    0    0  501    0  0.00000000000E+00  0.00000000000E+00  0.18709016587E+03  0.18714919226E+03  0.47000000000E+01 0. -1.
         -5   -1    0    0    0  501 -0.00000000000E+00 -0.00000000000E+00 -0.49412258842E+03  0.49414494067E+03  0.47000000000E+01 0.  1.
          6    1    1    2  502    0 -0.16498930304E+02  0.24557014714E+03 -0.99649881057E+02  0.31637163378E+03  0.17200000000E+03 0. -1.
         -6    1    1    2    0  502  0.16498930304E+02 -0.24557014714E+03 -0.20738254149E+03  0.36492249915E+03  0.17200000000E+03 0.  1.
</event>
<event>
 4    1 -0.3240665E-004  0.1789979E+03  0.7818608E-02  0.1168776E+00
          5   -1    0    0  501    0  0.00000000000E+00  0.00000000000E+00  0.76099768158E+02  0.76244768435E+02  0.47000000000E+01 0. -1.
         -5   -1    0    0    0  501 -0.00000000000E+00 -0.00000000000E+00 -0.48031816409E+03  0.48034115871E+03  0.47000000000E+01 0.  1.
          6    1    1    2  502    0 -0.39680257968E+01 -0.49401383833E+02 -0.10389269837E+03  0.20696360726E+03  0.17200000000E+03 0. -1.
         -6    1    1    2    0  502  0.39680257968E+01  0.49401383833E+02 -0.30032569756E+03  0.34962231989E+03  0.17200000000E+03 0.  1.
</event>
<event>
 4    1 -0.3240665E-004  0.1838519E+03  0.7818608E-02  0.1164126E+00
          5   -1    0    0  501    0  0.00000000000E+00  0.00000000000E+00  0.11169366259E+03  0.11179250540E+03  0.47000000000E+01 0. -1.
         -5   -1    0    0    0  501 -0.00000000000E+00 -0.00000000000E+00 -0.30534498854E+03  0.30538115860E+03  0.47000000000E+01 0.  1.
          6    1    1    2  502    0  0.87446652439E+01 -0.64351000494E+02 -0.11738906666E+03  0.21813233003E+03  0.17200000000E+03 0.  1.
         -6    1    1    2    0  502 -0.87446652439E+01  0.64351000494E+02 -0.76262259284E+02  0.19904133396E+03  0.17200000000E+03 0. -1.
</event>
<event>
 4    1 -0.3240665E-004  0.1840913E+03  0.7818608E-02  0.1163901E+00
         -5   -1    0    0    0  501 -0.00000000000E+00  0.00000000000E+00  0.68684657528E+03  0.68686265583E+03  0.47000000000E+01 0.  1.
          5   -1    0    0  501    0  0.00000000000E+00 -0.00000000000E+00 -0.54867547823E+02  0.55068482856E+02  0.47000000000E+01 0. -1.
          6    1    1    2  502    0 -0.42405411463E+02 -0.50073775520E+02  0.43484010810E+03  0.47220283939E+03  0.17200000000E+03 0.  1.
         -6    1    1    2    0  502  0.42405411463E+02  0.50073775520E+02  0.19713891936E+03  0.26972829930E+03  0.17200000000E+03 0. -1.
</event>
<event>
 4    1 -0.3240665E-004  0.1832686E+03  0.7818608E-02  0.1164677E+00
         -5   -1    0    0    0  501 -0.00000000000E+00  0.00000000000E+00  0.57879725124E+03  0.57881633360E+03  0.47000000000E+01 0.  1.
          5   -1    0    0  501    0  0.00000000000E+00 -0.00000000000E+00 -0.63127886070E+02  0.63302606579E+02  0.47000000000E+01 0. -1.
          6    1    1    2  502    0  0.34449838625E+02 -0.53071637032E+02  0.16571619336E+03  0.24708145778E+03  0.17200000000E+03 0. -1.
         -6    1    1    2    0  502 -0.34449838625E+02  0.53071637032E+02  0.34995317181E+03  0.39503748240E+03  0.17200000000E+03 0.  1.
</event>
<event>
 4    1 -0.3240665E-004  0.2492685E+03  0.7818608E-02  0.1113768E+00
         -5   -1    0    0    0  501 -0.00000000000E+00  0.00000000000E+00  0.13359217049E+03  0.13367482192E+03  0.47000000000E+01 0.  1.
          5   -1    0    0  501    0  0.00000000000E+00 -0.00000000000E+00 -0.52748518328E+03  0.52750612184E+03  0.47000000000E+01 0. -1.
          6    1    1    2  502    0  0.16661195084E+03 -0.69218836497E+02 -0.31083583166E+03  0.39843908409E+03  0.17200000000E+03 0. -1.
         -6    1    1    2    0  502 -0.16661195084E+03  0.69218836497E+02 -0.83057181129E+02  0.26274185967E+03  0.17200000000E+03 0.  1.
</event>
<event>
 4    1 -0.3240665E-004  0.2310289E+03  0.7818608E-02  0.1125918E+00
          5   -1    0    0  501    0  0.00000000000E+00  0.00000000000E+00  0.34852178242E+03  0.34855347197E+03  0.47000000000E+01 0. -1.
         -5   -1    0    0    0  501 -0.00000000000E+00 -0.00000000000E+00 -0.17990338836E+03  0.17996477195E+03  0.47000000000E+01 0.  1.
          6    1    1    2  502    0  0.34770801842E+02 -0.15027086423E+03 -0.17720747307E+02  0.23170750135E+03  0.17200000000E+03 0. -1.
         -6    1    1    2    0  502 -0.34770801842E+02  0.15027086423E+03  0.18633914136E+03  0.29681074256E+03  0.17200000000E+03 0. -1.
</event>
<event>
 4    1 -0.3240665E-004  0.2039699E+03  0.7818608E-02  0.1146432E+00
          5   -1    0    0  501    0  0.00000000000E+00  0.00000000000E+00  0.45983914360E+02  0.46223482992E+02  0.47000000000E+01 0. -1.
         -5   -1    0    0    0  501 -0.00000000000E+00 -0.00000000000E+00 -0.16949167675E+04  0.16949232840E+04  0.47000000000E+01 0.  1.
          6    1    1    2  502    0 -0.59851670189E+02  0.91855822365E+02 -0.22911635906E+03  0.30675400652E+03  0.17200000000E+03 0. -1.
         -6    1    1    2    0  502  0.59851670189E+02 -0.91855822365E+02 -0.14198164941E+04  0.14343927605E+04  0.17200000000E+03 0.  1.
</event>
<event>
 4    1 -0.3240665E-004  0.3125963E+03  0.7818608E-02  0.1079108E+00
          5   -1    0    0  501    0  0.00000000000E+00  0.00000000000E+00  0.13822657829E+03  0.13830646025E+03  0.47000000000E+01 0. -1.
         -5   -1    0    0    0  501 -0.00000000000E+00 -0.00000000000E+00 -0.75393660706E+03  0.75395125669E+03  0.47000000000E+01 0.  1.
          6    1    1    2  502    0  0.10723591884E+03  0.23797664440E+03 -0.19611923450E+03  0.36902463293E+03  0.17200000000E+03 0. -1.
         -6    1    1    2    0  502 -0.10723591884E+03 -0.23797664440E+03 -0.41959079426E+03  0.52323308401E+03  0.17200000000E+03 0.  1.
</event>
<event>
 4    1 -0.3240665E-004  0.3180272E+03  0.7818608E-02  0.1076561E+00
         -5   -1    0    0    0  501 -0.00000000000E+00  0.00000000000E+00  0.44614217307E+03  0.44616692906E+03  0.47000000000E+01 0.  1.
          5   -1    0    0  501    0  0.00000000000E+00 -0.00000000000E+00 -0.37057515168E+03  0.37060495550E+03  0.47000000000E+01 0. -1.
          6    1    1    2  502    0 -0.24128222009E+03 -0.11549981129E+03 -0.21670526864E+03  0.38484086269E+03  0.17200000000E+03 0. -1.
         -6    1    1    2    0  502  0.24128222009E+03  0.11549981129E+03  0.29227229003E+03  0.43193102187E+03  0.17200000000E+03 0.  1.
</event>
<event>
 4    1 -0.3240665E-004  0.1860630E+03  0.7818608E-02  0.1162061E+00
          5   -1    0    0  501    0  0.00000000000E+00  0.00000000000E+00  0.25674958337E+03  0.25679259833E+03  0.47000000000E+01 0. -1.
         -5   -1    0    0    0  501 -0.00000000000E+00 -0.00000000000E+00 -0.13474298128E+03  0.13482492723E+03  0.47000000000E+01 0.  1.
          6    1    1    2  502    0 -0.88152940951E+01 -0.70411264507E+02  0.60517308404E+02  0.19565735406E+03  0.17200000000E+03 0. -1.
         -6    1    1    2    0  502  0.88152940951E+01  0.70411264507E+02  0.61489293686E+02  0.19596017151E+03  0.17200000000E+03 0.  1.
</event>
<event>
 4    1 -0.3240665E-004  0.3156199E+03  0.7818608E-02  0.1077683E+00
          5   -1    0    0  501    0  0.00000000000E+00  0.00000000000E+00  0.42187699339E+03  0.42190317320E+03  0.47000000000E+01 0. -1.
         -5   -1    0    0    0  501 -0.00000000000E+00 -0.00000000000E+00 -0.49559032560E+03  0.49561261165E+03  0.47000000000E+01 0.  1.
          6    1    1    2  502    0 -0.26117805339E+03 -0.42637682271E+02  0.29510071760E+03  0.43208839495E+03  0.17200000000E+03 0. -1.
         -6    1    1    2    0  502  0.26117805339E+03  0.42637682271E+02 -0.36881404981E+03  0.48542738989E+03  0.17200000000E+03 0.  1.
</event>
<event>
 4    1 -0.3240665E-004  0.1855896E+03  0.7818608E-02  0.1162500E+00
         -5   -1    0    0    0  501 -0.00000000000E+00  0.00000000000E+00  0.30153086335E+02  0.30517185577E+02  0.47000000000E+01 0.  1.
          5   -1    0    0  501    0  0.00000000000E+00 -0.00000000000E+00 -0.11533942435E+04  0.11534038195E+04  0.47000000000E+01 0. -1.
          6    1    1    2  502    0  0.39553929096E+02 -0.57401832713E+02 -0.63623615773E+03  0.66275178770E+03  0.17200000000E+03 0. -1.
         -6    1    1    2    0  502 -0.39553929096E+02  0.57401832713E+02 -0.48700499944E+03  0.52116921742E+03  0.17200000000E+03 0.  1.
</event>
<event>
 4    1 -0.3240665E-004  0.1782528E+03  0.7818608E-02  0.1169505E+00
         -5   -1    0    0    0  501 -0.00000000000E+00  0.00000000000E+00  0.17144594073E+03  0.17151035127E+03  0.47000000000E+01 0.  1.
          5   -1    0    0  501    0  0.00000000000E+00 -0.00000000000E+00 -0.18522830479E+03  0.18528792431E+03  0.47000000000E+01 0. -1.
          6    1    1    2  502    0  0.31312801992E+02 -0.34778851098E+02 -0.90616545691E+01  0.17848297856E+03  0.17200000000E+03 0. -1.
         -6    1    1    2    0  502 -0.31312801992E+02  0.34778851098E+02 -0.47207094923E+01  0.17831529702E+03  0.17200000000E+03 0.  1.
</event>
<event>
 4    1 -0.3240665E-004  0.2116442E+03  0.7818608E-02  0.1140271E+00
         -5   -1    0    0    0  501 -0.00000000000E+00  0.00000000000E+00  0.34470331202E+03  0.34473535258E+03  0.47000000000E+01 0.  1.
          5   -1    0    0  501    0  0.00000000000E+00 -0.00000000000E+00 -0.15296226756E+03  0.15303445787E+03  0.47000000000E+01 0. -1.
          6    1    1    2  502    0 -0.56984640452E+02  0.10937107317E+03 -0.80425246742E+00  0.21164575997E+03  0.17200000000E+03 0. -1.
         -6    1    1    2    0  502  0.56984640452E+02 -0.10937107317E+03  0.19254529693E+03  0.28612405048E+03  0.17200000000E+03 0.  1.
</event>
<event>
 4    1 -0.3240665E-004  0.2352824E+03  0.7818608E-02  0.1122976E+00
         -5   -1    0    0    0  501 -0.00000000000E+00  0.00000000000E+00  0.11976891683E+03  0.11986110060E+03  0.47000000000E+01 0.  1.
          5   -1    0    0  501    0  0.00000000000E+00 -0.00000000000E+00 -0.51014244799E+03  0.51016409834E+03  0.47000000000E+01 0. -1.
          6    1    1    2  502    0  0.66901181772E+02  0.14593853014E+03 -0.98349391338E+02  0.25501063797E+03  0.17200000000E+03 0.  1.
         -6    1    1    2    0  502 -0.66901181772E+02 -0.14593853014E+03 -0.29202413982E+03  0.37501456097E+03  0.17200000000E+03 0.  1.
</event>
<event>
 4    1 -0.3240665E-004  0.2226579E+03  0.7818608E-02  0.1131917E+00
         -5   -1    0    0    0  501 -0.00000000000E+00  0.00000000000E+00  0.28647553000E+03  0.28651408219E+03  0.47000000000E+01 0.  1.
          5   -1    0    0  501    0  0.00000000000E+00 -0.00000000000E+00 -0.22690283671E+03  0.22695150871E+03  0.47000000000E+01 0. -1.
          6    1    1    2  502    0  0.14128625839E+03 -0.55456090902E+01 -0.95348462924E+02  0.24221455359E+03  0.17200000000E+03 0. -1.
         -6    1    1    2    0  502 -0.14128625839E+03  0.55456090902E+01  0.15492115622E+03  0.27125103730E+03  0.17200000000E+03 0.  1.
</event>
<event>
 4    1 -0.3240665E-004  0.3191006E+03  0.7818608E-02  0.1076064E+00
         -5   -1    0    0    0  501 -0.00000000000E+00  0.00000000000E+00  0.15386031260E+03  0.15393208175E+03  0.47000000000E+01 0.  1.
          5   -1    0    0  501    0  0.00000000000E+00 -0.00000000000E+00 -0.67435266495E+03  0.67436904342E+03  0.47000000000E+01 0. -1.
          6    1    1    2  502    0 -0.16309568884E+03 -0.21363746464E+03 -0.20322627434E+03  0.37832008749E+03  0.17200000000E+03 0. -1.
         -6    1    1    2    0  502  0.16309568884E+03  0.21363746464E+03 -0.31726607802E+03  0.44998103768E+03  0.17200000000E+03 0.  1.
</event>
<event>
 4    1 -0.3240665E-004  0.6247631E+03  0.7818608E-02  0.9855322E-01
         -5   -1    0    0    0  501 -0.00000000000E+00  0.00000000000E+00  0.15146630717E+04  0.15146703637E+04  0.47000000000E+01 0.  1.
          5   -1    0    0  501    0  0.00000000000E+00 -0.00000000000E+00 -0.25910381836E+03  0.25914644255E+03  0.47000000000E+01 0. -1.
          6    1    1    2  502    0  0.36270369078E+02  0.59952425928E+03  0.56182775642E+03  0.84022574647E+03  0.17200000000E+03 0. -1.
         -6    1    1    2    0  502 -0.36270369078E+02 -0.59952425928E+03  0.69373149688E+03  0.93359105978E+03  0.17200000000E+03 0.  1.
</event>
<event>
 4    1 -0.3240665E-004  0.2299253E+03  0.7818608E-02  0.1126692E+00
         -5   -1    0    0    0  501 -0.00000000000E+00  0.00000000000E+00  0.45178988187E+02  0.45422802353E+02  0.47000000000E+01 0.  1.
          5   -1    0    0  501    0  0.00000000000E+00 -0.00000000000E+00 -0.14169868592E+04  0.14169946539E+04  0.47000000000E+01 0. -1.
          6    1    1    2  502    0  0.82088921470E+02  0.12861971678E+03 -0.99316261721E+03  0.10194300402E+04  0.17200000000E+03 0. -1.
         -6    1    1    2    0  502 -0.82088921470E+02 -0.12861971678E+03 -0.37864525379E+03  0.44298741606E+03  0.17200000000E+03 0.  1.
</event>
<event>
 4    1 -0.3240665E-004  0.2182878E+03  0.7818608E-02  0.1135166E+00
         -5   -1    0    0    0  501 -0.00000000000E+00  0.00000000000E+00  0.54761879871E+02  0.54963201208E+02  0.47000000000E+01 0.  1.
          5   -1    0    0  501    0  0.00000000000E+00 -0.00000000000E+00 -0.86866674960E+03  0.86867946439E+03  0.47000000000E+01 0. -1.
          6    1    1    2  502    0 -0.13374088735E+03  0.13376354744E+02 -0.39770634704E+03  0.45367377077E+03  0.17200000000E+03 0. -1.
         -6    1    1    2    0  502  0.13374088735E+03 -0.13376354744E+02 -0.41619852269E+03  0.46996889483E+03  0.17200000000E+03 0. -1.
</event>
<event>
 4    1 -0.3240665E-004  0.1855989E+03  0.7818608E-02  0.1162492E+00
         -5   -1    0    0    0  501 -0.00000000000E+00  0.00000000000E+00  0.75639848262E+02  0.75785728506E+02  0.47000000000E+01 0.  1.
          5   -1    0    0  501    0  0.00000000000E+00 -0.00000000000E+00 -0.59785914405E+03  0.59787761801E+03  0.47000000000E+01 0. -1.
          6    1    1    2  502    0 -0.67433245665E+02  0.17768689502E+02 -0.42584771031E+03  0.46453551137E+03  0.17200000000E+03 0. -1.
         -6    1    1    2    0  502  0.67433245665E+02 -0.17768689502E+02 -0.96371585479E+02  0.20912783515E+03  0.17200000000E+03 0.  1.
</event>
<event>
 4    1 -0.3240665E-004  0.1945509E+03  0.7818608E-02  0.1154420E+00
         -5   -1    0    0    0  501 -0.00000000000E+00  0.00000000000E+00  0.45438830034E+03  0.45441260710E+03  0.47000000000E+01 0.  1.
          5   -1    0    0  501    0  0.00000000000E+00 -0.00000000000E+00 -0.90450974715E+02  0.90573002749E+02  0.47000000000E+01 0. -1.
          6    1    1    2  502    0  0.56135506981E+02 -0.71518347012E+02  0.25902354481E+03  0.32394948043E+03  0.17200000000E+03 0.  1.
         -6    1    1    2    0  502 -0.56135506981E+02  0.71518347012E+02  0.10491378082E+03  0.22103612942E+03  0.17200000000E+03 0. -1.
</event>
<event>
 4    1 -0.3240665E-004  0.3117879E+03  0.7818608E-02  0.1079492E+00
          5   -1    0    0  501    0  0.00000000000E+00  0.00000000000E+00  0.17563718830E+04  0.17563781715E+04  0.47000000000E+01 0. -1.
         -5   -1    0    0    0  501 -0.00000000000E+00 -0.00000000000E+00 -0.91695403937E+02  0.91815778073E+02  0.47000000000E+01 0.  1.
          6    1    1    2  502    0  0.60896752045E+02 -0.25282257452E+03  0.14144688989E+04  0.14484246389E+04  0.17200000000E+03 0. -1.
         -6    1    1    2    0  502 -0.60896752045E+02  0.25282257452E+03  0.25020758012E+03  0.39976931066E+03  0.17200000000E+03 0.  1.
</event>
<event>
 4    1 -0.3240665E-004  0.2453882E+03  0.7818608E-02  0.1116255E+00
         -5   -1    0    0    0  501 -0.00000000000E+00  0.00000000000E+00  0.41870322187E+03  0.41872960010E+03  0.47000000000E+01 0.  1.
          5   -1    0    0  501    0  0.00000000000E+00 -0.00000000000E+00 -0.19852418418E+03  0.19857981192E+03  0.47000000000E+01 0. -1.
          6    1    1    2  502    0  0.13050337586E+03 -0.11662011466E+03 -0.52007112449E+02  0.25083883670E+03  0.17200000000E+03 0. -1.
         -6    1    1    2    0  502 -0.13050337586E+03  0.11662011466E+03  0.27218615014E+03  0.36647057533E+03  0.17200000000E+03 0.  1.
</event>
<event>
 4    1 -0.3240665E-004  0.2455309E+03  0.7818608E-02  0.1116162E+00
          5   -1    0    0  501    0  0.00000000000E+00  0.00000000000E+00  0.36420236722E+03  0.36423269250E+03  0.47000000000E+01 0. -1.
         -5   -1    0    0    0  501 -0.00000000000E+00 -0.00000000000E+00 -0.16705255782E+03  0.16711866166E+03  0.47000000000E+01 0.  1.
          6    1    1    2  502    0 -0.41958756128E+02 -0.17012015043E+03  0.12453503360E+03  0.27530778665E+03  0.17200000000E+03 0. -1.
         -6    1    1    2    0  502  0.41958756128E+02  0.17012015043E+03  0.72614775792E+02  0.25604356751E+03  0.17200000000E+03 0.  1.
</event>
<event>
 4    1 -0.3240665E-004  0.2544056E+03  0.7818608E-02  0.1110552E+00
          5   -1    0    0  501    0  0.00000000000E+00  0.00000000000E+00  0.10174756907E+04  0.10174865459E+04  0.47000000000E+01 0. -1.
         -5   -1    0    0    0  501 -0.00000000000E+00 -0.00000000000E+00 -0.15616109636E+03  0.15623180859E+03  0.47000000000E+01 0.  1.
          6    1    1    2  502    0 -0.17161309289E+03  0.75413375942E+02  0.88249432107E+03  0.91843260920E+03  0.17200000000E+03 0. -1.
         -6    1    1    2    0  502  0.17161309289E+03 -0.75413375942E+02 -0.21179726762E+02  0.25528574529E+03  0.17200000000E+03 0.  1.
</event>
<event>
 4    1 -0.3240665E-004  0.1869226E+03  0.7818608E-02  0.1161267E+00
         -5   -1    0    0    0  501 -0.00000000000E+00  0.00000000000E+00  0.39629218286E+03  0.39632005273E+03  0.47000000000E+01 0.  1.
          5   -1    0    0  501    0  0.00000000000E+00 -0.00000000000E+00 -0.88151658533E+02  0.88276865045E+02  0.47000000000E+01 0. -1.
          6    1    1    2  502    0 -0.71888219420E+02 -0.13716593869E+02  0.14687528365E+03  0.23772338965E+03  0.17200000000E+03 0. -1.
         -6    1    1    2    0  502  0.71888219420E+02  0.13716593869E+02  0.16126524067E+03  0.24687352812E+03  0.17200000000E+03 0.  1.
</event>
<event>
 4    1 -0.3240665E-004  0.3272016E+03  0.7818608E-02  0.1072382E+00
          5   -1    0    0  501    0  0.00000000000E+00  0.00000000000E+00  0.53670012321E+03  0.53672070228E+03  0.47000000000E+01 0. -1.
         -5   -1    0    0    0  501 -0.00000000000E+00 -0.00000000000E+00 -0.33927782835E+03  0.33931038123E+03  0.47000000000E+01 0.  1.
          6    1    1    2  502    0  0.25593622442E+03  0.10942368229E+03  0.37990234530E+03  0.50138476760E+03  0.17200000000E+03 0. -1.
         -6    1    1    2    0  502 -0.25593622442E+03 -0.10942368229E+03 -0.18248005044E+03  0.37464631591E+03  0.17200000000E+03 0.  1.
</event>
<event>
 4    1 -0.3240665E-004  0.1783781E+03  0.7818608E-02  0.1169382E+00
         -5   -1    0    0    0  501 -0.00000000000E+00  0.00000000000E+00  0.19231172412E+03  0.19236914834E+03  0.47000000000E+01 0.  1.
          5   -1    0    0  501    0  0.00000000000E+00 -0.00000000000E+00 -0.18668948801E+03  0.18674864105E+03  0.47000000000E+01 0. -1.
          6    1    1    2  502    0  0.70178918856E+01  0.46749138910E+02 -0.61273533506E+02  0.18860853296E+03  0.17200000000E+03 0.  1.
         -6    1    1    2    0  502 -0.70178918856E+01 -0.46749138910E+02  0.66895769608E+02  0.19050925643E+03  0.17200000000E+03 0.  1.
</event>
<event>
 4    1 -0.3240665E-004  0.4796529E+03  0.7818608E-02  0.1019231E+00
          5   -1    0    0  501    0  0.00000000000E+00  0.00000000000E+00  0.13686457150E+03  0.13694524793E+03  0.47000000000E+01 0. -1.
         -5   -1    0    0    0  501 -0.00000000000E+00 -0.00000000000E+00 -0.16824279670E+04  0.16824345319E+04  0.47000000000E+01 0.  1.
          6    1    1    2  502    0 -0.38175993440E+03  0.23397062847E+03 -0.80434144103E+03  0.93649989656E+03  0.17200000000E+03 0. -1.
         -6    1    1    2    0  502  0.38175993440E+03 -0.23397062847E+03 -0.74122195443E+03  0.88287988323E+03  0.17200000000E+03 0.  1.
</event>
<event>
 4    1 -0.3240665E-004  0.2142918E+03  0.7818608E-02  0.1138212E+00
          5   -1    0    0  501    0  0.00000000000E+00  0.00000000000E+00  0.72917047298E+03  0.72918562018E+03  0.47000000000E+01 0. -1.
         -5   -1    0    0    0  501 -0.00000000000E+00 -0.00000000000E+00 -0.75344783404E+02  0.75491233836E+02  0.47000000000E+01 0.  1.
          6    1    1    2  502    0 -0.35239882828E+02  0.12286223936E+03  0.49041126403E+03  0.53518612378E+03  0.17200000000E+03 0. -1.
         -6    1    1    2    0  502  0.35239882828E+02 -0.12286223936E+03  0.16341442555E+03  0.26949073023E+03  0.17200000000E+03 0.  1.
</event>
<event>
 4    1 -0.3240665E-004  0.4664881E+03  0.7818608E-02  0.1022916E+00
          5   -1    0    0  501    0  0.00000000000E+00  0.00000000000E+00  0.56443375038E+03  0.56445331832E+03  0.47000000000E+01 0. -1.
         -5   -1    0    0    0  501 -0.00000000000E+00 -0.00000000000E+00 -0.47153537993E+03  0.47155880283E+03  0.47000000000E+01 0.  1.
          6    1    1    2  502    0 -0.11912600219E+03  0.41693659049E+03  0.26770752963E+03  0.53784611768E+03  0.17200000000E+03 0. -1.
         -6    1    1    2    0  502  0.11912600219E+03 -0.41693659049E+03 -0.17480915918E+03  0.49816600347E+03  0.17200000000E+03 0. -1.
</event>
<event>
 4    1 -0.3240665E-004  0.1727060E+03  0.7818608E-02  0.1175055E+00
         -5   -1    0    0    0  501 -0.00000000000E+00  0.00000000000E+00  0.20756258689E+03  0.20761579294E+03  0.47000000000E+01 0.  1.
          5   -1    0    0  501    0  0.00000000000E+00 -0.00000000000E+00 -0.14432773863E+03  0.14440424557E+03  0.47000000000E+01 0. -1.
          6    1    1    2  502    0 -0.38864665834E+01 -0.15108173351E+02  0.19063978448E+02  0.17375499072E+03  0.17200000000E+03 0. -1.
         -6    1    1    2    0  502  0.38864665834E+01  0.15108173351E+02  0.44170869812E+02  0.17826504779E+03  0.17200000000E+03 0.  1.
</event>
<event>
 4    1 -0.3240665E-004  0.2621510E+03  0.7818608E-02  0.1105858E+00
          5   -1    0    0  501    0  0.00000000000E+00  0.00000000000E+00  0.87030461188E+03  0.87031730275E+03  0.47000000000E+01 0. -1.
         -5   -1    0    0    0  501 -0.00000000000E+00 -0.00000000000E+00 -0.10896386642E+03  0.10906518319E+03  0.47000000000E+01 0.  1.
          6    1    1    2  502    0  0.12097207332E+03 -0.15654044621E+03  0.63781251887E+03  0.68958535588E+03  0.17200000000E+03 0. -1.
         -6    1    1    2    0  502 -0.12097207332E+03  0.15654044621E+03  0.12352822659E+03  0.28979713006E+03  0.17200000000E+03 0.  1.
</event>
<event>
 4    1 -0.3240665E-004  0.2209619E+03  0.7818608E-02  0.1133168E+00
          5   -1    0    0  501    0  0.00000000000E+00  0.00000000000E+00  0.62406018249E+03  0.62407788086E+03  0.47000000000E+01 0. -1.
         -5   -1    0    0    0  501 -0.00000000000E+00 -0.00000000000E+00 -0.86910370264E+02  0.87037362434E+02  0.47000000000E+01 0.  1.
          6    1    1    2  502    0 -0.13860165276E+03 -0.54524024036E+01  0.15576841146E+03  0.27034782198E+03  0.17200000000E+03 0.  1.
         -6    1    1    2    0  502  0.13860165276E+03  0.54524024036E+01  0.38138140077E+03  0.44076742131E+03  0.17200000000E+03 0.  1.
</event>
<event>
 4    1 -0.3240665E-004  0.2317660E+03  0.7818608E-02  0.1125403E+00
          5   -1    0    0  501    0  0.00000000000E+00  0.00000000000E+00  0.42738831709E+03  0.42741415932E+03  0.47000000000E+01 0. -1.
         -5   -1    0    0    0  501 -0.00000000000E+00 -0.00000000000E+00 -0.15293851024E+03  0.15301071176E+03  0.47000000000E+01 0.  1.
          6    1    1    2  502    0 -0.14928021407E+03  0.42975343893E+02  0.25986137939E+03  0.34820022831E+03  0.17200000000E+03 0. -1.
         -6    1    1    2    0  502  0.14928021407E+03 -0.42975343893E+02  0.14588427468E+02  0.23222464277E+03  0.17200000000E+03 0. -1.
</event>
<event>
 4    1 -0.3240665E-004  0.2337554E+03  0.7818608E-02  0.1124024E+00
          5   -1    0    0  501    0  0.00000000000E+00  0.00000000000E+00  0.45260278674E+03  0.45262718938E+03  0.47000000000E+01 0. -1.
         -5   -1    0    0    0  501 -0.00000000000E+00 -0.00000000000E+00 -0.12132530033E+03  0.12141630245E+03  0.47000000000E+01 0.  1.
          6    1    1    2  502    0  0.10005226787E+03  0.12266682337E+03  0.14430042546E+03  0.27470751473E+03  0.17200000000E+03 0. -1.
         -6    1    1    2    0  502 -0.10005226787E+03 -0.12266682337E+03  0.18697706095E+03  0.29933597710E+03  0.17200000000E+03 0.  1.
</event>
<event>
 4    1 -0.3240665E-004  0.2743256E+03  0.7818608E-02  0.1098829E+00
         -5   -1    0    0    0  501 -0.00000000000E+00  0.00000000000E+00  0.85173283559E+02  0.85302861806E+02  0.47000000000E+01 0.  1.
          5   -1    0    0  501    0  0.00000000000E+00 -0.00000000000E+00 -0.94192505691E+03  0.94193678282E+03  0.47000000000E+01 0. -1.
          6    1    1    2  502    0 -0.13682479947E+03  0.16416308102E+03 -0.55711512362E+03  0.62099259567E+03  0.17200000000E+03 0. -1.
         -6    1    1    2    0  502  0.13682479947E+03 -0.16416308102E+03 -0.29963664973E+03  0.40624704895E+03  0.17200000000E+03 0.  1.
</event>
<event>
 4    1 -0.3240665E-004  0.2224336E+03  0.7818608E-02  0.1132082E+00
          5   -1    0    0  501    0  0.00000000000E+00  0.00000000000E+00  0.49463312177E+03  0.49465545094E+03  0.47000000000E+01 0. -1.
         -5   -1    0    0    0  501 -0.00000000000E+00 -0.00000000000E+00 -0.14811902794E+03  0.14819357759E+03  0.47000000000E+01 0.  1.
          6    1    1    2  502    0  0.11015925987E+03  0.88077433020E+02  0.35648917530E+03  0.42019189527E+03  0.17200000000E+03 0. -1.
         -6    1    1    2    0  502 -0.11015925987E+03 -0.88077433020E+02 -0.99750814805E+01  0.22265713326E+03  0.17200000000E+03 0.  1.
</event>
<event>
 4    1 -0.3240665E-004  0.1728450E+03  0.7818608E-02  0.1174913E+00
          5   -1    0    0  501    0  0.00000000000E+00  0.00000000000E+00  0.89578949150E+03  0.89580182132E+03  0.47000000000E+01 0. -1.
         -5   -1    0    0    0  501 -0.00000000000E+00 -0.00000000000E+00 -0.37936249553E+02  0.38226287162E+02  0.47000000000E+01 0.  1.
          6    1    1    2  502    0 -0.86924867655E+01 -0.14691255679E+02  0.26413811787E+03  0.31566491353E+03  0.17200000000E+03 0.  1.
         -6    1    1    2    0  502  0.86924867655E+01  0.14691255679E+02  0.59371512408E+03  0.61836319496E+03  0.17200000000E+03 0. -1.
</event>
<event>
 4    1 -0.3240665E-004  0.2085613E+03  0.7818608E-02  0.1142710E+00
          5   -1    0    0  501    0  0.00000000000E+00  0.00000000000E+00  0.89541686365E+02  0.89664951888E+02  0.47000000000E+01 0. -1.
         -5   -1    0    0    0  501 -0.00000000000E+00 -0.00000000000E+00 -0.70222849914E+03  0.70224422746E+03  0.47000000000E+01 0.  1.
          6    1    1    2  502    0  0.97493836937E+02 -0.66398619441E+02 -0.86301084591E+02  0.22571154624E+03  0.17200000000E+03 0. -1.
         -6    1    1    2    0  502 -0.97493836937E+02  0.66398619441E+02 -0.52638572818E+03  0.56619763311E+03  0.17200000000E+03 0.  1.
</event>
<event>
 4    1 -0.3240665E-004  0.4261450E+03  0.7818608E-02  0.1035085E+00
         -5   -1    0    0    0  501 -0.00000000000E+00  0.00000000000E+00  0.16336459153E+03  0.16343218706E+03  0.47000000000E+01 0.  1.
          5   -1    0    0  501    0  0.00000000000E+00 -0.00000000000E+00 -0.12042419198E+04  0.12042510915E+04  0.47000000000E+01 0. -1.
          6    1    1    2  502    0 -0.20059946271E+03  0.33432830943E+03 -0.71039185582E+03  0.82840578930E+03  0.17200000000E+03 0. -1.
         -6    1    1    2    0  502  0.20059946271E+03 -0.33432830943E+03 -0.33048547243E+03  0.53927748926E+03  0.17200000000E+03 0.  1.
</event>
<event>
 4    1 -0.3240665E-004  0.4210069E+03  0.7818608E-02  0.1036739E+00
         -5   -1    0    0    0  501 -0.00000000000E+00  0.00000000000E+00  0.10283091838E+03  0.10293827168E+03  0.47000000000E+01 0.  1.
          5   -1    0    0  501    0  0.00000000000E+00 -0.00000000000E+00 -0.18180020532E+04  0.18180081286E+04  0.47000000000E+01 0. -1.
          6    1    1    2  502    0 -0.37864161017E+03 -0.65523395069E+02 -0.10775293022E+04  0.11568561628E+04  0.17200000000E+03 0. -1.
         -6    1    1    2    0  502  0.37864161017E+03  0.65523395069E+02 -0.63764183266E+03  0.76409023748E+03  0.17200000000E+03 0.  1.
</event>
<event>
 4    1 -0.3240665E-004  0.2292522E+03  0.7818608E-02  0.1127167E+00
          5   -1    0    0  501    0  0.00000000000E+00  0.00000000000E+00  0.65573118308E+03  0.65574802666E+03  0.47000000000E+01 0. -1.
         -5   -1    0    0    0  501 -0.00000000000E+00 -0.00000000000E+00 -0.17624981407E+03  0.17631246967E+03  0.47000000000E+01 0.  1.
          6    1    1    2  502    0  0.30354539117E+02 -0.14849644810E+03  0.54697841778E+03  0.59307839504E+03  0.17200000000E+03 0. -1.
         -6    1    1    2    0  502 -0.30354539117E+02  0.14849644810E+03 -0.67497048774E+02  0.23898210129E+03  0.17200000000E+03 0.  1.
</event>
<event>
 4    1 -0.3240665E-004  0.3273387E+03  0.7818608E-02  0.1072321E+00
          5   -1    0    0  501    0  0.00000000000E+00  0.00000000000E+00  0.19915055182E+03  0.19920600465E+03  0.47000000000E+01 0. -1.
         -5   -1    0    0    0  501 -0.00000000000E+00 -0.00000000000E+00 -0.56664360051E+03  0.56666309214E+03  0.47000000000E+01 0.  1.
          6    1    1    2  502    0  0.38106562835E+02 -0.27588855181E+03 -0.97502396299E+02  0.34155134378E+03  0.17200000000E+03 0. -1.
         -6    1    1    2    0  502 -0.38106562835E+02  0.27588855181E+03 -0.26999065239E+03  0.42431775302E+03  0.17200000000E+03 0.  1.
</event>
<event>
 4    1 -0.3240665E-004  0.1947372E+03  0.7818608E-02  0.1154257E+00
          5   -1    0    0  501    0  0.00000000000E+00  0.00000000000E+00  0.59097641558E+03  0.59099510469E+03  0.47000000000E+01 0. -1.
         -5   -1    0    0    0  501 -0.00000000000E+00 -0.00000000000E+00 -0.70964282939E+02  0.71119754309E+02  0.47000000000E+01 0.  1.
          6    1    1    2  502    0 -0.71855081021E+02  0.56350983312E+02  0.15690284032E+03  0.25008216108E+03  0.17200000000E+03 0.  1.
         -6    1    1    2    0  502  0.71855081021E+02 -0.56350983312E+02  0.36310929232E+03  0.41203269792E+03  0.17200000000E+03 0.  1.
</event>
<event>
 4    1 -0.3240665E-004  0.3810489E+03  0.7818608E-02  0.1050547E+00
          5   -1    0    0  501    0  0.00000000000E+00  0.00000000000E+00  0.13981662966E+04  0.13981741962E+04  0.47000000000E+01 0. -1.
         -5   -1    0    0    0  501 -0.00000000000E+00 -0.00000000000E+00 -0.10378771481E+03  0.10389407945E+03  0.47000000000E+01 0.  1.
          6    1    1    2  502    0  0.27330099725E+03 -0.20228905734E+03  0.64721079412E+03  0.75105266782E+03  0.17200000000E+03 0. -1.
         -6    1    1    2    0  502 -0.27330099725E+03  0.20228905734E+03  0.64716778766E+03  0.75101560783E+03  0.17200000000E+03 0.  1.
</event>
<event>
 4    1 -0.3240665E-004  0.1997354E+03  0.7818608E-02  0.1149962E+00
         -5   -1    0    0    0  501 -0.00000000000E+00  0.00000000000E+00  0.11618306468E+03  0.11627809131E+03  0.47000000000E+01 0.  1.
          5   -1    0    0  501    0  0.00000000000E+00 -0.00000000000E+00 -0.95539317872E+03  0.95540473934E+03  0.47000000000E+01 0. -1.
          6    1    1    2  502    0  0.95785128558E+02 -0.33696215891E+02 -0.84853900664E+03  0.87172970100E+03  0.17200000000E+03 0. -1.
         -6    1    1    2    0  502 -0.95785128558E+02  0.33696215891E+02  0.93288925944E+01  0.19995312965E+03  0.17200000000E+03 0.  1.
</event>
<event>
 4    1 -0.3240665E-004  0.1955819E+03  0.7818608E-02  0.1153521E+00
          5   -1    0    0  501    0  0.00000000000E+00  0.00000000000E+00  0.58751529945E+02  0.58939225232E+02  0.47000000000E+01 0. -1.
         -5   -1    0    0    0  501 -0.00000000000E+00 -0.00000000000E+00 -0.70978411781E+03  0.70979967871E+03  0.47000000000E+01 0.  1.
          6    1    1    2  502    0 -0.75344485384E+02  0.54694342707E+02 -0.43719166908E+03  0.47894552729E+03  0.17200000000E+03 0. -1.
         -6    1    1    2    0  502  0.75344485384E+02 -0.54694342707E+02 -0.21384091879E+03  0.28979337665E+03  0.17200000000E+03 0. -1.
</event>
<event>
 4    1 -0.3240665E-004  0.2062745E+03  0.7818608E-02  0.1144551E+00
         -5   -1    0    0    0  501 -0.00000000000E+00  0.00000000000E+00  0.84197058959E+02  0.84328137281E+02  0.47000000000E+01 0.  1.
          5   -1    0    0  501    0  0.00000000000E+00 -0.00000000000E+00 -0.54777517084E+03  0.54779533385E+03  0.47000000000E+01 0. -1.
          6    1    1    2  502    0 -0.39428651640E+02  0.10682021761E+03 -0.32028681381E+03  0.38096301731E+03  0.17200000000E+03 0. -1.
         -6    1    1    2    0  502  0.39428651640E+02 -0.10682021761E+03 -0.14329129807E+03  0.25116045382E+03  0.17200000000E+03 0.  1.
</event>
<event>
 4    1 -0.3240665E-004  0.3860013E+03  0.7818608E-02  0.1048738E+00
          5   -1    0    0  501    0  0.00000000000E+00  0.00000000000E+00  0.28643356023E+03  0.28647211806E+03  0.47000000000E+01 0. -1.
         -5   -1    0    0    0  501 -0.00000000000E+00 -0.00000000000E+00 -0.60102873604E+03  0.60104711258E+03  0.47000000000E+01 0.  1.
          6    1    1    2  502    0 -0.10177732803E+03 -0.33023377884E+03  0.55352607141E+01  0.38604094640E+03  0.17200000000E+03 0. -1.
         -6    1    1    2    0  502  0.10177732803E+03  0.33023377884E+03 -0.32013043652E+03  0.50147828425E+03  0.17200000000E+03 0.  1.
</event>
<event>
 4    1 -0.3240665E-004  0.1856919E+03  0.7818608E-02  0.1162405E+00
          5   -1    0    0  501    0  0.00000000000E+00  0.00000000000E+00  0.39568442726E+03  0.39571233994E+03  0.47000000000E+01 0. -1.
         -5   -1    0    0    0  501 -0.00000000000E+00 -0.00000000000E+00 -0.93103536652E+02  0.93222092538E+02  0.47000000000E+01 0.  1.
          6    1    1    2  502    0  0.10561939666E+02 -0.69180517497E+02  0.21357884430E+03  0.28301487823E+03  0.17200000000E+03 0. -1.
         -6    1    1    2    0  502 -0.10561939666E+02  0.69180517497E+02  0.89002046315E+02  0.20591955424E+03  0.17200000000E+03 0.  1.
</event>
<event>
 4    1 -0.3240665E-004  0.2148781E+03  0.7818608E-02  0.1137760E+00
         -5   -1    0    0    0  501 -0.00000000000E+00  0.00000000000E+00  0.25011698836E+03  0.25016114380E+03  0.47000000000E+01 0.  1.
          5   -1    0    0  501    0  0.00000000000E+00 -0.00000000000E+00 -0.24261747368E+03  0.24266299374E+03  0.47000000000E+01 0. -1.
          6    1    1    2  502    0  0.83971178456E+02 -0.97659859904E+02 -0.11681394333E+03  0.24457739962E+03  0.17200000000E+03 0. -1.
         -6    1    1    2    0  502 -0.83971178456E+02  0.97659859904E+02  0.12431345801E+03  0.24824673792E+03  0.17200000000E+03 0.  1.
</event>
<event>
 4    1 -0.3240665E-004  0.3126949E+03  0.7818608E-02  0.1079061E+00
          5   -1    0    0  501    0  0.00000000000E+00  0.00000000000E+00  0.26316988499E+03  0.26321185073E+03  0.47000000000E+01 0. -1.
         -5   -1    0    0    0  501 -0.00000000000E+00 -0.00000000000E+00 -0.44594524903E+03  0.44597001596E+03  0.47000000000E+01 0.  1.
          6    1    1    2  502    0 -0.20096484791E+03  0.16675507619E+03 -0.23630065172E+03  0.39193892832E+03  0.17200000000E+03 0.  1.
         -6    1    1    2    0  502  0.20096484791E+03 -0.16675507619E+03  0.53525287674E+02  0.31724293837E+03  0.17200000000E+03 0.  1.
</event>
<event>
 4    1 -0.3240665E-004  0.1791287E+03  0.7818608E-02  0.1168649E+00
          5   -1    0    0  501    0  0.00000000000E+00  0.00000000000E+00  0.71277050146E+02  0.71431840783E+02  0.47000000000E+01 0. -1.
         -5   -1    0    0    0  501 -0.00000000000E+00 -0.00000000000E+00 -0.45441533371E+03  0.45443963902E+03  0.47000000000E+01 0.  1.
          6    1    1    2  502    0 -0.37392215559E+02 -0.33240286424E+02 -0.21885749945E+03  0.28281743138E+03  0.17200000000E+03 0.  1.
         -6    1    1    2    0  502  0.37392215559E+02  0.33240286424E+02 -0.16428078412E+03  0.24305404842E+03  0.17200000000E+03 0. -1.
</event>
<event>
 4    1 -0.3240665E-004  0.2064223E+03  0.7818608E-02  0.1144431E+00
          5   -1    0    0  501    0  0.00000000000E+00  0.00000000000E+00  0.12969791414E+04  0.12969876573E+04  0.47000000000E+01 0. -1.
         -5   -1    0    0    0  501 -0.00000000000E+00 -0.00000000000E+00 -0.37490668152E+02  0.37784126276E+02  0.47000000000E+01 0.  1.
          6    1    1    2  502    0 -0.81926991305E+02 -0.79461549187E+02  0.39161932394E+03  0.44269161341E+03  0.17200000000E+03 0.  1.
         -6    1    1    2    0  502  0.81926991305E+02  0.79461549187E+02  0.86786914933E+03  0.89208017020E+03  0.17200000000E+03 0. -1.
</event>
<event>
 4    1 -0.3240665E-004  0.1801900E+03  0.7818608E-02  0.1167619E+00
         -5   -1    0    0    0  501 -0.00000000000E+00  0.00000000000E+00  0.71746093744E+02  0.71899874600E+02  0.47000000000E+01 0.  1.
          5   -1    0    0  501    0  0.00000000000E+00 -0.00000000000E+00 -0.90358529873E+03  0.90359752217E+03  0.47000000000E+01 0. -1.
          6    1    1    2  502    0  0.20188362897E+02 -0.49768042975E+02 -0.76073780035E+03  0.78178669021E+03  0.17200000000E+03 0. -1.
         -6    1    1    2    0  502 -0.20188362897E+02  0.49768042975E+02 -0.71101404632E+02  0.19371070657E+03  0.17200000000E+03 0.  1.
</event>
<event>
 4    1 -0.3240665E-004  0.1940872E+03  0.7818608E-02  0.1154826E+00
         -5   -1    0    0    0  501 -0.00000000000E+00  0.00000000000E+00  0.56709739429E+03  0.56711687033E+03  0.47000000000E+01 0.  1.
          5   -1    0    0  501    0  0.00000000000E+00 -0.00000000000E+00 -0.70664035724E+02  0.70820166230E+02  0.47000000000E+01 0. -1.
          6    1    1    2  502    0 -0.19390429602E+02 -0.87805746182E+02  0.32718357048E+03  0.38041940883E+03  0.17200000000E+03 0. -1.
         -6    1    1    2    0  502  0.19390429602E+02  0.87805746182E+02  0.16924978808E+03  0.25751762772E+03  0.17200000000E+03 0. -1.
</event>
<event>
 4    1 -0.3240665E-004  0.1838913E+03  0.7818608E-02  0.1164089E+00
          5   -1    0    0  501    0  0.00000000000E+00  0.00000000000E+00  0.10637028587E+03  0.10647407063E+03  0.47000000000E+01 0. -1.
         -5   -1    0    0    0  501 -0.00000000000E+00 -0.00000000000E+00 -0.32068074002E+03  0.32071518052E+03  0.47000000000E+01 0.  1.
          6    1    1    2  502    0  0.46692839549E+02 -0.45296789824E+02 -0.12797600456E+03  0.22403990309E+03  0.17200000000E+03 0. -1.
         -6    1    1    2    0  502 -0.46692839549E+02  0.45296789824E+02 -0.86334449587E+02  0.20314934806E+03  0.17200000000E+03 0.  1.
</event>
<event>
 4    1 -0.3240665E-004  0.2403327E+03  0.7818608E-02  0.1119571E+00
          5   -1    0    0  501    0  0.00000000000E+00  0.00000000000E+00  0.68181777074E+03  0.68183396989E+03  0.47000000000E+01 0. -1.
         -5   -1    0    0    0  501 -0.00000000000E+00 -0.00000000000E+00 -0.43697059082E+03  0.43699586639E+03  0.47000000000E+01 0.  1.
          6    1    1    2  502    0  0.52944930272E+02 -0.15928785561E+03  0.62469830959E+03  0.66933382150E+03  0.17200000000E+03 0. -1.
         -6    1    1    2    0  502 -0.52944930272E+02  0.15928785561E+03 -0.37985112968E+03  0.44949601478E+03  0.17200000000E+03 0.  1.
</event>
<event>
 4    1 -0.3240665E-004  0.2701960E+03  0.7818608E-02  0.1101168E+00
         -5   -1    0    0    0  501 -0.00000000000E+00  0.00000000000E+00  0.18035139066E+03  0.18041262183E+03  0.47000000000E+01 0.  1.
          5   -1    0    0  501    0  0.00000000000E+00 -0.00000000000E+00 -0.42980307648E+03  0.42982877353E+03  0.47000000000E+01 0. -1.
          6    1    1    2  502    0 -0.97022131024E+02 -0.18441412132E+03 -0.50926754843E+02  0.27495344408E+03  0.17200000000E+03 0.  1.
         -6    1    1    2    0  502  0.97022131024E+02  0.18441412132E+03 -0.19852493097E+03  0.33528795127E+03  0.17200000000E+03 0.  1.
</event>
<event>
 4    1 -0.3240665E-004  0.1911323E+03  0.7818608E-02  0.1157444E+00
          5   -1    0    0  501    0  0.00000000000E+00  0.00000000000E+00  0.96447121731E+02  0.96561572534E+02  0.47000000000E+01 0. -1.
         -5   -1    0    0    0  501 -0.00000000000E+00 -0.00000000000E+00 -0.50714861048E+03  0.50717038863E+03  0.47000000000E+01 0.  1.
          6    1    1    2  502    0 -0.74040562667E+02  0.38282515582E+02 -0.35741441097E+03  0.40531051934E+03  0.17200000000E+03 0.  1.
         -6    1    1    2    0  502  0.74040562667E+02 -0.38282515582E+02 -0.53287077776E+02  0.19842144183E+03  0.17200000000E+03 0. -1.
</event>
<event>
 4    1 -0.3240665E-004  0.2310289E+03  0.7818608E-02  0.1125918E+00
         -5   -1    0    0    0  501 -0.00000000000E+00  0.00000000000E+00  0.52713291867E+03  0.52715387122E+03  0.47000000000E+01 0.  1.
          5   -1    0    0  501    0  0.00000000000E+00 -0.00000000000E+00 -0.17364081183E+03  0.17370440850E+03  0.47000000000E+01 0. -1.
          6    1    1    2  502    0  0.22103030092E+02 -0.15264936500E+03 -0.49563024735E+02  0.23628556027E+03  0.17200000000E+03 0. -1.
         -6    1    1    2    0  502 -0.22103030092E+02  0.15264936500E+03  0.40305513157E+03  0.46457271945E+03  0.17200000000E+03 0.  1.
</event>
<event>
 4    1 -0.3240665E-004  0.1829519E+03  0.7818608E-02  0.1164976E+00
         -5   -1    0    0    0  501 -0.00000000000E+00  0.00000000000E+00  0.10497628262E+02  0.11501747655E+02  0.47000000000E+01 0.  1.
          5   -1    0    0  501    0  0.00000000000E+00 -0.00000000000E+00 -0.35722585464E+04  0.35722616383E+04  0.47000000000E+01 0. -1.
          6    1    1    2  502    0  0.61516284071E+02 -0.10155870082E+02 -0.24711955301E+04  0.24779585838E+04  0.17200000000E+03 0. -1.
         -6    1    1    2    0  502 -0.61516284071E+02  0.10155870082E+02 -0.10905653881E+04  0.11058048022E+04  0.17200000000E+03 0.  1.
</event>
<event>
 4    1 -0.3240665E-004  0.2516435E+03  0.7818608E-02  0.1112271E+00
          5   -1    0    0  501    0  0.00000000000E+00  0.00000000000E+00  0.43419474831E+03  0.43422018545E+03  0.47000000000E+01 0. -1.
         -5   -1    0    0    0  501 -0.00000000000E+00 -0.00000000000E+00 -0.14652846729E+03  0.14660382575E+03  0.47000000000E+01 0.  1.
          6    1    1    2  502    0 -0.69617278953E+02  0.16998199906E+03  0.12302678363E+03  0.28010718488E+03  0.17200000000E+03 0. -1.
         -6    1    1    2    0  502  0.69617278953E+02 -0.16998199906E+03  0.16463949739E+03  0.30071682632E+03  0.17200000000E+03 0.  1.
</event>
<event>
 4    1 -0.3240665E-004  0.2531268E+03  0.7818608E-02  0.1111345E+00
         -5   -1    0    0    0  501 -0.00000000000E+00  0.00000000000E+00  0.37589104975E+03  0.37592043211E+03  0.47000000000E+01 0.  1.
          5   -1    0    0  501    0  0.00000000000E+00 -0.00000000000E+00 -0.17065594495E+03  0.17072065354E+03  0.47000000000E+01 0. -1.
          6    1    1    2  502    0 -0.22891268597E+02  0.18429645925E+03  0.91797970215E+02  0.26925835624E+03  0.17200000000E+03 0. -1.
         -6    1    1    2    0  502  0.22891268597E+02 -0.18429645925E+03  0.11343713459E+03  0.27738272941E+03  0.17200000000E+03 0.  1.
</event>
<event>
 4    1 -0.3240665E-004  0.1831533E+03  0.7818608E-02  0.1164786E+00
          5   -1    0    0  501    0  0.00000000000E+00  0.00000000000E+00  0.21219772737E+03  0.21224977150E+03  0.47000000000E+01 0. -1.
         -5   -1    0    0    0  501 -0.00000000000E+00 -0.00000000000E+00 -0.18623208910E+03  0.18629138737E+03  0.47000000000E+01 0.  1.
          6    1    1    2  502    0 -0.32229308123E+02 -0.54059251400E+02  0.90575572257E+02  0.20432588004E+03  0.17200000000E+03 0. -1.
         -6    1    1    2    0  502  0.32229308123E+02  0.54059251400E+02 -0.64609933980E+02  0.19421527883E+03  0.17200000000E+03 0.  1.
</event>
<event>
 4    1 -0.3240665E-004  0.1960222E+03  0.7818608E-02  0.1153139E+00
         -5   -1    0    0    0  501 -0.00000000000E+00  0.00000000000E+00  0.52047149737E+02  0.52258930297E+02  0.47000000000E+01 0.  1.
          5   -1    0    0  501    0  0.00000000000E+00 -0.00000000000E+00 -0.81038878681E+03  0.81040241596E+03  0.47000000000E+01 0. -1.
          6    1    1    2  502    0 -0.24289297419E+02  0.90833630198E+02 -0.50935181358E+03  0.54576917130E+03  0.17200000000E+03 0. -1.
         -6    1    1    2    0  502  0.24289297419E+02 -0.90833630198E+02 -0.24898982350E+03  0.31689217496E+03  0.17200000000E+03 0. -1.
</event>
<event>
 4    1 -0.3240665E-004  0.1784620E+03  0.7818608E-02  0.1169300E+00
         -5   -1    0    0    0  501 -0.00000000000E+00  0.00000000000E+00  0.15276392656E+03  0.15283621056E+03  0.47000000000E+01 0.  1.
          5   -1    0    0  501    0  0.00000000000E+00 -0.00000000000E+00 -0.22349595794E+03  0.22354537171E+03  0.47000000000E+01 0. -1.
          6    1    1    2  502    0  0.21650350136E+02 -0.42378452332E+02 -0.84367522152E+02  0.19739946727E+03  0.17200000000E+03 0. -1.
         -6    1    1    2    0  502 -0.21650350136E+02  0.42378452332E+02  0.13635490775E+02  0.17898211501E+03  0.17200000000E+03 0.  1.
</event>
<event>
 4    1 -0.3240665E-004  0.1732605E+03  0.7818608E-02  0.1174490E+00
          5   -1    0    0  501    0  0.00000000000E+00  0.00000000000E+00  0.65812945234E+02  0.65980555926E+02  0.47000000000E+01 0. -1.
         -5   -1    0    0    0  501 -0.00000000000E+00 -0.00000000000E+00 -0.72985316563E+03  0.72986829865E+03  0.47000000000E+01 0.  1.
          6    1    1    2  502    0  0.14243691019E+02  0.15242180709E+02 -0.57601766869E+03  0.60151106511E+03  0.17200000000E+03 0.  1.
         -6    1    1    2    0  502 -0.14243691019E+02 -0.15242180709E+02 -0.88022551702E+02  0.19433778947E+03  0.17200000000E+03 0. -1.
</event>
<event>
 4    1 -0.3240665E-004  0.1777880E+03  0.7818608E-02  0.1169961E+00
          5   -1    0    0  501    0  0.00000000000E+00  0.00000000000E+00  0.44712050177E+03  0.44714520360E+03  0.47000000000E+01 0. -1.
         -5   -1    0    0    0  501 -0.00000000000E+00 -0.00000000000E+00 -0.19705074752E+03  0.19710679110E+03  0.47000000000E+01 0.  1.
          6    1    1    2  502    0 -0.10764387223E+02 -0.43688865086E+02  0.38300675778E+03  0.42225912124E+03  0.17200000000E+03 0. -1.
         -6    1    1    2    0  502  0.10764387223E+02  0.43688865086E+02 -0.13293700353E+03  0.22199287347E+03  0.17200000000E+03 0.  1.
</event>
<event>
 4    1 -0.3240665E-004  0.1810153E+03  0.7818608E-02  0.1166824E+00
          5   -1    0    0  501    0  0.00000000000E+00  0.00000000000E+00  0.51429068434E+03  0.51431216007E+03  0.47000000000E+01 0. -1.
         -5   -1    0    0    0  501 -0.00000000000E+00 -0.00000000000E+00 -0.68691683014E+02  0.68852286203E+02  0.47000000000E+01 0.  1.
          6    1    1    2  502    0  0.14271614463E+02 -0.54578899898E+02  0.30205596909E+03  0.35214250490E+03  0.17200000000E+03 0. -1.
         -6    1    1    2    0  502 -0.14271614463E+02  0.54578899898E+02  0.14354303223E+03  0.23102194137E+03  0.17200000000E+03 0.  1.
</event>
<event>
 4    1 -0.3240665E-004  0.2395722E+03  0.7818608E-02  0.1120078E+00
          5   -1    0    0  501    0  0.00000000000E+00  0.00000000000E+00  0.51017372305E+03  0.51019537207E+03  0.47000000000E+01 0. -1.
         -5   -1    0    0    0  501 -0.00000000000E+00 -0.00000000000E+00 -0.11298482510E+03  0.11308253934E+03  0.47000000000E+01 0.  1.
          6    1    1    2  502    0  0.17152340331E+02 -0.16588134681E+03  0.22047207011E+03  0.32558064699E+03  0.17200000000E+03 0. -1.
         -6    1    1    2    0  502 -0.17152340331E+02  0.16588134681E+03  0.17671682784E+03  0.29769726442E+03  0.17200000000E+03 0.  1.
</event>
<event>
 4    1 -0.3240665E-004  0.2110143E+03  0.7818608E-02  0.1140765E+00
         -5   -1    0    0    0  501 -0.00000000000E+00  0.00000000000E+00  0.91707773988E+02  0.91828131909E+02  0.47000000000E+01 0.  1.
          5   -1    0    0  501    0  0.00000000000E+00 -0.00000000000E+00 -0.48636383026E+03  0.48638653907E+03  0.47000000000E+01 0. -1.
          6    1    1    2  502    0  0.67366283635E+01  0.12205600990E+03 -0.18248685167E+03  0.27897760259E+03  0.17200000000E+03 0. -1.
         -6    1    1    2    0  502 -0.67366283635E+01 -0.12205600990E+03 -0.21216920460E+03  0.29923706839E+03  0.17200000000E+03 0. -1.
</event>
<event>
 4    1 -0.3240665E-004  0.2787049E+03  0.7818608E-02  0.1096398E+00
          5   -1    0    0  501    0  0.00000000000E+00  0.00000000000E+00  0.80846857075E+02  0.80983358160E+02  0.47000000000E+01 0. -1.
         -5   -1    0    0    0  501 -0.00000000000E+00 -0.00000000000E+00 -0.97437163488E+03  0.97438297032E+03  0.47000000000E+01 0.  1.
          6    1    1    2  502    0  0.15884624816E+03 -0.15119623195E+03 -0.38230796196E+03  0.47311289233E+03  0.17200000000E+03 0. -1.
         -6    1    1    2    0  502 -0.15884624816E+03  0.15119623195E+03 -0.51121681584E+03  0.58225343615E+03  0.17200000000E+03 0.  1.
</event>
<event>
 4    1 -0.3240665E-004  0.2454897E+03  0.7818608E-02  0.1116189E+00
          5   -1    0    0  501    0  0.00000000000E+00  0.00000000000E+00  0.17167015504E+03  0.17173448149E+03  0.47000000000E+01 0. -1.
         -5   -1    0    0    0  501 -0.00000000000E+00 -0.00000000000E+00 -0.39901832698E+03  0.39904600645E+03  0.47000000000E+01 0.  1.
          6    1    1    2  502    0 -0.13250240283E+03  0.11456127163E+03 -0.14586680683E+02  0.24592263614E+03  0.17200000000E+03 0. -1.
         -6    1    1    2    0  502  0.13250240283E+03 -0.11456127163E+03 -0.21276149126E+03  0.32485785180E+03  0.17200000000E+03 0.  1.
</event>
<event>
 4    1 -0.3240665E-004  0.2593712E+03  0.7818608E-02  0.1107522E+00
          5   -1    0    0  501    0  0.00000000000E+00  0.00000000000E+00  0.43479623470E+03  0.43482163666E+03  0.47000000000E+01 0. -1.
         -5   -1    0    0    0  501 -0.00000000000E+00 -0.00000000000E+00 -0.17182031349E+03  0.17188458374E+03  0.47000000000E+01 0.  1.
          6    1    1    2  502    0 -0.11689823711E+03  0.15499750799E+03  0.22733443710E+03  0.34489762483E+03  0.17200000000E+03 0. -1.
         -6    1    1    2    0  502  0.11689823711E+03 -0.15499750799E+03  0.35641484107E+02  0.26180859557E+03  0.17200000000E+03 0.  1.
</event>
<event>
 4    1 -0.3240665E-004  0.1758388E+03  0.7818608E-02  0.1171892E+00
          5   -1    0    0  501    0  0.00000000000E+00  0.00000000000E+00  0.25589634453E+03  0.25593950289E+03  0.47000000000E+01 0. -1.
         -5   -1    0    0    0  501 -0.00000000000E+00 -0.00000000000E+00 -0.12384633972E+03  0.12393549073E+03  0.47000000000E+01 0.  1.
          6    1    1    2  502    0 -0.35307698078E+02  0.94160087633E+01  0.96146258375E+02  0.20040807809E+03  0.17200000000E+03 0. -1.
         -6    1    1    2    0  502  0.35307698078E+02 -0.94160087633E+01  0.35903746428E+02  0.17946691554E+03  0.17200000000E+03 0.  1.
</event>
<event>
 4    1 -0.3240665E-004  0.3342240E+03  0.7818608E-02  0.1069283E+00
          5   -1    0    0  501    0  0.00000000000E+00  0.00000000000E+00  0.58840500422E+03  0.58842377500E+03  0.47000000000E+01 0. -1.
         -5   -1    0    0    0  501 -0.00000000000E+00 -0.00000000000E+00 -0.18994631634E+03  0.19000445545E+03  0.47000000000E+01 0.  1.
          6    1    1    2  502    0 -0.27791856410E+03  0.69878270101E+02  0.18821093346E+03  0.38357405593E+03  0.17200000000E+03 0.  1.
         -6    1    1    2    0  502  0.27791856410E+03 -0.69878270101E+02  0.21024775441E+03  0.39485417452E+03  0.17200000000E+03 0. -1.
</event>
<event>
 4    1 -0.3240665E-004  0.1930363E+03  0.7818608E-02  0.1155751E+00
          5   -1    0    0  501    0  0.00000000000E+00  0.00000000000E+00  0.52548203764E+02  0.52757973035E+02  0.47000000000E+01 0. -1.
         -5   -1    0    0    0  501 -0.00000000000E+00 -0.00000000000E+00 -0.75215929925E+03  0.75217398350E+03  0.47000000000E+01 0.  1.
          6    1    1    2  502    0  0.66955038120E+01 -0.87373816543E+02 -0.25174106357E+03  0.31723268538E+03  0.17200000000E+03 0. -1.
         -6    1    1    2    0  502 -0.66955038120E+01  0.87373816543E+02 -0.44787003192E+03  0.48769927115E+03  0.17200000000E+03 0.  1.
</event>
<event>
 4    1 -0.3240665E-004  0.2126599E+03  0.7818608E-02  0.1139477E+00
          5   -1    0    0  501    0  0.00000000000E+00  0.00000000000E+00  0.18223139063E+03  0.18229199031E+03  0.47000000000E+01 0. -1.
         -5   -1    0    0    0  501 -0.00000000000E+00 -0.00000000000E+00 -0.30183723097E+03  0.30187382132E+03  0.47000000000E+01 0.  1.
          6    1    1    2  502    0  0.22122078983E+02  0.12308884813E+03  0.42376561104E+02  0.21684101052E+03  0.17200000000E+03 0. -1.
         -6    1    1    2    0  502 -0.22122078983E+02 -0.12308884813E+03 -0.16198240144E+03  0.26732480111E+03  0.17200000000E+03 0.  1.
</event>
<event>
 4    1 -0.3240665E-004  0.2339411E+03  0.7818608E-02  0.1123896E+00
         -5   -1    0    0    0  501 -0.00000000000E+00  0.00000000000E+00  0.48560260408E+03  0.48562534848E+03  0.47000000000E+01 0.  1.
          5   -1    0    0  501    0  0.00000000000E+00 -0.00000000000E+00 -0.27997111573E+03  0.28001056345E+03  0.47000000000E+01 0. -1.
          6    1    1    2  502    0 -0.11266011753E+03 -0.11158911313E+03 -0.19310066871E+03  0.30334188717E+03  0.17200000000E+03 0. -1.
         -6    1    1    2    0  502  0.11266011753E+03  0.11158911313E+03  0.39873215707E+03  0.46229402476E+03  0.17200000000E+03 0.  1.
</event>
<event>
 4    1 -0.3240665E-004  0.1729631E+03  0.7818608E-02  0.1174793E+00
         -5   -1    0    0    0  501 -0.00000000000E+00  0.00000000000E+00  0.51013165280E+03  0.51015330361E+03  0.47000000000E+01 0.  1.
          5   -1    0    0  501    0  0.00000000000E+00 -0.00000000000E+00 -0.60012135435E+02  0.60195900188E+02  0.47000000000E+01 0. -1.
          6    1    1    2  502    0  0.15356674817E+02 -0.98194287459E+01  0.18027670028E+03  0.24983181804E+03  0.17200000000E+03 0. -1.
         -6    1    1    2    0  502 -0.15356674817E+02  0.98194287459E+01  0.26984281708E+03  0.32051738576E+03  0.17200000000E+03 0.  1.
</event>
<event>
 4    1 -0.3240665E-004  0.4275529E+03  0.7818608E-02  0.1034636E+00
          5   -1    0    0  501    0  0.00000000000E+00  0.00000000000E+00  0.14202890301E+03  0.14210664760E+03  0.47000000000E+01 0. -1.
         -5   -1    0    0    0  501 -0.00000000000E+00 -0.00000000000E+00 -0.12929905726E+04  0.12929991148E+04  0.47000000000E+01 0.  1.
          6    1    1    2  502    0  0.27547324403E+03 -0.27808631083E+03 -0.62577345168E+03  0.75788779992E+03  0.17200000000E+03 0. -1.
         -6    1    1    2    0  502 -0.27547324403E+03  0.27808631083E+03 -0.52518821789E+03  0.67721796244E+03  0.17200000000E+03 0. -1.
</event>
<event>
 4    1 -0.3240665E-004  0.1883263E+03  0.7818608E-02  0.1159980E+00
          5   -1    0    0  501    0  0.00000000000E+00  0.00000000000E+00  0.61945338352E+03  0.61947121350E+03  0.47000000000E+01 0. -1.
         -5   -1    0    0    0  501 -0.00000000000E+00 -0.00000000000E+00 -0.58524966743E+02  0.58713386312E+02  0.47000000000E+01 0.  1.
          6    1    1    2  502    0  0.25990030420E+02  0.72161746625E+02  0.33253782695E+03  0.38216253834E+03  0.17200000000E+03 0. -1.
         -6    1    1    2    0  502 -0.25990030420E+02 -0.72161746625E+02  0.22839058983E+03  0.29602206148E+03  0.17200000000E+03 0.  1.
</event>
<event>
 4    1 -0.3240665E-004  0.1900611E+03  0.7818608E-02  0.1158406E+00
          5   -1    0    0  501    0  0.00000000000E+00  0.00000000000E+00  0.10638363592E+03  0.10648740767E+03  0.47000000000E+01 0. -1.
         -5   -1    0    0    0  501 -0.00000000000E+00 -0.00000000000E+00 -0.10950138341E+04  0.10950239206E+04  0.47000000000E+01 0.  1.
          6    1    1    2  502    0 -0.74280088806E+02  0.31964113759E+02  0.47421386800E+01  0.19012028835E+03  0.17200000000E+03 0. -1.
         -6    1    1    2    0  502  0.74280088806E+02 -0.31964113759E+02 -0.99337233683E+03  0.10113910400E+04  0.17200000000E+03 0.  1.
</event>
<event>
 4    1 -0.3240665E-004  0.1904043E+03  0.7818608E-02  0.1158097E+00
          5   -1    0    0  501    0  0.00000000000E+00  0.00000000000E+00  0.98231078323E+03  0.98232202706E+03  0.47000000000E+01 0. -1.
         -5   -1    0    0    0  501 -0.00000000000E+00 -0.00000000000E+00 -0.37348735930E+02  0.37643300540E+02  0.47000000000E+01 0.  1.
          6    1    1    2  502    0  0.77015306102E+02 -0.27174219735E+02  0.53702758795E+03  0.56978278827E+03  0.17200000000E+03 0. -1.
         -6    1    1    2    0  502 -0.77015306102E+02  0.27174219735E+02  0.40793445936E+03  0.45018253933E+03  0.17200000000E+03 0.  1.
</event>
<event>
 4    1 -0.3240665E-004  0.1738934E+03  0.7818608E-02  0.1173847E+00
         -5   -1    0    0    0  501 -0.00000000000E+00  0.00000000000E+00  0.20311293893E+03  0.20316731027E+03  0.47000000000E+01 0.  1.
          5   -1    0    0  501    0  0.00000000000E+00 -0.00000000000E+00 -0.15928400538E+03  0.15935333185E+03  0.47000000000E+01 0. -1.
          6    1    1    2  502    0  0.16752520921E+02  0.19346082750E+02 -0.24645486848E+02  0.17563119853E+03  0.17200000000E+03 0. -1.
         -6    1    1    2    0  502 -0.16752520921E+02 -0.19346082750E+02  0.68474420401E+02  0.18688944359E+03  0.17200000000E+03 0.  1.
</event>
<event>
 4    1 -0.3240665E-004  0.2143668E+03  0.7818608E-02  0.1138154E+00
         -5   -1    0    0    0  501 -0.00000000000E+00  0.00000000000E+00  0.87476528770E+03  0.87477791386E+03  0.47000000000E+01 0.  1.
          5   -1    0    0  501    0  0.00000000000E+00 -0.00000000000E+00 -0.52415154855E+02  0.52625454473E+02  0.47000000000E+01 0. -1.
          6    1    1    2  502    0  0.76931663859E+02 -0.10222833091E+03  0.41354866514E+03  0.46580640935E+03  0.17200000000E+03 0.  1.
         -6    1    1    2    0  502 -0.76931663859E+02  0.10222833091E+03  0.40880146771E+03  0.46159695898E+03  0.17200000000E+03 0.  1.
</event>
<event>
 4    1 -0.3240665E-004  0.1878749E+03  0.7818608E-02  0.1160392E+00
         -5   -1    0    0    0  501 -0.00000000000E+00  0.00000000000E+00  0.33193070680E+03  0.33196398015E+03  0.47000000000E+01 0.  1.
          5   -1    0    0  501    0  0.00000000000E+00 -0.00000000000E+00 -0.10648689545E+03  0.10659056667E+03  0.47000000000E+01 0. -1.
          6    1    1    2  502    0  0.38630068124E+02  0.64966906881E+02  0.10233919135E+03  0.21393992437E+03  0.17200000000E+03 0. -1.
         -6    1    1    2    0  502 -0.38630068124E+02 -0.64966906881E+02  0.12310461999E+03  0.22461462244E+03  0.17200000000E+03 0.  1.
</event>
<event>
 4    1 -0.3240665E-004  0.1910635E+03  0.7818608E-02  0.1157506E+00
         -5   -1    0    0    0  501 -0.00000000000E+00  0.00000000000E+00  0.12472304038E+04  0.12472392594E+04  0.47000000000E+01 0.  1.
          5   -1    0    0  501    0  0.00000000000E+00 -0.00000000000E+00 -0.38333855312E+02  0.38620907072E+02  0.47000000000E+01 0. -1.
          6    1    1    2  502    0 -0.57996885468E+02  0.59645839098E+02  0.28980940228E+03  0.34712354356E+03  0.17200000000E+03 0. -1.
         -6    1    1    2    0  502  0.57996885468E+02 -0.59645839098E+02  0.91908714618E+03  0.93873662287E+03  0.17200000000E+03 0.  1.
</event>
<event>
 4    1 -0.3240665E-004  0.2853492E+03  0.7818608E-02  0.1092803E+00
         -5   -1    0    0    0  501 -0.00000000000E+00  0.00000000000E+00  0.11190346099E+03  0.11200211864E+03  0.47000000000E+01 0.  1.
          5   -1    0    0  501    0  0.00000000000E+00 -0.00000000000E+00 -0.99614138617E+03  0.99615247389E+03  0.47000000000E+01 0. -1.
          6    1    1    2  502    0  0.19848494419E+03 -0.11155223421E+03 -0.72999982817E+03  0.78378818768E+03  0.17200000000E+03 0.  1.
         -6    1    1    2    0  502 -0.19848494419E+03  0.11155223421E+03 -0.15423809702E+03  0.32436640485E+03  0.17200000000E+03 0.  1.
</event>
<event>
 4    1 -0.3240665E-004  0.2481989E+03  0.7818608E-02  0.1114448E+00
         -5   -1    0    0    0  501 -0.00000000000E+00  0.00000000000E+00  0.11410061804E+03  0.11419737754E+03  0.47000000000E+01 0.  1.
          5   -1    0    0  501    0  0.00000000000E+00 -0.00000000000E+00 -0.74605476409E+03  0.74606956849E+03  0.47000000000E+01 0. -1.
          6    1    1    2  502    0 -0.14607592742E+03  0.10334659951E+03 -0.89701946128E+02  0.26391122625E+03  0.17200000000E+03 0. -1.
         -6    1    1    2    0  502  0.14607592742E+03 -0.10334659951E+03 -0.54225219992E+03  0.59635571978E+03  0.17200000000E+03 0. -1.
</event>
<event>
 4    1 -0.3240665E-004  0.1758875E+03  0.7818608E-02  0.1171844E+00
         -5   -1    0    0    0  501 -0.00000000000E+00  0.00000000000E+00  0.17714783713E+04  0.17714846062E+04  0.47000000000E+01 0.  1.
          5   -1    0    0  501    0  0.00000000000E+00 -0.00000000000E+00 -0.18955733804E+02  0.19529716947E+02  0.47000000000E+01 0. -1.
          6    1    1    2  502    0 -0.28425151583E+02  0.23333026296E+02  0.60353307581E+03  0.62864027309E+03  0.17200000000E+03 0. -1.
         -6    1    1    2    0  502  0.28425151583E+02 -0.23333026296E+02  0.11489895617E+04  0.11623740500E+04  0.17200000000E+03 0.  1.
</event>
<event>
 4    1 -0.3240665E-004  0.2797081E+03  0.7818608E-02  0.1095848E+00
          5   -1    0    0  501    0  0.00000000000E+00  0.00000000000E+00  0.38994462657E+03  0.38997295008E+03  0.47000000000E+01 0. -1.
         -5   -1    0    0    0  501 -0.00000000000E+00 -0.00000000000E+00 -0.20246076522E+03  0.20251531166E+03  0.47000000000E+01 0.  1.
          6    1    1    2  502    0 -0.19490885723E+03  0.10326246409E+03  0.12234930247E+03  0.30529649675E+03  0.17200000000E+03 0. -1.
         -6    1    1    2    0  502  0.19490885723E+03 -0.10326246409E+03  0.65134558883E+02  0.28719176498E+03  0.17200000000E+03 0.  1.
</event>
<event>
 4    1 -0.3240665E-004  0.2424687E+03  0.7818608E-02  0.1118159E+00
         -5   -1    0    0    0  501 -0.00000000000E+00  0.00000000000E+00  0.12185504116E+03  0.12194564795E+03  0.47000000000E+01 0.  1.
          5   -1    0    0  501    0  0.00000000000E+00 -0.00000000000E+00 -0.10746882489E+04  0.10746985262E+04  0.47000000000E+01 0. -1.
          6    1    1    2  502    0 -0.12591845286E+03  0.11554923629E+03 -0.92065605237E+03  0.95204970960E+03  0.17200000000E+03 0. -1.
         -6    1    1    2    0  502  0.12591845286E+03 -0.11554923629E+03 -0.32177155356E+02  0.24459446459E+03  0.17200000000E+03 0.  1.
</event>
<event>
 4    1 -0.3240665E-004  0.1727347E+03  0.7818608E-02  0.1175026E+00
         -5   -1    0    0    0  501 -0.00000000000E+00  0.00000000000E+00  0.52058444809E+03  0.52060566419E+03  0.47000000000E+01 0.  1.
          5   -1    0    0  501    0  0.00000000000E+00 -0.00000000000E+00 -0.60890871175E+02  0.61071991882E+02  0.47000000000E+01 0. -1.
          6    1    1    2  502    0  0.13196155884E+02  0.88966101999E+01  0.15832758287E+03  0.23431797136E+03  0.17200000000E+03 0. -1.
         -6    1    1    2    0  502 -0.13196155884E+02 -0.88966101999E+01  0.30136599405E+03  0.34735968472E+03  0.17200000000E+03 0.  1.
</event>
<event>
 4    1 -0.3240665E-004  0.2695105E+03  0.7818608E-02  0.1101560E+00
         -5   -1    0    0    0  501 -0.00000000000E+00  0.00000000000E+00  0.58776213390E+02  0.58963830103E+02  0.47000000000E+01 0.  1.
          5   -1    0    0  501    0  0.00000000000E+00 -0.00000000000E+00 -0.12337213216E+04  0.12337302742E+04  0.47000000000E+01 0. -1.
          6    1    1    2  502    0  0.13934795399E+03 -0.15373368428E+03 -0.59262272196E+03  0.65102810120E+03  0.17200000000E+03 0. -1.
         -6    1    1    2    0  502 -0.13934795399E+03  0.15373368428E+03 -0.58232238627E+03  0.64166600309E+03  0.17200000000E+03 0.  1.
</event>
<event>
 4    1 -0.3240665E-004  0.2147967E+03  0.7818608E-02  0.1137823E+00
         -5   -1    0    0    0  501 -0.00000000000E+00  0.00000000000E+00  0.89167523313E+02  0.89291305365E+02  0.47000000000E+01 0.  1.
          5   -1    0    0  501    0  0.00000000000E+00 -0.00000000000E+00 -0.63180722299E+03  0.63182470434E+03  0.47000000000E+01 0. -1.
          6    1    1    2  502    0  0.10224672037E+03  0.78097546934E+02 -0.42504506723E+03  0.47623621013E+03  0.17200000000E+03 0.  1.
         -6    1    1    2    0  502 -0.10224672037E+03 -0.78097546934E+02 -0.11759463245E+03  0.24487979958E+03  0.17200000000E+03 0.  1.
</event>
<event>
 4    1 -0.3240665E-004  0.1738255E+03  0.7818608E-02  0.1173916E+00
         -5   -1    0    0    0  501 -0.00000000000E+00  0.00000000000E+00  0.22651066181E+03  0.22655941807E+03  0.47000000000E+01 0.  1.
          5   -1    0    0  501    0  0.00000000000E+00 -0.00000000000E+00 -0.17377841834E+03  0.17384196467E+03  0.47000000000E+01 0. -1.
          6    1    1    2  502    0 -0.20324708502E+02 -0.14772196730E+02 -0.70234531203E+02  0.18747853463E+03  0.17200000000E+03 0. -1.
         -6    1    1    2    0  502  0.20324708502E+02  0.14772196730E+02  0.12296677468E+03  0.21292284811E+03  0.17200000000E+03 0.  1.
</event>
<event>
 4    1 -0.3240665E-004  0.4413556E+03  0.7818608E-02  0.1030332E+00
         -5   -1    0    0    0  501 -0.00000000000E+00  0.00000000000E+00  0.12484685259E+03  0.12493528965E+03  0.47000000000E+01 0.  1.
          5   -1    0    0  501    0  0.00000000000E+00 -0.00000000000E+00 -0.16201275557E+04  0.16201343731E+04  0.47000000000E+01 0. -1.
          6    1    1    2  502    0 -0.40246962222E+03 -0.56823959142E+02 -0.91624954047E+03  0.10170093311E+04  0.17200000000E+03 0. -1.
         -6    1    1    2    0  502  0.40246962222E+03  0.56823959142E+02 -0.57903116268E+03  0.72806033163E+03  0.17200000000E+03 0.  1.
</event>
<event>
 4    1 -0.3240665E-004  0.1732167E+03  0.7818608E-02  0.1174534E+00
         -5   -1    0    0    0  501 -0.00000000000E+00  0.00000000000E+00  0.36076547024E+03  0.36079608440E+03  0.47000000000E+01 0.  1.
          5   -1    0    0  501    0  0.00000000000E+00 -0.00000000000E+00 -0.92387980638E+02  0.92507453572E+02  0.47000000000E+01 0. -1.
          6    1    1    2  502    0 -0.85452082670E+01  0.18627778357E+02  0.62258375465E+02  0.18406553188E+03  0.17200000000E+03 0. -1.
         -6    1    1    2    0  502  0.85452082670E+01 -0.18627778357E+02  0.20611911414E+03  0.26923800609E+03  0.17200000000E+03 0.  1.
</event>
<event>
 4    1 -0.3240665E-004  0.1801441E+03  0.7818608E-02  0.1167664E+00
          5   -1    0    0  501    0  0.00000000000E+00  0.00000000000E+00  0.29152464578E+03  0.29156253034E+03  0.47000000000E+01 0. -1.
         -5   -1    0    0    0  501 -0.00000000000E+00 -0.00000000000E+00 -0.11711323999E+03  0.11720751248E+03  0.47000000000E+01 0.  1.
          6    1    1    2  502    0  0.78199636016E+01 -0.52978679622E+02  0.41395744028E+02  0.18483911910E+03  0.17200000000E+03 0.  1.
         -6    1    1    2    0  502 -0.78199636016E+01  0.52978679622E+02  0.13301566176E+03  0.22393092372E+03  0.17200000000E+03 0.  1.
</event>
<event>
 4    1 -0.3240665E-004  0.1764352E+03  0.7818608E-02  0.1171298E+00
          5   -1    0    0  501    0  0.00000000000E+00  0.00000000000E+00  0.55541434431E+03  0.55543423001E+03  0.47000000000E+01 0. -1.
         -5   -1    0    0    0  501 -0.00000000000E+00 -0.00000000000E+00 -0.60138041969E+02  0.60321423158E+02  0.47000000000E+01 0.  1.
          6    1    1    2  502    0  0.30025969060E+01  0.39196295271E+02  0.32896010594E+03  0.37328824848E+03  0.17200000000E+03 0. -1.
         -6    1    1    2    0  502 -0.30025969060E+01 -0.39196295271E+02  0.16631619640E+03  0.24246740469E+03  0.17200000000E+03 0.  1.
</event>
<event>
 4    1 -0.3240665E-004  0.2644591E+03  0.7818608E-02  0.1104493E+00
          5   -1    0    0  501    0  0.00000000000E+00  0.00000000000E+00  0.26950242905E+03  0.26954340887E+03  0.47000000000E+01 0. -1.
         -5   -1    0    0    0  501 -0.00000000000E+00 -0.00000000000E+00 -0.27706735953E+03  0.27710722062E+03  0.47000000000E+01 0.  1.
          6    1    1    2  502    0 -0.20087926809E+03 -0.14635315304E+01  0.65171932266E+02  0.27237107597E+03  0.17200000000E+03 0.  1.
         -6    1    1    2    0  502  0.20087926809E+03  0.14635315304E+01 -0.72736862751E+02  0.27427955351E+03  0.17200000000E+03 0.  1.
</event>
<event>
 4    1 -0.3240665E-004  0.1902462E+03  0.7818608E-02  0.1158239E+00
         -5   -1    0    0    0  501 -0.00000000000E+00  0.00000000000E+00  0.92449189484E+03  0.92450384187E+03  0.47000000000E+01 0.  1.
          5   -1    0    0  501    0  0.00000000000E+00 -0.00000000000E+00 -0.56275462682E+02  0.56471388331E+02  0.47000000000E+01 0. -1.
          6    1    1    2  502    0  0.51148909884E+02 -0.63193507133E+02  0.16292584910E+03  0.25047647121E+03  0.17200000000E+03 0. -1.
         -6    1    1    2    0  502 -0.51148909884E+02  0.63193507133E+02  0.70529058306E+03  0.73049875899E+03  0.17200000000E+03 0.  1.
</event>
<event>
 4    1 -0.3240665E-004  0.2009162E+03  0.7818608E-02  0.1148968E+00
         -5   -1    0    0    0  501 -0.00000000000E+00  0.00000000000E+00  0.60743578514E+02  0.60925137100E+02  0.47000000000E+01 0.  1.
          5   -1    0    0  501    0  0.00000000000E+00 -0.00000000000E+00 -0.74204854346E+03  0.74206342778E+03  0.47000000000E+01 0. -1.
          6    1    1    2  502    0 -0.60041589418E+02  0.84724911900E+02 -0.47136908730E+03  0.51240230251E+03  0.17200000000E+03 0. -1.
         -6    1    1    2    0  502  0.60041589418E+02 -0.84724911900E+02 -0.20993587765E+03  0.29058626238E+03  0.17200000000E+03 0.  1.
</event>
<event>
 4    1 -0.3240665E-004  0.2274404E+03  0.7818608E-02  0.1128454E+00
         -5   -1    0    0    0  501 -0.00000000000E+00  0.00000000000E+00  0.65709270622E+03  0.65710951489E+03  0.47000000000E+01 0.  1.
          5   -1    0    0  501    0  0.00000000000E+00 -0.00000000000E+00 -0.79863251873E+02  0.80001431236E+02  0.47000000000E+01 0. -1.
          6    1    1    2  502    0  0.14506323154E+03 -0.33193458100E+02  0.24297737132E+03  0.33281699142E+03  0.17200000000E+03 0. -1.
         -6    1    1    2    0  502 -0.14506323154E+03  0.33193458100E+02  0.33425208303E+03  0.40429395471E+03  0.17200000000E+03 0. -1.
</event>
<event>
 4    1 -0.3240665E-004  0.2309552E+03  0.7818608E-02  0.1125969E+00
         -5   -1    0    0    0  501 -0.00000000000E+00  0.00000000000E+00  0.42778682507E+02  0.43036097372E+02  0.47000000000E+01 0.  1.
          5   -1    0    0  501    0  0.00000000000E+00 -0.00000000000E+00 -0.13146156279E+04  0.13146240296E+04  0.47000000000E+01 0. -1.
          6    1    1    2  502    0 -0.13063581053E+03  0.81795962623E+02 -0.79446710389E+03  0.82735619515E+03  0.17200000000E+03 0. -1.
         -6    1    1    2    0  502  0.13063581053E+03 -0.81795962623E+02 -0.47736984152E+03  0.53030393180E+03  0.17200000000E+03 0.  1.
</event>
<event>
 4    1 -0.3240665E-004  0.3192106E+03  0.7818608E-02  0.1076013E+00
          5   -1    0    0  501    0  0.00000000000E+00  0.00000000000E+00  0.31049347021E+03  0.31052904058E+03  0.47000000000E+01 0. -1.
         -5   -1    0    0    0  501 -0.00000000000E+00 -0.00000000000E+00 -0.49246096736E+03  0.49248339503E+03  0.47000000000E+01 0.  1.
          6    1    1    2  502    0 -0.25056321482E+03  0.97619137190E+02  0.14095640172E+03  0.34894717044E+03  0.17200000000E+03 0. -1.
         -6    1    1    2    0  502  0.25056321482E+03 -0.97619137190E+02 -0.32292389887E+03  0.45406526517E+03  0.17200000000E+03 0.  1.
</event>
<event>
 4    1 -0.3240665E-004  0.2144242E+03  0.7818608E-02  0.1138110E+00
          5   -1    0    0  501    0  0.00000000000E+00  0.00000000000E+00  0.17066090561E+04  0.17066155280E+04  0.47000000000E+01 0. -1.
         -5   -1    0    0    0  501 -0.00000000000E+00 -0.00000000000E+00 -0.28422549220E+02  0.28808528323E+02  0.47000000000E+01 0.  1.
          6    1    1    2  502    0  0.23031559808E+01 -0.12801732572E+03  0.10493832007E+04  0.10710662175E+04  0.17200000000E+03 0.  1.
         -6    1    1    2    0  502 -0.23031559808E+01  0.12801732572E+03  0.62880330611E+03  0.66435783881E+03  0.17200000000E+03 0.  1.
</event>
<event>
 4    1 -0.3240665E-004  0.3887095E+03  0.7818608E-02  0.1047761E+00
          5   -1    0    0  501    0  0.00000000000E+00  0.00000000000E+00  0.12925335815E+03  0.12933878224E+03  0.47000000000E+01 0. -1.
         -5   -1    0    0    0  501 -0.00000000000E+00 -0.00000000000E+00 -0.13921835868E+04  0.13921915204E+04  0.47000000000E+01 0.  1.
          6    1    1    2  502    0 -0.43717948590E+02  0.34583205882E+03 -0.32653694632E+03  0.50766273179E+03  0.17200000000E+03 0. -1.
         -6    1    1    2    0  502  0.43717948590E+02 -0.34583205882E+03 -0.93639328233E+03  0.10138675708E+04  0.17200000000E+03 0.  1.
</event>
<event>
 4    1 -0.3240665E-004  0.1903245E+03  0.7818608E-02  0.1158169E+00
          5   -1    0    0  501    0  0.00000000000E+00  0.00000000000E+00  0.29227431189E+03  0.29231209929E+03  0.47000000000E+01 0. -1.
         -5   -1    0    0    0  501 -0.00000000000E+00 -0.00000000000E+00 -0.12518784603E+03  0.12527604238E+03  0.47000000000E+01 0.  1.
          6    1    1    2  502    0  0.17788356770E+02  0.79517118374E+02  0.10514956748E+03  0.21743925426E+03  0.17200000000E+03 0. -1.
         -6    1    1    2    0  502 -0.17788356770E+02 -0.79517118374E+02  0.61936898384E+02  0.20014888741E+03  0.17200000000E+03 0.  1.
</event>
<event>
 4    1 -0.3240665E-004  0.3502176E+03  0.7818608E-02  0.1062526E+00
          5   -1    0    0  501    0  0.00000000000E+00  0.00000000000E+00  0.13386719517E+04  0.13386802024E+04  0.47000000000E+01 0. -1.
         -5   -1    0    0    0  501 -0.00000000000E+00 -0.00000000000E+00 -0.15580765609E+03  0.15587852866E+03  0.47000000000E+01 0.  1.
          6    1    1    2  502    0 -0.29636098233E+03  0.72377772625E+02  0.10711589305E+04  0.11269577757E+04  0.17200000000E+03 0. -1.
         -6    1    1    2    0  502  0.29636098233E+03 -0.72377772625E+02  0.11170536519E+03  0.36760095542E+03  0.17200000000E+03 0.  1.
</event>
<event>
 4    1 -0.3240665E-004  0.2017814E+03  0.7818608E-02  0.1148245E+00
          5   -1    0    0  501    0  0.00000000000E+00  0.00000000000E+00  0.52141360010E+03  0.52143478247E+03  0.47000000000E+01 0. -1.
         -5   -1    0    0    0  501 -0.00000000000E+00 -0.00000000000E+00 -0.97138034496E+02  0.97251672200E+02  0.47000000000E+01 0.  1.
          6    1    1    2  502    0  0.88561324245E+02 -0.57346694127E+02  0.34936284384E+03  0.40344782579E+03  0.17200000000E+03 0. -1.
         -6    1    1    2    0  502 -0.88561324245E+02  0.57346694127E+02  0.74912721762E+02  0.21523862888E+03  0.17200000000E+03 0.  1.
</event>
<event>
 4    1 -0.3240665E-004  0.3601895E+03  0.7818608E-02  0.1058509E+00
         -5   -1    0    0    0  501 -0.00000000000E+00  0.00000000000E+00  0.88682107703E+02  0.88806566349E+02  0.47000000000E+01 0.  1.
          5   -1    0    0  501    0  0.00000000000E+00 -0.00000000000E+00 -0.15334778226E+04  0.15334850251E+04  0.47000000000E+01 0. -1.
          6    1    1    2  502    0  0.22133443944E+03  0.22619359807E+03 -0.89777816235E+03  0.96733763841E+03  0.17200000000E+03 0. -1.
         -6    1    1    2    0  502 -0.22133443944E+03 -0.22619359807E+03 -0.54701755251E+03  0.65495395307E+03  0.17200000000E+03 0.  1.
</event>
<event>
 4    1 -0.3240665E-004  0.1795410E+03  0.7818608E-02  0.1168248E+00
          5   -1    0    0  501    0  0.00000000000E+00  0.00000000000E+00  0.16468208743E+03  0.16474914240E+03  0.47000000000E+01 0. -1.
         -5   -1    0    0    0  501 -0.00000000000E+00 -0.00000000000E+00 -0.30084162358E+03  0.30087833501E+03  0.47000000000E+01 0.  1.
          6    1    1    2  502    0 -0.27619742410E+02  0.43452311550E+02  0.69590552395E+02  0.19255596208E+03  0.17200000000E+03 0. -1.
         -6    1    1    2    0  502  0.27619742410E+02 -0.43452311550E+02 -0.20575008854E+03  0.27307151533E+03  0.17200000000E+03 0.  1.
</event>
<event>
 4    1 -0.3240665E-004  0.2230907E+03  0.7818608E-02  0.1131600E+00
         -5   -1    0    0    0  501 -0.00000000000E+00  0.00000000000E+00  0.41236095814E+03  0.41238774205E+03  0.47000000000E+01 0.  1.
          5   -1    0    0  501    0  0.00000000000E+00 -0.00000000000E+00 -0.14406475329E+03  0.14414139982E+03  0.47000000000E+01 0. -1.
          6    1    1    2  502    0  0.99165023205E+01  0.14172905279E+03  0.21931160984E+02  0.22416609299E+03  0.17200000000E+03 0. -1.
         -6    1    1    2    0  502 -0.99165023205E+01 -0.14172905279E+03  0.24636504386E+03  0.33236304888E+03  0.17200000000E+03 0.  1.
</event>
<event>
 4    1 -0.3240665E-004  0.2251982E+03  0.7818608E-02  0.1130066E+00
          5   -1    0    0  501    0  0.00000000000E+00  0.00000000000E+00  0.78093924597E+03  0.78095338907E+03  0.47000000000E+01 0. -1.
         -5   -1    0    0    0  501 -0.00000000000E+00 -0.00000000000E+00 -0.66833065510E+02  0.66998124194E+02  0.47000000000E+01 0.  1.
          6    1    1    2  502    0  0.37352542825E+02 -0.14048140928E+03  0.43016489019E+03  0.48554718778E+03  0.17200000000E+03 0. -1.
         -6    1    1    2    0  502 -0.37352542825E+02  0.14048140928E+03  0.28394129027E+03  0.36240432549E+03  0.17200000000E+03 0.  1.
</event>
<event>
 4    1 -0.3240665E-004  0.1937668E+03  0.7818608E-02  0.1155107E+00
          5   -1    0    0  501    0  0.00000000000E+00  0.00000000000E+00  0.15573348174E+02  0.16267119393E+02  0.47000000000E+01 0. -1.
         -5   -1    0    0    0  501 -0.00000000000E+00 -0.00000000000E+00 -0.25389648249E+04  0.25389691751E+04  0.47000000000E+01 0.  1.
          6    1    1    2  502    0 -0.88631558940E+02  0.10296913253E+02 -0.92033165427E+03  0.94050833782E+03  0.17200000000E+03 0.  1.
         -6    1    1    2    0  502  0.88631558940E+02 -0.10296913253E+02 -0.16030598224E+04  0.16147279566E+04  0.17200000000E+03 0.  1.
</event>
<event>
 4    1 -0.3240665E-004  0.2078156E+03  0.7818608E-02  0.1143308E+00
          5   -1    0    0  501    0  0.00000000000E+00  0.00000000000E+00  0.56714411359E+03  0.56716358802E+03  0.47000000000E+01 0. -1.
         -5   -1    0    0    0  501 -0.00000000000E+00 -0.00000000000E+00 -0.76089621871E+02  0.76234641447E+02  0.47000000000E+01 0.  1.
          6    1    1    2  502    0 -0.10512600829E+03 -0.50515842779E+02  0.23871686220E+03  0.31650129271E+03  0.17200000000E+03 0. -1.
         -6    1    1    2    0  502  0.10512600829E+03  0.50515842779E+02  0.25233762952E+03  0.32689693676E+03  0.17200000000E+03 0.  1.
</event>
<event>
 4    1 -0.3240665E-004  0.1776168E+03  0.7818608E-02  0.1170130E+00
          5   -1    0    0  501    0  0.00000000000E+00  0.00000000000E+00  0.14343850754E+03  0.14351548852E+03  0.47000000000E+01 0. -1.
         -5   -1    0    0    0  501 -0.00000000000E+00 -0.00000000000E+00 -0.52410994335E+03  0.52413101675E+03  0.47000000000E+01 0.  1.
          6    1    1    2  502    0  0.42685134112E+02  0.11903767715E+02  0.64014769642E+02  0.18880045310E+03  0.17200000000E+03 0. -1.
         -6    1    1    2    0  502 -0.42685134112E+02 -0.11903767715E+02 -0.44468620545E+03  0.47884605217E+03  0.17200000000E+03 0.  1.
</event>
<event>
 4    1 -0.3240665E-004  0.3248289E+03  0.7818608E-02  0.1073448E+00
         -5   -1    0    0    0  501 -0.00000000000E+00  0.00000000000E+00  0.10628198946E+03  0.10638586036E+03  0.47000000000E+01 0.  1.
          5   -1    0    0  501    0  0.00000000000E+00 -0.00000000000E+00 -0.10005547988E+04  0.10005658376E+04  0.47000000000E+01 0. -1.
          6    1    1    2  502    0 -0.11044379569E+03 -0.25245188671E+03 -0.49777712594E+03  0.59438695664E+03  0.17200000000E+03 0. -1.
         -6    1    1    2    0  502  0.11044379569E+03  0.25245188671E+03 -0.39649568340E+03  0.51256474134E+03  0.17200000000E+03 0.  1.
</event>
<event>
 4    1 -0.3240665E-004  0.1761313E+03  0.7818608E-02  0.1171601E+00
         -5   -1    0    0    0  501 -0.00000000000E+00  0.00000000000E+00  0.11803423892E+03  0.11812777641E+03  0.47000000000E+01 0.  1.
          5   -1    0    0  501    0  0.00000000000E+00 -0.00000000000E+00 -0.45325269980E+03  0.45327706745E+03  0.47000000000E+01 0. -1.
          6    1    1    2  502    0  0.63340426819E+01  0.37391189582E+02 -0.35287641515E+03  0.39439065091E+03  0.17200000000E+03 0. -1.
         -6    1    1    2    0  502 -0.63340426819E+01 -0.37391189582E+02  0.17657954275E+02  0.17701419295E+03  0.17200000000E+03 0.  1.
</event>
<event>
 4    1 -0.3240665E-004  0.2009347E+03  0.7818608E-02  0.1148953E+00
         -5   -1    0    0    0  501 -0.00000000000E+00  0.00000000000E+00  0.10179175086E+04  0.10179283591E+04  0.47000000000E+01 0.  1.
          5   -1    0    0  501    0  0.00000000000E+00 -0.00000000000E+00 -0.39759515968E+02  0.40036347361E+02  0.47000000000E+01 0. -1.
          6    1    1    2  502    0  0.90119582349E+02 -0.51664437285E+02  0.44763885178E+03  0.49066821257E+03  0.17200000000E+03 0. -1.
         -6    1    1    2    0  502 -0.90119582349E+02  0.51664437285E+02  0.53051914086E+03  0.56729649393E+03  0.17200000000E+03 0.  1.
</event>
<event>
 4    1 -0.3240665E-004  0.2936354E+03  0.7818608E-02  0.1088466E+00
         -5   -1    0    0    0  501 -0.00000000000E+00  0.00000000000E+00  0.54612596664E+03  0.54614619054E+03  0.47000000000E+01 0.  1.
          5   -1    0    0  501    0  0.00000000000E+00 -0.00000000000E+00 -0.21744514750E+03  0.21749593599E+03  0.47000000000E+01 0. -1.
          6    1    1    2  502    0  0.73108126823E+02 -0.22647942136E+03 -0.35561409938E+02  0.29578089929E+03  0.17200000000E+03 0. -1.
         -6    1    1    2    0  502 -0.73108126823E+02  0.22647942136E+03  0.36424222908E+03  0.46786122724E+03  0.17200000000E+03 0.  1.
</event>
<event>
 4    1 -0.3240665E-004  0.1844548E+03  0.7818608E-02  0.1163560E+00
         -5   -1    0    0    0  501 -0.00000000000E+00  0.00000000000E+00  0.12946748969E+03  0.12955277260E+03  0.47000000000E+01 0.  1.
          5   -1    0    0  501    0  0.00000000000E+00 -0.00000000000E+00 -0.70672377649E+03  0.70673940477E+03  0.47000000000E+01 0. -1.
          6    1    1    2  502    0 -0.49847262719E+02 -0.44213312587E+02 -0.62007849431E+03  0.64693191737E+03  0.17200000000E+03 0. -1.
         -6    1    1    2    0  502  0.49847262719E+02  0.44213312587E+02  0.42822207512E+02  0.18936026000E+03  0.17200000000E+03 0.  1.
</event>
<event>
 4    1 -0.3240665E-004  0.2278191E+03  0.7818608E-02  0.1128184E+00
          5   -1    0    0  501    0  0.00000000000E+00  0.00000000000E+00  0.90562845234E+02  0.90684722731E+02  0.47000000000E+01 0. -1.
         -5   -1    0    0    0  501 -0.00000000000E+00 -0.00000000000E+00 -0.57427228126E+03  0.57429151398E+03  0.47000000000E+01 0.  1.
          6    1    1    2  502    0 -0.14885657521E+03  0.12619371367E+02 -0.22382220498E+03  0.31937111322E+03  0.17200000000E+03 0. -1.
         -6    1    1    2    0  502  0.14885657521E+03 -0.12619371367E+02 -0.25988723104E+03  0.34560512348E+03  0.17200000000E+03 0. -1.
</event>
<event>
 4    1 -0.3240665E-004  0.3067800E+03  0.7818608E-02  0.1081900E+00
         -5   -1    0    0    0  501 -0.00000000000E+00  0.00000000000E+00  0.52311654276E+02  0.52522368312E+02  0.47000000000E+01 0.  1.
          5   -1    0    0  501    0  0.00000000000E+00 -0.00000000000E+00 -0.22693879418E+04  0.22693928087E+04  0.47000000000E+01 0. -1.
          6    1    1    2  502    0  0.24908808325E+03 -0.49850444067E+02 -0.16391587247E+04  0.16676196403E+04  0.17200000000E+03 0. -1.
         -6    1    1    2    0  502 -0.24908808325E+03  0.49850444067E+02 -0.57791756283E+03  0.65429553676E+03  0.17200000000E+03 0.  1.
</event>
<event>
 4    1 -0.3240665E-004  0.2320830E+03  0.7818608E-02  0.1125182E+00
         -5   -1    0    0    0  501 -0.00000000000E+00  0.00000000000E+00  0.19266450946E+03  0.19272182857E+03  0.47000000000E+01 0.  1.
          5   -1    0    0  501    0  0.00000000000E+00 -0.00000000000E+00 -0.31282258152E+03  0.31285788708E+03  0.47000000000E+01 0. -1.
          6    1    1    2  502    0 -0.95947538998E+02  0.12277053132E+03 -0.14263607763E+03  0.27241069040E+03  0.17200000000E+03 0. -1.
         -6    1    1    2    0  502  0.95947538998E+02 -0.12277053132E+03  0.22478005581E+02  0.23316902525E+03  0.17200000000E+03 0.  1.
</event>
<event>
 4    1 -0.3240665E-004  0.1796324E+03  0.7818608E-02  0.1168159E+00
         -5   -1    0    0    0  501 -0.00000000000E+00  0.00000000000E+00  0.32003457897E+03  0.32006908901E+03  0.47000000000E+01 0.  1.
          5   -1    0    0  501    0  0.00000000000E+00 -0.00000000000E+00 -0.12052770820E+03  0.12061931207E+03  0.47000000000E+01 0. -1.
          6    1    1    2  502    0  0.35897836117E+02  0.37351864951E+02  0.10503442227E+02  0.17993926406E+03  0.17200000000E+03 0. -1.
         -6    1    1    2    0  502 -0.35897836117E+02 -0.37351864951E+02  0.18900342854E+03  0.26074913702E+03  0.17200000000E+03 0. -1.
</event>
<event>
 4    1 -0.3240665E-004  0.2779691E+03  0.7818608E-02  0.1096803E+00
         -5   -1    0    0    0  501 -0.00000000000E+00  0.00000000000E+00  0.40681412136E+03  0.40684127044E+03  0.47000000000E+01 0.  1.
          5   -1    0    0  501    0  0.00000000000E+00 -0.00000000000E+00 -0.20951786267E+03  0.20957057231E+03  0.47000000000E+01 0. -1.
          6    1    1    2  502    0 -0.21189007888E+03  0.52777164301E+02  0.42824998155E+01  0.27800211223E+03  0.17200000000E+03 0. -1.
         -6    1    1    2    0  502  0.21189007888E+03 -0.52777164301E+02  0.19301375887E+03  0.33840973052E+03  0.17200000000E+03 0.  1.
</event>
<event>
 4    1 -0.3240665E-004  0.1852259E+03  0.7818608E-02  0.1162839E+00
         -5   -1    0    0    0  501 -0.00000000000E+00  0.00000000000E+00  0.49309003103E+02  0.49532492235E+02  0.47000000000E+01 0.  1.
          5   -1    0    0  501    0  0.00000000000E+00 -0.00000000000E+00 -0.75685043999E+03  0.75686503322E+03  0.47000000000E+01 0. -1.
          6    1    1    2  502    0 -0.67919097047E+02 -0.10565741472E+02 -0.46995722656E+03  0.50514199333E+03  0.17200000000E+03 0. -1.
         -6    1    1    2    0  502  0.67919097047E+02  0.10565741472E+02 -0.23758421033E+03  0.30125553212E+03  0.17200000000E+03 0.  1.
</event>
<event>
 4    1 -0.3240665E-004  0.1973547E+03  0.7818608E-02  0.1151990E+00
         -5   -1    0    0    0  501 -0.00000000000E+00  0.00000000000E+00  0.22911860920E+03  0.22916681060E+03  0.47000000000E+01 0.  1.
          5   -1    0    0  501    0  0.00000000000E+00 -0.00000000000E+00 -0.20478412925E+03  0.20483805699E+03  0.47000000000E+01 0. -1.
          6    1    1    2  502    0  0.96560476037E+01  0.96289277815E+02 -0.77378046800E+02  0.21198166525E+03  0.17200000000E+03 0. -1.
         -6    1    1    2    0  502 -0.96560476037E+01 -0.96289277815E+02  0.10171252675E+03  0.22202320234E+03  0.17200000000E+03 0.  1.
</event>
<event>
 4    1 -0.3240665E-004  0.2549202E+03  0.7818608E-02  0.1110234E+00
         -5   -1    0    0    0  501 -0.00000000000E+00  0.00000000000E+00  0.80033282942E+03  0.80034662981E+03  0.47000000000E+01 0.  1.
          5   -1    0    0  501    0  0.00000000000E+00 -0.00000000000E+00 -0.98099238562E+02  0.98211764094E+02  0.47000000000E+01 0. -1.
          6    1    1    2  502    0  0.25425242869E+02 -0.18642384909E+03  0.16430122446E+03  0.30328070635E+03  0.17200000000E+03 0. -1.
         -6    1    1    2    0  502 -0.25425242869E+02  0.18642384909E+03  0.53793236639E+03  0.59527768755E+03  0.17200000000E+03 0.  1.
</event>
<event>
 4    1 -0.3240665E-004  0.2990749E+03  0.7818608E-02  0.1085704E+00
          5   -1    0    0  501    0  0.00000000000E+00  0.00000000000E+00  0.18950469831E+04  0.18950528115E+04  0.47000000000E+01 0. -1.
         -5   -1    0    0    0  501 -0.00000000000E+00 -0.00000000000E+00 -0.77968781924E+02  0.78110312730E+02  0.47000000000E+01 0.  1.
          6    1    1    2  502    0  0.17454804894E+02 -0.24404326436E+03  0.15287745109E+04  0.15577539248E+04  0.17200000000E+03 0. -1.
         -6    1    1    2    0  502 -0.17454804894E+02  0.24404326436E+03  0.28830369031E+03  0.41540919939E+03  0.17200000000E+03 0. -1.
</event>
<event>
 4    1 -0.3240665E-004  0.4038025E+03  0.7818608E-02  0.1042471E+00
         -5   -1    0    0    0  501 -0.00000000000E+00  0.00000000000E+00  0.10004439845E+04  0.10004550246E+04  0.47000000000E+01 0.  1.
          5   -1    0    0  501    0  0.00000000000E+00 -0.00000000000E+00 -0.16301385130E+03  0.16308159220E+03  0.47000000000E+01 0. -1.
          6    1    1    2  502    0  0.21986425927E+03  0.29177412416E+03  0.40618899697E+03  0.57275294263E+03  0.17200000000E+03 0. -1.
         -6    1    1    2    0  502 -0.21986425927E+03 -0.29177412416E+03  0.43124113627E+03  0.59078367415E+03  0.17200000000E+03 0.  1.
</event>
<event>
 4    1 -0.3240665E-004  0.2310017E+03  0.7818608E-02  0.1125937E+00
         -5   -1    0    0    0  501 -0.00000000000E+00  0.00000000000E+00  0.73386168441E+02  0.73536519625E+02  0.47000000000E+01 0.  1.
          5   -1    0    0  501    0  0.00000000000E+00 -0.00000000000E+00 -0.12791876592E+04  0.12791962935E+04  0.47000000000E+01 0. -1.
          6    1    1    2  502    0  0.24776316481E+02  0.15219704524E+03 -0.10475640701E+04  0.10727312279E+04  0.17200000000E+03 0. -1.
         -6    1    1    2    0  502 -0.24776316481E+02 -0.15219704524E+03 -0.15823742065E+03  0.28000158523E+03  0.17200000000E+03 0. -1.
</event>
<event>
 4    1 -0.3240665E-004  0.3282646E+03  0.7818608E-02  0.1071907E+00
          5   -1    0    0  501    0  0.00000000000E+00  0.00000000000E+00  0.68291153830E+02  0.68452696743E+02  0.47000000000E+01 0. -1.
         -5   -1    0    0    0  501 -0.00000000000E+00 -0.00000000000E+00 -0.15992212708E+04  0.15992281773E+04  0.47000000000E+01 0.  1.
          6    1    1    2  502    0  0.27238895039E+03 -0.63070622814E+02 -0.66474583935E+03  0.74138024973E+03  0.17200000000E+03 0. -1.
         -6    1    1    2    0  502 -0.27238895039E+03  0.63070622814E+02 -0.86618427760E+03  0.92630062427E+03  0.17200000000E+03 0.  1.
</event>
<event>
 4    1 -0.3240665E-004  0.1786238E+03  0.7818608E-02  0.1169142E+00
         -5   -1    0    0    0  501 -0.00000000000E+00  0.00000000000E+00  0.12467256172E+03  0.12476112233E+03  0.47000000000E+01 0.  1.
          5   -1    0    0  501    0  0.00000000000E+00 -0.00000000000E+00 -0.36700836790E+03  0.36703846134E+03  0.47000000000E+01 0. -1.
          6    1    1    2  502    0 -0.46551822946E+02 -0.12465215747E+02  0.14216629659E+02  0.17918863352E+03  0.17200000000E+03 0.  1.
         -6    1    1    2    0  502  0.46551822946E+02  0.12465215747E+02 -0.25655243584E+03  0.31261095016E+03  0.17200000000E+03 0. -1.
</event>
<event>
 4    1 -0.3240665E-004  0.1768991E+03  0.7818608E-02  0.1170838E+00
         -5   -1    0    0    0  501 -0.00000000000E+00  0.00000000000E+00  0.35613891751E+03  0.35616992933E+03  0.47000000000E+01 0.  1.
          5   -1    0    0  501    0  0.00000000000E+00 -0.00000000000E+00 -0.96956085038E+02  0.97069935747E+02  0.47000000000E+01 0. -1.
          6    1    1    2  502    0 -0.39469113966E+02  0.12307801432E+02  0.59892457863E+02  0.18676294986E+03  0.17200000000E+03 0. -1.
         -6    1    1    2    0  502  0.39469113966E+02 -0.12307801432E+02  0.19929037460E+03  0.26647691522E+03  0.17200000000E+03 0.  1.
</event>
<event>
 4    1 -0.3240665E-004  0.2168268E+03  0.7818608E-02  0.1136271E+00
         -5   -1    0    0    0  501 -0.00000000000E+00  0.00000000000E+00  0.95836184309E+02  0.95951363841E+02  0.47000000000E+01 0.  1.
          5   -1    0    0  501    0  0.00000000000E+00 -0.00000000000E+00 -0.67684966542E+03  0.67686598347E+03  0.47000000000E+01 0. -1.
          6    1    1    2  502    0  0.97823565387E+02  0.88659054483E+02 -0.49343213372E+03  0.53897045232E+03  0.17200000000E+03 0. -1.
         -6    1    1    2    0  502 -0.97823565387E+02 -0.88659054483E+02 -0.87581347393E+02  0.23384689499E+03  0.17200000000E+03 0.  1.
</event>
<event>
 4    1 -0.3240665E-004  0.1928165E+03  0.7818608E-02  0.1155945E+00
         -5   -1    0    0    0  501 -0.00000000000E+00  0.00000000000E+00  0.20104967768E+03  0.20110460685E+03  0.47000000000E+01 0.  1.
          5   -1    0    0  501    0  0.00000000000E+00 -0.00000000000E+00 -0.36637930658E+03  0.36640945169E+03  0.47000000000E+01 0. -1.
          6    1    1    2  502    0 -0.46639303581E+01 -0.87019919340E+02 -0.28239449033E+03  0.34194278290E+03  0.17200000000E+03 0. -1.
         -6    1    1    2    0  502  0.46639303581E+01  0.87019919340E+02  0.11706486144E+03  0.22557127564E+03  0.17200000000E+03 0.  1.
</event>
<event>
 4    1 -0.3240665E-004  0.2076000E+03  0.7818608E-02  0.1143481E+00
         -5   -1    0    0    0  501 -0.00000000000E+00  0.00000000000E+00  0.16232385065E+04  0.16232453107E+04  0.47000000000E+01 0.  1.
          5   -1    0    0  501    0  0.00000000000E+00 -0.00000000000E+00 -0.31592372006E+02  0.31940068393E+02  0.47000000000E+01 0. -1.
          6    1    1    2  502    0 -0.11504388596E+03 -0.16693049176E+02  0.46029336608E+03  0.50494330022E+03  0.17200000000E+03 0. -1.
         -6    1    1    2    0  502  0.11504388596E+03  0.16693049176E+02  0.11313527684E+04  0.11502420789E+04  0.17200000000E+03 0.  1.
</event>
<event>
 4    1 -0.3240665E-004  0.3407341E+03  0.7818608E-02  0.1066484E+00
          5   -1    0    0  501    0  0.00000000000E+00  0.00000000000E+00  0.33871272456E+03  0.33874533175E+03  0.47000000000E+01 0. -1.
         -5   -1    0    0    0  501 -0.00000000000E+00 -0.00000000000E+00 -0.45283057977E+03  0.45285497014E+03  0.47000000000E+01 0.  1.
          6    1    1    2  502    0  0.27494598864E+03  0.10450079924E+03  0.13811793770E+03  0.36766326772E+03  0.17200000000E+03 0. -1.
         -6    1    1    2    0  502 -0.27494598864E+03 -0.10450079924E+03 -0.25223579291E+03  0.42393703417E+03  0.17200000000E+03 0.  1.
</event>
<event>
 4    1 -0.3240665E-004  0.4225316E+03  0.7818608E-02  0.1036246E+00
          5   -1    0    0  501    0  0.00000000000E+00  0.00000000000E+00  0.20175464275E+03  0.20180938003E+03  0.47000000000E+01 0. -1.
         -5   -1    0    0    0  501 -0.00000000000E+00 -0.00000000000E+00 -0.93356983043E+03  0.93358166129E+03  0.47000000000E+01 0.  1.
          6    1    1    2  502    0  0.36743578769E+03  0.11806726138E+03 -0.23605311840E+03  0.48399794524E+03  0.17200000000E+03 0. -1.
         -6    1    1    2    0  502 -0.36743578769E+03 -0.11806726138E+03 -0.49576206928E+03  0.65139309608E+03  0.17200000000E+03 0.  1.
</event>
<event>
 4    1 -0.3240665E-004  0.1747344E+03  0.7818608E-02  0.1172999E+00
         -5   -1    0    0    0  501 -0.00000000000E+00  0.00000000000E+00  0.75522578215E+02  0.75668684542E+02  0.47000000000E+01 0.  1.
          5   -1    0    0  501    0  0.00000000000E+00 -0.00000000000E+00 -0.44975137799E+03  0.44977593534E+03  0.47000000000E+01 0. -1.
          6    1    1    2  502    0 -0.11580675530E+02 -0.28530562215E+02 -0.10308720325E+03  0.20287699845E+03  0.17200000000E+03 0.  1.
         -6    1    1    2    0  502  0.11580675530E+02  0.28530562215E+02 -0.27114159653E+03  0.32256762143E+03  0.17200000000E+03 0. -1.
</event>
<event>
 4    1 -0.3240665E-004  0.2854988E+03  0.7818608E-02  0.1092723E+00
         -5   -1    0    0    0  501 -0.00000000000E+00  0.00000000000E+00  0.15556572811E+03  0.15563671084E+03  0.47000000000E+01 0.  1.
          5   -1    0    0  501    0  0.00000000000E+00 -0.00000000000E+00 -0.62522947370E+03  0.62524713897E+03  0.47000000000E+01 0. -1.
          6    1    1    2  502    0  0.21217078209E+03  0.83121248072E+02 -0.39211568297E+03  0.48504050499E+03  0.17200000000E+03 0. -1.
         -6    1    1    2    0  502 -0.21217078209E+03 -0.83121248072E+02 -0.77548062629E+02  0.29584334481E+03  0.17200000000E+03 0.  1.
</event>
<event>
 4    1 -0.3240665E-004  0.4011247E+03  0.7818608E-02  0.1043391E+00
          5   -1    0    0  501    0  0.00000000000E+00  0.00000000000E+00  0.92819978627E+02  0.92938896229E+02  0.47000000000E+01 0. -1.
         -5   -1    0    0    0  501 -0.00000000000E+00 -0.00000000000E+00 -0.20395280199E+04  0.20395334353E+04  0.47000000000E+01 0.  1.
          6    1    1    2  502    0  0.20128023078E+03 -0.30133589797E+03 -0.55950084143E+03  0.68843463471E+03  0.17200000000E+03 0. -1.
         -6    1    1    2    0  502 -0.20128023078E+03  0.30133589797E+03 -0.13872071998E+04  0.14440376968E+04  0.17200000000E+03 0.  1.
</event>
<event>
 4    1 -0.3240665E-004  0.2039188E+03  0.7818608E-02  0.1146474E+00
         -5   -1    0    0    0  501 -0.00000000000E+00  0.00000000000E+00  0.12483939913E+03  0.12492784148E+03  0.47000000000E+01 0.  1.
          5   -1    0    0  501    0  0.00000000000E+00 -0.00000000000E+00 -0.43104426259E+03  0.43106988564E+03  0.47000000000E+01 0. -1.
          6    1    1    2  502    0  0.68406528882E+02 -0.85553559275E+02 -0.28575822238E+03  0.35105644326E+03  0.17200000000E+03 0. -1.
         -6    1    1    2    0  502 -0.68406528882E+02  0.85553559275E+02 -0.20446641075E+02  0.20494128386E+03  0.17200000000E+03 0.  1.
</event>
<event>
 4    1 -0.3240665E-004  0.2642326E+03  0.7818608E-02  0.1104627E+00
          5   -1    0    0  501    0  0.00000000000E+00  0.00000000000E+00  0.10049320798E+03  0.10060305587E+03  0.47000000000E+01 0. -1.
         -5   -1    0    0    0  501 -0.00000000000E+00 -0.00000000000E+00 -0.69745349497E+03  0.69746933097E+03  0.47000000000E+01 0.  1.
          6    1    1    2  502    0 -0.57768734938E+02  0.19208753715E+03 -0.27150031896E+03  0.37885521226E+03  0.17200000000E+03 0.  1.
         -6    1    1    2    0  502  0.57768734938E+02 -0.19208753715E+03 -0.32545996803E+03  0.41921717457E+03  0.17200000000E+03 0. -1.
</event>
<event>
 4    1 -0.3240665E-004  0.2036681E+03  0.7818608E-02  0.1146681E+00
         -5   -1    0    0    0  501 -0.00000000000E+00  0.00000000000E+00  0.62043259605E+02  0.62221025887E+02  0.47000000000E+01 0.  1.
          5   -1    0    0  501    0  0.00000000000E+00 -0.00000000000E+00 -0.66763816395E+03  0.66765470714E+03  0.47000000000E+01 0. -1.
          6    1    1    2  502    0  0.16954896078E+02 -0.10774614876E+03 -0.29642589285E+03  0.35965123526E+03  0.17200000000E+03 0. -1.
         -6    1    1    2    0  502 -0.16954896078E+02  0.10774614876E+03 -0.30916901149E+03  0.37022449776E+03  0.17200000000E+03 0.  1.
</event>
<event>
 4    1 -0.3240665E-004  0.2302426E+03  0.7818608E-02  0.1126469E+00
         -5   -1    0    0    0  501 -0.00000000000E+00  0.00000000000E+00  0.70867075871E+03  0.70868634405E+03  0.47000000000E+01 0.  1.
          5   -1    0    0  501    0  0.00000000000E+00 -0.00000000000E+00 -0.76633989731E+02  0.76777981102E+02  0.47000000000E+01 0. -1.
          6    1    1    2  502    0 -0.15004667940E+03 -0.30226978145E+02  0.37811439597E+03  0.44269873803E+03  0.17200000000E+03 0. -1.
         -6    1    1    2    0  502  0.15004667940E+03  0.30226978145E+02  0.25392237300E+03  0.34276558713E+03  0.17200000000E+03 0. -1.
</event>
<event>
 4    1 -0.3240665E-004  0.1803203E+03  0.7818608E-02  0.1167493E+00
         -5   -1    0    0    0  501 -0.00000000000E+00  0.00000000000E+00  0.16109467641E+03  0.16116322399E+03  0.47000000000E+01 0.  1.
          5   -1    0    0  501    0  0.00000000000E+00 -0.00000000000E+00 -0.24207766027E+03  0.24212328182E+03  0.47000000000E+01 0. -1.
          6    1    1    2  502    0 -0.42117768836E+02  0.34022022294E+02 -0.12282231657E+03  0.21817590586E+03  0.17200000000E+03 0. -1.
         -6    1    1    2    0  502  0.42117768836E+02 -0.34022022294E+02  0.41839332703E+02  0.18511059995E+03  0.17200000000E+03 0.  1.
</event>
<event>
 4    1 -0.3240665E-004  0.3190336E+03  0.7818608E-02  0.1076095E+00
         -5   -1    0    0    0  501 -0.00000000000E+00  0.00000000000E+00  0.45576168073E+03  0.45578591424E+03  0.47000000000E+01 0.  1.
          5   -1    0    0  501    0  0.00000000000E+00 -0.00000000000E+00 -0.36594284604E+03  0.36597302710E+03  0.47000000000E+01 0. -1.
          6    1    1    2  502    0  0.24757990882E+03 -0.10441565486E+03 -0.21162291638E+03  0.38284030478E+03  0.17200000000E+03 0. -1.
         -6    1    1    2    0  502 -0.24757990882E+03  0.10441565486E+03  0.30144175107E+03  0.43891863656E+03  0.17200000000E+03 0.  1.
</event>
<event>
 4    1 -0.3240665E-004  0.1770977E+03  0.7818608E-02  0.1170642E+00
         -5   -1    0    0    0  501 -0.00000000000E+00  0.00000000000E+00  0.89033703989E+03  0.89034944522E+03  0.47000000000E+01 0.  1.
          5   -1    0    0  501    0  0.00000000000E+00 -0.00000000000E+00 -0.43352639624E+02  0.43606666490E+02  0.47000000000E+01 0. -1.
          6    1    1    2  502    0 -0.34900025171E+01 -0.42040815732E+02  0.21991480422E+03  0.28235816160E+03  0.17200000000E+03 0. -1.
         -6    1    1    2    0  502  0.34900025171E+01  0.42040815732E+02  0.62706959605E+03  0.65159795011E+03  0.17200000000E+03 0.  1.
</event>
<event>
 4    1 -0.3240665E-004  0.2091461E+03  0.7818608E-02  0.1142244E+00
         -5   -1    0    0    0  501 -0.00000000000E+00  0.00000000000E+00  0.31173022587E+03  0.31176565513E+03  0.47000000000E+01 0.  1.
          5   -1    0    0  501    0  0.00000000000E+00 -0.00000000000E+00 -0.15115604362E+03  0.15122909615E+03  0.47000000000E+01 0. -1.
          6    1    1    2  502    0  0.23495483824E+02  0.11664499284E+03  0.18092243227E+02  0.20992718114E+03  0.17200000000E+03 0.  1.
         -6    1    1    2    0  502 -0.23495483824E+02 -0.11664499284E+03  0.14248193902E+03  0.25306757015E+03  0.17200000000E+03 0.  1.
</event>
<event>
 4    1 -0.3240665E-004  0.5668035E+03  0.7818608E-02  0.9976777E-01
          5   -1    0    0  501    0  0.00000000000E+00  0.00000000000E+00  0.38955858622E+03  0.38958693779E+03  0.47000000000E+01 0. -1.
         -5   -1    0    0    0  501 -0.00000000000E+00 -0.00000000000E+00 -0.11011985103E+04  0.11012085403E+04  0.47000000000E+01 0.  1.
          6    1    1    2  502    0 -0.31387815047E+03 -0.43950282650E+03  0.17731436688E+02  0.56708079820E+03  0.17200000000E+03 0. -1.
         -6    1    1    2    0  502  0.31387815047E+03  0.43950282650E+03 -0.72937136079E+03  0.92371467986E+03  0.17200000000E+03 0.  1.
</event>
<event>
 4    1 -0.3240665E-004  0.2688955E+03  0.7818608E-02  0.1101913E+00
         -5   -1    0    0    0  501 -0.00000000000E+00  0.00000000000E+00  0.10010708403E+03  0.10021735515E+03  0.47000000000E+01 0.  1.
          5   -1    0    0  501    0  0.00000000000E+00 -0.00000000000E+00 -0.73070729739E+03  0.73072241272E+03  0.47000000000E+01 0. -1.
          6    1    1    2  502    0 -0.52168717409E+02 -0.19999809507E+03 -0.26932778733E+03  0.38058148948E+03  0.17200000000E+03 0.  1.
         -6    1    1    2    0  502  0.52168717409E+02  0.19999809507E+03 -0.36127242602E+03  0.45035827839E+03  0.17200000000E+03 0.  1.
</event>
<event>
 4    1 -0.3240665E-004  0.4541140E+03  0.7818608E-02  0.1026502E+00
         -5   -1    0    0    0  501 -0.00000000000E+00  0.00000000000E+00  0.77943549955E+03  0.77944966993E+03  0.47000000000E+01 0.  1.
          5   -1    0    0  501    0  0.00000000000E+00 -0.00000000000E+00 -0.27300546502E+03  0.27304591908E+03  0.47000000000E+01 0. -1.
          6    1    1    2  502    0  0.50323650768E+02 -0.41725662326E+03  0.16054583274E+03  0.48165809854E+03  0.17200000000E+03 0.  1.
         -6    1    1    2    0  502 -0.50323650768E+02  0.41725662326E+03  0.34588420180E+03  0.57083749048E+03  0.17200000000E+03 0.  1.
</event>
<event>
 4    1 -0.3240665E-004  0.1739723E+03  0.7818608E-02  0.1173768E+00
          5   -1    0    0  501    0  0.00000000000E+00  0.00000000000E+00  0.10746359539E+03  0.10756632527E+03  0.47000000000E+01 0. -1.
         -5   -1    0    0    0  501 -0.00000000000E+00 -0.00000000000E+00 -0.35086507520E+03  0.35089655312E+03  0.47000000000E+01 0.  1.
          6    1    1    2  502    0 -0.11498278340E+02  0.23455057024E+02 -0.19713469682E+02  0.17508561046E+03  0.17200000000E+03 0. -1.
         -6    1    1    2    0  502  0.11498278340E+02 -0.23455057024E+02 -0.22368801013E+03  0.28337726793E+03  0.17200000000E+03 0.  1.
</event>
<event>
 4    1 -0.3240665E-004  0.1992818E+03  0.7818608E-02  0.1150346E+00
         -5   -1    0    0    0  501 -0.00000000000E+00  0.00000000000E+00  0.32979731337E+03  0.32983080194E+03  0.47000000000E+01 0.  1.
          5   -1    0    0  501    0  0.00000000000E+00 -0.00000000000E+00 -0.12034951183E+03  0.12044125123E+03  0.47000000000E+01 0. -1.
          6    1    1    2  502    0  0.97738472276E+02  0.24009059597E+02  0.10746576415E+03  0.22641142721E+03  0.17200000000E+03 0. -1.
         -6    1    1    2    0  502 -0.97738472276E+02 -0.24009059597E+02  0.10198203739E+03  0.22386062596E+03  0.17200000000E+03 0.  1.
</event>
<event>
 4    1 -0.3240665E-004  0.1917991E+03  0.7818608E-02  0.1156849E+00
         -5   -1    0    0    0  501 -0.00000000000E+00  0.00000000000E+00  0.84232809957E+03  0.84234121194E+03  0.47000000000E+01 0.  1.
          5   -1    0    0  501    0  0.00000000000E+00 -0.00000000000E+00 -0.80365771678E+02  0.80503088496E+02  0.47000000000E+01 0. -1.
          6    1    1    2  502    0 -0.76254746197E+02 -0.37257165872E+02  0.69007104973E+02  0.20383538276E+03  0.17200000000E+03 0. -1.
         -6    1    1    2    0  502  0.76254746197E+02  0.37257165872E+02  0.69295522292E+03  0.71900891768E+03  0.17200000000E+03 0.  1.
</event>
<event>
 4    1 -0.3240665E-004  0.2476324E+03  0.7818608E-02  0.1114810E+00
         -5   -1    0    0    0  501 -0.00000000000E+00  0.00000000000E+00  0.31375358826E+03  0.31378878907E+03  0.47000000000E+01 0.  1.
          5   -1    0    0  501    0  0.00000000000E+00 -0.00000000000E+00 -0.19612776929E+03  0.19618407653E+03  0.47000000000E+01 0. -1.
          6    1    1    2  502    0 -0.35105111417E+02 -0.17465809854E+03  0.42981415859E+02  0.25133488087E+03  0.17200000000E+03 0.  1.
         -6    1    1    2    0  502  0.35105111417E+02  0.17465809854E+03  0.74644403115E+02  0.25863798474E+03  0.17200000000E+03 0.  1.
</event>
<event>
 4    1 -0.3240665E-004  0.2154266E+03  0.7818608E-02  0.1137339E+00
         -5   -1    0    0    0  501 -0.00000000000E+00  0.00000000000E+00  0.85678893012E+03  0.85680182118E+03  0.47000000000E+01 0.  1.
          5   -1    0    0  501    0  0.00000000000E+00 -0.00000000000E+00 -0.92272638795E+02  0.92392260879E+02  0.47000000000E+01 0. -1.
          6    1    1    2  502    0  0.38054791638E+02  0.12400179543E+03  0.77092596876E+02  0.22880533414E+03  0.17200000000E+03 0. -1.
         -6    1    1    2    0  502 -0.38054791638E+02 -0.12400179543E+03  0.68742369445E+03  0.72038874792E+03  0.17200000000E+03 0.  1.
</event>
<event>
 4    1 -0.3240665E-004  0.2061554E+03  0.7818608E-02  0.1144647E+00
         -5   -1    0    0    0  501 -0.00000000000E+00  0.00000000000E+00  0.10978586246E+03  0.10988642135E+03  0.47000000000E+01 0.  1.
          5   -1    0    0  501    0  0.00000000000E+00 -0.00000000000E+00 -0.42064664826E+03  0.42067290464E+03  0.47000000000E+01 0. -1.
          6    1    1    2  502    0  0.89532919967E+02  0.69999403662E+02 -0.23063974333E+03  0.30934568281E+03  0.17200000000E+03 0. -1.
         -6    1    1    2    0  502 -0.89532919967E+02 -0.69999403662E+02 -0.80221042469E+02  0.22121364317E+03  0.17200000000E+03 0.  1.
</event>
<event>
 4    1 -0.3240665E-004  0.1923094E+03  0.7818608E-02  0.1156395E+00
         -5   -1    0    0    0  501 -0.00000000000E+00  0.00000000000E+00  0.45074820106E+02  0.45319194692E+02  0.47000000000E+01 0.  1.
          5   -1    0    0  501    0  0.00000000000E+00 -0.00000000000E+00 -0.87361800642E+03  0.87363064915E+03  0.47000000000E+01 0. -1.
          6    1    1    2  502    0  0.27352593746E+02  0.81551961214E+02 -0.53017910671E+03  0.56397940739E+03  0.17200000000E+03 0. -1.
         -6    1    1    2    0  502 -0.27352593746E+02 -0.81551961214E+02 -0.29836407960E+03  0.35497043645E+03  0.17200000000E+03 0. -1.
</event>
<event>
 4    1 -0.3240665E-004  0.3096409E+03  0.7818608E-02  0.1080518E+00
          5   -1    0    0  501    0  0.00000000000E+00  0.00000000000E+00  0.97051444139E+03  0.97052582188E+03  0.47000000000E+01 0. -1.
         -5   -1    0    0    0  501 -0.00000000000E+00 -0.00000000000E+00 -0.15771603729E+03  0.15778605268E+03  0.47000000000E+01 0.  1.
          6    1    1    2  502    0 -0.22573955632E+03  0.12383508562E+03  0.75132260402E+03  0.81262730143E+03  0.17200000000E+03 0. -1.
         -6    1    1    2    0  502  0.22573955632E+03 -0.12383508562E+03  0.61475800073E+02  0.31568457313E+03  0.17200000000E+03 0.  1.
</event>
<event>
 4    1 -0.3240665E-004  0.2486063E+03  0.7818608E-02  0.1114189E+00
         -5   -1    0    0    0  501 -0.00000000000E+00  0.00000000000E+00  0.79408843433E+03  0.79410234324E+03  0.47000000000E+01 0.  1.
          5   -1    0    0  501    0  0.00000000000E+00 -0.00000000000E+00 -0.77757408433E+02  0.77899323272E+02  0.47000000000E+01 0. -1.
          6    1    1    2  502    0 -0.20243792059E+02  0.17835720380E+03  0.36345231864E+03  0.44034383292E+03  0.17200000000E+03 0.  1.
         -6    1    1    2    0  502  0.20243792059E+02 -0.17835720380E+03  0.35287870725E+03  0.43165783359E+03  0.17200000000E+03 0. -1.
</event>
<event>
 4    1 -0.3240665E-004  0.1897605E+03  0.7818608E-02  0.1158678E+00
         -5   -1    0    0    0  501 -0.00000000000E+00  0.00000000000E+00  0.13394509984E+03  0.13402753364E+03  0.47000000000E+01 0.  1.
          5   -1    0    0  501    0  0.00000000000E+00 -0.00000000000E+00 -0.29114548830E+03  0.29118342219E+03  0.47000000000E+01 0. -1.
          6    1    1    2  502    0 -0.50296848255E+02 -0.62412019088E+02 -0.13768692027E+03  0.23444982637E+03  0.17200000000E+03 0. -1.
         -6    1    1    2    0  502  0.50296848255E+02  0.62412019088E+02 -0.19513468187E+02  0.19076112946E+03  0.17200000000E+03 0.  1.
</event>
<event>
 4    1 -0.3240665E-004  0.9240978E+03  0.7818608E-02  0.9395949E-01
          5   -1    0    0  501    0  0.00000000000E+00  0.00000000000E+00  0.15197715319E+04  0.15197787994E+04  0.47000000000E+01 0. -1.
         -5   -1    0    0    0  501 -0.00000000000E+00 -0.00000000000E+00 -0.75767814232E+03  0.75769271961E+03  0.47000000000E+01 0.  1.
          6    1    1    2  502    0  0.57646268391E+03 -0.70147236151E+03  0.95991300906E+03  0.13324374975E+04  0.17200000000E+03 0. -1.
         -6    1    1    2    0  502 -0.57646268391E+03  0.70147236151E+03 -0.19781961949E+03  0.94503402148E+03  0.17200000000E+03 0.  1.
</event>
<event>
 4    1 -0.3240665E-004  0.1893677E+03  0.7818608E-02  0.1159033E+00
          5   -1    0    0  501    0  0.00000000000E+00  0.00000000000E+00  0.20685047300E+03  0.20690386217E+03  0.47000000000E+01 0. -1.
         -5   -1    0    0    0  501 -0.00000000000E+00 -0.00000000000E+00 -0.35564585144E+03  0.35567690625E+03  0.47000000000E+01 0.  1.
          6    1    1    2  502    0 -0.70751181955E+02  0.35642413817E+02  0.12701470048E+03  0.22801939731E+03  0.17200000000E+03 0. -1.
         -6    1    1    2    0  502  0.70751181955E+02 -0.35642413817E+02 -0.27581007892E+03  0.33456137111E+03  0.17200000000E+03 0.  1.
</event>
<event>
 4    1 -0.3240665E-004  0.4006106E+03  0.7818608E-02  0.1043568E+00
         -5   -1    0    0    0  501 -0.00000000000E+00  0.00000000000E+00  0.10806988708E+04  0.10807090910E+04  0.47000000000E+01 0.  1.
          5   -1    0    0  501    0  0.00000000000E+00 -0.00000000000E+00 -0.23235470318E+03  0.23240223340E+03  0.47000000000E+01 0. -1.
          6    1    1    2  502    0  0.33417796862E+03  0.13867204678E+03  0.29709843209E+02  0.40171074924E+03  0.17200000000E+03 0. -1.
         -6    1    1    2    0  502 -0.33417796862E+03 -0.13867204678E+03  0.81863432439E+03  0.91140057513E+03  0.17200000000E+03 0.  1.
</event>
<event>
 4    1 -0.3240665E-004  0.2054221E+03  0.7818608E-02  0.1145243E+00
         -5   -1    0    0    0  501 -0.00000000000E+00  0.00000000000E+00  0.15314834704E+03  0.15322044968E+03  0.47000000000E+01 0.  1.
          5   -1    0    0  501    0  0.00000000000E+00 -0.00000000000E+00 -0.29685612173E+03  0.29689332598E+03  0.47000000000E+01 0. -1.
          6    1    1    2  502    0  0.67959186188E+01  0.11210730346E+03 -0.13237450529E+03  0.24437929873E+03  0.17200000000E+03 0. -1.
         -6    1    1    2    0  502 -0.67959186188E+01 -0.11210730346E+03 -0.11333269407E+02  0.20573447692E+03  0.17200000000E+03 0.  1.
</event>
<event>
 4    1 -0.3240665E-004  0.2178239E+03  0.7818608E-02  0.1135516E+00
          5   -1    0    0  501    0  0.00000000000E+00  0.00000000000E+00  0.20531816304E+03  0.20537195055E+03  0.47000000000E+01 0. -1.
         -5   -1    0    0    0  501 -0.00000000000E+00 -0.00000000000E+00 -0.23962718031E+03  0.23967326832E+03  0.47000000000E+01 0.  1.
          6    1    1    2  502    0 -0.12380030081E+03 -0.50366027726E+02 -0.59408431207E+02  0.22578001003E+03  0.17200000000E+03 0.  1.
         -6    1    1    2    0  502  0.12380030081E+03  0.50366027726E+02  0.25099413931E+02  0.21926520884E+03  0.17200000000E+03 0. -1.
</event>
<event>
 4    1 -0.3240665E-004  0.1891219E+03  0.7818608E-02  0.1159256E+00
          5   -1    0    0  501    0  0.00000000000E+00  0.00000000000E+00  0.76360217622E+02  0.76504724268E+02  0.47000000000E+01 0. -1.
         -5   -1    0    0    0  501 -0.00000000000E+00 -0.00000000000E+00 -0.82343100239E+03  0.82344441567E+03  0.47000000000E+01 0.  1.
          6    1    1    2  502    0  0.78214225315E+02 -0.81021102756E+01 -0.77849386452E+02  0.20451805838E+03  0.17200000000E+03 0. -1.
         -6    1    1    2    0  502 -0.78214225315E+02  0.81021102756E+01 -0.66922139831E+03  0.69543108155E+03  0.17200000000E+03 0.  1.
</event>
<event>
 4    1 -0.3240665E-004  0.1797735E+03  0.7818608E-02  0.1168022E+00
         -5   -1    0    0    0  501 -0.00000000000E+00  0.00000000000E+00  0.37429339556E+03  0.37432290333E+03  0.47000000000E+01 0.  1.
          5   -1    0    0  501    0  0.00000000000E+00 -0.00000000000E+00 -0.90670112689E+02  0.90791846192E+02  0.47000000000E+01 0. -1.
          6    1    1    2  502    0 -0.17618522322E+02  0.49235062378E+02  0.90499515947E+02  0.20126764788E+03  0.17200000000E+03 0. -1.
         -6    1    1    2    0  502  0.17618522322E+02 -0.49235062378E+02  0.19312376693E+03  0.26384710165E+03  0.17200000000E+03 0.  1.
</event>
<event>
 4    1 -0.3240665E-004  0.2654947E+03  0.7818608E-02  0.1103886E+00
          5   -1    0    0  501    0  0.00000000000E+00  0.00000000000E+00  0.13291564136E+03  0.13299871322E+03  0.47000000000E+01 0. -1.
         -5   -1    0    0    0  501 -0.00000000000E+00 -0.00000000000E+00 -0.91233221809E+03  0.91234432434E+03  0.47000000000E+01 0.  1.
          6    1    1    2  502    0 -0.18277479770E+03 -0.86584011332E+02 -0.51397176558E+02  0.27042390325E+03  0.17200000000E+03 0. -1.
         -6    1    1    2    0  502  0.18277479770E+03  0.86584011332E+02 -0.72801940017E+03  0.77491913431E+03  0.17200000000E+03 0.  1.
</event>
<event>
 4    1 -0.3240665E-004  0.2482985E+03  0.7818608E-02  0.1114385E+00
         -5   -1    0    0    0  501 -0.00000000000E+00  0.00000000000E+00  0.18716779028E+03  0.18722679221E+03  0.47000000000E+01 0.  1.
          5   -1    0    0  501    0  0.00000000000E+00 -0.00000000000E+00 -0.34083382462E+03  0.34086622890E+03  0.47000000000E+01 0. -1.
          6    1    1    2  502    0 -0.97393359580E+02 -0.15027536172E+03 -0.12546813987E+03  0.27819849919E+03  0.17200000000E+03 0. -1.
         -6    1    1    2    0  502  0.97393359580E+02  0.15027536172E+03 -0.28197894467E+02  0.24989452191E+03  0.17200000000E+03 0.  1.
</event>
<event>
 4    1 -0.3240665E-004  0.3076818E+03  0.7818608E-02  0.1081462E+00
          5   -1    0    0  501    0  0.00000000000E+00  0.00000000000E+00  0.14437583228E+03  0.14445231375E+03  0.47000000000E+01 0. -1.
         -5   -1    0    0    0  501 -0.00000000000E+00 -0.00000000000E+00 -0.94422520565E+03  0.94423690300E+03  0.47000000000E+01 0.  1.
          6    1    1    2  502    0  0.24886694279E+03  0.56118712563E+02 -0.98903336795E+02  0.32318715188E+03  0.17200000000E+03 0. -1.
         -6    1    1    2    0  502 -0.24886694279E+03 -0.56118712563E+02 -0.70094603657E+03  0.76550206486E+03  0.17200000000E+03 0.  1.
</event>
<event>
 4    1 -0.3240665E-004  0.2112812E+03  0.7818608E-02  0.1140555E+00
         -5   -1    0    0    0  501 -0.00000000000E+00  0.00000000000E+00  0.32853485574E+03  0.32856847298E+03  0.47000000000E+01 0.  1.
          5   -1    0    0  501    0  0.00000000000E+00 -0.00000000000E+00 -0.19025254530E+03  0.19031059086E+03  0.47000000000E+01 0. -1.
          6    1    1    2  502    0 -0.67211150336E+02  0.10265683278E+03 -0.69625736035E+02  0.22245787728E+03  0.17200000000E+03 0.  1.
         -6    1    1    2    0  502  0.67211150336E+02 -0.10265683278E+03  0.20790804648E+03  0.29642118655E+03  0.17200000000E+03 0. -1.
</event>
<event>
 4    1 -0.3240665E-004  0.3879668E+03  0.7818608E-02  0.1048028E+00
         -5   -1    0    0    0  501 -0.00000000000E+00  0.00000000000E+00  0.98382914792E+03  0.98384037440E+03  0.47000000000E+01 0.  1.
          5   -1    0    0  501    0  0.00000000000E+00 -0.00000000000E+00 -0.16396955146E+03  0.16403689770E+03  0.47000000000E+01 0. -1.
          6    1    1    2  502    0 -0.29025008268E+03  0.19154397449E+03  0.26113889690E+03  0.46766625721E+03  0.17200000000E+03 0. -1.
         -6    1    1    2    0  502  0.29025008268E+03 -0.19154397449E+03  0.55872069956E+03  0.68021101489E+03  0.17200000000E+03 0.  1.
</event>
<event>
 4    1 -0.3240665E-004  0.2670690E+03  0.7818608E-02  0.1102969E+00
         -5   -1    0    0    0  501 -0.00000000000E+00  0.00000000000E+00  0.48881171262E+03  0.48883430771E+03  0.47000000000E+01 0.  1.
          5   -1    0    0  501    0  0.00000000000E+00 -0.00000000000E+00 -0.15269455155E+03  0.15276686837E+03  0.47000000000E+01 0. -1.
          6    1    1    2  502    0 -0.20315285543E+03  0.21697529943E+02  0.10017536009E+03  0.28523844104E+03  0.17200000000E+03 0. -1.
         -6    1    1    2    0  502  0.20315285543E+03 -0.21697529943E+02  0.23594180099E+03  0.35636273505E+03  0.17200000000E+03 0. -1.
</event>
<event>
 4    1 -0.3240665E-004  0.1729964E+03  0.7818608E-02  0.1174759E+00
         -5   -1    0    0    0  501 -0.00000000000E+00  0.00000000000E+00  0.13070162414E+03  0.13078610229E+03  0.47000000000E+01 0.  1.
          5   -1    0    0  501    0  0.00000000000E+00 -0.00000000000E+00 -0.34116481823E+03  0.34119719107E+03  0.47000000000E+01 0. -1.
          6    1    1    2  502    0 -0.13238590672E+02  0.12980913108E+02 -0.24064436429E+03  0.29637387613E+03  0.17200000000E+03 0. -1.
         -6    1    1    2    0  502  0.13238590672E+02 -0.12980913108E+02  0.30181170203E+02  0.17560941724E+03  0.17200000000E+03 0.  1.
</event>
<event>
 4    1 -0.3240665E-004  0.5890804E+03  0.7818608E-02  0.9928323E-01
          5   -1    0    0  501    0  0.00000000000E+00  0.00000000000E+00  0.23989843875E+03  0.23994447465E+03  0.47000000000E+01 0. -1.
         -5   -1    0    0    0  501 -0.00000000000E+00 -0.00000000000E+00 -0.18186910326E+04  0.18186971056E+04  0.47000000000E+01 0.  1.
          6    1    1    2  502    0 -0.35299541196E+03  0.43911953487E+03 -0.32364771653E+03  0.67213359624E+03  0.17200000000E+03 0. -1.
         -6    1    1    2    0  502  0.35299541196E+03 -0.43911953487E+03 -0.12551448773E+04  0.13865079840E+04  0.17200000000E+03 0.  1.
</event>
<event>
 4    1 -0.3240665E-004  0.1756575E+03  0.7818608E-02  0.1172073E+00
         -5   -1    0    0    0  501 -0.00000000000E+00  0.00000000000E+00  0.32839223805E+03  0.32842586988E+03  0.47000000000E+01 0.  1.
          5   -1    0    0  501    0  0.00000000000E+00 -0.00000000000E+00 -0.94640020197E+02  0.94756653713E+02  0.47000000000E+01 0. -1.
          6    1    1    2  502    0  0.34847571735E+02 -0.75624382997E+01  0.97708772730E+02  0.20100385070E+03  0.17200000000E+03 0. -1.
         -6    1    1    2    0  502 -0.34847571735E+02  0.75624382997E+01  0.13604344512E+03  0.22217867289E+03  0.17200000000E+03 0.  1.
</event>
<event>
 4    1 -0.3240665E-004  0.2269433E+03  0.7818608E-02  0.1128810E+00
         -5   -1    0    0    0  501 -0.00000000000E+00  0.00000000000E+00  0.61644141574E+03  0.61645933284E+03  0.47000000000E+01 0.  1.
          5   -1    0    0  501    0  0.00000000000E+00 -0.00000000000E+00 -0.10144903363E+03  0.10155784768E+03  0.47000000000E+01 0. -1.
          6    1    1    2  502    0 -0.14796686569E+03  0.50057811884E+01  0.10643960514E+03  0.25066439861E+03  0.17200000000E+03 0. -1.
         -6    1    1    2    0  502  0.14796686569E+03 -0.50057811884E+01  0.40855277697E+03  0.46735278191E+03  0.17200000000E+03 0.  1.
</event>
<event>
 4    1 -0.3240665E-004  0.2767859E+03  0.7818608E-02  0.1097457E+00
         -5   -1    0    0    0  501 -0.00000000000E+00  0.00000000000E+00  0.28655246624E+03  0.28659100807E+03  0.47000000000E+01 0.  1.
          5   -1    0    0  501    0  0.00000000000E+00 -0.00000000000E+00 -0.35475843142E+03  0.35478956392E+03  0.47000000000E+01 0. -1.
          6    1    1    2  502    0 -0.10732291379E+03  0.18843625378E+03 -0.19333726031E+03  0.33762364518E+03  0.17200000000E+03 0. -1.
         -6    1    1    2    0  502  0.10732291379E+03 -0.18843625378E+03  0.12513129512E+03  0.30375692681E+03  0.17200000000E+03 0.  1.
</event>
<event>
 4    1 -0.3240665E-004  0.2845174E+03  0.7818608E-02  0.1093247E+00
         -5   -1    0    0    0  501 -0.00000000000E+00  0.00000000000E+00  0.13318103043E+04  0.13318185975E+04  0.47000000000E+01 0.  1.
          5   -1    0    0  501    0  0.00000000000E+00 -0.00000000000E+00 -0.17880272602E+03  0.17886448735E+03  0.47000000000E+01 0. -1.
          6    1    1    2  502    0  0.17250798355E+03  0.14699375222E+03 -0.37201950548E+02  0.28693928401E+03  0.17200000000E+03 0. -1.
         -6    1    1    2    0  502 -0.17250798355E+03 -0.14699375222E+03  0.11902095288E+04  0.12237438009E+04  0.17200000000E+03 0.  1.
</event>
<event>
 4    1 -0.3240665E-004  0.1778901E+03  0.7818608E-02  0.1169861E+00
          5   -1    0    0  501    0  0.00000000000E+00  0.00000000000E+00  0.43200509194E+03  0.43203065802E+03  0.47000000000E+01 0. -1.
         -5   -1    0    0    0  501 -0.00000000000E+00 -0.00000000000E+00 -0.83560330654E+02  0.83692406221E+02  0.47000000000E+01 0.  1.
          6    1    1    2  502    0 -0.77365656072E+01 -0.44732948568E+02  0.26515629056E+03  0.31930040645E+03  0.17200000000E+03 0. -1.
         -6    1    1    2    0  502  0.77365656072E+01  0.44732948568E+02  0.83288470725E+02  0.19642265778E+03  0.17200000000E+03 0.  1.
</event>
<event>
 4    1 -0.3240665E-004  0.1736502E+03  0.7818608E-02  0.1174094E+00
         -5   -1    0    0    0  501 -0.00000000000E+00  0.00000000000E+00  0.27096617033E+02  0.27501211876E+02  0.47000000000E+01 0.  1.
          5   -1    0    0  501    0  0.00000000000E+00 -0.00000000000E+00 -0.11571108040E+04  0.11571203493E+04  0.47000000000E+01 0. -1.
          6    1    1    2  502    0 -0.22368329220E+02  0.83688259517E+01 -0.69165451129E+03  0.71312014583E+03  0.17200000000E+03 0. -1.
         -6    1    1    2    0  502  0.22368329220E+02 -0.83688259517E+01 -0.43835967566E+03  0.47150141531E+03  0.17200000000E+03 0.  1.
</event>
<event>
 4    1 -0.3240665E-004  0.2057919E+03  0.7818608E-02  0.1144942E+00
         -5   -1    0    0    0  501 -0.00000000000E+00  0.00000000000E+00  0.66369549127E+03  0.66371213273E+03  0.47000000000E+01 0.  1.
          5   -1    0    0  501    0  0.00000000000E+00 -0.00000000000E+00 -0.65109493278E+02  0.65278910185E+02  0.47000000000E+01 0. -1.
          6    1    1    2  502    0  0.11178102664E+03  0.16471406685E+02  0.35273411139E+03  0.40837685842E+03  0.17200000000E+03 0. -1.
         -6    1    1    2    0  502 -0.11178102664E+03 -0.16471406685E+02  0.24585188661E+03  0.32061418450E+03  0.17200000000E+03 0.  1.
</event>
<event>
 4    1 -0.3240665E-004  0.2126110E+03  0.7818608E-02  0.1139515E+00
         -5   -1    0    0    0  501 -0.00000000000E+00  0.00000000000E+00  0.11769442496E+04  0.11769536340E+04  0.47000000000E+01 0.  1.
          5   -1    0    0  501    0  0.00000000000E+00 -0.00000000000E+00 -0.39437442195E+02  0.39716518564E+02  0.47000000000E+01 0. -1.
          6    1    1    2  502    0  0.12497658858E+03 -0.55461256073E+00  0.46376648252E+03  0.51017918969E+03  0.17200000000E+03 0. -1.
         -6    1    1    2    0  502 -0.12497658858E+03  0.55461256073E+00  0.67374032487E+03  0.70649096289E+03  0.17200000000E+03 0.  1.
</event>
<event>
 4    1 -0.3240665E-004  0.3332258E+03  0.7818608E-02  0.1069718E+00
          5   -1    0    0  501    0  0.00000000000E+00  0.00000000000E+00  0.30437865052E+03  0.30441493540E+03  0.47000000000E+01 0. -1.
         -5   -1    0    0    0  501 -0.00000000000E+00 -0.00000000000E+00 -0.66195885838E+03  0.66197554350E+03  0.47000000000E+01 0.  1.
          6    1    1    2  502    0 -0.27952471596E+03  0.57631216167E+02  0.14497521196E+03  0.36339680240E+03  0.17200000000E+03 0. -1.
         -6    1    1    2    0  502  0.27952471596E+03 -0.57631216167E+02 -0.50255541982E+03  0.60299367650E+03  0.17200000000E+03 0.  1.
</event>
<event>
 4    1 -0.3240665E-004  0.2024407E+03  0.7818608E-02  0.1147696E+00
          5   -1    0    0  501    0  0.00000000000E+00  0.00000000000E+00  0.10404489998E+03  0.10415100197E+03  0.47000000000E+01 0. -1.
         -5   -1    0    0    0  501 -0.00000000000E+00 -0.00000000000E+00 -0.40961822441E+03  0.40964518766E+03  0.47000000000E+01 0.  1.
          6    1    1    2  502    0  0.28184522246E+02 -0.10297506473E+03 -0.10194407401E+03  0.22666015414E+03  0.17200000000E+03 0. -1.
         -6    1    1    2    0  502 -0.28184522246E+02  0.10297506473E+03 -0.20362925042E+03  0.28713603549E+03  0.17200000000E+03 0.  1.
</event>
<event>
 4    1 -0.3240665E-004  0.1897553E+03  0.7818608E-02  0.1158682E+00
         -5   -1    0    0    0  501 -0.00000000000E+00  0.00000000000E+00  0.81745039388E+02  0.81880043140E+02  0.47000000000E+01 0.  1.
          5   -1    0    0  501    0  0.00000000000E+00 -0.00000000000E+00 -0.57646769903E+03  0.57648685850E+03  0.47000000000E+01 0. -1.
          6    1    1    2  502    0  0.24532771777E+01  0.80106448739E+02 -0.40752183655E+03  0.44953432457E+03  0.17200000000E+03 0.  1.
         -6    1    1    2    0  502 -0.24532771777E+01 -0.80106448739E+02 -0.87200823086E+02  0.20883257707E+03  0.17200000000E+03 0.  1.
</event>
<event>
 4    1 -0.3240665E-004  0.1842104E+03  0.7818608E-02  0.1163789E+00
          5   -1    0    0  501    0  0.00000000000E+00  0.00000000000E+00  0.63979081166E+02  0.64151483435E+02  0.47000000000E+01 0. -1.
         -5   -1    0    0    0  501 -0.00000000000E+00 -0.00000000000E+00 -0.18114813409E+04  0.18114874381E+04  0.47000000000E+01 0.  1.
          6    1    1    2  502    0 -0.57796820706E+02 -0.31764622131E+02 -0.16626530952E+04  0.16728265836E+04  0.17200000000E+03 0.  1.
         -6    1    1    2    0  502  0.57796820706E+02  0.31764622131E+02 -0.84849164483E+02  0.20281233793E+03  0.17200000000E+03 0. -1.
</event>
<event>
 4    1 -0.3240665E-004  0.2333241E+03  0.7818608E-02  0.1124322E+00
         -5   -1    0    0    0  501 -0.00000000000E+00  0.00000000000E+00  0.19538724647E+04  0.19538781175E+04  0.47000000000E+01 0.  1.
          5   -1    0    0  501    0  0.00000000000E+00 -0.00000000000E+00 -0.63764568154E+02  0.63937548842E+02  0.47000000000E+01 0. -1.
          6    1    1    2  502    0  0.15440975290E+03  0.31839896029E+02  0.18758711125E+03  0.29938115351E+03  0.17200000000E+03 0. -1.
         -6    1    1    2    0  502 -0.15440975290E+03 -0.31839896029E+02  0.17025207852E+04  0.17184345129E+04  0.17200000000E+03 0.  1.
</event>
<event>
 4    1 -0.3240665E-004  0.1788310E+03  0.7818608E-02  0.1168939E+00
         -5   -1    0    0    0  501 -0.00000000000E+00  0.00000000000E+00  0.82246783686E+02  0.82380965196E+02  0.47000000000E+01 0.  1.
          5   -1    0    0  501    0  0.00000000000E+00 -0.00000000000E+00 -0.47793605690E+03  0.47795916613E+03  0.47000000000E+01 0. -1.
          6    1    1    2  502    0  0.22006483047E+02  0.43729283811E+02 -0.31910909694E+03  0.36580206575E+03  0.17200000000E+03 0. -1.
         -6    1    1    2    0  502 -0.22006483047E+02 -0.43729283811E+02 -0.76580176279E+02  0.19453806558E+03  0.17200000000E+03 0.  1.
</event>
<event>
 4    1 -0.3240665E-004  0.3078324E+03  0.7818608E-02  0.1081390E+00
         -5   -1    0    0    0  501 -0.00000000000E+00  0.00000000000E+00  0.16268877255E+03  0.16275664876E+03  0.47000000000E+01 0.  1.
          5   -1    0    0  501    0  0.00000000000E+00 -0.00000000000E+00 -0.63792214579E+03  0.63793945958E+03  0.47000000000E+01 0. -1.
          6    1    1    2  502    0  0.25262007725E+03 -0.36876838063E+02 -0.35585919504E+03  0.47052797081E+03  0.17200000000E+03 0. -1.
         -6    1    1    2    0  502 -0.25262007725E+03  0.36876838063E+02 -0.11937417819E+03  0.33016813752E+03  0.17200000000E+03 0.  1.
</event>
<event>
 4    1 -0.3240665E-004  0.3044947E+03  0.7818608E-02  0.1083015E+00
         -5   -1    0    0    0  501 -0.00000000000E+00  0.00000000000E+00  0.35101177931E+03  0.35104324408E+03  0.47000000000E+01 0.  1.
          5   -1    0    0  501    0  0.00000000000E+00 -0.00000000000E+00 -0.30368210678E+03  0.30371847487E+03  0.47000000000E+01 0. -1.
          6    1    1    2  502    0 -0.17457676755E+02 -0.25065570147E+03 -0.94547552820E+02  0.31883583691E+03  0.17200000000E+03 0. -1.
         -6    1    1    2    0  502  0.17457676755E+02  0.25065570147E+03  0.14187722535E+03  0.33592588205E+03  0.17200000000E+03 0.  1.
</event>
<event>
 4    1 -0.3240665E-004  0.2521871E+03  0.7818608E-02  0.1111930E+00
         -5   -1    0    0    0  501 -0.00000000000E+00  0.00000000000E+00  0.22355077189E+03  0.22360017355E+03  0.47000000000E+01 0.  1.
          5   -1    0    0  501    0  0.00000000000E+00 -0.00000000000E+00 -0.47953530974E+03  0.47955834190E+03  0.47000000000E+01 0. -1.
          6    1    1    2  502    0 -0.10480611338E+03 -0.15175642582E+03 -0.35225341855E+03  0.43322142729E+03  0.17200000000E+03 0. -1.
         -6    1    1    2    0  502  0.10480611338E+03  0.15175642582E+03  0.96268880693E+02  0.26993708817E+03  0.17200000000E+03 0.  1.
</event>
<event>
 4    1 -0.3240665E-004  0.1738194E+03  0.7818608E-02  0.1173922E+00
          5   -1    0    0  501    0  0.00000000000E+00  0.00000000000E+00  0.95592292343E+02  0.95707765387E+02  0.47000000000E+01 0. -1.
         -5   -1    0    0    0  501 -0.00000000000E+00 -0.00000000000E+00 -0.33805373887E+03  0.33808640961E+03  0.47000000000E+01 0.  1.
          6    1    1    2  502    0  0.23415111752E+02  0.89944255301E+01 -0.65517219505E+02  0.18575702733E+03  0.17200000000E+03 0. -1.
         -6    1    1    2    0  502 -0.23415111752E+02 -0.89944255301E+01 -0.17694422702E+03  0.24803714767E+03  0.17200000000E+03 0.  1.
</event>
<event>
 4    1 -0.3240665E-004  0.1967387E+03  0.7818608E-02  0.1152520E+00
          5   -1    0    0  501    0  0.00000000000E+00  0.00000000000E+00  0.77125274974E+03  0.77126707046E+03  0.47000000000E+01 0. -1.
         -5   -1    0    0    0  501 -0.00000000000E+00 -0.00000000000E+00 -0.51776450601E+02  0.51989333876E+02  0.47000000000E+01 0.  1.
          6    1    1    2  502    0  0.75075987222E+02  0.59040074122E+02  0.43449262231E+03  0.47695908950E+03  0.17200000000E+03 0.  1.
         -6    1    1    2    0  502 -0.75075987222E+02 -0.59040074122E+02  0.28498367682E+03  0.34629731484E+03  0.17200000000E+03 0.  1.
</event>
<event>
 4    1 -0.3240665E-004  0.2310475E+03  0.7818608E-02  0.1125905E+00
         -5   -1    0    0    0  501 -0.00000000000E+00  0.00000000000E+00  0.55438723320E+03  0.55440715574E+03  0.47000000000E+01 0.  1.
          5   -1    0    0  501    0  0.00000000000E+00 -0.00000000000E+00 -0.10074825795E+03  0.10085782806E+03  0.47000000000E+01 0. -1.
          6    1    1    2  502    0 -0.92227307825E+01 -0.15399315333E+03  0.15734990848E+03  0.27953880542E+03  0.17200000000E+03 0. -1.
         -6    1    1    2    0  502  0.92227307825E+01  0.15399315333E+03  0.29628906676E+03  0.37572617838E+03  0.17200000000E+03 0.  1.
</event>
<event>
 4    1 -0.3240665E-004  0.2396310E+03  0.7818608E-02  0.1120039E+00
         -5   -1    0    0    0  501 -0.00000000000E+00  0.00000000000E+00  0.36120948504E+03  0.36124006157E+03  0.47000000000E+01 0.  1.
          5   -1    0    0  501    0  0.00000000000E+00 -0.00000000000E+00 -0.16132701617E+03  0.16139546507E+03  0.47000000000E+01 0. -1.
          6    1    1    2  502    0 -0.60835744896E+02 -0.15536423769E+03  0.67914376917E+02  0.24906906031E+03  0.17200000000E+03 0. -1.
         -6    1    1    2    0  502  0.60835744896E+02  0.15536423769E+03  0.13196809196E+03  0.27356646634E+03  0.17200000000E+03 0.  1.
</event>
<event>
 4    1 -0.3240665E-004  0.1777185E+03  0.7818608E-02  0.1170030E+00
         -5   -1    0    0    0  501 -0.00000000000E+00  0.00000000000E+00  0.23360759680E+03  0.23365487216E+03  0.47000000000E+01 0.  1.
          5   -1    0    0  501    0  0.00000000000E+00 -0.00000000000E+00 -0.30004105725E+03  0.30007786662E+03  0.47000000000E+01 0. -1.
          6    1    1    2  502    0  0.27866410813E+02 -0.34976127255E+02 -0.23104689592E+03  0.29149019613E+03  0.17200000000E+03 0. -1.
         -6    1    1    2    0  502 -0.27866410813E+02  0.34976127255E+02  0.16461343547E+03  0.24224254264E+03  0.17200000000E+03 0.  1.
</event>
<event>
 4    1 -0.3240665E-004  0.1970634E+03  0.7818608E-02  0.1152241E+00
         -5   -1    0    0    0  501 -0.00000000000E+00  0.00000000000E+00  0.19023225778E+03  0.19029030953E+03  0.47000000000E+01 0.  1.
          5   -1    0    0  501    0  0.00000000000E+00 -0.00000000000E+00 -0.35137331047E+03  0.35140474287E+03  0.47000000000E+01 0. -1.
          6    1    1    2  502    0  0.93230378192E+02  0.23623815772E+02 -0.25593952095E+03  0.32301552049E+03  0.17200000000E+03 0. -1.
         -6    1    1    2    0  502 -0.93230378192E+02 -0.23623815772E+02  0.94798468265E+02  0.21867953191E+03  0.17200000000E+03 0.  1.
</event>
<event>
 4    1 -0.3240665E-004  0.2058582E+03  0.7818608E-02  0.1144889E+00
          5   -1    0    0  501    0  0.00000000000E+00  0.00000000000E+00  0.14724128438E+03  0.14731627821E+03  0.47000000000E+01 0. -1.
         -5   -1    0    0    0  501 -0.00000000000E+00 -0.00000000000E+00 -0.28774145045E+03  0.28777983304E+03  0.47000000000E+01 0.  1.
          6    1    1    2  502    0  0.11286904197E+03 -0.73591907074E+01 -0.74274073948E+02  0.21884747287E+03  0.17200000000E+03 0.  1.
         -6    1    1    2    0  502 -0.11286904197E+03  0.73591907074E+01 -0.66226092119E+02  0.21624863838E+03  0.17200000000E+03 0.  1.
</event>
<event>
 4    1 -0.3240665E-004  0.2793466E+03  0.7818608E-02  0.1096046E+00
         -5   -1    0    0    0  501 -0.00000000000E+00  0.00000000000E+00  0.10509238712E+04  0.10509343810E+04  0.47000000000E+01 0.  1.
          5   -1    0    0  501    0  0.00000000000E+00 -0.00000000000E+00 -0.15168191729E+03  0.15175471667E+03  0.47000000000E+01 0. -1.
          6    1    1    2  502    0 -0.32994199019E+02 -0.21762792025E+03  0.19913672657E+02  0.28005550021E+03  0.17200000000E+03 0. -1.
         -6    1    1    2    0  502  0.32994199019E+02  0.21762792025E+03  0.87932828129E+03  0.92263359743E+03  0.17200000000E+03 0.  1.
</event>
<event>
 4    1 -0.3240665E-004  0.3213613E+03  0.7818608E-02  0.1075024E+00
         -5   -1    0    0    0  501 -0.00000000000E+00  0.00000000000E+00  0.12619273576E+03  0.12628023027E+03  0.47000000000E+01 0.  1.
          5   -1    0    0  501    0  0.00000000000E+00 -0.00000000000E+00 -0.96682439886E+03  0.96683582279E+03  0.47000000000E+01 0. -1.
          6    1    1    2  502    0 -0.13681355526E+03 -0.23445924613E+03 -0.63474310613E+03  0.71145758677E+03  0.17200000000E+03 0. -1.
         -6    1    1    2    0  502  0.13681355526E+03  0.23445924613E+03 -0.20588855697E+03  0.38165846629E+03  0.17200000000E+03 0.  1.
</event>
<event>
 4    1 -0.3240665E-004  0.2077486E+03  0.7818608E-02  0.1143361E+00
          5   -1    0    0  501    0  0.00000000000E+00  0.00000000000E+00  0.80294409323E+02  0.80431847974E+02  0.47000000000E+01 0. -1.
         -5   -1    0    0    0  501 -0.00000000000E+00 -0.00000000000E+00 -0.98770710092E+03  0.98771828332E+03  0.47000000000E+01 0.  1.
          6    1    1    2  502    0  0.11368197525E+03 -0.25532048565E+02 -0.92923367128E+02  0.22758345537E+03  0.17200000000E+03 0. -1.
         -6    1    1    2    0  502 -0.11368197525E+03  0.25532048565E+02 -0.81448932447E+03  0.84056667592E+03  0.17200000000E+03 0.  1.
</event>
<event>
 4    1 -0.3240665E-004  0.1895516E+03  0.7818608E-02  0.1158866E+00
          5   -1    0    0  501    0  0.00000000000E+00  0.00000000000E+00  0.22941675465E+03  0.22946489342E+03  0.47000000000E+01 0. -1.
         -5   -1    0    0    0  501 -0.00000000000E+00 -0.00000000000E+00 -0.17451796005E+03  0.17458123719E+03  0.47000000000E+01 0.  1.
          6    1    1    2  502    0 -0.72623397636E+02  0.32736247276E+02  0.92316259286E+02  0.21083669391E+03  0.17200000000E+03 0. -1.
         -6    1    1    2    0  502  0.72623397636E+02 -0.32736247276E+02 -0.37417464685E+02  0.19320943671E+03  0.17200000000E+03 0.  1.
</event>
<event>
 4    1 -0.3240665E-004  0.2064331E+03  0.7818608E-02  0.1144422E+00
         -5   -1    0    0    0  501 -0.00000000000E+00  0.00000000000E+00  0.22891891825E+03  0.22896716169E+03  0.47000000000E+01 0.  1.
          5   -1    0    0  501    0  0.00000000000E+00 -0.00000000000E+00 -0.20219332581E+03  0.20224794437E+03  0.47000000000E+01 0. -1.
          6    1    1    2  502    0  0.11015564201E+03 -0.29938923483E+02 -0.47528007440E+02  0.21183369915E+03  0.17200000000E+03 0.  1.
         -6    1    1    2    0  502 -0.11015564201E+03  0.29938923483E+02  0.74253599880E+02  0.21938140692E+03  0.17200000000E+03 0.  1.
</event>
<event>
 4    1 -0.3240665E-004  0.2715423E+03  0.7818608E-02  0.1100400E+00
         -5   -1    0    0    0  501 -0.00000000000E+00  0.00000000000E+00  0.13074591392E+04  0.13074675868E+04  0.47000000000E+01 0.  1.
          5   -1    0    0  501    0  0.00000000000E+00 -0.00000000000E+00 -0.76110511526E+02  0.76255491375E+02  0.47000000000E+01 0. -1.
          6    1    1    2  502    0  0.79141987386E+02 -0.19464786839E+03  0.26301724996E+03  0.37803878189E+03  0.17200000000E+03 0.  1.
         -6    1    1    2    0  502 -0.79141987386E+02  0.19464786839E+03  0.96833137768E+03  0.10056842963E+04  0.17200000000E+03 0.  1.
</event>
<event>
 4    1 -0.3240665E-004  0.1918954E+03  0.7818608E-02  0.1156763E+00
         -5   -1    0    0    0  501 -0.00000000000E+00  0.00000000000E+00  0.22001780987E+03  0.22006800463E+03  0.47000000000E+01 0.  1.
          5   -1    0    0  501    0  0.00000000000E+00 -0.00000000000E+00 -0.18760597315E+03  0.18766483731E+03  0.47000000000E+01 0. -1.
          6    1    1    2  502    0 -0.18102142680E+02  0.83139440374E+02  0.83313963624E+02  0.20920102928E+03  0.17200000000E+03 0.  1.
         -6    1    1    2    0  502  0.18102142680E+02 -0.83139440374E+02 -0.50902126907E+02  0.19853181266E+03  0.17200000000E+03 0. -1.
</event>
<event>
 4    1 -0.3240665E-004  0.2517423E+03  0.7818608E-02  0.1112209E+00
          5   -1    0    0  501    0  0.00000000000E+00  0.00000000000E+00  0.16411694693E+03  0.16418423270E+03  0.47000000000E+01 0. -1.
         -5   -1    0    0    0  501 -0.00000000000E+00 -0.00000000000E+00 -0.59158473034E+03  0.59160340024E+03  0.47000000000E+01 0.  1.
          6    1    1    2  502    0 -0.17838316749E+02 -0.18295344995E+03  0.90234639320E+01  0.25190393664E+03  0.17200000000E+03 0.  1.
         -6    1    1    2    0  502  0.17838316749E+02  0.18295344995E+03 -0.43649124735E+03  0.50388369631E+03  0.17200000000E+03 0. -1.
</event>
<event>
 4    1 -0.3240665E-004  0.1963207E+03  0.7818608E-02  0.1152881E+00
         -5   -1    0    0    0  501 -0.00000000000E+00  0.00000000000E+00  0.91156092152E+02  0.91277177523E+02  0.47000000000E+01 0.  1.
          5   -1    0    0  501    0  0.00000000000E+00 -0.00000000000E+00 -0.45965573041E+03  0.45967975863E+03  0.47000000000E+01 0. -1.
          6    1    1    2  502    0  0.56923102048E+02 -0.75614787411E+02 -0.10583131216E+03  0.22302937532E+03  0.17200000000E+03 0.  1.
         -6    1    1    2    0  502 -0.56923102048E+02  0.75614787411E+02 -0.26266832610E+03  0.32792756084E+03  0.17200000000E+03 0.  1.
</event>
<event>
 4    1 -0.3240665E-004  0.2160960E+03  0.7818608E-02  0.1136828E+00
          5   -1    0    0  501    0  0.00000000000E+00  0.00000000000E+00  0.15067603709E+03  0.15074932223E+03  0.47000000000E+01 0. -1.
         -5   -1    0    0    0  501 -0.00000000000E+00 -0.00000000000E+00 -0.38050270418E+03  0.38053173046E+03  0.47000000000E+01 0.  1.
          6    1    1    2  502    0  0.12564599736E+03 -0.36422090415E+02 -0.22944260936E+03  0.31518470190E+03  0.17200000000E+03 0.  1.
         -6    1    1    2    0  502 -0.12564599736E+03  0.36422090415E+02 -0.38405772842E+00  0.21609635078E+03  0.17200000000E+03 0. -1.
</event>
<event>
 4    1 -0.3240665E-004  0.2636291E+03  0.7818608E-02  0.1104982E+00
         -5   -1    0    0    0  501 -0.00000000000E+00  0.00000000000E+00  0.11099320869E+03  0.11109267472E+03  0.47000000000E+01 0.  1.
          5   -1    0    0  501    0  0.00000000000E+00 -0.00000000000E+00 -0.74387768396E+03  0.74389253169E+03  0.47000000000E+01 0. -1.
          6    1    1    2  502    0  0.12474018416E+03 -0.15606463335E+03 -0.48676314638E+03  0.55356900563E+03  0.17200000000E+03 0. -1.
         -6    1    1    2    0  502 -0.12474018416E+03  0.15606463335E+03 -0.14612132890E+03  0.30141620077E+03  0.17200000000E+03 0.  1.
</event>
<event>
 4    1 -0.3240665E-004  0.2552119E+03  0.7818608E-02  0.1110055E+00
          5   -1    0    0  501    0  0.00000000000E+00  0.00000000000E+00  0.69778673484E+03  0.69780256328E+03  0.47000000000E+01 0. -1.
         -5   -1    0    0    0  501 -0.00000000000E+00 -0.00000000000E+00 -0.13740918809E+03  0.13748954495E+03  0.47000000000E+01 0.  1.
          6    1    1    2  502    0  0.18661951223E+03 -0.26875480748E+02  0.51680711495E+03  0.57638765416E+03  0.17200000000E+03 0. -1.
         -6    1    1    2    0  502 -0.18661951223E+03  0.26875480748E+02  0.43570431804E+02  0.25890445407E+03  0.17200000000E+03 0.  1.
</event>
<event>
 4    1 -0.3240665E-004  0.2816223E+03  0.7818608E-02  0.1094806E+00
          5   -1    0    0  501    0  0.00000000000E+00  0.00000000000E+00  0.17223072398E+03  0.17229484113E+03  0.47000000000E+01 0. -1.
         -5   -1    0    0    0  501 -0.00000000000E+00 -0.00000000000E+00 -0.83791396019E+03  0.83792714163E+03  0.47000000000E+01 0.  1.
          6    1    1    2  502    0 -0.40829216342E+02 -0.21922608023E+03  0.62144892301E+01  0.28169082172E+03  0.17200000000E+03 0. -1.
         -6    1    1    2    0  502  0.40829216342E+02  0.21922608023E+03 -0.67189772544E+03  0.72853116105E+03  0.17200000000E+03 0.  1.
</event>
<event>
 4    1 -0.3240665E-004  0.1958157E+03  0.7818608E-02  0.1153318E+00
          5   -1    0    0  501    0  0.00000000000E+00  0.00000000000E+00  0.17145434418E+03  0.17151875157E+03  0.47000000000E+01 0. -1.
         -5   -1    0    0    0  501 -0.00000000000E+00 -0.00000000000E+00 -0.28903322079E+03  0.28907143187E+03  0.47000000000E+01 0.  1.
          6    1    1    2  502    0  0.71362767165E+02  0.60557066579E+02 -0.16842099582E+03  0.25828169638E+03  0.17200000000E+03 0.  1.
         -6    1    1    2    0  502 -0.71362767165E+02 -0.60557066579E+02  0.50842119214E+02  0.20230848706E+03  0.17200000000E+03 0. -1.
</event>
<event>
 4    1 -0.3240665E-004  0.2182129E+03  0.7818608E-02  0.1135222E+00
          5   -1    0    0  501    0  0.00000000000E+00  0.00000000000E+00  0.94536351757E+03  0.94537520084E+03  0.47000000000E+01 0. -1.
         -5   -1    0    0    0  501 -0.00000000000E+00 -0.00000000000E+00 -0.54136974632E+02  0.54340611170E+02  0.47000000000E+01 0.  1.
          6    1    1    2  502    0 -0.10103115475E+03  0.88462308709E+02  0.31190169129E+03  0.38065672110E+03  0.17200000000E+03 0.  1.
         -6    1    1    2    0  502  0.10103115475E+03 -0.88462308709E+02  0.57932485165E+03  0.61905909090E+03  0.17200000000E+03 0. -1.
</event>
<event>
 4    1 -0.3240665E-004  0.2547999E+03  0.7818608E-02  0.1110308E+00
         -5   -1    0    0    0  501 -0.00000000000E+00  0.00000000000E+00  0.69533967085E+03  0.69535555499E+03  0.47000000000E+01 0.  1.
          5   -1    0    0  501    0  0.00000000000E+00 -0.00000000000E+00 -0.30876453960E+03  0.30880030912E+03  0.47000000000E+01 0. -1.
          6    1    1    2  502    0 -0.18361965762E+03 -0.40283868542E+02 -0.22607285273E+03  0.34063456001E+03  0.17200000000E+03 0. -1.
         -6    1    1    2    0  502  0.18361965762E+03  0.40283868542E+02  0.61264798398E+03  0.66352130411E+03  0.17200000000E+03 0.  1.
</event>
<event>
 4    1 -0.3240665E-004  0.3331517E+03  0.7818608E-02  0.1069751E+00
         -5   -1    0    0    0  501 -0.00000000000E+00  0.00000000000E+00  0.23788997764E+03  0.23793640214E+03  0.47000000000E+01 0.  1.
          5   -1    0    0  501    0  0.00000000000E+00 -0.00000000000E+00 -0.47703276122E+03  0.47705591420E+03  0.47000000000E+01 0. -1.
          6    1    1    2  502    0  0.27608296609E+03 -0.72001850495E+02 -0.66345023420E+02  0.33969358659E+03  0.17200000000E+03 0. -1.
         -6    1    1    2    0  502 -0.27608296609E+03  0.72001850495E+02 -0.17279776016E+03  0.37529872975E+03  0.17200000000E+03 0.  1.
</event>
<event>
 4    1 -0.3240665E-004  0.1881650E+03  0.7818608E-02  0.1160127E+00
         -5   -1    0    0    0  501 -0.00000000000E+00  0.00000000000E+00  0.14088035237E+03  0.14095873042E+03  0.47000000000E+01 0.  1.
          5   -1    0    0  501    0  0.00000000000E+00 -0.00000000000E+00 -0.26632687247E+03  0.26636834084E+03  0.47000000000E+01 0. -1.
          6    1    1    2  502    0 -0.75994718106E+02  0.68466746855E+01 -0.11133033764E+03  0.21863329622E+03  0.17200000000E+03 0. -1.
         -6    1    1    2    0  502  0.75994718106E+02 -0.68466746855E+01 -0.14116182462E+02  0.18869377505E+03  0.17200000000E+03 0.  1.
</event>
<event>
 4    1 -0.3240665E-004  0.1942267E+03  0.7818608E-02  0.1154703E+00
          5   -1    0    0  501    0  0.00000000000E+00  0.00000000000E+00  0.35408736138E+02  0.35719302833E+02  0.47000000000E+01 0. -1.
         -5   -1    0    0    0  501 -0.00000000000E+00 -0.00000000000E+00 -0.11481048882E+04  0.11481145083E+04  0.47000000000E+01 0.  1.
          6    1    1    2  502    0 -0.24823680250E+02  0.86739836496E+02 -0.71990641587E+03  0.74564687483E+03  0.17200000000E+03 0.  1.
         -6    1    1    2    0  502  0.24823680250E+02 -0.86739836496E+02 -0.39278973615E+03  0.43818693632E+03  0.17200000000E+03 0. -1.
</event>
<event>
 4    1 -0.3240665E-004  0.2626398E+03  0.7818608E-02  0.1105567E+00
          5   -1    0    0  501    0  0.00000000000E+00  0.00000000000E+00  0.40574596376E+03  0.40577318431E+03  0.47000000000E+01 0. -1.
         -5   -1    0    0    0  501 -0.00000000000E+00 -0.00000000000E+00 -0.50957404572E+03  0.50959572023E+03  0.47000000000E+01 0.  1.
          6    1    1    2  502    0 -0.18455940990E+03 -0.73030694618E+02  0.32171191250E+03  0.41530496359E+03  0.17200000000E+03 0. -1.
         -6    1    1    2    0  502  0.18455940990E+03  0.73030694618E+02 -0.42553999447E+03  0.50006394094E+03  0.17200000000E+03 0.  1.
</event>
<event>
 4    1 -0.3240665E-004  0.2124320E+03  0.7818608E-02  0.1139654E+00
          5   -1    0    0  501    0  0.00000000000E+00  0.00000000000E+00  0.13822710179E+03  0.13830698344E+03  0.47000000000E+01 0. -1.
         -5   -1    0    0    0  501 -0.00000000000E+00 -0.00000000000E+00 -0.64722942673E+03  0.64724649156E+03  0.47000000000E+01 0.  1.
          6    1    1    2  502    0  0.11477468043E+03  0.48683968444E+02  0.22064727025E+02  0.21357483051E+03  0.17200000000E+03 0. -1.
         -6    1    1    2    0  502 -0.11477468043E+03 -0.48683968444E+02 -0.53106705197E+03  0.57197864448E+03  0.17200000000E+03 0.  1.
</event>
<event>
 4    1 -0.3240665E-004  0.2044628E+03  0.7818608E-02  0.1146027E+00
          5   -1    0    0  501    0  0.00000000000E+00  0.00000000000E+00  0.10943574550E+03  0.10953662581E+03  0.47000000000E+01 0. -1.
         -5   -1    0    0    0  501 -0.00000000000E+00 -0.00000000000E+00 -0.38753430384E+03  0.38756280350E+03  0.47000000000E+01 0.  1.
          6    1    1    2  502    0  0.89372857224E+02  0.65065502429E+02 -0.10859399824E+03  0.23151173549E+03  0.17200000000E+03 0. -1.
         -6    1    1    2    0  502 -0.89372857224E+02 -0.65065502429E+02 -0.16950456010E+03  0.26558769382E+03  0.17200000000E+03 0.  1.
</event>
<event>
 4    1 -0.3240665E-004  0.3303843E+03  0.7818608E-02  0.1070967E+00
          5   -1    0    0  501    0  0.00000000000E+00  0.00000000000E+00  0.72070599969E+03  0.72072132477E+03  0.47000000000E+01 0. -1.
         -5   -1    0    0    0  501 -0.00000000000E+00 -0.00000000000E+00 -0.17761970935E+03  0.17768188189E+03  0.47000000000E+01 0.  1.
          6    1    1    2  502    0  0.22283274793E+03  0.17296061816E+03  0.44408854300E+03  0.55350559438E+03  0.17200000000E+03 0. -1.
         -6    1    1    2    0  502 -0.22283274793E+03 -0.17296061816E+03  0.98997747331E+02  0.34489761228E+03  0.17200000000E+03 0.  1.
</event>
<event>
 4    1 -0.3240665E-004  0.2850959E+03  0.7818608E-02  0.1092938E+00
         -5   -1    0    0    0  501 -0.00000000000E+00  0.00000000000E+00  0.12792415706E+03  0.12801046816E+03  0.47000000000E+01 0.  1.
          5   -1    0    0  501    0  0.00000000000E+00 -0.00000000000E+00 -0.65521442197E+03  0.65523127883E+03  0.47000000000E+01 0. -1.
          6    1    1    2  502    0  0.16008003734E+03 -0.16146215689E+03 -0.33231675023E+03  0.43785165176E+03  0.17200000000E+03 0. -1.
         -6    1    1    2    0  502 -0.16008003734E+03  0.16146215689E+03 -0.19497351468E+03  0.34539009524E+03  0.17200000000E+03 0.  1.
</event>
<event>
 4    1 -0.3240665E-004  0.4042056E+03  0.7818608E-02  0.1042333E+00
         -5   -1    0    0    0  501 -0.00000000000E+00  0.00000000000E+00  0.33638678373E+03  0.33641961636E+03  0.47000000000E+01 0.  1.
          5   -1    0    0  501    0  0.00000000000E+00 -0.00000000000E+00 -0.48850441036E+03  0.48852701966E+03  0.47000000000E+01 0. -1.
          6    1    1    2  502    0  0.13081764168E+03 -0.34159170363E+03 -0.10770040500E+03  0.41830793036E+03  0.17200000000E+03 0. -1.
         -6    1    1    2    0  502 -0.13081764168E+03  0.34159170363E+03 -0.44417221628E+02  0.40663870566E+03  0.17200000000E+03 0.  1.
</event>
<event>
 4    1 -0.3240665E-004  0.2011557E+03  0.7818608E-02  0.1148768E+00
          5   -1    0    0  501    0  0.00000000000E+00  0.00000000000E+00  0.33127829702E+03  0.33131163589E+03  0.47000000000E+01 0. -1.
         -5   -1    0    0    0  501 -0.00000000000E+00 -0.00000000000E+00 -0.26344090904E+03  0.26348283161E+03  0.47000000000E+01 0.  1.
          6    1    1    2  502    0 -0.26242921306E+01  0.10427234444E+03  0.25174483090E+03  0.32224069981E+03  0.17200000000E+03 0. -1.
         -6    1    1    2    0  502  0.26242921306E+01 -0.10427234444E+03 -0.18390744292E+03  0.27255376770E+03  0.17200000000E+03 0.  1.
</event>
<event>
 4    1 -0.3240665E-004  0.2083147E+03  0.7818608E-02  0.1142908E+00
          5   -1    0    0  501    0  0.00000000000E+00  0.00000000000E+00  0.16492389180E+03  0.16499084849E+03  0.47000000000E+01 0. -1.
         -5   -1    0    0    0  501 -0.00000000000E+00 -0.00000000000E+00 -0.31738786298E+03  0.31742266076E+03  0.47000000000E+01 0.  1.
          6    1    1    2  502    0  0.85563005931E+02  0.80560372575E+02  0.23619146871E+02  0.20964938758E+03  0.17200000000E+03 0. -1.
         -6    1    1    2    0  502 -0.85563005931E+02 -0.80560372575E+02 -0.17608311805E+03  0.27276412168E+03  0.17200000000E+03 0.  1.
</event>
<event>
 4    1 -0.3240665E-004  0.2903535E+03  0.7818608E-02  0.1090165E+00
          5   -1    0    0  501    0  0.00000000000E+00  0.00000000000E+00  0.55432674420E+03  0.55434666892E+03  0.47000000000E+01 0. -1.
         -5   -1    0    0    0  501 -0.00000000000E+00 -0.00000000000E+00 -0.26658996275E+03  0.26663139020E+03  0.47000000000E+01 0.  1.
          6    1    1    2  502    0 -0.13536260484E+03  0.19078284056E+03  0.41292258825E+03  0.50478727294E+03  0.17200000000E+03 0. -1.
         -6    1    1    2    0  502  0.13536260484E+03 -0.19078284056E+03 -0.12518580680E+03  0.31619078618E+03  0.17200000000E+03 0.  1.
</event>
<event>
 4    1 -0.3240665E-004  0.7943748E+03  0.7818608E-02  0.9568195E-01
         -5   -1    0    0    0  501 -0.00000000000E+00  0.00000000000E+00  0.21525017720E+04  0.21525069033E+04  0.47000000000E+01 0.  1.
          5   -1    0    0  501    0  0.00000000000E+00 -0.00000000000E+00 -0.34719286504E+03  0.34722467587E+03  0.47000000000E+01 0. -1.
          6    1    1    2  502    0  0.57427144227E+03 -0.52120984317E+03  0.40951205211E+03  0.89371780269E+03  0.17200000000E+03 0. -1.
         -6    1    1    2    0  502 -0.57427144227E+03  0.52120984317E+03  0.13957968549E+04  0.16060137764E+04  0.17200000000E+03 0.  1.
</event>
<event>
 4    1 -0.3240665E-004  0.2734337E+03  0.7818608E-02  0.1099330E+00
          5   -1    0    0  501    0  0.00000000000E+00  0.00000000000E+00  0.19401074584E+04  0.19401131514E+04  0.47000000000E+01 0. -1.
         -5   -1    0    0    0  501 -0.00000000000E+00 -0.00000000000E+00 -0.62319449239E+02  0.62496429925E+02  0.47000000000E+01 0.  1.
          6    1    1    2  502    0 -0.20798747024E+03  0.43854446861E+02  0.15582113534E+04  0.15820204240E+04  0.17200000000E+03 0. -1.
         -6    1    1    2    0  502  0.20798747024E+03 -0.43854446861E+02  0.31957665581E+03  0.42058915729E+03  0.17200000000E+03 0.  1.
</event>
<event>
 4    1 -0.3240665E-004  0.2209218E+03  0.7818608E-02  0.1133198E+00
         -5   -1    0    0    0  501 -0.00000000000E+00  0.00000000000E+00  0.10549037379E+04  0.10549142080E+04  0.47000000000E+01 0.  1.
          5   -1    0    0  501    0  0.00000000000E+00 -0.00000000000E+00 -0.55925539193E+02  0.56122686447E+02  0.47000000000E+01 0. -1.
          6    1    1    2  502    0  0.13358899578E+03 -0.37100191591E+02  0.26754374985E+03  0.34696700433E+03  0.17200000000E+03 0.  1.
         -6    1    1    2    0  502 -0.13358899578E+03  0.37100191591E+02  0.73143444885E+03  0.76406989011E+03  0.17200000000E+03 0.  1.
</event>
<event>
 4    1 -0.3240665E-004  0.1822460E+03  0.7818608E-02  0.1165647E+00
         -5   -1    0    0    0  501 -0.00000000000E+00  0.00000000000E+00  0.43345994508E+02  0.43600060090E+02  0.47000000000E+01 0.  1.
          5   -1    0    0  501    0  0.00000000000E+00 -0.00000000000E+00 -0.79526875646E+03  0.79528264473E+03  0.47000000000E+01 0. -1.
          6    1    1    2  502    0  0.54715344455E+02 -0.25215592381E+02 -0.45945850331E+03  0.49428302750E+03  0.17200000000E+03 0.  1.
         -6    1    1    2    0  502 -0.54715344455E+02  0.25215592381E+02 -0.29246425865E+03  0.34459967731E+03  0.17200000000E+03 0.  1.
</event>
<event>
 4    1 -0.3240665E-004  0.2415848E+03  0.7818608E-02  0.1118742E+00
          5   -1    0    0  501    0  0.00000000000E+00  0.00000000000E+00  0.32208198695E+03  0.32211627763E+03  0.47000000000E+01 0. -1.
         -5   -1    0    0    0  501 -0.00000000000E+00 -0.00000000000E+00 -0.19001999082E+03  0.19007810739E+03  0.47000000000E+01 0.  1.
          6    1    1    2  502    0 -0.14383078556E+03  0.89955096656E+02  0.12140527970E+03  0.27037465900E+03  0.17200000000E+03 0. -1.
         -6    1    1    2    0  502  0.14383078556E+03 -0.89955096656E+02  0.10656716433E+02  0.24181972603E+03  0.17200000000E+03 0.  1.
</event>
<event>
 4    1 -0.3240665E-004  0.4947932E+03  0.7818608E-02  0.1015147E+00
          5   -1    0    0  501    0  0.00000000000E+00  0.00000000000E+00  0.14312248745E+04  0.14312325916E+04  0.47000000000E+01 0. -1.
         -5   -1    0    0    0  501 -0.00000000000E+00 -0.00000000000E+00 -0.20145579440E+03  0.20151061286E+03  0.47000000000E+01 0.  1.
          6    1    1    2  502    0 -0.40268014050E+03  0.23040189866E+03  0.93216687741E+03  0.10553461128E+04  0.17200000000E+03 0. -1.
         -6    1    1    2    0  502  0.40268014050E+03 -0.23040189866E+03  0.29760220269E+03  0.57739709170E+03  0.17200000000E+03 0.  1.
</event>
<event>
 4    1 -0.3240665E-004  0.6081320E+03  0.7818608E-02  0.9888677E-01
         -5   -1    0    0    0  501 -0.00000000000E+00  0.00000000000E+00  0.10011401407E+04  0.10011511730E+04  0.47000000000E+01 0.  1.
          5   -1    0    0  501    0  0.00000000000E+00 -0.00000000000E+00 -0.38092646947E+03  0.38095546347E+03  0.47000000000E+01 0. -1.
          6    1    1    2  502    0 -0.26965596206E+03  0.51722939662E+03  0.43043826277E+03  0.74505146443E+03  0.17200000000E+03 0. -1.
         -6    1    1    2    0  502  0.26965596206E+03 -0.51722939662E+03  0.18977540843E+03  0.63705517206E+03  0.17200000000E+03 0.  1.
</event>
<event>
 4    1 -0.3240665E-004  0.1805620E+03  0.7818608E-02  0.1167260E+00
         -5   -1    0    0    0  501 -0.00000000000E+00  0.00000000000E+00  0.69426479427E+02  0.69585386724E+02  0.47000000000E+01 0.  1.
          5   -1    0    0  501    0  0.00000000000E+00 -0.00000000000E+00 -0.51861752040E+03  0.51863881697E+03  0.47000000000E+01 0. -1.
          6    1    1    2  502    0 -0.53563157482E+02  0.12231765404E+02 -0.31565052874E+03  0.36364527251E+03  0.17200000000E+03 0. -1.
         -6    1    1    2    0  502  0.53563157482E+02 -0.12231765404E+02 -0.13354051224E+03  0.22457893119E+03  0.17200000000E+03 0.  1.
</event>
<event>
 4    1 -0.3240665E-004  0.2864645E+03  0.7818608E-02  0.1092210E+00
         -5   -1    0    0    0  501 -0.00000000000E+00  0.00000000000E+00  0.82807943789E+03  0.82809277588E+03  0.47000000000E+01 0.  1.
          5   -1    0    0  501    0  0.00000000000E+00 -0.00000000000E+00 -0.11596634879E+03  0.11606155286E+03  0.47000000000E+01 0. -1.
          6    1    1    2  502    0 -0.18536494191E+03 -0.13460209325E+03  0.17573440260E+03  0.33607211347E+03  0.17200000000E+03 0. -1.
         -6    1    1    2    0  502  0.18536494191E+03  0.13460209325E+03  0.53637868649E+03  0.60808221526E+03  0.17200000000E+03 0.  1.
</event>
<event>
 4    1 -0.3240665E-004  0.2868659E+03  0.7818608E-02  0.1091997E+00
          5   -1    0    0  501    0  0.00000000000E+00  0.00000000000E+00  0.39785281702E+03  0.39788057758E+03  0.47000000000E+01 0. -1.
         -5   -1    0    0    0  501 -0.00000000000E+00 -0.00000000000E+00 -0.38742375190E+03  0.38745225968E+03  0.47000000000E+01 0.  1.
          6    1    1    2  502    0  0.43591512723E+02 -0.22540594329E+03  0.27331962771E+03  0.39622680139E+03  0.17200000000E+03 0. -1.
         -6    1    1    2    0  502 -0.43591512723E+02  0.22540594329E+03 -0.26289056258E+03  0.38910603587E+03  0.17200000000E+03 0.  1.
</event>
<event>
 4    1 -0.3240665E-004  0.1760130E+03  0.7818608E-02  0.1171718E+00
          5   -1    0    0  501    0  0.00000000000E+00  0.00000000000E+00  0.94235918511E+02  0.94353051554E+02  0.47000000000E+01 0. -1.
         -5   -1    0    0    0  501 -0.00000000000E+00 -0.00000000000E+00 -0.39394257432E+03  0.39397061040E+03  0.47000000000E+01 0.  1.
          6    1    1    2  502    0 -0.15584873289E+02 -0.33965946154E+02 -0.50293507272E+02  0.18305739714E+03  0.17200000000E+03 0. -1.
         -6    1    1    2    0  502  0.15584873289E+02  0.33965946154E+02 -0.24941314854E+03  0.30526626482E+03  0.17200000000E+03 0.  1.
</event>
<event>
 4    1 -0.3240665E-004  0.2095264E+03  0.7818608E-02  0.1141942E+00
         -5   -1    0    0    0  501 -0.00000000000E+00  0.00000000000E+00  0.28929462915E+02  0.29308767026E+02  0.47000000000E+01 0.  1.
          5   -1    0    0  501    0  0.00000000000E+00 -0.00000000000E+00 -0.15163974431E+04  0.15164047268E+04  0.47000000000E+01 0. -1.
          6    1    1    2  502    0  0.42844731915E+02  0.11172134630E+03 -0.80370858177E+03  0.83057137844E+03  0.17200000000E+03 0.  1.
         -6    1    1    2    0  502 -0.42844731915E+02 -0.11172134630E+03 -0.68375939844E+03  0.71514211540E+03  0.17200000000E+03 0.  1.
</event>
<event>
 4    1 -0.3240665E-004  0.3661477E+03  0.7818608E-02  0.1056176E+00
         -5   -1    0    0    0  501 -0.00000000000E+00  0.00000000000E+00  0.32838829376E+03  0.32842192600E+03  0.47000000000E+01 0.  1.
          5   -1    0    0  501    0  0.00000000000E+00 -0.00000000000E+00 -0.51257886571E+03  0.51260041316E+03  0.47000000000E+01 0. -1.
          6    1    1    2  502    0 -0.28703521544E+03  0.14863015656E+03 -0.28186151915E+03  0.46207148183E+03  0.17200000000E+03 0. -1.
         -6    1    1    2    0  502  0.28703521544E+03 -0.14863015656E+03  0.97670947204E+02  0.37895085733E+03  0.17200000000E+03 0.  1.
</event>
<event>
 4    1 -0.3240665E-004  0.2463289E+03  0.7818608E-02  0.1115647E+00
         -5   -1    0    0    0  501 -0.00000000000E+00  0.00000000000E+00  0.19509599565E+02  0.20067747138E+02  0.47000000000E+01 0.  1.
          5   -1    0    0  501    0  0.00000000000E+00 -0.00000000000E+00 -0.31345176575E+04  0.31345211811E+04  0.47000000000E+01 0. -1.
          6    1    1    2  502    0  0.17575195295E+03 -0.14324864400E+02 -0.13238778905E+04  0.13465996508E+04  0.17200000000E+03 0.  1.
         -6    1    1    2    0  502 -0.17575195295E+03  0.14324864400E+02 -0.17911301675E+04  0.18079892775E+04  0.17200000000E+03 0.  1.
</event>
<event>
 4    1 -0.3240665E-004  0.2494469E+03  0.7818608E-02  0.1113655E+00
          5   -1    0    0  501    0  0.00000000000E+00  0.00000000000E+00  0.42208899976E+03  0.42211516641E+03  0.47000000000E+01 0. -1.
         -5   -1    0    0    0  501 -0.00000000000E+00 -0.00000000000E+00 -0.17828765143E+03  0.17834959112E+03  0.47000000000E+01 0.  1.
          6    1    1    2  502    0 -0.92028381189E+02 -0.15546873147E+03  0.24693317884E+03  0.35099821113E+03  0.17200000000E+03 0.  1.
         -6    1    1    2    0  502  0.92028381189E+02  0.15546873147E+03 -0.31318305106E+01  0.24946654640E+03  0.17200000000E+03 0.  1.
</event>
<event>
 4    1 -0.3240665E-004  0.3181357E+03  0.7818608E-02  0.1076511E+00
          5   -1    0    0  501    0  0.00000000000E+00  0.00000000000E+00  0.35019130033E+03  0.35022283881E+03  0.47000000000E+01 0. -1.
         -5   -1    0    0    0  501 -0.00000000000E+00 -0.00000000000E+00 -0.31797078617E+03  0.31800552017E+03  0.47000000000E+01 0.  1.
          6    1    1    2  502    0 -0.63476480850E+02  0.25999439215E+03  0.11703636465E+03  0.33898061629E+03  0.17200000000E+03 0. -1.
         -6    1    1    2    0  502  0.63476480850E+02 -0.25999439215E+03 -0.84815850497E+02  0.32924774269E+03  0.17200000000E+03 0. -1.
</event>
<event>
 4    1 -0.3240665E-004  0.3153504E+03  0.7818608E-02  0.1077809E+00
          5   -1    0    0  501    0  0.00000000000E+00  0.00000000000E+00  0.47845413202E+03  0.47847721622E+03  0.47000000000E+01 0. -1.
         -5   -1    0    0    0  501 -0.00000000000E+00 -0.00000000000E+00 -0.29836382148E+03  0.29840083775E+03  0.47000000000E+01 0.  1.
          6    1    1    2  502    0  0.20953366983E+03 -0.16111340687E+03  0.30403480338E+03  0.43804457574E+03  0.17200000000E+03 0. -1.
         -6    1    1    2    0  502 -0.20953366983E+03  0.16111340687E+03 -0.12394449285E+03  0.33883347823E+03  0.17200000000E+03 0.  1.
</event>
<event>
 4    1 -0.3240665E-004  0.1820645E+03  0.7818608E-02  0.1165820E+00
         -5   -1    0    0    0  501 -0.00000000000E+00  0.00000000000E+00  0.63360514204E+02  0.63534594987E+02  0.47000000000E+01 0.  1.
          5   -1    0    0  501    0  0.00000000000E+00 -0.00000000000E+00 -0.58267134925E+03  0.58269030473E+03  0.47000000000E+01 0. -1.
          6    1    1    2  502    0 -0.54964950834E+02  0.23287993449E+02 -0.36368316316E+03  0.40670987156E+03  0.17200000000E+03 0. -1.
         -6    1    1    2    0  502  0.54964950834E+02 -0.23287993449E+02 -0.15562767188E+03  0.23951502816E+03  0.17200000000E+03 0.  1.
</event>
<event>
 4    1 -0.3240665E-004  0.4227648E+03  0.7818608E-02  0.1036170E+00
          5   -1    0    0  501    0  0.00000000000E+00  0.00000000000E+00  0.34191080918E+03  0.34194311140E+03  0.47000000000E+01 0. -1.
         -5   -1    0    0    0  501 -0.00000000000E+00 -0.00000000000E+00 -0.53823013138E+03  0.53825065195E+03  0.47000000000E+01 0.  1.
          6    1    1    2  502    0  0.27482617332E+03 -0.27132382475E+03 -0.17298217434E+03  0.45678537198E+03  0.17200000000E+03 0. -1.
         -6    1    1    2    0  502 -0.27482617332E+03  0.27132382475E+03 -0.23337147865E+02  0.42340839138E+03  0.17200000000E+03 0.  1.
</event>
<event>
 4    1 -0.3240665E-004  0.2355671E+03  0.7818608E-02  0.1122782E+00
         -5   -1    0    0    0  501 -0.00000000000E+00  0.00000000000E+00  0.13220960070E+04  0.13221043611E+04  0.47000000000E+01 0.  1.
          5   -1    0    0  501    0  0.00000000000E+00 -0.00000000000E+00 -0.76577170737E+02  0.76721268746E+02  0.47000000000E+01 0. -1.
          6    1    1    2  502    0  0.15100613232E+03 -0.55722644125E+02  0.15229444884E+03  0.28050929435E+03  0.17200000000E+03 0. -1.
         -6    1    1    2    0  502 -0.15100613232E+03  0.55722644125E+02  0.10932243874E+04  0.11183163355E+04  0.17200000000E+03 0.  1.
</event>
<event>
 4    1 -0.3240665E-004  0.3158742E+03  0.7818608E-02  0.1077564E+00
         -5   -1    0    0    0  501 -0.00000000000E+00  0.00000000000E+00  0.23028234383E+03  0.23033030169E+03  0.47000000000E+01 0.  1.
          5   -1    0    0  501    0  0.00000000000E+00 -0.00000000000E+00 -0.43741902624E+03  0.43744427590E+03  0.47000000000E+01 0. -1.
          6    1    1    2  502    0 -0.24278373101E+03  0.10605940395E+03 -0.13646026778E+03  0.34409002004E+03  0.17200000000E+03 0. -1.
         -6    1    1    2    0  502  0.24278373101E+03 -0.10605940395E+03 -0.70676414629E+02  0.32368455755E+03  0.17200000000E+03 0.  1.
</event>
<event>
 4    1 -0.3240665E-004  0.2017682E+03  0.7818608E-02  0.1148256E+00
          5   -1    0    0  501    0  0.00000000000E+00  0.00000000000E+00  0.11740757403E+04  0.11740851477E+04  0.47000000000E+01 0. -1.
         -5   -1    0    0    0  501 -0.00000000000E+00 -0.00000000000E+00 -0.43662868645E+02  0.43915101028E+02  0.47000000000E+01 0.  1.
          6    1    1    2  502    0 -0.23961437957E+02  0.10272425048E+03  0.84316691134E+03  0.86697223861E+03  0.17200000000E+03 0. -1.
         -6    1    1    2    0  502  0.23961437957E+02 -0.10272425048E+03  0.28724596035E+03  0.35102801011E+03  0.17200000000E+03 0.  1.
</event>
<event>
 4    1 -0.3240665E-004  0.1792640E+03  0.7818608E-02  0.1168517E+00
         -5   -1    0    0    0  501 -0.00000000000E+00  0.00000000000E+00  0.11326016621E+04  0.11326114140E+04  0.47000000000E+01 0.  1.
          5   -1    0    0  501    0  0.00000000000E+00 -0.00000000000E+00 -0.29936217031E+02  0.30302922139E+02  0.47000000000E+01 0. -1.
          6    1    1    2  502    0  0.32300806587E+02 -0.38836187796E+02  0.41095144968E+03  0.44834884362E+03  0.17200000000E+03 0. -1.
         -6    1    1    2    0  502 -0.32300806587E+02  0.38836187796E+02  0.69171399543E+03  0.71456549249E+03  0.17200000000E+03 0.  1.
</event>
<event>
 4    1 -0.3240665E-004  0.2106902E+03  0.7818608E-02  0.1141021E+00
         -5   -1    0    0    0  501 -0.00000000000E+00  0.00000000000E+00  0.28788716490E+03  0.28792552807E+03  0.47000000000E+01 0.  1.
          5   -1    0    0  501    0  0.00000000000E+00 -0.00000000000E+00 -0.15479186008E+03  0.15486319752E+03  0.47000000000E+01 0. -1.
          6    1    1    2  502    0  0.75037729169E+02  0.95789798254E+02  0.51849091745E+02  0.21697620737E+03  0.17200000000E+03 0.  1.
         -6    1    1    2    0  502 -0.75037729169E+02 -0.95789798254E+02  0.81246213076E+02  0.22581251823E+03  0.17200000000E+03 0.  1.
</event>
<event>
 4    1 -0.3240665E-004  0.1808394E+03  0.7818608E-02  0.1166993E+00
          5   -1    0    0  501    0  0.00000000000E+00  0.00000000000E+00  0.41660538569E+02  0.41924819306E+02  0.47000000000E+01 0. -1.
         -5   -1    0    0    0  501 -0.00000000000E+00 -0.00000000000E+00 -0.16571993888E+04  0.16572060536E+04  0.47000000000E+01 0.  1.
          6    1    1    2  502    0  0.52675748443E+02 -0.18551003406E+02 -0.14250315324E+04  0.14364601431E+04  0.17200000000E+03 0.  1.
         -6    1    1    2    0  502 -0.52675748443E+02  0.18551003406E+02 -0.19050731779E+03  0.26267072988E+03  0.17200000000E+03 0. -1.
</event>
<event>
 4    1 -0.3240665E-004  0.6216878E+03  0.7818608E-02  0.9861405E-01
         -5   -1    0    0    0  501 -0.00000000000E+00  0.00000000000E+00  0.10298902096E+04  0.10299009340E+04  0.47000000000E+01 0.  1.
          5   -1    0    0  501    0  0.00000000000E+00 -0.00000000000E+00 -0.38087409094E+03  0.38090308892E+03  0.47000000000E+01 0. -1.
          6    1    1    2  502    0 -0.17017653278E+03  0.57267062495E+03  0.23880327960E+03  0.66597500203E+03  0.17200000000E+03 0. -1.
         -6    1    1    2    0  502  0.17017653278E+03 -0.57267062495E+03  0.41021283906E+03  0.74482902086E+03  0.17200000000E+03 0.  1.
</event>
<event>
 4    1 -0.3240665E-004  0.1932574E+03  0.7818608E-02  0.1155556E+00
          5   -1    0    0  501    0  0.00000000000E+00  0.00000000000E+00  0.18469386675E+03  0.18475365873E+03  0.47000000000E+01 0. -1.
         -5   -1    0    0    0  501 -0.00000000000E+00 -0.00000000000E+00 -0.26346312172E+03  0.26350504076E+03  0.47000000000E+01 0.  1.
          6    1    1    2  502    0  0.80308995881E+02  0.36261397084E+02 -0.14753051587E+03  0.24313304352E+03  0.17200000000E+03 0.  1.
         -6    1    1    2    0  502 -0.80308995881E+02 -0.36261397084E+02  0.68761260896E+02  0.20512565597E+03  0.17200000000E+03 0. -1.
</event>
<event>
 4    1 -0.3240665E-004  0.2302001E+03  0.7818608E-02  0.1126499E+00
         -5   -1    0    0    0  501 -0.00000000000E+00  0.00000000000E+00  0.46360205520E+03  0.46362587890E+03  0.47000000000E+01 0.  1.
          5   -1    0    0  501    0  0.00000000000E+00 -0.00000000000E+00 -0.11423417750E+03  0.11433082397E+03  0.47000000000E+01 0. -1.
          6    1    1    2  502    0  0.11709770850E+03  0.98469406510E+02  0.17294826620E+03  0.28792915819E+03  0.17200000000E+03 0.  1.
         -6    1    1    2    0  502 -0.11709770850E+03 -0.98469406510E+02  0.17641961150E+03  0.29002754468E+03  0.17200000000E+03 0.  1.
</event>
<event>
 4    1 -0.3240665E-004  0.1868217E+03  0.7818608E-02  0.1161360E+00
         -5   -1    0    0    0  501 -0.00000000000E+00  0.00000000000E+00  0.50692246162E+03  0.50694424949E+03  0.47000000000E+01 0.  1.
          5   -1    0    0  501    0  0.00000000000E+00 -0.00000000000E+00 -0.72550533361E+02  0.72702612683E+02  0.47000000000E+01 0. -1.
          6    1    1    2  502    0 -0.61564311002E+02 -0.39091885774E+02  0.15091531541E+03  0.24016197107E+03  0.17200000000E+03 0. -1.
         -6    1    1    2    0  502  0.61564311002E+02  0.39091885774E+02  0.28345661284E+03  0.33948489110E+03  0.17200000000E+03 0.  1.
</event>
<event>
 4    1 -0.3240665E-004  0.1733131E+03  0.7818608E-02  0.1174436E+00
          5   -1    0    0  501    0  0.00000000000E+00  0.00000000000E+00  0.66906595998E+03  0.66908246787E+03  0.47000000000E+01 0. -1.
         -5   -1    0    0    0  501 -0.00000000000E+00 -0.00000000000E+00 -0.45584327938E+02  0.45825985571E+02  0.47000000000E+01 0.  1.
          6    1    1    2  502    0  0.20198260650E+01  0.21198018464E+02  0.35983360637E+03  0.39939661986E+03  0.17200000000E+03 0.  1.
         -6    1    1    2    0  502 -0.20198260650E+01 -0.21198018464E+02  0.26364802567E+03  0.31551183357E+03  0.17200000000E+03 0.  1.
</event>
<event>
 4    1 -0.3240665E-004  0.1954590E+03  0.7818608E-02  0.1153628E+00
         -5   -1    0    0    0  501 -0.00000000000E+00  0.00000000000E+00  0.94971947215E+03  0.94973110183E+03  0.47000000000E+01 0.  1.
          5   -1    0    0  501    0  0.00000000000E+00 -0.00000000000E+00 -0.92853425944E+02  0.92972300765E+02  0.47000000000E+01 0. -1.
          6    1    1    2  502    0 -0.92070107286E+02  0.11971416955E+02  0.82104389378E+03  0.84398891876E+03  0.17200000000E+03 0.  1.
         -6    1    1    2    0  502  0.92070107286E+02 -0.11971416955E+02  0.35822152423E+02  0.19871448383E+03  0.17200000000E+03 0.  1.
</event>
<event>
 4    1 -0.3240665E-004  0.1971038E+03  0.7818608E-02  0.1152206E+00
          5   -1    0    0  501    0  0.00000000000E+00  0.00000000000E+00  0.27107082095E+02  0.27511523035E+02  0.47000000000E+01 0. -1.
         -5   -1    0    0    0  501 -0.00000000000E+00 -0.00000000000E+00 -0.18786465530E+04  0.18786524322E+04  0.47000000000E+01 0.  1.
          6    1    1    2  502    0 -0.66747574158E+02 -0.69358920895E+02 -0.13955173801E+04  0.14093681764E+04  0.17200000000E+03 0.  1.
         -6    1    1    2    0  502  0.66747574158E+02  0.69358920895E+02 -0.45602209083E+03  0.49679577885E+03  0.17200000000E+03 0. -1.
</event>
<event>
 4    1 -0.3240665E-004  0.1952720E+03  0.7818608E-02  0.1153790E+00
          5   -1    0    0  501    0  0.00000000000E+00  0.00000000000E+00  0.23510221029E+02  0.23975414341E+02  0.47000000000E+01 0. -1.
         -5   -1    0    0    0  501 -0.00000000000E+00 -0.00000000000E+00 -0.16251812085E+04  0.16251880047E+04  0.47000000000E+01 0.  1.
          6    1    1    2  502    0 -0.70846178237E+02 -0.59396789701E+02 -0.71019774055E+03  0.73655413262E+03  0.17200000000E+03 0.  1.
         -6    1    1    2    0  502  0.70846178237E+02  0.59396789701E+02 -0.89147324696E+03  0.91260928641E+03  0.17200000000E+03 0. -1.
</event>
<event>
 4    1 -0.3240665E-004  0.1725485E+03  0.7818608E-02  0.1175216E+00
          5   -1    0    0  501    0  0.00000000000E+00  0.00000000000E+00  0.90597393853E+02  0.90719224936E+02  0.47000000000E+01 0. -1.
         -5   -1    0    0    0  501 -0.00000000000E+00 -0.00000000000E+00 -0.48092958557E+03  0.48095255096E+03  0.47000000000E+01 0.  1.
          6    1    1    2  502    0  0.44236132793E+01  0.13015359117E+02 -0.34149604338E+02  0.17589531945E+03  0.17200000000E+03 0. -1.
         -6    1    1    2    0  502 -0.44236132793E+01 -0.13015359117E+02 -0.35618258738E+03  0.39577645645E+03  0.17200000000E+03 0.  1.
</event>
<event>
 4    1 -0.3240665E-004  0.2907015E+03  0.7818608E-02  0.1089983E+00
         -5   -1    0    0    0  501 -0.00000000000E+00  0.00000000000E+00  0.73770488113E+03  0.73771985309E+03  0.47000000000E+01 0.  1.
          5   -1    0    0  501    0  0.00000000000E+00 -0.00000000000E+00 -0.23482862095E+03  0.23487565054E+03  0.47000000000E+01 0. -1.
          6    1    1    2  502    0  0.21894811520E+03  0.83576657850E+02 -0.96617788558E+02  0.30633695819E+03  0.17200000000E+03 0. -1.
         -6    1    1    2    0  502 -0.21894811520E+03 -0.83576657850E+02  0.59949404874E+03  0.66625854543E+03  0.17200000000E+03 0.  1.
</event>
<event>
 4    1 -0.3240665E-004  0.2035231E+03  0.7818608E-02  0.1146800E+00
         -5   -1    0    0    0  501 -0.00000000000E+00  0.00000000000E+00  0.13069118483E+03  0.13077566973E+03  0.47000000000E+01 0.  1.
          5   -1    0    0  501    0  0.00000000000E+00 -0.00000000000E+00 -0.45768157219E+03  0.45770570406E+03  0.47000000000E+01 0. -1.
          6    1    1    2  502    0 -0.95679374735E+02 -0.51798637366E+02 -0.23183819635E+00  0.20352320588E+03  0.17200000000E+03 0.  1.
         -6    1    1    2    0  502  0.95679374735E+02  0.51798637366E+02 -0.32675854917E+03  0.38495816790E+03  0.17200000000E+03 0. -1.
</event>
<event>
 4    1 -0.3240665E-004  0.2041390E+03  0.7818608E-02  0.1146293E+00
          5   -1    0    0  501    0  0.00000000000E+00  0.00000000000E+00  0.21066801915E+03  0.21072044109E+03  0.47000000000E+01 0. -1.
         -5   -1    0    0    0  501 -0.00000000000E+00 -0.00000000000E+00 -0.21028486205E+03  0.21033737948E+03  0.47000000000E+01 0.  1.
          6    1    1    2  502    0  0.94264097535E+02 -0.56595011422E+02  0.51666544846E+02  0.21057575183E+03  0.17200000000E+03 0. -1.
         -6    1    1    2    0  502 -0.94264097535E+02  0.56595011422E+02 -0.51283387749E+02  0.21048206874E+03  0.17200000000E+03 0.  1.
</event>
<event>
 4    1 -0.3240665E-004  0.1966198E+03  0.7818608E-02  0.1152623E+00
         -5   -1    0    0    0  501 -0.00000000000E+00  0.00000000000E+00  0.57697200492E+03  0.57699114765E+03  0.47000000000E+01 0.  1.
          5   -1    0    0  501    0  0.00000000000E+00 -0.00000000000E+00 -0.71062616117E+02  0.71217872823E+02  0.47000000000E+01 0. -1.
          6    1    1    2  502    0 -0.57286187492E+02  0.76116064813E+02  0.17462270319E+03  0.26296853627E+03  0.17200000000E+03 0.  1.
         -6    1    1    2    0  502  0.57286187492E+02 -0.76116064813E+02  0.33128668561E+03  0.38524048419E+03  0.17200000000E+03 0.  1.
</event>
<event>
 4    1 -0.3240665E-004  0.1927436E+03  0.7818608E-02  0.1156010E+00
          5   -1    0    0  501    0  0.00000000000E+00  0.00000000000E+00  0.23310692940E+03  0.23315430628E+03  0.47000000000E+01 0. -1.
         -5   -1    0    0    0  501 -0.00000000000E+00 -0.00000000000E+00 -0.15976674402E+03  0.15983586110E+03  0.47000000000E+01 0.  1.
          6    1    1    2  502    0 -0.83578070139E+02  0.24100036824E+02  0.47610154133E+02  0.19853672799E+03  0.17200000000E+03 0. -1.
         -6    1    1    2    0  502  0.83578070139E+02 -0.24100036824E+02  0.25730031249E+02  0.19445343939E+03  0.17200000000E+03 0. -1.
</event>
<event>
 4    1 -0.3240665E-004  0.2184410E+03  0.7818608E-02  0.1135051E+00
         -5   -1    0    0    0  501 -0.00000000000E+00  0.00000000000E+00  0.82779112605E+03  0.82780446868E+03  0.47000000000E+01 0.  1.
          5   -1    0    0  501    0  0.00000000000E+00 -0.00000000000E+00 -0.59718374872E+02  0.59903040802E+02  0.47000000000E+01 0. -1.
          6    1    1    2  502    0 -0.12883215024E+03 -0.39175595330E+02  0.29928031057E+03  0.37052011348E+03  0.17200000000E+03 0. -1.
         -6    1    1    2    0  502  0.12883215024E+03  0.39175595330E+02  0.46879244061E+03  0.51718739600E+03  0.17200000000E+03 0.  1.
</event>
<event>
 4    1 -0.3240665E-004  0.2017734E+03  0.7818608E-02  0.1148251E+00
         -5   -1    0    0    0  501 -0.00000000000E+00  0.00000000000E+00  0.55335638160E+03  0.55337634125E+03  0.47000000000E+01 0.  1.
          5   -1    0    0  501    0  0.00000000000E+00 -0.00000000000E+00 -0.78957580797E+02  0.79097342340E+02  0.47000000000E+01 0. -1.
          6    1    1    2  502    0 -0.26649692162E+02 -0.10207001884E+03  0.32042583817E+03  0.37866239925E+03  0.17200000000E+03 0.  1.
         -6    1    1    2    0  502  0.26649692162E+02  0.10207001884E+03  0.15397296263E+03  0.25381128434E+03  0.17200000000E+03 0. -1.
</event>
<event>
 4    1 -0.3240665E-004  0.1781455E+03  0.7818608E-02  0.1169610E+00
          5   -1    0    0  501    0  0.00000000000E+00  0.00000000000E+00  0.21757966650E+02  0.22259809360E+02  0.47000000000E+01 0. -1.
         -5   -1    0    0    0  501 -0.00000000000E+00 -0.00000000000E+00 -0.22868128418E+04  0.22868176717E+04  0.47000000000E+01 0.  1.
          6    1    1    2  502    0  0.46262325257E+02 -0.34071695411E+01 -0.43064094814E+03  0.46603373028E+03  0.17200000000E+03 0. -1.
         -6    1    1    2    0  502 -0.46262325257E+02  0.34071695411E+01 -0.18344139271E+04  0.18430437508E+04  0.17200000000E+03 0.  1.
</event>
<event>
 4    1 -0.3240665E-004  0.1812515E+03  0.7818608E-02  0.1166597E+00
         -5   -1    0    0    0  501 -0.00000000000E+00  0.00000000000E+00  0.15809141101E+03  0.15816126023E+03  0.47000000000E+01 0.  1.
          5   -1    0    0  501    0  0.00000000000E+00 -0.00000000000E+00 -0.54209792317E+03  0.54211829733E+03  0.47000000000E+01 0. -1.
          6    1    1    2  502    0 -0.57007430953E+02  0.42746521420E+01 -0.46699279524E+03  0.50093351919E+03  0.17200000000E+03 0. -1.
         -6    1    1    2    0  502  0.57007430953E+02 -0.42746521420E+01  0.82986283089E+02  0.19934603837E+03  0.17200000000E+03 0.  1.
</event>
<event>
 4    1 -0.3240665E-004  0.4027582E+03  0.7818608E-02  0.1042829E+00
          5   -1    0    0  501    0  0.00000000000E+00  0.00000000000E+00  0.14588948549E+04  0.14589024257E+04  0.47000000000E+01 0. -1.
         -5   -1    0    0    0  501 -0.00000000000E+00 -0.00000000000E+00 -0.32385334942E+03  0.32388745257E+03  0.47000000000E+01 0.  1.
          6    1    1    2  502    0  0.30031190674E+02  0.36294395502E+03  0.12898770288E+04  0.13512945409E+04  0.17200000000E+03 0. -1.
         -6    1    1    2    0  502 -0.30031190674E+02 -0.36294395502E+03 -0.15483552328E+03  0.43149533737E+03  0.17200000000E+03 0. -1.
</event>
<event>
 4    1 -0.3240665E-004  0.2817558E+03  0.7818608E-02  0.1094734E+00
         -5   -1    0    0    0  501 -0.00000000000E+00  0.00000000000E+00  0.44957479405E+02  0.45202488366E+02  0.47000000000E+01 0.  1.
          5   -1    0    0  501    0  0.00000000000E+00 -0.00000000000E+00 -0.20478742742E+04  0.20478796676E+04  0.47000000000E+01 0. -1.
          6    1    1    2  502    0 -0.70267184059E+02  0.21181323232E+03 -0.13932938202E+04  0.14214970953E+04  0.17200000000E+03 0. -1.
         -6    1    1    2    0  502  0.70267184059E+02 -0.21181323232E+03 -0.60962297458E+03  0.67158506064E+03  0.17200000000E+03 0.  1.
</event>
<event>
 4    1 -0.3240665E-004  0.2947840E+03  0.7818608E-02  0.1087877E+00
          5   -1    0    0  501    0  0.00000000000E+00  0.00000000000E+00  0.21593314095E+03  0.21598428498E+03  0.47000000000E+01 0. -1.
         -5   -1    0    0    0  501 -0.00000000000E+00 -0.00000000000E+00 -0.58597823904E+03  0.58599708756E+03  0.47000000000E+01 0.  1.
          6    1    1    2  502    0 -0.10885669223E+03  0.21322245552E+03  0.39456739482E+02  0.29741289359E+03  0.17200000000E+03 0. -1.
         -6    1    1    2    0  502  0.10885669223E+03 -0.21322245552E+03 -0.40950183758E+03  0.50456847896E+03  0.17200000000E+03 0.  1.
</event>
<event>
 4    1 -0.3240665E-004  0.2838272E+03  0.7818608E-02  0.1093617E+00
          5   -1    0    0  501    0  0.00000000000E+00  0.00000000000E+00  0.37392268638E+03  0.37395222340E+03  0.47000000000E+01 0. -1.
         -5   -1    0    0    0  501 -0.00000000000E+00 -0.00000000000E+00 -0.33652800803E+03  0.33656082688E+03  0.47000000000E+01 0.  1.
          6    1    1    2  502    0  0.16918442644E+03 -0.14950083320E+03  0.23183008293E+03  0.36647381439E+03  0.17200000000E+03 0. -1.
         -6    1    1    2    0  502 -0.16918442644E+03  0.14950083320E+03 -0.19443540458E+03  0.34403923589E+03  0.17200000000E+03 0.  1.
</event>
<event>
 4    1 -0.3240665E-004  0.1813718E+03  0.7818608E-02  0.1166482E+00
         -5   -1    0    0    0  501 -0.00000000000E+00  0.00000000000E+00  0.24736199939E+03  0.24740664652E+03  0.47000000000E+01 0.  1.
          5   -1    0    0  501    0  0.00000000000E+00 -0.00000000000E+00 -0.13535271468E+03  0.13543429172E+03  0.47000000000E+01 0. -1.
          6    1    1    2  502    0 -0.57496158419E+02  0.24306023898E+01  0.30185607953E+02  0.18386649229E+03  0.17200000000E+03 0. -1.
         -6    1    1    2    0  502  0.57496158419E+02 -0.24306023898E+01  0.81823676755E+02  0.19897444594E+03  0.17200000000E+03 0.  1.
</event>
<event>
 4    1 -0.3240665E-004  0.3610552E+03  0.7818608E-02  0.1058167E+00
         -5   -1    0    0    0  501 -0.00000000000E+00  0.00000000000E+00  0.26929214466E+03  0.26933315648E+03  0.47000000000E+01 0.  1.
          5   -1    0    0  501    0  0.00000000000E+00 -0.00000000000E+00 -0.50687054606E+03  0.50689233617E+03  0.47000000000E+01 0. -1.
          6    1    1    2  502    0 -0.13180526410E+03 -0.28879790822E+03 -0.20122977729E+03  0.41334523428E+03  0.17200000000E+03 0. -1.
         -6    1    1    2    0  502  0.13180526410E+03  0.28879790822E+03 -0.36348624103E+02  0.36288025836E+03  0.17200000000E+03 0.  1.
</event>
<event>
 4    1 -0.3240665E-004  0.2335125E+03  0.7818608E-02  0.1124192E+00
         -5   -1    0    0    0  501 -0.00000000000E+00  0.00000000000E+00  0.48728057739E+02  0.48954199115E+02  0.47000000000E+01 0.  1.
          5   -1    0    0  501    0  0.00000000000E+00 -0.00000000000E+00 -0.14237250320E+04  0.14237327898E+04  0.47000000000E+01 0. -1.
          6    1    1    2  502    0  0.25761420592E+02  0.15582180375E+03 -0.10296882503E+04  0.10558342569E+04  0.17200000000E+03 0. -1.
         -6    1    1    2    0  502 -0.25761420592E+02 -0.15582180375E+03 -0.34530872399E+03  0.41685273200E+03  0.17200000000E+03 0.  1.
</event>
<event>
 4    1 -0.3240665E-004  0.2142145E+03  0.7818608E-02  0.1138271E+00
         -5   -1    0    0    0  501 -0.00000000000E+00  0.00000000000E+00  0.67445652386E+02  0.67609215539E+02  0.47000000000E+01 0.  1.
          5   -1    0    0  501    0  0.00000000000E+00 -0.00000000000E+00 -0.79879184109E+03  0.79880566810E+03  0.47000000000E+01 0. -1.
          6    1    1    2  502    0  0.88397499347E+01  0.12738016339E+03 -0.53315529618E+03  0.57458020941E+03  0.17200000000E+03 0. -1.
         -6    1    1    2    0  502 -0.88397499347E+01 -0.12738016339E+03 -0.19819089252E+03  0.29183467423E+03  0.17200000000E+03 0.  1.
</event>
<event>
 4    1 -0.3240665E-004  0.1922726E+03  0.7818608E-02  0.1156427E+00
          5   -1    0    0  501    0  0.00000000000E+00  0.00000000000E+00  0.25609988765E+03  0.25614301172E+03  0.47000000000E+01 0. -1.
         -5   -1    0    0    0  501 -0.00000000000E+00 -0.00000000000E+00 -0.16358374964E+03  0.16365125464E+03  0.47000000000E+01 0.  1.
          6    1    1    2  502    0 -0.27724628237E+02 -0.81339407381E+02  0.11837495220E+03  0.22579057445E+03  0.17200000000E+03 0. -1.
         -6    1    1    2    0  502  0.27724628237E+02  0.81339407381E+02 -0.25858814182E+02  0.19400369191E+03  0.17200000000E+03 0.  1.
</event>
<event>
 4    1 -0.3240665E-004  0.1742546E+03  0.7818608E-02  0.1173482E+00
          5   -1    0    0  501    0  0.00000000000E+00  0.00000000000E+00  0.11201059987E+04  0.11201158593E+04  0.47000000000E+01 0. -1.
         -5   -1    0    0    0  501 -0.00000000000E+00 -0.00000000000E+00 -0.29264711048E+02  0.29639725247E+02  0.47000000000E+01 0.  1.
          6    1    1    2  502    0  0.32951515488E+01 -0.27745474211E+02  0.70789939102E+03  0.72903101248E+03  0.17200000000E+03 0. -1.
         -6    1    1    2    0  502 -0.32951515488E+01  0.27745474211E+02  0.38294189663E+03  0.42072457209E+03  0.17200000000E+03 0.  1.
</event>
<event>
 4    1 -0.3240665E-004  0.1924787E+03  0.7818608E-02  0.1156245E+00
         -5   -1    0    0    0  501 -0.00000000000E+00  0.00000000000E+00  0.40617327579E+03  0.40620046771E+03  0.47000000000E+01 0.  1.
          5   -1    0    0  501    0  0.00000000000E+00 -0.00000000000E+00 -0.10974231418E+03  0.10984291293E+03  0.47000000000E+01 0. -1.
          6    1    1    2  502    0  0.86393428822E+02 -0.45684116989E+00  0.25443262195E+03  0.31903603615E+03  0.17200000000E+03 0.  1.
         -6    1    1    2    0  502 -0.86393428822E+02  0.45684116989E+00  0.41998339656E+02  0.19700734449E+03  0.17200000000E+03 0. -1.
</event>
<event>
 4    1 -0.3240665E-004  0.2192702E+03  0.7818608E-02  0.1134428E+00
          5   -1    0    0  501    0  0.00000000000E+00  0.00000000000E+00  0.16555393583E+04  0.16555460299E+04  0.47000000000E+01 0. -1.
         -5   -1    0    0    0  501 -0.00000000000E+00 -0.00000000000E+00 -0.10126531016E+03  0.10137432141E+03  0.47000000000E+01 0.  1.
          6    1    1    2  502    0  0.45199476465E+02 -0.12826704219E+03  0.15191041586E+04  0.15348475076E+04  0.17200000000E+03 0. -1.
         -6    1    1    2    0  502 -0.45199476465E+02  0.12826704219E+03  0.35169889576E+02  0.22207284372E+03  0.17200000000E+03 0.  1.
</event>
<event>
 4    1 -0.3240665E-004  0.2295200E+03  0.7818608E-02  0.1126978E+00
         -5   -1    0    0    0  501 -0.00000000000E+00  0.00000000000E+00  0.98144658723E+03  0.98145784096E+03  0.47000000000E+01 0.  1.
          5   -1    0    0  501    0  0.00000000000E+00 -0.00000000000E+00 -0.10646405839E+03  0.10656775182E+03  0.47000000000E+01 0. -1.
          6    1    1    2  502    0  0.22492050657E+02 -0.15029814810E+03  0.82067794208E+03  0.85216882734E+03  0.17200000000E+03 0.  1.
         -6    1    1    2    0  502 -0.22492050657E+02  0.15029814810E+03  0.54304586760E+02  0.23585676545E+03  0.17200000000E+03 0. -1.
</event>
<event>
 4    1 -0.3240665E-004  0.2762191E+03  0.7818608E-02  0.1097772E+00
          5   -1    0    0  501    0  0.00000000000E+00  0.00000000000E+00  0.54373478633E+03  0.54375509916E+03  0.47000000000E+01 0. -1.
         -5   -1    0    0    0  501 -0.00000000000E+00 -0.00000000000E+00 -0.15133530384E+03  0.15140826988E+03  0.47000000000E+01 0.  1.
          6    1    1    2  502    0  0.12403109717E+03 -0.17700071884E+03  0.29020842909E+03  0.40064685179E+03  0.17200000000E+03 0. -1.
         -6    1    1    2    0  502 -0.12403109717E+03  0.17700071884E+03  0.10219105341E+03  0.29451651725E+03  0.17200000000E+03 0. -1.
</event>
<event>
 4    1 -0.3240665E-004  0.2035420E+03  0.7818608E-02  0.1146785E+00
         -5   -1    0    0    0  501 -0.00000000000E+00  0.00000000000E+00  0.20452838610E+03  0.20458238125E+03  0.47000000000E+01 0.  1.
          5   -1    0    0  501    0  0.00000000000E+00 -0.00000000000E+00 -0.37690711904E+03  0.37693642220E+03  0.47000000000E+01 0. -1.
          6    1    1    2  502    0  0.97950307713E+02 -0.47445678738E+02 -0.28397861645E+03  0.34938976776E+03  0.17200000000E+03 0. -1.
         -6    1    1    2    0  502 -0.97950307713E+02  0.47445678738E+02  0.11159988351E+03  0.23212903569E+03  0.17200000000E+03 0.  1.
</event>
<event>
 4    1 -0.3240665E-004  0.2152864E+03  0.7818608E-02  0.1137447E+00
         -5   -1    0    0    0  501 -0.00000000000E+00  0.00000000000E+00  0.19346861926E+03  0.19352570020E+03  0.47000000000E+01 0.  1.
          5   -1    0    0  501    0  0.00000000000E+00 -0.00000000000E+00 -0.41926806451E+03  0.41929440721E+03  0.47000000000E+01 0. -1.
          6    1    1    2  502    0 -0.90219423778E+02 -0.92869289815E+02 -0.31354382923E+03  0.38033929887E+03  0.17200000000E+03 0. -1.
         -6    1    1    2    0  502  0.90219423778E+02  0.92869289815E+02  0.87744383982E+02  0.23248080854E+03  0.17200000000E+03 0.  1.
</event>
<event>
 4    1 -0.3240665E-004  0.1761637E+03  0.7818608E-02  0.1171568E+00
         -5   -1    0    0    0  501 -0.00000000000E+00  0.00000000000E+00  0.13278330942E+03  0.13286646402E+03  0.47000000000E+01 0.  1.
          5   -1    0    0  501    0  0.00000000000E+00 -0.00000000000E+00 -0.24169163638E+03  0.24173733078E+03  0.47000000000E+01 0. -1.
          6    1    1    2  502    0 -0.58631636113E+01 -0.37620175051E+02 -0.88850232192E+02  0.19730184495E+03  0.17200000000E+03 0.  1.
         -6    1    1    2    0  502  0.58631636113E+01  0.37620175051E+02 -0.20058094759E+02  0.17730194986E+03  0.17200000000E+03 0.  1.
</event>
<event>
 4    1 -0.3240665E-004  0.1844922E+03  0.7818608E-02  0.1163525E+00
          5   -1    0    0  501    0  0.00000000000E+00  0.00000000000E+00  0.70684077003E+03  0.70685639572E+03  0.47000000000E+01 0. -1.
         -5   -1    0    0    0  501 -0.00000000000E+00 -0.00000000000E+00 -0.19908410754E+03  0.19913957887E+03  0.47000000000E+01 0.  1.
          6    1    1    2  502    0  0.29594244227E+02  0.59812494028E+02  0.64831880949E+03  0.67405833017E+03  0.17200000000E+03 0. -1.
         -6    1    1    2    0  502 -0.29594244227E+02 -0.59812494028E+02 -0.14056214700E+03  0.23193764443E+03  0.17200000000E+03 0.  1.
</event>
<event>
 4    1 -0.3240665E-004  0.2626124E+03  0.7818608E-02  0.1105584E+00
         -5   -1    0    0    0  501 -0.00000000000E+00  0.00000000000E+00  0.16981375373E+04  0.16981440414E+04  0.47000000000E+01 0.  1.
          5   -1    0    0  501    0  0.00000000000E+00 -0.00000000000E+00 -0.47138745152E+02  0.47372474017E+02  0.47000000000E+01 0. -1.
          6    1    1    2  502    0 -0.14352966617E+03 -0.13704207743E+03  0.49812538212E+03  0.56311117230E+03  0.17200000000E+03 0. -1.
         -6    1    1    2    0  502  0.14352966617E+03  0.13704207743E+03  0.11528734100E+04  0.11824053431E+04  0.17200000000E+03 0.  1.
</event>
<event>
 4    1 -0.3240665E-004  0.1926244E+03  0.7818608E-02  0.1156115E+00
          5   -1    0    0  501    0  0.00000000000E+00  0.00000000000E+00  0.16964571171E+03  0.16971080549E+03  0.47000000000E+01 0. -1.
         -5   -1    0    0    0  501 -0.00000000000E+00 -0.00000000000E+00 -0.28216241828E+03  0.28220155968E+03  0.47000000000E+01 0.  1.
          6    1    1    2  502    0 -0.83287801698E+02  0.24151827372E+02 -0.16349599328E+03  0.25265610718E+03  0.17200000000E+03 0. -1.
         -6    1    1    2    0  502  0.83287801698E+02 -0.24151827372E+02  0.50979286713E+02  0.19925625800E+03  0.17200000000E+03 0. -1.
</event>
<event>
 4    1 -0.3240665E-004  0.3753979E+03  0.7818608E-02  0.1052648E+00
          5   -1    0    0  501    0  0.00000000000E+00  0.00000000000E+00  0.18387479519E+03  0.18393485343E+03  0.47000000000E+01 0. -1.
         -5   -1    0    0    0  501 -0.00000000000E+00 -0.00000000000E+00 -0.10899544899E+04  0.10899646233E+04  0.47000000000E+01 0.  1.
          6    1    1    2  502    0  0.21696033884E+03 -0.25351094462E+03 -0.10591772939E+03  0.39005403866E+03  0.17200000000E+03 0. -1.
         -6    1    1    2    0  502 -0.21696033884E+03  0.25351094462E+03 -0.80016196530E+03  0.88384543807E+03  0.17200000000E+03 0.  1.
</event>
<event>
 4    1 -0.3240665E-004  0.2251776E+03  0.7818608E-02  0.1130081E+00
         -5   -1    0    0    0  501 -0.00000000000E+00  0.00000000000E+00  0.93564811404E+03  0.93565991862E+03  0.47000000000E+01 0.  1.
          5   -1    0    0  501    0  0.00000000000E+00 -0.00000000000E+00 -0.57038384368E+02  0.57231698309E+02  0.47000000000E+01 0. -1.
          6    1    1    2  502    0 -0.77972416723E+02  0.12264270000E+03  0.55219233882E+03  0.59633992713E+03  0.17200000000E+03 0. -1.
         -6    1    1    2    0  502  0.77972416723E+02 -0.12264270000E+03  0.32641739085E+03  0.39655168979E+03  0.17200000000E+03 0. -1.
</event>
<event>
 4    1 -0.3240665E-004  0.2227012E+03  0.7818608E-02  0.1131885E+00
          5   -1    0    0  501    0  0.00000000000E+00  0.00000000000E+00  0.11873894824E+03  0.11883193102E+03  0.47000000000E+01 0. -1.
         -5   -1    0    0    0  501 -0.00000000000E+00 -0.00000000000E+00 -0.43949439767E+03  0.43951952810E+03  0.47000000000E+01 0.  1.
          6    1    1    2  502    0  0.39505389014E+02 -0.13583495060E+03 -0.97816472974E+02  0.24323624720E+03  0.17200000000E+03 0. -1.
         -6    1    1    2    0  502 -0.39505389014E+02  0.13583495060E+03 -0.22293897645E+03  0.31511521193E+03  0.17200000000E+03 0.  1.
</event>
<event>
 4    1 -0.3240665E-004  0.2853698E+03  0.7818608E-02  0.1092792E+00
         -5   -1    0    0    0  501 -0.00000000000E+00  0.00000000000E+00  0.61029630743E+03  0.61031440493E+03  0.47000000000E+01 0.  1.
          5   -1    0    0  501    0  0.00000000000E+00 -0.00000000000E+00 -0.17300555763E+03  0.17306938773E+03  0.47000000000E+01 0. -1.
          6    1    1    2  502    0  0.16753971710E+03  0.15421540543E+03  0.31226434131E+02  0.28707322806E+03  0.17200000000E+03 0. -1.
         -6    1    1    2    0  502 -0.16753971710E+03 -0.15421540543E+03  0.40606431567E+03  0.49631056461E+03  0.17200000000E+03 0.  1.
</event>
<event>
 4    1 -0.3240665E-004  0.1804309E+03  0.7818608E-02  0.1167387E+00
         -5   -1    0    0    0  501 -0.00000000000E+00  0.00000000000E+00  0.11303291739E+03  0.11313059009E+03  0.47000000000E+01 0.  1.
          5   -1    0    0  501    0  0.00000000000E+00 -0.00000000000E+00 -0.31633518199E+03  0.31637009556E+03  0.47000000000E+01 0. -1.
          6    1    1    2  502    0  0.50027332752E+02 -0.21646653236E+02 -0.16616436496E+03  0.24528739838E+03  0.17200000000E+03 0. -1.
         -6    1    1    2    0  502 -0.50027332752E+02  0.21646653236E+02 -0.37137899633E+02  0.18421328727E+03  0.17200000000E+03 0.  1.
</event>
<event>
 4    1 -0.3240665E-004  0.2880056E+03  0.7818608E-02  0.1091395E+00
          5   -1    0    0  501    0  0.00000000000E+00  0.00000000000E+00  0.69735662147E+03  0.69737245967E+03  0.47000000000E+01 0. -1.
         -5   -1    0    0    0  501 -0.00000000000E+00 -0.00000000000E+00 -0.12159080521E+03  0.12168160877E+03  0.47000000000E+01 0.  1.
          6    1    1    2  502    0 -0.54229403255E+02 -0.22454935467E+03  0.22678014178E+03  0.36657396739E+03  0.17200000000E+03 0. -1.
         -6    1    1    2    0  502  0.54229403255E+02  0.22454935467E+03  0.34898567447E+03  0.45248010105E+03  0.17200000000E+03 0.  1.
</event>
<event>
 4    1 -0.3240665E-004  0.3879030E+03  0.7818608E-02  0.1048051E+00
         -5   -1    0    0    0  501 -0.00000000000E+00  0.00000000000E+00  0.48706214330E+03  0.48708481955E+03  0.47000000000E+01 0.  1.
          5   -1    0    0  501    0  0.00000000000E+00 -0.00000000000E+00 -0.45569028812E+03  0.45571452543E+03  0.47000000000E+01 0. -1.
          6    1    1    2  502    0  0.32358654529E+03 -0.12718671304E+03 -0.25186247788E+03  0.46249694056E+03  0.17200000000E+03 0. -1.
         -6    1    1    2    0  502 -0.32358654529E+03  0.12718671304E+03  0.28323433306E+03  0.48030240442E+03  0.17200000000E+03 0.  1.
</event>
<event>
 4    1 -0.3240665E-004  0.2782600E+03  0.7818608E-02  0.1096643E+00
          5   -1    0    0  501    0  0.00000000000E+00  0.00000000000E+00  0.61376060450E+03  0.61377859985E+03  0.47000000000E+01 0. -1.
         -5   -1    0    0    0  501 -0.00000000000E+00 -0.00000000000E+00 -0.17624227123E+03  0.17630492951E+03  0.47000000000E+01 0.  1.
          6    1    1    2  502    0 -0.91938898589E+02 -0.19847380929E+03  0.42943520613E+03  0.51170617576E+03  0.17200000000E+03 0. -1.
         -6    1    1    2    0  502  0.91938898589E+02  0.19847380929E+03  0.80831271348E+01  0.27837735359E+03  0.17200000000E+03 0.  1.
</event>
<event>
 4    1 -0.3240665E-004  0.1848266E+03  0.7818608E-02  0.1163212E+00
          5   -1    0    0  501    0  0.00000000000E+00  0.00000000000E+00  0.74845050868E+03  0.74846526569E+03  0.47000000000E+01 0. -1.
         -5   -1    0    0    0  501 -0.00000000000E+00 -0.00000000000E+00 -0.59884882334E+02  0.60069036384E+02  0.47000000000E+01 0.  1.
          6    1    1    2  502    0  0.40853257687E+02 -0.53924929264E+02  0.54200212652E+03  0.57264927469E+03  0.17200000000E+03 0. -1.
         -6    1    1    2    0  502 -0.40853257687E+02  0.53924929264E+02  0.14656349983E+03  0.23588502738E+03  0.17200000000E+03 0.  1.
</event>
<event>
 4    1 -0.3240665E-004  0.2047119E+03  0.7818608E-02  0.1145823E+00
         -5   -1    0    0    0  501 -0.00000000000E+00  0.00000000000E+00  0.13148947363E+03  0.13157344594E+03  0.47000000000E+01 0.  1.
          5   -1    0    0  501    0  0.00000000000E+00 -0.00000000000E+00 -0.43999670706E+03  0.44002180881E+03  0.47000000000E+01 0. -1.
          6    1    1    2  502    0 -0.57868704632E+02 -0.94732111677E+02 -0.30441153187E+03  0.36684239218E+03  0.17200000000E+03 0. -1.
         -6    1    1    2    0  502  0.57868704632E+02  0.94732111677E+02 -0.40957015599E+01  0.20475286257E+03  0.17200000000E+03 0.  1.
</event>
<event>
 4    1 -0.3240665E-004  0.2959853E+03  0.7818608E-02  0.1087265E+00
         -5   -1    0    0    0  501 -0.00000000000E+00  0.00000000000E+00  0.83294769201E+03  0.83296095204E+03  0.47000000000E+01 0.  1.
          5   -1    0    0  501    0  0.00000000000E+00 -0.00000000000E+00 -0.16831290831E+03  0.16837851735E+03  0.47000000000E+01 0. -1.
          6    1    1    2  502    0 -0.15616370636E+03 -0.18340171190E+03  0.25605070168E+02  0.29709074494E+03  0.17200000000E+03 0. -1.
         -6    1    1    2    0  502  0.15616370636E+03  0.18340171190E+03  0.63902971353E+03  0.70424872445E+03  0.17200000000E+03 0.  1.
</event>
<event>
 4    1 -0.3240665E-004  0.1778443E+03  0.7818608E-02  0.1169906E+00
         -5   -1    0    0    0  501 -0.00000000000E+00  0.00000000000E+00  0.28618846052E+02  0.29002212835E+02  0.47000000000E+01 0.  1.
          5   -1    0    0  501    0  0.00000000000E+00 -0.00000000000E+00 -0.12168695744E+04  0.12168786509E+04  0.47000000000E+01 0. -1.
          6    1    1    2  502    0  0.45197784843E+02  0.13315675489E+01 -0.39899002883E+03  0.43683138158E+03  0.17200000000E+03 0.  1.
         -6    1    1    2    0  502 -0.45197784843E+02 -0.13315675489E+01 -0.78926069950E+03  0.80904948218E+03  0.17200000000E+03 0. -1.
</event>
<event>
 4    1 -0.3240665E-004  0.2229223E+03  0.7818608E-02  0.1131723E+00
         -5   -1    0    0    0  501 -0.00000000000E+00  0.00000000000E+00  0.11078361538E+03  0.11088326942E+03  0.47000000000E+01 0.  1.
          5   -1    0    0  501    0  0.00000000000E+00 -0.00000000000E+00 -0.81211542071E+03  0.81212902088E+03  0.47000000000E+01 0. -1.
          6    1    1    2  502    0 -0.14085440585E+03 -0.16443197794E+02 -0.65955509722E+03  0.69620921329E+03  0.17200000000E+03 0. -1.
         -6    1    1    2    0  502  0.14085440585E+03  0.16443197794E+02 -0.41776708114E+02  0.22680307701E+03  0.17200000000E+03 0.  1.
</event>
<event>
 4    1 -0.3240665E-004  0.3338067E+03  0.7818608E-02  0.1069465E+00
         -5   -1    0    0    0  501 -0.00000000000E+00  0.00000000000E+00  0.13927325576E+04  0.13927404881E+04  0.47000000000E+01 0.  1.
          5   -1    0    0  501    0  0.00000000000E+00 -0.00000000000E+00 -0.79930987332E+02  0.80069049800E+02  0.47000000000E+01 0. -1.
          6    1    1    2  502    0  0.19481409991E+03  0.20950030696E+03  0.66027290356E+03  0.73985621530E+03  0.17200000000E+03 0. -1.
         -6    1    1    2    0  502 -0.19481409991E+03 -0.20950030696E+03  0.65252866674E+03  0.73295332256E+03  0.17200000000E+03 0.  1.
</event>
<event>
 4    1 -0.3240665E-004  0.2221986E+03  0.7818608E-02  0.1132254E+00
          5   -1    0    0  501    0  0.00000000000E+00  0.00000000000E+00  0.38602123883E+02  0.38887195429E+02  0.47000000000E+01 0. -1.
         -5   -1    0    0    0  501 -0.00000000000E+00 -0.00000000000E+00 -0.15493718859E+04  0.15493790145E+04  0.47000000000E+01 0.  1.
          6    1    1    2  502    0 -0.13443296693E+03  0.41424787534E+02 -0.42062949294E+03  0.47571147343E+03  0.17200000000E+03 0. -1.
         -6    1    1    2    0  502  0.13443296693E+03 -0.41424787534E+02 -0.10901402690E+04  0.11125547365E+04  0.17200000000E+03 0.  1.
</event>
<event>
 4    1 -0.3240665E-004  0.1846740E+03  0.7818608E-02  0.1163355E+00
          5   -1    0    0  501    0  0.00000000000E+00  0.00000000000E+00  0.26730742363E+03  0.26734873990E+03  0.47000000000E+01 0. -1.
         -5   -1    0    0    0  501 -0.00000000000E+00 -0.00000000000E+00 -0.13391202725E+03  0.13399448138E+03  0.47000000000E+01 0.  1.
          6    1    1    2  502    0 -0.41494029130E+02 -0.52903094505E+02  0.11061961419E+03  0.21527004182E+03  0.17200000000E+03 0. -1.
         -6    1    1    2    0  502  0.41494029130E+02  0.52903094505E+02  0.22775782194E+02  0.18607317946E+03  0.17200000000E+03 0.  1.
</event>
<event>
 4    1 -0.3240665E-004  0.1990526E+03  0.7818608E-02  0.1150541E+00
          5   -1    0    0  501    0  0.00000000000E+00  0.00000000000E+00  0.66999183085E+03  0.67000831593E+03  0.47000000000E+01 0. -1.
         -5   -1    0    0    0  501 -0.00000000000E+00 -0.00000000000E+00 -0.10804948936E+03  0.10815166273E+03  0.47000000000E+01 0.  1.
          6    1    1    2  502    0 -0.48023959344E+02 -0.87929704985E+02  0.54285007801E+03  0.57819386099E+03  0.17200000000E+03 0. -1.
         -6    1    1    2    0  502  0.48023959344E+02  0.87929704985E+02  0.19092263485E+02  0.19996611767E+03  0.17200000000E+03 0.  1.
</event>
<event>
 4    1 -0.3240665E-004  0.1888250E+03  0.7818608E-02  0.1159525E+00
          5   -1    0    0  501    0  0.00000000000E+00  0.00000000000E+00  0.34792337780E+02  0.35108357526E+02  0.47000000000E+01 0. -1.
         -5   -1    0    0    0  501 -0.00000000000E+00 -0.00000000000E+00 -0.11088398203E+04  0.11088497812E+04  0.47000000000E+01 0.  1.
          6    1    1    2  502    0 -0.29510707446E+02 -0.72110992936E+02 -0.69904976882E+03  0.72410320842E+03  0.17200000000E+03 0.  1.
         -6    1    1    2    0  502  0.29510707446E+02  0.72110992936E+02 -0.37499771374E+03  0.41985493026E+03  0.17200000000E+03 0. -1.
</event>
<event>
 4    1 -0.3240665E-004  0.2183915E+03  0.7818608E-02  0.1135088E+00
         -5   -1    0    0    0  501 -0.00000000000E+00  0.00000000000E+00  0.21282559634E+02  0.21795351444E+02  0.47000000000E+01 0.  1.
          5   -1    0    0  501    0  0.00000000000E+00 -0.00000000000E+00 -0.22672222425E+04  0.22672271141E+04  0.47000000000E+01 0. -1.
          6    1    1    2  502    0  0.12527261781E+03  0.49169178329E+02 -0.12985736327E+04  0.13168099014E+04  0.17200000000E+03 0.  1.
         -6    1    1    2    0  502 -0.12527261781E+03 -0.49169178329E+02 -0.94736605014E+03  0.97221256412E+03  0.17200000000E+03 0. -1.
</event>
<event>
 4    1 -0.3240665E-004  0.2254102E+03  0.7818608E-02  0.1129913E+00
         -5   -1    0    0    0  501 -0.00000000000E+00  0.00000000000E+00  0.11903577483E+04  0.11903670270E+04  0.47000000000E+01 0.  1.
          5   -1    0    0  501    0  0.00000000000E+00 -0.00000000000E+00 -0.43566147852E+02  0.43818936987E+02  0.47000000000E+01 0. -1.
          6    1    1    2  502    0 -0.68834333183E+02 -0.12840393520E+03  0.47923253974E+03  0.52959754828E+03  0.17200000000E+03 0. -1.
         -6    1    1    2    0  502  0.68834333183E+02  0.12840393520E+03  0.66755906074E+03  0.70458841573E+03  0.17200000000E+03 0. -1.
</event>
<event>
 4    1 -0.3240665E-004  0.3500342E+03  0.7818608E-02  0.1062601E+00
         -5   -1    0    0    0  501 -0.00000000000E+00  0.00000000000E+00  0.17574780241E+03  0.17581063691E+03  0.47000000000E+01 0.  1.
          5   -1    0    0  501    0  0.00000000000E+00 -0.00000000000E+00 -0.72950229918E+03  0.72951743948E+03  0.47000000000E+01 0. -1.
          6    1    1    2  502    0  0.95212047804E+02 -0.28961113288E+03 -0.37247497019E+03  0.51113750181E+03  0.17200000000E+03 0. -1.
         -6    1    1    2    0  502 -0.95212047804E+02  0.28961113288E+03 -0.18127952658E+03  0.39419057459E+03  0.17200000000E+03 0.  1.
</event>
<event>
 4    1 -0.3240665E-004  0.2661147E+03  0.7818608E-02  0.1103524E+00
          5   -1    0    0  501    0  0.00000000000E+00  0.00000000000E+00  0.54714723106E+03  0.54716741721E+03  0.47000000000E+01 0. -1.
         -5   -1    0    0    0  501 -0.00000000000E+00 -0.00000000000E+00 -0.24665025994E+03  0.24669503588E+03  0.47000000000E+01 0.  1.
          6    1    1    2  502    0  0.11341602144E+03 -0.16843349089E+03  0.42391546365E+03  0.50052108357E+03  0.17200000000E+03 0. -1.
         -6    1    1    2    0  502 -0.11341602144E+03  0.16843349089E+03 -0.12341849253E+03  0.29334136952E+03  0.17200000000E+03 0.  1.
</event>
<event>
 4    1 -0.3240665E-004  0.3185042E+03  0.7818608E-02  0.1076340E+00
          5   -1    0    0  501    0  0.00000000000E+00  0.00000000000E+00  0.87784962062E+03  0.87786220241E+03  0.47000000000E+01 0. -1.
         -5   -1    0    0    0  501 -0.00000000000E+00 -0.00000000000E+00 -0.26395670102E+03  0.26399854169E+03  0.47000000000E+01 0.  1.
          6    1    1    2  502    0 -0.35421359138E+02 -0.26571832465E+03  0.73505175229E+03  0.80109049382E+03  0.17200000000E+03 0. -1.
         -6    1    1    2    0  502  0.35421359138E+02  0.26571832465E+03 -0.12115883269E+03  0.34077025028E+03  0.17200000000E+03 0.  1.
</event>
<event>
 4    1 -0.3240665E-004  0.2501376E+03  0.7818608E-02  0.1113218E+00
          5   -1    0    0  501    0  0.00000000000E+00  0.00000000000E+00  0.11005080601E+04  0.11005180963E+04  0.47000000000E+01 0. -1.
         -5   -1    0    0    0  501 -0.00000000000E+00 -0.00000000000E+00 -0.57071192427E+02  0.57264395614E+02  0.47000000000E+01 0.  1.
          6    1    1    2  502    0 -0.13908123029E+03 -0.11679575273E+03  0.47816924649E+03  0.53964309017E+03  0.17200000000E+03 0. -1.
         -6    1    1    2    0  502  0.13908123029E+03  0.11679575273E+03  0.56526762117E+03  0.61813940177E+03  0.17200000000E+03 0.  1.
</event>
<event>
 4    1 -0.3240665E-004  0.2123052E+03  0.7818608E-02  0.1139753E+00
          5   -1    0    0  501    0  0.00000000000E+00  0.00000000000E+00  0.93628596424E+03  0.93629776077E+03  0.47000000000E+01 0. -1.
         -5   -1    0    0    0  501 -0.00000000000E+00 -0.00000000000E+00 -0.48532439877E+02  0.48759488517E+02  0.47000000000E+01 0.  1.
          6    1    1    2  502    0 -0.12422937783E+03 -0.75213364680E+01  0.49466143998E+03  0.53829680384E+03  0.17200000000E+03 0. -1.
         -6    1    1    2    0  502  0.12422937783E+03  0.75213364680E+01  0.39309208438E+03  0.44676044545E+03  0.17200000000E+03 0.  1.
</event>
<event>
 4    1 -0.3240665E-004  0.1976315E+03  0.7818608E-02  0.1151753E+00
         -5   -1    0    0    0  501 -0.00000000000E+00  0.00000000000E+00  0.23636624461E+03  0.23641296832E+03  0.47000000000E+01 0.  1.
          5   -1    0    0  501    0  0.00000000000E+00 -0.00000000000E+00 -0.18525872793E+03  0.18531833766E+03  0.47000000000E+01 0. -1.
          6    1    1    2  502    0 -0.21680388437E+02 -0.94890324941E+02 -0.43900973592E+02  0.20244877992E+03  0.17200000000E+03 0. -1.
         -6    1    1    2    0  502  0.21680388437E+02  0.94890324941E+02  0.95008490273E+02  0.21928252606E+03  0.17200000000E+03 0.  1.
</event>
<event>
 4    1 -0.3240665E-004  0.1983856E+03  0.7818608E-02  0.1151108E+00
         -5   -1    0    0    0  501 -0.00000000000E+00  0.00000000000E+00  0.22816023164E+03  0.22820863547E+03  0.47000000000E+01 0.  1.
          5   -1    0    0  501    0  0.00000000000E+00 -0.00000000000E+00 -0.20233259940E+03  0.20238718038E+03  0.47000000000E+01 0. -1.
          6    1    1    2  502    0  0.92748183820E+02  0.34214571190E+02 -0.69876398973E+02  0.21033205561E+03  0.17200000000E+03 0. -1.
         -6    1    1    2    0  502 -0.92748183820E+02 -0.34214571190E+02  0.95704031208E+02  0.22026376024E+03  0.17200000000E+03 0.  1.
</event>
<event>
 4    1 -0.3240665E-004  0.2031111E+03  0.7818608E-02  0.1147140E+00
          5   -1    0    0  501    0  0.00000000000E+00  0.00000000000E+00  0.17892348542E+03  0.17898520508E+03  0.47000000000E+01 0. -1.
         -5   -1    0    0    0  501 -0.00000000000E+00 -0.00000000000E+00 -0.23609502643E+03  0.23614180381E+03  0.47000000000E+01 0.  1.
          6    1    1    2  502    0 -0.23567132532E+02 -0.10542626867E+03 -0.60693517605E+02  0.21198540266E+03  0.17200000000E+03 0. -1.
         -6    1    1    2    0  502  0.23567132532E+02  0.10542626867E+03  0.35219765981E+01  0.20314160623E+03  0.17200000000E+03 0. -1.
</event>
<event>
 4    1 -0.3240665E-004  0.3270378E+03  0.7818608E-02  0.1072455E+00
          5   -1    0    0  501    0  0.00000000000E+00  0.00000000000E+00  0.85598428148E+02  0.85727363784E+02  0.47000000000E+01 0. -1.
         -5   -1    0    0    0  501 -0.00000000000E+00 -0.00000000000E+00 -0.21239332882E+04  0.21239384884E+04  0.47000000000E+01 0.  1.
          6    1    1    2  502    0  0.26881354531E+03 -0.71477305030E+02 -0.30984049662E+03  0.45050511720E+03  0.17200000000E+03 0. -1.
         -6    1    1    2    0  502 -0.26881354531E+03  0.71477305030E+02 -0.17284943634E+04  0.17591607350E+04  0.17200000000E+03 0.  1.
</event>
<event>
 4    1 -0.3240665E-004  0.5330130E+03  0.7818608E-02  0.1005504E+00
          5   -1    0    0  501    0  0.00000000000E+00  0.00000000000E+00  0.20565690518E+03  0.20571060412E+03  0.47000000000E+01 0. -1.
         -5   -1    0    0    0  501 -0.00000000000E+00 -0.00000000000E+00 -0.13817551900E+04  0.13817631835E+04  0.47000000000E+01 0.  1.
          6    1    1    2  502    0 -0.48034891776E+03  0.15421985987E+03 -0.57217942470E+03  0.78197963018E+03  0.17200000000E+03 0. -1.
         -6    1    1    2    0  502  0.48034891776E+03 -0.15421985987E+03 -0.60391886016E+03  0.80549415742E+03  0.17200000000E+03 0.  1.
</event>
<event>
 4    1 -0.3240665E-004  0.1863565E+03  0.7818608E-02  0.1161789E+00
         -5   -1    0    0    0  501 -0.00000000000E+00  0.00000000000E+00  0.12792536818E+03  0.12801167847E+03  0.47000000000E+01 0.  1.
          5   -1    0    0  501    0  0.00000000000E+00 -0.00000000000E+00 -0.60479319566E+03  0.60481145783E+03  0.47000000000E+01 0. -1.
          6    1    1    2  502    0  0.34381543961E+02 -0.62949619953E+02 -0.51050457571E+03  0.54345530363E+03  0.17200000000E+03 0. -1.
         -6    1    1    2    0  502 -0.34381543961E+02  0.62949619953E+02  0.33636748239E+02  0.18936783267E+03  0.17200000000E+03 0.  1.
</event>
<event>
 4    1 -0.3240665E-004  0.2135848E+03  0.7818608E-02  0.1138758E+00
         -5   -1    0    0    0  501 -0.00000000000E+00  0.00000000000E+00  0.19893839083E+03  0.19899390279E+03  0.47000000000E+01 0.  1.
          5   -1    0    0  501    0  0.00000000000E+00 -0.00000000000E+00 -0.32464855023E+03  0.32468256985E+03  0.47000000000E+01 0. -1.
          6    1    1    2  502    0 -0.10120893996E+03  0.76100136803E+02 -0.20481016424E+03  0.29591499408E+03  0.17200000000E+03 0. -1.
         -6    1    1    2    0  502  0.10120893996E+03 -0.76100136803E+02  0.79100004836E+02  0.22776147856E+03  0.17200000000E+03 0.  1.
</event>
<event>
 4    1 -0.3240665E-004  0.2573155E+03  0.7818608E-02  0.1108767E+00
          5   -1    0    0  501    0  0.00000000000E+00  0.00000000000E+00  0.33850928622E+03  0.33854191300E+03  0.47000000000E+01 0. -1.
         -5   -1    0    0    0  501 -0.00000000000E+00 -0.00000000000E+00 -0.30946953492E+03  0.30950522297E+03  0.47000000000E+01 0.  1.
          6    1    1    2  502    0  0.18626958838E+03  0.43942051232E+02  0.21110773574E+03  0.33283290028E+03  0.17200000000E+03 0. -1.
         -6    1    1    2    0  502 -0.18626958838E+03 -0.43942051232E+02 -0.18206798444E+03  0.31521423569E+03  0.17200000000E+03 0.  1.
</event>
<event>
 4    1 -0.3240665E-004  0.2679822E+03  0.7818608E-02  0.1102440E+00
         -5   -1    0    0    0  501 -0.00000000000E+00  0.00000000000E+00  0.40139672137E+03  0.40142423684E+03  0.47000000000E+01 0.  1.
          5   -1    0    0  501    0  0.00000000000E+00 -0.00000000000E+00 -0.72963285508E+03  0.72964799267E+03  0.47000000000E+01 0. -1.
          6    1    1    2  502    0 -0.19885651038E+03  0.51831700262E+02  0.32721950228E+03  0.42295039845E+03  0.17200000000E+03 0. -1.
         -6    1    1    2    0  502  0.19885651038E+03 -0.51831700262E+02 -0.65545563599E+03  0.70812183106E+03  0.17200000000E+03 0. -1.
</event>
<event>
 4    1 -0.3240665E-004  0.2146195E+03  0.7818608E-02  0.1137959E+00
         -5   -1    0    0    0  501 -0.00000000000E+00  0.00000000000E+00  0.36568837635E+03  0.36571857842E+03  0.47000000000E+01 0.  1.
          5   -1    0    0  501    0  0.00000000000E+00 -0.00000000000E+00 -0.14534829530E+03  0.14542426533E+03  0.47000000000E+01 0. -1.
          6    1    1    2  502    0 -0.12501209093E+03 -0.29146345440E+02  0.16669687432E+02  0.21526590722E+03  0.17200000000E+03 0. -1.
         -6    1    1    2    0  502  0.12501209093E+03  0.29146345440E+02  0.20367039362E+03  0.29587693653E+03  0.17200000000E+03 0.  1.
</event>
<event>
 4    1 -0.3240665E-004  0.6264083E+03  0.7818608E-02  0.9852083E-01
         -5   -1    0    0    0  501 -0.00000000000E+00  0.00000000000E+00  0.40244951488E+03  0.40247695839E+03  0.47000000000E+01 0.  1.
          5   -1    0    0  501    0  0.00000000000E+00 -0.00000000000E+00 -0.12101928284E+04  0.12102019550E+04  0.47000000000E+01 0. -1.
          6    1    1    2  502    0  0.25823455316E+03 -0.54416754198E+03 -0.48355642386E+02  0.62827196845E+03  0.17200000000E+03 0. -1.
         -6    1    1    2    0  502 -0.25823455316E+03  0.54416754198E+03 -0.75938767112E+03  0.98440694494E+03  0.17200000000E+03 0.  1.
</event>
<event>
 4    1 -0.3240665E-004  0.3085037E+03  0.7818608E-02  0.1081065E+00
         -5   -1    0    0    0  501 -0.00000000000E+00  0.00000000000E+00  0.14041231010E+03  0.14049094927E+03  0.47000000000E+01 0.  1.
          5   -1    0    0  501    0  0.00000000000E+00 -0.00000000000E+00 -0.92585333821E+03  0.92586526767E+03  0.47000000000E+01 0. -1.
          6    1    1    2  502    0  0.99029653049E+02  0.23618564109E+03 -0.66882588906E+03  0.73654775753E+03  0.17200000000E+03 0. -1.
         -6    1    1    2    0  502 -0.99029653049E+02 -0.23618564109E+03 -0.11661513905E+03  0.32980845941E+03  0.17200000000E+03 0.  1.
</event>
<event>
 4    1 -0.3240665E-004  0.2317851E+03  0.7818608E-02  0.1125390E+00
          5   -1    0    0  501    0  0.00000000000E+00  0.00000000000E+00  0.37346722489E+03  0.37349679793E+03  0.47000000000E+01 0. -1.
         -5   -1    0    0    0  501 -0.00000000000E+00 -0.00000000000E+00 -0.14421337802E+03  0.14428994560E+03  0.47000000000E+01 0.  1.
          6    1    1    2  502    0 -0.77308516377E+02 -0.13477279238E+03  0.12882790422E+03  0.26518095930E+03  0.17200000000E+03 0.  1.
         -6    1    1    2    0  502  0.77308516377E+02  0.13477279238E+03  0.10042594264E+03  0.25260578423E+03  0.17200000000E+03 0.  1.
</event>
<event>
 4    1 -0.3240665E-004  0.3139622E+03  0.7818608E-02  0.1078462E+00
         -5   -1    0    0    0  501 -0.00000000000E+00  0.00000000000E+00  0.69556052659E+03  0.69557640569E+03  0.47000000000E+01 0.  1.
          5   -1    0    0  501    0  0.00000000000E+00 -0.00000000000E+00 -0.14865221089E+03  0.14872649328E+03  0.47000000000E+01 0. -1.
          6    1    1    2  502    0 -0.22790721990E+03 -0.13056252926E+03  0.18192481730E+03  0.36286211442E+03  0.17200000000E+03 0. -1.
         -6    1    1    2    0  502  0.22790721990E+03  0.13056252926E+03  0.36498349839E+03  0.48144078455E+03  0.17200000000E+03 0.  1.
</event>
<event>
 4    1 -0.3240665E-004  0.1754154E+03  0.7818608E-02  0.1172315E+00
          5   -1    0    0  501    0  0.00000000000E+00  0.00000000000E+00  0.23218109083E+03  0.23222865658E+03  0.47000000000E+01 0. -1.
         -5   -1    0    0    0  501 -0.00000000000E+00 -0.00000000000E+00 -0.13328511357E+03  0.13336795530E+03  0.47000000000E+01 0.  1.
          6    1    1    2  502    0 -0.29997728244E+02 -0.16932173430E+02  0.34774549427E+02  0.17882905660E+03  0.17200000000E+03 0.  1.
         -6    1    1    2    0  502  0.29997728244E+02  0.16932173430E+02  0.64121427828E+02  0.18676755528E+03  0.17200000000E+03 0. -1.
</event>
<event>
 4    1 -0.3240665E-004  0.1950878E+03  0.7818608E-02  0.1153951E+00
          5   -1    0    0  501    0  0.00000000000E+00  0.00000000000E+00  0.49186633352E+02  0.49410675977E+02  0.47000000000E+01 0. -1.
         -5   -1    0    0    0  501 -0.00000000000E+00 -0.00000000000E+00 -0.14911998761E+04  0.14912072829E+04  0.47000000000E+01 0.  1.
          6    1    1    2  502    0 -0.21788510452E+02  0.89445544232E+02 -0.18600728658E+03  0.26955139627E+03  0.17200000000E+03 0. -1.
         -6    1    1    2    0  502  0.21788510452E+02 -0.89445544232E+02 -0.12560059562E+04  0.12710665626E+04  0.17200000000E+03 0.  1.
</event>
<event>
 4    1 -0.3240665E-004  0.2219603E+03  0.7818608E-02  0.1132430E+00
          5   -1    0    0  501    0  0.00000000000E+00  0.00000000000E+00  0.71087368734E+02  0.71242571498E+02  0.47000000000E+01 0. -1.
         -5   -1    0    0    0  501 -0.00000000000E+00 -0.00000000000E+00 -0.11305830632E+04  0.11305928325E+04  0.47000000000E+01 0.  1.
          6    1    1    2  502    0 -0.99161618421E+02 -0.99243904390E+02 -0.15555324088E+03  0.27104093764E+03  0.17200000000E+03 0. -1.
         -6    1    1    2    0  502  0.99161618421E+02  0.99243904390E+02 -0.90394245360E+03  0.93079446633E+03  0.17200000000E+03 0.  1.
</event>
<event>
 4    1 -0.3240665E-004  0.3527589E+03  0.7818608E-02  0.1061488E+00
          5   -1    0    0  501    0  0.00000000000E+00  0.00000000000E+00  0.22147816040E+03  0.22152802427E+03  0.47000000000E+01 0. -1.
         -5   -1    0    0    0  501 -0.00000000000E+00 -0.00000000000E+00 -0.57557365939E+03  0.57559284862E+03  0.47000000000E+01 0.  1.
          6    1    1    2  502    0  0.30743552311E+03  0.18391300644E+02 -0.11524689716E+03  0.37110738084E+03  0.17200000000E+03 0. -1.
         -6    1    1    2    0  502 -0.30743552311E+03 -0.18391300644E+02 -0.23884860182E+03  0.42601349204E+03  0.17200000000E+03 0. -1.
</event>
<event>
 4    1 -0.3240665E-004  0.1950582E+03  0.7818608E-02  0.1153977E+00
         -5   -1    0    0    0  501 -0.00000000000E+00  0.00000000000E+00  0.20521575224E+03  0.20526956659E+03  0.47000000000E+01 0.  1.
          5   -1    0    0  501    0  0.00000000000E+00 -0.00000000000E+00 -0.26978407727E+03  0.26982501432E+03  0.47000000000E+01 0. -1.
          6    1    1    2  502    0 -0.41657110652E+02  0.82026756842E+02 -0.16519400562E+03  0.25561056942E+03  0.17200000000E+03 0. -1.
         -6    1    1    2    0  502  0.41657110652E+02 -0.82026756842E+02  0.10062568059E+03  0.21948401149E+03  0.17200000000E+03 0.  1.
</event>
<event>
 4    1 -0.3240665E-004  0.2996311E+03  0.7818608E-02  0.1085425E+00
         -5   -1    0    0    0  501 -0.00000000000E+00  0.00000000000E+00  0.11709481226E+04  0.11709575551E+04  0.47000000000E+01 0.  1.
          5   -1    0    0  501    0  0.00000000000E+00 -0.00000000000E+00 -0.79745125061E+02  0.79883508755E+02  0.47000000000E+01 0. -1.
          6    1    1    2  502    0  0.16330948386E+03  0.18309784949E+03  0.66988415528E+03  0.73384166651E+03  0.17200000000E+03 0. -1.
         -6    1    1    2    0  502 -0.16330948386E+03 -0.18309784949E+03  0.42131884228E+03  0.51699939736E+03  0.17200000000E+03 0.  1.
</event>
<event>
 4    1 -0.3240665E-004  0.2755225E+03  0.7818608E-02  0.1098160E+00
          5   -1    0    0  501    0  0.00000000000E+00  0.00000000000E+00  0.27486581890E+03  0.27490599920E+03  0.47000000000E+01 0. -1.
         -5   -1    0    0    0  501 -0.00000000000E+00 -0.00000000000E+00 -0.28961051105E+03  0.28964864597E+03  0.47000000000E+01 0.  1.
          6    1    1    2  502    0  0.21345198595E+03 -0.27693072044E+02 -0.68331460016E+02  0.28386941536E+03  0.17200000000E+03 0. -1.
         -6    1    1    2    0  502 -0.21345198595E+03  0.27693072044E+02  0.53586767861E+02  0.28068522982E+03  0.17200000000E+03 0.  1.
</event>
<event>
 4    1 -0.3240665E-004  0.1900098E+03  0.7818608E-02  0.1158453E+00
         -5   -1    0    0    0  501 -0.00000000000E+00  0.00000000000E+00  0.28792927609E+02  0.29174006929E+02  0.47000000000E+01 0.  1.
          5   -1    0    0  501    0  0.00000000000E+00 -0.00000000000E+00 -0.13779476079E+04  0.13779556234E+04  0.47000000000E+01 0. -1.
          6    1    1    2  502    0 -0.70387823419E+02  0.39563365232E+02 -0.89285479369E+03  0.91284905004E+03  0.17200000000E+03 0. -1.
         -6    1    1    2    0  502  0.70387823419E+02 -0.39563365232E+02 -0.45629988662E+03  0.49428058032E+03  0.17200000000E+03 0.  1.
</event>
<event>
 4    1 -0.3240665E-004  0.2324226E+03  0.7818608E-02  0.1124946E+00
         -5   -1    0    0    0  501 -0.00000000000E+00  0.00000000000E+00  0.10664377963E+03  0.10674729848E+03  0.47000000000E+01 0.  1.
          5   -1    0    0  501    0  0.00000000000E+00 -0.00000000000E+00 -0.51146914414E+03  0.51149073834E+03  0.47000000000E+01 0. -1.
          6    1    1    2  502    0  0.38676877240E+02 -0.15146080809E+03 -0.23381786845E+03  0.32968329170E+03  0.17200000000E+03 0. -1.
         -6    1    1    2    0  502 -0.38676877240E+02  0.15146080809E+03 -0.17100749606E+03  0.28855474512E+03  0.17200000000E+03 0.  1.
</event>
<event>
 4    1 -0.3240665E-004  0.2923264E+03  0.7818608E-02  0.1089141E+00
          5   -1    0    0  501    0  0.00000000000E+00  0.00000000000E+00  0.22240945953E+03  0.22245911464E+03  0.47000000000E+01 0. -1.
         -5   -1    0    0    0  501 -0.00000000000E+00 -0.00000000000E+00 -0.39243191631E+03  0.39246006031E+03  0.47000000000E+01 0.  1.
          6    1    1    2  502    0  0.40489673461E+02  0.23287611355E+03 -0.40257307395E+02  0.29508532447E+03  0.17200000000E+03 0.  1.
         -6    1    1    2    0  502 -0.40489673461E+02 -0.23287611355E+03 -0.12976514938E+03  0.31983385048E+03  0.17200000000E+03 0. -1.
</event>
<event>
 4    1 -0.3240665E-004  0.2129531E+03  0.7818608E-02  0.1139249E+00
          5   -1    0    0  501    0  0.00000000000E+00  0.00000000000E+00  0.37512085599E+03  0.37515029868E+03  0.47000000000E+01 0. -1.
         -5   -1    0    0    0  501 -0.00000000000E+00 -0.00000000000E+00 -0.15651709602E+03  0.15658764749E+03  0.47000000000E+01 0.  1.
          6    1    1    2  502    0 -0.21586853340E+02  0.12368927924E+03  0.23624212053E+03  0.31805560764E+03  0.17200000000E+03 0. -1.
         -6    1    1    2    0  502  0.21586853340E+02 -0.12368927924E+03 -0.17638360562E+02  0.21368233853E+03  0.17200000000E+03 0.  1.
</event>
<event>
 4    1 -0.3240665E-004  0.2459774E+03  0.7818608E-02  0.1115874E+00
          5   -1    0    0  501    0  0.00000000000E+00  0.00000000000E+00  0.46207676389E+03  0.46210066623E+03  0.47000000000E+01 0. -1.
         -5   -1    0    0    0  501 -0.00000000000E+00 -0.00000000000E+00 -0.44382088576E+03  0.44384577123E+03  0.47000000000E+01 0.  1.
          6    1    1    2  502    0  0.11571929953E+03 -0.13240064837E+03  0.38946367199E+03  0.46063742768E+03  0.17200000000E+03 0. -1.
         -6    1    1    2    0  502 -0.11571929953E+03  0.13240064837E+03 -0.37120779386E+03  0.44530900979E+03  0.17200000000E+03 0.  1.
</event>
<event>
 4    1 -0.3240665E-004  0.3819492E+03  0.7818608E-02  0.1050216E+00
         -5   -1    0    0    0  501 -0.00000000000E+00  0.00000000000E+00  0.42235015950E+03  0.42237630997E+03  0.47000000000E+01 0.  1.
          5   -1    0    0  501    0  0.00000000000E+00 -0.00000000000E+00 -0.54802385269E+03  0.54804400655E+03  0.47000000000E+01 0. -1.
          6    1    1    2  502    0 -0.19436920769E+03 -0.28021747981E+03 -0.35788809754E+03  0.52342059116E+03  0.17200000000E+03 0. -1.
         -6    1    1    2    0  502  0.19436920769E+03  0.28021747981E+03  0.23221440434E+03  0.44699972536E+03  0.17200000000E+03 0.  1.
</event>
<event>
 4    1 -0.3240665E-004  0.3542991E+03  0.7818608E-02  0.1060864E+00
         -5   -1    0    0    0  501 -0.00000000000E+00  0.00000000000E+00  0.50676897729E+03  0.50679077176E+03  0.47000000000E+01 0.  1.
          5   -1    0    0  501    0  0.00000000000E+00 -0.00000000000E+00 -0.35239513965E+03  0.35242648091E+03  0.47000000000E+01 0. -1.
          6    1    1    2  502    0 -0.30965652873E+03 -0.75285605180E+01 -0.15701053296E+03  0.38753084067E+03  0.17200000000E+03 0. -1.
         -6    1    1    2    0  502  0.30965652873E+03  0.75285605180E+01  0.31138437061E+03  0.47168641200E+03  0.17200000000E+03 0.  1.
</event>
<event>
 4    1 -0.3240665E-004  0.2226857E+03  0.7818608E-02  0.1131896E+00
          5   -1    0    0  501    0  0.00000000000E+00  0.00000000000E+00  0.43504483137E+03  0.43507021882E+03  0.47000000000E+01 0. -1.
         -5   -1    0    0    0  501 -0.00000000000E+00 -0.00000000000E+00 -0.13262650363E+03  0.13270975648E+03  0.47000000000E+01 0.  1.
          6    1    1    2  502    0 -0.84564774681E+02  0.11337416148E+03  0.25781355092E+03  0.34067099766E+03  0.17200000000E+03 0.  1.
         -6    1    1    2    0  502  0.84564774681E+02 -0.11337416148E+03  0.44604776823E+02  0.22710897764E+03  0.17200000000E+03 0.  1.
</event>
<event>
 4    1 -0.3240665E-004  0.2150488E+03  0.7818608E-02  0.1137629E+00
          5   -1    0    0  501    0  0.00000000000E+00  0.00000000000E+00  0.22939135581E+03  0.22943949991E+03  0.47000000000E+01 0. -1.
         -5   -1    0    0    0  501 -0.00000000000E+00 -0.00000000000E+00 -0.49383681924E+03  0.49385918442E+03  0.47000000000E+01 0.  1.
          6    1    1    2  502    0 -0.60074912916E+02 -0.11424976385E+03  0.14600142376E+03  0.25992771965E+03  0.17200000000E+03 0. -1.
         -6    1    1    2    0  502  0.60074912916E+02  0.11424976385E+03 -0.41044688719E+03  0.46337096468E+03  0.17200000000E+03 0.  1.
</event>
<event>
 4    1 -0.3240665E-004  0.1853580E+03  0.7818608E-02  0.1162716E+00
          5   -1    0    0  501    0  0.00000000000E+00  0.00000000000E+00  0.12077628095E+04  0.12077719545E+04  0.47000000000E+01 0. -1.
         -5   -1    0    0    0  501 -0.00000000000E+00 -0.00000000000E+00 -0.41020002027E+02  0.41288382946E+02  0.47000000000E+01 0.  1.
          6    1    1    2  502    0 -0.62190799595E+02 -0.30098175291E+02  0.93048834486E+03  0.94877086571E+03  0.17200000000E+03 0. -1.
         -6    1    1    2    0  502  0.62190799595E+02  0.30098175291E+02  0.23625446260E+03  0.30028947169E+03  0.17200000000E+03 0.  1.
</event>
<event>
 4    1 -0.3240665E-004  0.1832130E+03  0.7818608E-02  0.1164729E+00
         -5   -1    0    0    0  501 -0.00000000000E+00  0.00000000000E+00  0.19802426376E+03  0.19808003190E+03  0.47000000000E+01 0.  1.
          5   -1    0    0  501    0  0.00000000000E+00 -0.00000000000E+00 -0.29478481070E+03  0.29482227633E+03  0.47000000000E+01 0. -1.
          6    1    1    2  502    0  0.40605670136E+02 -0.48313507717E+02 -0.20908417802E+03  0.27799857729E+03  0.17200000000E+03 0. -1.
         -6    1    1    2    0  502 -0.40605670136E+02  0.48313507717E+02  0.11232363108E+03  0.21490373094E+03  0.17200000000E+03 0.  1.
</event>
<event>
 4    1 -0.3240665E-004  0.2107503E+03  0.7818608E-02  0.1140973E+00
          5   -1    0    0  501    0  0.00000000000E+00  0.00000000000E+00  0.78447259809E+02  0.78587928918E+02  0.47000000000E+01 0. -1.
         -5   -1    0    0    0  501 -0.00000000000E+00 -0.00000000000E+00 -0.57060192319E+03  0.57062127961E+03  0.47000000000E+01 0.  1.
          6    1    1    2  502    0 -0.11763538673E+03 -0.31521185394E+02 -0.27668438484E+03  0.34780730032E+03  0.17200000000E+03 0.  1.
         -6    1    1    2    0  502  0.11763538673E+03  0.31521185394E+02 -0.21547027854E+03  0.30140190822E+03  0.17200000000E+03 0. -1.
</event>
<event>
 4    1 -0.3240665E-004  0.3049661E+03  0.7818608E-02  0.1082784E+00
          5   -1    0    0  501    0  0.00000000000E+00  0.00000000000E+00  0.13167622382E+04  0.13167706261E+04  0.47000000000E+01 0. -1.
         -5   -1    0    0    0  501 -0.00000000000E+00 -0.00000000000E+00 -0.75092931383E+02  0.75239872034E+02  0.47000000000E+01 0.  1.
          6    1    1    2  502    0 -0.17310689662E+03 -0.18290530082E+03  0.79195126495E+03  0.84864076781E+03  0.17200000000E+03 0. -1.
         -6    1    1    2    0  502  0.17310689662E+03  0.18290530082E+03  0.44971804182E+03  0.54336973035E+03  0.17200000000E+03 0.  1.
</event>
<event>
 4    1 -0.3240665E-004  0.1788707E+03  0.7818608E-02  0.1168900E+00
          5   -1    0    0  501    0  0.00000000000E+00  0.00000000000E+00  0.74475868439E+02  0.74624024146E+02  0.47000000000E+01 0. -1.
         -5   -1    0    0    0  501 -0.00000000000E+00 -0.00000000000E+00 -0.44198159443E+03  0.44200658345E+03  0.47000000000E+01 0.  1.
          6    1    1    2  502    0  0.88905965670E+01  0.48287554729E+02 -0.22799617813E+03  0.28978783255E+03  0.17200000000E+03 0.  1.
         -6    1    1    2    0  502 -0.88905965670E+01 -0.48287554729E+02 -0.13950954786E+03  0.22684277505E+03  0.17200000000E+03 0. -1.
</event>
<event>
 4    1 -0.3240665E-004  0.2938423E+03  0.7818608E-02  0.1088360E+00
         -5   -1    0    0    0  501 -0.00000000000E+00  0.00000000000E+00  0.10493429839E+03  0.10503950200E+03  0.47000000000E+01 0.  1.
          5   -1    0    0  501    0  0.00000000000E+00 -0.00000000000E+00 -0.86886656649E+03  0.86887927836E+03  0.47000000000E+01 0. -1.
          6    1    1    2  502    0 -0.64898800286E+02 -0.22923234823E+03 -0.49468229867E+03  0.57537283597E+03  0.17200000000E+03 0. -1.
         -6    1    1    2    0  502  0.64898800286E+02  0.22923234823E+03 -0.26924996942E+03  0.39854594438E+03  0.17200000000E+03 0. -1.
</event>
<event>
 4    1 -0.3240665E-004  0.2394135E+03  0.7818608E-02  0.1120184E+00
         -5   -1    0    0    0  501 -0.00000000000E+00  0.00000000000E+00  0.13941779909E+03  0.13949699890E+03  0.47000000000E+01 0.  1.
          5   -1    0    0  501    0  0.00000000000E+00 -0.00000000000E+00 -0.61398985862E+03  0.61400784725E+03  0.47000000000E+01 0. -1.
          6    1    1    2  502    0  0.12263559030E+03 -0.11267354863E+03 -0.45393756221E+03  0.51320378697E+03  0.17200000000E+03 0. -1.
         -6    1    1    2    0  502 -0.12263559030E+03  0.11267354863E+03 -0.20634497319E+02  0.24030105919E+03  0.17200000000E+03 0.  1.
</event>
<event>
 4    1 -0.3240665E-004  0.2540503E+03  0.7818608E-02  0.1110772E+00
         -5   -1    0    0    0  501 -0.00000000000E+00  0.00000000000E+00  0.13642769048E+03  0.13650862511E+03  0.47000000000E+01 0.  1.
          5   -1    0    0  501    0  0.00000000000E+00 -0.00000000000E+00 -0.78065636622E+03  0.78067051444E+03  0.47000000000E+01 0. -1.
          6    1    1    2  502    0 -0.82055441688E+01  0.18678919489E+03 -0.34171905379E+02  0.25633816220E+03  0.17200000000E+03 0.  1.
         -6    1    1    2    0  502  0.82055441688E+01 -0.18678919489E+03 -0.61005677036E+03  0.66084097735E+03  0.17200000000E+03 0. -1.
</event>
<event>
 4    1 -0.3240665E-004  0.2255641E+03  0.7818608E-02  0.1129802E+00
         -5   -1    0    0    0  501 -0.00000000000E+00  0.00000000000E+00  0.23463509236E+03  0.23468216074E+03  0.47000000000E+01 0.  1.
          5   -1    0    0  501    0  0.00000000000E+00 -0.00000000000E+00 -0.23288884523E+03  0.23293626646E+03  0.47000000000E+01 0. -1.
          6    1    1    2  502    0  0.12556636879E+03  0.74352073261E+02 -0.60664629541E+02  0.23357941058E+03  0.17200000000E+03 0. -1.
         -6    1    1    2    0  502 -0.12556636879E+03 -0.74352073261E+02  0.62410876674E+02  0.23403901661E+03  0.17200000000E+03 0. -1.
</event>
<event>
 4    1 -0.3240665E-004  0.2996277E+03  0.7818608E-02  0.1085427E+00
         -5   -1    0    0    0  501 -0.00000000000E+00  0.00000000000E+00  0.23903651023E+04  0.23903697229E+04  0.47000000000E+01 0.  1.
          5   -1    0    0  501    0  0.00000000000E+00 -0.00000000000E+00 -0.40775851807E+02  0.41045829149E+02  0.47000000000E+01 0. -1.
          6    1    1    2  502    0 -0.23704431994E+03  0.63267061774E+02  0.82652980863E+03  0.87916338372E+03  0.17200000000E+03 0. -1.
         -6    1    1    2    0  502  0.23704431994E+03 -0.63267061774E+02  0.15230594419E+04  0.15522521683E+04  0.17200000000E+03 0.  1.
</event>
<event>
 4    1 -0.3240665E-004  0.3136848E+03  0.7818608E-02  0.1078593E+00
         -5   -1    0    0    0  501 -0.00000000000E+00  0.00000000000E+00  0.43829639657E+03  0.43832159569E+03  0.47000000000E+01 0.  1.
          5   -1    0    0  501    0  0.00000000000E+00 -0.00000000000E+00 -0.30142327839E+03  0.30145991898E+03  0.47000000000E+01 0. -1.
          6    1    1    2  502    0  0.25810215250E+03 -0.46876961182E+02 -0.11846787298E+03  0.33531001706E+03  0.17200000000E+03 0. -1.
         -6    1    1    2    0  502 -0.25810215250E+03  0.46876961182E+02  0.25534099116E+03  0.40447149761E+03  0.17200000000E+03 0.  1.
</event>
<event>
 4    1 -0.3240665E-004  0.2597086E+03  0.7818608E-02  0.1107318E+00
         -5   -1    0    0    0  501 -0.00000000000E+00  0.00000000000E+00  0.68183549727E+03  0.68185169600E+03  0.47000000000E+01 0.  1.
          5   -1    0    0  501    0  0.00000000000E+00 -0.00000000000E+00 -0.11449124953E+03  0.11458767918E+03  0.47000000000E+01 0. -1.
          6    1    1    2  502    0  0.18497400480E+03 -0.60408317262E+02  0.43078843190E+03  0.50301811131E+03  0.17200000000E+03 0.  1.
         -6    1    1    2    0  502 -0.18497400480E+03  0.60408317262E+02  0.13655581584E+03  0.29342126387E+03  0.17200000000E+03 0. -1.
</event>
<event>
 4    1 -0.3240665E-004  0.3088723E+03  0.7818608E-02  0.1080888E+00
         -5   -1    0    0    0  501 -0.00000000000E+00  0.00000000000E+00  0.20673392993E+03  0.20678734919E+03  0.47000000000E+01 0.  1.
          5   -1    0    0  501    0  0.00000000000E+00 -0.00000000000E+00 -0.64275530087E+03  0.64277248447E+03  0.47000000000E+01 0. -1.
          6    1    1    2  502    0  0.44426370467E+02  0.25267446552E+03 -0.44366506161E+03  0.54059298443E+03  0.17200000000E+03 0. -1.
         -6    1    1    2    0  502 -0.44426370467E+02 -0.25267446552E+03  0.76436906715E+01  0.30896684923E+03  0.17200000000E+03 0.  1.
</event>
<event>
 4    1 -0.3240665E-004  0.2394679E+03  0.7818608E-02  0.1120148E+00
         -5   -1    0    0    0  501 -0.00000000000E+00  0.00000000000E+00  0.34479711768E+02  0.34798570712E+02  0.47000000000E+01 0.  1.
          5   -1    0    0  501    0  0.00000000000E+00 -0.00000000000E+00 -0.19379900995E+04  0.19379957987E+04  0.47000000000E+01 0. -1.
          6    1    1    2  502    0 -0.94943025523E+02 -0.13691853857E+03 -0.13285405091E+04  0.13499499060E+04  0.17200000000E+03 0. -1.
         -6    1    1    2    0  502  0.94943025523E+02  0.13691853857E+03 -0.57496987857E+03  0.62284446338E+03  0.17200000000E+03 0.  1.
</event>
<event>
 4    1 -0.3240665E-004  0.2142267E+03  0.7818608E-02  0.1138262E+00
         -5   -1    0    0    0  501 -0.00000000000E+00  0.00000000000E+00  0.24770617223E+03  0.24775075733E+03  0.47000000000E+01 0.  1.
          5   -1    0    0  501    0  0.00000000000E+00 -0.00000000000E+00 -0.38137071607E+03  0.38139967630E+03  0.47000000000E+01 0. -1.
          6    1    1    2  502    0 -0.12768202800E+03  0.25228276063E+01 -0.29243181807E+03  0.36250439053E+03  0.17200000000E+03 0. -1.
         -6    1    1    2    0  502  0.12768202800E+03 -0.25228276063E+01  0.15876727423E+03  0.26664604310E+03  0.17200000000E+03 0.  1.
</event>
<event>
 4    1 -0.3240665E-004  0.3081760E+03  0.7818608E-02  0.1081223E+00
          5   -1    0    0  501    0  0.00000000000E+00  0.00000000000E+00  0.38076571694E+03  0.38079472317E+03  0.47000000000E+01 0. -1.
         -5   -1    0    0    0  501 -0.00000000000E+00 -0.00000000000E+00 -0.29557522773E+03  0.29561259318E+03  0.47000000000E+01 0.  1.
          6    1    1    2  502    0 -0.11160002629E+03  0.23007361646E+03  0.17630582296E+03  0.35504391006E+03  0.17200000000E+03 0. -1.
         -6    1    1    2    0  502  0.11160002629E+03 -0.23007361646E+03 -0.91115333742E+02  0.32136340629E+03  0.17200000000E+03 0.  1.
</event>
<event>
 4    1 -0.3240665E-004  0.1764608E+03  0.7818608E-02  0.1171273E+00
          5   -1    0    0  501    0  0.00000000000E+00  0.00000000000E+00  0.10257328491E+03  0.10268090756E+03  0.47000000000E+01 0. -1.
         -5   -1    0    0    0  501 -0.00000000000E+00 -0.00000000000E+00 -0.31767871992E+03  0.31771348584E+03  0.47000000000E+01 0.  1.
          6    1    1    2  502    0  0.29055486271E+02 -0.26649398979E+02 -0.62823998167E+02  0.18731061501E+03  0.17200000000E+03 0. -1.
         -6    1    1    2    0  502 -0.29055486271E+02  0.26649398979E+02 -0.15228143684E+03  0.23308377840E+03  0.17200000000E+03 0.  1.
</event>
<event>
 4    1 -0.3240665E-004  0.2025687E+03  0.7818608E-02  0.1147590E+00
         -5   -1    0    0    0  501 -0.00000000000E+00  0.00000000000E+00  0.44410773867E+03  0.44413260806E+03  0.47000000000E+01 0.  1.
          5   -1    0    0  501    0  0.00000000000E+00 -0.00000000000E+00 -0.13910577328E+03  0.13918515064E+03  0.47000000000E+01 0. -1.
          6    1    1    2  502    0  0.53573814721E+02 -0.92627785402E+02  0.32158974110E+03  0.38007107471E+03  0.17200000000E+03 0. -1.
         -6    1    1    2    0  502 -0.53573814721E+02  0.92627785402E+02 -0.16587775710E+02  0.20324668400E+03  0.17200000000E+03 0. -1.
</event>
<event>
 4    1 -0.3240665E-004  0.1739945E+03  0.7818608E-02  0.1173745E+00
          5   -1    0    0  501    0  0.00000000000E+00  0.00000000000E+00  0.17334979809E+03  0.17341350149E+03  0.47000000000E+01 0. -1.
         -5   -1    0    0    0  501 -0.00000000000E+00 -0.00000000000E+00 -0.28025639964E+03  0.28029580721E+03  0.47000000000E+01 0.  1.
          6    1    1    2  502    0 -0.10581926339E+02  0.24043738473E+02  0.85864020420E+02  0.19402759733E+03  0.17200000000E+03 0. -1.
         -6    1    1    2    0  502  0.10581926339E+02 -0.24043738473E+02 -0.19277062197E+03  0.25968171137E+03  0.17200000000E+03 0.  1.
</event>
<event>
 4    1 -0.3240665E-004  0.2585487E+03  0.7818608E-02  0.1108018E+00
         -5   -1    0    0    0  501 -0.00000000000E+00  0.00000000000E+00  0.36156000921E+03  0.36159055609E+03  0.47000000000E+01 0.  1.
          5   -1    0    0  501    0  0.00000000000E+00 -0.00000000000E+00 -0.18890841567E+03  0.18896687411E+03  0.47000000000E+01 0. -1.
          6    1    1    2  502    0  0.42699476599E+02  0.18825557258E+03  0.12682410166E+03  0.28797874691E+03  0.17200000000E+03 0. -1.
         -6    1    1    2    0  502 -0.42699476599E+02 -0.18825557258E+03  0.45827491870E+02  0.26257868329E+03  0.17200000000E+03 0.  1.
</event>
<event>
 4    1 -0.3240665E-004  0.4060970E+03  0.7818608E-02  0.1041689E+00
          5   -1    0    0  501    0  0.00000000000E+00  0.00000000000E+00  0.96767861559E+03  0.96769002944E+03  0.47000000000E+01 0. -1.
         -5   -1    0    0    0  501 -0.00000000000E+00 -0.00000000000E+00 -0.32621763249E+03  0.32625148850E+03  0.47000000000E+01 0.  1.
          6    1    1    2  502    0  0.36108225598E+03  0.70358742753E+02  0.76785568109E+03  0.86862943494E+03  0.17200000000E+03 0. -1.
         -6    1    1    2    0  502 -0.36108225598E+03 -0.70358742753E+02 -0.12639469799E+03  0.42531208300E+03  0.17200000000E+03 0.  1.
</event>
<event>
 4    1 -0.3240665E-004  0.1866019E+03  0.7818608E-02  0.1161562E+00
         -5   -1    0    0    0  501 -0.00000000000E+00  0.00000000000E+00  0.22179203751E+03  0.22184183082E+03  0.47000000000E+01 0.  1.
          5   -1    0    0  501    0  0.00000000000E+00 -0.00000000000E+00 -0.17097104726E+03  0.17103563664E+03  0.47000000000E+01 0. -1.
          6    1    1    2  502    0  0.37320407113E+02  0.61995763992E+02  0.81760542572E+02  0.20372794080E+03  0.17200000000E+03 0. -1.
         -6    1    1    2    0  502 -0.37320407113E+02 -0.61995763992E+02 -0.30939552327E+02  0.18914952667E+03  0.17200000000E+03 0.  1.
</event>
<event>
 4    1 -0.3240665E-004  0.4091374E+03  0.7818608E-02  0.1040661E+00
          5   -1    0    0  501    0  0.00000000000E+00  0.00000000000E+00  0.67644168759E+03  0.67645801548E+03  0.47000000000E+01 0. -1.
         -5   -1    0    0    0  501 -0.00000000000E+00 -0.00000000000E+00 -0.26475626901E+03  0.26479798334E+03  0.47000000000E+01 0.  1.
          6    1    1    2  502    0 -0.29076340337E+02 -0.37008643819E+03  0.32625835044E+03  0.52329524795E+03  0.17200000000E+03 0. -1.
         -6    1    1    2    0  502  0.29076340337E+02  0.37008643819E+03  0.85427068136E+02  0.41796075087E+03  0.17200000000E+03 0.  1.
</event>
<event>
 4    1 -0.3240665E-004  0.2337590E+03  0.7818608E-02  0.1124022E+00
         -5   -1    0    0    0  501 -0.00000000000E+00  0.00000000000E+00  0.16089456117E+03  0.16096319398E+03  0.47000000000E+01 0.  1.
          5   -1    0    0  501    0  0.00000000000E+00 -0.00000000000E+00 -0.42053947727E+03  0.42056574033E+03  0.47000000000E+01 0. -1.
          6    1    1    2  502    0 -0.79918257765E+02  0.13664681713E+03 -0.25747549297E+03  0.34775984535E+03  0.17200000000E+03 0. -1.
         -6    1    1    2    0  502  0.79918257765E+02 -0.13664681713E+03 -0.21694231292E+01  0.23376908896E+03  0.17200000000E+03 0.  1.
</event>
<event>
 4    1 -0.3240665E-004  0.2064530E+03  0.7818608E-02  0.1144406E+00
          5   -1    0    0  501    0  0.00000000000E+00  0.00000000000E+00  0.21271474274E+03  0.21276666041E+03  0.47000000000E+01 0. -1.
         -5   -1    0    0    0  501 -0.00000000000E+00 -0.00000000000E+00 -0.20392070954E+03  0.20397486556E+03  0.47000000000E+01 0.  1.
          6    1    1    2  502    0 -0.10945039923E+03  0.32549264688E+02  0.32263526521E+02  0.20895879897E+03  0.17200000000E+03 0. -1.
         -6    1    1    2    0  502  0.10945039923E+03 -0.32549264688E+02 -0.23469493322E+02  0.20778272700E+03  0.17200000000E+03 0. -1.
</event>
<event>
 4    1 -0.3240665E-004  0.3673343E+03  0.7818608E-02  0.1055717E+00
         -5   -1    0    0    0  501 -0.00000000000E+00  0.00000000000E+00  0.65330354630E+03  0.65332045246E+03  0.47000000000E+01 0.  1.
          5   -1    0    0  501    0  0.00000000000E+00 -0.00000000000E+00 -0.40853713229E+03  0.40856416688E+03  0.47000000000E+01 0. -1.
          6    1    1    2  502    0  0.61427398434E+02 -0.31871173655E+03 -0.25097149860E+03  0.44488334359E+03  0.17200000000E+03 0. -1.
         -6    1    1    2    0  502 -0.61427398434E+02  0.31871173655E+03  0.49573791261E+03  0.61700127576E+03  0.17200000000E+03 0.  1.
</event>
<event>
 4    1 -0.3240665E-004  0.1837820E+03  0.7818608E-02  0.1164192E+00
          5   -1    0    0  501    0  0.00000000000E+00  0.00000000000E+00  0.69223654090E+03  0.69225249624E+03  0.47000000000E+01 0. -1.
         -5   -1    0    0    0  501 -0.00000000000E+00 -0.00000000000E+00 -0.65927258397E+02  0.66094579200E+02  0.47000000000E+01 0.  1.
          6    1    1    2  502    0 -0.63292231178E+02  0.13634687896E+02  0.50687936729E+03  0.53916834498E+03  0.17200000000E+03 0. -1.
         -6    1    1    2    0  502  0.63292231178E+02 -0.13634687896E+02  0.11942991521E+03  0.21917873047E+03  0.17200000000E+03 0.  1.
</event>
<event>
 4    1 -0.3240665E-004  0.3033587E+03  0.7818608E-02  0.1083574E+00
         -5   -1    0    0    0  501 -0.00000000000E+00  0.00000000000E+00  0.15364266256E+04  0.15364338144E+04  0.47000000000E+01 0.  1.
          5   -1    0    0  501    0  0.00000000000E+00 -0.00000000000E+00 -0.76265776578E+02  0.76410461830E+02  0.47000000000E+01 0. -1.
          6    1    1    2  502    0 -0.24169946426E+03  0.63433824229E+02  0.35576203819E+03  0.46753941962E+03  0.17200000000E+03 0. -1.
         -6    1    1    2    0  502  0.24169946426E+03 -0.63433824229E+02  0.11043988109E+04  0.11453048566E+04  0.17200000000E+03 0.  1.
</event>
<event>
 4    1 -0.3240665E-004  0.2970759E+03  0.7818608E-02  0.1086712E+00
         -5   -1    0    0    0  501 -0.00000000000E+00  0.00000000000E+00  0.35737393411E+03  0.35740483877E+03  0.47000000000E+01 0.  1.
          5   -1    0    0  501    0  0.00000000000E+00 -0.00000000000E+00 -0.47915816792E+03  0.47918121821E+03  0.47000000000E+01 0. -1.
          6    1    1    2  502    0  0.60708264887E+02 -0.23448790483E+03 -0.35210383208E+03  0.46068555382E+03  0.17200000000E+03 0. -1.
         -6    1    1    2    0  502 -0.60708264887E+02  0.23448790483E+03  0.23031959826E+03  0.37590050316E+03  0.17200000000E+03 0.  1.
</event>
<event>
 4    1 -0.3240665E-004  0.2621924E+03  0.7818608E-02  0.1105833E+00
          5   -1    0    0  501    0  0.00000000000E+00  0.00000000000E+00  0.18048647933E+03  0.18054766468E+03  0.47000000000E+01 0. -1.
         -5   -1    0    0    0  501 -0.00000000000E+00 -0.00000000000E+00 -0.64133600414E+03  0.64135322577E+03  0.47000000000E+01 0.  1.
          6    1    1    2  502    0 -0.62395405772E+02 -0.18779682146E+03  0.31512270655E+02  0.26407926086E+03  0.17200000000E+03 0. -1.
         -6    1    1    2    0  502  0.62395405772E+02  0.18779682146E+03 -0.49236179547E+03  0.55782162960E+03  0.17200000000E+03 0.  1.
</event>
<event>
 4    1 -0.3240665E-004  0.1935313E+03  0.7818608E-02  0.1155314E+00
         -5   -1    0    0    0  501 -0.00000000000E+00  0.00000000000E+00  0.15276628949E+04  0.15276701249E+04  0.47000000000E+01 0.  1.
          5   -1    0    0  501    0  0.00000000000E+00 -0.00000000000E+00 -0.55714579849E+02  0.55912470950E+02  0.47000000000E+01 0. -1.
          6    1    1    2  502    0  0.16571957854E+02 -0.87153402458E+02  0.14303707250E+03  0.24065317255E+03  0.17200000000E+03 0. -1.
         -6    1    1    2    0  502 -0.16571957854E+02  0.87153402458E+02  0.13289112425E+04  0.13429294233E+04  0.17200000000E+03 0.  1.
</event>
<event>
 4    1 -0.3240665E-004  0.2239921E+03  0.7818608E-02  0.1130941E+00
          5   -1    0    0  501    0  0.00000000000E+00  0.00000000000E+00  0.31183571103E+03  0.31187112831E+03  0.47000000000E+01 0. -1.
         -5   -1    0    0    0  501 -0.00000000000E+00 -0.00000000000E+00 -0.21746249970E+03  0.21751328413E+03  0.47000000000E+01 0.  1.
          6    1    1    2  502    0  0.11448941533E+03  0.86490737769E+02  0.18225202696E+03  0.28877028115E+03  0.17200000000E+03 0. -1.
         -6    1    1    2    0  502 -0.11448941533E+03 -0.86490737769E+02 -0.87878815631E+02  0.24061413129E+03  0.17200000000E+03 0.  1.
</event>
<event>
 4    1 -0.3240665E-004  0.1948565E+03  0.7818608E-02  0.1154153E+00
          5   -1    0    0  501    0  0.00000000000E+00  0.00000000000E+00  0.81014389105E+02  0.81150608390E+02  0.47000000000E+01 0. -1.
         -5   -1    0    0    0  501 -0.00000000000E+00 -0.00000000000E+00 -0.54288078471E+03  0.54290112950E+03  0.47000000000E+01 0.  1.
          6    1    1    2  502    0  0.83398573324E+02 -0.37811725484E+02 -0.11516568816E+03  0.22634527683E+03  0.17200000000E+03 0. -1.
         -6    1    1    2    0  502 -0.83398573324E+02  0.37811725484E+02 -0.34670070745E+03  0.39770646105E+03  0.17200000000E+03 0.  1.
</event>
<event>
 4    1 -0.3240665E-004  0.2864021E+03  0.7818608E-02  0.1092243E+00
          5   -1    0    0  501    0  0.00000000000E+00  0.00000000000E+00  0.29212937885E+03  0.29216718500E+03  0.47000000000E+01 0. -1.
         -5   -1    0    0    0  501 -0.00000000000E+00 -0.00000000000E+00 -0.28472253083E+03  0.28476132034E+03  0.47000000000E+01 0.  1.
          6    1    1    2  502    0 -0.22856908178E+03  0.14083765844E+02  0.37936818160E+02  0.28890375522E+03  0.17200000000E+03 0. -1.
         -6    1    1    2    0  502  0.22856908178E+03 -0.14083765844E+02 -0.30529970136E+02  0.28802475012E+03  0.17200000000E+03 0. -1.
</event>
<event>
 4    1 -0.3240665E-004  0.4884847E+03  0.7818608E-02  0.1016829E+00
          5   -1    0    0  501    0  0.00000000000E+00  0.00000000000E+00  0.83307335841E+03  0.83308661644E+03  0.47000000000E+01 0. -1.
         -5   -1    0    0    0  501 -0.00000000000E+00 -0.00000000000E+00 -0.31965749473E+03  0.31969204547E+03  0.47000000000E+01 0.  1.
          6    1    1    2  502    0 -0.41119929021E+03 -0.19987108088E+03  0.44262320452E+03  0.65919087252E+03  0.17200000000E+03 0. -1.
         -6    1    1    2    0  502  0.41119929021E+03  0.19987108088E+03  0.70792659157E+02  0.49358778938E+03  0.17200000000E+03 0.  1.
</event>
<event>
 4    1 -0.3240665E-004  0.2352284E+03  0.7818608E-02  0.1123013E+00
          5   -1    0    0  501    0  0.00000000000E+00  0.00000000000E+00  0.11851137533E+04  0.11851230731E+04  0.47000000000E+01 0. -1.
         -5   -1    0    0    0  501 -0.00000000000E+00 -0.00000000000E+00 -0.11996420854E+03  0.12005624237E+03  0.47000000000E+01 0.  1.
          6    1    1    2  502    0  0.80089093583E+02  0.13904720340E+03  0.10426751804E+04  0.10688797498E+04  0.17200000000E+03 0. -1.
         -6    1    1    2    0  502 -0.80089093583E+02 -0.13904720340E+03  0.22474364411E+02  0.23629956568E+03  0.17200000000E+03 0.  1.
</event>
<event>
 4    1 -0.3240665E-004  0.2549815E+03  0.7818608E-02  0.1110197E+00
         -5   -1    0    0    0  501 -0.00000000000E+00  0.00000000000E+00  0.29002390766E+03  0.29006198823E+03  0.47000000000E+01 0.  1.
          5   -1    0    0  501    0  0.00000000000E+00 -0.00000000000E+00 -0.30941197008E+03  0.30944766477E+03  0.47000000000E+01 0. -1.
          6    1    1    2  502    0 -0.13711087191E+03  0.12896571120E+03 -0.16707681725E+03  0.30484456486E+03  0.17200000000E+03 0. -1.
         -6    1    1    2    0  502  0.13711087191E+03 -0.12896571120E+03  0.14768875483E+03  0.29466508813E+03  0.17200000000E+03 0.  1.
</event>
<event>
 4    1 -0.3240665E-004  0.2353792E+03  0.7818608E-02  0.1122910E+00
         -5   -1    0    0    0  501 -0.00000000000E+00  0.00000000000E+00  0.12530520926E+03  0.12539332306E+03  0.47000000000E+01 0.  1.
          5   -1    0    0  501    0  0.00000000000E+00 -0.00000000000E+00 -0.45547567244E+03  0.45549992117E+03  0.47000000000E+01 0. -1.
          6    1    1    2  502    0  0.58240869648E+01  0.16057848669E+03 -0.11493202066E+03  0.26194033624E+03  0.17200000000E+03 0.  1.
         -6    1    1    2    0  502 -0.58240869648E+01 -0.16057848669E+03 -0.21523844252E+03  0.31895290799E+03  0.17200000000E+03 0. -1.
</event>
<event>
 4    1 -0.3240665E-004  0.1864175E+03  0.7818608E-02  0.1161733E+00
          5   -1    0    0  501    0  0.00000000000E+00  0.00000000000E+00  0.76059739114E+03  0.76061191248E+03  0.47000000000E+01 0. -1.
         -5   -1    0    0    0  501 -0.00000000000E+00 -0.00000000000E+00 -0.64761449436E+02  0.64931774448E+02  0.47000000000E+01 0.  1.
          6    1    1    2  502    0  0.45431801381E+01 -0.71741575543E+02  0.57233180541E+03  0.60192623271E+03  0.17200000000E+03 0. -1.
         -6    1    1    2    0  502 -0.45431801381E+01  0.71741575543E+02  0.12350413629E+03  0.22361745421E+03  0.17200000000E+03 0.  1.
</event>
<event>
 4    1 -0.3240665E-004  0.1770798E+03  0.7818608E-02  0.1170660E+00
          5   -1    0    0  501    0  0.00000000000E+00  0.00000000000E+00  0.45549439913E+03  0.45551864686E+03  0.47000000000E+01 0. -1.
         -5   -1    0    0    0  501 -0.00000000000E+00 -0.00000000000E+00 -0.11803415456E+03  0.11812769211E+03  0.47000000000E+01 0.  1.
          6    1    1    2  502    0 -0.28648646181E+02 -0.30862735928E+02  0.35397576052E+03  0.39579804501E+03  0.17200000000E+03 0. -1.
         -6    1    1    2    0  502  0.28648646181E+02  0.30862735928E+02 -0.16515515949E+02  0.17784829396E+03  0.17200000000E+03 0.  1.
</event>
<event>
 4    1 -0.3240665E-004  0.2201401E+03  0.7818608E-02  0.1133779E+00
          5   -1    0    0  501    0  0.00000000000E+00  0.00000000000E+00  0.13211220993E+03  0.13219578667E+03  0.47000000000E+01 0. -1.
         -5   -1    0    0    0  501 -0.00000000000E+00 -0.00000000000E+00 -0.36672063319E+03  0.36675075024E+03  0.47000000000E+01 0.  1.
          6    1    1    2  502    0  0.83865484364E+02  0.10883120177E+03 -0.11291823006E+03  0.24741094686E+03  0.17200000000E+03 0. -1.
         -6    1    1    2    0  502 -0.83865484364E+02 -0.10883120177E+03 -0.12169019320E+03  0.25153559006E+03  0.17200000000E+03 0.  1.
</event>
<event>
 4    1 -0.3240665E-004  0.2331531E+03  0.7818608E-02  0.1124440E+00
         -5   -1    0    0    0  501 -0.00000000000E+00  0.00000000000E+00  0.19321932027E+03  0.19327647484E+03  0.47000000000E+01 0.  1.
          5   -1    0    0  501    0  0.00000000000E+00 -0.00000000000E+00 -0.50528570909E+03  0.50530756754E+03  0.47000000000E+01 0. -1.
          6    1    1    2  502    0  0.46632189933E+02  0.15033904853E+03 -0.38861100065E+03  0.45318748932E+03  0.17200000000E+03 0. -1.
         -6    1    1    2    0  502 -0.46632189933E+02 -0.15033904853E+03  0.76544611830E+02  0.24539655305E+03  0.17200000000E+03 0.  1.
</event>
<event>
 4    1 -0.3240665E-004  0.3025992E+03  0.7818608E-02  0.1083948E+00
          5   -1    0    0  501    0  0.00000000000E+00  0.00000000000E+00  0.50943310456E+03  0.50945478506E+03  0.47000000000E+01 0. -1.
         -5   -1    0    0    0  501 -0.00000000000E+00 -0.00000000000E+00 -0.21271644076E+03  0.21276835801E+03  0.47000000000E+01 0.  1.
          6    1    1    2  502    0 -0.23436054033E+03 -0.84008440608E+02  0.29063142222E+03  0.41956275399E+03  0.17200000000E+03 0. -1.
         -6    1    1    2    0  502  0.23436054033E+03  0.84008440608E+02  0.60852415800E+01  0.30266038908E+03  0.17200000000E+03 0.  1.
</event>
<event>
 4    1 -0.3240665E-004  0.3042436E+03  0.7818608E-02  0.1083138E+00
         -5   -1    0    0    0  501 -0.00000000000E+00  0.00000000000E+00  0.15898770003E+04  0.15898839473E+04  0.47000000000E+01 0.  1.
          5   -1    0    0  501    0  0.00000000000E+00 -0.00000000000E+00 -0.90367011490E+02  0.90489152751E+02  0.47000000000E+01 0. -1.
          6    1    1    2  502    0 -0.12379368082E+03 -0.21830097876E+03  0.24830120408E+03  0.39270559034E+03  0.17200000000E+03 0. -1.
         -6    1    1    2    0  502  0.12379368082E+03  0.21830097876E+03  0.12512087847E+04  0.12876675097E+04  0.17200000000E+03 0.  1.
</event>
<event>
 4    1 -0.3240665E-004  0.1813855E+03  0.7818608E-02  0.1166469E+00
         -5   -1    0    0    0  501 -0.00000000000E+00  0.00000000000E+00  0.15034815842E+03  0.15042160330E+03  0.47000000000E+01 0.  1.
          5   -1    0    0  501    0  0.00000000000E+00 -0.00000000000E+00 -0.22838241940E+03  0.22843077614E+03  0.47000000000E+01 0. -1.
          6    1    1    2  502    0 -0.56397436702E+02 -0.11662743823E+02  0.20127357895E-01  0.18138547589E+03  0.17200000000E+03 0.  1.
         -6    1    1    2    0  502  0.56397436702E+02  0.11662743823E+02 -0.78054388335E+02  0.19746690355E+03  0.17200000000E+03 0.  1.
</event>
<event>
 4    1 -0.3240665E-004  0.1843908E+03  0.7818608E-02  0.1163620E+00
          5   -1    0    0  501    0  0.00000000000E+00  0.00000000000E+00  0.20792349763E+03  0.20797661135E+03  0.47000000000E+01 0. -1.
         -5   -1    0    0    0  501 -0.00000000000E+00 -0.00000000000E+00 -0.22993403208E+03  0.22998206258E+03  0.47000000000E+01 0.  1.
          6    1    1    2  502    0 -0.52996491217E+02  0.40091460037E+02  0.10674830186E+03  0.21306138364E+03  0.17200000000E+03 0. -1.
         -6    1    1    2    0  502  0.52996491217E+02 -0.40091460037E+02 -0.12875883631E+03  0.22489729028E+03  0.17200000000E+03 0.  1.
</event>
<event>
 4    1 -0.3240665E-004  0.1867300E+03  0.7818608E-02  0.1161444E+00
         -5   -1    0    0    0  501 -0.00000000000E+00  0.00000000000E+00  0.23015628082E+03  0.23020426495E+03  0.47000000000E+01 0.  1.
          5   -1    0    0  501    0  0.00000000000E+00 -0.00000000000E+00 -0.16646674798E+03  0.16653308435E+03  0.47000000000E+01 0. -1.
          6    1    1    2  502    0  0.66764009799E+02 -0.28751936460E+02 -0.27818212744E+02  0.18879078318E+03  0.17200000000E+03 0. -1.
         -6    1    1    2    0  502 -0.66764009799E+02  0.28751936460E+02  0.91507745589E+02  0.20794656611E+03  0.17200000000E+03 0.  1.
</event>
<event>
 4    1 -0.3240665E-004  0.3066784E+03  0.7818608E-02  0.1081949E+00
         -5   -1    0    0    0  501 -0.00000000000E+00  0.00000000000E+00  0.19153846462E+04  0.19153904127E+04  0.47000000000E+01 0.  1.
          5   -1    0    0  501    0  0.00000000000E+00 -0.00000000000E+00 -0.56150219378E+02  0.56346580519E+02  0.47000000000E+01 0. -1.
          6    1    1    2  502    0  0.89025634029E+02  0.23778583154E+03  0.57811838316E+03  0.65442534345E+03  0.17200000000E+03 0. -1.
         -6    1    1    2    0  502 -0.89025634029E+02 -0.23778583154E+03  0.12811160437E+04  0.13173116497E+04  0.17200000000E+03 0.  1.
</event>
<event>
 4    1 -0.3240665E-004  0.1877244E+03  0.7818608E-02  0.1160530E+00
         -5   -1    0    0    0  501 -0.00000000000E+00  0.00000000000E+00  0.18576506418E+03  0.18582451149E+03  0.47000000000E+01 0.  1.
          5   -1    0    0  501    0  0.00000000000E+00 -0.00000000000E+00 -0.19320743842E+03  0.19326459650E+03  0.47000000000E+01 0. -1.
          6    1    1    2  502    0  0.73058457842E+02 -0.17857820676E+02  0.22223178883E+02  0.18903520757E+03  0.17200000000E+03 0.  1.
         -6    1    1    2    0  502 -0.73058457842E+02  0.17857820676E+02 -0.29665553120E+02  0.19005390042E+03  0.17200000000E+03 0. -1.
</event>
<event>
 4    1 -0.3240665E-004  0.4069765E+03  0.7818608E-02  0.1041390E+00
          5   -1    0    0  501    0  0.00000000000E+00  0.00000000000E+00  0.10649979321E+04  0.10650083029E+04  0.47000000000E+01 0. -1.
         -5   -1    0    0    0  501 -0.00000000000E+00 -0.00000000000E+00 -0.16208495209E+03  0.16215308105E+03  0.47000000000E+01 0.  1.
          6    1    1    2  502    0  0.19669044884E+03  0.31202360191E+03  0.32757578873E+03  0.52243253936E+03  0.17200000000E+03 0.  1.
         -6    1    1    2    0  502 -0.19669044884E+03 -0.31202360191E+03  0.57533719125E+03  0.70472884462E+03  0.17200000000E+03 0. -1.
</event>
<event>
 4    1 -0.3240665E-004  0.6593843E+03  0.7818608E-02  0.9789328E-01
          5   -1    0    0  501    0  0.00000000000E+00  0.00000000000E+00  0.10001517279E+04  0.10001627711E+04  0.47000000000E+01 0. -1.
         -5   -1    0    0    0  501 -0.00000000000E+00 -0.00000000000E+00 -0.44938658551E+03  0.44941116279E+03  0.47000000000E+01 0.  1.
          6    1    1    2  502    0 -0.44462531740E+03  0.45553489697E+03  0.14434125413E+03  0.67499786139E+03  0.17200000000E+03 0.  1.
         -6    1    1    2    0  502  0.44462531740E+03 -0.45553489697E+03  0.40642388824E+03  0.77457607255E+03  0.17200000000E+03 0.  1.
</event>
<event>
 4    1 -0.3240665E-004  0.2120931E+03  0.7818608E-02  0.1139919E+00
         -5   -1    0    0    0  501 -0.00000000000E+00  0.00000000000E+00  0.52901585170E+02  0.53109958703E+02  0.47000000000E+01 0.  1.
          5   -1    0    0  501    0  0.00000000000E+00 -0.00000000000E+00 -0.98677555944E+03  0.98678675240E+03  0.47000000000E+01 0. -1.
          6    1    1    2  502    0 -0.89445927992E+02  0.86016800884E+02 -0.66159562116E+03  0.69476055588E+03  0.17200000000E+03 0. -1.
         -6    1    1    2    0  502  0.89445927992E+02 -0.86016800884E+02 -0.27227835311E+03  0.34513615522E+03  0.17200000000E+03 0.  1.
</event>
<event>
 4    1 -0.3240665E-004  0.1946902E+03  0.7818608E-02  0.1154298E+00
          5   -1    0    0  501    0  0.00000000000E+00  0.00000000000E+00  0.28431327233E+03  0.28435211767E+03  0.47000000000E+01 0. -1.
         -5   -1    0    0    0  501 -0.00000000000E+00 -0.00000000000E+00 -0.16693840456E+03  0.16700455358E+03  0.47000000000E+01 0.  1.
          6    1    1    2  502    0  0.31916194639E+02  0.85449474993E+02 -0.42689307945E+02  0.19931541152E+03  0.17200000000E+03 0.  1.
         -6    1    1    2    0  502 -0.31916194639E+02 -0.85449474993E+02  0.16006417572E+03  0.25204125973E+03  0.17200000000E+03 0.  1.
</event>
<event>
 4    1 -0.3240665E-004  0.2281584E+03  0.7818608E-02  0.1127943E+00
          5   -1    0    0  501    0  0.00000000000E+00  0.00000000000E+00  0.18704707598E+03  0.18710611597E+03  0.47000000000E+01 0. -1.
         -5   -1    0    0    0  501 -0.00000000000E+00 -0.00000000000E+00 -0.30755368069E+03  0.30758959102E+03  0.47000000000E+01 0.  1.
          6    1    1    2  502    0  0.14417102841E+03 -0.41072794655E+02  0.16172044662E+02  0.22873083509E+03  0.17200000000E+03 0. -1.
         -6    1    1    2    0  502 -0.14417102841E+03  0.41072794655E+02 -0.13667864936E+03  0.26596487190E+03  0.17200000000E+03 0.  1.
</event>
<event>
 4    1 -0.3240665E-004  0.2433062E+03  0.7818608E-02  0.1117610E+00
          5   -1    0    0  501    0  0.00000000000E+00  0.00000000000E+00  0.32670015010E+03  0.32673395611E+03  0.47000000000E+01 0. -1.
         -5   -1    0    0    0  501 -0.00000000000E+00 -0.00000000000E+00 -0.18475965072E+03  0.18481942142E+03  0.47000000000E+01 0.  1.
          6    1    1    2  502    0  0.40211644582E+02 -0.16732278460E+03  0.10683193615E+03  0.26572721574E+03  0.17200000000E+03 0. -1.
         -6    1    1    2    0  502 -0.40211644582E+02  0.16732278460E+03  0.35108563237E+02  0.24582616178E+03  0.17200000000E+03 0.  1.
</event>
<event>
 4    1 -0.3240665E-004  0.2962056E+03  0.7818608E-02  0.1087153E+00
         -5   -1    0    0    0  501 -0.00000000000E+00  0.00000000000E+00  0.20432992641E+03  0.20438397399E+03  0.47000000000E+01 0.  1.
          5   -1    0    0  501    0  0.00000000000E+00 -0.00000000000E+00 -0.65762341598E+03  0.65764021109E+03  0.47000000000E+01 0. -1.
          6    1    1    2  502    0 -0.15015804123E+03 -0.18869640266E+03 -0.48061573902E+03  0.56456112009E+03  0.17200000000E+03 0. -1.
         -6    1    1    2    0  502  0.15015804123E+03  0.18869640266E+03  0.27322249440E+02  0.29746306500E+03  0.17200000000E+03 0.  1.
</event>
<event>
 4    1 -0.3240665E-004  0.3031984E+03  0.7818608E-02  0.1083653E+00
          5   -1    0    0  501    0  0.00000000000E+00  0.00000000000E+00  0.46053135455E+03  0.46055533709E+03  0.47000000000E+01 0. -1.
         -5   -1    0    0    0  501 -0.00000000000E+00 -0.00000000000E+00 -0.34449711061E+03  0.34452917035E+03  0.47000000000E+01 0.  1.
          6    1    1    2  502    0 -0.17142113579E+03  0.18154899533E+03  0.31909356809E+03  0.44017036326E+03  0.17200000000E+03 0. -1.
         -6    1    1    2    0  502  0.17142113579E+03 -0.18154899533E+03 -0.20305932415E+03  0.36491414418E+03  0.17200000000E+03 0.  1.
</event>
<event>
 4    1 -0.3240665E-004  0.2790855E+03  0.7818608E-02  0.1096189E+00
          5   -1    0    0  501    0  0.00000000000E+00  0.00000000000E+00  0.13992418950E+04  0.13992497886E+04  0.47000000000E+01 0. -1.
         -5   -1    0    0    0  501 -0.00000000000E+00 -0.00000000000E+00 -0.57849259841E+02  0.58039873055E+02  0.47000000000E+01 0.  1.
          6    1    1    2  502    0 -0.21791255189E+03  0.28614957709E+02  0.81546635547E+03  0.86190142881E+03  0.17200000000E+03 0.  1.
         -6    1    1    2    0  502  0.21791255189E+03 -0.28614957709E+02  0.52592627974E+03  0.59538823283E+03  0.17200000000E+03 0.  1.
</event>
<event>
 4    1 -0.3240665E-004  0.1768353E+03  0.7818608E-02  0.1170901E+00
          5   -1    0    0  501    0  0.00000000000E+00  0.00000000000E+00  0.52292296552E+02  0.52503088277E+02  0.47000000000E+01 0. -1.
         -5   -1    0    0    0  501 -0.00000000000E+00 -0.00000000000E+00 -0.90076884274E+03  0.90078110440E+03  0.47000000000E+01 0.  1.
          6    1    1    2  502    0 -0.40334495529E+02  0.77375073500E+01 -0.14728555211E+03  0.23013859826E+03  0.17200000000E+03 0. -1.
         -6    1    1    2    0  502  0.40334495529E+02 -0.77375073500E+01 -0.70119099408E+03  0.72314559442E+03  0.17200000000E+03 0.  1.
</event>
<event>
 4    1 -0.3240665E-004  0.3655954E+03  0.7818608E-02  0.1056390E+00
         -5   -1    0    0    0  501 -0.00000000000E+00  0.00000000000E+00  0.10147082369E+04  0.10147191217E+04  0.47000000000E+01 0.  1.
          5   -1    0    0  501    0  0.00000000000E+00 -0.00000000000E+00 -0.14093921869E+03  0.14101756403E+03  0.47000000000E+01 0. -1.
          6    1    1    2  502    0 -0.24003012654E+01  0.32259923981E+03  0.28873034330E+03  0.46585968071E+03  0.17200000000E+03 0. -1.
         -6    1    1    2    0  502  0.24003012654E+01 -0.32259923981E+03  0.58503867489E+03  0.68987700505E+03  0.17200000000E+03 0.  1.
</event>
<event>
 4    1 -0.3240665E-004  0.2335264E+03  0.7818608E-02  0.1124182E+00
         -5   -1    0    0    0  501 -0.00000000000E+00  0.00000000000E+00  0.10409782907E+03  0.10420387717E+03  0.47000000000E+01 0.  1.
          5   -1    0    0  501    0  0.00000000000E+00 -0.00000000000E+00 -0.53885083524E+03  0.53887133217E+03  0.47000000000E+01 0. -1.
          6    1    1    2  502    0 -0.15700130500E+03  0.17353985253E+02 -0.27164982810E+03  0.35822925577E+03  0.17200000000E+03 0. -1.
         -6    1    1    2    0  502  0.15700130500E+03 -0.17353985253E+02 -0.16310317806E+03  0.28484595358E+03  0.17200000000E+03 0. -1.
</event>
<event>
 4    1 -0.3240665E-004  0.2347083E+03  0.7818608E-02  0.1123369E+00
          5   -1    0    0  501    0  0.00000000000E+00  0.00000000000E+00  0.58846741609E+03  0.58848618489E+03  0.47000000000E+01 0. -1.
         -5   -1    0    0    0  501 -0.00000000000E+00 -0.00000000000E+00 -0.10480522992E+03  0.10491056295E+03  0.47000000000E+01 0.  1.
          6    1    1    2  502    0  0.10046937484E+03 -0.12413667191E+03  0.35545960159E+03  0.42595720086E+03  0.17200000000E+03 0.  1.
         -6    1    1    2    0  502 -0.10046937484E+03  0.12413667191E+03  0.12820258458E+03  0.26743954698E+03  0.17200000000E+03 0.  1.
</event>
<event>
 4    1 -0.3240665E-004  0.2562059E+03  0.7818608E-02  0.1109444E+00
          5   -1    0    0  501    0  0.00000000000E+00  0.00000000000E+00  0.92192863593E+03  0.92194061617E+03  0.47000000000E+01 0. -1.
         -5   -1    0    0    0  501 -0.00000000000E+00 -0.00000000000E+00 -0.12581139102E+03  0.12589915055E+03  0.47000000000E+01 0.  1.
          6    1    1    2  502    0  0.34810868087E+02 -0.18666999785E+03  0.74334007421E+03  0.78625438032E+03  0.17200000000E+03 0. -1.
         -6    1    1    2    0  502 -0.34810868087E+02  0.18666999785E+03  0.52777170701E+02  0.26158538641E+03  0.17200000000E+03 0.  1.
</event>
<event>
 4    1 -0.3240665E-004  0.2276411E+03  0.7818608E-02  0.1128311E+00
          5   -1    0    0  501    0  0.00000000000E+00  0.00000000000E+00  0.13067801941E+03  0.13076251281E+03  0.47000000000E+01 0. -1.
         -5   -1    0    0    0  501 -0.00000000000E+00 -0.00000000000E+00 -0.46645579318E+03  0.46647947113E+03  0.47000000000E+01 0.  1.
          6    1    1    2  502    0  0.14773325727E+03 -0.20281976306E+02 -0.52112347671E+02  0.23352980676E+03  0.17200000000E+03 0. -1.
         -6    1    1    2    0  502 -0.14773325727E+03  0.20281976306E+02 -0.28366542610E+03  0.36371217718E+03  0.17200000000E+03 0.  1.
</event>
<event>
 4    1 -0.3240665E-004  0.3278383E+03  0.7818608E-02  0.1072097E+00
         -5   -1    0    0    0  501 -0.00000000000E+00  0.00000000000E+00  0.31424532589E+03  0.31428047163E+03  0.47000000000E+01 0.  1.
          5   -1    0    0  501    0  0.00000000000E+00 -0.00000000000E+00 -0.35520382506E+03  0.35523491852E+03  0.47000000000E+01 0. -1.
          6    1    1    2  502    0 -0.36562586626E+02  0.27668959465E+03 -0.85139962716E+02  0.33871340065E+03  0.17200000000E+03 0. -1.
         -6    1    1    2    0  502  0.36562586626E+02 -0.27668959465E+03  0.44181463553E+02  0.33080198949E+03  0.17200000000E+03 0.  1.
</event>
<event>
 4    1 -0.3240665E-004  0.4426634E+03  0.7818608E-02  0.1029933E+00
         -5   -1    0    0    0  501 -0.00000000000E+00  0.00000000000E+00  0.29898399583E+03  0.29902093532E+03  0.47000000000E+01 0.  1.
          5   -1    0    0  501    0  0.00000000000E+00 -0.00000000000E+00 -0.81627651357E+03  0.81629004441E+03  0.47000000000E+01 0. -1.
          6    1    1    2  502    0  0.29629893915E+03 -0.28031017762E+03 -0.50628028404E+03  0.67251065644E+03  0.17200000000E+03 0. -1.
         -6    1    1    2    0  502 -0.29629893915E+03  0.28031017762E+03 -0.11012233699E+02  0.44280032329E+03  0.17200000000E+03 0.  1.
</event>
<event>
 4    1 -0.3240665E-004  0.2012181E+03  0.7818608E-02  0.1148715E+00
         -5   -1    0    0    0  501 -0.00000000000E+00  0.00000000000E+00  0.64018156951E+03  0.64019882220E+03  0.47000000000E+01 0.  1.
          5   -1    0    0  501    0  0.00000000000E+00 -0.00000000000E+00 -0.14992004111E+03  0.14999369563E+03  0.47000000000E+01 0. -1.
          6    1    1    2  502    0 -0.54587538687E+02 -0.89022047979E+02 -0.55322991193E+02  0.20868482878E+03  0.17200000000E+03 0. -1.
         -6    1    1    2    0  502  0.54587538687E+02  0.89022047979E+02  0.54558451959E+03  0.58150768905E+03  0.17200000000E+03 0.  1.
</event>
<event>
 4    1 -0.3240665E-004  0.1952534E+03  0.7818608E-02  0.1153807E+00
          5   -1    0    0  501    0  0.00000000000E+00  0.00000000000E+00  0.18633072669E+03  0.18638999359E+03  0.47000000000E+01 0. -1.
         -5   -1    0    0    0  501 -0.00000000000E+00 -0.00000000000E+00 -0.22406549042E+03  0.22411477863E+03  0.47000000000E+01 0.  1.
          6    1    1    2  502    0 -0.91291477658E+02 -0.14343675118E+02  0.41793828571E+02  0.19967623548E+03  0.17200000000E+03 0. -1.
         -6    1    1    2    0  502  0.91291477658E+02  0.14343675118E+02 -0.79528592299E+02  0.21082853674E+03  0.17200000000E+03 0.  1.
</event>
<event>
 4    1 -0.3240665E-004  0.2706194E+03  0.7818608E-02  0.1100926E+00
         -5   -1    0    0    0  501 -0.00000000000E+00  0.00000000000E+00  0.82047787376E+02  0.82182293794E+02  0.47000000000E+01 0.  1.
          5   -1    0    0  501    0  0.00000000000E+00 -0.00000000000E+00 -0.10209894154E+04  0.10210002332E+04  0.47000000000E+01 0. -1.
          6    1    1    2  502    0  0.20396469702E+03 -0.45269019528E+02 -0.66572983835E+03  0.71863140721E+03  0.17200000000E+03 0. -1.
         -6    1    1    2    0  502 -0.20396469702E+03  0.45269019528E+02 -0.27321178963E+03  0.38455111982E+03  0.17200000000E+03 0.  1.
</event>
<event>
 4    1 -0.3240665E-004  0.2175256E+03  0.7818608E-02  0.1135741E+00
         -5   -1    0    0    0  501 -0.00000000000E+00  0.00000000000E+00  0.72475526409E+03  0.72477050355E+03  0.47000000000E+01 0.  1.
          5   -1    0    0  501    0  0.00000000000E+00 -0.00000000000E+00 -0.68418031897E+02  0.68579275941E+02  0.47000000000E+01 0. -1.
          6    1    1    2  502    0  0.27702517033E+02  0.13025346074E+03  0.24207788376E+03  0.32545213979E+03  0.17200000000E+03 0.  1.
         -6    1    1    2    0  502 -0.27702517033E+02 -0.13025346074E+03  0.41425934843E+03  0.46789763971E+03  0.17200000000E+03 0. -1.
</event>
<event>
 4    1 -0.3240665E-004  0.1935221E+03  0.7818608E-02  0.1155322E+00
          5   -1    0    0  501    0  0.00000000000E+00  0.00000000000E+00  0.12321321690E+03  0.12330282568E+03  0.47000000000E+01 0. -1.
         -5   -1    0    0    0  501 -0.00000000000E+00 -0.00000000000E+00 -0.30431224890E+03  0.30434854169E+03  0.47000000000E+01 0.  1.
          6    1    1    2  502    0  0.87868823409E+02  0.12077149739E+02 -0.81220688443E+02  0.20987517220E+03  0.17200000000E+03 0. -1.
         -6    1    1    2    0  502 -0.87868823409E+02 -0.12077149739E+02 -0.99878343556E+02  0.21777619517E+03  0.17200000000E+03 0.  1.
</event>
<event>
 4    1 -0.3240665E-004  0.1744823E+03  0.7818608E-02  0.1173253E+00
         -5   -1    0    0    0  501 -0.00000000000E+00  0.00000000000E+00  0.46842321680E+03  0.46844679531E+03  0.47000000000E+01 0.  1.
          5   -1    0    0  501    0  0.00000000000E+00 -0.00000000000E+00 -0.66172666880E+02  0.66339368719E+02  0.47000000000E+01 0. -1.
          6    1    1    2  502    0 -0.21446038962E+02 -0.20003344637E+02  0.16384178622E+03  0.23934952955E+03  0.17200000000E+03 0. -1.
         -6    1    1    2    0  502  0.21446038962E+02  0.20003344637E+02  0.23840876370E+03  0.29543663448E+03  0.17200000000E+03 0.  1.
</event>
<event>
 4    1 -0.3240665E-004  0.1735265E+03  0.7818608E-02  0.1174219E+00
          5   -1    0    0  501    0  0.00000000000E+00  0.00000000000E+00  0.26916186990E+03  0.26920290156E+03  0.47000000000E+01 0. -1.
         -5   -1    0    0    0  501 -0.00000000000E+00 -0.00000000000E+00 -0.18427124466E+03  0.18433117373E+03  0.47000000000E+01 0.  1.
          6    1    1    2  502    0 -0.22743516923E+02 -0.31919580160E+01  0.18463737500E+03  0.25338195753E+03  0.17200000000E+03 0. -1.
         -6    1    1    2    0  502  0.22743516923E+02  0.31919580160E+01 -0.99746749748E+02  0.20015211776E+03  0.17200000000E+03 0.  1.
</event>
<event>
 4    1 -0.3240665E-004  0.2536705E+03  0.7818608E-02  0.1111007E+00
          5   -1    0    0  501    0  0.00000000000E+00  0.00000000000E+00  0.97313003998E+02  0.97426437619E+02  0.47000000000E+01 0. -1.
         -5   -1    0    0    0  501 -0.00000000000E+00 -0.00000000000E+00 -0.85189691680E+03  0.85190988189E+03  0.47000000000E+01 0.  1.
          6    1    1    2  502    0 -0.16366456908E+03  0.89323202364E+02 -0.15246437417E+03  0.29596302310E+03  0.17200000000E+03 0.  1.
         -6    1    1    2    0  502  0.16366456908E+03 -0.89323202364E+02 -0.60211953863E+03  0.65337329641E+03  0.17200000000E+03 0.  1.
</event>
<event>
 4    1 -0.3240665E-004  0.2152830E+03  0.7818608E-02  0.1137449E+00
         -5   -1    0    0    0  501 -0.00000000000E+00  0.00000000000E+00  0.13007608996E+03  0.13016097411E+03  0.47000000000E+01 0.  1.
          5   -1    0    0  501    0  0.00000000000E+00 -0.00000000000E+00 -0.35626661487E+03  0.35629761559E+03  0.47000000000E+01 0. -1.
          6    1    1    2  502    0 -0.10516272428E+03 -0.75521879449E+02 -0.10765488895E+03  0.24069966341E+03  0.17200000000E+03 0. -1.
         -6    1    1    2    0  502  0.10516272428E+03  0.75521879449E+02 -0.11853563596E+03  0.24575892628E+03  0.17200000000E+03 0.  1.
</event>
<event>
 4    1 -0.3240665E-004  0.4239463E+03  0.7818608E-02  0.1035790E+00
         -5   -1    0    0    0  501 -0.00000000000E+00  0.00000000000E+00  0.43072703026E+03  0.43075267218E+03  0.47000000000E+01 0.  1.
          5   -1    0    0  501    0  0.00000000000E+00 -0.00000000000E+00 -0.60411188773E+03  0.60413017049E+03  0.47000000000E+01 0. -1.
          6    1    1    2  502    0 -0.28393990897E+03 -0.26367521437E+03 -0.37448475875E+03  0.56565831127E+03  0.17200000000E+03 0. -1.
         -6    1    1    2    0  502  0.28393990897E+03  0.26367521437E+03  0.20109990127E+03  0.46922453140E+03  0.17200000000E+03 0.  1.
</event>
<event>
 4    1 -0.3240665E-004  0.1754004E+03  0.7818608E-02  0.1172330E+00
         -5   -1    0    0    0  501 -0.00000000000E+00  0.00000000000E+00  0.68551869843E+03  0.68553481012E+03  0.47000000000E+01 0.  1.
          5   -1    0    0  501    0  0.00000000000E+00 -0.00000000000E+00 -0.72040438861E+02  0.72193592730E+02  0.47000000000E+01 0. -1.
          6    1    1    2  502    0  0.53614167746E+01 -0.33949474316E+02  0.73856288163E+02  0.19031569273E+03  0.17200000000E+03 0. -1.
         -6    1    1    2    0  502 -0.53614167746E+01  0.33949474316E+02  0.53962197140E+03  0.56741271013E+03  0.17200000000E+03 0.  1.
</event>
<event>
 4    1 -0.3240665E-004  0.2073449E+03  0.7818608E-02  0.1143686E+00
          5   -1    0    0  501    0  0.00000000000E+00  0.00000000000E+00  0.21414308399E+03  0.21419465544E+03  0.47000000000E+01 0. -1.
         -5   -1    0    0    0  501 -0.00000000000E+00 -0.00000000000E+00 -0.20780547255E+03  0.20785861643E+03  0.47000000000E+01 0.  1.
          6    1    1    2  502    0 -0.89647150342E+02 -0.73289030015E+02  0.42292345921E+02  0.21161412053E+03  0.17200000000E+03 0. -1.
         -6    1    1    2    0  502  0.89647150342E+02  0.73289030015E+02 -0.35954734485E+02  0.21043915134E+03  0.17200000000E+03 0.  1.
</event>
<event>
 4    1 -0.3240665E-004  0.1854100E+03  0.7818608E-02  0.1162668E+00
         -5   -1    0    0    0  501 -0.00000000000E+00  0.00000000000E+00  0.16815348091E+03  0.16821915213E+03  0.47000000000E+01 0.  1.
          5   -1    0    0  501    0  0.00000000000E+00 -0.00000000000E+00 -0.20630776942E+03  0.20636129899E+03  0.47000000000E+01 0. -1.
          6    1    1    2  502    0  0.57981722328E+02  0.37828253469E+02 -0.37526145181E+02  0.18916941734E+03  0.17200000000E+03 0. -1.
         -6    1    1    2    0  502 -0.57981722328E+02 -0.37828253469E+02 -0.62814332413E+00  0.18541103378E+03  0.17200000000E+03 0.  1.
</event>
<event>
 4    1 -0.3240665E-004  0.1726983E+03  0.7818608E-02  0.1175063E+00
         -5   -1    0    0    0  501 -0.00000000000E+00  0.00000000000E+00  0.16635860149E+04  0.16635926541E+04  0.47000000000E+01 0.  1.
          5   -1    0    0  501    0  0.00000000000E+00 -0.00000000000E+00 -0.18249985856E+02  0.18845476480E+02  0.47000000000E+01 0. -1.
          6    1    1    2  502    0 -0.35464852981E+01  0.15104038168E+02  0.97723859400E+03  0.99238096471E+03  0.17200000000E+03 0.  1.
         -6    1    1    2    0  502  0.35464852981E+01 -0.15104038168E+02  0.66809743501E+03  0.69005716589E+03  0.17200000000E+03 0. -1.
</event>
<event>
 4    1 -0.3240665E-004  0.2901251E+03  0.7818608E-02  0.1090284E+00
         -5   -1    0    0    0  501 -0.00000000000E+00  0.00000000000E+00  0.18984236534E+03  0.18990053628E+03  0.47000000000E+01 0.  1.
          5   -1    0    0  501    0  0.00000000000E+00 -0.00000000000E+00 -0.84706838933E+03  0.84708142832E+03  0.47000000000E+01 0. -1.
          6    1    1    2  502    0 -0.20218855073E+03  0.11708279236E+03 -0.68659323727E+03  0.74537431119E+03  0.17200000000E+03 0. -1.
         -6    1    1    2    0  502  0.20218855073E+03 -0.11708279236E+03  0.29367213283E+02  0.29160765341E+03  0.17200000000E+03 0.  1.
</event>
<event>
 4    1 -0.3240665E-004  0.2200244E+03  0.7818608E-02  0.1133865E+00
         -5   -1    0    0    0  501 -0.00000000000E+00  0.00000000000E+00  0.63343997828E+02  0.63518123877E+02  0.47000000000E+01 0.  1.
          5   -1    0    0  501    0  0.00000000000E+00 -0.00000000000E+00 -0.14066578858E+04  0.14066657377E+04  0.47000000000E+01 0. -1.
          6    1    1    2  502    0  0.12363583645E+03  0.59505733988E+02 -0.11688661772E+04  0.11893943386E+04  0.17200000000E+03 0. -1.
         -6    1    1    2    0  502 -0.12363583645E+03 -0.59505733988E+02 -0.17444771070E+03  0.28078952295E+03  0.17200000000E+03 0. -1.
</event>
<event>
 4    1 -0.3240665E-004  0.1891132E+03  0.7818608E-02  0.1159264E+00
         -5   -1    0    0    0  501 -0.00000000000E+00  0.00000000000E+00  0.51962692388E+02  0.52174815766E+02  0.47000000000E+01 0.  1.
          5   -1    0    0  501    0  0.00000000000E+00 -0.00000000000E+00 -0.68695241109E+03  0.68696848916E+03  0.47000000000E+01 0. -1.
          6    1    1    2  502    0 -0.62556770266E+02 -0.47607394348E+02 -0.32540880201E+03  0.37637043180E+03  0.17200000000E+03 0.  1.
         -6    1    1    2    0  502  0.62556770266E+02  0.47607394348E+02 -0.30958091669E+03  0.36277287313E+03  0.17200000000E+03 0. -1.
</event>
<event>
 4    1 -0.3240665E-004  0.2175941E+03  0.7818608E-02  0.1135690E+00
          5   -1    0    0  501    0  0.00000000000E+00  0.00000000000E+00  0.43874517156E+03  0.43877034490E+03  0.47000000000E+01 0. -1.
         -5   -1    0    0    0  501 -0.00000000000E+00 -0.00000000000E+00 -0.10935650491E+03  0.10945745825E+03  0.47000000000E+01 0.  1.
          6    1    1    2  502    0 -0.12513757683E+03  0.45867207058E+02  0.13238655651E+03  0.25470259944E+03  0.17200000000E+03 0.  1.
         -6    1    1    2    0  502  0.12513757683E+03 -0.45867207058E+02  0.19700211013E+03  0.29352520371E+03  0.17200000000E+03 0.  1.
</event>
<event>
 4    1 -0.3240665E-004  0.1926231E+03  0.7818608E-02  0.1156117E+00
          5   -1    0    0  501    0  0.00000000000E+00  0.00000000000E+00  0.29476818647E+03  0.29480565421E+03  0.47000000000E+01 0. -1.
         -5   -1    0    0    0  501 -0.00000000000E+00 -0.00000000000E+00 -0.15118145367E+03  0.15125449393E+03  0.47000000000E+01 0.  1.
          6    1    1    2  502    0  0.88757473733E+01 -0.86260539688E+02  0.16316981016E+03  0.25244414540E+03  0.17200000000E+03 0. -1.
         -6    1    1    2    0  502 -0.88757473733E+01  0.86260539688E+02 -0.19583077353E+02  0.19361600274E+03  0.17200000000E+03 0.  1.
</event>
<event>
 4    1 -0.3240665E-004  0.3126639E+03  0.7818608E-02  0.1079076E+00
         -5   -1    0    0    0  501 -0.00000000000E+00  0.00000000000E+00  0.18387419765E+03  0.18393425608E+03  0.47000000000E+01 0.  1.
          5   -1    0    0  501    0  0.00000000000E+00 -0.00000000000E+00 -0.95798224993E+03  0.95799377930E+03  0.47000000000E+01 0. -1.
          6    1    1    2  502    0  0.95526500932E+02 -0.24300080143E+03 -0.76799827039E+03  0.82920446526E+03  0.17200000000E+03 0. -1.
         -6    1    1    2    0  502 -0.95526500932E+02  0.24300080143E+03 -0.61097818865E+01  0.31272357012E+03  0.17200000000E+03 0.  1.
</event>
<event>
 4    1 -0.3240665E-004  0.1729634E+03  0.7818608E-02  0.1174792E+00
          5   -1    0    0  501    0  0.00000000000E+00  0.00000000000E+00  0.46862272293E+03  0.46864629140E+03  0.47000000000E+01 0. -1.
         -5   -1    0    0    0  501 -0.00000000000E+00 -0.00000000000E+00 -0.68535486926E+02  0.68696455281E+02  0.47000000000E+01 0.  1.
          6    1    1    2  502    0  0.39222028683E+01 -0.17803313174E+02  0.27110900731E+03  0.32158425876E+03  0.17200000000E+03 0. -1.
         -6    1    1    2    0  502 -0.39222028683E+01  0.17803313174E+02  0.12897822869E+03  0.21575848792E+03  0.17200000000E+03 0.  1.
</event>
<event>
 4    1 -0.3240665E-004  0.2270282E+03  0.7818608E-02  0.1128749E+00
          5   -1    0    0  501    0  0.00000000000E+00  0.00000000000E+00  0.25596865670E+03  0.25601180288E+03  0.47000000000E+01 0. -1.
         -5   -1    0    0    0  501 -0.00000000000E+00 -0.00000000000E+00 -0.20556544311E+03  0.20561916594E+03  0.47000000000E+01 0.  1.
          6    1    1    2  502    0  0.75824368642E+02  0.12731246432E+03  0.58550167344E+02  0.23445664961E+03  0.17200000000E+03 0. -1.
         -6    1    1    2    0  502 -0.75824368642E+02 -0.12731246432E+03 -0.81469537540E+01  0.22717431920E+03  0.17200000000E+03 0.  1.
</event>
<event>
 4    1 -0.3240665E-004  0.2813978E+03  0.7818608E-02  0.1094928E+00
         -5   -1    0    0    0  501 -0.00000000000E+00  0.00000000000E+00  0.45950046971E+03  0.45952450606E+03  0.47000000000E+01 0.  1.
          5   -1    0    0  501    0  0.00000000000E+00 -0.00000000000E+00 -0.20945829443E+03  0.20951101906E+03  0.47000000000E+01 0. -1.
          6    1    1    2  502    0  0.13962245015E+03  0.17351170254E+03 -0.15909075497E+02  0.28184718942E+03  0.17200000000E+03 0. -1.
         -6    1    1    2    0  502 -0.13962245015E+03 -0.17351170254E+03  0.26595125078E+03  0.38718833569E+03  0.17200000000E+03 0.  1.
</event>
<event>
 4    1 -0.3240665E-004  0.1753513E+03  0.7818608E-02  0.1172379E+00
         -5   -1    0    0    0  501 -0.00000000000E+00  0.00000000000E+00  0.45446849371E+02  0.45689234156E+02  0.47000000000E+01 0.  1.
          5   -1    0    0  501    0  0.00000000000E+00 -0.00000000000E+00 -0.76222105071E+03  0.76223554112E+03  0.47000000000E+01 0. -1.
          6    1    1    2  502    0  0.33970858432E+02  0.31704012916E+01 -0.49538824359E+03  0.52550697669E+03  0.17200000000E+03 0. -1.
         -6    1    1    2    0  502 -0.33970858432E+02 -0.31704012916E+01 -0.22138595775E+03  0.28241779858E+03  0.17200000000E+03 0.  1.
</event>
<event>
 4    1 -0.3240665E-004  0.1949075E+03  0.7818608E-02  0.1154108E+00
          5   -1    0    0  501    0  0.00000000000E+00  0.00000000000E+00  0.15782568362E+03  0.15789565039E+03  0.47000000000E+01 0. -1.
         -5   -1    0    0    0  501 -0.00000000000E+00 -0.00000000000E+00 -0.64459041752E+03  0.64460755221E+03  0.47000000000E+01 0.  1.
          6    1    1    2  502    0  0.80283921484E+02  0.44265468627E+02  0.74268505663E+02  0.20857792475E+03  0.17200000000E+03 0. -1.
         -6    1    1    2    0  502 -0.80283921484E+02 -0.44265468627E+02 -0.56103323956E+03  0.59392527784E+03  0.17200000000E+03 0.  1.
</event>
<event>
 4    1 -0.3240665E-004  0.1884675E+03  0.7818608E-02  0.1159851E+00
          5   -1    0    0  501    0  0.00000000000E+00  0.00000000000E+00  0.31255720839E+02  0.31607120799E+02  0.47000000000E+01 0. -1.
         -5   -1    0    0    0  501 -0.00000000000E+00 -0.00000000000E+00 -0.11301185723E+04  0.11301283455E+04  0.47000000000E+01 0.  1.
          6    1    1    2  502    0 -0.73932930864E+02 -0.21677388096E+02 -0.53856084681E+03  0.57058546524E+03  0.17200000000E+03 0.  1.
         -6    1    1    2    0  502  0.73932930864E+02  0.21677388096E+02 -0.56030200461E+03  0.59115000109E+03  0.17200000000E+03 0.  1.
</event>
<event>
 4    1 -0.3240665E-004  0.3907399E+03  0.7818608E-02  0.1047034E+00
          5   -1    0    0  501    0  0.00000000000E+00  0.00000000000E+00  0.76921547571E+03  0.76922983436E+03  0.47000000000E+01 0. -1.
         -5   -1    0    0    0  501 -0.00000000000E+00 -0.00000000000E+00 -0.24458794364E+03  0.24463309705E+03  0.47000000000E+01 0.  1.
          6    1    1    2  502    0  0.28685444155E+03  0.20201046148E+03  0.48247766375E+03  0.62085617755E+03  0.17200000000E+03 0. -1.
         -6    1    1    2    0  502 -0.28685444155E+03 -0.20201046148E+03  0.42149868318E+02  0.39300675386E+03  0.17200000000E+03 0.  1.
</event>
<event>
 4    1 -0.3240665E-004  0.2099123E+03  0.7818608E-02  0.1141635E+00
         -5   -1    0    0    0  501 -0.00000000000E+00  0.00000000000E+00  0.11040254738E+03  0.11050254507E+03  0.47000000000E+01 0.  1.
          5   -1    0    0  501    0  0.00000000000E+00 -0.00000000000E+00 -0.11049261751E+04  0.11049361712E+04  0.47000000000E+01 0. -1.
          6    1    1    2  502    0  0.11894504727E+03 -0.18200616866E+02 -0.98305150091E+03  0.10052131317E+04  0.17200000000E+03 0. -1.
         -6    1    1    2    0  502 -0.11894504727E+03  0.18200616866E+02 -0.11472126854E+02  0.21022558460E+03  0.17200000000E+03 0.  1.
</event>
<event>
 4    1 -0.3240665E-004  0.2207066E+03  0.7818608E-02  0.1133357E+00
         -5   -1    0    0    0  501 -0.00000000000E+00  0.00000000000E+00  0.24993164994E+03  0.24997583812E+03  0.47000000000E+01 0.  1.
          5   -1    0    0  501    0  0.00000000000E+00 -0.00000000000E+00 -0.28883007752E+03  0.28886831546E+03  0.47000000000E+01 0. -1.
          6    1    1    2  502    0  0.13702116752E+03 -0.18777712117E+02 -0.17314266847E+03  0.28051699853E+03  0.17200000000E+03 0. -1.
         -6    1    1    2    0  502 -0.13702116752E+03  0.18777712117E+02  0.13424424090E+03  0.25832715505E+03  0.17200000000E+03 0.  1.
</event>
<event>
 4    1 -0.3240665E-004  0.2705778E+03  0.7818608E-02  0.1100949E+00
         -5   -1    0    0    0  501 -0.00000000000E+00  0.00000000000E+00  0.16254325752E+03  0.16261119446E+03  0.47000000000E+01 0.  1.
          5   -1    0    0  501    0  0.00000000000E+00 -0.00000000000E+00 -0.46188652471E+03  0.46191043689E+03  0.47000000000E+01 0. -1.
          6    1    1    2  502    0  0.18037141118E+03  0.10533040483E+03 -0.19924447952E+03  0.33602187841E+03  0.17200000000E+03 0. -1.
         -6    1    1    2    0  502 -0.18037141118E+03 -0.10533040483E+03 -0.10009878768E+03  0.28849975294E+03  0.17200000000E+03 0.  1.
</event>
<event>
 4    1 -0.3240665E-004  0.1746772E+03  0.7818608E-02  0.1173056E+00
          5   -1    0    0  501    0  0.00000000000E+00  0.00000000000E+00  0.87040487559E+02  0.87167290164E+02  0.47000000000E+01 0. -1.
         -5   -1    0    0    0  501 -0.00000000000E+00 -0.00000000000E+00 -0.49848881922E+03  0.49851097570E+03  0.47000000000E+01 0.  1.
          6    1    1    2  502    0  0.26410794302E+02  0.15184775069E+02 -0.46004831838E+02  0.18063375100E+03  0.17200000000E+03 0. -1.
         -6    1    1    2    0  502 -0.26410794302E+02 -0.15184775069E+02 -0.36544349983E+03  0.40504451486E+03  0.17200000000E+03 0.  1.
</event>
<event>
 4    1 -0.3240665E-004  0.2014077E+03  0.7818608E-02  0.1148557E+00
          5   -1    0    0  501    0  0.00000000000E+00  0.00000000000E+00  0.65598489093E+03  0.65600172799E+03  0.47000000000E+01 0. -1.
         -5   -1    0    0    0  501 -0.00000000000E+00 -0.00000000000E+00 -0.62047860960E+02  0.62225614097E+02  0.47000000000E+01 0.  1.
          6    1    1    2  502    0 -0.10016221269E+03 -0.30798970956E+02  0.32257396760E+03  0.38028806192E+03  0.17200000000E+03 0.  1.
         -6    1    1    2    0  502  0.10016221269E+03  0.30798970956E+02  0.27136306237E+03  0.33793928017E+03  0.17200000000E+03 0.  1.
</event>
<event>
 4    1 -0.3240665E-004  0.2228144E+03  0.7818608E-02  0.1131802E+00
         -5   -1    0    0    0  501 -0.00000000000E+00  0.00000000000E+00  0.16310047903E+03  0.16316818397E+03  0.47000000000E+01 0.  1.
          5   -1    0    0  501    0  0.00000000000E+00 -0.00000000000E+00 -0.32628149851E+03  0.32631534789E+03  0.47000000000E+01 0. -1.
          6    1    1    2  502    0 -0.12859127861E+03  0.59384552339E+02 -0.14518934259E+03  0.26594395499E+03  0.17200000000E+03 0. -1.
         -6    1    1    2    0  502  0.12859127861E+03 -0.59384552339E+02 -0.17991676884E+02  0.22353957687E+03  0.17200000000E+03 0.  1.
</event>
<event>
 4    1 -0.3240665E-004  0.3870700E+03  0.7818608E-02  0.1048351E+00
         -5   -1    0    0    0  501 -0.00000000000E+00  0.00000000000E+00  0.35217584923E+03  0.35220721001E+03  0.47000000000E+01 0.  1.
          5   -1    0    0  501    0  0.00000000000E+00 -0.00000000000E+00 -0.78933909757E+03  0.78935309017E+03  0.47000000000E+01 0. -1.
          6    1    1    2  502    0 -0.91577605156E+02  0.33444395244E+03 -0.60616233460E+03  0.71920511050E+03  0.17200000000E+03 0. -1.
         -6    1    1    2    0  502  0.91577605156E+02 -0.33444395244E+03  0.16899908626E+03  0.42235518967E+03  0.17200000000E+03 0.  1.
</event>
<event>
 4    1 -0.3240665E-004  0.3180229E+03  0.7818608E-02  0.1076563E+00
         -5   -1    0    0    0  501 -0.00000000000E+00  0.00000000000E+00  0.17509438595E+03  0.17515745486E+03  0.47000000000E+01 0.  1.
          5   -1    0    0  501    0  0.00000000000E+00 -0.00000000000E+00 -0.83146903638E+03  0.83148231999E+03  0.47000000000E+01 0. -1.
          6    1    1    2  502    0 -0.26514018679E+03 -0.35429020430E+02 -0.60637420651E+03  0.68471031281E+03  0.17200000000E+03 0. -1.
         -6    1    1    2    0  502  0.26514018679E+03  0.35429020430E+02 -0.50000443910E+02  0.32192946204E+03  0.17200000000E+03 0.  1.
</event>
<event>
 4    1 -0.3240665E-004  0.2984279E+03  0.7818608E-02  0.1086029E+00
         -5   -1    0    0    0  501 -0.00000000000E+00  0.00000000000E+00  0.15393449104E+04  0.15393520855E+04  0.47000000000E+01 0.  1.
          5   -1    0    0  501    0  0.00000000000E+00 -0.00000000000E+00 -0.57755716626E+02  0.57946637547E+02  0.47000000000E+01 0. -1.
          6    1    1    2  502    0  0.22306173406E+03 -0.98583478702E+02  0.73485360929E+03  0.79313874358E+03  0.17200000000E+03 0. -1.
         -6    1    1    2    0  502 -0.22306173406E+03  0.98583478702E+02  0.74673558450E+03  0.80415997950E+03  0.17200000000E+03 0.  1.
</event>
<event>
 4    1 -0.3240665E-004  0.2403977E+03  0.7818608E-02  0.1119528E+00
          5   -1    0    0  501    0  0.00000000000E+00  0.00000000000E+00  0.70340011358E+02  0.70496859489E+02  0.47000000000E+01 0. -1.
         -5   -1    0    0    0  501 -0.00000000000E+00 -0.00000000000E+00 -0.96267540758E+03  0.96268688074E+03  0.47000000000E+01 0.  1.
          6    1    1    2  502    0  0.15652406547E+03  0.60887361018E+02 -0.24767000035E+03  0.34515428851E+03  0.17200000000E+03 0. -1.
         -6    1    1    2    0  502 -0.15652406547E+03 -0.60887361018E+02 -0.64466539587E+03  0.68802945172E+03  0.17200000000E+03 0.  1.
</event>
<event>
 4    1 -0.3240665E-004  0.2214722E+03  0.7818608E-02  0.1132790E+00
          5   -1    0    0  501    0  0.00000000000E+00  0.00000000000E+00  0.15247062169E+03  0.15254304467E+03  0.47000000000E+01 0. -1.
         -5   -1    0    0    0  501 -0.00000000000E+00 -0.00000000000E+00 -0.35271391840E+03  0.35274523134E+03  0.47000000000E+01 0.  1.
          6    1    1    2  502    0  0.13772114371E+03  0.22334111973E+02 -0.25017361723E+02  0.22288067294E+03  0.17200000000E+03 0. -1.
         -6    1    1    2    0  502 -0.13772114371E+03 -0.22334111973E+02 -0.17522593498E+03  0.28240760307E+03  0.17200000000E+03 0.  1.
</event>
<event>
 4    1 -0.3240665E-004  0.4096815E+03  0.7818608E-02  0.1040478E+00
         -5   -1    0    0    0  501 -0.00000000000E+00  0.00000000000E+00  0.39732682783E+03  0.39735462513E+03  0.47000000000E+01 0.  1.
          5   -1    0    0  501    0  0.00000000000E+00 -0.00000000000E+00 -0.47622002465E+03  0.47624321715E+03  0.47000000000E+01 0. -1.
          6    1    1    2  502    0 -0.68149340155E+02 -0.36552788497E+03 -0.18632834367E+03  0.45006357208E+03  0.17200000000E+03 0. -1.
         -6    1    1    2    0  502  0.68149340155E+02  0.36552788497E+03  0.10743514685E+03  0.42353427020E+03  0.17200000000E+03 0.  1.
</event>
<event>
 4    1 -0.3240665E-004  0.2372780E+03  0.7818608E-02  0.1121620E+00
         -5   -1    0    0    0  501 -0.00000000000E+00  0.00000000000E+00  0.17497239934E+03  0.17503551220E+03  0.47000000000E+01 0.  1.
          5   -1    0    0  501    0  0.00000000000E+00 -0.00000000000E+00 -0.38351979827E+03  0.38354859623E+03  0.47000000000E+01 0. -1.
          6    1    1    2  502    0 -0.16010476237E+03 -0.32913468919E+02  0.79062975836E+01  0.23740964789E+03  0.17200000000E+03 0.  1.
         -6    1    1    2    0  502  0.16010476237E+03  0.32913468919E+02 -0.21645369651E+03  0.32117446054E+03  0.17200000000E+03 0.  1.
</event>
<event>
 4    1 -0.3240665E-004  0.1947043E+03  0.7818608E-02  0.1154285E+00
          5   -1    0    0  501    0  0.00000000000E+00  0.00000000000E+00  0.23764310186E+03  0.23768957458E+03  0.47000000000E+01 0. -1.
         -5   -1    0    0    0  501 -0.00000000000E+00 -0.00000000000E+00 -0.22213804022E+03  0.22218775599E+03  0.47000000000E+01 0.  1.
          6    1    1    2  502    0 -0.22057487956E+02 -0.88539447724E+02  0.12989539979E+03  0.23405679111E+03  0.17200000000E+03 0. -1.
         -6    1    1    2    0  502  0.22057487956E+02  0.88539447724E+02 -0.11439033815E+03  0.22582053945E+03  0.17200000000E+03 0.  1.
</event>
<event>
 4    1 -0.3240665E-004  0.2036053E+03  0.7818608E-02  0.1146732E+00
         -5   -1    0    0    0  501 -0.00000000000E+00  0.00000000000E+00  0.29408639910E+03  0.29412395369E+03  0.47000000000E+01 0.  1.
          5   -1    0    0  501    0  0.00000000000E+00 -0.00000000000E+00 -0.17056750004E+03  0.17063224218E+03  0.47000000000E+01 0. -1.
          6    1    1    2  502    0 -0.88709855413E+02 -0.63258857699E+02 -0.35161918390E+02  0.20661917150E+03  0.17200000000E+03 0. -1.
         -6    1    1    2    0  502  0.88709855413E+02  0.63258857699E+02  0.15868081745E+03  0.25813702437E+03  0.17200000000E+03 0.  1.
</event>
<event>
 4    1 -0.3240665E-004  0.2305195E+03  0.7818608E-02  0.1126275E+00
         -5   -1    0    0    0  501 -0.00000000000E+00  0.00000000000E+00  0.97991102492E+02  0.98103752057E+02  0.47000000000E+01 0.  1.
          5   -1    0    0  501    0  0.00000000000E+00 -0.00000000000E+00 -0.85288186893E+03  0.85289481905E+03  0.47000000000E+01 0. -1.
          6    1    1    2  502    0 -0.14062045401E+03 -0.61490924714E+02 -0.66457203418E+03  0.70341682843E+03  0.17200000000E+03 0. -1.
         -6    1    1    2    0  502  0.14062045401E+03  0.61490924714E+02 -0.90318732264E+02  0.24758174267E+03  0.17200000000E+03 0.  1.
</event>
<event>
 4    1 -0.3240665E-004  0.2191938E+03  0.7818608E-02  0.1134486E+00
          5   -1    0    0  501    0  0.00000000000E+00  0.00000000000E+00  0.21355637935E+03  0.21360809245E+03  0.47000000000E+01 0. -1.
         -5   -1    0    0    0  501 -0.00000000000E+00 -0.00000000000E+00 -0.27536751583E+03  0.27540762294E+03  0.47000000000E+01 0.  1.
          6    1    1    2  502    0  0.44089655956E+02  0.12852242577E+03  0.73775381482E+02  0.23127628197E+03  0.17200000000E+03 0. -1.
         -6    1    1    2    0  502 -0.44089655956E+02 -0.12852242577E+03 -0.13558651796E+03  0.25773943342E+03  0.17200000000E+03 0.  1.
</event>
<event>
 4    1 -0.3240665E-004  0.4178554E+03  0.7818608E-02  0.1037767E+00
          5   -1    0    0  501    0  0.00000000000E+00  0.00000000000E+00  0.26868957843E+03  0.26873068220E+03  0.47000000000E+01 0. -1.
         -5   -1    0    0    0  501 -0.00000000000E+00 -0.00000000000E+00 -0.77507248133E+03  0.77508673148E+03  0.47000000000E+01 0.  1.
          6    1    1    2  502    0 -0.20224282391E+03  0.32267166764E+03 -0.43320922159E+02  0.42009506926E+03  0.17200000000E+03 0. -1.
         -6    1    1    2    0  502  0.20224282391E+03 -0.32267166764E+03 -0.46306198075E+03  0.62372234442E+03  0.17200000000E+03 0.  1.
</event>
<event>
 4    1 -0.3240665E-004  0.3641872E+03  0.7818608E-02  0.1056938E+00
         -5   -1    0    0    0  501 -0.00000000000E+00  0.00000000000E+00  0.52698880040E+03  0.52700975868E+03  0.47000000000E+01 0.  1.
          5   -1    0    0  501    0  0.00000000000E+00 -0.00000000000E+00 -0.56148980405E+03  0.56150947459E+03  0.47000000000E+01 0. -1.
          6    1    1    2  502    0  0.12495624067E+03 -0.29569281315E+03 -0.42154353004E+03  0.55707382774E+03  0.17200000000E+03 0. -1.
         -6    1    1    2    0  502 -0.12495624067E+03  0.29569281315E+03  0.38704252638E+03  0.53144540553E+03  0.17200000000E+03 0.  1.
</event>
<event>
 4    1 -0.3240665E-004  0.1829490E+03  0.7818608E-02  0.1164979E+00
         -5   -1    0    0    0  501 -0.00000000000E+00  0.00000000000E+00  0.26254964389E+03  0.26259170875E+03  0.47000000000E+01 0.  1.
          5   -1    0    0  501    0  0.00000000000E+00 -0.00000000000E+00 -0.19340388763E+03  0.19346098767E+03  0.47000000000E+01 0. -1.
          6    1    1    2  502    0 -0.40744472041E+02 -0.47182729435E+02 -0.98611860501E+02  0.20783315662E+03  0.17200000000E+03 0. -1.
         -6    1    1    2    0  502  0.40744472041E+02  0.47182729435E+02  0.16775761676E+03  0.24821953980E+03  0.17200000000E+03 0.  1.
</event>
<event>
 4    1 -0.3240665E-004  0.2386886E+03  0.7818608E-02  0.1120669E+00
         -5   -1    0    0    0  501 -0.00000000000E+00  0.00000000000E+00  0.69751418703E+03  0.69753002165E+03  0.47000000000E+01 0.  1.
          5   -1    0    0  501    0  0.00000000000E+00 -0.00000000000E+00 -0.17311883350E+03  0.17318262185E+03  0.47000000000E+01 0. -1.
          6    1    1    2  502    0 -0.12505425931E+02 -0.16502085729E+03 -0.54245721690E+02  0.24477513628E+03  0.17200000000E+03 0. -1.
         -6    1    1    2    0  502  0.12505425931E+02  0.16502085729E+03  0.57864107522E+03  0.62593750723E+03  0.17200000000E+03 0.  1.
</event>
<event>
 4    1 -0.3240665E-004  0.2696397E+03  0.7818608E-02  0.1101486E+00
         -5   -1    0    0    0  501 -0.00000000000E+00  0.00000000000E+00  0.30174660467E+03  0.30178320601E+03  0.47000000000E+01 0.  1.
          5   -1    0    0  501    0  0.00000000000E+00 -0.00000000000E+00 -0.24144542024E+03  0.24149116124E+03  0.47000000000E+01 0. -1.
          6    1    1    2  502    0  0.20615586320E+03 -0.24926946763E+02  0.43351181254E+02  0.27310239384E+03  0.17200000000E+03 0. -1.
         -6    1    1    2    0  502 -0.20615586320E+03  0.24926946763E+02  0.16950003177E+02  0.27017197340E+03  0.17200000000E+03 0. -1.
</event>
<event>
 4    1 -0.3240665E-004  0.1976500E+03  0.7818608E-02  0.1151737E+00
         -5   -1    0    0    0  501 -0.00000000000E+00  0.00000000000E+00  0.13437908638E+03  0.13446125410E+03  0.47000000000E+01 0.  1.
          5   -1    0    0  501    0  0.00000000000E+00 -0.00000000000E+00 -0.29053999941E+03  0.29057801234E+03  0.47000000000E+01 0. -1.
          6    1    1    2  502    0  0.21731501222E+02  0.94917051780E+02 -0.79791322431E+02  0.21314821134E+03  0.17200000000E+03 0. -1.
         -6    1    1    2    0  502 -0.21731501222E+02 -0.94917051780E+02 -0.76369590603E+02  0.21189105510E+03  0.17200000000E+03 0.  1.
</event>
<event>
 4    1 -0.3240665E-004  0.2023952E+03  0.7818608E-02  0.1147734E+00
          5   -1    0    0  501    0  0.00000000000E+00  0.00000000000E+00  0.96229790403E+02  0.96344499381E+02  0.47000000000E+01 0. -1.
         -5   -1    0    0    0  501 -0.00000000000E+00 -0.00000000000E+00 -0.58231611476E+03  0.58233508181E+03  0.47000000000E+01 0.  1.
          6    1    1    2  502    0 -0.33166046187E+02  0.10138946988E+03 -0.66858607747E+02  0.21315225697E+03  0.17200000000E+03 0. -1.
         -6    1    1    2    0  502  0.33166046187E+02 -0.10138946988E+03 -0.41922771661E+03  0.46552732422E+03  0.17200000000E+03 0.  1.
</event>
<event>
 4    1 -0.3240665E-004  0.1850851E+03  0.7818608E-02  0.1162970E+00
          5   -1    0    0  501    0  0.00000000000E+00  0.00000000000E+00  0.55068776462E+03  0.55070782099E+03  0.47000000000E+01 0. -1.
         -5   -1    0    0    0  501 -0.00000000000E+00 -0.00000000000E+00 -0.12234384818E+03  0.12243409324E+03  0.47000000000E+01 0.  1.
          6    1    1    2  502    0 -0.56915459392E+02 -0.37856527577E+02  0.45020919730E+03  0.48676976850E+03  0.17200000000E+03 0. -1.
         -6    1    1    2    0  502  0.56915459392E+02  0.37856527577E+02 -0.21865280860E+02  0.18637214573E+03  0.17200000000E+03 0.  1.
</event>
<event>
 4    1 -0.3240665E-004  0.2036918E+03  0.7818608E-02  0.1146661E+00
          5   -1    0    0  501    0  0.00000000000E+00  0.00000000000E+00  0.73495902989E+02  0.73646030146E+02  0.47000000000E+01 0. -1.
         -5   -1    0    0    0  501 -0.00000000000E+00 -0.00000000000E+00 -0.78517090194E+03  0.78518496882E+03  0.47000000000E+01 0.  1.
          6    1    1    2  502    0 -0.97416436608E+02 -0.49156728298E+02 -0.12784557681E+03  0.24048874728E+03  0.17200000000E+03 0. -1.
         -6    1    1    2    0  502  0.97416436608E+02  0.49156728298E+02 -0.58382942214E+03  0.61834225168E+03  0.17200000000E+03 0.  1.
</event>
<event>
 4    1 -0.3240665E-004  0.8745815E+03  0.7818608E-02  0.9457926E-01
          5   -1    0    0  501    0  0.00000000000E+00  0.00000000000E+00  0.12612919478E+04  0.12613007047E+04  0.47000000000E+01 0. -1.
         -5   -1    0    0    0  501 -0.00000000000E+00 -0.00000000000E+00 -0.69170874728E+03  0.69172471480E+03  0.47000000000E+01 0.  1.
          6    1    1    2  502    0 -0.48398672774E+03  0.70785994449E+03  0.62768893071E+03  0.10765157906E+04  0.17200000000E+03 0. -1.
         -6    1    1    2    0  502  0.48398672774E+03 -0.70785994449E+03 -0.58105730185E+02  0.87650962888E+03  0.17200000000E+03 0.  1.
</event>
<event>
 4    1 -0.3240665E-004  0.4728946E+03  0.7818608E-02  0.1021106E+00
         -5   -1    0    0    0  501 -0.00000000000E+00  0.00000000000E+00  0.64570618135E+03  0.64572328643E+03  0.47000000000E+01 0.  1.
          5   -1    0    0  501    0  0.00000000000E+00 -0.00000000000E+00 -0.52907415663E+03  0.52909503231E+03  0.47000000000E+01 0. -1.
          6    1    1    2  502    0  0.33868984754E+03  0.28166381851E+03 -0.28692912412E+03  0.55313437947E+03  0.17200000000E+03 0. -1.
         -6    1    1    2    0  502 -0.33868984754E+03 -0.28166381851E+03  0.40356114884E+03  0.62168393927E+03  0.17200000000E+03 0.  1.
</event>
<event>
 4    1 -0.3240665E-004  0.1824037E+03  0.7818608E-02  0.1165497E+00
         -5   -1    0    0    0  501 -0.00000000000E+00  0.00000000000E+00  0.24622353237E+02  0.25066916023E+02  0.47000000000E+01 0.  1.
          5   -1    0    0  501    0  0.00000000000E+00 -0.00000000000E+00 -0.13776077662E+04  0.13776157837E+04  0.47000000000E+01 0. -1.
          6    1    1    2  502    0  0.60718238033E+02  0.63688938690E+00 -0.55867447543E+03  0.58769743878E+03  0.17200000000E+03 0.  1.
         -6    1    1    2    0  502 -0.60718238033E+02 -0.63688938690E+00 -0.79431093755E+03  0.81498526095E+03  0.17200000000E+03 0.  1.
</event>
<event>
 4    1 -0.3240665E-004  0.2878182E+03  0.7818608E-02  0.1091494E+00
         -5   -1    0    0    0  501 -0.00000000000E+00  0.00000000000E+00  0.30950660630E+03  0.30954229007E+03  0.47000000000E+01 0.  1.
          5   -1    0    0  501    0  0.00000000000E+00 -0.00000000000E+00 -0.28234576033E+03  0.28238487632E+03  0.47000000000E+01 0. -1.
          6    1    1    2  502    0 -0.22421324749E+03 -0.54623524640E+02 -0.54097850518E+02  0.29285813498E+03  0.17200000000E+03 0.  1.
         -6    1    1    2    0  502  0.22421324749E+03  0.54623524640E+02  0.81258696492E+02  0.29906903141E+03  0.17200000000E+03 0.  1.
</event>
<event>
 4    1 -0.3240665E-004  0.2383915E+03  0.7818608E-02  0.1120869E+00
         -5   -1    0    0    0  501 -0.00000000000E+00  0.00000000000E+00  0.28357097474E+03  0.28360992175E+03  0.47000000000E+01 0.  1.
          5   -1    0    0  501    0  0.00000000000E+00 -0.00000000000E+00 -0.38801934889E+03  0.38804781292E+03  0.47000000000E+01 0. -1.
          6    1    1    2  502    0  0.13942171163E+03 -0.88363527762E+02 -0.28576672950E+03  0.37214667861E+03  0.17200000000E+03 0. -1.
         -6    1    1    2    0  502 -0.13942171163E+03  0.88363527762E+02  0.18131835535E+03  0.29951105605E+03  0.17200000000E+03 0.  1.
</event>
<event>
 4    1 -0.3240665E-004  0.2169055E+03  0.7818608E-02  0.1136211E+00
          5   -1    0    0  501    0  0.00000000000E+00  0.00000000000E+00  0.41099005274E+03  0.41101692599E+03  0.47000000000E+01 0. -1.
         -5   -1    0    0    0  501 -0.00000000000E+00 -0.00000000000E+00 -0.11500097805E+03  0.11509698064E+03  0.47000000000E+01 0.  1.
          6    1    1    2  502    0  0.13215036225E+03  0.51561656311E+00  0.16706581609E+03  0.27378636016E+03  0.17200000000E+03 0.  1.
         -6    1    1    2    0  502 -0.13215036225E+03 -0.51561656311E+00  0.12892325859E+03  0.25232754647E+03  0.17200000000E+03 0. -1.
</event>
<event>
 4    1 -0.3240665E-004  0.1919278E+03  0.7818608E-02  0.1156734E+00
          5   -1    0    0  501    0  0.00000000000E+00  0.00000000000E+00  0.75823416512E+03  0.75824873172E+03  0.47000000000E+01 0. -1.
         -5   -1    0    0    0  501 -0.00000000000E+00 -0.00000000000E+00 -0.48515482412E+02  0.48742610042E+02  0.47000000000E+01 0.  1.
          6    1    1    2  502    0 -0.62641466629E+02 -0.57691491856E+02  0.34040332231E+03  0.39078214316E+03  0.17200000000E+03 0.  1.
         -6    1    1    2    0  502  0.62641466629E+02  0.57691491856E+02  0.36931536040E+03  0.41620919860E+03  0.17200000000E+03 0. -1.
</event>
<event>
 4    1 -0.3240665E-004  0.1757225E+03  0.7818608E-02  0.1172008E+00
          5   -1    0    0  501    0  0.00000000000E+00  0.00000000000E+00  0.97640858054E+02  0.97753911234E+02  0.47000000000E+01 0. -1.
         -5   -1    0    0    0  501 -0.00000000000E+00 -0.00000000000E+00 -0.58027863437E+03  0.58029766801E+03  0.47000000000E+01 0.  1.
          6    1    1    2  502    0  0.29939421116E+02  0.19950543415E+02 -0.12522221936E+02  0.17616809916E+03  0.17200000000E+03 0. -1.
         -6    1    1    2    0  502 -0.29939421116E+02 -0.19950543415E+02 -0.47011555438E+03  0.50188348009E+03  0.17200000000E+03 0.  1.
</event>
<event>
 4    1 -0.3240665E-004  0.6509228E+03  0.7818608E-02  0.9805049E-01
          5   -1    0    0  501    0  0.00000000000E+00  0.00000000000E+00  0.15043252179E+04  0.15043325601E+04  0.47000000000E+01 0. -1.
         -5   -1    0    0    0  501 -0.00000000000E+00 -0.00000000000E+00 -0.30476459430E+03  0.30480083323E+03  0.47000000000E+01 0.  1.
          6    1    1    2  502    0  0.37861855332E+03  0.50076391103E+03  0.84900053003E+03  0.10698141911E+04  0.17200000000E+03 0. -1.
         -6    1    1    2    0  502 -0.37861855332E+03 -0.50076391103E+03  0.35056009360E+03  0.73931920219E+03  0.17200000000E+03 0.  1.
</event>
<event>
 4    1 -0.3240665E-004  0.1847676E+03  0.7818608E-02  0.1163267E+00
          5   -1    0    0  501    0  0.00000000000E+00  0.00000000000E+00  0.28617457484E+03  0.28621316756E+03  0.47000000000E+01 0. -1.
         -5   -1    0    0    0  501 -0.00000000000E+00 -0.00000000000E+00 -0.13459419740E+03  0.13467623389E+03  0.47000000000E+01 0.  1.
          6    1    1    2  502    0  0.67162065645E+02 -0.66584407807E+01  0.14692417738E+03  0.23606310977E+03  0.17200000000E+03 0. -1.
         -6    1    1    2    0  502 -0.67162065645E+02  0.66584407807E+01  0.46562000512E+01  0.18482629167E+03  0.17200000000E+03 0.  1.
</event>
<event>
 4    1 -0.3240665E-004  0.1965792E+03  0.7818608E-02  0.1152658E+00
          5   -1    0    0  501    0  0.00000000000E+00  0.00000000000E+00  0.36065263237E+02  0.36370224255E+02  0.47000000000E+01 0. -1.
         -5   -1    0    0    0  501 -0.00000000000E+00 -0.00000000000E+00 -0.18839988297E+04  0.18840046922E+04  0.47000000000E+01 0.  1.
          6    1    1    2  502    0 -0.12449453953E-01 -0.95180848151E+02 -0.29158456067E+03  0.35166027645E+03  0.17200000000E+03 0. -1.
         -6    1    1    2    0  502  0.12449453953E-01  0.95180848151E+02 -0.15563490058E+04  0.15687146400E+04  0.17200000000E+03 0.  1.
</event>
<event>
 4    1 -0.3240665E-004  0.2008717E+03  0.7818608E-02  0.1149006E+00
         -5   -1    0    0    0  501 -0.00000000000E+00  0.00000000000E+00  0.19270594708E+02  0.19835468746E+02  0.47000000000E+01 0.  1.
          5   -1    0    0  501    0  0.00000000000E+00 -0.00000000000E+00 -0.20631010150E+04  0.20631063686E+04  0.47000000000E+01 0. -1.
          6    1    1    2  502    0  0.85575348911E+02 -0.58670966363E+02 -0.10154498293E+04  0.10351269383E+04  0.17200000000E+03 0.  1.
         -6    1    1    2    0  502 -0.85575348911E+02  0.58670966363E+02 -0.10283805910E+04  0.10478148990E+04  0.17200000000E+03 0. -1.
</event>
<event>
 4    1 -0.3240665E-004  0.3577642E+03  0.7818608E-02  0.1059473E+00
         -5   -1    0    0    0  501 -0.00000000000E+00  0.00000000000E+00  0.11658061299E+04  0.11658156040E+04  0.47000000000E+01 0.  1.
          5   -1    0    0  501    0  0.00000000000E+00 -0.00000000000E+00 -0.11069808247E+03  0.11079781344E+03  0.47000000000E+01 0. -1.
          6    1    1    2  502    0 -0.81261812503E+01 -0.31360035119E+03  0.58718737764E+03  0.68759307119E+03  0.17200000000E+03 0.  1.
         -6    1    1    2    0  502  0.81261812503E+01  0.31360035119E+03  0.46792066982E+03  0.58902034628E+03  0.17200000000E+03 0. -1.
</event>
<event>
 4    1 -0.3240665E-004  0.2316484E+03  0.7818608E-02  0.1125485E+00
          5   -1    0    0  501    0  0.00000000000E+00  0.00000000000E+00  0.15211451812E+03  0.15218711057E+03  0.47000000000E+01 0. -1.
         -5   -1    0    0    0  501 -0.00000000000E+00 -0.00000000000E+00 -0.38242723140E+03  0.38245611162E+03  0.47000000000E+01 0.  1.
          6    1    1    2  502    0 -0.68396797797E+02  0.13927974407E+03 -0.18980945791E+03  0.29948054923E+03  0.17200000000E+03 0.  1.
         -6    1    1    2    0  502  0.68396797797E+02 -0.13927974407E+03 -0.40503255371E+02  0.23516267296E+03  0.17200000000E+03 0. -1.
</event>
<event>
 4    1 -0.3240665E-004  0.2030368E+03  0.7818608E-02  0.1147202E+00
          5   -1    0    0  501    0  0.00000000000E+00  0.00000000000E+00  0.52606153105E+02  0.52815692218E+02  0.47000000000E+01 0. -1.
         -5   -1    0    0    0  501 -0.00000000000E+00 -0.00000000000E+00 -0.78661426401E+03  0.78662830507E+03  0.47000000000E+01 0.  1.
          6    1    1    2  502    0  0.10488300267E+03  0.25288418322E+02 -0.39963188603E+03  0.44825170683E+03  0.17200000000E+03 0. -1.
         -6    1    1    2    0  502 -0.10488300267E+03 -0.25288418322E+02 -0.33437622488E+03  0.39119229046E+03  0.17200000000E+03 0.  1.
</event>
<event>
 4    1 -0.3240665E-004  0.1854364E+03  0.7818608E-02  0.1162643E+00
          5   -1    0    0  501    0  0.00000000000E+00  0.00000000000E+00  0.44165135025E+03  0.44167635796E+03  0.47000000000E+01 0. -1.
         -5   -1    0    0    0  501 -0.00000000000E+00 -0.00000000000E+00 -0.77899278821E+02  0.78040935674E+02  0.47000000000E+01 0.  1.
          6    1    1    2  502    0 -0.68595138569E+02 -0.98671862499E+01  0.19280839909E+03  0.26751024870E+03  0.17200000000E+03 0. -1.
         -6    1    1    2    0  502  0.68595138569E+02  0.98671862499E+01  0.17094367234E+03  0.25220704493E+03  0.17200000000E+03 0. -1.
</event>
<event>
 4    1 -0.3240665E-004  0.1783946E+03  0.7818608E-02  0.1169366E+00
          5   -1    0    0  501    0  0.00000000000E+00  0.00000000000E+00  0.34180632436E+03  0.34183863645E+03  0.47000000000E+01 0. -1.
         -5   -1    0    0    0  501 -0.00000000000E+00 -0.00000000000E+00 -0.95890111735E+02  0.96005226569E+02  0.47000000000E+01 0.  1.
          6    1    1    2  502    0  0.46891300017E+02 -0.64686405599E+01  0.85054447101E+02  0.19763323683E+03  0.17200000000E+03 0.  1.
         -6    1    1    2    0  502 -0.46891300017E+02  0.64686405599E+01  0.16086176552E+03  0.24021062619E+03  0.17200000000E+03 0. -1.
</event>
<event>
 4    1 -0.3240665E-004  0.2361605E+03  0.7818608E-02  0.1122377E+00
          5   -1    0    0  501    0  0.00000000000E+00  0.00000000000E+00  0.57536590701E+03  0.57538510317E+03  0.47000000000E+01 0. -1.
         -5   -1    0    0    0  501 -0.00000000000E+00 -0.00000000000E+00 -0.96854956755E+02  0.96968926198E+02  0.47000000000E+01 0.  1.
          6    1    1    2  502    0  0.51695525018E+01 -0.16174378904E+03  0.23948171264E+03  0.33633802677E+03  0.17200000000E+03 0.  1.
         -6    1    1    2    0  502 -0.51695525018E+01  0.16174378904E+03  0.23902923762E+03  0.33601600260E+03  0.17200000000E+03 0.  1.
</event>
<event>
 4    1 -0.3240665E-004  0.1749885E+03  0.7818608E-02  0.1172743E+00
         -5   -1    0    0    0  501 -0.00000000000E+00  0.00000000000E+00  0.55549682499E+03  0.55551670773E+03  0.47000000000E+01 0.  1.
          5   -1    0    0  501    0  0.00000000000E+00 -0.00000000000E+00 -0.77640909960E+02  0.77783037350E+02  0.47000000000E+01 0. -1.
          6    1    1    2  502    0  0.10067886617E+01 -0.32186128472E+02  0.40970254154E+03  0.44550772500E+03  0.17200000000E+03 0.  1.
         -6    1    1    2    0  502 -0.10067886617E+01  0.32186128472E+02  0.68153373487E+02  0.18779202008E+03  0.17200000000E+03 0. -1.
</event>
<event>
 4    1 -0.3240665E-004  0.1735591E+03  0.7818608E-02  0.1174186E+00
         -5   -1    0    0    0  501 -0.00000000000E+00  0.00000000000E+00  0.47743958498E+02  0.47974738905E+02  0.47000000000E+01 0.  1.
          5   -1    0    0  501    0  0.00000000000E+00 -0.00000000000E+00 -0.65233796169E+03  0.65235489288E+03  0.47000000000E+01 0. -1.
          6    1    1    2  502    0 -0.16104785328E+01  0.23154918220E+02 -0.36828631822E+03  0.40713333942E+03  0.17200000000E+03 0. -1.
         -6    1    1    2    0  502  0.16104785328E+01 -0.23154918220E+02 -0.23630768497E+03  0.29319629236E+03  0.17200000000E+03 0.  1.
</event>
<event>
 4    1 -0.3240665E-004  0.1953007E+03  0.7818608E-02  0.1153765E+00
         -5   -1    0    0    0  501 -0.00000000000E+00  0.00000000000E+00  0.45548210057E+03  0.45550634896E+03  0.47000000000E+01 0.  1.
          5   -1    0    0  501    0  0.00000000000E+00 -0.00000000000E+00 -0.11579723637E+03  0.11589257936E+03  0.47000000000E+01 0. -1.
          6    1    1    2  502    0 -0.92496095318E+02 -0.16823051939E+01  0.19394583944E+02  0.19626132499E+03  0.17200000000E+03 0. -1.
         -6    1    1    2    0  502  0.92496095318E+02  0.16823051939E+01  0.32029028026E+03  0.37513760333E+03  0.17200000000E+03 0.  1.
</event>
<event>
 4    1 -0.3240665E-004  0.3529177E+03  0.7818608E-02  0.1061424E+00
          5   -1    0    0  501    0  0.00000000000E+00  0.00000000000E+00  0.59702781460E+03  0.59704631428E+03  0.47000000000E+01 0. -1.
         -5   -1    0    0    0  501 -0.00000000000E+00 -0.00000000000E+00 -0.20922966505E+03  0.20928244727E+03  0.47000000000E+01 0.  1.
          6    1    1    2  502    0  0.11305414823E+03 -0.28668043407E+03  0.17126637581E+03  0.39227934331E+03  0.17200000000E+03 0. -1.
         -6    1    1    2    0  502 -0.11305414823E+03  0.28668043407E+03  0.21653177374E+03  0.41404941824E+03  0.17200000000E+03 0.  1.
</event>
<event>
 4    1 -0.3240665E-004  0.2198536E+03  0.7818608E-02  0.1133992E+00
         -5   -1    0    0    0  501 -0.00000000000E+00  0.00000000000E+00  0.31467903722E+02  0.31816960330E+02  0.47000000000E+01 0.  1.
          5   -1    0    0  501    0  0.00000000000E+00 -0.00000000000E+00 -0.16201910436E+04  0.16201978607E+04  0.47000000000E+01 0. -1.
          6    1    1    2  502    0 -0.80550663614E+02 -0.11073929174E+03 -0.99222474136E+03  0.10162900853E+04  0.17200000000E+03 0. -1.
         -6    1    1    2    0  502  0.80550663614E+02  0.11073929174E+03 -0.59649839850E+03  0.63572473568E+03  0.17200000000E+03 0.  1.
</event>
<event>
 4    1 -0.3240665E-004  0.1990156E+03  0.7818608E-02  0.1150572E+00
         -5   -1    0    0    0  501 -0.00000000000E+00  0.00000000000E+00  0.65611687565E+02  0.65779811075E+02  0.47000000000E+01 0.  1.
          5   -1    0    0  501    0  0.00000000000E+00 -0.00000000000E+00 -0.66529374079E+03  0.66531034227E+03  0.47000000000E+01 0. -1.
          6    1    1    2  502    0  0.61816364447E+02 -0.78752524867E+02 -0.41193948407E+03  0.45749465748E+03  0.17200000000E+03 0. -1.
         -6    1    1    2    0  502 -0.61816364447E+02  0.78752524867E+02 -0.18774256915E+03  0.27359549587E+03  0.17200000000E+03 0.  1.
</event>
<event>
 4    1 -0.3240665E-004  0.3416313E+03  0.7818608E-02  0.1066103E+00
          5   -1    0    0  501    0  0.00000000000E+00  0.00000000000E+00  0.48962938481E+03  0.48965194217E+03  0.47000000000E+01 0. -1.
         -5   -1    0    0    0  501 -0.00000000000E+00 -0.00000000000E+00 -0.26502070867E+03  0.26506238138E+03  0.47000000000E+01 0.  1.
          6    1    1    2  502    0 -0.10762412462E+03 -0.27485448707E+03  0.23207386281E+03  0.41300147586E+03  0.17200000000E+03 0. -1.
         -6    1    1    2    0  502  0.10762412462E+03  0.27485448707E+03 -0.74651866716E+01  0.34171284769E+03  0.17200000000E+03 0.  1.
</event>
<event>
 4    1 -0.3240665E-004  0.2913296E+03  0.7818608E-02  0.1089657E+00
         -5   -1    0    0    0  501 -0.00000000000E+00  0.00000000000E+00  0.27245871456E+03  0.27249924980E+03  0.47000000000E+01 0.  1.
          5   -1    0    0  501    0  0.00000000000E+00 -0.00000000000E+00 -0.10444275093E+04  0.10444380844E+04  0.47000000000E+01 0. -1.
          6    1    1    2  502    0 -0.22335937182E+03  0.73481622434E+02 -0.93759821777E+03  0.98181636561E+03  0.17200000000E+03 0. -1.
         -6    1    1    2    0  502  0.22335937182E+03 -0.73481622434E+02  0.16562942304E+03  0.33512096859E+03  0.17200000000E+03 0.  1.
</event>
<event>
 4    1 -0.3240665E-004  0.2009056E+03  0.7818608E-02  0.1148977E+00
         -5   -1    0    0    0  501 -0.00000000000E+00  0.00000000000E+00  0.39808495823E+03  0.39811270260E+03  0.47000000000E+01 0.  1.
          5   -1    0    0  501    0  0.00000000000E+00 -0.00000000000E+00 -0.11679339691E+03  0.11688792736E+03  0.47000000000E+01 0. -1.
          6    1    1    2  502    0 -0.26364867695E+02  0.10041880121E+03  0.46932887998E+02  0.20631465741E+03  0.17200000000E+03 0. -1.
         -6    1    1    2    0  502  0.26364867695E+02 -0.10041880121E+03  0.23435867333E+03  0.30868597255E+03  0.17200000000E+03 0.  1.
</event>
<event>
 4    1 -0.3240665E-004  0.1878449E+03  0.7818608E-02  0.1160420E+00
         -5   -1    0    0    0  501 -0.00000000000E+00  0.00000000000E+00  0.41200089870E+03  0.41202770603E+03  0.47000000000E+01 0.  1.
          5   -1    0    0  501    0  0.00000000000E+00 -0.00000000000E+00 -0.85660890321E+02  0.85789732081E+02  0.47000000000E+01 0. -1.
          6    1    1    2  502    0 -0.51992597876E+02  0.54758277112E+02  0.17209266267E+03  0.25475789231E+03  0.17200000000E+03 0.  1.
         -6    1    1    2    0  502  0.51992597876E+02 -0.54758277112E+02  0.15424734571E+03  0.24305954580E+03  0.17200000000E+03 0. -1.
</event>
<event>
 4    1 -0.3240665E-004  0.1756765E+03  0.7818608E-02  0.1172054E+00
          5   -1    0    0  501    0  0.00000000000E+00  0.00000000000E+00  0.60935440015E+03  0.60937252562E+03  0.47000000000E+01 0. -1.
         -5   -1    0    0    0  501 -0.00000000000E+00 -0.00000000000E+00 -0.53478180085E+02  0.53684315635E+02  0.47000000000E+01 0.  1.
          6    1    1    2  502    0  0.23845594264E+02 -0.26638902928E+02  0.35575060076E+03  0.39676281763E+03  0.17200000000E+03 0. -1.
         -6    1    1    2    0  502 -0.23845594264E+02  0.26638902928E+02  0.20012561930E+03  0.26629402362E+03  0.17200000000E+03 0.  1.
</event>
<event>
 4    1 -0.3240665E-004  0.2399489E+03  0.7818608E-02  0.1119827E+00
          5   -1    0    0  501    0  0.00000000000E+00  0.00000000000E+00  0.28768765109E+03  0.28772604086E+03  0.47000000000E+01 0. -1.
         -5   -1    0    0    0  501 -0.00000000000E+00 -0.00000000000E+00 -0.20006836015E+03  0.20012355867E+03  0.47000000000E+01 0.  1.
          6    1    1    2  502    0 -0.10523530415E+03  0.13006529829E+03  0.45983176508E+02  0.24431517264E+03  0.17200000000E+03 0. -1.
         -6    1    1    2    0  502  0.10523530415E+03 -0.13006529829E+03  0.41636114435E+02  0.24353442690E+03  0.17200000000E+03 0.  1.
</event>
<event>
 4    1 -0.3240665E-004  0.2284793E+03  0.7818608E-02  0.1127715E+00
         -5   -1    0    0    0  501 -0.00000000000E+00  0.00000000000E+00  0.46042577061E+03  0.46044975865E+03  0.47000000000E+01 0.  1.
          5   -1    0    0  501    0  0.00000000000E+00 -0.00000000000E+00 -0.22725320129E+03  0.22730179827E+03  0.47000000000E+01 0. -1.
          6    1    1    2  502    0 -0.12629072857E+03  0.81666785490E+02 -0.12686383131E+03  0.26133741345E+03  0.17200000000E+03 0. -1.
         -6    1    1    2    0  502  0.12629072857E+03 -0.81666785490E+02  0.36003640063E+03  0.42641414347E+03  0.17200000000E+03 0.  1.
</event>
<event>
 4    1 -0.3240665E-004  0.2135330E+03  0.7818608E-02  0.1138798E+00
         -5   -1    0    0    0  501 -0.00000000000E+00  0.00000000000E+00  0.16693540555E+04  0.16693606718E+04  0.47000000000E+01 0.  1.
          5   -1    0    0  501    0  0.00000000000E+00 -0.00000000000E+00 -0.44679331505E+02  0.44925857407E+02  0.47000000000E+01 0. -1.
          6    1    1    2  502    0  0.12587321846E+03 -0.12971397745E+02  0.27674657390E+03  0.34954969668E+03  0.17200000000E+03 0. -1.
         -6    1    1    2    0  502 -0.12587321846E+03  0.12971397745E+02  0.13479281501E+04  0.13647368325E+04  0.17200000000E+03 0. -1.
</event>
<event>
 4    1 -0.3240665E-004  0.4552829E+03  0.7818608E-02  0.1026158E+00
         -5   -1    0    0    0  501 -0.00000000000E+00  0.00000000000E+00  0.51236395444E+03  0.51238551093E+03  0.47000000000E+01 0.  1.
          5   -1    0    0  501    0  0.00000000000E+00 -0.00000000000E+00 -0.40840249144E+03  0.40842953494E+03  0.47000000000E+01 0. -1.
          6    1    1    2  502    0  0.42154081054E+03  0.13642878272E+01  0.96883687847E+02  0.46547713714E+03  0.17200000000E+03 0. -1.
         -6    1    1    2    0  502 -0.42154081054E+03 -0.13642878272E+01  0.70777751616E+01  0.45533790873E+03  0.17200000000E+03 0. -1.
</event>
<event>
 4    1 -0.3240665E-004  0.1945042E+03  0.7818608E-02  0.1154460E+00
          5   -1    0    0  501    0  0.00000000000E+00  0.00000000000E+00  0.48412295035E+02  0.48639904509E+02  0.47000000000E+01 0. -1.
         -5   -1    0    0    0  501 -0.00000000000E+00 -0.00000000000E+00 -0.78705372432E+03  0.78706775755E+03  0.47000000000E+01 0.  1.
          6    1    1    2  502    0 -0.67781885509E+02 -0.60444091875E+02 -0.41056231926E+03  0.45430528308E+03  0.17200000000E+03 0. -1.
         -6    1    1    2    0  502  0.67781885509E+02  0.60444091875E+02 -0.32807911003E+03  0.38140237897E+03  0.17200000000E+03 0.  1.
</event>
<event>
 4    1 -0.3240665E-004  0.2315230E+03  0.7818608E-02  0.1125572E+00
         -5   -1    0    0    0  501 -0.00000000000E+00  0.00000000000E+00  0.19266032190E+04  0.19266089519E+04  0.47000000000E+01 0.  1.
          5   -1    0    0  501    0  0.00000000000E+00 -0.00000000000E+00 -0.75490303159E+02  0.75636471831E+02  0.47000000000E+01 0. -1.
          6    1    1    2  502    0 -0.85571635469E+02 -0.12921456437E+03  0.12978811169E+03  0.26542016197E+03  0.17200000000E+03 0. -1.
         -6    1    1    2    0  502  0.85571635469E+02  0.12921456437E+03  0.17213248042E+04  0.17368252618E+04  0.17200000000E+03 0.  1.
</event>
<event>
 4    1 -0.3240665E-004  0.2122496E+03  0.7818608E-02  0.1139797E+00
         -5   -1    0    0    0  501 -0.00000000000E+00  0.00000000000E+00  0.60175779463E+02  0.60359046000E+02  0.47000000000E+01 0.  1.
          5   -1    0    0  501    0  0.00000000000E+00 -0.00000000000E+00 -0.14025502520E+04  0.14025581270E+04  0.47000000000E+01 0. -1.
          6    1    1    2  502    0 -0.45379398328E+02  0.11578682349E+03 -0.11711077689E+04  0.11901862395E+04  0.17200000000E+03 0. -1.
         -6    1    1    2    0  502  0.45379398328E+02 -0.11578682349E+03 -0.17126670368E+03  0.27273093348E+03  0.17200000000E+03 0.  1.
</event>
<event>
 4    1 -0.3240665E-004  0.3945354E+03  0.7818608E-02  0.1045688E+00
         -5   -1    0    0    0  501 -0.00000000000E+00  0.00000000000E+00  0.11415030591E+04  0.11415127349E+04  0.47000000000E+01 0.  1.
          5   -1    0    0  501    0  0.00000000000E+00 -0.00000000000E+00 -0.13820763057E+03  0.13828752347E+03  0.47000000000E+01 0. -1.
          6    1    1    2  502    0 -0.24785882934E+03  0.25424438869E+03  0.57656999733E+03  0.69863521976E+03  0.17200000000E+03 0. -1.
         -6    1    1    2    0  502  0.24785882934E+03 -0.25424438869E+03  0.42672543118E+03  0.58116503859E+03  0.17200000000E+03 0.  1.
</event>
<event>
 4    1 -0.3240665E-004  0.2109146E+03  0.7818608E-02  0.1140844E+00
          5   -1    0    0  501    0  0.00000000000E+00  0.00000000000E+00  0.44727127177E+02  0.44973391083E+02  0.47000000000E+01 0. -1.
         -5   -1    0    0    0  501 -0.00000000000E+00 -0.00000000000E+00 -0.17444186859E+04  0.17444250175E+04  0.47000000000E+01 0.  1.
          6    1    1    2  502    0  0.11877701353E+03 -0.28160301583E+02 -0.26213446685E+03  0.33645127469E+03  0.17200000000E+03 0. -1.
         -6    1    1    2    0  502 -0.11877701353E+03  0.28160301583E+02 -0.14375570919E+04  0.14529471339E+04  0.17200000000E+03 0.  1.
</event>
<event>
 4    1 -0.3240665E-004  0.3331759E+03  0.7818608E-02  0.1069740E+00
          5   -1    0    0  501    0  0.00000000000E+00  0.00000000000E+00  0.35582207688E+03  0.35585311632E+03  0.47000000000E+01 0. -1.
         -5   -1    0    0    0  501 -0.00000000000E+00 -0.00000000000E+00 -0.46727942237E+03  0.46730305859E+03  0.47000000000E+01 0.  1.
          6    1    1    2  502    0 -0.21820784036E+03 -0.18386815458E+03 -0.29304109609E+03  0.44371076600E+03  0.17200000000E+03 0. -1.
         -6    1    1    2    0  502  0.21820784036E+03  0.18386815458E+03  0.18158375060E+03  0.37944540891E+03  0.17200000000E+03 0. -1.
</event>
<event>
 4    1 -0.3240665E-004  0.1844985E+03  0.7818608E-02  0.1163519E+00
         -5   -1    0    0    0  501 -0.00000000000E+00  0.00000000000E+00  0.47421804800E+03  0.47424133840E+03  0.47000000000E+01 0.  1.
          5   -1    0    0  501    0  0.00000000000E+00 -0.00000000000E+00 -0.95787155390E+02  0.95902393806E+02  0.47000000000E+01 0. -1.
          6    1    1    2  502    0 -0.35073608779E+02  0.56793837476E+02  0.46316828825E+02  0.19022341244E+03  0.17200000000E+03 0. -1.
         -6    1    1    2    0  502  0.35073608779E+02 -0.56793837476E+02  0.33211406379E+03  0.37992031977E+03  0.17200000000E+03 0.  1.
</event>
<event>
 4    1 -0.3240665E-004  0.2111004E+03  0.7818608E-02  0.1140698E+00
          5   -1    0    0  501    0  0.00000000000E+00  0.00000000000E+00  0.22698439083E+02  0.23179929612E+02  0.47000000000E+01 0. -1.
         -5   -1    0    0    0  501 -0.00000000000E+00 -0.00000000000E+00 -0.19486765377E+04  0.19486822057E+04  0.47000000000E+01 0.  1.
          6    1    1    2  502    0 -0.52293998378E+02 -0.11065589306E+03 -0.90611757956E+03  0.93038296250E+03  0.17200000000E+03 0.  1.
         -6    1    1    2    0  502  0.52293998378E+02  0.11065589306E+03 -0.10198605191E+04  0.10414791728E+04  0.17200000000E+03 0.  1.
</event>
<event>
 4    1 -0.3240665E-004  0.2157907E+03  0.7818608E-02  0.1137061E+00
          5   -1    0    0  501    0  0.00000000000E+00  0.00000000000E+00  0.16968175624E+03  0.16974683620E+03  0.47000000000E+01 0. -1.
         -5   -1    0    0    0  501 -0.00000000000E+00 -0.00000000000E+00 -0.27980027315E+03  0.27983974495E+03  0.47000000000E+01 0.  1.
          6    1    1    2  502    0  0.10008405575E+03 -0.83455493675E+02 -0.23523125118E+02  0.21706905596E+03  0.17200000000E+03 0. -1.
         -6    1    1    2    0  502 -0.10008405575E+03  0.83455493675E+02 -0.86595391793E+02  0.23251752519E+03  0.17200000000E+03 0. -1.
</event>
<event>
 4    1 -0.3240665E-004  0.2301937E+03  0.7818608E-02  0.1126503E+00
          5   -1    0    0  501    0  0.00000000000E+00  0.00000000000E+00  0.19158590866E+03  0.19164355036E+03  0.47000000000E+01 0. -1.
         -5   -1    0    0    0  501 -0.00000000000E+00 -0.00000000000E+00 -0.36127649289E+03  0.36130706375E+03  0.47000000000E+01 0.  1.
          6    1    1    2  502    0  0.13828532452E+03 -0.65439525423E+02  0.49095968757E+02  0.23537114652E+03  0.17200000000E+03 0. -1.
         -6    1    1    2    0  502 -0.13828532452E+03  0.65439525423E+02 -0.21878655299E+03  0.31757946759E+03  0.17200000000E+03 0.  1.
</event>
<event>
 4    1 -0.3240665E-004  0.4444109E+03  0.7818608E-02  0.1029402E+00
         -5   -1    0    0    0  501 -0.00000000000E+00  0.00000000000E+00  0.43935805776E+03  0.43938319599E+03  0.47000000000E+01 0.  1.
          5   -1    0    0  501    0  0.00000000000E+00 -0.00000000000E+00 -0.85917221255E+03  0.85918506785E+03  0.47000000000E+01 0. -1.
          6    1    1    2  502    0  0.55575054121E+02 -0.40599066260E+03 -0.65825686715E+03  0.79423114262E+03  0.17200000000E+03 0. -1.
         -6    1    1    2    0  502 -0.55575054121E+02  0.40599066260E+03  0.23844271236E+03  0.50433712122E+03  0.17200000000E+03 0.  1.
</event>
<event>
 4    1 -0.3240665E-004  0.3608451E+03  0.7818608E-02  0.1058250E+00
          5   -1    0    0  501    0  0.00000000000E+00  0.00000000000E+00  0.29431465511E+03  0.29435218058E+03  0.47000000000E+01 0. -1.
         -5   -1    0    0    0  501 -0.00000000000E+00 -0.00000000000E+00 -0.44374852800E+03  0.44377341753E+03  0.47000000000E+01 0.  1.
          6    1    1    2  502    0 -0.18758484685E+03 -0.25580675281E+03 -0.95533267022E+02  0.37327707492E+03  0.17200000000E+03 0. -1.
         -6    1    1    2    0  502  0.18758484685E+03  0.25580675281E+03 -0.53900605873E+02  0.36484852318E+03  0.17200000000E+03 0.  1.
</event>
<event>
 4    1 -0.3240665E-004  0.2124811E+03  0.7818608E-02  0.1139616E+00
          5   -1    0    0  501    0  0.00000000000E+00  0.00000000000E+00  0.47122379591E+02  0.47356189230E+02  0.47000000000E+01 0. -1.
         -5   -1    0    0    0  501 -0.00000000000E+00 -0.00000000000E+00 -0.10079874301E+04  0.10079983875E+04  0.47000000000E+01 0.  1.
          6    1    1    2  502    0 -0.12117730654E+03  0.29669790255E+02 -0.60083485026E+03  0.63729957898E+03  0.17200000000E+03 0.  1.
         -6    1    1    2    0  502  0.12117730654E+03 -0.29669790255E+02 -0.36003020025E+03  0.41805499778E+03  0.17200000000E+03 0.  1.
</event>
<event>
 4    1 -0.3240665E-004  0.1750371E+03  0.7818608E-02  0.1172694E+00
         -5   -1    0    0    0  501 -0.00000000000E+00  0.00000000000E+00  0.38331872322E+03  0.38334753628E+03  0.47000000000E+01 0.  1.
          5   -1    0    0  501    0  0.00000000000E+00 -0.00000000000E+00 -0.80359902711E+02  0.80497229540E+02  0.47000000000E+01 0. -1.
          6    1    1    2  502    0  0.54235156214E+01  0.32009073824E+02  0.13261816915E+03  0.21960321973E+03  0.17200000000E+03 0. -1.
         -6    1    1    2    0  502 -0.54235156214E+01 -0.32009073824E+02  0.17034065137E+03  0.24424154609E+03  0.17200000000E+03 0. -1.
</event>
<event>
 4    1 -0.3240665E-004  0.1813129E+03  0.7818608E-02  0.1166538E+00
          5   -1    0    0  501    0  0.00000000000E+00  0.00000000000E+00  0.75105257054E+03  0.75106727643E+03  0.47000000000E+01 0. -1.
         -5   -1    0    0    0  501 -0.00000000000E+00 -0.00000000000E+00 -0.43992466117E+02  0.44242819474E+02  0.47000000000E+01 0.  1.
          6    1    1    2  502    0  0.37619570334E+02  0.43302971949E+02  0.38953013008E+03  0.42966044930E+03  0.17200000000E+03 0. -1.
         -6    1    1    2    0  502 -0.37619570334E+02 -0.43302971949E+02  0.31752997435E+03  0.36564964660E+03  0.17200000000E+03 0. -1.
</event>
<event>
 4    1 -0.3240665E-004  0.1807668E+03  0.7818608E-02  0.1167063E+00
          5   -1    0    0  501    0  0.00000000000E+00  0.00000000000E+00  0.18412007219E+02  0.19002421157E+02  0.47000000000E+01 0. -1.
         -5   -1    0    0    0  501 -0.00000000000E+00 -0.00000000000E+00 -0.17516571601E+04  0.17516634656E+04  0.47000000000E+01 0.  1.
          6    1    1    2  502    0 -0.39419124722E+02 -0.39226998321E+02 -0.81696957840E+03  0.83672929722E+03  0.17200000000E+03 0. -1.
         -6    1    1    2    0  502  0.39419124722E+02  0.39226998321E+02 -0.91627557450E+03  0.93393658950E+03  0.17200000000E+03 0.  1.
</event>
<event>
 4    1 -0.3240665E-004  0.2191425E+03  0.7818608E-02  0.1134524E+00
         -5   -1    0    0    0  501 -0.00000000000E+00  0.00000000000E+00  0.66034082425E+03  0.66035755025E+03  0.47000000000E+01 0.  1.
          5   -1    0    0  501    0  0.00000000000E+00 -0.00000000000E+00 -0.21897441752E+03  0.21902485139E+03  0.47000000000E+01 0. -1.
          6    1    1    2  502    0 -0.38899133613E+02 -0.13010105498E+03 -0.13866864755E+03  0.25933071726E+03  0.17200000000E+03 0. -1.
         -6    1    1    2    0  502  0.38899133613E+02  0.13010105498E+03  0.58003505428E+03  0.62005168437E+03  0.17200000000E+03 0.  1.
</event>
<event>
 4    1 -0.3240665E-004  0.2781249E+03  0.7818608E-02  0.1096718E+00
          5   -1    0    0  501    0  0.00000000000E+00  0.00000000000E+00  0.11938115118E+04  0.11938207636E+04  0.47000000000E+01 0. -1.
         -5   -1    0    0    0  501 -0.00000000000E+00 -0.00000000000E+00 -0.15341370374E+03  0.15348568172E+03  0.47000000000E+01 0.  1.
          6    1    1    2  502    0  0.20148738011E+03 -0.84689370819E+02  0.10322502726E+04  0.10690622429E+04  0.17200000000E+03 0. -1.
         -6    1    1    2    0  502 -0.20148738011E+03  0.84689370819E+02  0.81475354483E+01  0.27824420247E+03  0.17200000000E+03 0.  1.
</event>
<event>
 4    1 -0.3240665E-004  0.2198623E+03  0.7818608E-02  0.1133986E+00
          5   -1    0    0  501    0  0.00000000000E+00  0.00000000000E+00  0.15408495901E+03  0.15415662358E+03  0.47000000000E+01 0. -1.
         -5   -1    0    0    0  501 -0.00000000000E+00 -0.00000000000E+00 -0.31395126339E+03  0.31398644204E+03  0.47000000000E+01 0.  1.
          6    1    1    2  502    0  0.81627676028E+02 -0.10996527597E+03 -0.88224821011E+02  0.23690305708E+03  0.17200000000E+03 0.  1.
         -6    1    1    2    0  502 -0.81627676028E+02  0.10996527597E+03 -0.71641483367E+02  0.23124000854E+03  0.17200000000E+03 0.  1.
</event>
<event>
 4    1 -0.3240665E-004  0.1740858E+03  0.7818608E-02  0.1173653E+00
          5   -1    0    0  501    0  0.00000000000E+00  0.00000000000E+00  0.76627318855E+03  0.76628760234E+03  0.47000000000E+01 0. -1.
         -5   -1    0    0    0  501 -0.00000000000E+00 -0.00000000000E+00 -0.41159728251E+02  0.41427203981E+02  0.47000000000E+01 0.  1.
          6    1    1    2  502    0 -0.19609793031E+02  0.18365958331E+02  0.27922835156E+03  0.32905064158E+03  0.17200000000E+03 0.  1.
         -6    1    1    2    0  502  0.19609793031E+02 -0.18365958331E+02  0.44588510874E+03  0.47866416474E+03  0.17200000000E+03 0. -1.
</event>
<event>
 4    1 -0.3240665E-004  0.2197963E+03  0.7818608E-02  0.1134035E+00
          5   -1    0    0  501    0  0.00000000000E+00  0.00000000000E+00  0.75023645262E+02  0.75170721350E+02  0.47000000000E+01 0. -1.
         -5   -1    0    0    0  501 -0.00000000000E+00 -0.00000000000E+00 -0.71677573155E+03  0.71679114067E+03  0.47000000000E+01 0.  1.
          6    1    1    2  502    0 -0.53399330632E+02 -0.12599574063E+03 -0.19397970960E+03  0.29315276377E+03  0.17200000000E+03 0. -1.
         -6    1    1    2    0  502  0.53399330632E+02  0.12599574063E+03 -0.44777237669E+03  0.49880909825E+03  0.17200000000E+03 0.  1.
</event>
<event>
 4    1 -0.3240665E-004  0.2240469E+03  0.7818608E-02  0.1130901E+00
          5   -1    0    0  501    0  0.00000000000E+00  0.00000000000E+00  0.92387018637E+02  0.92506492814E+02  0.47000000000E+01 0. -1.
         -5   -1    0    0    0  501 -0.00000000000E+00 -0.00000000000E+00 -0.62794725368E+03  0.62796484249E+03  0.47000000000E+01 0.  1.
          6    1    1    2  502    0  0.92343013584E+02 -0.10993537795E+03 -0.13518534186E+03  0.26167173354E+03  0.17200000000E+03 0. -1.
         -6    1    1    2    0  502 -0.92343013584E+02  0.10993537795E+03 -0.40037489319E+03  0.45879960176E+03  0.17200000000E+03 0.  1.
</event>
<event>
 4    1 -0.3240665E-004  0.1830147E+03  0.7818608E-02  0.1164917E+00
          5   -1    0    0  501    0  0.00000000000E+00  0.00000000000E+00  0.16771091816E+03  0.16777676260E+03  0.47000000000E+01 0. -1.
         -5   -1    0    0    0  501 -0.00000000000E+00 -0.00000000000E+00 -0.29472532959E+03  0.29476280277E+03  0.47000000000E+01 0.  1.
          6    1    1    2  502    0 -0.62344294605E+02  0.48540575129E+01 -0.19488324385E+03  0.26734594008E+03  0.17200000000E+03 0.  1.
         -6    1    1    2    0  502  0.62344294605E+02 -0.48540575129E+01  0.67868832421E+02  0.19519362530E+03  0.17200000000E+03 0.  1.
</event>
<event>
 4    1 -0.3240665E-004  0.3105782E+03  0.7818608E-02  0.1080069E+00
          5   -1    0    0  501    0  0.00000000000E+00  0.00000000000E+00  0.14581194987E+03  0.14588767846E+03  0.47000000000E+01 0. -1.
         -5   -1    0    0    0  501 -0.00000000000E+00 -0.00000000000E+00 -0.80133643483E+03  0.80135021793E+03  0.47000000000E+01 0.  1.
          6    1    1    2  502    0  0.44048185836E+00 -0.25860127303E+03 -0.12976492489E+03  0.33659730862E+03  0.17200000000E+03 0. -1.
         -6    1    1    2    0  502 -0.44048185836E+00  0.25860127303E+03 -0.52575956006E+03  0.61064058777E+03  0.17200000000E+03 0.  1.
</event>
<event>
 4    1 -0.3240665E-004  0.1726338E+03  0.7818608E-02  0.1175129E+00
          5   -1    0    0  501    0  0.00000000000E+00  0.00000000000E+00  0.20419506196E+03  0.20424914523E+03  0.47000000000E+01 0. -1.
         -5   -1    0    0    0  501 -0.00000000000E+00 -0.00000000000E+00 -0.14743140671E+03  0.14750630388E+03  0.47000000000E+01 0.  1.
          6    1    1    2  502    0  0.13090909230E+02  0.68607635498E+01  0.46649110349E+02  0.17882556159E+03  0.17200000000E+03 0. -1.
         -6    1    1    2    0  502 -0.13090909230E+02 -0.68607635498E+01  0.10114544894E+02  0.17292988752E+03  0.17200000000E+03 0.  1.
</event>
<event>
 4    1 -0.3240665E-004  0.3004482E+03  0.7818608E-02  0.1085017E+00
          5   -1    0    0  501    0  0.00000000000E+00  0.00000000000E+00  0.71113585152E+02  0.71268730823E+02  0.47000000000E+01 0. -1.
         -5   -1    0    0    0  501 -0.00000000000E+00 -0.00000000000E+00 -0.12678486522E+04  0.12678573638E+04  0.47000000000E+01 0.  1.
          6    1    1    2  502    0 -0.81593377354E+02  0.23243850222E+03 -0.60138435963E+03  0.67225909034E+03  0.17200000000E+03 0.  1.
         -6    1    1    2    0  502  0.81593377354E+02 -0.23243850222E+03 -0.59535070740E+03  0.66686700424E+03  0.17200000000E+03 0.  1.
</event>
<event>
 4    1 -0.3240665E-004  0.3101457E+03  0.7818608E-02  0.1080276E+00
         -5   -1    0    0    0  501 -0.00000000000E+00  0.00000000000E+00  0.58192338265E+02  0.58381831359E+02  0.47000000000E+01 0.  1.
          5   -1    0    0  501    0  0.00000000000E+00 -0.00000000000E+00 -0.16603968409E+04  0.16604034930E+04  0.47000000000E+01 0. -1.
          6    1    1    2  502    0  0.13004730328E+03 -0.22292169153E+03 -0.86879599624E+03  0.92249491311E+03  0.17200000000E+03 0. -1.
         -6    1    1    2    0  502 -0.13004730328E+03  0.22292169153E+03 -0.73340850645E+03  0.79629041121E+03  0.17200000000E+03 0.  1.
</event>
<event>
 4    1 -0.3240665E-004  0.2502658E+03  0.7818608E-02  0.1113137E+00
          5   -1    0    0  501    0  0.00000000000E+00  0.00000000000E+00  0.28522639109E+04  0.28522677833E+04  0.47000000000E+01 0. -1.
         -5   -1    0    0    0  501 -0.00000000000E+00 -0.00000000000E+00 -0.72109596510E+02  0.72262603807E+02  0.47000000000E+01 0.  1.
          6    1    1    2  502    0  0.20000796730E+02  0.18069023527E+03  0.26098342872E+04  0.26218062475E+04  0.17200000000E+03 0. -1.
         -6    1    1    2    0  502 -0.20000796730E+02 -0.18069023527E+03  0.17032002719E+03  0.30272413953E+03  0.17200000000E+03 0.  1.
</event>
<event>
 4    1 -0.3240665E-004  0.2273694E+03  0.7818608E-02  0.1128505E+00
         -5   -1    0    0    0  501 -0.00000000000E+00  0.00000000000E+00  0.76808528516E+02  0.76952193294E+02  0.47000000000E+01 0.  1.
          5   -1    0    0  501    0  0.00000000000E+00 -0.00000000000E+00 -0.68623219168E+03  0.68624828663E+03  0.47000000000E+01 0. -1.
          6    1    1    2  502    0 -0.10455609311E+03  0.10573959862E+03 -0.25030705993E+03  0.33815745382E+03  0.17200000000E+03 0. -1.
         -6    1    1    2    0  502  0.10455609311E+03 -0.10573959862E+03 -0.35911660323E+03  0.42504302610E+03  0.17200000000E+03 0.  1.
</event>
<event>
 4    1 -0.3240665E-004  0.2015501E+03  0.7818608E-02  0.1148438E+00
         -5   -1    0    0    0  501 -0.00000000000E+00  0.00000000000E+00  0.28915230525E+03  0.28919050059E+03  0.47000000000E+01 0.  1.
          5   -1    0    0  501    0  0.00000000000E+00 -0.00000000000E+00 -0.48640752601E+03  0.48643023278E+03  0.47000000000E+01 0. -1.
          6    1    1    2  502    0  0.65077961130E+02 -0.82482232741E+02 -0.42568317985E+03  0.47098686750E+03  0.17200000000E+03 0. -1.
         -6    1    1    2    0  502 -0.65077961130E+02  0.82482232741E+02  0.22842795909E+03  0.30463386588E+03  0.17200000000E+03 0.  1.
</event>
<event>
 4    1 -0.3240665E-004  0.2562531E+03  0.7818608E-02  0.1109416E+00
          5   -1    0    0  501    0  0.00000000000E+00  0.00000000000E+00  0.73863455598E+02  0.74012837217E+02  0.47000000000E+01 0. -1.
         -5   -1    0    0    0  501 -0.00000000000E+00 -0.00000000000E+00 -0.88832469480E+03  0.88833712823E+03  0.47000000000E+01 0.  1.
          6    1    1    2  502    0  0.18144164895E+03  0.56219103641E+02 -0.41697238819E+03  0.48941968912E+03  0.17200000000E+03 0. -1.
         -6    1    1    2    0  502 -0.18144164895E+03 -0.56219103641E+02 -0.39748885102E+03  0.47293027633E+03  0.17200000000E+03 0.  1.
</event>
<event>
 4    1 -0.3240665E-004  0.1991325E+03  0.7818608E-02  0.1150473E+00
         -5   -1    0    0    0  501 -0.00000000000E+00  0.00000000000E+00  0.35449825765E+02  0.35760035609E+02  0.47000000000E+01 0.  1.
          5   -1    0    0  501    0  0.00000000000E+00 -0.00000000000E+00 -0.18728829686E+04  0.18728888659E+04  0.47000000000E+01 0. -1.
          6    1    1    2  502    0 -0.95425168070E+02 -0.31044788560E+02 -0.15263797921E+04  0.15393144614E+04  0.17200000000E+03 0. -1.
         -6    1    1    2    0  502  0.95425168070E+02  0.31044788560E+02 -0.31105335073E+03  0.36933444004E+03  0.17200000000E+03 0.  1.
</event>
<event>
 4    1 -0.3240665E-004  0.2723740E+03  0.7818608E-02  0.1099929E+00
          5   -1    0    0  501    0  0.00000000000E+00  0.00000000000E+00  0.12516103982E+04  0.12516192228E+04  0.47000000000E+01 0. -1.
         -5   -1    0    0    0  501 -0.00000000000E+00 -0.00000000000E+00 -0.73788277749E+02  0.73937811255E+02  0.47000000000E+01 0.  1.
          6    1    1    2  502    0  0.13155475543E+03 -0.16521789219E+03  0.88354371084E+03  0.92457400706E+03  0.17200000000E+03 0. -1.
         -6    1    1    2    0  502 -0.13155475543E+03  0.16521789219E+03  0.29427840963E+03  0.40098302701E+03  0.17200000000E+03 0.  1.
</event>
<event>
 4    1 -0.3240665E-004  0.2823813E+03  0.7818608E-02  0.1094395E+00
          5   -1    0    0  501    0  0.00000000000E+00  0.00000000000E+00  0.44709970274E+03  0.44712440572E+03  0.47000000000E+01 0. -1.
         -5   -1    0    0    0  501 -0.00000000000E+00 -0.00000000000E+00 -0.20911876058E+03  0.20917157079E+03  0.47000000000E+01 0.  1.
          6    1    1    2  502    0  0.21835861451E+03  0.49746666727E+02  0.24496603409E+03  0.37382826704E+03  0.17200000000E+03 0. -1.
         -6    1    1    2    0  502 -0.21835861451E+03 -0.49746666727E+02 -0.69850919269E+01  0.28246770946E+03  0.17200000000E+03 0.  1.
</event>
<event>
 4    1 -0.3240665E-004  0.2115103E+03  0.7818608E-02  0.1140376E+00
          5   -1    0    0  501    0  0.00000000000E+00  0.00000000000E+00  0.20388067028E+03  0.20393483693E+03  0.47000000000E+01 0. -1.
         -5   -1    0    0    0  501 -0.00000000000E+00 -0.00000000000E+00 -0.22025400007E+03  0.22030414101E+03  0.47000000000E+01 0.  1.
          6    1    1    2  502    0 -0.12393310490E+02 -0.12247046397E+03 -0.22018961448E+02  0.21265334080E+03  0.17200000000E+03 0. -1.
         -6    1    1    2    0  502  0.12393310490E+02  0.12247046397E+03  0.56456316653E+01  0.21158563715E+03  0.17200000000E+03 0.  1.
</event>
<event>
 4    1 -0.3240665E-004  0.1726982E+03  0.7818608E-02  0.1175063E+00
          5   -1    0    0  501    0  0.00000000000E+00  0.00000000000E+00  0.15274156456E+03  0.15281385914E+03  0.47000000000E+01 0. -1.
         -5   -1    0    0    0  501 -0.00000000000E+00 -0.00000000000E+00 -0.28781922197E+03  0.28785759420E+03  0.47000000000E+01 0.  1.
          6    1    1    2  502    0 -0.14848671908E+02 -0.44923914255E+01  0.57482271455E+02  0.18201339558E+03  0.17200000000E+03 0. -1.
         -6    1    1    2    0  502  0.14848671908E+02  0.44923914255E+01 -0.19255992887E+03  0.25865805776E+03  0.17200000000E+03 0.  1.
</event>
<event>
 4    1 -0.3240665E-004  0.2255484E+03  0.7818608E-02  0.1129813E+00
          5   -1    0    0  501    0  0.00000000000E+00  0.00000000000E+00  0.10342112154E+03  0.10352786282E+03  0.47000000000E+01 0. -1.
         -5   -1    0    0    0  501 -0.00000000000E+00 -0.00000000000E+00 -0.49710986251E+03  0.49713208044E+03  0.47000000000E+01 0.  1.
          6    1    1    2  502    0 -0.92374120619E+01  0.14561171425E+03 -0.16500421676E+03  0.27946107539E+03  0.17200000000E+03 0. -1.
         -6    1    1    2    0  502  0.92374120619E+01 -0.14561171425E+03 -0.22868452422E+03  0.32119886788E+03  0.17200000000E+03 0.  1.
</event>
<event>
 4    1 -0.3240665E-004  0.2503579E+03  0.7818608E-02  0.1113079E+00
          5   -1    0    0  501    0  0.00000000000E+00  0.00000000000E+00  0.75990636055E+03  0.75992089510E+03  0.47000000000E+01 0. -1.
         -5   -1    0    0    0  501 -0.00000000000E+00 -0.00000000000E+00 -0.86250550649E+02  0.86378512879E+02  0.47000000000E+01 0.  1.
          6    1    1    2  502    0  0.18573030954E+02  0.18096993347E+03  0.42615627652E+03  0.49425524410E+03  0.17200000000E+03 0. -1.
         -6    1    1    2    0  502 -0.18573030954E+02 -0.18096993347E+03  0.24749953338E+03  0.35204416388E+03  0.17200000000E+03 0.  1.
</event>
<event>
 4    1 -0.3240665E-004  0.3171451E+03  0.7818608E-02  0.1076971E+00
          5   -1    0    0  501    0  0.00000000000E+00  0.00000000000E+00  0.22850401616E+03  0.22855234718E+03  0.47000000000E+01 0. -1.
         -5   -1    0    0    0  501 -0.00000000000E+00 -0.00000000000E+00 -0.70150830993E+03  0.70152405440E+03  0.47000000000E+01 0.  1.
          6    1    1    2  502    0  0.56510082596E+02  0.26039131964E+03  0.47381390537E+02  0.32066497306E+03  0.17200000000E+03 0. -1.
         -6    1    1    2    0  502 -0.56510082596E+02 -0.26039131964E+03 -0.52038568431E+03  0.60941142852E+03  0.17200000000E+03 0.  1.
</event>
<event>
 4    1 -0.3240665E-004  0.4311347E+03  0.7818608E-02  0.1033502E+00
          5   -1    0    0  501    0  0.00000000000E+00  0.00000000000E+00  0.49649650765E+03  0.49651875303E+03  0.47000000000E+01 0. -1.
         -5   -1    0    0    0  501 -0.00000000000E+00 -0.00000000000E+00 -0.42271733752E+03  0.42274346529E+03  0.47000000000E+01 0.  1.
          6    1    1    2  502    0 -0.94376934253E+02 -0.38390903493E+03  0.19238398585E+03  0.47211095182E+03  0.17200000000E+03 0. -1.
         -6    1    1    2    0  502  0.94376934253E+02  0.38390903493E+03 -0.11860481572E+03  0.44715126650E+03  0.17200000000E+03 0.  1.
</event>
<event>
 4    1 -0.3240665E-004  0.1959592E+03  0.7818608E-02  0.1153194E+00
          5   -1    0    0  501    0  0.00000000000E+00  0.00000000000E+00  0.50669124116E+02  0.50886640080E+02  0.47000000000E+01 0. -1.
         -5   -1    0    0    0  501 -0.00000000000E+00 -0.00000000000E+00 -0.11123032131E+04  0.11123131429E+04  0.47000000000E+01 0.  1.
          6    1    1    2  502    0 -0.90852952133E+02 -0.23700937842E+02 -0.85995029247E+03  0.88199461386E+03  0.17200000000E+03 0.  1.
         -6    1    1    2    0  502  0.90852952133E+02  0.23700937842E+02 -0.20168379654E+03  0.28120516914E+03  0.17200000000E+03 0. -1.
</event>
<event>
 4    1 -0.3240665E-004  0.4084747E+03  0.7818608E-02  0.1040884E+00
          5   -1    0    0  501    0  0.00000000000E+00  0.00000000000E+00  0.37160762719E+03  0.37163734821E+03  0.47000000000E+01 0. -1.
         -5   -1    0    0    0  501 -0.00000000000E+00 -0.00000000000E+00 -0.70430447965E+03  0.70432016161E+03  0.47000000000E+01 0.  1.
          6    1    1    2  502    0  0.14044908762E+03 -0.34284343699E+03  0.15758095205E+03  0.43781654257E+03  0.17200000000E+03 0. -1.
         -6    1    1    2    0  502 -0.14044908762E+03  0.34284343699E+03 -0.49027780450E+03  0.63814096725E+03  0.17200000000E+03 0.  1.
</event>
<event>
 4    1 -0.3240665E-004  0.4269838E+03  0.7818608E-02  0.1034817E+00
         -5   -1    0    0    0  501 -0.00000000000E+00  0.00000000000E+00  0.68345561587E+03  0.68347177620E+03  0.47000000000E+01 0.  1.
          5   -1    0    0  501    0  0.00000000000E+00 -0.00000000000E+00 -0.35318863332E+03  0.35321990417E+03  0.47000000000E+01 0. -1.
          6    1    1    2  502    0  0.28532455818E+03 -0.26705996044E+03  0.42159734497E+03  0.60004953734E+03  0.17200000000E+03 0. -1.
         -6    1    1    2    0  502 -0.28532455818E+03  0.26705996044E+03 -0.91330362419E+02  0.43664214303E+03  0.17200000000E+03 0.  1.
</event>
<event>
 4    1 -0.3240665E-004  0.2353866E+03  0.7818608E-02  0.1122905E+00
         -5   -1    0    0    0  501 -0.00000000000E+00  0.00000000000E+00  0.43148892577E+03  0.43151452242E+03  0.47000000000E+01 0.  1.
          5   -1    0    0  501    0  0.00000000000E+00 -0.00000000000E+00 -0.13607909565E+03  0.13616023749E+03  0.47000000000E+01 0. -1.
          6    1    1    2  502    0 -0.36857631696E+01  0.16065266063E+03  0.21538389481E+03  0.31905655354E+03  0.17200000000E+03 0. -1.
         -6    1    1    2    0  502  0.36857631696E+01 -0.16065266063E+03  0.80025935302E+02  0.24861820637E+03  0.17200000000E+03 0. -1.
</event>
<event>
 4    1 -0.3240665E-004  0.1892296E+03  0.7818608E-02  0.1159158E+00
          5   -1    0    0  501    0  0.00000000000E+00  0.00000000000E+00  0.20066739198E+03  0.20072242576E+03  0.47000000000E+01 0. -1.
         -5   -1    0    0    0  501 -0.00000000000E+00 -0.00000000000E+00 -0.33993005579E+03  0.33996254621E+03  0.47000000000E+01 0.  1.
          6    1    1    2  502    0  0.30526091981E+02 -0.72746258037E+02  0.11673627490E+03  0.22234032074E+03  0.17200000000E+03 0. -1.
         -6    1    1    2    0  502 -0.30526091981E+02  0.72746258037E+02 -0.25599893870E+03  0.31834465123E+03  0.17200000000E+03 0.  1.
</event>
<event>
 4    1 -0.3240665E-004  0.2098642E+03  0.7818608E-02  0.1141674E+00
          5   -1    0    0  501    0  0.00000000000E+00  0.00000000000E+00  0.71708237844E+03  0.71709778097E+03  0.47000000000E+01 0. -1.
         -5   -1    0    0    0  501 -0.00000000000E+00 -0.00000000000E+00 -0.70012362840E+02  0.70169943354E+02  0.47000000000E+01 0.  1.
          6    1    1    2  502    0 -0.89013323625E+02 -0.80843129878E+02  0.46210238090E+03  0.50752496871E+03  0.17200000000E+03 0. -1.
         -6    1    1    2    0  502  0.89013323625E+02  0.80843129878E+02  0.18496763470E+03  0.27974275561E+03  0.17200000000E+03 0.  1.
</event>
<event>
 4    1 -0.3240665E-004  0.1931207E+03  0.7818608E-02  0.1155676E+00
          5   -1    0    0  501    0  0.00000000000E+00  0.00000000000E+00  0.23193828211E+02  0.23665241750E+02  0.47000000000E+01 0. -1.
         -5   -1    0    0    0  501 -0.00000000000E+00 -0.00000000000E+00 -0.17395302257E+04  0.17395365751E+04  0.47000000000E+01 0.  1.
          6    1    1    2  502    0  0.30284256862E+02  0.82428512689E+02 -0.60089230223E+03  0.63116333448E+03  0.17200000000E+03 0. -1.
         -6    1    1    2    0  502 -0.30284256862E+02 -0.82428512689E+02 -0.11154440952E+04  0.11320384823E+04  0.17200000000E+03 0.  1.
</event>
<event>
 4    1 -0.3240665E-004  0.2638626E+03  0.7818608E-02  0.1104844E+00
          5   -1    0    0  501    0  0.00000000000E+00  0.00000000000E+00  0.13880039036E+04  0.13880118611E+04  0.47000000000E+01 0. -1.
         -5   -1    0    0    0  501 -0.00000000000E+00 -0.00000000000E+00 -0.79048094958E+02  0.79187696750E+02  0.47000000000E+01 0.  1.
          6    1    1    2  502    0 -0.44340529744E+02  0.19512403123E+03  0.10983294945E+04  0.11295800762E+04  0.17200000000E+03 0. -1.
         -6    1    1    2    0  502  0.44340529744E+02 -0.19512403123E+03  0.21062631423E+03  0.33761948164E+03  0.17200000000E+03 0.  1.
</event>
<event>
 4    1 -0.3240665E-004  0.1923516E+03  0.7818608E-02  0.1156357E+00
          5   -1    0    0  501    0  0.00000000000E+00  0.00000000000E+00  0.48346915692E+03  0.48349200168E+03  0.47000000000E+01 0. -1.
         -5   -1    0    0    0  501 -0.00000000000E+00 -0.00000000000E+00 -0.17572673881E+03  0.17578958084E+03  0.47000000000E+01 0.  1.
          6    1    1    2  502    0  0.29033928960E+02 -0.81068975478E+02  0.40157335445E+03  0.44526431119E+03  0.17200000000E+03 0. -1.
         -6    1    1    2    0  502 -0.29033928960E+02  0.81068975478E+02 -0.93830936335E+02  0.21401727133E+03  0.17200000000E+03 0.  1.
</event>
<event>
 4    1 -0.3240665E-004  0.1879102E+03  0.7818608E-02  0.1160360E+00
          5   -1    0    0  501    0  0.00000000000E+00  0.00000000000E+00  0.55588063164E+03  0.55590050066E+03  0.47000000000E+01 0. -1.
         -5   -1    0    0    0  501 -0.00000000000E+00 -0.00000000000E+00 -0.12782560879E+03  0.12791198639E+03  0.47000000000E+01 0.  1.
          6    1    1    2  502    0 -0.67720889997E+02 -0.33765839733E+02  0.45659230201E+03  0.49374768974E+03  0.17200000000E+03 0. -1.
         -6    1    1    2    0  502  0.67720889997E+02  0.33765839733E+02 -0.28537279155E+02  0.19006479731E+03  0.17200000000E+03 0.  1.
</event>
<event>
 4    1 -0.3240665E-004  0.3426857E+03  0.7818608E-02  0.1065658E+00
         -5   -1    0    0    0  501 -0.00000000000E+00  0.00000000000E+00  0.88027736217E+03  0.88028990926E+03  0.47000000000E+01 0.  1.
          5   -1    0    0  501    0  0.00000000000E+00 -0.00000000000E+00 -0.18895517011E+03  0.18901361409E+03  0.47000000000E+01 0. -1.
          6    1    1    2  502    0 -0.22769594214E+03  0.18974728105E+03  0.55691190739E+02  0.34718148203E+03  0.17200000000E+03 0. -1.
         -6    1    1    2    0  502  0.22769594214E+03 -0.18974728105E+03  0.63563100132E+03  0.72212204133E+03  0.17200000000E+03 0.  1.
</event>
<event>
 4    1 -0.3240665E-004  0.1799870E+03  0.7818608E-02  0.1167816E+00
         -5   -1    0    0    0  501 -0.00000000000E+00  0.00000000000E+00  0.28038880306E+03  0.28042819202E+03  0.47000000000E+01 0.  1.
          5   -1    0    0  501    0  0.00000000000E+00 -0.00000000000E+00 -0.11614546963E+03  0.11624052700E+03  0.47000000000E+01 0. -1.
          6    1    1    2  502    0 -0.53000384799E+02 -0.15109447083E+01  0.66693256617E+02  0.19194612322E+03  0.17200000000E+03 0. -1.
         -6    1    1    2    0  502  0.53000384799E+02  0.15109447083E+01  0.97550076806E+02  0.20472259579E+03  0.17200000000E+03 0.  1.
</event>
<event>
 4    1 -0.3240665E-004  0.1921672E+03  0.7818608E-02  0.1156521E+00
          5   -1    0    0  501    0  0.00000000000E+00  0.00000000000E+00  0.51480024574E+03  0.51482170022E+03  0.47000000000E+01 0. -1.
         -5   -1    0    0    0  501 -0.00000000000E+00 -0.00000000000E+00 -0.96341996413E+02  0.96456571953E+02  0.47000000000E+01 0.  1.
          6    1    1    2  502    0 -0.75296414655E+02 -0.40923054588E+02  0.36388847179E+03  0.41151314239E+03  0.17200000000E+03 0. -1.
         -6    1    1    2    0  502  0.75296414655E+02  0.40923054588E+02  0.54569777541E+02  0.19976512978E+03  0.17200000000E+03 0.  1.
</event>
<event>
 4    1 -0.3240665E-004  0.1734846E+03  0.7818608E-02  0.1174262E+00
         -5   -1    0    0    0  501 -0.00000000000E+00  0.00000000000E+00  0.36592229286E+03  0.36595247562E+03  0.47000000000E+01 0.  1.
          5   -1    0    0  501    0  0.00000000000E+00 -0.00000000000E+00 -0.83218541749E+02  0.83351158905E+02  0.47000000000E+01 0. -1.
          6    1    1    2  502    0  0.15090204410E+02  0.16887334286E+02  0.11590475209E+03  0.20864037933E+03  0.17200000000E+03 0. -1.
         -6    1    1    2    0  502 -0.15090204410E+02 -0.16887334286E+02  0.16679899902E+03  0.24066325520E+03  0.17200000000E+03 0.  1.
</event>
<event>
 4    1 -0.3240665E-004  0.1791459E+03  0.7818608E-02  0.1168632E+00
          5   -1    0    0  501    0  0.00000000000E+00  0.00000000000E+00  0.10637290307E+03  0.10647668528E+03  0.47000000000E+01 0. -1.
         -5   -1    0    0    0  501 -0.00000000000E+00 -0.00000000000E+00 -0.38869986828E+03  0.38872828248E+03  0.47000000000E+01 0.  1.
          6    1    1    2  502    0  0.25020432829E+02 -0.43396018412E+02 -0.23865800458E+02  0.18072856140E+03  0.17200000000E+03 0. -1.
         -6    1    1    2    0  502 -0.25020432829E+02  0.43396018412E+02 -0.25846116475E+03  0.31447640636E+03  0.17200000000E+03 0.  1.
</event>
<event>
 4    1 -0.3240665E-004  0.2487209E+03  0.7818608E-02  0.1114116E+00
         -5   -1    0    0    0  501 -0.00000000000E+00  0.00000000000E+00  0.32326424442E+03  0.32329840971E+03  0.47000000000E+01 0.  1.
          5   -1    0    0  501    0  0.00000000000E+00 -0.00000000000E+00 -0.58433887045E+03  0.58435777185E+03  0.47000000000E+01 0. -1.
          6    1    1    2  502    0  0.83545860324E+02  0.15905396318E+03 -0.50271750567E+03  0.56088052604E+03  0.17200000000E+03 0. -1.
         -6    1    1    2    0  502 -0.83545860324E+02 -0.15905396318E+03  0.24164287964E+03  0.34677565552E+03  0.17200000000E+03 0.  1.
</event>
<event>
 4    1 -0.3240665E-004  0.1859625E+03  0.7818608E-02  0.1162154E+00
          5   -1    0    0  501    0  0.00000000000E+00  0.00000000000E+00  0.25507112213E+03  0.25511442010E+03  0.47000000000E+01 0. -1.
         -5   -1    0    0    0  501 -0.00000000000E+00 -0.00000000000E+00 -0.15133816538E+03  0.15141113004E+03  0.47000000000E+01 0.  1.
          6    1    1    2  502    0  0.63494654860E+02 -0.31088311569E+02 -0.13899694481E+02  0.18648124790E+03  0.17200000000E+03 0.  1.
         -6    1    1    2    0  502 -0.63494654860E+02  0.31088311569E+02  0.11763265123E+03  0.22004430224E+03  0.17200000000E+03 0. -1.
</event>
<event>
 4    1 -0.3240665E-004  0.2133840E+03  0.7818608E-02  0.1138914E+00
         -5   -1    0    0    0  501 -0.00000000000E+00  0.00000000000E+00  0.17091625741E+03  0.17098086749E+03  0.47000000000E+01 0.  1.
          5   -1    0    0  501    0  0.00000000000E+00 -0.00000000000E+00 -0.31991798166E+03  0.31995250427E+03  0.47000000000E+01 0. -1.
          6    1    1    2  502    0 -0.22194265467E+02  0.12432268818E+03 -0.17500606238E+03  0.27597071962E+03  0.17200000000E+03 0.  1.
         -6    1    1    2    0  502  0.22194265467E+02 -0.12432268818E+03  0.26004338133E+02  0.21496265215E+03  0.17200000000E+03 0.  1.
</event>
<event>
 4    1 -0.3240665E-004  0.1993305E+03  0.7818608E-02  0.1150305E+00
          5   -1    0    0  501    0  0.00000000000E+00  0.00000000000E+00  0.11087946082E+04  0.11088045695E+04  0.47000000000E+01 0. -1.
         -5   -1    0    0    0  501 -0.00000000000E+00 -0.00000000000E+00 -0.53407068015E+02  0.53613476980E+02  0.47000000000E+01 0.  1.
          6    1    1    2  502    0 -0.92216363372E+02 -0.40555891872E+02  0.86180570400E+03  0.88455735229E+03  0.17200000000E+03 0. -1.
         -6    1    1    2    0  502  0.92216363372E+02  0.40555891872E+02  0.19358183622E+03  0.27786069415E+03  0.17200000000E+03 0.  1.
</event>
<event>
 4    1 -0.3240665E-004  0.1983967E+03  0.7818608E-02  0.1151099E+00
          5   -1    0    0  501    0  0.00000000000E+00  0.00000000000E+00  0.58665387225E+02  0.58853357238E+02  0.47000000000E+01 0. -1.
         -5   -1    0    0    0  501 -0.00000000000E+00 -0.00000000000E+00 -0.97702751040E+03  0.97703881503E+03  0.47000000000E+01 0.  1.
          6    1    1    2  502    0 -0.74382830849E+02  0.65149412421E+02 -0.16870910380E+03  0.26043043825E+03  0.17200000000E+03 0. -1.
         -6    1    1    2    0  502  0.74382830849E+02 -0.65149412421E+02 -0.74965301938E+03  0.77546173402E+03  0.17200000000E+03 0.  1.
</event>
<event>
 4    1 -0.3240665E-004  0.1972712E+03  0.7818608E-02  0.1152062E+00
         -5   -1    0    0    0  501 -0.00000000000E+00  0.00000000000E+00  0.28810691274E+03  0.28814524666E+03  0.47000000000E+01 0.  1.
          5   -1    0    0  501    0  0.00000000000E+00 -0.00000000000E+00 -0.15776353461E+03  0.15783352892E+03  0.47000000000E+01 0. -1.
          6    1    1    2  502    0  0.96216689453E+02 -0.86177344988E+01 -0.19526426094E+02  0.19823520876E+03  0.17200000000E+03 0. -1.
         -6    1    1    2    0  502 -0.96216689453E+02  0.86177344988E+01  0.14986980423E+03  0.24774356681E+03  0.17200000000E+03 0.  1.
</event>
<event>
 4    1 -0.3240665E-004  0.1758083E+03  0.7818608E-02  0.1171923E+00
         -5   -1    0    0    0  501 -0.00000000000E+00  0.00000000000E+00  0.12129115875E+04  0.12129206936E+04  0.47000000000E+01 0.  1.
          5   -1    0    0  501    0  0.00000000000E+00 -0.00000000000E+00 -0.34026615365E+02  0.34349680540E+02  0.47000000000E+01 0. -1.
          6    1    1    2  502    0  0.29078719025E+02 -0.21885555151E+02  0.27462846170E+03  0.32608180170E+03  0.17200000000E+03 0. -1.
         -6    1    1    2    0  502 -0.29078719025E+02  0.21885555151E+02  0.90425651040E+03  0.92118857246E+03  0.17200000000E+03 0.  1.
</event>
<event>
 4    1 -0.3240665E-004  0.2083944E+03  0.7818608E-02  0.1142844E+00
         -5   -1    0    0    0  501 -0.00000000000E+00  0.00000000000E+00  0.18879065050E+03  0.18884914540E+03  0.47000000000E+01 0.  1.
          5   -1    0    0  501    0  0.00000000000E+00 -0.00000000000E+00 -0.39298076191E+03  0.39300886661E+03  0.47000000000E+01 0. -1.
          6    1    1    2  502    0  0.24742182635E+02 -0.11503072865E+03 -0.28947730564E+03  0.35668663364E+03  0.17200000000E+03 0. -1.
         -6    1    1    2    0  502 -0.24742182635E+02  0.11503072865E+03  0.85287194235E+02  0.22517137836E+03  0.17200000000E+03 0.  1.
</event>
<event>
 4    1 -0.3240665E-004  0.1760213E+03  0.7818608E-02  0.1171710E+00
          5   -1    0    0  501    0  0.00000000000E+00  0.00000000000E+00  0.37260908678E+03  0.37263872793E+03  0.47000000000E+01 0. -1.
         -5   -1    0    0    0  501 -0.00000000000E+00 -0.00000000000E+00 -0.10614623009E+03  0.10625023371E+03  0.47000000000E+01 0.  1.
          6    1    1    2  502    0 -0.26517746183E+02 -0.26387533533E+02  0.24483758879E+03  0.30154425492E+03  0.17200000000E+03 0. -1.
         -6    1    1    2    0  502  0.26517746183E+02  0.26387533533E+02  0.21625267897E+02  0.17734470672E+03  0.17200000000E+03 0.  1.
</event>
<event>
 4    1 -0.3240665E-004  0.1730802E+03  0.7818608E-02  0.1174673E+00
          5   -1    0    0  501    0  0.00000000000E+00  0.00000000000E+00  0.49570762412E+03  0.49572990490E+03  0.47000000000E+01 0. -1.
         -5   -1    0    0    0  501 -0.00000000000E+00 -0.00000000000E+00 -0.64947571138E+02  0.65117409322E+02  0.47000000000E+01 0.  1.
          6    1    1    2  502    0 -0.12449644500E+02 -0.14756225468E+02  0.14061866845E+03  0.22300302633E+03  0.17200000000E+03 0.  1.
         -6    1    1    2    0  502  0.12449644500E+02  0.14756225468E+02  0.29014138454E+03  0.33784428789E+03  0.17200000000E+03 0. -1.
</event>
<event>
 4    1 -0.3240665E-004  0.1954806E+03  0.7818608E-02  0.1153609E+00
          5   -1    0    0  501    0  0.00000000000E+00  0.00000000000E+00  0.36207122244E+03  0.36210172620E+03  0.47000000000E+01 0. -1.
         -5   -1    0    0    0  501 -0.00000000000E+00 -0.00000000000E+00 -0.16132151795E+03  0.16138996918E+03  0.47000000000E+01 0.  1.
          6    1    1    2  502    0  0.91453838844E+02  0.16274543357E+02  0.25435487670E+03  0.32079443372E+03  0.17200000000E+03 0. -1.
         -6    1    1    2    0  502 -0.91453838844E+02 -0.16274543357E+02 -0.53605172211E+02  0.20269726167E+03  0.17200000000E+03 0.  1.
</event>
<event>
 4    1 -0.3240665E-004  0.4623527E+03  0.7818608E-02  0.1024101E+00
          5   -1    0    0  501    0  0.00000000000E+00  0.00000000000E+00  0.16066092552E+03  0.16072965808E+03  0.47000000000E+01 0. -1.
         -5   -1    0    0    0  501 -0.00000000000E+00 -0.00000000000E+00 -0.13302666675E+04  0.13302749703E+04  0.47000000000E+01 0.  1.
          6    1    1    2  502    0  0.17334655178E+03 -0.39260285939E+03 -0.57989363239E+03  0.74165130426E+03  0.17200000000E+03 0. -1.
         -6    1    1    2    0  502 -0.17334655178E+03  0.39260285939E+03 -0.58971210961E+03  0.74935332416E+03  0.17200000000E+03 0.  1.
</event>
<event>
 4    1 -0.3240665E-004  0.2327985E+03  0.7818608E-02  0.1124685E+00
         -5   -1    0    0    0  501 -0.00000000000E+00  0.00000000000E+00  0.40790586459E+03  0.40793294102E+03  0.47000000000E+01 0.  1.
          5   -1    0    0  501    0  0.00000000000E+00 -0.00000000000E+00 -0.32101135498E+03  0.32104576002E+03  0.47000000000E+01 0. -1.
          6    1    1    2  502    0  0.15265166890E+03 -0.36174500822E+02 -0.23561585209E+03  0.33122493307E+03  0.17200000000E+03 0. -1.
         -6    1    1    2    0  502 -0.15265166890E+03  0.36174500822E+02  0.32251036170E+03  0.39775376797E+03  0.17200000000E+03 0.  1.
</event>
<event>
 4    1 -0.3240665E-004  0.1826731E+03  0.7818608E-02  0.1165241E+00
         -5   -1    0    0    0  501 -0.00000000000E+00  0.00000000000E+00  0.47762381001E+03  0.47764693434E+03  0.47000000000E+01 0.  1.
          5   -1    0    0  501    0  0.00000000000E+00 -0.00000000000E+00 -0.72575497765E+02  0.72727524884E+02  0.47000000000E+01 0. -1.
          6    1    1    2  502    0 -0.59301531459E+02  0.16394255113E+02  0.14840496556E+03  0.23535818880E+03  0.17200000000E+03 0. -1.
         -6    1    1    2    0  502  0.59301531459E+02 -0.16394255113E+02  0.25664334669E+03  0.31501627043E+03  0.17200000000E+03 0. -1.
</event>
<event>
 4    1 -0.3240665E-004  0.4645872E+03  0.7818608E-02  0.1023459E+00
          5   -1    0    0  501    0  0.00000000000E+00  0.00000000000E+00  0.13155509362E+04  0.13155593319E+04  0.47000000000E+01 0. -1.
         -5   -1    0    0    0  501 -0.00000000000E+00 -0.00000000000E+00 -0.21856815244E+03  0.21861868004E+03  0.47000000000E+01 0.  1.
          6    1    1    2  502    0 -0.40633271506E+03 -0.14543377802E+03  0.93162434713E+03  0.10410404331E+04  0.17200000000E+03 0. -1.
         -6    1    1    2    0  502  0.40633271506E+03  0.14543377802E+03  0.16535843663E+03  0.49313757886E+03  0.17200000000E+03 0.  1.
</event>
<event>
 4    1 -0.3240665E-004  0.2915821E+03  0.7818608E-02  0.1089526E+00
         -5   -1    0    0    0  501 -0.00000000000E+00  0.00000000000E+00  0.80339014393E+03  0.80340389180E+03  0.47000000000E+01 0.  1.
          5   -1    0    0  501    0  0.00000000000E+00 -0.00000000000E+00 -0.10603033587E+03  0.10613445305E+03  0.47000000000E+01 0. -1.
          6    1    1    2  502    0 -0.17646290392E+03  0.15587482031E+03  0.32572292880E+03  0.43716763651E+03  0.17200000000E+03 0. -1.
         -6    1    1    2    0  502  0.17646290392E+03 -0.15587482031E+03  0.37163687926E+03  0.47237070834E+03  0.17200000000E+03 0.  1.
</event>
<event>
 4    1 -0.3240665E-004  0.2223100E+03  0.7818608E-02  0.1132173E+00
          5   -1    0    0  501    0  0.00000000000E+00  0.00000000000E+00  0.14514769656E+03  0.14522377153E+03  0.47000000000E+01 0. -1.
         -5   -1    0    0    0  501 -0.00000000000E+00 -0.00000000000E+00 -0.34909062593E+03  0.34912226384E+03  0.47000000000E+01 0.  1.
          6    1    1    2  502    0  0.12119088266E+03 -0.71766910646E+02 -0.14116370236E+03  0.26334181279E+03  0.17200000000E+03 0.  1.
         -6    1    1    2    0  502 -0.12119088266E+03  0.71766910646E+02 -0.62779227014E+02  0.23100422257E+03  0.17200000000E+03 0.  1.
</event>
<event>
 4    1 -0.3240665E-004  0.4321265E+03  0.7818608E-02  0.1033190E+00
          5   -1    0    0  501    0  0.00000000000E+00  0.00000000000E+00  0.29899187089E+03  0.29902880941E+03  0.47000000000E+01 0. -1.
         -5   -1    0    0    0  501 -0.00000000000E+00 -0.00000000000E+00 -0.63742890334E+03  0.63744623053E+03  0.47000000000E+01 0.  1.
          6    1    1    2  502    0  0.39137576204E+03  0.63042129481E+02 -0.23600755781E+03  0.49237471965E+03  0.17200000000E+03 0.  1.
         -6    1    1    2    0  502 -0.39137576204E+03 -0.63042129481E+02 -0.10242947464E+03  0.44410032029E+03  0.17200000000E+03 0.  1.
</event>
<event>
 4    1 -0.3240665E-004  0.1834561E+03  0.7818608E-02  0.1164499E+00
          5   -1    0    0  501    0  0.00000000000E+00  0.00000000000E+00  0.57602680508E+02  0.57794106981E+02  0.47000000000E+01 0. -1.
         -5   -1    0    0    0  501 -0.00000000000E+00 -0.00000000000E+00 -0.11368510948E+04  0.11368608101E+04  0.47000000000E+01 0.  1.
          6    1    1    2  502    0 -0.42805296712E+02  0.47327101192E+02 -0.12277934269E+03  0.22075079824E+03  0.17200000000E+03 0. -1.
         -6    1    1    2    0  502  0.42805296712E+02 -0.47327101192E+02 -0.95646907155E+03  0.97390411888E+03  0.17200000000E+03 0.  1.
</event>
<event>
 4    1 -0.3240665E-004  0.2040746E+03  0.7818608E-02  0.1146346E+00
         -5   -1    0    0    0  501 -0.00000000000E+00  0.00000000000E+00  0.70274216564E+02  0.70431211218E+02  0.47000000000E+01 0.  1.
          5   -1    0    0  501    0  0.00000000000E+00 -0.00000000000E+00 -0.62834814030E+03  0.62836571789E+03  0.47000000000E+01 0. -1.
          6    1    1    2  502    0  0.10906286404E+03  0.12951879523E+02 -0.36329108471E+03  0.41668557897E+03  0.17200000000E+03 0. -1.
         -6    1    1    2    0  502 -0.10906286404E+03 -0.12951879523E+02 -0.19478283903E+03  0.28211135013E+03  0.17200000000E+03 0.  1.
</event>
<event>
 4    1 -0.3240665E-004  0.1753070E+03  0.7818608E-02  0.1172424E+00
          5   -1    0    0  501    0  0.00000000000E+00  0.00000000000E+00  0.13787588665E+03  0.13795597167E+03  0.47000000000E+01 0. -1.
         -5   -1    0    0    0  501 -0.00000000000E+00 -0.00000000000E+00 -0.22342787112E+03  0.22347729995E+03  0.47000000000E+01 0.  1.
          6    1    1    2  502    0 -0.81257623355E+01 -0.32901808268E+02 -0.32683056368E+02  0.17832761753E+03  0.17200000000E+03 0. -1.
         -6    1    1    2    0  502  0.81257623355E+01  0.32901808268E+02 -0.52868928105E+02  0.18310565409E+03  0.17200000000E+03 0.  1.
</event>
<event>
 4    1 -0.3240665E-004  0.1081927E+04  0.7818608E-02  0.9222988E-01
         -5   -1    0    0    0  501 -0.00000000000E+00  0.00000000000E+00  0.11034634620E+04  0.11034734713E+04  0.47000000000E+01 0.  1.
          5   -1    0    0  501    0  0.00000000000E+00 -0.00000000000E+00 -0.14303557600E+04  0.14303634818E+04  0.47000000000E+01 0. -1.
          6    1    1    2  502    0  0.33047959300E+02 -0.10676560522E+04 -0.80742162963E+03  0.13499982598E+04  0.17200000000E+03 0. -1.
         -6    1    1    2    0  502 -0.33047959300E+02  0.10676560522E+04  0.48052933162E+03  0.11838386934E+04  0.17200000000E+03 0.  1.
</event>
<event>
 4    1 -0.3240665E-004  0.1896955E+03  0.7818608E-02  0.1158736E+00
         -5   -1    0    0    0  501 -0.00000000000E+00  0.00000000000E+00  0.45471239628E+02  0.45713495089E+02  0.47000000000E+01 0.  1.
          5   -1    0    0  501    0  0.00000000000E+00 -0.00000000000E+00 -0.82324453068E+03  0.82325794699E+03  0.47000000000E+01 0. -1.
          6    1    1    2  502    0  0.33448080803E+02  0.72674804465E+02 -0.30030421969E+03  0.35519997984E+03  0.17200000000E+03 0.  1.
         -6    1    1    2    0  502 -0.33448080803E+02 -0.72674804465E+02 -0.47746907136E+03  0.51377146224E+03  0.17200000000E+03 0.  1.
</event>
<event>
 4    1 -0.3240665E-004  0.2271542E+03  0.7818608E-02  0.1128659E+00
          5   -1    0    0  501    0  0.00000000000E+00  0.00000000000E+00  0.10690857148E+04  0.10690960461E+04  0.47000000000E+01 0. -1.
         -5   -1    0    0    0  501 -0.00000000000E+00 -0.00000000000E+00 -0.82901887027E+02  0.83035009921E+02  0.47000000000E+01 0.  1.
          6    1    1    2  502    0 -0.12340456297E+03  0.82379251998E+02  0.86569211641E+03  0.89499825013E+03  0.17200000000E+03 0. -1.
         -6    1    1    2    0  502  0.12340456297E+03 -0.82379251998E+02  0.12049171141E+03  0.25713280584E+03  0.17200000000E+03 0.  1.
</event>
<event>
 4    1 -0.3240665E-004  0.1807873E+03  0.7818608E-02  0.1167043E+00
         -5   -1    0    0    0  501 -0.00000000000E+00  0.00000000000E+00  0.28115793437E+03  0.28119721560E+03  0.47000000000E+01 0.  1.
          5   -1    0    0  501    0  0.00000000000E+00 -0.00000000000E+00 -0.13218348274E+03  0.13226701445E+03  0.47000000000E+01 0. -1.
          6    1    1    2  502    0  0.19101287034E+01 -0.55645426825E+02  0.14644535428E+03  0.23265920121E+03  0.17200000000E+03 0.  1.
         -6    1    1    2    0  502 -0.19101287034E+01  0.55645426825E+02  0.25290973486E+01  0.18080502883E+03  0.17200000000E+03 0. -1.
</event>
<event>
 4    1 -0.3240665E-004  0.1922318E+03  0.7818608E-02  0.1156464E+00
         -5   -1    0    0    0  501 -0.00000000000E+00  0.00000000000E+00  0.90916658176E+02  0.91038062006E+02  0.47000000000E+01 0.  1.
          5   -1    0    0  501    0  0.00000000000E+00 -0.00000000000E+00 -0.78055796536E+03  0.78057211536E+03  0.47000000000E+01 0. -1.
          6    1    1    2  502    0  0.84924649281E+02 -0.12524726003E+02 -0.64666593221E+03  0.67463315416E+03  0.17200000000E+03 0. -1.
         -6    1    1    2    0  502 -0.84924649281E+02  0.12524726003E+02 -0.42975374973E+02  0.19697702321E+03  0.17200000000E+03 0.  1.
</event>
<event>
 4    1 -0.3240665E-004  0.2040919E+03  0.7818608E-02  0.1146332E+00
         -5   -1    0    0    0  501 -0.00000000000E+00  0.00000000000E+00  0.22849390423E+03  0.22854223739E+03  0.47000000000E+01 0.  1.
          5   -1    0    0  501    0  0.00000000000E+00 -0.00000000000E+00 -0.18363074797E+03  0.18369088600E+03  0.47000000000E+01 0. -1.
          6    1    1    2  502    0  0.10930077656E+03  0.11084275176E+02  0.42309231207E+01  0.20413579211E+03  0.17200000000E+03 0.  1.
         -6    1    1    2    0  502 -0.10930077656E+03 -0.11084275176E+02  0.40632233144E+02  0.20809733127E+03  0.17200000000E+03 0. -1.
</event>
<event>
 4    1 -0.3240665E-004  0.2706247E+03  0.7818608E-02  0.1100923E+00
         -5   -1    0    0    0  501 -0.00000000000E+00  0.00000000000E+00  0.43496801478E+03  0.43499340671E+03  0.47000000000E+01 0.  1.
          5   -1    0    0  501    0  0.00000000000E+00 -0.00000000000E+00 -0.18392497312E+03  0.18398501498E+03  0.47000000000E+01 0. -1.
          6    1    1    2  502    0  0.86306688780E+02  0.19027584427E+03  0.21567143757E+03  0.34605188979E+03  0.17200000000E+03 0.  1.
         -6    1    1    2    0  502 -0.86306688780E+02 -0.19027584427E+03  0.35371604090E+02  0.27292653190E+03  0.17200000000E+03 0.  1.
</event>
<event>
 4    1 -0.3240665E-004  0.1789658E+03  0.7818608E-02  0.1168808E+00
         -5   -1    0    0    0  501 -0.00000000000E+00  0.00000000000E+00  0.36817163406E+03  0.36820163243E+03  0.47000000000E+01 0.  1.
          5   -1    0    0  501    0  0.00000000000E+00 -0.00000000000E+00 -0.86899788489E+02  0.87026796100E+02  0.47000000000E+01 0. -1.
          6    1    1    2  502    0 -0.47822747479E+02 -0.12559318857E+02  0.14191792549E+03  0.22840632487E+03  0.17200000000E+03 0. -1.
         -6    1    1    2    0  502  0.47822747479E+02  0.12559318857E+02  0.13935392008E+03  0.22682210366E+03  0.17200000000E+03 0. -1.
</event>
<event>
 4    1 -0.3240665E-004  0.2092182E+03  0.7818608E-02  0.1142187E+00
          5   -1    0    0  501    0  0.00000000000E+00  0.00000000000E+00  0.27427858582E+03  0.27431885214E+03  0.47000000000E+01 0. -1.
         -5   -1    0    0    0  501 -0.00000000000E+00 -0.00000000000E+00 -0.19596358629E+03  0.19601994070E+03  0.47000000000E+01 0.  1.
          6    1    1    2  502    0 -0.46261325268E+02 -0.10976396022E+03  0.14056867310E+03  0.25205513094E+03  0.17200000000E+03 0. -1.
         -6    1    1    2    0  502  0.46261325268E+02  0.10976396022E+03 -0.62253673572E+02  0.21828366190E+03  0.17200000000E+03 0.  1.
</event>
<event>
 4    1 -0.3240665E-004  0.1901750E+03  0.7818608E-02  0.1158304E+00
          5   -1    0    0  501    0  0.00000000000E+00  0.00000000000E+00  0.84627224104E+02  0.84757637175E+02  0.47000000000E+01 0. -1.
         -5   -1    0    0    0  501 -0.00000000000E+00 -0.00000000000E+00 -0.10060955608E+04  0.10061065389E+04  0.47000000000E+01 0.  1.
          6    1    1    2  502    0  0.56430886901E+02 -0.58293097968E+02 -0.46920206193E+02  0.19587760468E+03  0.17200000000E+03 0. -1.
         -6    1    1    2    0  502 -0.56430886901E+02  0.58293097968E+02 -0.87454813054E+03  0.89498657135E+03  0.17200000000E+03 0.  1.
</event>
<event>
 4    1 -0.3240665E-004  0.2519627E+03  0.7818608E-02  0.1112071E+00
         -5   -1    0    0    0  501 -0.00000000000E+00  0.00000000000E+00  0.41741285195E+03  0.41743931172E+03  0.47000000000E+01 0.  1.
          5   -1    0    0  501    0  0.00000000000E+00 -0.00000000000E+00 -0.20798417757E+03  0.20803727580E+03  0.47000000000E+01 0. -1.
          6    1    1    2  502    0  0.10276559403E+03  0.15277574679E+03 -0.57470508941E+02  0.25843385135E+03  0.17200000000E+03 0. -1.
         -6    1    1    2    0  502 -0.10276559403E+03 -0.15277574679E+03  0.26689918332E+03  0.36704273617E+03  0.17200000000E+03 0.  1.
</event>
<event>
 4    1 -0.3240665E-004  0.3426880E+03  0.7818608E-02  0.1065657E+00
          5   -1    0    0  501    0  0.00000000000E+00  0.00000000000E+00  0.28717442693E+03  0.28721288530E+03  0.47000000000E+01 0. -1.
         -5   -1    0    0    0  501 -0.00000000000E+00 -0.00000000000E+00 -0.44980928439E+03  0.44983383857E+03  0.47000000000E+01 0.  1.
          6    1    1    2  502    0  0.12311491767E+03  0.26961787150E+03 -0.19251031144E+03  0.39305890092E+03  0.17200000000E+03 0. -1.
         -6    1    1    2    0  502 -0.12311491767E+03 -0.26961787150E+03  0.29875453983E+02  0.34398782295E+03  0.17200000000E+03 0. -1.
</event>
<event>
 4    1 -0.3240665E-004  0.2426551E+03  0.7818608E-02  0.1118037E+00
         -5   -1    0    0    0  501 -0.00000000000E+00  0.00000000000E+00  0.48144389022E+03  0.48146683108E+03  0.47000000000E+01 0.  1.
          5   -1    0    0  501    0  0.00000000000E+00 -0.00000000000E+00 -0.15254881771E+03  0.15262120359E+03  0.47000000000E+01 0. -1.
          6    1    1    2  502    0 -0.74430443861E+02  0.15413501752E+03  0.23155833502E+02  0.24375743522E+03  0.17200000000E+03 0. -1.
         -6    1    1    2    0  502  0.74430443861E+02 -0.15413501752E+03  0.30573923901E+03  0.39033059945E+03  0.17200000000E+03 0.  1.
</event>
<event>
 4    1 -0.3240665E-004  0.1784713E+03  0.7818608E-02  0.1169291E+00
          5   -1    0    0  501    0  0.00000000000E+00  0.00000000000E+00  0.62468060474E+02  0.62644621312E+02  0.47000000000E+01 0. -1.
         -5   -1    0    0    0  501 -0.00000000000E+00 -0.00000000000E+00 -0.12810105139E+04  0.12810191360E+04  0.47000000000E+01 0.  1.
          6    1    1    2  502    0  0.20020866320E+02  0.43210893646E+02 -0.87755571576E+02  0.19887950312E+03  0.17200000000E+03 0. -1.
         -6    1    1    2    0  502 -0.20020866320E+02 -0.43210893646E+02 -0.11307868819E+04  0.11447842542E+04  0.17200000000E+03 0.  1.
</event>
<event>
 4    1 -0.3240665E-004  0.2862984E+03  0.7818608E-02  0.1092298E+00
          5   -1    0    0  501    0  0.00000000000E+00  0.00000000000E+00  0.11376083117E+03  0.11385787943E+03  0.47000000000E+01 0. -1.
         -5   -1    0    0    0  501 -0.00000000000E+00 -0.00000000000E+00 -0.72164760875E+03  0.72166291384E+03  0.47000000000E+01 0.  1.
          6    1    1    2  502    0  0.12926096786E+03  0.18887660769E+03 -0.28463916346E+03  0.40371552375E+03  0.17200000000E+03 0.  1.
         -6    1    1    2    0  502 -0.12926096786E+03 -0.18887660769E+03 -0.32324761412E+03  0.43180526951E+03  0.17200000000E+03 0.  1.
</event>
<event>
 4    1 -0.3240665E-004  0.2343538E+03  0.7818608E-02  0.1123612E+00
          5   -1    0    0  501    0  0.00000000000E+00  0.00000000000E+00  0.33629361973E+02  0.33956206895E+02  0.47000000000E+01 0. -1.
         -5   -1    0    0    0  501 -0.00000000000E+00 -0.00000000000E+00 -0.25809010494E+04  0.25809053289E+04  0.47000000000E+01 0.  1.
          6    1    1    2  502    0 -0.13508752830E+03  0.84196708704E+02 -0.47797179115E+03  0.53233331588E+03  0.17200000000E+03 0. -1.
         -6    1    1    2    0  502  0.13508752830E+03 -0.84196708704E+02 -0.20692998963E+04  0.20825282199E+04  0.17200000000E+03 0.  1.
</event>
<event>
 4    1 -0.3240665E-004  0.2482704E+03  0.7818608E-02  0.1114403E+00
         -5   -1    0    0    0  501 -0.00000000000E+00  0.00000000000E+00  0.14897397811E+04  0.14897471951E+04  0.47000000000E+01 0.  1.
          5   -1    0    0  501    0  0.00000000000E+00 -0.00000000000E+00 -0.12459964691E+03  0.12468825931E+03  0.47000000000E+01 0. -1.
          6    1    1    2  502    0  0.87858228713E+02  0.15599711870E+03  0.22784218339E+02  0.24931363782E+03  0.17200000000E+03 0. -1.
         -6    1    1    2    0  502 -0.87858228713E+02 -0.15599711870E+03  0.13423559158E+04  0.13651218166E+04  0.17200000000E+03 0.  1.
</event>
<event>
 4    1 -0.3240665E-004  0.2498916E+03  0.7818608E-02  0.1113373E+00
         -5   -1    0    0    0  501 -0.00000000000E+00  0.00000000000E+00  0.43228828256E+03  0.43231383188E+03  0.47000000000E+01 0.  1.
          5   -1    0    0  501    0  0.00000000000E+00 -0.00000000000E+00 -0.14632660003E+03  0.14640206240E+03  0.47000000000E+01 0. -1.
          6    1    1    2  502    0 -0.15283571897E+03 -0.97483584019E+02  0.17629191433E+03  0.30581799359E+03  0.17200000000E+03 0. -1.
         -6    1    1    2    0  502  0.15283571897E+03  0.97483584019E+02  0.10966976820E+03  0.27289790069E+03  0.17200000000E+03 0.  1.
</event>
<event>
 4    1 -0.3240665E-004  0.1784918E+03  0.7818608E-02  0.1169271E+00
          5   -1    0    0  501    0  0.00000000000E+00  0.00000000000E+00  0.11730850505E+03  0.11740262074E+03  0.47000000000E+01 0. -1.
         -5   -1    0    0    0  501 -0.00000000000E+00 -0.00000000000E+00 -0.55598831254E+03  0.55600817771E+03  0.47000000000E+01 0.  1.
          6    1    1    2  502    0  0.26679295313E+02 -0.39541819362E+02  0.21542878295E+02  0.17978719610E+03  0.17200000000E+03 0. -1.
         -6    1    1    2    0  502 -0.26679295313E+02  0.39541819362E+02 -0.46022268579E+03  0.49362360234E+03  0.17200000000E+03 0.  1.
</event>
<event>
 4    1 -0.3240665E-004  0.2360508E+03  0.7818608E-02  0.1122452E+00
         -5   -1    0    0    0  501 -0.00000000000E+00  0.00000000000E+00  0.99213491321E+03  0.99214604570E+03  0.47000000000E+01 0.  1.
          5   -1    0    0  501    0  0.00000000000E+00 -0.00000000000E+00 -0.56282973170E+02  0.56478872765E+02  0.47000000000E+01 0. -1.
          6    1    1    2  502    0 -0.15808656430E+03 -0.33832170841E+02  0.43439213130E+03  0.49438497280E+03  0.17200000000E+03 0. -1.
         -6    1    1    2    0  502  0.15808656430E+03  0.33832170841E+02  0.50145980874E+03  0.55423994567E+03  0.17200000000E+03 0. -1.
</event>
<event>
 4    1 -0.3240665E-004  0.2248279E+03  0.7818608E-02  0.1130334E+00
          5   -1    0    0  501    0  0.00000000000E+00  0.00000000000E+00  0.73215444555E+03  0.73216953101E+03  0.47000000000E+01 0. -1.
         -5   -1    0    0    0  501 -0.00000000000E+00 -0.00000000000E+00 -0.99974394092E+02  0.10008481141E+03  0.47000000000E+01 0.  1.
          6    1    1    2  502    0  0.12769832030E+03 -0.68240297712E+02  0.54775000457E+03  0.59209599454E+03  0.17200000000E+03 0. -1.
         -6    1    1    2    0  502 -0.12769832030E+03  0.68240297712E+02  0.84430046886E+02  0.24015834788E+03  0.17200000000E+03 0.  1.
</event>
<event>
 4    1 -0.3240665E-004  0.1933868E+03  0.7818608E-02  0.1155442E+00
         -5   -1    0    0    0  501 -0.00000000000E+00  0.00000000000E+00  0.13853999836E+04  0.13854079560E+04  0.47000000000E+01 0.  1.
          5   -1    0    0  501    0  0.00000000000E+00 -0.00000000000E+00 -0.29446112426E+02  0.29818845333E+02  0.47000000000E+01 0. -1.
          6    1    1    2  502    0  0.13884062064E+02 -0.87302260541E+02  0.46656238926E+03  0.50505337832E+03  0.17200000000E+03 0.  1.
         -6    1    1    2    0  502 -0.13884062064E+02  0.87302260541E+02  0.88939148189E+03  0.91017342300E+03  0.17200000000E+03 0.  1.
</event>
<event>
 4    1 -0.3240665E-004  0.2332449E+03  0.7818608E-02  0.1124376E+00
         -5   -1    0    0    0  501 -0.00000000000E+00  0.00000000000E+00  0.74121118771E+03  0.74122608884E+03  0.47000000000E+01 0.  1.
          5   -1    0    0  501    0  0.00000000000E+00 -0.00000000000E+00 -0.10203234712E+03  0.10214053974E+03  0.47000000000E+01 0. -1.
          6    1    1    2  502    0  0.15653896848E+03 -0.17740556986E+02  0.96003217649E+02  0.25222964499E+03  0.17200000000E+03 0. -1.
         -6    1    1    2    0  502 -0.15653896848E+03  0.17740556986E+02  0.54317562294E+03  0.59113698359E+03  0.17200000000E+03 0.  1.
</event>
<event>
 4    1 -0.3240665E-004  0.1856635E+03  0.7818608E-02  0.1162432E+00
         -5   -1    0    0    0  501 -0.00000000000E+00  0.00000000000E+00  0.44399323145E+03  0.44401810726E+03  0.47000000000E+01 0.  1.
          5   -1    0    0  501    0  0.00000000000E+00 -0.00000000000E+00 -0.94765788807E+02  0.94882267723E+02  0.47000000000E+01 0. -1.
          6    1    1    2  502    0 -0.69257555893E+02  0.95036331024E+01  0.59828369619E+02  0.19506501968E+03  0.17200000000E+03 0. -1.
         -6    1    1    2    0  502  0.69257555893E+02 -0.95036331024E+01  0.28939907302E+03  0.34383535530E+03  0.17200000000E+03 0.  1.
</event>
<event>
 4    1 -0.3240665E-004  0.1928530E+03  0.7818608E-02  0.1155913E+00
          5   -1    0    0  501    0  0.00000000000E+00  0.00000000000E+00  0.28567528646E+03  0.28571394662E+03  0.47000000000E+01 0. -1.
         -5   -1    0    0    0  501 -0.00000000000E+00 -0.00000000000E+00 -0.13010080759E+03  0.13018567562E+03  0.47000000000E+01 0.  1.
          6    1    1    2  502    0 -0.81687516397E+02 -0.30584602611E+02  0.77751888706E+02  0.20793658757E+03  0.17200000000E+03 0.  1.
         -6    1    1    2    0  502  0.81687516397E+02  0.30584602611E+02  0.77822590163E+02  0.20796303468E+03  0.17200000000E+03 0.  1.
</event>
<event>
 4    1 -0.3240665E-004  0.3357262E+03  0.7818608E-02  0.1068631E+00
          5   -1    0    0  501    0  0.00000000000E+00  0.00000000000E+00  0.12363808465E+04  0.12363897798E+04  0.47000000000E+01 0. -1.
         -5   -1    0    0    0  501 -0.00000000000E+00 -0.00000000000E+00 -0.24710460398E+03  0.24714929761E+03  0.47000000000E+01 0.  1.
          6    1    1    2  502    0  0.24886245815E+03  0.14558684555E+03  0.10839242948E+04  0.11347263677E+04  0.17200000000E+03 0. -1.
         -6    1    1    2    0  502 -0.24886245815E+03 -0.14558684555E+03 -0.94648052265E+02  0.34881270973E+03  0.17200000000E+03 0.  1.
</event>
<event>
 4    1 -0.3240665E-004  0.4626513E+03  0.7818608E-02  0.1024015E+00
         -5   -1    0    0    0  501 -0.00000000000E+00  0.00000000000E+00  0.11771488691E+04  0.11771582519E+04  0.47000000000E+01 0.  1.
          5   -1    0    0  501    0  0.00000000000E+00 -0.00000000000E+00 -0.29344929904E+03  0.29348693516E+03  0.47000000000E+01 0. -1.
          6    1    1    2  502    0 -0.39479275518E+03 -0.16911814467E+03 -0.11681947820E+02  0.46279880543E+03  0.17200000000E+03 0.  1.
         -6    1    1    2    0  502  0.39479275518E+03  0.16911814467E+03  0.89538151786E+03  0.10078463816E+04  0.17200000000E+03 0.  1.
</event>
<event>
 4    1 -0.3240665E-004  0.1929763E+03  0.7818608E-02  0.1155804E+00
         -5   -1    0    0    0  501 -0.00000000000E+00  0.00000000000E+00  0.30980407391E+03  0.30983972342E+03  0.47000000000E+01 0.  1.
          5   -1    0    0  501    0  0.00000000000E+00 -0.00000000000E+00 -0.12578690080E+03  0.12587467741E+03  0.47000000000E+01 0. -1.
          6    1    1    2  502    0 -0.65452080975E+02 -0.58067883534E+02  0.13824279467E+03  0.23738349622E+03  0.17200000000E+03 0.  1.
         -6    1    1    2    0  502  0.65452080975E+02  0.58067883534E+02  0.45774378436E+02  0.19833090461E+03  0.17200000000E+03 0.  1.
</event>
<event>
 4    1 -0.3240665E-004  0.3306997E+03  0.7818608E-02  0.1070828E+00
          5   -1    0    0  501    0  0.00000000000E+00  0.00000000000E+00  0.36781720271E+03  0.36784722999E+03  0.47000000000E+01 0. -1.
         -5   -1    0    0    0  501 -0.00000000000E+00 -0.00000000000E+00 -0.36306969374E+03  0.36310011362E+03  0.47000000000E+01 0.  1.
          6    1    1    2  502    0  0.44241499701E+02  0.27896415514E+03  0.15795036255E+03  0.36648414314E+03  0.17200000000E+03 0. -1.
         -6    1    1    2    0  502 -0.44241499701E+02 -0.27896415514E+03 -0.15320285358E+03  0.36446320046E+03  0.17200000000E+03 0.  1.
</event>
<event>
 4    1 -0.3240665E-004  0.2902603E+03  0.7818608E-02  0.1090213E+00
          5   -1    0    0  501    0  0.00000000000E+00  0.00000000000E+00  0.24246759648E+03  0.24251314468E+03  0.47000000000E+01 0. -1.
         -5   -1    0    0    0  501 -0.00000000000E+00 -0.00000000000E+00 -0.41906688522E+03  0.41909324056E+03  0.47000000000E+01 0.  1.
          6    1    1    2  502    0  0.22705329377E+03  0.55801693615E+02  0.48508336133E+02  0.29428572153E+03  0.17200000000E+03 0. -1.
         -6    1    1    2    0  502 -0.22705329377E+03 -0.55801693615E+02 -0.22510762487E+03  0.36732066372E+03  0.17200000000E+03 0.  1.
</event>
<event>
 4    1 -0.3240665E-004  0.1731953E+03  0.7818608E-02  0.1174556E+00
         -5   -1    0    0    0  501 -0.00000000000E+00  0.00000000000E+00  0.65189701346E+02  0.65358910345E+02  0.47000000000E+01 0.  1.
          5   -1    0    0  501    0  0.00000000000E+00 -0.00000000000E+00 -0.47304628687E+03  0.47306963496E+03  0.47000000000E+01 0. -1.
          6    1    1    2  502    0  0.20046679815E+02  0.32801084643E+01 -0.24970083948E+03  0.30388671857E+03  0.17200000000E+03 0. -1.
         -6    1    1    2    0  502 -0.20046679815E+02 -0.32801084643E+01 -0.15815574604E+03  0.23454182673E+03  0.17200000000E+03 0.  1.
</event>
<event>
 4    1 -0.3240665E-004  0.2739508E+03  0.7818608E-02  0.1099040E+00
          5   -1    0    0  501    0  0.00000000000E+00  0.00000000000E+00  0.53268106217E+03  0.53270179650E+03  0.47000000000E+01 0. -1.
         -5   -1    0    0    0  501 -0.00000000000E+00 -0.00000000000E+00 -0.22713290590E+03  0.22718152861E+03  0.47000000000E+01 0.  1.
          6    1    1    2  502    0 -0.26820594704E+01 -0.21320843909E+03  0.38693677598E+03  0.47409819715E+03  0.17200000000E+03 0. -1.
         -6    1    1    2    0  502  0.26820594704E+01  0.21320843909E+03 -0.81388619709E+02  0.28578512795E+03  0.17200000000E+03 0.  1.
</event>
<event>
 4    1 -0.3240665E-004  0.3462278E+03  0.7818608E-02  0.1064174E+00
          5   -1    0    0  501    0  0.00000000000E+00  0.00000000000E+00  0.45170307411E+03  0.45172752535E+03  0.47000000000E+01 0. -1.
         -5   -1    0    0    0  501 -0.00000000000E+00 -0.00000000000E+00 -0.27681361427E+03  0.27685351189E+03  0.47000000000E+01 0.  1.
          6    1    1    2  502    0  0.69466364077E+02 -0.29234244072E+03  0.16163698193E+03  0.38209971515E+03  0.17200000000E+03 0. -1.
         -6    1    1    2    0  502 -0.69466364077E+02  0.29234244072E+03  0.13252477900E+02  0.34648132209E+03  0.17200000000E+03 0.  1.
</event>
<event>
 4    1 -0.3240665E-004  0.6625340E+03  0.7818608E-02  0.9783540E-01
          5   -1    0    0  501    0  0.00000000000E+00  0.00000000000E+00  0.63344932804E+03  0.63346676408E+03  0.47000000000E+01 0. -1.
         -5   -1    0    0    0  501 -0.00000000000E+00 -0.00000000000E+00 -0.74190692551E+03  0.74192181268E+03  0.47000000000E+01 0.  1.
          6    1    1    2  502    0  0.19970249692E+03 -0.60785377738E+03 -0.23093629247E+03  0.70162872883E+03  0.17200000000E+03 0. -1.
         -6    1    1    2    0  502 -0.19970249692E+03  0.60785377738E+03  0.12247869500E+03  0.67375984793E+03  0.17200000000E+03 0.  1.
</event>
<event>
 4    1 -0.3240665E-004  0.4468968E+03  0.7818608E-02  0.1028652E+00
          5   -1    0    0  501    0  0.00000000000E+00  0.00000000000E+00  0.65913777710E+03  0.65915453362E+03  0.47000000000E+01 0. -1.
         -5   -1    0    0    0  501 -0.00000000000E+00 -0.00000000000E+00 -0.35633765812E+03  0.35636865265E+03  0.47000000000E+01 0.  1.
          6    1    1    2  502    0  0.40519779200E+03 -0.77119856855E+02  0.34791054812E+03  0.56635542944E+03  0.17200000000E+03 0. -1.
         -6    1    1    2    0  502 -0.40519779200E+03  0.77119856855E+02 -0.45110429142E+02  0.44916775684E+03  0.17200000000E+03 0.  1.
</event>
<event>
 4    1 -0.3240665E-004  0.2488568E+03  0.7818608E-02  0.1114029E+00
          5   -1    0    0  501    0  0.00000000000E+00  0.00000000000E+00  0.66891822638E+03  0.66893473791E+03  0.47000000000E+01 0. -1.
         -5   -1    0    0    0  501 -0.00000000000E+00 -0.00000000000E+00 -0.92610369044E+02  0.92729555452E+02  0.47000000000E+01 0.  1.
          6    1    1    2  502    0 -0.65306165643E+02  0.16757335778E+03  0.30101515162E+03  0.39056349933E+03  0.17200000000E+03 0.  1.
         -6    1    1    2    0  502  0.65306165643E+02 -0.16757335778E+03  0.27529270572E+03  0.37110079403E+03  0.17200000000E+03 0. -1.
</event>
<event>
 4    1 -0.3240665E-004  0.2352970E+03  0.7818608E-02  0.1122966E+00
         -5   -1    0    0    0  501 -0.00000000000E+00  0.00000000000E+00  0.42213665338E+03  0.42216281708E+03  0.47000000000E+01 0.  1.
          5   -1    0    0  501    0  0.00000000000E+00 -0.00000000000E+00 -0.16036364042E+03  0.16043250035E+03  0.47000000000E+01 0. -1.
          6    1    1    2  502    0 -0.14510957151E+03  0.68730549790E+02  0.64495502168E+01  0.23538537108E+03  0.17200000000E+03 0. -1.
         -6    1    1    2    0  502  0.14510957151E+03 -0.68730549790E+02  0.25532346274E+03  0.34720994635E+03  0.17200000000E+03 0.  1.
</event>
<event>
 4    1 -0.3240665E-004  0.2099939E+03  0.7818608E-02  0.1141571E+00
         -5   -1    0    0    0  501 -0.00000000000E+00  0.00000000000E+00  0.91791949825E+02  0.91912197518E+02  0.47000000000E+01 0.  1.
          5   -1    0    0  501    0  0.00000000000E+00 -0.00000000000E+00 -0.71629832634E+03  0.71631374573E+03  0.47000000000E+01 0. -1.
          6    1    1    2  502    0 -0.79586903514E+02 -0.90439859963E+02 -0.54435601256E+03  0.58345600682E+03  0.17200000000E+03 0. -1.
         -6    1    1    2    0  502  0.79586903514E+02  0.90439859963E+02 -0.80150363960E+02  0.22476993643E+03  0.17200000000E+03 0.  1.
</event>
<event>
 4    1 -0.3240665E-004  0.2538433E+03  0.7818608E-02  0.1110900E+00
         -5   -1    0    0    0  501 -0.00000000000E+00  0.00000000000E+00  0.27495641758E+03  0.27499658465E+03  0.47000000000E+01 0.  1.
          5   -1    0    0  501    0  0.00000000000E+00 -0.00000000000E+00 -0.31264821504E+03  0.31268354029E+03  0.47000000000E+01 0. -1.
          6    1    1    2  502    0  0.14620929077E+03  0.11608301303E+03 -0.16594928253E+03  0.30327477144E+03  0.17200000000E+03 0. -1.
         -6    1    1    2    0  502 -0.14620929077E+03 -0.11608301303E+03  0.12825748506E+03  0.28440535350E+03  0.17200000000E+03 0. -1.
</event>
<event>
 4    1 -0.3240665E-004  0.2275150E+03  0.7818608E-02  0.1128401E+00
         -5   -1    0    0    0  501 -0.00000000000E+00  0.00000000000E+00  0.51290744108E+03  0.51292897473E+03  0.47000000000E+01 0.  1.
          5   -1    0    0  501    0  0.00000000000E+00 -0.00000000000E+00 -0.11582362064E+03  0.11591894193E+03  0.47000000000E+01 0. -1.
          6    1    1    2  502    0 -0.14674081958E+03 -0.25420268980E+02  0.85521359636E+02  0.24305752644E+03  0.17200000000E+03 0. -1.
         -6    1    1    2    0  502  0.14674081958E+03  0.25420268980E+02  0.31156246081E+03  0.38579039022E+03  0.17200000000E+03 0.  1.
</event>
<event>
 4    1 -0.3240665E-004  0.2219425E+03  0.7818608E-02  0.1132443E+00
          5   -1    0    0  501    0  0.00000000000E+00  0.00000000000E+00  0.51846128288E+02  0.52058726631E+02  0.47000000000E+01 0. -1.
         -5   -1    0    0    0  501 -0.00000000000E+00 -0.00000000000E+00 -0.11688066513E+04  0.11688161010E+04  0.47000000000E+01 0.  1.
          6    1    1    2  502    0 -0.14026334674E+03  0.82382206824E+00 -0.29313846198E+03  0.36768008243E+03  0.17200000000E+03 0.  1.
         -6    1    1    2    0  502  0.14026334674E+03 -0.82382206824E+00 -0.82382206099E+03  0.85319474524E+03  0.17200000000E+03 0.  1.
</event>
<event>
 4    1 -0.3240665E-004  0.1810995E+03  0.7818608E-02  0.1166743E+00
         -5   -1    0    0    0  501 -0.00000000000E+00  0.00000000000E+00  0.10037416015E+04  0.10037526053E+04  0.47000000000E+01 0.  1.
          5   -1    0    0  501    0  0.00000000000E+00 -0.00000000000E+00 -0.48139726954E+02  0.48368619075E+02  0.47000000000E+01 0. -1.
          6    1    1    2  502    0 -0.23003970949E+02  0.51805743749E+02  0.17881540531E+03  0.25450337314E+03  0.17200000000E+03 0. -1.
         -6    1    1    2    0  502  0.23003970949E+02 -0.51805743749E+02  0.77678646925E+03  0.79761785121E+03  0.17200000000E+03 0.  1.
</event>
<event>
 4    1 -0.3240665E-004  0.3681736E+03  0.7818608E-02  0.1055394E+00
         -5   -1    0    0    0  501 -0.00000000000E+00  0.00000000000E+00  0.35465526823E+03  0.35468640978E+03  0.47000000000E+01 0.  1.
          5   -1    0    0  501    0  0.00000000000E+00 -0.00000000000E+00 -0.12184688575E+04  0.12184779221E+04  0.47000000000E+01 0. -1.
          6    1    1    2  502    0  0.32550693026E+03 -0.36158161114E+01 -0.10835580034E+04  0.11443993108E+04  0.17200000000E+03 0. -1.
         -6    1    1    2    0  502 -0.32550693026E+03  0.36158161114E+01  0.21974441414E+03  0.42876502111E+03  0.17200000000E+03 0.  1.
</event>
<event>
 4    1 -0.3240665E-004  0.1837860E+03  0.7818608E-02  0.1164188E+00
         -5   -1    0    0    0  501 -0.00000000000E+00  0.00000000000E+00  0.25359305410E+03  0.25363660439E+03  0.47000000000E+01 0.  1.
          5   -1    0    0  501    0  0.00000000000E+00 -0.00000000000E+00 -0.14498682814E+03  0.14506298747E+03  0.47000000000E+01 0. -1.
          6    1    1    2  502    0  0.58944596683E+02 -0.26810861422E+02  0.11136285789E+03  0.21489293587E+03  0.17200000000E+03 0. -1.
         -6    1    1    2    0  502 -0.58944596683E+02  0.26810861422E+02 -0.27566319365E+01  0.18380665599E+03  0.17200000000E+03 0.  1.
</event>
<event>
 4    1 -0.3240665E-004  0.1998979E+03  0.7818608E-02  0.1149825E+00
          5   -1    0    0  501    0  0.00000000000E+00  0.00000000000E+00  0.17299163479E+03  0.17305547003E+03  0.47000000000E+01 0. -1.
         -5   -1    0    0    0  501 -0.00000000000E+00 -0.00000000000E+00 -0.25735443129E+03  0.25739734518E+03  0.47000000000E+01 0.  1.
          6    1    1    2  502    0  0.92644955008E+02 -0.42332839968E+02 -0.11122548311E+03  0.22875809302E+03  0.17200000000E+03 0.  1.
         -6    1    1    2    0  502 -0.92644955008E+02  0.42332839968E+02  0.26862686617E+02  0.20169472219E+03  0.17200000000E+03 0. -1.
</event>
<event>
 4    1 -0.3240665E-004  0.1860450E+03  0.7818608E-02  0.1162078E+00
          5   -1    0    0  501    0  0.00000000000E+00  0.00000000000E+00  0.14184350103E+03  0.14192134718E+03  0.47000000000E+01 0. -1.
         -5   -1    0    0    0  501 -0.00000000000E+00 -0.00000000000E+00 -0.51255375046E+03  0.51257529897E+03  0.47000000000E+01 0.  1.
          6    1    1    2  502    0 -0.39810611423E+02  0.58684347928E+02  0.51561145409E+02  0.19305773538E+03  0.17200000000E+03 0. -1.
         -6    1    1    2    0  502  0.39810611423E+02 -0.58684347928E+02 -0.42227139484E+03  0.46143891077E+03  0.17200000000E+03 0.  1.
</event>
<event>
 4    1 -0.3240665E-004  0.2468082E+03  0.7818608E-02  0.1115339E+00
         -5   -1    0    0    0  501 -0.00000000000E+00  0.00000000000E+00  0.71066594555E+02  0.71221842588E+02  0.47000000000E+01 0.  1.
          5   -1    0    0  501    0  0.00000000000E+00 -0.00000000000E+00 -0.92518273280E+03  0.92519467090E+03  0.47000000000E+01 0. -1.
          6    1    1    2  502    0  0.44516299339E+02  0.17131424040E+03 -0.56323714875E+03  0.61493931051E+03  0.17200000000E+03 0. -1.
         -6    1    1    2    0  502 -0.44516299339E+02 -0.17131424040E+03 -0.29087898949E+03  0.38147720298E+03  0.17200000000E+03 0.  1.
</event>
<event>
 4    1 -0.3240665E-004  0.1909306E+03  0.7818608E-02  0.1157625E+00
          5   -1    0    0  501    0  0.00000000000E+00  0.00000000000E+00  0.42682830856E+03  0.42685418469E+03  0.47000000000E+01 0. -1.
         -5   -1    0    0    0  501 -0.00000000000E+00 -0.00000000000E+00 -0.88438620782E+02  0.88563421602E+02  0.47000000000E+01 0.  1.
          6    1    1    2  502    0  0.17431165297E+01  0.82870096652E+02  0.21758782473E+03  0.28948048785E+03  0.17200000000E+03 0. -1.
         -6    1    1    2    0  502 -0.17431165297E+01 -0.82870096652E+02  0.12080186305E+03  0.22593711844E+03  0.17200000000E+03 0.  1.
</event>
<event>
 4    1 -0.3240665E-004  0.1790758E+03  0.7818608E-02  0.1168700E+00
         -5   -1    0    0    0  501 -0.00000000000E+00  0.00000000000E+00  0.10306122495E+04  0.10306229664E+04  0.47000000000E+01 0.  1.
          5   -1    0    0  501    0  0.00000000000E+00 -0.00000000000E+00 -0.35103029416E+02  0.35416276967E+02  0.47000000000E+01 0. -1.
          6    1    1    2  502    0  0.57324574333E+01  0.49510524063E+02  0.31481050240E+03  0.36217924496E+03  0.17200000000E+03 0. -1.
         -6    1    1    2    0  502 -0.57324574333E+01 -0.49510524063E+02  0.68069871768E+03  0.70385999838E+03  0.17200000000E+03 0.  1.
</event>
<event>
 4    1 -0.3240665E-004  0.2041382E+03  0.7818608E-02  0.1146294E+00
         -5   -1    0    0    0  501 -0.00000000000E+00  0.00000000000E+00  0.38375982547E+02  0.38662721534E+02  0.47000000000E+01 0.  1.
          5   -1    0    0  501    0  0.00000000000E+00 -0.00000000000E+00 -0.10817719293E+04  0.10817821393E+04  0.47000000000E+01 0. -1.
          6    1    1    2  502    0 -0.34775860510E+02 -0.10430272699E+03 -0.51394783819E+03  0.55300524383E+03  0.17200000000E+03 0.  1.
         -6    1    1    2    0  502  0.34775860510E+02  0.10430272699E+03 -0.52944810853E+03  0.56743961702E+03  0.17200000000E+03 0. -1.
</event>
<event>
 4    1 -0.3240665E-004  0.4075732E+03  0.7818608E-02  0.1041188E+00
         -5   -1    0    0    0  501 -0.00000000000E+00  0.00000000000E+00  0.33396039381E+04  0.33396072454E+04  0.47000000000E+01 0.  1.
          5   -1    0    0  501    0  0.00000000000E+00 -0.00000000000E+00 -0.49939334074E+02  0.50160014830E+02  0.47000000000E+01 0. -1.
          6    1    1    2  502    0 -0.22326043789E+03 -0.29442597573E+03  0.15110577528E+04  0.15650595550E+04  0.17200000000E+03 0. -1.
         -6    1    1    2    0  502  0.22326043789E+03  0.29442597573E+03  0.17786068513E+04  0.18247077053E+04  0.17200000000E+03 0.  1.
</event>
<event>
 4    1 -0.3240665E-004  0.1775681E+03  0.7818608E-02  0.1170178E+00
          5   -1    0    0  501    0  0.00000000000E+00  0.00000000000E+00  0.10673071249E+03  0.10683414711E+03  0.47000000000E+01 0. -1.
         -5   -1    0    0    0  501 -0.00000000000E+00 -0.00000000000E+00 -0.29523416881E+03  0.29527157742E+03  0.47000000000E+01 0.  1.
          6    1    1    2  502    0  0.43821821598E+02 -0.51049437399E+01 -0.90960302699E+02  0.19950987235E+03  0.17200000000E+03 0. -1.
         -6    1    1    2    0  502 -0.43821821598E+02  0.51049437399E+01 -0.97543153622E+02  0.20259585217E+03  0.17200000000E+03 0.  1.
</event>
<event>
 4    1 -0.3240665E-004  0.2576053E+03  0.7818608E-02  0.1108591E+00
         -5   -1    0    0    0  501 -0.00000000000E+00  0.00000000000E+00  0.14062243871E+04  0.14062322415E+04  0.47000000000E+01 0.  1.
          5   -1    0    0  501    0  0.00000000000E+00 -0.00000000000E+00 -0.11348600083E+03  0.11358328392E+03  0.47000000000E+01 0. -1.
          6    1    1    2  502    0  0.28790518359E+02 -0.18959845270E+03  0.65458984360E+02  0.26579192209E+03  0.17200000000E+03 0. -1.
         -6    1    1    2    0  502 -0.28790518359E+02  0.18959845270E+03  0.12272794019E+04  0.12540236033E+04  0.17200000000E+03 0.  1.
</event>
<event>
 4    1 -0.3240665E-004  0.2009169E+03  0.7818608E-02  0.1148968E+00
         -5   -1    0    0    0  501 -0.00000000000E+00  0.00000000000E+00  0.82864004138E+02  0.82997187794E+02  0.47000000000E+01 0.  1.
          5   -1    0    0  501    0  0.00000000000E+00 -0.00000000000E+00 -0.50842540176E+03  0.50844712523E+03  0.47000000000E+01 0. -1.
          6    1    1    2  502    0  0.11935693603E+02  0.10315585505E+03 -0.27401514639E+03  0.33978212382E+03  0.17200000000E+03 0.  1.
         -6    1    1    2    0  502 -0.11935693603E+02 -0.10315585505E+03 -0.15154625122E+03  0.25166218920E+03  0.17200000000E+03 0. -1.
</event>
<event>
 4    1 -0.3240665E-004  0.2468473E+03  0.7818608E-02  0.1115314E+00
          5   -1    0    0  501    0  0.00000000000E+00  0.00000000000E+00  0.29173576516E+03  0.29177362231E+03  0.47000000000E+01 0. -1.
         -5   -1    0    0    0  501 -0.00000000000E+00 -0.00000000000E+00 -0.29748115317E+03  0.29751827925E+03  0.47000000000E+01 0.  1.
          6    1    1    2  502    0  0.12680328187E+03  0.12357386770E+03  0.15799019983E+03  0.29307759435E+03  0.17200000000E+03 0. -1.
         -6    1    1    2    0  502 -0.12680328187E+03 -0.12357386770E+03 -0.16373558783E+03  0.29621430721E+03  0.17200000000E+03 0.  1.
</event>
<event>
 4    1 -0.3240665E-004  0.1752476E+03  0.7818608E-02  0.1172483E+00
         -5   -1    0    0    0  501 -0.00000000000E+00  0.00000000000E+00  0.22165066825E+02  0.22657894592E+02  0.47000000000E+01 0.  1.
          5   -1    0    0  501    0  0.00000000000E+00 -0.00000000000E+00 -0.17072232782E+04  0.17072297478E+04  0.47000000000E+01 0. -1.
          6    1    1    2  502    0  0.32897579294E+02 -0.67424160632E+01 -0.12269690490E+04  0.12394211383E+04  0.17200000000E+03 0. -1.
         -6    1    1    2    0  502 -0.32897579294E+02  0.67424160632E+01 -0.45808916243E+03  0.49046650409E+03  0.17200000000E+03 0.  1.
</event>
<event>
 4    1 -0.3240665E-004  0.2134833E+03  0.7818608E-02  0.1138837E+00
         -5   -1    0    0    0  501 -0.00000000000E+00  0.00000000000E+00  0.58806496818E+03  0.58808374982E+03  0.47000000000E+01 0.  1.
          5   -1    0    0  501    0  0.00000000000E+00 -0.00000000000E+00 -0.19710677350E+03  0.19716280115E+03  0.47000000000E+01 0. -1.
          6    1    1    2  502    0  0.26121607692E+02 -0.12372869270E+03 -0.11039204763E+03  0.24033628932E+03  0.17200000000E+03 0. -1.
         -6    1    1    2    0  502 -0.26121607692E+02  0.12372869270E+03  0.50135024231E+03  0.54491026165E+03  0.17200000000E+03 0.  1.
</event>
<event>
 4    1 -0.3240665E-004  0.3005105E+03  0.7818608E-02  0.1084986E+00
         -5   -1    0    0    0  501 -0.00000000000E+00  0.00000000000E+00  0.25092226118E+03  0.25096627494E+03  0.47000000000E+01 0.  1.
          5   -1    0    0  501    0  0.00000000000E+00 -0.00000000000E+00 -0.41636542072E+03  0.41639194706E+03  0.47000000000E+01 0. -1.
          6    1    1    2  502    0  0.10527463748E+03 -0.22279997283E+03 -0.20569174598E+03  0.36416434690E+03  0.17200000000E+03 0. -1.
         -6    1    1    2    0  502 -0.10527463748E+03  0.22279997283E+03  0.40248586437E+02  0.30319387510E+03  0.17200000000E+03 0.  1.
</event>
<event>
 4    1 -0.3240665E-004  0.1753076E+03  0.7818608E-02  0.1172423E+00
          5   -1    0    0  501    0  0.00000000000E+00  0.00000000000E+00  0.59693303832E+02  0.59878047082E+02  0.47000000000E+01 0. -1.
         -5   -1    0    0    0  501 -0.00000000000E+00 -0.00000000000E+00 -0.93131279938E+03  0.93132465891E+03  0.47000000000E+01 0.  1.
          6    1    1    2  502    0 -0.10973775485E+02  0.32067629020E+02 -0.10403380350E+03  0.20385237023E+03  0.17200000000E+03 0. -1.
         -6    1    1    2    0  502  0.10973775485E+02 -0.32067629020E+02 -0.76758569205E+03  0.78735033575E+03  0.17200000000E+03 0.  1.
</event>
<event>
 4    1 -0.3240665E-004  0.2128070E+03  0.7818608E-02  0.1139362E+00
         -5   -1    0    0    0  501 -0.00000000000E+00  0.00000000000E+00  0.18089497679E+03  0.18095602402E+03  0.47000000000E+01 0.  1.
          5   -1    0    0  501    0  0.00000000000E+00 -0.00000000000E+00 -0.26697397676E+03  0.26701534462E+03  0.47000000000E+01 0. -1.
          6    1    1    2  502    0  0.11359112439E+03 -0.52913969661E+02 -0.99133485366E+02  0.23476430658E+03  0.17200000000E+03 0. -1.
         -6    1    1    2    0  502 -0.11359112439E+03  0.52913969661E+02  0.13054485405E+02  0.21320706206E+03  0.17200000000E+03 0.  1.
</event>
<event>
 4    1 -0.3240665E-004  0.3399476E+03  0.7818608E-02  0.1066818E+00
          5   -1    0    0  501    0  0.00000000000E+00  0.00000000000E+00  0.33880474110E+03  0.33883733943E+03  0.47000000000E+01 0. -1.
         -5   -1    0    0    0  501 -0.00000000000E+00 -0.00000000000E+00 -0.10022686696E+04  0.10022796896E+04  0.47000000000E+01 0.  1.
          6    1    1    2  502    0  0.18754317526E+03  0.22540621108E+03  0.21291140577E+03  0.40111802413E+03  0.17200000000E+03 0. -1.
         -6    1    1    2    0  502 -0.18754317526E+03 -0.22540621108E+03 -0.87637533429E+03  0.93999900485E+03  0.17200000000E+03 0.  1.
</event>
<event>
 4    1 -0.3240665E-004  0.1934546E+03  0.7818608E-02  0.1155382E+00
          5   -1    0    0  501    0  0.00000000000E+00  0.00000000000E+00  0.26031407688E+03  0.26035650294E+03  0.47000000000E+01 0. -1.
         -5   -1    0    0    0  501 -0.00000000000E+00 -0.00000000000E+00 -0.16119644923E+03  0.16126495356E+03  0.47000000000E+01 0.  1.
          6    1    1    2  502    0  0.12117121027E+02  0.87714540971E+02  0.11903687418E+03  0.22714410125E+03  0.17200000000E+03 0.  1.
         -6    1    1    2    0  502 -0.12117121027E+02 -0.87714540971E+02 -0.19919246532E+02  0.19447735524E+03  0.17200000000E+03 0. -1.
</event>
<event>
 4    1 -0.3240665E-004  0.1736015E+03  0.7818608E-02  0.1174143E+00
          5   -1    0    0  501    0  0.00000000000E+00  0.00000000000E+00  0.17741944139E+02  0.18353925516E+02  0.47000000000E+01 0. -1.
         -5   -1    0    0    0  501 -0.00000000000E+00 -0.00000000000E+00 -0.17504450348E+04  0.17504513446E+04  0.47000000000E+01 0.  1.
          6    1    1    2  502    0 -0.14324626452E+02 -0.18662234149E+02 -0.67589952204E+03  0.69783783059E+03  0.17200000000E+03 0. -1.
         -6    1    1    2    0  502  0.14324626452E+02  0.18662234149E+02 -0.10568035686E+04  0.10709674396E+04  0.17200000000E+03 0. -1.
</event>
<event>
 4    1 -0.3240665E-004  0.2228890E+03  0.7818608E-02  0.1131747E+00
          5   -1    0    0  501    0  0.00000000000E+00  0.00000000000E+00  0.11515386965E+03  0.11524974488E+03  0.47000000000E+01 0. -1.
         -5   -1    0    0    0  501 -0.00000000000E+00 -0.00000000000E+00 -0.46516409730E+03  0.46518784101E+03  0.47000000000E+01 0.  1.
          6    1    1    2  502    0 -0.12803662720E+03  0.60845029326E+02 -0.25349654023E+03  0.33754998357E+03  0.17200000000E+03 0. -1.
         -6    1    1    2    0  502  0.12803662720E+03 -0.60845029326E+02 -0.96513687428E+02  0.24288760232E+03  0.17200000000E+03 0. -1.
</event>
<event>
 4    1 -0.3240665E-004  0.2446093E+03  0.7818608E-02  0.1116760E+00
         -5   -1    0    0    0  501 -0.00000000000E+00  0.00000000000E+00  0.39957854521E+02  0.40233321239E+02  0.47000000000E+01 0.  1.
          5   -1    0    0  501    0  0.00000000000E+00 -0.00000000000E+00 -0.15863047489E+04  0.15863117116E+04  0.47000000000E+01 0. -1.
          6    1    1    2  502    0  0.99672376272E+02  0.14253113993E+03 -0.97145246805E+03  0.10017752273E+04  0.17200000000E+03 0. -1.
         -6    1    1    2    0  502 -0.99672376272E+02 -0.14253113993E+03 -0.57489442630E+03  0.62476980547E+03  0.17200000000E+03 0.  1.
</event>
<event>
 4    1 -0.3240665E-004  0.2298625E+03  0.7818608E-02  0.1126737E+00
          5   -1    0    0  501    0  0.00000000000E+00  0.00000000000E+00  0.62584683517E+02  0.62760916269E+02  0.47000000000E+01 0. -1.
         -5   -1    0    0    0  501 -0.00000000000E+00 -0.00000000000E+00 -0.12238871387E+04  0.12238961632E+04  0.47000000000E+01 0.  1.
          6    1    1    2  502    0 -0.15187939306E+03  0.13616509348E+02 -0.22173044338E+03  0.31937618710E+03  0.17200000000E+03 0. -1.
         -6    1    1    2    0  502  0.15187939306E+03 -0.13616509348E+02 -0.93957201182E+03  0.96728089238E+03  0.17200000000E+03 0.  1.
</event>
<event>
 4    1 -0.3240665E-004  0.1890539E+03  0.7818608E-02  0.1159317E+00
          5   -1    0    0  501    0  0.00000000000E+00  0.00000000000E+00  0.10370228484E+03  0.10380873702E+03  0.47000000000E+01 0. -1.
         -5   -1    0    0    0  501 -0.00000000000E+00 -0.00000000000E+00 -0.40332699031E+03  0.40335437411E+03  0.47000000000E+01 0.  1.
          6    1    1    2  502    0 -0.49399729466E+02  0.60967650210E+02 -0.52864006107E+02  0.19630586029E+03  0.17200000000E+03 0. -1.
         -6    1    1    2    0  502  0.49399729466E+02 -0.60967650210E+02 -0.24676069936E+03  0.31085725083E+03  0.17200000000E+03 0.  1.
</event>
<event>
 4    1 -0.3240665E-004  0.1759547E+03  0.7818608E-02  0.1171777E+00
          5   -1    0    0  501    0  0.00000000000E+00  0.00000000000E+00  0.45665025474E+02  0.45906258305E+02  0.47000000000E+01 0. -1.
         -5   -1    0    0    0  501 -0.00000000000E+00 -0.00000000000E+00 -0.81981729975E+03  0.81983077215E+03  0.47000000000E+01 0.  1.
          6    1    1    2  502    0 -0.77305247722E+01 -0.36280902541E+02 -0.20576857098E+03  0.27074114890E+03  0.17200000000E+03 0. -1.
         -6    1    1    2    0  502  0.77305247722E+01  0.36280902541E+02 -0.56838370330E+03  0.59499588156E+03  0.17200000000E+03 0.  1.
</event>
<event>
 4    1 -0.3240665E-004  0.2076134E+03  0.7818608E-02  0.1143470E+00
          5   -1    0    0  501    0  0.00000000000E+00  0.00000000000E+00  0.83862404679E+02  0.83994005253E+02  0.47000000000E+01 0. -1.
         -5   -1    0    0    0  501 -0.00000000000E+00 -0.00000000000E+00 -0.51515788045E+03  0.51517932003E+03  0.47000000000E+01 0.  1.
          6    1    1    2  502    0 -0.11475711777E+02  0.11570487501E+03 -0.19830611254E+03  0.28710385635E+03  0.17200000000E+03 0. -1.
         -6    1    1    2    0  502  0.11475711777E+02 -0.11570487501E+03 -0.23298936323E+03  0.31206946893E+03  0.17200000000E+03 0.  1.
</event>
<event>
 4    1 -0.3240665E-004  0.1945674E+03  0.7818608E-02  0.1154405E+00
         -5   -1    0    0    0  501 -0.00000000000E+00  0.00000000000E+00  0.33462341252E+03  0.33465641815E+03  0.47000000000E+01 0.  1.
          5   -1    0    0  501    0  0.00000000000E+00 -0.00000000000E+00 -0.17108280234E+03  0.17114734955E+03  0.47000000000E+01 0. -1.
          6    1    1    2  502    0 -0.43268338345E+01  0.90850135249E+02 -0.65482228511E+02  0.20529099059E+03  0.17200000000E+03 0. -1.
         -6    1    1    2    0  502  0.43268338345E+01 -0.90850135249E+02  0.22902283869E+03  0.30051277711E+03  0.17200000000E+03 0.  1.
</event>
<event>
 4    1 -0.3240665E-004  0.2240591E+03  0.7818608E-02  0.1130892E+00
         -5   -1    0    0    0  501 -0.00000000000E+00  0.00000000000E+00  0.89734649656E+03  0.89735880499E+03  0.47000000000E+01 0.  1.
          5   -1    0    0  501    0  0.00000000000E+00 -0.00000000000E+00 -0.58420527151E+02  0.58609282478E+02  0.47000000000E+01 0. -1.
          6    1    1    2  502    0  0.14354629192E+03  0.35996139168E+01  0.51986007028E+03  0.56608920482E+03  0.17200000000E+03 0.  1.
         -6    1    1    2    0  502 -0.14354629192E+03 -0.35996139168E+01  0.31906589913E+03  0.38987888265E+03  0.17200000000E+03 0. -1.
</event>
<event>
 4    1 -0.3240665E-004  0.2554866E+03  0.7818608E-02  0.1109886E+00
          5   -1    0    0  501    0  0.00000000000E+00  0.00000000000E+00  0.21592326839E+02  0.22097931539E+02  0.47000000000E+01 0. -1.
         -5   -1    0    0    0  501 -0.00000000000E+00 -0.00000000000E+00 -0.31633173267E+04  0.31633208183E+04  0.47000000000E+01 0.  1.
          6    1    1    2  502    0 -0.62014950214E+02 -0.17844757027E+03 -0.11954038067E+04  0.12224007733E+04  0.17200000000E+03 0. -1.
         -6    1    1    2    0  502  0.62014950214E+02  0.17844757027E+03 -0.19463211931E+04  0.19630179765E+04  0.17200000000E+03 0.  1.
</event>
<event>
 4    1 -0.3240665E-004  0.2862709E+03  0.7818608E-02  0.1092312E+00
         -5   -1    0    0    0  501 -0.00000000000E+00  0.00000000000E+00  0.91780996150E+03  0.91782199550E+03  0.47000000000E+01 0.  1.
          5   -1    0    0  501    0  0.00000000000E+00 -0.00000000000E+00 -0.17501483374E+03  0.17507793131E+03  0.47000000000E+01 0. -1.
          6    1    1    2  502    0 -0.12946385655E+03 -0.18869587332E+03 -0.11096511475E+02  0.28648587282E+03  0.17200000000E+03 0. -1.
         -6    1    1    2    0  502  0.12946385655E+03  0.18869587332E+03  0.75389163923E+03  0.80641405398E+03  0.17200000000E+03 0.  1.
</event>
<event>
 4    1 -0.3240665E-004  0.2389491E+03  0.7818608E-02  0.1120495E+00
          5   -1    0    0  501    0  0.00000000000E+00  0.00000000000E+00  0.50632291088E+03  0.50634472455E+03  0.47000000000E+01 0. -1.
         -5   -1    0    0    0  501 -0.00000000000E+00 -0.00000000000E+00 -0.11413989555E+03  0.11423662179E+03  0.47000000000E+01 0.  1.
          6    1    1    2  502    0 -0.62689959326E+01  0.16575092760E+03  0.23099589809E+03  0.33234887580E+03  0.17200000000E+03 0. -1.
         -6    1    1    2    0  502  0.62689959326E+01 -0.16575092760E+03  0.16118711724E+03  0.28823247054E+03  0.17200000000E+03 0.  1.
</event>
<event>
 4    1 -0.3240665E-004  0.1765736E+03  0.7818608E-02  0.1171161E+00
          5   -1    0    0  501    0  0.00000000000E+00  0.00000000000E+00  0.20179745346E+03  0.20185217913E+03  0.47000000000E+01 0. -1.
         -5   -1    0    0    0  501 -0.00000000000E+00 -0.00000000000E+00 -0.15787925928E+03  0.15794920231E+03  0.47000000000E+01 0.  1.
          6    1    1    2  502    0  0.25504075894E+02  0.30721032346E+02  0.48688514941E+02  0.18316334569E+03  0.17200000000E+03 0. -1.
         -6    1    1    2    0  502 -0.25504075894E+02 -0.30721032346E+02 -0.47703207617E+01  0.17663803576E+03  0.17200000000E+03 0. -1.
</event>
<event>
 4    1 -0.3240665E-004  0.3318442E+03  0.7818608E-02  0.1070324E+00
          5   -1    0    0  501    0  0.00000000000E+00  0.00000000000E+00  0.76700295648E+03  0.76701735655E+03  0.47000000000E+01 0. -1.
         -5   -1    0    0    0  501 -0.00000000000E+00 -0.00000000000E+00 -0.15462024731E+03  0.15469166389E+03  0.47000000000E+01 0.  1.
          6    1    1    2  502    0  0.27473714466E+03 -0.71106274797E+02  0.42964515140E+03  0.54287711049E+03  0.17200000000E+03 0. -1.
         -6    1    1    2    0  502 -0.27473714466E+03  0.71106274797E+02  0.18273755777E+03  0.37883190994E+03  0.17200000000E+03 0.  1.
</event>
<event>
 4    1 -0.3240665E-004  0.1875313E+03  0.7818608E-02  0.1160707E+00
         -5   -1    0    0    0  501 -0.00000000000E+00  0.00000000000E+00  0.28985030344E+03  0.28988840681E+03  0.47000000000E+01 0.  1.
          5   -1    0    0  501    0  0.00000000000E+00 -0.00000000000E+00 -0.15232965437E+03  0.15240214434E+03  0.47000000000E+01 0. -1.
          6    1    1    2  502    0  0.49588158045E+01  0.74561451958E+02 -0.31106826281E+02  0.19009375217E+03  0.17200000000E+03 0. -1.
         -6    1    1    2    0  502 -0.49588158045E+01 -0.74561451958E+02  0.16862747536E+03  0.25219679898E+03  0.17200000000E+03 0.  1.
</event>
<event>
 4    1 -0.3240665E-004  0.1996995E+03  0.7818608E-02  0.1149993E+00
          5   -1    0    0  501    0  0.00000000000E+00  0.00000000000E+00  0.18790034633E+03  0.18795911829E+03  0.47000000000E+01 0. -1.
         -5   -1    0    0    0  501 -0.00000000000E+00 -0.00000000000E+00 -0.21732890656E+03  0.21737972220E+03  0.47000000000E+01 0.  1.
          6    1    1    2  502    0  0.95896307507E+01  0.10101453132E+03  0.16649271150E+02  0.20039235211E+03  0.17200000000E+03 0. -1.
         -6    1    1    2    0  502 -0.95896307507E+01 -0.10101453132E+03 -0.46077831380E+02  0.20494648838E+03  0.17200000000E+03 0.  1.
</event>
<event>
 4    1 -0.3240665E-004  0.1889939E+03  0.7818608E-02  0.1159372E+00
          5   -1    0    0  501    0  0.00000000000E+00  0.00000000000E+00  0.82965272552E+03  0.82966603821E+03  0.47000000000E+01 0. -1.
         -5   -1    0    0    0  501 -0.00000000000E+00 -0.00000000000E+00 -0.47503511932E+02  0.47735454809E+02  0.47000000000E+01 0.  1.
          6    1    1    2  502    0  0.75945975325E+02 -0.19154945720E+02  0.52711691863E+03  0.55997406102E+03  0.17200000000E+03 0. -1.
         -6    1    1    2    0  502 -0.75945975325E+02  0.19154945720E+02  0.25503229496E+03  0.31742743200E+03  0.17200000000E+03 0.  1.
</event>
<event>
 4    1 -0.3240665E-004  0.3038894E+03  0.7818608E-02  0.1083312E+00
          5   -1    0    0  501    0  0.00000000000E+00  0.00000000000E+00  0.98094540239E+02  0.98207071154E+02  0.47000000000E+01 0. -1.
         -5   -1    0    0    0  501 -0.00000000000E+00 -0.00000000000E+00 -0.13492138954E+04  0.13492220816E+04  0.47000000000E+01 0.  1.
          6    1    1    2  502    0  0.22599013094E+03  0.10813534385E+03 -0.22738440077E+03  0.37954243186E+03  0.17200000000E+03 0. -1.
         -6    1    1    2    0  502 -0.22599013094E+03 -0.10813534385E+03 -0.10237349544E+04  0.10678867209E+04  0.17200000000E+03 0.  1.
</event>
<event>
 4    1 -0.3240665E-004  0.2049397E+03  0.7818608E-02  0.1145637E+00
          5   -1    0    0  501    0  0.00000000000E+00  0.00000000000E+00  0.99513891474E+03  0.99515001363E+03  0.47000000000E+01 0. -1.
         -5   -1    0    0    0  501 -0.00000000000E+00 -0.00000000000E+00 -0.77603766199E+02  0.77745961491E+02  0.47000000000E+01 0.  1.
          6    1    1    2  502    0  0.84582091634E+02 -0.72540709813E+02  0.82130490705E+03  0.84648805966E+03  0.17200000000E+03 0. -1.
         -6    1    1    2    0  502 -0.84582091634E+02  0.72540709813E+02  0.96230241489E+02  0.22640791546E+03  0.17200000000E+03 0.  1.
</event>
<event>
 4    1 -0.3240665E-004  0.3054684E+03  0.7818608E-02  0.1082539E+00
          5   -1    0    0  501    0  0.00000000000E+00  0.00000000000E+00  0.90736988991E+02  0.90858632893E+02  0.47000000000E+01 0. -1.
         -5   -1    0    0    0  501 -0.00000000000E+00 -0.00000000000E+00 -0.11562911631E+04  0.11563007152E+04  0.47000000000E+01 0.  1.
          6    1    1    2  502    0  0.22315688365E+03 -0.11801663529E+03 -0.74083800471E+03  0.80134379024E+03  0.17200000000E+03 0. -1.
         -6    1    1    2    0  502 -0.22315688365E+03  0.11801663529E+03 -0.32471616944E+03  0.44581555785E+03  0.17200000000E+03 0.  1.
</event>
<event>
 4    1 -0.3240665E-004  0.2530815E+03  0.7818608E-02  0.1111373E+00
         -5   -1    0    0    0  501 -0.00000000000E+00  0.00000000000E+00  0.77562613752E+03  0.77564037750E+03  0.47000000000E+01 0.  1.
          5   -1    0    0  501    0  0.00000000000E+00 -0.00000000000E+00 -0.95092040582E+02  0.95208120358E+02  0.47000000000E+01 0. -1.
          6    1    1    2  502    0  0.16470879132E+03  0.85657850911E+02  0.49861947000E+03  0.55917048315E+03  0.17200000000E+03 0. -1.
         -6    1    1    2    0  502 -0.16470879132E+03 -0.85657850911E+02  0.18191462694E+03  0.31167801471E+03  0.17200000000E+03 0.  1.
</event>
<event>
 4    1 -0.3240665E-004  0.2353645E+03  0.7818608E-02  0.1122920E+00
         -5   -1    0    0    0  501 -0.00000000000E+00  0.00000000000E+00  0.90735477647E+03  0.90736694913E+03  0.47000000000E+01 0.  1.
          5   -1    0    0  501    0  0.00000000000E+00 -0.00000000000E+00 -0.64461945149E+02  0.64633059439E+02  0.47000000000E+01 0. -1.
          6    1    1    2  502    0  0.29129071866E+02 -0.15799984248E+03  0.53472497854E+03  0.58423219333E+03  0.17200000000E+03 0. -1.
         -6    1    1    2    0  502 -0.29129071866E+02  0.15799984248E+03  0.30816785278E+03  0.38776781524E+03  0.17200000000E+03 0.  1.
</event>
<event>
 4    1 -0.3240665E-004  0.1770400E+03  0.7818608E-02  0.1170699E+00
          5   -1    0    0  501    0  0.00000000000E+00  0.00000000000E+00  0.30134659269E+03  0.30138324261E+03  0.47000000000E+01 0. -1.
         -5   -1    0    0    0  501 -0.00000000000E+00 -0.00000000000E+00 -0.10815903037E+03  0.10826110036E+03  0.47000000000E+01 0.  1.
          6    1    1    2  502    0  0.25363197736E+02 -0.33404737082E+02  0.56043882816E+02  0.18569890969E+03  0.17200000000E+03 0.  1.
         -6    1    1    2    0  502 -0.25363197736E+02  0.33404737082E+02  0.13714367951E+03  0.22394543328E+03  0.17200000000E+03 0.  1.
</event>
<event>
 4    1 -0.3240665E-004  0.2839474E+03  0.7818608E-02  0.1093552E+00
         -5   -1    0    0    0  501 -0.00000000000E+00  0.00000000000E+00  0.56605290355E+03  0.56607241553E+03  0.47000000000E+01 0.  1.
          5   -1    0    0  501    0  0.00000000000E+00 -0.00000000000E+00 -0.14285327619E+03  0.14293057238E+03  0.47000000000E+01 0. -1.
          6    1    1    2  502    0  0.22112807772E+03  0.46308818781E+02  0.23210634131E+03  0.36674171719E+03  0.17200000000E+03 0.  1.
         -6    1    1    2    0  502 -0.22112807772E+03 -0.46308818781E+02  0.19109328605E+03  0.34226127071E+03  0.17200000000E+03 0.  1.
</event>
<event>
 4    1 -0.3240665E-004  0.2187072E+03  0.7818608E-02  0.1134851E+00
          5   -1    0    0  501    0  0.00000000000E+00  0.00000000000E+00  0.13893610189E+04  0.13893689686E+04  0.47000000000E+01 0. -1.
         -5   -1    0    0    0  501 -0.00000000000E+00 -0.00000000000E+00 -0.48204573559E+02  0.48433159220E+02  0.47000000000E+01 0.  1.
          6    1    1    2  502    0 -0.12608251258E+03 -0.48497756880E+02  0.10561155914E+04  0.10785235161E+04  0.17200000000E+03 0. -1.
         -6    1    1    2    0  502  0.12608251258E+03  0.48497756880E+02  0.28504085395E+03  0.35927861170E+03  0.17200000000E+03 0.  1.
</event>
<event>
 4    1 -0.3240665E-004  0.2006914E+03  0.7818608E-02  0.1149157E+00
         -5   -1    0    0    0  501 -0.00000000000E+00  0.00000000000E+00  0.12606102207E+04  0.12606189823E+04  0.47000000000E+01 0.  1.
          5   -1    0    0  501    0  0.00000000000E+00 -0.00000000000E+00 -0.50728816285E+02  0.50946077392E+02  0.47000000000E+01 0. -1.
          6    1    1    2  502    0  0.87883204271E+02  0.54493950546E+02  0.20516707464E+03  0.28700274695E+03  0.17200000000E+03 0. -1.
         -6    1    1    2    0  502 -0.87883204271E+02 -0.54493950546E+02  0.10047143298E+04  0.10245623127E+04  0.17200000000E+03 0.  1.
</event>
<event>
 4    1 -0.3240665E-004  0.1904672E+03  0.7818608E-02  0.1158041E+00
         -5   -1    0    0    0  501 -0.00000000000E+00  0.00000000000E+00  0.43451522723E+03  0.43454064562E+03  0.47000000000E+01 0.  1.
          5   -1    0    0  501    0  0.00000000000E+00 -0.00000000000E+00 -0.17208758870E+03  0.17215175917E+03  0.47000000000E+01 0. -1.
          6    1    1    2  502    0  0.24964743180E+02 -0.77913546446E+02  0.34890889132E+03  0.39751122445E+03  0.17200000000E+03 0.  1.
         -6    1    1    2    0  502 -0.24964743180E+02  0.77913546446E+02 -0.86481252799E+02  0.20918118034E+03  0.17200000000E+03 0. -1.
</event>
<event>
 4    1 -0.3240665E-004  0.2878422E+03  0.7818608E-02  0.1091481E+00
          5   -1    0    0  501    0  0.00000000000E+00  0.00000000000E+00  0.49390827686E+03  0.49393063881E+03  0.47000000000E+01 0. -1.
         -5   -1    0    0    0  501 -0.00000000000E+00 -0.00000000000E+00 -0.22671640168E+03  0.22676511370E+03  0.47000000000E+01 0.  1.
          6    1    1    2  502    0 -0.20080039563E+03 -0.11379077796E+03  0.31742908300E+03  0.42850246530E+03  0.17200000000E+03 0. -1.
         -6    1    1    2    0  502  0.20080039563E+03  0.11379077796E+03 -0.50237207820E+02  0.29219328720E+03  0.17200000000E+03 0.  1.
</event>
<event>
 4    1 -0.3240665E-004  0.3229803E+03  0.7818608E-02  0.1074286E+00
          5   -1    0    0  501    0  0.00000000000E+00  0.00000000000E+00  0.41475104232E+03  0.41477767190E+03  0.47000000000E+01 0. -1.
         -5   -1    0    0    0  501 -0.00000000000E+00 -0.00000000000E+00 -0.34986200784E+03  0.34989357600E+03  0.47000000000E+01 0.  1.
          6    1    1    2  502    0  0.25305949050E+03 -0.10340784502E+03  0.23519463587E+03  0.39954074246E+03  0.17200000000E+03 0. -1.
         -6    1    1    2    0  502 -0.25305949050E+03  0.10340784502E+03 -0.17030560139E+03  0.36513050544E+03  0.17200000000E+03 0.  1.
</event>
<event>
 4    1 -0.3240665E-004  0.2254924E+03  0.7818608E-02  0.1129853E+00
         -5   -1    0    0    0  501 -0.00000000000E+00  0.00000000000E+00  0.19392632177E+03  0.19398326803E+03  0.47000000000E+01 0.  1.
          5   -1    0    0  501    0  0.00000000000E+00 -0.00000000000E+00 -0.26954803142E+03  0.26958900431E+03  0.47000000000E+01 0. -1.
          6    1    1    2  502    0  0.13808559382E+02  0.14516248190E+03 -0.76384480409E+02  0.23807858222E+03  0.17200000000E+03 0. -1.
         -6    1    1    2    0  502 -0.13808559382E+02 -0.14516248190E+03  0.76277075755E+00  0.22549369012E+03  0.17200000000E+03 0. -1.
</event>
<event>
 4    1 -0.3240665E-004  0.1761267E+03  0.7818608E-02  0.1171605E+00
         -5   -1    0    0    0  501 -0.00000000000E+00  0.00000000000E+00  0.10821389110E+03  0.10831590939E+03  0.47000000000E+01 0.  1.
          5   -1    0    0  501    0  0.00000000000E+00 -0.00000000000E+00 -0.29698937596E+03  0.29702656352E+03  0.47000000000E+01 0. -1.
          6    1    1    2  502    0 -0.96021863576E+01 -0.36666158803E+02 -0.13264177407E+03  0.22048684635E+03  0.17200000000E+03 0. -1.
         -6    1    1    2    0  502  0.96021863576E+01  0.36666158803E+02 -0.56133710789E+02  0.18485562656E+03  0.17200000000E+03 0.  1.
</event>
<event>
 4    1 -0.3240665E-004  0.1882556E+03  0.7818608E-02  0.1160044E+00
         -5   -1    0    0    0  501 -0.00000000000E+00  0.00000000000E+00  0.13491553199E+03  0.13499737320E+03  0.47000000000E+01 0.  1.
          5   -1    0    0  501    0  0.00000000000E+00 -0.00000000000E+00 -0.44886969077E+03  0.44889429635E+03  0.47000000000E+01 0. -1.
          6    1    1    2  502    0 -0.66601468780E+02  0.37688337915E+02 -0.34506990390E+03  0.39308193171E+03  0.17200000000E+03 0. -1.
         -6    1    1    2    0  502  0.66601468780E+02 -0.37688337915E+02  0.31115745118E+02  0.19080973783E+03  0.17200000000E+03 0.  1.
</event>
<event>
 4    1 -0.3240665E-004  0.2101941E+03  0.7818608E-02  0.1141412E+00
          5   -1    0    0  501    0  0.00000000000E+00  0.00000000000E+00  0.52291737125E+03  0.52293849271E+03  0.47000000000E+01 0. -1.
         -5   -1    0    0    0  501 -0.00000000000E+00 -0.00000000000E+00 -0.10576336508E+03  0.10586774482E+03  0.47000000000E+01 0.  1.
          6    1    1    2  502    0 -0.11942235464E+03 -0.18326551663E+02  0.34978066026E+03  0.40807851154E+03  0.17200000000E+03 0. -1.
         -6    1    1    2    0  502  0.11942235464E+03  0.18326551663E+02  0.67373345909E+02  0.22072772600E+03  0.17200000000E+03 0.  1.
</event>
<event>
 4    1 -0.3240665E-004  0.2484816E+03  0.7818608E-02  0.1114268E+00
         -5   -1    0    0    0  501 -0.00000000000E+00  0.00000000000E+00  0.15172497496E+03  0.15179775370E+03  0.47000000000E+01 0.  1.
          5   -1    0    0  501    0  0.00000000000E+00 -0.00000000000E+00 -0.41881404735E+03  0.41884041861E+03  0.47000000000E+01 0. -1.
          6    1    1    2  502    0 -0.28428133005E+01 -0.17930712841E+03 -0.18194908129E+03  0.30797499260E+03  0.17200000000E+03 0. -1.
         -6    1    1    2    0  502  0.28428133005E+01  0.17930712841E+03 -0.85139991102E+02  0.26266317970E+03  0.17200000000E+03 0.  1.
</event>
<event>
 4    1 -0.3240665E-004  0.1992130E+03  0.7818608E-02  0.1150405E+00
          5   -1    0    0  501    0  0.00000000000E+00  0.00000000000E+00  0.14275254716E+03  0.14282989785E+03  0.47000000000E+01 0. -1.
         -5   -1    0    0    0  501 -0.00000000000E+00 -0.00000000000E+00 -0.48336118686E+03  0.48338403673E+03  0.47000000000E+01 0.  1.
          6    1    1    2  502    0 -0.96346992311E+02 -0.28619317587E+02  0.33843680327E+02  0.20206732285E+03  0.17200000000E+03 0. -1.
         -6    1    1    2    0  502  0.96346992311E+02  0.28619317587E+02 -0.37445232003E+03  0.42414661173E+03  0.17200000000E+03 0.  1.
</event>
<event>
 4    1 -0.3240665E-004  0.2090974E+03  0.7818608E-02  0.1142283E+00
         -5   -1    0    0    0  501 -0.00000000000E+00  0.00000000000E+00  0.50109232516E+02  0.50329168315E+02  0.47000000000E+01 0.  1.
          5   -1    0    0  501    0  0.00000000000E+00 -0.00000000000E+00 -0.92868547577E+03  0.92869736885E+03  0.47000000000E+01 0. -1.
          6    1    1    2  502    0  0.11632123206E+03  0.24639381044E+02 -0.31666064768E+03  0.37946764541E+03  0.17200000000E+03 0. -1.
         -6    1    1    2    0  502 -0.11632123206E+03 -0.24639381044E+02 -0.56191559558E+03  0.59955889175E+03  0.17200000000E+03 0.  1.
</event>
<event>
 4    1 -0.3240665E-004  0.2182009E+03  0.7818608E-02  0.1135232E+00
          5   -1    0    0  501    0  0.00000000000E+00  0.00000000000E+00  0.19575981540E+03  0.19581622846E+03  0.47000000000E+01 0. -1.
         -5   -1    0    0    0  501 -0.00000000000E+00 -0.00000000000E+00 -0.24573775271E+03  0.24578269489E+03  0.47000000000E+01 0.  1.
          6    1    1    2  502    0 -0.23022647448E+02  0.13227842813E+03 -0.47858776650E+02  0.22338775111E+03  0.17200000000E+03 0.  1.
         -6    1    1    2    0  502  0.23022647448E+02 -0.13227842813E+03 -0.21191606542E+01  0.21821117223E+03  0.17200000000E+03 0. -1.
</event>
<event>
 4    1 -0.3240665E-004  0.1931648E+03  0.7818608E-02  0.1155637E+00
          5   -1    0    0  501    0  0.00000000000E+00  0.00000000000E+00  0.29651147634E+03  0.29654872382E+03  0.47000000000E+01 0. -1.
         -5   -1    0    0    0  501 -0.00000000000E+00 -0.00000000000E+00 -0.16504678570E+03  0.16511369255E+03  0.47000000000E+01 0.  1.
          6    1    1    2  502    0  0.51316596565E+02  0.71381032139E+02  0.17832763746E+03  0.26289425842E+03  0.17200000000E+03 0. -1.
         -6    1    1    2    0  502 -0.51316596565E+02 -0.71381032139E+02 -0.46862946812E+02  0.19876815795E+03  0.17200000000E+03 0.  1.
</event>
<event>
 4    1 -0.3240665E-004  0.2120125E+03  0.7818608E-02  0.1139982E+00
         -5   -1    0    0    0  501 -0.00000000000E+00  0.00000000000E+00  0.48942972112E+02  0.49168125032E+02  0.47000000000E+01 0.  1.
          5   -1    0    0  501    0  0.00000000000E+00 -0.00000000000E+00 -0.18632591491E+04  0.18632650769E+04  0.47000000000E+01 0. -1.
          6    1    1    2  502    0 -0.45240780440E+02  0.11540617982E+03 -0.15888879549E+04  0.16029704450E+04  0.17200000000E+03 0. -1.
         -6    1    1    2    0  502  0.45240780440E+02 -0.11540617982E+03 -0.22542822210E+03  0.30946275685E+03  0.17200000000E+03 0.  1.
</event>
<event>
 4    1 -0.3240665E-004  0.3506570E+03  0.7818608E-02  0.1062346E+00
         -5   -1    0    0    0  501 -0.00000000000E+00  0.00000000000E+00  0.22314758842E+03  0.22319707932E+03  0.47000000000E+01 0.  1.
          5   -1    0    0  501    0  0.00000000000E+00 -0.00000000000E+00 -0.56184861426E+03  0.56186827224E+03  0.47000000000E+01 0. -1.
          6    1    1    2  502    0 -0.16497201904E+03  0.25721697969E+03 -0.22412680734E+03  0.41616483210E+03  0.17200000000E+03 0. -1.
         -6    1    1    2    0  502  0.16497201904E+03 -0.25721697969E+03 -0.11457421851E+03  0.36890051946E+03  0.17200000000E+03 0.  1.
</event>
<event>
 4    1 -0.3240665E-004  0.2720365E+03  0.7818608E-02  0.1100120E+00
         -5   -1    0    0    0  501 -0.00000000000E+00  0.00000000000E+00  0.41581356123E+03  0.41584012276E+03  0.47000000000E+01 0.  1.
          5   -1    0    0  501    0  0.00000000000E+00 -0.00000000000E+00 -0.17986713541E+03  0.17992853137E+03  0.47000000000E+01 0. -1.
          6    1    1    2  502    0 -0.12012842903E+03 -0.17317337589E+03  0.86910835418E+02  0.28558247651E+03  0.17200000000E+03 0. -1.
         -6    1    1    2    0  502  0.12012842903E+03  0.17317337589E+03  0.14903559040E+03  0.31018617762E+03  0.17200000000E+03 0.  1.
</event>
<event>
 4    1 -0.3240665E-004  0.1810993E+03  0.7818608E-02  0.1166743E+00
         -5   -1    0    0    0  501 -0.00000000000E+00  0.00000000000E+00  0.43425838602E+03  0.43428381944E+03  0.47000000000E+01 0.  1.
          5   -1    0    0  501    0  0.00000000000E+00 -0.00000000000E+00 -0.76831710775E+02  0.76975332286E+02  0.47000000000E+01 0. -1.
          6    1    1    2  502    0 -0.44460662763E+02 -0.35159899621E+02  0.14414125957E+03  0.23145987079E+03  0.17200000000E+03 0. -1.
         -6    1    1    2    0  502  0.44460662763E+02  0.35159899621E+02  0.21328541567E+03  0.27979928093E+03  0.17200000000E+03 0.  1.
</event>
<event>
 4    1 -0.3240665E-004  0.1731520E+03  0.7818608E-02  0.1174600E+00
          5   -1    0    0  501    0  0.00000000000E+00  0.00000000000E+00  0.17463948036E+04  0.17464011281E+04  0.47000000000E+01 0. -1.
         -5   -1    0    0    0  501 -0.00000000000E+00 -0.00000000000E+00 -0.40707786370E+02  0.40978212152E+02  0.47000000000E+01 0.  1.
          6    1    1    2  502    0  0.68340547977E+01 -0.18733053278E+02  0.17238747918E+03  0.24433394068E+03  0.17200000000E+03 0.  1.
         -6    1    1    2    0  502 -0.68340547977E+01  0.18733053278E+02  0.15332995381E+04  0.15430453995E+04  0.17200000000E+03 0. -1.
</event>
<event>
 4    1 -0.3240665E-004  0.1881935E+03  0.7818608E-02  0.1160101E+00
         -5   -1    0    0    0  501 -0.00000000000E+00  0.00000000000E+00  0.37282128617E+03  0.37285091045E+03  0.47000000000E+01 0.  1.
          5   -1    0    0  501    0  0.00000000000E+00 -0.00000000000E+00 -0.95390783635E+02  0.95506500316E+02  0.47000000000E+01 0. -1.
          6    1    1    2  502    0 -0.37875922710E+02 -0.66318921635E+02  0.15541183918E+03  0.24406889324E+03  0.17200000000E+03 0.  1.
         -6    1    1    2    0  502  0.37875922710E+02  0.66318921635E+02  0.12201866335E+03  0.22428851753E+03  0.17200000000E+03 0.  1.
</event>
<event>
 4    1 -0.3240665E-004  0.2987680E+03  0.7818608E-02  0.1085858E+00
          5   -1    0    0  501    0  0.00000000000E+00  0.00000000000E+00  0.13999003529E+03  0.14006891155E+03  0.47000000000E+01 0. -1.
         -5   -1    0    0    0  501 -0.00000000000E+00 -0.00000000000E+00 -0.15366692033E+04  0.15366763909E+04  0.47000000000E+01 0.  1.
          6    1    1    2  502    0  0.27882190873E+02  0.24269511876E+03 -0.57001531348E+02  0.30415705123E+03  0.17200000000E+03 0.  1.
         -6    1    1    2    0  502 -0.27882190873E+02 -0.24269511876E+03 -0.13396776367E+04  0.13725882512E+04  0.17200000000E+03 0.  1.
</event>
<event>
 4    1 -0.3240665E-004  0.1751354E+03  0.7818608E-02  0.1172596E+00
         -5   -1    0    0    0  501 -0.00000000000E+00  0.00000000000E+00  0.10318405066E+03  0.10329103693E+03  0.47000000000E+01 0.  1.
          5   -1    0    0  501    0  0.00000000000E+00 -0.00000000000E+00 -0.42162569951E+03  0.42165189492E+03  0.47000000000E+01 0. -1.
          6    1    1    2  502    0 -0.24862409763E+02  0.21685876004E+02 -0.30190847059E+03  0.34902885447E+03  0.17200000000E+03 0. -1.
         -6    1    1    2    0  502  0.24862409763E+02 -0.21685876004E+02 -0.16533178266E+02  0.17591407738E+03  0.17200000000E+03 0.  1.
</event>
<event>
 4    1 -0.3240665E-004  0.1724662E+03  0.7818608E-02  0.1175300E+00
         -5   -1    0    0    0  501 -0.00000000000E+00  0.00000000000E+00  0.87835027285E+02  0.87960684503E+02  0.47000000000E+01 0.  1.
          5   -1    0    0  501    0  0.00000000000E+00 -0.00000000000E+00 -0.34664773808E+03  0.34667959894E+03  0.47000000000E+01 0. -1.
          6    1    1    2  502    0 -0.99732701084E+01 -0.78189624746E+01 -0.95604510842E+02  0.19719235478E+03  0.17200000000E+03 0.  1.
         -6    1    1    2    0  502  0.99732701084E+01  0.78189624746E+01 -0.16320819996E+03  0.23744792866E+03  0.17200000000E+03 0. -1.
</event>
<event>
 4    1 -0.3240665E-004  0.1999860E+03  0.7818608E-02  0.1149751E+00
         -5   -1    0    0    0  501 -0.00000000000E+00  0.00000000000E+00  0.10392696917E+03  0.10403319144E+03  0.47000000000E+01 0.  1.
          5   -1    0    0  501    0  0.00000000000E+00 -0.00000000000E+00 -0.53935226660E+03  0.53937274448E+03  0.47000000000E+01 0. -1.
          6    1    1    2  502    0  0.54372928555E+02 -0.86336474447E+02 -0.39005991419E+03  0.43833906835E+03  0.17200000000E+03 0. -1.
         -6    1    1    2    0  502 -0.54372928555E+02  0.86336474447E+02 -0.45365383246E+02  0.20506686757E+03  0.17200000000E+03 0.  1.
</event>
<event>
 4    1 -0.3240665E-004  0.1829942E+03  0.7818608E-02  0.1164936E+00
          5   -1    0    0  501    0  0.00000000000E+00  0.00000000000E+00  0.27133952200E+03  0.27138022440E+03  0.47000000000E+01 0. -1.
         -5   -1    0    0    0  501 -0.00000000000E+00 -0.00000000000E+00 -0.12825945271E+03  0.12834553833E+03  0.47000000000E+01 0.  1.
          6    1    1    2  502    0  0.48312514453E+02 -0.39607805097E+02  0.32331849230E+02  0.18582848477E+03  0.17200000000E+03 0. -1.
         -6    1    1    2    0  502 -0.48312514453E+02  0.39607805097E+02  0.11074822005E+03  0.21389727797E+03  0.17200000000E+03 0. -1.
</event>
<event>
 4    1 -0.3240665E-004  0.1752781E+03  0.7818608E-02  0.1172453E+00
          5   -1    0    0  501    0  0.00000000000E+00  0.00000000000E+00  0.12646765463E+03  0.12655495908E+03  0.47000000000E+01 0. -1.
         -5   -1    0    0    0  501 -0.00000000000E+00 -0.00000000000E+00 -0.25042368141E+03  0.25046778278E+03  0.47000000000E+01 0.  1.
          6    1    1    2  502    0  0.27578077967E+02 -0.19438533396E+02 -0.28951355854E+02  0.17765299877E+03  0.17200000000E+03 0.  1.
         -6    1    1    2    0  502 -0.27578077967E+02  0.19438533396E+02 -0.95004670927E+02  0.19936974310E+03  0.17200000000E+03 0.  1.
</event>
<event>
 4    1 -0.3240665E-004  0.2321954E+03  0.7818608E-02  0.1125104E+00
          5   -1    0    0  501    0  0.00000000000E+00  0.00000000000E+00  0.34784060621E+03  0.34787235781E+03  0.47000000000E+01 0. -1.
         -5   -1    0    0    0  501 -0.00000000000E+00 -0.00000000000E+00 -0.19565139781E+03  0.19570784212E+03  0.47000000000E+01 0.  1.
          6    1    1    2  502    0  0.13412742654E+02 -0.15540527145E+03  0.20006851708E+03  0.30649977420E+03  0.17200000000E+03 0. -1.
         -6    1    1    2    0  502 -0.13412742654E+02  0.15540527145E+03 -0.47879308693E+02  0.23708042572E+03  0.17200000000E+03 0.  1.
</event>
<event>
 4    1 -0.3240665E-004  0.3868767E+03  0.7818608E-02  0.1048421E+00
          5   -1    0    0  501    0  0.00000000000E+00  0.00000000000E+00  0.22054340151E+03  0.22059347667E+03  0.47000000000E+01 0. -1.
         -5   -1    0    0    0  501 -0.00000000000E+00 -0.00000000000E+00 -0.69882315494E+03  0.69883895990E+03  0.47000000000E+01 0.  1.
          6    1    1    2  502    0  0.34645858905E+03 -0.74829115100E+01 -0.16079009126E+03  0.41895942684E+03  0.17200000000E+03 0.  1.
         -6    1    1    2    0  502 -0.34645858905E+03  0.74829115100E+01 -0.31748966217E+03  0.50047300973E+03  0.17200000000E+03 0. -1.
</event>
<event>
 4    1 -0.3240665E-004  0.3285525E+03  0.7818608E-02  0.1071779E+00
          5   -1    0    0  501    0  0.00000000000E+00  0.00000000000E+00  0.11889693850E+03  0.11898979782E+03  0.47000000000E+01 0. -1.
         -5   -1    0    0    0  501 -0.00000000000E+00 -0.00000000000E+00 -0.14651314766E+04  0.14651390151E+04  0.47000000000E+01 0.  1.
          6    1    1    2  502    0  0.35282271028E+01  0.27991118111E+03 -0.18446403777E+03  0.37679397411E+03  0.17200000000E+03 0. -1.
         -6    1    1    2    0  502 -0.35282271028E+01 -0.27991118111E+03 -0.11617705003E+04  0.12073348388E+04  0.17200000000E+03 0.  1.
</event>
<event>
 4    1 -0.3240665E-004  0.1909381E+03  0.7818608E-02  0.1157618E+00
         -5   -1    0    0    0  501 -0.00000000000E+00  0.00000000000E+00  0.22269803372E+03  0.22274762451E+03  0.47000000000E+01 0.  1.
          5   -1    0    0  501    0  0.00000000000E+00 -0.00000000000E+00 -0.16770242062E+03  0.16776826840E+03  0.47000000000E+01 0. -1.
          6    1    1    2  502    0  0.56641858580E+02 -0.60539645819E+02 -0.30086597727E+01  0.19096177862E+03  0.17200000000E+03 0. -1.
         -6    1    1    2    0  502 -0.56641858580E+02  0.60539645819E+02  0.58004272870E+02  0.19955411429E+03  0.17200000000E+03 0.  1.
</event>
<event>
 4    1 -0.3240665E-004  0.2058344E+03  0.7818608E-02  0.1144908E+00
         -5   -1    0    0    0  501 -0.00000000000E+00  0.00000000000E+00  0.20210214936E+03  0.20215679256E+03  0.47000000000E+01 0.  1.
          5   -1    0    0  501    0  0.00000000000E+00 -0.00000000000E+00 -0.25791954894E+03  0.25796236882E+03  0.47000000000E+01 0. -1.
          6    1    1    2  502    0 -0.59170814518E+02 -0.96346248557E+02 -0.12754210895E+03  0.24214618406E+03  0.17200000000E+03 0. -1.
         -6    1    1    2    0  502  0.59170814518E+02  0.96346248557E+02  0.71724709371E+02  0.21797297731E+03  0.17200000000E+03 0. -1.
</event>
<event>
 4    1 -0.3240665E-004  0.2348311E+03  0.7818608E-02  0.1123285E+00
         -5   -1    0    0    0  501 -0.00000000000E+00  0.00000000000E+00  0.20342260176E+03  0.20347689035E+03  0.47000000000E+01 0.  1.
          5   -1    0    0  501    0  0.00000000000E+00 -0.00000000000E+00 -0.29814966766E+03  0.29818671051E+03  0.47000000000E+01 0. -1.
          6    1    1    2  502    0 -0.14619051031E+03  0.64730112170E+02 -0.12307357975E+03  0.26512781589E+03  0.17200000000E+03 0. -1.
         -6    1    1    2    0  502  0.14619051031E+03 -0.64730112170E+02  0.28346513846E+02  0.23653578498E+03  0.17200000000E+03 0.  1.
</event>
<event>
 4    1 -0.3240665E-004  0.1821473E+03  0.7818608E-02  0.1165741E+00
          5   -1    0    0  501    0  0.00000000000E+00  0.00000000000E+00  0.12075818079E+03  0.12084960996E+03  0.47000000000E+01 0. -1.
         -5   -1    0    0    0  501 -0.00000000000E+00 -0.00000000000E+00 -0.41286843584E+03  0.41289518684E+03  0.47000000000E+01 0.  1.
          6    1    1    2  502    0  0.45878715061E+02  0.38584814754E+02  0.84010099269E+01  0.18234094821E+03  0.17200000000E+03 0. -1.
         -6    1    1    2    0  502 -0.45878715061E+02 -0.38584814754E+02 -0.30051126498E+03  0.35140384859E+03  0.17200000000E+03 0.  1.
</event>
<event>
 4    1 -0.3240665E-004  0.1737401E+03  0.7818608E-02  0.1174003E+00
         -5   -1    0    0    0  501 -0.00000000000E+00  0.00000000000E+00  0.28132738022E+02  0.28522639229E+02  0.47000000000E+01 0.  1.
          5   -1    0    0  501    0  0.00000000000E+00 -0.00000000000E+00 -0.12285852118E+04  0.12285942018E+04  0.47000000000E+01 0. -1.
          6    1    1    2  502    0  0.17323350987E+02 -0.17364446320E+02 -0.82941286701E+03  0.84741449506E+03  0.17200000000E+03 0. -1.
         -6    1    1    2    0  502 -0.17323350987E+02  0.17364446320E+02 -0.37103960679E+03  0.40970234597E+03  0.17200000000E+03 0.  1.
</event>
<event>
 4    1 -0.3240665E-004  0.2560354E+03  0.7818608E-02  0.1109549E+00
          5   -1    0    0  501    0  0.00000000000E+00  0.00000000000E+00  0.18560884898E+03  0.18566834631E+03  0.47000000000E+01 0. -1.
         -5   -1    0    0    0  501 -0.00000000000E+00 -0.00000000000E+00 -0.38207770141E+03  0.38210660805E+03  0.47000000000E+01 0.  1.
          6    1    1    2  502    0 -0.75645941569E+02  0.17391899759E+03 -0.17647046421E+03  0.31095972559E+03  0.17200000000E+03 0. -1.
         -6    1    1    2    0  502  0.75645941569E+02 -0.17391899759E+03 -0.19998388217E+02  0.25681522877E+03  0.17200000000E+03 0. -1.
</event>
<event>
 4    1 -0.3240665E-004  0.1729741E+03  0.7818608E-02  0.1174781E+00
         -5   -1    0    0    0  501 -0.00000000000E+00  0.00000000000E+00  0.72639454367E+02  0.72791347911E+02  0.47000000000E+01 0.  1.
          5   -1    0    0  501    0  0.00000000000E+00 -0.00000000000E+00 -0.59495055748E+03  0.59496912176E+03  0.47000000000E+01 0. -1.
          6    1    1    2  502    0 -0.11550091327E+02 -0.14235291988E+02 -0.44662813524E+03  0.47895379666E+03  0.17200000000E+03 0. -1.
         -6    1    1    2    0  502  0.11550091327E+02  0.14235291988E+02 -0.75682967879E+02  0.18880667301E+03  0.17200000000E+03 0.  1.
</event>
<event>
 4    1 -0.3240665E-004  0.2034503E+03  0.7818608E-02  0.1146860E+00
          5   -1    0    0  501    0  0.00000000000E+00  0.00000000000E+00  0.75688565426E+03  0.75690024681E+03  0.47000000000E+01 0. -1.
         -5   -1    0    0    0  501 -0.00000000000E+00 -0.00000000000E+00 -0.12264416026E+03  0.12273418450E+03  0.47000000000E+01 0.  1.
          6    1    1    2  502    0  0.10860448884E+03 -0.36187516360E+01  0.64457603103E+03  0.67592180771E+03  0.17200000000E+03 0. -1.
         -6    1    1    2    0  502 -0.10860448884E+03  0.36187516360E+01 -0.10334537030E+02  0.20371262360E+03  0.17200000000E+03 0.  1.
</event>
<event>
 4    1 -0.3240665E-004  0.2135957E+03  0.7818608E-02  0.1138750E+00
          5   -1    0    0  501    0  0.00000000000E+00  0.00000000000E+00  0.44076527713E+03  0.44079033511E+03  0.47000000000E+01 0. -1.
         -5   -1    0    0    0  501 -0.00000000000E+00 -0.00000000000E+00 -0.11177498150E+03  0.11187375246E+03  0.47000000000E+01 0.  1.
          6    1    1    2  502    0 -0.61542320149E+02 -0.11068716715E+03  0.23996769979E+03  0.32125940155E+03  0.17200000000E+03 0. -1.
         -6    1    1    2    0  502  0.61542320149E+02  0.11068716715E+03  0.89022595847E+02  0.23140468602E+03  0.17200000000E+03 0.  1.
</event>
<event>
 4    1 -0.3240665E-004  0.2016600E+03  0.7818608E-02  0.1148346E+00
         -5   -1    0    0    0  501 -0.00000000000E+00  0.00000000000E+00  0.91904373671E+02  0.92024474461E+02  0.47000000000E+01 0.  1.
          5   -1    0    0  501    0  0.00000000000E+00 -0.00000000000E+00 -0.46341624678E+03  0.46344008003E+03  0.47000000000E+01 0. -1.
          6    1    1    2  502    0 -0.10479987337E+03  0.99879203841E+01 -0.12615559253E+03  0.23786972388E+03  0.17200000000E+03 0. -1.
         -6    1    1    2    0  502  0.10479987337E+03 -0.99879203841E+01 -0.24535628057E+03  0.31759483061E+03  0.17200000000E+03 0. -1.
</event>
<event>
 4    1 -0.3240665E-004  0.1760407E+03  0.7818608E-02  0.1171691E+00
          5   -1    0    0  501    0  0.00000000000E+00  0.00000000000E+00  0.15183902883E+04  0.15183975624E+04  0.47000000000E+01 0. -1.
         -5   -1    0    0    0  501 -0.00000000000E+00 -0.00000000000E+00 -0.22299889537E+02  0.22789801959E+02  0.47000000000E+01 0.  1.
          6    1    1    2  502    0  0.18194068293E+02 -0.32791775791E+02  0.51054714134E+03  0.54004509831E+03  0.17200000000E+03 0. -1.
         -6    1    1    2    0  502 -0.18194068293E+02  0.32791775791E+02  0.98554325743E+03  0.10011422661E+04  0.17200000000E+03 0. -1.
</event>
<event>
 4    1 -0.3240665E-004  0.4278539E+03  0.7818608E-02  0.1034540E+00
          5   -1    0    0  501    0  0.00000000000E+00  0.00000000000E+00  0.56088780561E+03  0.56090749726E+03  0.47000000000E+01 0. -1.
         -5   -1    0    0    0  501 -0.00000000000E+00 -0.00000000000E+00 -0.50831445451E+03  0.50833618272E+03  0.47000000000E+01 0.  1.
          6    1    1    2  502    0  0.30972833392E+03 -0.23988179761E+03  0.34615847023E+03  0.55034952909E+03  0.17200000000E+03 0. -1.
         -6    1    1    2    0  502 -0.30972833392E+03  0.23988179761E+03 -0.29358511913E+03  0.51889415089E+03  0.17200000000E+03 0.  1.
</event>
<event>
 4    1 -0.3240665E-004  0.2496872E+03  0.7818608E-02  0.1113503E+00
          5   -1    0    0  501    0  0.00000000000E+00  0.00000000000E+00  0.83456958217E+03  0.83458281643E+03  0.47000000000E+01 0. -1.
         -5   -1    0    0    0  501 -0.00000000000E+00 -0.00000000000E+00 -0.89131024228E+02  0.89254856899E+02  0.47000000000E+01 0.  1.
          6    1    1    2  502    0  0.17237275571E+03 -0.55202634063E+02  0.55898345107E+03  0.61221417518E+03  0.17200000000E+03 0.  1.
         -6    1    1    2    0  502 -0.17237275571E+03  0.55202634063E+02  0.18645510687E+03  0.31162349815E+03  0.17200000000E+03 0.  1.
</event>
<event>
 4    1 -0.3240665E-004  0.2491479E+03  0.7818608E-02  0.1113845E+00
         -5   -1    0    0    0  501 -0.00000000000E+00  0.00000000000E+00  0.17908352990E+03  0.17914519441E+03  0.47000000000E+01 0.  1.
          5   -1    0    0  501    0  0.00000000000E+00 -0.00000000000E+00 -0.41575101276E+03  0.41577757829E+03  0.47000000000E+01 0. -1.
          6    1    1    2  502    0 -0.16582730034E+03  0.70653945698E+02 -0.23973431163E+03  0.34575600321E+03  0.17200000000E+03 0. -1.
         -6    1    1    2    0  502  0.16582730034E+03 -0.70653945698E+02  0.30668287749E+01  0.24916676949E+03  0.17200000000E+03 0.  1.
</event>
<event>
 4    1 -0.3240665E-004  0.1865837E+03  0.7818608E-02  0.1161579E+00
          5   -1    0    0  501    0  0.00000000000E+00  0.00000000000E+00  0.71895772623E+02  0.72049234007E+02  0.47000000000E+01 0. -1.
         -5   -1    0    0    0  501 -0.00000000000E+00 -0.00000000000E+00 -0.53849294613E+03  0.53851345669E+03  0.47000000000E+01 0.  1.
          6    1    1    2  502    0  0.47044337503E+02 -0.54920814228E+02 -0.13579190262E+03  0.23076591244E+03  0.17200000000E+03 0. -1.
         -6    1    1    2    0  502 -0.47044337503E+02  0.54920814228E+02 -0.33080527089E+03  0.37979677825E+03  0.17200000000E+03 0.  1.
</event>
<event>
 4    1 -0.3240665E-004  0.1724433E+03  0.7818608E-02  0.1175324E+00
         -5   -1    0    0    0  501 -0.00000000000E+00  0.00000000000E+00  0.48476596773E+03  0.48478875138E+03  0.47000000000E+01 0.  1.
          5   -1    0    0  501    0  0.00000000000E+00 -0.00000000000E+00 -0.76209960885E+02  0.76354751902E+02  0.47000000000E+01 0. -1.
          6    1    1    2  502    0 -0.11559592051E+02  0.43648514827E+01  0.80028545538E+02  0.19010850638E+03  0.17200000000E+03 0. -1.
         -6    1    1    2    0  502  0.11559592051E+02 -0.43648514827E+01  0.32852746130E+03  0.37103499690E+03  0.17200000000E+03 0.  1.
</event>
<event>
 4    1 -0.3240665E-004  0.2322255E+03  0.7818608E-02  0.1125083E+00
          5   -1    0    0  501    0  0.00000000000E+00  0.00000000000E+00  0.36442200406E+03  0.36445231106E+03  0.47000000000E+01 0. -1.
         -5   -1    0    0    0  501 -0.00000000000E+00 -0.00000000000E+00 -0.15422146284E+03  0.15429306401E+03  0.47000000000E+01 0.  1.
          6    1    1    2  502    0 -0.14475903111E+03  0.58219438883E+02  0.15755188550E+03  0.28062657888E+03  0.17200000000E+03 0. -1.
         -6    1    1    2    0  502  0.14475903111E+03 -0.58219438883E+02  0.52648655712E+02  0.23811879619E+03  0.17200000000E+03 0.  1.
</event>
<event>
 4    1 -0.3240665E-004  0.1906511E+03  0.7818608E-02  0.1157875E+00
         -5   -1    0    0    0  501 -0.00000000000E+00  0.00000000000E+00  0.15472601767E+03  0.15479738546E+03  0.47000000000E+01 0.  1.
          5   -1    0    0  501    0  0.00000000000E+00 -0.00000000000E+00 -0.23588854490E+03  0.23593536321E+03  0.47000000000E+01 0. -1.
          6    1    1    2  502    0 -0.38072417913E+01  0.82154467974E+02 -0.54040292789E+02  0.19816206737E+03  0.17200000000E+03 0. -1.
         -6    1    1    2    0  502  0.38072417913E+01 -0.82154467974E+02 -0.27122234433E+02  0.19257068131E+03  0.17200000000E+03 0. -1.
</event>
<event>
 4    1 -0.3240665E-004  0.1841893E+03  0.7818608E-02  0.1163809E+00
         -5   -1    0    0    0  501 -0.00000000000E+00  0.00000000000E+00  0.26932414855E+02  0.27339439824E+02  0.47000000000E+01 0.  1.
          5   -1    0    0  501    0  0.00000000000E+00 -0.00000000000E+00 -0.12536709953E+04  0.12536798054E+04  0.47000000000E+01 0. -1.
          6    1    1    2  502    0  0.62132810833E+02 -0.21936223195E+02 -0.64894865247E+03  0.67458137953E+03  0.17200000000E+03 0. -1.
         -6    1    1    2    0  502 -0.62132810833E+02  0.21936223195E+02 -0.57778992800E+03  0.60643786571E+03  0.17200000000E+03 0.  1.
</event>
<event>
 4    1 -0.3240665E-004  0.2342339E+03  0.7818608E-02  0.1123695E+00
         -5   -1    0    0    0  501 -0.00000000000E+00  0.00000000000E+00  0.24097400169E+03  0.24101983215E+03  0.47000000000E+01 0.  1.
          5   -1    0    0  501    0  0.00000000000E+00 -0.00000000000E+00 -0.23029912421E+03  0.23034707858E+03  0.47000000000E+01 0. -1.
          6    1    1    2  502    0  0.15105343380E+03 -0.49642569683E+02 -0.20216684314E+02  0.23510474030E+03  0.17200000000E+03 0. -1.
         -6    1    1    2    0  502 -0.15105343380E+03  0.49642569683E+02  0.30891561798E+02  0.23626217043E+03  0.17200000000E+03 0.  1.
</event>
<event>
 4    1 -0.3240665E-004  0.3155367E+03  0.7818608E-02  0.1077722E+00
         -5   -1    0    0    0  501 -0.00000000000E+00  0.00000000000E+00  0.14604759280E+04  0.14604834906E+04  0.47000000000E+01 0.  1.
          5   -1    0    0  501    0  0.00000000000E+00 -0.00000000000E+00 -0.72743498419E+02  0.72895175164E+02  0.47000000000E+01 0. -1.
          6    1    1    2  502    0 -0.19959314208E+03 -0.17361439965E+03  0.88770592020E+03  0.94211739337E+03  0.17200000000E+03 0. -1.
         -6    1    1    2    0  502  0.19959314208E+03  0.17361439965E+03  0.50002650939E+03  0.59126127239E+03  0.17200000000E+03 0.  1.
</event>
<event>
 4    1 -0.3240665E-004  0.2246212E+03  0.7818608E-02  0.1130484E+00
         -5   -1    0    0    0  501 -0.00000000000E+00  0.00000000000E+00  0.66424988984E+03  0.66426651741E+03  0.47000000000E+01 0.  1.
          5   -1    0    0  501    0  0.00000000000E+00 -0.00000000000E+00 -0.86618804719E+02  0.86746223728E+02  0.47000000000E+01 0. -1.
          6    1    1    2  502    0 -0.14352703210E+03  0.16452586254E+02  0.15663533292E+03  0.27384178654E+03  0.17200000000E+03 0. -1.
         -6    1    1    2    0  502  0.14352703210E+03 -0.16452586254E+02  0.42099575220E+03  0.47717095459E+03  0.17200000000E+03 0.  1.
</event>
<event>
 4    1 -0.3240665E-004  0.2548812E+03  0.7818608E-02  0.1110258E+00
          5   -1    0    0  501    0  0.00000000000E+00  0.00000000000E+00  0.86779925083E+02  0.86907107865E+02  0.47000000000E+01 0. -1.
         -5   -1    0    0    0  501 -0.00000000000E+00 -0.00000000000E+00 -0.80157551851E+03  0.80158929751E+03  0.47000000000E+01 0.  1.
          6    1    1    2  502    0 -0.18767397942E+03  0.12606158877E+02 -0.24247995473E+03  0.35179676837E+03  0.17200000000E+03 0. -1.
         -6    1    1    2    0  502  0.18767397942E+03 -0.12606158877E+02 -0.47231563871E+03  0.53669963700E+03  0.17200000000E+03 0.  1.
</event>
<event>
 4    1 -0.3240665E-004  0.4838536E+03  0.7818608E-02  0.1018081E+00
         -5   -1    0    0    0  501 -0.00000000000E+00  0.00000000000E+00  0.28641570279E+03  0.28645426302E+03  0.47000000000E+01 0.  1.
          5   -1    0    0  501    0  0.00000000000E+00 -0.00000000000E+00 -0.81967146043E+03  0.81968493523E+03  0.47000000000E+01 0. -1.
          6    1    1    2  502    0  0.15879923154E+03 -0.42345382158E+03 -0.23683731048E+03  0.53870794183E+03  0.17200000000E+03 0. -1.
         -6    1    1    2    0  502 -0.15879923154E+03  0.42345382158E+03 -0.29641844716E+03  0.56743125642E+03  0.17200000000E+03 0.  1.
</event>
<event>
 4    1 -0.3240665E-004  0.4669275E+03  0.7818608E-02  0.1022791E+00
          5   -1    0    0  501    0  0.00000000000E+00  0.00000000000E+00  0.73718799709E+03  0.73720297954E+03  0.47000000000E+01 0. -1.
         -5   -1    0    0    0  501 -0.00000000000E+00 -0.00000000000E+00 -0.66128493689E+03  0.66130163901E+03  0.47000000000E+01 0.  1.
          6    1    1    2  502    0  0.43119434448E+03  0.50087391507E+02  0.55784416943E+03  0.72746919307E+03  0.17200000000E+03 0. -1.
         -6    1    1    2    0  502 -0.43119434448E+03 -0.50087391507E+02 -0.48194110923E+03  0.67103542549E+03  0.17200000000E+03 0.  1.
</event>
<event>
 4    1 -0.3240665E-004  0.3525921E+03  0.7818608E-02  0.1061556E+00
          5   -1    0    0  501    0  0.00000000000E+00  0.00000000000E+00  0.58497671669E+03  0.58499559748E+03  0.47000000000E+01 0. -1.
         -5   -1    0    0    0  501 -0.00000000000E+00 -0.00000000000E+00 -0.26353641517E+03  0.26357832255E+03  0.47000000000E+01 0.  1.
          6    1    1    2  502    0  0.57285524146E+02  0.30241619917E+03  0.34745763670E+03  0.49502322985E+03  0.17200000000E+03 0. -1.
         -6    1    1    2    0  502 -0.57285524146E+02 -0.30241619917E+03 -0.26017335170E+02  0.35355069018E+03  0.17200000000E+03 0.  1.
</event>
<event>
 4    1 -0.3240665E-004  0.1781378E+03  0.7818608E-02  0.1169618E+00
          5   -1    0    0  501    0  0.00000000000E+00  0.00000000000E+00  0.22260113945E+03  0.22265075181E+03  0.47000000000E+01 0. -1.
         -5   -1    0    0    0  501 -0.00000000000E+00 -0.00000000000E+00 -0.14245162413E+03  0.14252913813E+03  0.47000000000E+01 0.  1.
          6    1    1    2  502    0  0.13013542274E+02 -0.44494079436E+02  0.39908163924E+02  0.18255338106E+03  0.17200000000E+03 0. -1.
         -6    1    1    2    0  502 -0.13013542274E+02  0.44494079436E+02  0.40241351392E+02  0.18262650889E+03  0.17200000000E+03 0.  1.
</event>
<event>
 4    1 -0.3240665E-004  0.1756796E+03  0.7818608E-02  0.1172051E+00
         -5   -1    0    0    0  501 -0.00000000000E+00  0.00000000000E+00  0.21984886270E+03  0.21989909602E+03  0.47000000000E+01 0.  1.
          5   -1    0    0  501    0  0.00000000000E+00 -0.00000000000E+00 -0.17818047735E+03  0.17824245428E+03  0.47000000000E+01 0. -1.
          6    1    1    2  502    0  0.29806655240E+02  0.19771095418E+02 -0.70948413100E+02  0.18946506335E+03  0.17200000000E+03 0. -1.
         -6    1    1    2    0  502 -0.29806655240E+02 -0.19771095418E+02  0.11261679845E+03  0.20867648694E+03  0.17200000000E+03 0.  1.
</event>
<event>
 4    1 -0.3240665E-004  0.1963144E+03  0.7818608E-02  0.1152886E+00
         -5   -1    0    0    0  501 -0.00000000000E+00  0.00000000000E+00  0.11790948500E+03  0.11800312137E+03  0.47000000000E+01 0.  1.
          5   -1    0    0  501    0  0.00000000000E+00 -0.00000000000E+00 -0.32772323508E+03  0.32775693557E+03  0.47000000000E+01 0. -1.
          6    1    1    2  502    0 -0.91550331737E+02  0.23955954238E+02 -0.11786456725E+03  0.22897905406E+03  0.17200000000E+03 0.  1.
         -6    1    1    2    0  502  0.91550331737E+02 -0.23955954238E+02 -0.91949182839E+02  0.21678100288E+03  0.17200000000E+03 0.  1.
</event>
<event>
 4    1 -0.3240665E-004  0.1753863E+03  0.7818608E-02  0.1172344E+00
         -5   -1    0    0    0  501 -0.00000000000E+00  0.00000000000E+00  0.83517972245E+02  0.83650114692E+02  0.47000000000E+01 0.  1.
          5   -1    0    0  501    0  0.00000000000E+00 -0.00000000000E+00 -0.37340444467E+03  0.37343402268E+03  0.47000000000E+01 0. -1.
          6    1    1    2  502    0 -0.33627571922E+02 -0.67473667331E+01 -0.17276147956E+03  0.24618462456E+03  0.17200000000E+03 0. -1.
         -6    1    1    2    0  502  0.33627571922E+02  0.67473667331E+01 -0.11712499286E+03  0.21089951281E+03  0.17200000000E+03 0.  1.
</event>
<event>
 4    1 -0.3240665E-004  0.2689657E+03  0.7818608E-02  0.1101873E+00
          5   -1    0    0  501    0  0.00000000000E+00  0.00000000000E+00  0.36323589873E+03  0.36326630469E+03  0.47000000000E+01 0. -1.
         -5   -1    0    0    0  501 -0.00000000000E+00 -0.00000000000E+00 -0.21219435504E+03  0.21224640000E+03  0.47000000000E+01 0.  1.
          6    1    1    2  502    0  0.16092963011E+03 -0.12984679897E+03  0.14700325449E+03  0.30651671061E+03  0.17200000000E+03 0. -1.
         -6    1    1    2    0  502 -0.16092963011E+03  0.12984679897E+03  0.40382891951E+01  0.26899599408E+03  0.17200000000E+03 0.  1.
</event>
<event>
 4    1 -0.3240665E-004  0.1829412E+03  0.7818608E-02  0.1164987E+00
         -5   -1    0    0    0  501 -0.00000000000E+00  0.00000000000E+00  0.69285615079E+03  0.69287209187E+03  0.47000000000E+01 0.  1.
          5   -1    0    0  501    0  0.00000000000E+00 -0.00000000000E+00 -0.49582368663E+02  0.49804631133E+02  0.47000000000E+01 0. -1.
          6    1    1    2  502    0  0.51891719754E+02 -0.34506937496E+02  0.25917758747E+03  0.31723887082E+03  0.17200000000E+03 0. -1.
         -6    1    1    2    0  502 -0.51891719754E+02  0.34506937496E+02  0.38409619466E+03  0.42543785218E+03  0.17200000000E+03 0.  1.
</event>
<event>
 4    1 -0.3240665E-004  0.2622843E+03  0.7818608E-02  0.1105779E+00
         -5   -1    0    0    0  501 -0.00000000000E+00  0.00000000000E+00  0.17586187672E+03  0.17592467048E+03  0.47000000000E+01 0.  1.
          5   -1    0    0  501    0  0.00000000000E+00 -0.00000000000E+00 -0.40144216001E+03  0.40146967237E+03  0.47000000000E+01 0. -1.
          6    1    1    2  502    0 -0.19599923769E+03 -0.28166177372E+02 -0.15927990509E+03  0.30686010312E+03  0.17200000000E+03 0.  1.
         -6    1    1    2    0  502  0.19599923769E+03  0.28166177372E+02 -0.66300378198E+02  0.27053423974E+03  0.17200000000E+03 0.  1.
</event>
<event>
 4    1 -0.3240665E-004  0.2076126E+03  0.7818608E-02  0.1143471E+00
         -5   -1    0    0    0  501 -0.00000000000E+00  0.00000000000E+00  0.11386296165E+03  0.11395992293E+03  0.47000000000E+01 0.  1.
          5   -1    0    0  501    0  0.00000000000E+00 -0.00000000000E+00 -0.39661060464E+03  0.39663845214E+03  0.47000000000E+01 0. -1.
          6    1    1    2  502    0 -0.10694609705E+03 -0.45623749162E+02 -0.19625216464E+03  0.28568847769E+03  0.17200000000E+03 0. -1.
         -6    1    1    2    0  502  0.10694609705E+03  0.45623749162E+02 -0.86495478353E+02  0.22490989738E+03  0.17200000000E+03 0.  1.
</event>
<event>
 4    1 -0.3240665E-004  0.4245243E+03  0.7818608E-02  0.1035604E+00
          5   -1    0    0  501    0  0.00000000000E+00  0.00000000000E+00  0.49700657782E+03  0.49702880037E+03  0.47000000000E+01 0. -1.
         -5   -1    0    0    0  501 -0.00000000000E+00 -0.00000000000E+00 -0.42685307787E+03  0.42687895250E+03  0.47000000000E+01 0.  1.
          6    1    1    2  502    0  0.38583390368E+03  0.42060922096E+02  0.21434013582E+03  0.47556557510E+03  0.17200000000E+03 0. -1.
         -6    1    1    2    0  502 -0.38583390368E+03 -0.42060922096E+02 -0.14418663587E+03  0.44834217776E+03  0.17200000000E+03 0.  1.
</event>
<event>
 4    1 -0.3240665E-004  0.2882720E+03  0.7818608E-02  0.1091255E+00
         -5   -1    0    0    0  501 -0.00000000000E+00  0.00000000000E+00  0.60112546294E+02  0.60296005024E+02  0.47000000000E+01 0.  1.
          5   -1    0    0  501    0  0.00000000000E+00 -0.00000000000E+00 -0.13915105042E+04  0.13915184416E+04  0.47000000000E+01 0. -1.
          6    1    1    2  502    0  0.99924513208E+02  0.20864291456E+03 -0.60004447600E+03  0.66569824043E+03  0.17200000000E+03 0. -1.
         -6    1    1    2    0  502 -0.99924513208E+02 -0.20864291456E+03 -0.73135348193E+03  0.78611620621E+03  0.17200000000E+03 0.  1.
</event>
<event>
 4    1 -0.3240665E-004  0.1954038E+03  0.7818608E-02  0.1153676E+00
          5   -1    0    0  501    0  0.00000000000E+00  0.00000000000E+00  0.16030956861E+03  0.16037845175E+03  0.47000000000E+01 0. -1.
         -5   -1    0    0    0  501 -0.00000000000E+00 -0.00000000000E+00 -0.24743181013E+03  0.24747644466E+03  0.47000000000E+01 0.  1.
          6    1    1    2  502    0  0.36643328417E+02 -0.85181743532E+02 -0.38347849816E+01  0.19544147084E+03  0.17200000000E+03 0.  1.
         -6    1    1    2    0  502 -0.36643328417E+02  0.85181743532E+02 -0.83287456541E+02  0.21241342558E+03  0.17200000000E+03 0.  1.
</event>
<event>
 4    1 -0.3240665E-004  0.2306759E+03  0.7818608E-02  0.1126165E+00
         -5   -1    0    0    0  501 -0.00000000000E+00  0.00000000000E+00  0.19465819471E+03  0.19471492693E+03  0.47000000000E+01 0.  1.
          5   -1    0    0  501    0  0.00000000000E+00 -0.00000000000E+00 -0.43718493661E+03  0.43721019979E+03  0.47000000000E+01 0. -1.
          6    1    1    2  502    0  0.10904776457E+03 -0.10833270257E+03 -0.31472989280E+03  0.39021314025E+03  0.17200000000E+03 0. -1.
         -6    1    1    2    0  502 -0.10904776457E+03  0.10833270257E+03  0.72203150893E+02  0.24171198647E+03  0.17200000000E+03 0.  1.
</event>
<event>
 4    1 -0.3240665E-004  0.1785858E+03  0.7818608E-02  0.1169179E+00
         -5   -1    0    0    0  501 -0.00000000000E+00  0.00000000000E+00  0.18879283136E+03  0.18885132558E+03  0.47000000000E+01 0.  1.
          5   -1    0    0  501    0  0.00000000000E+00 -0.00000000000E+00 -0.23961759237E+03  0.23966368221E+03  0.47000000000E+01 0. -1.
          6    1    1    2  502    0 -0.47217066538E+02  0.89121244938E+01  0.91027923126E+02  0.20044690101E+03  0.17200000000E+03 0.  1.
         -6    1    1    2    0  502  0.47217066538E+02 -0.89121244938E+01 -0.14185268413E+03  0.22806810678E+03  0.17200000000E+03 0.  1.
</event>
<event>
 4    1 -0.3240665E-004  0.2606819E+03  0.7818608E-02  0.1106734E+00
          5   -1    0    0  501    0  0.00000000000E+00  0.00000000000E+00  0.71793341480E+03  0.71794879907E+03  0.47000000000E+01 0. -1.
         -5   -1    0    0    0  501 -0.00000000000E+00 -0.00000000000E+00 -0.95317628151E+02  0.95433433535E+02  0.47000000000E+01 0.  1.
          6    1    1    2  502    0 -0.54589574502E+02 -0.18812500366E+03  0.27553012063E+03  0.37930447667E+03  0.17200000000E+03 0.  1.
         -6    1    1    2    0  502  0.54589574502E+02  0.18812500366E+03  0.34708566602E+03  0.43407775594E+03  0.17200000000E+03 0. -1.
</event>
<event>
 4    1 -0.3240665E-004  0.2146075E+03  0.7818608E-02  0.1137968E+00
          5   -1    0    0  501    0  0.00000000000E+00  0.00000000000E+00  0.14785107959E+03  0.14792576427E+03  0.47000000000E+01 0. -1.
         -5   -1    0    0    0  501 -0.00000000000E+00 -0.00000000000E+00 -0.31135136864E+03  0.31138684101E+03  0.47000000000E+01 0.  1.
          6    1    1    2  502    0 -0.74706727834E+02  0.10436137468E+03 -0.83455425229E+02  0.23026332689E+03  0.17200000000E+03 0. -1.
         -6    1    1    2    0  502  0.74706727834E+02 -0.10436137468E+03 -0.80044863819E+02  0.22904927839E+03  0.17200000000E+03 0. -1.
</event>
<event>
 4    1 -0.3240665E-004  0.2562614E+03  0.7818608E-02  0.1109411E+00
         -5   -1    0    0    0  501 -0.00000000000E+00  0.00000000000E+00  0.14647461754E+03  0.14655000369E+03  0.47000000000E+01 0.  1.
          5   -1    0    0  501    0  0.00000000000E+00 -0.00000000000E+00 -0.68900863680E+03  0.68902466689E+03  0.47000000000E+01 0. -1.
          6    1    1    2  502    0  0.72216119132E+02  0.17570064342E+03 -0.51827386808E+03  0.57816752442E+03  0.17200000000E+03 0. -1.
         -6    1    1    2    0  502 -0.72216119132E+02 -0.17570064342E+03 -0.24260151178E+02  0.25740714616E+03  0.17200000000E+03 0.  1.
</event>
<event>
 4    1 -0.3240665E-004  0.2196082E+03  0.7818608E-02  0.1134175E+00
          5   -1    0    0  501    0  0.00000000000E+00  0.00000000000E+00  0.41239702866E+02  0.41506663230E+02  0.47000000000E+01 0. -1.
         -5   -1    0    0    0  501 -0.00000000000E+00 -0.00000000000E+00 -0.11900320937E+04  0.11900413749E+04  0.47000000000E+01 0.  1.
          6    1    1    2  502    0 -0.42342318369E+01  0.13647654562E+03 -0.66296767256E+03  0.69839380802E+03  0.17200000000E+03 0. -1.
         -6    1    1    2    0  502  0.42342318369E+01 -0.13647654562E+03 -0.48582471826E+03  0.53315423012E+03  0.17200000000E+03 0.  1.
</event>
<event>
 4    1 -0.3240665E-004  0.2175001E+03  0.7818608E-02  0.1135761E+00
         -5   -1    0    0    0  501 -0.00000000000E+00  0.00000000000E+00  0.36375818096E+03  0.36378854327E+03  0.47000000000E+01 0.  1.
          5   -1    0    0  501    0  0.00000000000E+00 -0.00000000000E+00 -0.13065918667E+03  0.13074369224E+03  0.47000000000E+01 0. -1.
          6    1    1    2  502    0  0.12978174436E+03 -0.29647779737E+02  0.98605301731E+02  0.23880807679E+03  0.17200000000E+03 0. -1.
         -6    1    1    2    0  502 -0.12978174436E+03  0.29647779737E+02  0.13449369256E+03  0.25572415872E+03  0.17200000000E+03 0.  1.
</event>
<event>
 4    1 -0.3240665E-004  0.2658646E+03  0.7818608E-02  0.1103670E+00
          5   -1    0    0  501    0  0.00000000000E+00  0.00000000000E+00  0.20929123432E+03  0.20934400102E+03  0.47000000000E+01 0. -1.
         -5   -1    0    0    0  501 -0.00000000000E+00 -0.00000000000E+00 -0.42470877570E+03  0.42473478096E+03  0.47000000000E+01 0.  1.
          6    1    1    2  502    0 -0.15280707374E+03  0.13322902594E+03  0.35843604062E+02  0.26826989971E+03  0.17200000000E+03 0.  1.
         -6    1    1    2    0  502  0.15280707374E+03 -0.13322902594E+03 -0.25126114545E+03  0.36580888227E+03  0.17200000000E+03 0.  1.
</event>
<event>
 4    1 -0.3240665E-004  0.4129920E+03  0.7818608E-02  0.1039372E+00
         -5   -1    0    0    0  501 -0.00000000000E+00  0.00000000000E+00  0.36692284860E+03  0.36695294907E+03  0.47000000000E+01 0.  1.
          5   -1    0    0  501    0  0.00000000000E+00 -0.00000000000E+00 -0.58364984240E+03  0.58366876611E+03  0.47000000000E+01 0. -1.
          6    1    1    2  502    0  0.16892725432E+03  0.33532371541E+03 -0.32285507204E+03  0.52421160700E+03  0.17200000000E+03 0. -1.
         -6    1    1    2    0  502 -0.16892725432E+03 -0.33532371541E+03  0.10612807825E+03  0.42641010818E+03  0.17200000000E+03 0.  1.
</event>
<event>
 4    1 -0.3240665E-004  0.1808639E+03  0.7818608E-02  0.1166970E+00
          5   -1    0    0  501    0  0.00000000000E+00  0.00000000000E+00  0.17620212556E+02  0.18236279514E+02  0.47000000000E+01 0. -1.
         -5   -1    0    0    0  501 -0.00000000000E+00 -0.00000000000E+00 -0.18254102061E+04  0.18254162568E+04  0.47000000000E+01 0.  1.
          6    1    1    2  502    0  0.48096790761E+02  0.28538325365E+02 -0.87803364700E+03  0.89646797074E+03  0.17200000000E+03 0.  1.
         -6    1    1    2    0  502 -0.48096790761E+02 -0.28538325365E+02 -0.92975634656E+03  0.94718456557E+03  0.17200000000E+03 0. -1.
</event>
<event>
 4    1 -0.3240665E-004  0.2919782E+03  0.7818608E-02  0.1089321E+00
          5   -1    0    0  501    0  0.00000000000E+00  0.00000000000E+00  0.17464109349E+03  0.17470432604E+03  0.47000000000E+01 0. -1.
         -5   -1    0    0    0  501 -0.00000000000E+00 -0.00000000000E+00 -0.55523969567E+03  0.55525958762E+03  0.47000000000E+01 0.  1.
          6    1    1    2  502    0 -0.21798766842E+03 -0.90269705297E+02 -0.63286038752E+02  0.29875803918E+03  0.17200000000E+03 0.  1.
         -6    1    1    2    0  502  0.21798766842E+03  0.90269705297E+02 -0.31731256342E+03  0.43120587447E+03  0.17200000000E+03 0.  1.
</event>
<event>
 4    1 -0.3240665E-004  0.1872702E+03  0.7818608E-02  0.1160947E+00
         -5   -1    0    0    0  501 -0.00000000000E+00  0.00000000000E+00  0.60988294279E+03  0.60990105255E+03  0.47000000000E+01 0.  1.
          5   -1    0    0  501    0  0.00000000000E+00 -0.00000000000E+00 -0.57414074709E+02  0.57606127926E+02  0.47000000000E+01 0. -1.
          6    1    1    2  502    0 -0.32542944446E+02  0.66536290290E+02  0.28333380492E+03  0.33962945421E+03  0.17200000000E+03 0.  1.
         -6    1    1    2    0  502  0.32542944446E+02 -0.66536290290E+02  0.26913506316E+03  0.32787772627E+03  0.17200000000E+03 0. -1.
</event>
<event>
 4    1 -0.3240665E-004  0.2203999E+03  0.7818608E-02  0.1133585E+00
          5   -1    0    0  501    0  0.00000000000E+00  0.00000000000E+00  0.72686202323E+02  0.72837998381E+02  0.47000000000E+01 0. -1.
         -5   -1    0    0    0  501 -0.00000000000E+00 -0.00000000000E+00 -0.67332789656E+03  0.67334429996E+03  0.47000000000E+01 0.  1.
          6    1    1    2  502    0 -0.13779352302E+03  0.22475816001E+01 -0.26544174734E+03  0.34501511248E+03  0.17200000000E+03 0. -1.
         -6    1    1    2    0  502  0.13779352302E+03 -0.22475816001E+01 -0.33519994690E+03  0.40116718586E+03  0.17200000000E+03 0. -1.
</event>
<event>
 4    1 -0.3240665E-004  0.1774795E+03  0.7818608E-02  0.1170265E+00
          5   -1    0    0  501    0  0.00000000000E+00  0.00000000000E+00  0.12439894449E+03  0.12448769975E+03  0.47000000000E+01 0. -1.
         -5   -1    0    0    0  501 -0.00000000000E+00 -0.00000000000E+00 -0.25855190981E+03  0.25859462498E+03  0.47000000000E+01 0.  1.
          6    1    1    2  502    0  0.21741012486E+02 -0.37977784543E+02 -0.95115632490E+02  0.20136029223E+03  0.17200000000E+03 0.  1.
         -6    1    1    2    0  502 -0.21741012486E+02  0.37977784543E+02 -0.39037332833E+02  0.18172203250E+03  0.17200000000E+03 0. -1.
</event>
<event>
 4    1 -0.3240665E-004  0.2558277E+03  0.7818608E-02  0.1109676E+00
         -5   -1    0    0    0  501 -0.00000000000E+00  0.00000000000E+00  0.23573222152E+03  0.23577907087E+03  0.47000000000E+01 0.  1.
          5   -1    0    0  501    0  0.00000000000E+00 -0.00000000000E+00 -0.28308029397E+03  0.28311930848E+03  0.47000000000E+01 0. -1.
          6    1    1    2  502    0 -0.14685863662E+03  0.11956727054E+03 -0.59958919263E+02  0.26276008703E+03  0.17200000000E+03 0. -1.
         -6    1    1    2    0  502  0.14685863662E+03 -0.11956727054E+03  0.12610846814E+02  0.25613829232E+03  0.17200000000E+03 0.  1.
</event>
